<event>
 7    1  0.1427898E-010  0.4778728E+02  0.7816164E-02  0.1312668E+00
        -11   -1    0    0    0    0  0.00000000000E+00  0.00000000000E+00  0.45593999997E+02  0.45594000000E+02  0.51100000000E-03 0.  1.
         11   -1    0    0    0    0 -0.00000000000E+00 -0.00000000000E+00 -0.45593999997E+02  0.45594000000E+02  0.51100000000E-03 0. -1.
    9900012    2    1    2    0    0 -0.40819137790E+02 -0.49179705055E+01 -0.13900857879E+02  0.47787282338E+02  0.20000051492E+02 0.  0.
        -12    1    1    2    0    0  0.40819137790E+02  0.49179705055E+01  0.13900857879E+02  0.43400717662E+02  0.00000000000E+00 0.  1.
         11    1    3    3    0    0 -0.32515433811E+02  0.58971857163E+00 -0.13249696066E+02  0.35116316008E+02  0.51100000000E-03 0. -1.
        -11    1    3    3    0    0 -0.93939307045E+01 -0.53916803682E+01 -0.19134926599E+01  0.10998982030E+02  0.51100000000E-03 0.  1.
        -12    1    3    3    0    0  0.10902267255E+01 -0.11600870885E+00  0.12623308462E+01  0.16719842998E+01  0.00000000000E+00 0.  1.
</event>
<event>
 7    1  0.1427898E-010  0.4778727E+02  0.7816164E-02  0.1312668E+00
        -11   -1    0    0    0    0  0.00000000000E+00  0.00000000000E+00  0.45593999997E+02  0.45594000000E+02  0.51100000000E-03 0.  1.
         11   -1    0    0    0    0 -0.00000000000E+00 -0.00000000000E+00 -0.45593999997E+02  0.45594000000E+02  0.51100000000E-03 0. -1.
    9900012    2    1    2    0    0 -0.65020986120E+01  0.22863899459E+02 -0.36312363654E+02  0.47787274902E+02  0.20000017590E+02 0.  0.
        -12    1    1    2    0    0  0.65020986120E+01 -0.22863899459E+02  0.36312363654E+02  0.43400725098E+02  0.00000000000E+00 0.  1.
         11    1    3    3    0    0 -0.14119661758E+01  0.12994419843E+01 -0.99349154617E+01  0.10118534649E+02  0.51100000000E-03 0.  1.
        -11    1    3    3    0    0 -0.28303175408E+01  0.22098112911E+02 -0.27241309167E+02  0.35191280411E+02  0.51100000000E-03 0. -1.
        -12    1    3    3    0    0 -0.22598148954E+01 -0.53365543650E+00  0.86386097406E+00  0.24774598420E+01  0.00000000000E+00 0.  1.
</event>
<event>
 7    1  0.1427898E-010  0.4778727E+02  0.7816164E-02  0.1312668E+00
        -11   -1    0    0    0    0  0.00000000000E+00  0.00000000000E+00  0.45593999997E+02  0.45594000000E+02  0.51100000000E-03 0.  1.
         11   -1    0    0    0    0 -0.00000000000E+00 -0.00000000000E+00 -0.45593999997E+02  0.45594000000E+02  0.51100000000E-03 0. -1.
    9900012    2    1    2    0    0  0.38353125349E+02  0.19971917165E+02 -0.37126415424E+01  0.47787269517E+02  0.19999993035E+02 0.  0.
        -12    1    1    2    0    0 -0.38353125349E+02 -0.19971917165E+02  0.37126415424E+01  0.43400730483E+02  0.00000000000E+00 0.  1.
         11    1    3    3    0    0  0.27510047792E+02  0.16494778210E+02 -0.41982114950E+01  0.32349735976E+02  0.51100000000E-03 0. -1.
        -11    1    3    3    0    0  0.74247015506E+01  0.34324720567E+01  0.51414021501E+01  0.96613701857E+01  0.51100000000E-03 0.  1.
        -12    1    3    3    0    0  0.34183760065E+01  0.44666897950E-01 -0.46558321975E+01  0.57761633551E+01  0.00000000000E+00 0.  1.
</event>
<event>
 7    1  0.1427898E-010  0.4778728E+02  0.7816164E-02  0.1312668E+00
        -11   -1    0    0    0    0  0.00000000000E+00  0.00000000000E+00  0.45593999997E+02  0.45594000000E+02  0.51100000000E-03 0.  1.
         11   -1    0    0    0    0 -0.00000000000E+00 -0.00000000000E+00 -0.45593999997E+02  0.45594000000E+02  0.51100000000E-03 0. -1.
    9900012    2    1    2    0    0 -0.22746633090E+02 -0.61285245571E+01 -0.36450712009E+02  0.47787279544E+02  0.20000038751E+02 0.  0.
        -12    1    1    2    0    0  0.22746633090E+02  0.61285245571E+01  0.36450712009E+02  0.43400720456E+02  0.00000000000E+00 0.  1.
         11    1    3    3    0    0 -0.15114350477E+02  0.56873945925E+00 -0.11890961938E+02  0.19239595395E+02  0.51100000000E-03 0. -1.
        -11    1    3    3    0    0 -0.32461353047E+01  0.11135224074E+01 -0.15236777025E+02  0.15618473067E+02  0.51100000000E-03 0.  1.
         12    1    3    3    0    0 -0.43861473089E+01 -0.78107864238E+01 -0.93229730464E+01  0.12929211082E+02  0.00000000000E+00 0. -1.
</event>
<event>
 7    1  0.1427898E-010  0.4778728E+02  0.7816164E-02  0.1312668E+00
        -11   -1    0    0    0    0  0.00000000000E+00  0.00000000000E+00  0.45593999997E+02  0.45594000000E+02  0.51100000000E-03 0.  1.
         11   -1    0    0    0    0 -0.00000000000E+00 -0.00000000000E+00 -0.45593999997E+02  0.45594000000E+02  0.51100000000E-03 0. -1.
    9900012    2    1    2    0    0  0.12734095311E+02 -0.41026005161E+02 -0.61913326602E+01  0.47787275548E+02  0.20000020533E+02 0.  0.
        -12    1    1    2    0    0 -0.12734095311E+02  0.41026005161E+02  0.61913326602E+01  0.43400724452E+02  0.00000000000E+00 0.  1.
         11    1    3    3    0    0  0.63491062359E+01 -0.11750276957E+02 -0.71025567127E+01  0.15127011294E+02  0.51100000000E-03 0. -1.
        -11    1    3    3    0    0 -0.20239940676E+01 -0.19166895508E+01  0.28320060594E+01  0.39737273940E+01  0.51100000000E-03 0.  1.
         12    1    3    3    0    0  0.84089831425E+01 -0.27359038653E+02 -0.19207820069E+01  0.28686536860E+02  0.00000000000E+00 0. -1.
</event>
<event>
 7    1  0.1427898E-010  0.4778727E+02  0.7816164E-02  0.1312668E+00
        -11   -1    0    0    0    0  0.00000000000E+00  0.00000000000E+00  0.45593999997E+02  0.45594000000E+02  0.51100000000E-03 0.  1.
         11   -1    0    0    0    0 -0.00000000000E+00 -0.00000000000E+00 -0.45593999997E+02  0.45594000000E+02  0.51100000000E-03 0. -1.
    9900012    2    1    2    0    0  0.21264063466E+02  0.35118264861E+02 -0.14077294874E+02  0.47787272438E+02  0.20000006353E+02 0.  0.
        -12    1    1    2    0    0 -0.21264063466E+02 -0.35118264861E+02  0.14077294874E+02  0.43400727562E+02  0.00000000000E+00 0.  1.
         11    1    3    3    0    0  0.12196700954E+02  0.14750425956E+02 -0.22052613428E+01  0.19266493140E+02  0.51100000000E-03 0. -1.
        -11    1    3    3    0    0 -0.18998978579E+01  0.57040104334E+00  0.12644010089E+01  0.23523773917E+01  0.51100000000E-03 0.  1.
        -12    1    3    3    0    0  0.10967260371E+02  0.19797437861E+02 -0.13136434540E+02  0.26168401906E+02  0.00000000000E+00 0.  1.
</event>
<event>
 7    1  0.1427898E-010  0.4778728E+02  0.7816164E-02  0.1312668E+00
        -11   -1    0    0    0    0  0.00000000000E+00  0.00000000000E+00  0.45593999997E+02  0.45594000000E+02  0.51100000000E-03 0.  1.
         11   -1    0    0    0    0 -0.00000000000E+00 -0.00000000000E+00 -0.45593999997E+02  0.45594000000E+02  0.51100000000E-03 0. -1.
    9900012    2    1    2    0    0 -0.27857448100E+02 -0.16532777682E+02 -0.28883431701E+02  0.47787276741E+02  0.20000025975E+02 0.  0.
        -12    1    1    2    0    0  0.27857448100E+02  0.16532777682E+02  0.28883431701E+02  0.43400723259E+02  0.00000000000E+00 0.  1.
         11    1    3    3    0    0  0.22231599154E+00  0.32368121783E+00 -0.38190656538E+00  0.54776529341E+00  0.51100000000E-03 0.  1.
        -11    1    3    3    0    0 -0.46628821367E+01  0.15640642017E+01 -0.12473539631E+02  0.13408130289E+02  0.51100000000E-03 0. -1.
         12    1    3    3    0    0 -0.23416881954E+02 -0.18420523102E+02 -0.16027985505E+02  0.33831381160E+02  0.00000000000E+00 0. -1.
</event>
<event>
 7    1  0.1427898E-010  0.4778727E+02  0.7816164E-02  0.1312668E+00
        -11   -1    0    0    0    0  0.00000000000E+00  0.00000000000E+00  0.45593999997E+02  0.45594000000E+02  0.51100000000E-03 0.  1.
         11   -1    0    0    0    0 -0.00000000000E+00 -0.00000000000E+00 -0.45593999997E+02  0.45594000000E+02  0.51100000000E-03 0. -1.
    9900012    2    1    2    0    0  0.20329641535E+02 -0.26142425561E+02 -0.28051777599E+02  0.47787274596E+02  0.20000016193E+02 0.  0.
        -12    1    1    2    0    0 -0.20329641535E+02  0.26142425561E+02  0.28051777599E+02  0.43400725404E+02  0.00000000000E+00 0.  1.
         11    1    3    3    0    0 -0.74434476485E+00 -0.55209691700E+00 -0.18374053498E+01  0.20578918376E+01  0.51100000000E-03 0. -1.
        -11    1    3    3    0    0  0.61340890101E+01 -0.56077095684E+01 -0.17373852179E+02  0.19259392368E+02  0.51100000000E-03 0.  1.
         12    1    3    3    0    0  0.14939897290E+02 -0.19982619076E+02 -0.88405200697E+01  0.26469990390E+02  0.00000000000E+00 0. -1.
</event>
<event>
 7    1  0.1427898E-010  0.4778728E+02  0.7816164E-02  0.1312668E+00
        -11   -1    0    0    0    0  0.00000000000E+00  0.00000000000E+00  0.45593999997E+02  0.45594000000E+02  0.51100000000E-03 0. -1.
         11   -1    0    0    0    0 -0.00000000000E+00 -0.00000000000E+00 -0.45593999997E+02  0.45594000000E+02  0.51100000000E-03 0.  1.
    9900012    2    1    2    0    0 -0.24951092443E+02 -0.12197379091E+02  0.33351008705E+02  0.47787275900E+02  0.20000022138E+02 0.  0.
        -12    1    1    2    0    0  0.24951092443E+02  0.12197379091E+02 -0.33351008705E+02  0.43400724100E+02  0.00000000000E+00 0.  1.
         11    1    3    3    0    0 -0.87627293494E+01  0.87472976102E+00  0.11954796001E+02  0.14848155626E+02  0.51100000000E-03 0. -1.
        -11    1    3    3    0    0 -0.81940666738E+00 -0.17826495404E+01 -0.19690695687E+01  0.27796585937E+01  0.51100000000E-03 0.  1.
         12    1    3    3    0    0 -0.15368956426E+02 -0.11289459312E+02  0.23365282273E+02  0.30159461681E+02  0.00000000000E+00 0. -1.
</event>
<event>
 7    1  0.1427898E-010  0.4778727E+02  0.7816164E-02  0.1312668E+00
        -11   -1    0    0    0    0  0.00000000000E+00  0.00000000000E+00  0.45593999997E+02  0.45594000000E+02  0.51100000000E-03 0.  1.
         11   -1    0    0    0    0 -0.00000000000E+00 -0.00000000000E+00 -0.45593999997E+02  0.45594000000E+02  0.51100000000E-03 0. -1.
    9900012    2    1    2    0    0  0.22442528497E+02  0.17545468549E+02 -0.32743132978E+02  0.47787270639E+02  0.19999998149E+02 0.  0.
        -12    1    1    2    0    0 -0.22442528497E+02 -0.17545468549E+02  0.32743132978E+02  0.43400729361E+02  0.00000000000E+00 0.  1.
         11    1    3    3    0    0  0.15339482391E+02  0.10131272418E+02 -0.24000071173E+02  0.30231536802E+02  0.51100000000E-03 0. -1.
        -11    1    3    3    0    0  0.31715278419E+01 -0.28237338993E+01 -0.27351908123E+01  0.50510722650E+01  0.51100000000E-03 0.  1.
         12    1    3    3    0    0  0.39315182632E+01  0.10237930030E+02 -0.60078709925E+01  0.12504661571E+02  0.00000000000E+00 0. -1.
</event>
<event>
 7    1  0.1427898E-010  0.4778727E+02  0.7816164E-02  0.1312668E+00
        -11   -1    0    0    0    0  0.00000000000E+00  0.00000000000E+00  0.45593999997E+02  0.45594000000E+02  0.51100000000E-03 0. -1.
         11   -1    0    0    0    0 -0.00000000000E+00 -0.00000000000E+00 -0.45593999997E+02  0.45594000000E+02  0.51100000000E-03 0.  1.
    9900012    2    1    2    0    0 -0.18402769736E+02  0.39003486290E+02 -0.48671709916E+01  0.47787271548E+02  0.20000002295E+02 0.  0.
        -12    1    1    2    0    0  0.18402769736E+02 -0.39003486290E+02  0.48671709916E+01  0.43400728452E+02  0.00000000000E+00 0.  1.
         11    1    3    3    0    0 -0.86759916697E+01  0.14784896302E+02 -0.69455578680E+01  0.18496128365E+02  0.51100000000E-03 0. -1.
        -11    1    3    3    0    0 -0.17288721390E+01  0.20124056155E+02  0.78485544556E+00  0.20213427056E+02  0.51100000000E-03 0.  1.
        -12    1    3    3    0    0 -0.79979059273E+01  0.40945338324E+01  0.12935314308E+01  0.90777161274E+01  0.00000000000E+00 0.  1.
</event>
<event>
 7    1  0.1427898E-010  0.4778728E+02  0.7816164E-02  0.1312668E+00
        -11   -1    0    0    0    0  0.00000000000E+00  0.00000000000E+00  0.45593999997E+02  0.45594000000E+02  0.51100000000E-03 0.  1.
         11   -1    0    0    0    0 -0.00000000000E+00 -0.00000000000E+00 -0.45593999997E+02  0.45594000000E+02  0.51100000000E-03 0. -1.
    9900012    2    1    2    0    0  0.12640980459E+02 -0.27045387775E+02 -0.31501990521E+02  0.47787276577E+02  0.20000025223E+02 0.  0.
        -12    1    1    2    0    0 -0.12640980459E+02  0.27045387775E+02  0.31501990521E+02  0.43400723423E+02  0.00000000000E+00 0.  1.
         11    1    3    3    0    0 -0.41084276060E+00  0.66047417522E+00  0.77300917088E+00  0.10966135826E+01  0.51100000000E-03 0. -1.
        -11    1    3    3    0    0  0.13117687237E+00 -0.15823844239E+01  0.14271476728E+01  0.21349235532E+01  0.51100000000E-03 0.  1.
         12    1    3    3    0    0  0.12920646348E+02 -0.26123477527E+02 -0.33702147365E+02  0.44555739441E+02  0.00000000000E+00 0. -1.
</event>
<event>
 7    1  0.1427898E-010  0.4778727E+02  0.7816164E-02  0.1312668E+00
        -11   -1    0    0    0    0  0.00000000000E+00  0.00000000000E+00  0.45593999997E+02  0.45594000000E+02  0.51100000000E-03 0.  1.
         11   -1    0    0    0    0 -0.00000000000E+00 -0.00000000000E+00 -0.45593999997E+02  0.45594000000E+02  0.51100000000E-03 0. -1.
    9900012    2    1    2    0    0  0.15226040124E+02 -0.20349642211E+02 -0.35180724215E+02  0.47787267377E+02  0.19999983277E+02 0.  0.
        -12    1    1    2    0    0 -0.15226040124E+02  0.20349642211E+02  0.35180724215E+02  0.43400732623E+02  0.00000000000E+00 0.  1.
         11    1    3    3    0    0  0.15869144239E+02 -0.21341682777E+02 -0.26784026431E+02  0.37744949791E+02  0.51100000000E-03 0.  1.
        -11    1    3    3    0    0 -0.12139338577E+01 -0.14805091640E+01 -0.67523731504E+01  0.70185530004E+01  0.51100000000E-03 0. -1.
        -12    1    3    3    0    0  0.57082974269E+00  0.24725497302E+01 -0.16443246335E+01  0.30237645847E+01  0.00000000000E+00 0.  1.
</event>
<event>
 7    1  0.1427898E-010  0.4778727E+02  0.7816164E-02  0.1312668E+00
        -11   -1    0    0    0    0  0.00000000000E+00  0.00000000000E+00  0.45593999997E+02  0.45594000000E+02  0.51100000000E-03 0. -1.
         11   -1    0    0    0    0 -0.00000000000E+00 -0.00000000000E+00 -0.45593999997E+02  0.45594000000E+02  0.51100000000E-03 0.  1.
    9900012    2    1    2    0    0 -0.55215803843E+01 -0.27137670029E+02  0.33416793568E+02  0.47787273314E+02  0.20000010349E+02 0.  0.
        -12    1    1    2    0    0  0.55215803843E+01  0.27137670029E+02 -0.33416793568E+02  0.43400726686E+02  0.00000000000E+00 0.  1.
         11    1    3    3    0    0 -0.61985685049E+01 -0.62872353200E+01  0.15042191051E+02  0.17441877518E+02  0.51100000000E-03 0. -1.
        -11    1    3    3    0    0 -0.92583495622E+00 -0.43892814901E+01  0.11663946660E+02  0.12496824169E+02  0.51100000000E-03 0.  1.
        -12    1    3    3    0    0  0.16028230768E+01 -0.16461153218E+02  0.67106558565E+01  0.17848571627E+02  0.00000000000E+00 0.  1.
</event>
<event>
 7    1  0.1427898E-010  0.4778729E+02  0.7816164E-02  0.1312668E+00
        -11   -1    0    0    0    0  0.00000000000E+00  0.00000000000E+00  0.45593999997E+02  0.45594000000E+02  0.51100000000E-03 0. -1.
         11   -1    0    0    0    0 -0.00000000000E+00 -0.00000000000E+00 -0.45593999997E+02  0.45594000000E+02  0.51100000000E-03 0.  1.
    9900012    2    1    2    0    0  0.32009271986E+02 -0.15675091305E+02  0.24765297828E+02  0.47787286216E+02  0.20000069171E+02 0.  0.
        -12    1    1    2    0    0 -0.32009271986E+02  0.15675091305E+02 -0.24765297828E+02  0.43400713784E+02  0.00000000000E+00 0.  1.
         11    1    3    3    0    0  0.17875363620E+01 -0.69840858253E+01  0.36283966659E+01  0.80708118357E+01  0.51100000000E-03 0. -1.
        -11    1    3    3    0    0  0.32897124619E+01  0.31224362260E+00 -0.12737489332E+01  0.35414884961E+01  0.51100000000E-03 0.  1.
         12    1    3    3    0    0  0.26932023162E+02 -0.90032491023E+01  0.22410650095E+02  0.36174985884E+02  0.00000000000E+00 0. -1.
</event>
<event>
 7    1  0.1427898E-010  0.4778727E+02  0.7816164E-02  0.1312668E+00
        -11   -1    0    0    0    0  0.00000000000E+00  0.00000000000E+00  0.45593999997E+02  0.45594000000E+02  0.51100000000E-03 0.  1.
         11   -1    0    0    0    0 -0.00000000000E+00 -0.00000000000E+00 -0.45593999997E+02  0.45594000000E+02  0.51100000000E-03 0. -1.
    9900012    2    1    2    0    0 -0.31377911589E+02 -0.17663432977E+02 -0.24229179399E+02  0.47787270346E+02  0.19999996814E+02 0.  0.
        -12    1    1    2    0    0  0.31377911589E+02  0.17663432977E+02  0.24229179399E+02  0.43400729654E+02  0.00000000000E+00 0.  1.
         11    1    3    3    0    0 -0.13954171391E+02 -0.59001423352E+01 -0.47678115615E+01  0.15882777029E+02  0.51100000000E-03 0. -1.
        -11    1    3    3    0    0 -0.15389224794E+02 -0.12799435755E+02 -0.21107959781E+02  0.29089512917E+02  0.51100000000E-03 0.  1.
        -12    1    3    3    0    0 -0.20345154035E+01  0.10361451130E+01  0.16465919435E+01  0.28149803997E+01  0.00000000000E+00 0.  1.
</event>
<event>
 7    1  0.1427898E-010  0.4778727E+02  0.7816164E-02  0.1312668E+00
        -11   -1    0    0    0    0  0.00000000000E+00  0.00000000000E+00  0.45593999997E+02  0.45594000000E+02  0.51100000000E-03 0.  1.
         11   -1    0    0    0    0 -0.00000000000E+00 -0.00000000000E+00 -0.45593999997E+02  0.45594000000E+02  0.51100000000E-03 0. -1.
    9900012    2    1    2    0    0  0.11556545556E+01  0.13673620043E+02 -0.41174264302E+02  0.47787268862E+02  0.19999990049E+02 0.  0.
        -12    1    1    2    0    0 -0.11556545556E+01 -0.13673620043E+02  0.41174264302E+02  0.43400731138E+02  0.00000000000E+00 0.  1.
         11    1    3    3    0    0  0.62405159198E+01 -0.27213091763E+01 -0.13890066711E+02  0.15468791681E+02  0.51100000000E-03 0. -1.
        -11    1    3    3    0    0 -0.30108313044E+01  0.60073834309E+01 -0.11126322032E+02  0.12998030737E+02  0.51100000000E-03 0.  1.
         12    1    3    3    0    0 -0.20740300598E+01  0.10387545789E+02 -0.16157875559E+02  0.19320446443E+02  0.00000000000E+00 0. -1.
</event>
<event>
 7    1  0.1427898E-010  0.4778727E+02  0.7816164E-02  0.1312668E+00
        -11   -1    0    0    0    0  0.00000000000E+00  0.00000000000E+00  0.45593999997E+02  0.45594000000E+02  0.51100000000E-03 0.  1.
         11   -1    0    0    0    0 -0.00000000000E+00 -0.00000000000E+00 -0.45593999997E+02  0.45594000000E+02  0.51100000000E-03 0. -1.
    9900012    2    1    2    0    0  0.12799351567E+02 -0.36081780828E+01 -0.41313203488E+02  0.47787272678E+02  0.20000007449E+02 0.  0.
        -12    1    1    2    0    0 -0.12799351567E+02  0.36081780828E+01  0.41313203488E+02  0.43400727322E+02  0.00000000000E+00 0.  1.
         11    1    3    3    0    0  0.43207150117E+01  0.18890269044E+01 -0.52125906518E+01  0.70290897293E+01  0.51100000000E-03 0.  1.
        -11    1    3    3    0    0 -0.95852140036E-01 -0.56150506914E+01 -0.29245028102E+02  0.29779349402E+02  0.51100000000E-03 0. -1.
         12    1    3    3    0    0  0.85744886949E+01  0.11784570419E+00 -0.68555847347E+01  0.10978833547E+02  0.00000000000E+00 0. -1.
</event>
<event>
 7    1  0.1615638E-010  0.4778727E+02  0.7816164E-02  0.1312668E+00
        -11   -1    0    0    0    0  0.00000000000E+00  0.00000000000E+00  0.45593999997E+02  0.45594000000E+02  0.51100000000E-03 0. -1.
         11   -1    0    0    0    0 -0.00000000000E+00 -0.00000000000E+00 -0.45593999997E+02  0.45594000000E+02  0.51100000000E-03 0.  1.
    9900012    2    1    2    0    0  0.39717042002E+02  0.17013424776E+02 -0.40894206691E+01  0.47787269483E+02  0.19999992880E+02 0.  0.
        -12    1    1    2    0    0 -0.39717042002E+02 -0.17013424776E+02  0.40894206691E+01  0.43400730517E+02  0.00000000000E+00 0.  1.
         11    1    3    3    0    0  0.17209841198E+02  0.21013376749E+01  0.34253356512E+01  0.17672780728E+02  0.51100000000E-03 0. -1.
        -11    1    3    3    0    0  0.23235182013E+02  0.12190579742E+02 -0.60014004136E+01  0.26916551131E+02  0.51100000000E-03 0.  1.
        -12    1    3    3    0    0 -0.72798120825E+00  0.27215073594E+01 -0.15133559067E+01  0.31979376240E+01  0.00000000000E+00 0.  1.
</event>
<event>
 7    1  0.1427898E-010  0.4778727E+02  0.7816164E-02  0.1312668E+00
        -11   -1    0    0    0    0  0.00000000000E+00  0.00000000000E+00  0.45593999997E+02  0.45594000000E+02  0.51100000000E-03 0. -1.
         11   -1    0    0    0    0 -0.00000000000E+00 -0.00000000000E+00 -0.45593999997E+02  0.45594000000E+02  0.51100000000E-03 0.  1.
    9900012    2    1    2    0    0  0.40993040594E+02  0.11251896381E+02  0.87514864552E+01  0.47787273456E+02  0.20000010997E+02 0.  0.
        -12    1    1    2    0    0 -0.40993040594E+02 -0.11251896381E+02 -0.87514864552E+01  0.43400726544E+02  0.00000000000E+00 0.  1.
         11    1    3    3    0    0  0.24882232982E+02  0.75225506640E+01  0.92377723054E+01  0.27587147807E+02  0.51100000000E-03 0. -1.
        -11    1    3    3    0    0  0.15806114890E+02  0.50295764559E+01 -0.34566294866E+01  0.16943382039E+02  0.51100000000E-03 0.  1.
        -12    1    3    3    0    0  0.30469272166E+00 -0.13002307385E+01  0.29703436364E+01  0.32567436107E+01  0.00000000000E+00 0.  1.
</event>
<event>
 7    1  0.1427898E-010  0.4778727E+02  0.7816164E-02  0.1312668E+00
        -11   -1    0    0    0    0  0.00000000000E+00  0.00000000000E+00  0.45593999997E+02  0.45594000000E+02  0.51100000000E-03 0.  1.
         11   -1    0    0    0    0 -0.00000000000E+00 -0.00000000000E+00 -0.45593999997E+02  0.45594000000E+02  0.51100000000E-03 0. -1.
    9900012    2    1    2    0    0  0.41179894187E+02  0.12970279076E+02  0.44284692572E+01  0.47787272304E+02  0.20000005743E+02 0.  0.
        -12    1    1    2    0    0 -0.41179894187E+02 -0.12970279076E+02 -0.44284692572E+01  0.43400727696E+02  0.00000000000E+00 0.  1.
         11    1    3    3    0    0  0.18277134702E+02  0.40093534356E+01  0.11603570880E+02  0.22017525413E+02  0.51100000000E-03 0.  1.
        -11    1    3    3    0    0  0.55471707600E+01  0.12755033967E+01 -0.25279380848E+01  0.62280401072E+01  0.51100000000E-03 0. -1.
        -12    1    3    3    0    0  0.17355588726E+02  0.76854222442E+01 -0.46471635383E+01  0.19541706784E+02  0.00000000000E+00 0.  1.
</event>
<event>
 7    1  0.1427898E-010  0.4778727E+02  0.7816164E-02  0.1312668E+00
        -11   -1    0    0    0    0  0.00000000000E+00  0.00000000000E+00  0.45593999997E+02  0.45594000000E+02  0.51100000000E-03 0.  1.
         11   -1    0    0    0    0 -0.00000000000E+00 -0.00000000000E+00 -0.45593999997E+02  0.45594000000E+02  0.51100000000E-03 0. -1.
    9900012    2    1    2    0    0 -0.39629188321E+02  0.12774785096E+02 -0.12245633428E+02  0.47787271443E+02  0.20000001817E+02 0.  0.
        -12    1    1    2    0    0  0.39629188321E+02 -0.12774785096E+02  0.12245633428E+02  0.43400728557E+02  0.00000000000E+00 0.  1.
         11    1    3    3    0    0  0.91166109892E+00 -0.22053692826E+01 -0.14773475987E+01  0.28066591921E+01  0.51100000000E-03 0.  1.
        -11    1    3    3    0    0 -0.13414836647E+02  0.20401792394E+01 -0.23656841732E+01  0.13773766205E+02  0.51100000000E-03 0. -1.
        -12    1    3    3    0    0 -0.27126012772E+02  0.12939975140E+02 -0.84026016566E+01  0.31206846046E+02  0.00000000000E+00 0.  1.
</event>
<event>
 7    1  0.1427898E-010  0.4778725E+02  0.7816164E-02  0.1312668E+00
        -11   -1    0    0    0    0  0.00000000000E+00  0.00000000000E+00  0.45593999997E+02  0.45594000000E+02  0.51100000000E-03 0. -1.
         11   -1    0    0    0    0 -0.00000000000E+00 -0.00000000000E+00 -0.45593999997E+02  0.45594000000E+02  0.51100000000E-03 0.  1.
    9900012    2    1    2    0    0 -0.97006367495E+01  0.25385240459E+01  0.42226519207E+02  0.47787246758E+02  0.19999889267E+02 0.  0.
        -12    1    1    2    0    0  0.97006367495E+01 -0.25385240459E+01 -0.42226519207E+02  0.43400753242E+02  0.00000000000E+00 0.  1.
         11    1    3    3    0    0 -0.93302175471E+01 -0.51198012911E+01  0.27204335969E+02  0.29212004733E+02  0.51100000000E-03 0. -1.
        -11    1    3    3    0    0  0.71507615364E-01  0.31461013642E+01  0.28889821209E+00  0.31601470806E+01  0.51100000000E-03 0.  1.
         12    1    3    3    0    0 -0.44192681769E+00  0.45122239728E+01  0.14733285026E+02  0.15415094944E+02  0.00000000000E+00 0. -1.
</event>
<event>
 7    1  0.1427898E-010  0.4778727E+02  0.7816164E-02  0.1312668E+00
        -11   -1    0    0    0    0  0.00000000000E+00  0.00000000000E+00  0.45593999997E+02  0.45594000000E+02  0.51100000000E-03 0.  1.
         11   -1    0    0    0    0 -0.00000000000E+00 -0.00000000000E+00 -0.45593999997E+02  0.45594000000E+02  0.51100000000E-03 0. -1.
    9900012    2    1    2    0    0  0.40140245818E+01  0.42732579829E+02  0.64371980043E+01  0.47787270855E+02  0.19999999137E+02 0.  0.
        -12    1    1    2    0    0 -0.40140245818E+01 -0.42732579829E+02 -0.64371980043E+01  0.43400729145E+02  0.00000000000E+00 0.  1.
         11    1    3    3    0    0 -0.20102704938E+01  0.23420532672E+02 -0.10351921041E+01  0.23529431805E+02  0.51100000000E-03 0. -1.
        -11    1    3    3    0    0  0.81799409457E+01  0.14395615290E+02  0.21465109095E+01  0.16695888201E+02  0.51100000000E-03 0.  1.
        -12    1    3    3    0    0 -0.21556458700E+01  0.49164318657E+01  0.53258791989E+01  0.75619508493E+01  0.00000000000E+00 0.  1.
</event>
<event>
 7    1  0.1427898E-010  0.4778727E+02  0.7816164E-02  0.1312668E+00
        -11   -1    0    0    0    0  0.00000000000E+00  0.00000000000E+00  0.45593999997E+02  0.45594000000E+02  0.51100000000E-03 0.  1.
         11   -1    0    0    0    0 -0.00000000000E+00 -0.00000000000E+00 -0.45593999997E+02  0.45594000000E+02  0.51100000000E-03 0. -1.
    9900012    2    1    2    0    0 -0.31398689284E+01 -0.15318685937E+02 -0.40485828211E+02  0.47787271876E+02  0.20000003792E+02 0.  0.
        -12    1    1    2    0    0  0.31398689284E+01  0.15318685937E+02  0.40485828211E+02  0.43400728124E+02  0.00000000000E+00 0.  1.
         11    1    3    3    0    0  0.12799938736E+01 -0.23862491843E+01 -0.12029663081E+02  0.12330667605E+02  0.51100000000E-03 0. -1.
        -11    1    3    3    0    0 -0.30487016092E+01 -0.86751117488E+01 -0.30920914943E+01  0.97011945360E+01  0.51100000000E-03 0.  1.
        -12    1    3    3    0    0 -0.13711611928E+01 -0.42573250043E+01 -0.25364073636E+02  0.25755409735E+02  0.00000000000E+00 0.  1.
</event>
<event>
 7    1  0.1427898E-010  0.4778727E+02  0.7816164E-02  0.1312668E+00
        -11   -1    0    0    0    0  0.00000000000E+00  0.00000000000E+00  0.45593999997E+02  0.45594000000E+02  0.51100000000E-03 0.  1.
         11   -1    0    0    0    0 -0.00000000000E+00 -0.00000000000E+00 -0.45593999997E+02  0.45594000000E+02  0.51100000000E-03 0. -1.
    9900012    2    1    2    0    0  0.11271198604E+02 -0.61755012848E+00 -0.41907062066E+02  0.47787272620E+02  0.20000007184E+02 0.  0.
        -12    1    1    2    0    0 -0.11271198604E+02  0.61755012848E+00  0.41907062066E+02  0.43400727380E+02  0.00000000000E+00 0.  1.
         11    1    3    3    0    0 -0.21996729025E+01  0.31070259786E+01 -0.61647238780E+01  0.72454117939E+01  0.51100000000E-03 0. -1.
        -11    1    3    3    0    0 -0.13253772589E+01 -0.10110211827E+00 -0.13603748866E+02  0.13668534303E+02  0.51100000000E-03 0.  1.
         12    1    3    3    0    0  0.14796248765E+02 -0.36234739889E+01 -0.22138589322E+02  0.26873326523E+02  0.00000000000E+00 0. -1.
</event>
<event>
 7    1  0.1427898E-010  0.4778727E+02  0.7816164E-02  0.1312668E+00
        -11   -1    0    0    0    0  0.00000000000E+00  0.00000000000E+00  0.45593999997E+02  0.45594000000E+02  0.51100000000E-03 0.  1.
         11   -1    0    0    0    0 -0.00000000000E+00 -0.00000000000E+00 -0.45593999997E+02  0.45594000000E+02  0.51100000000E-03 0. -1.
    9900012    2    1    2    0    0  0.32656719945E+02 -0.28311805345E+01 -0.28445502023E+02  0.47787268139E+02  0.19999986751E+02 0.  0.
        -12    1    1    2    0    0 -0.32656719945E+02  0.28311805345E+01  0.28445502023E+02  0.43400731861E+02  0.00000000000E+00 0.  1.
         11    1    3    3    0    0  0.43759401360E-01 -0.27290067110E+00 -0.76996635638E+01  0.77046225682E+01  0.51100000000E-03 0. -1.
        -11    1    3    3    0    0  0.14810091179E+02  0.39468757350E+01 -0.86857276341E+01  0.17616994454E+02  0.51100000000E-03 0.  1.
        -12    1    3    3    0    0  0.17802869364E+02 -0.65051555985E+01 -0.12060110825E+02  0.22465651116E+02  0.00000000000E+00 0.  1.
</event>
<event>
 7    1  0.1427898E-010  0.4778727E+02  0.7816164E-02  0.1312668E+00
        -11   -1    0    0    0    0  0.00000000000E+00  0.00000000000E+00  0.45593999997E+02  0.45594000000E+02  0.51100000000E-03 0.  1.
         11   -1    0    0    0    0 -0.00000000000E+00 -0.00000000000E+00 -0.45593999997E+02  0.45594000000E+02  0.51100000000E-03 0. -1.
    9900012    2    1    2    0    0  0.42212488203E+02 -0.74962865153E+01  0.67479322414E+01  0.47787273493E+02  0.20000011165E+02 0.  0.
        -12    1    1    2    0    0 -0.42212488203E+02  0.74962865153E+01 -0.67479322414E+01  0.43400726507E+02  0.00000000000E+00 0.  1.
         11    1    3    3    0    0  0.56248449248E+01 -0.47743281781E+01 -0.32098887232E+01  0.80458980765E+01  0.51100000000E-03 0. -1.
        -11    1    3    3    0    0  0.12847391584E+02  0.36564662978E+01  0.39132208741E+00  0.13363321052E+02  0.51100000000E-03 0.  1.
        -12    1    3    3    0    0  0.23740251693E+02 -0.63784246350E+01  0.95664988772E+01  0.26378054365E+02  0.00000000000E+00 0.  1.
</event>
<event>
 7    1  0.1427898E-010  0.4778730E+02  0.7816164E-02  0.1312668E+00
        -11   -1    0    0    0    0  0.00000000000E+00  0.00000000000E+00  0.45593999997E+02  0.45594000000E+02  0.51100000000E-03 0.  1.
         11   -1    0    0    0    0 -0.00000000000E+00 -0.00000000000E+00 -0.45593999997E+02  0.45594000000E+02  0.51100000000E-03 0. -1.
    9900012    2    1    2    0    0  0.99350850163E+01  0.53829516309E+01 -0.41903917990E+02  0.47787303860E+02  0.20000149619E+02 0.  0.
        -12    1    1    2    0    0 -0.99350850163E+01 -0.53829516309E+01  0.41903917990E+02  0.43400696140E+02  0.00000000000E+00 0.  1.
         11    1    3    3    0    0  0.64665338406E+01  0.77234983348E+01 -0.15957748474E+02  0.18871094909E+02  0.51100000000E-03 0. -1.
        -11    1    3    3    0    0 -0.28803708985E+01  0.75652240568E+00 -0.12502671544E+01  0.32298654588E+01  0.51100000000E-03 0.  1.
        -12    1    3    3    0    0  0.63489220741E+01 -0.30970691095E+01 -0.24695902361E+02  0.25686343492E+02  0.00000000000E+00 0.  1.
</event>
<event>
 7    1  0.1427898E-010  0.4778727E+02  0.7816164E-02  0.1312668E+00
        -11   -1    0    0    0    0  0.00000000000E+00  0.00000000000E+00  0.45593999997E+02  0.45594000000E+02  0.51100000000E-03 0.  1.
         11   -1    0    0    0    0 -0.00000000000E+00 -0.00000000000E+00 -0.45593999997E+02  0.45594000000E+02  0.51100000000E-03 0. -1.
    9900012    2    1    2    0    0 -0.24748365436E+02  0.33914712908E+02 -0.10996984309E+02  0.47787274116E+02  0.20000014005E+02 0.  0.
        -12    1    1    2    0    0  0.24748365436E+02 -0.33914712908E+02  0.10996984309E+02  0.43400725884E+02  0.00000000000E+00 0.  1.
         11    1    3    3    0    0 -0.10695820865E+01  0.74460726028E+01 -0.72680447574E+01  0.10460041965E+02  0.51100000000E-03 0. -1.
        -11    1    3    3    0    0 -0.10122215098E+02  0.39939234138E+01 -0.66038940077E+00  0.10901686895E+02  0.51100000000E-03 0.  1.
        -12    1    3    3    0    0 -0.13556568251E+02  0.22474716891E+02 -0.30685501512E+01  0.26425545257E+02  0.00000000000E+00 0.  1.
</event>
<event>
 7    1  0.1427898E-010  0.4778726E+02  0.7816164E-02  0.1312668E+00
        -11   -1    0    0    0    0  0.00000000000E+00  0.00000000000E+00  0.45593999997E+02  0.45594000000E+02  0.51100000000E-03 0.  1.
         11   -1    0    0    0    0 -0.00000000000E+00 -0.00000000000E+00 -0.45593999997E+02  0.45594000000E+02  0.51100000000E-03 0. -1.
    9900012    2    1    2    0    0 -0.18670761647E+02  0.24281970195E+02 -0.30747571810E+02  0.47787255891E+02  0.19999930910E+02 0.  0.
        -12    1    1    2    0    0  0.18670761647E+02 -0.24281970195E+02  0.30747571810E+02  0.43400744109E+02  0.00000000000E+00 0.  1.
         11    1    3    3    0    0 -0.12497104748E+02  0.23085693195E+02 -0.28889224206E+02  0.39034781065E+02  0.51100000000E-03 0. -1.
        -11    1    3    3    0    0 -0.35601131175E+01 -0.14644516061E+01 -0.29684559628E+01  0.48611474963E+01  0.51100000000E-03 0.  1.
         12    1    3    3    0    0 -0.26135437823E+01  0.26607286058E+01  0.11101083590E+01  0.38913273294E+01  0.00000000000E+00 0. -1.
</event>
<event>
 7    1  0.1427898E-010  0.4778727E+02  0.7816164E-02  0.1312668E+00
        -11   -1    0    0    0    0  0.00000000000E+00  0.00000000000E+00  0.45593999997E+02  0.45594000000E+02  0.51100000000E-03 0.  1.
         11   -1    0    0    0    0 -0.00000000000E+00 -0.00000000000E+00 -0.45593999997E+02  0.45594000000E+02  0.51100000000E-03 0. -1.
    9900012    2    1    2    0    0 -0.29001644834E+01  0.11223446168E+02 -0.41823991480E+02  0.47787274646E+02  0.20000016422E+02 0.  0.
        -12    1    1    2    0    0  0.29001644834E+01 -0.11223446168E+02  0.41823991480E+02  0.43400725354E+02  0.00000000000E+00 0.  1.
         11    1    3    3    0    0 -0.36510572778E+01  0.78348296482E+00 -0.23325119353E+01  0.44028033106E+01  0.51100000000E-03 0.  1.
        -11    1    3    3    0    0  0.39121433322E+01  0.11353556038E+02 -0.37845723208E+02  0.39705249849E+02  0.51100000000E-03 0. -1.
         12    1    3    3    0    0 -0.31612505378E+01 -0.91359283426E+00 -0.16457563367E+01  0.36792214868E+01  0.00000000000E+00 0. -1.
</event>
<event>
 7    1  0.1427898E-010  0.4778728E+02  0.7816164E-02  0.1312668E+00
        -11   -1    0    0    0    0  0.00000000000E+00  0.00000000000E+00  0.45593999997E+02  0.45594000000E+02  0.51100000000E-03 0.  1.
         11   -1    0    0    0    0 -0.00000000000E+00 -0.00000000000E+00 -0.45593999997E+02  0.45594000000E+02  0.51100000000E-03 0. -1.
    9900012    2    1    2    0    0 -0.24251783880E+02  0.30092964817E+01 -0.35866663259E+02  0.47787280881E+02  0.20000044849E+02 0.  0.
        -12    1    1    2    0    0  0.24251783880E+02 -0.30092964817E+01  0.35866663259E+02  0.43400719119E+02  0.00000000000E+00 0.  1.
         11    1    3    3    0    0 -0.18062247351E+02  0.30434929446E+01 -0.32710312000E+02  0.37489627100E+02  0.51100000000E-03 0. -1.
        -11    1    3    3    0    0 -0.65980679442E+01  0.22933356164E+01 -0.36531943713E+01  0.78828749972E+01  0.51100000000E-03 0.  1.
         12    1    3    3    0    0  0.40853141509E+00 -0.23275320793E+01  0.49684311230E+00  0.24147787840E+01  0.00000000000E+00 0. -1.
</event>
<event>
 7    1  0.1427898E-010  0.4778727E+02  0.7816164E-02  0.1312668E+00
        -11   -1    0    0    0    0  0.00000000000E+00  0.00000000000E+00  0.45593999997E+02  0.45594000000E+02  0.51100000000E-03 0.  1.
         11   -1    0    0    0    0 -0.00000000000E+00 -0.00000000000E+00 -0.45593999997E+02  0.45594000000E+02  0.51100000000E-03 0. -1.
    9900012    2    1    2    0    0  0.57551553471E+01 -0.39552270206E+02 -0.16915067289E+02  0.47787269673E+02  0.19999993748E+02 0.  0.
        -12    1    1    2    0    0 -0.57551553471E+01  0.39552270206E+02  0.16915067289E+02  0.43400730327E+02  0.00000000000E+00 0.  1.
         11    1    3    3    0    0  0.66614886426E+01 -0.92452246001E+01 -0.82641865381E+01  0.14076447998E+02  0.51100000000E-03 0. -1.
        -11    1    3    3    0    0 -0.76503968395E-01 -0.25114778133E+02 -0.11619465087E+02  0.27672547817E+02  0.51100000000E-03 0.  1.
        -12    1    3    3    0    0 -0.82982932708E+00 -0.51922674726E+01  0.29685843362E+01  0.60382738577E+01  0.00000000000E+00 0.  1.
</event>
<event>
 7    1  0.1427898E-010  0.4778728E+02  0.7816164E-02  0.1312668E+00
        -11   -1    0    0    0    0  0.00000000000E+00  0.00000000000E+00  0.45593999997E+02  0.45594000000E+02  0.51100000000E-03 0.  1.
         11   -1    0    0    0    0 -0.00000000000E+00 -0.00000000000E+00 -0.45593999997E+02  0.45594000000E+02  0.51100000000E-03 0. -1.
    9900012    2    1    2    0    0  0.37115021676E+02 -0.10047930657E+02 -0.20128002178E+02  0.47787283230E+02  0.20000055558E+02 0.  0.
        -12    1    1    2    0    0 -0.37115021676E+02  0.10047930657E+02  0.20128002178E+02  0.43400716770E+02  0.00000000000E+00 0.  1.
         11    1    3    3    0    0  0.25770228017E+01 -0.28708376908E+01 -0.62123041368E+01  0.73126929730E+01  0.51100000000E-03 0. -1.
        -11    1    3    3    0    0  0.18971626777E+01  0.23499711404E+01 -0.40830787510E+01  0.50786930341E+01  0.51100000000E-03 0.  1.
        -12    1    3    3    0    0  0.32640836197E+02 -0.95270641067E+01 -0.98326192900E+01  0.35395897223E+02  0.00000000000E+00 0.  1.
</event>
<event>
 7    1  0.1427898E-010  0.4778727E+02  0.7816164E-02  0.1312668E+00
        -11   -1    0    0    0    0  0.00000000000E+00  0.00000000000E+00  0.45593999997E+02  0.45594000000E+02  0.51100000000E-03 0.  1.
         11   -1    0    0    0    0 -0.00000000000E+00 -0.00000000000E+00 -0.45593999997E+02  0.45594000000E+02  0.51100000000E-03 0. -1.
    9900012    2    1    2    0    0 -0.25976635669E+02 -0.11258218523E+02 -0.32895138404E+02  0.47787271716E+02  0.20000003062E+02 0.  0.
        -12    1    1    2    0    0  0.25976635669E+02  0.11258218523E+02  0.32895138404E+02  0.43400728284E+02  0.00000000000E+00 0.  1.
         11    1    3    3    0    0 -0.63893832186E+01 -0.92473487863E+01 -0.15782280060E+02  0.19375707513E+02  0.51100000000E-03 0. -1.
        -11    1    3    3    0    0  0.13253611653E+01  0.82109696805E+00 -0.90882865598E+00  0.18046473995E+01  0.51100000000E-03 0.  1.
         12    1    3    3    0    0 -0.20912613616E+02 -0.28319667045E+01 -0.16204029688E+02  0.26606916803E+02  0.00000000000E+00 0. -1.
</event>
<event>
 7    1  0.1427898E-010  0.4778728E+02  0.7816164E-02  0.1312668E+00
        -11   -1    0    0    0    0  0.00000000000E+00  0.00000000000E+00  0.45593999997E+02  0.45594000000E+02  0.51100000000E-03 0. -1.
         11   -1    0    0    0    0 -0.00000000000E+00 -0.00000000000E+00 -0.45593999997E+02  0.45594000000E+02  0.51100000000E-03 0.  1.
    9900012    2    1    2    0    0 -0.16283940487E+02 -0.33052593385E+02  0.22934301523E+02  0.47787276116E+02  0.20000023125E+02 0.  0.
        -12    1    1    2    0    0  0.16283940487E+02  0.33052593385E+02 -0.22934301523E+02  0.43400723884E+02  0.00000000000E+00 0.  1.
         11    1    3    3    0    0 -0.65458217124E+01 -0.62185693228E+01  0.26051034427E+00  0.90325108477E+01  0.51100000000E-03 0. -1.
        -11    1    3    3    0    0  0.19849792833E+00 -0.11216364929E+02  0.14965316864E+02  0.18703126818E+02  0.51100000000E-03 0.  1.
         12    1    3    3    0    0 -0.99366167034E+01 -0.15617659133E+02  0.77084743146E+01  0.20051638451E+02  0.00000000000E+00 0. -1.
</event>
<event>
 7    1  0.1427898E-010  0.4778727E+02  0.7816164E-02  0.1312668E+00
        -11   -1    0    0    0    0  0.00000000000E+00  0.00000000000E+00  0.45593999997E+02  0.45594000000E+02  0.51100000000E-03 0.  1.
         11   -1    0    0    0    0 -0.00000000000E+00 -0.00000000000E+00 -0.45593999997E+02  0.45594000000E+02  0.51100000000E-03 0. -1.
    9900012    2    1    2    0    0  0.40138080206E+02 -0.15106463715E+02  0.66597452974E+01  0.47787274937E+02  0.20000017746E+02 0.  0.
        -12    1    1    2    0    0 -0.40138080206E+02  0.15106463715E+02 -0.66597452974E+01  0.43400725063E+02  0.00000000000E+00 0.  1.
         11    1    3    3    0    0  0.17553628411E+02  0.47099770005E+00  0.19472149451E+01  0.17667579221E+02  0.51100000000E-03 0. -1.
        -11    1    3    3    0    0 -0.63740208730E+00 -0.12261960875E+01 -0.15862820324E+01  0.21038367839E+01  0.51100000000E-03 0.  1.
        -12    1    3    3    0    0  0.23221853883E+02 -0.14351265327E+02  0.62988123848E+01  0.28015858932E+02  0.00000000000E+00 0.  1.
</event>
<event>
 7    1  0.1427898E-010  0.4778728E+02  0.7816164E-02  0.1312668E+00
        -11   -1    0    0    0    0  0.00000000000E+00  0.00000000000E+00  0.45593999997E+02  0.45594000000E+02  0.51100000000E-03 0.  1.
         11   -1    0    0    0    0 -0.00000000000E+00 -0.00000000000E+00 -0.45593999997E+02  0.45594000000E+02  0.51100000000E-03 0. -1.
    9900012    2    1    2    0    0  0.27357762878E+02  0.26644127927E+00 -0.33691313407E+02  0.47787276738E+02  0.20000025957E+02 0.  0.
        -12    1    1    2    0    0 -0.27357762878E+02 -0.26644127927E+00  0.33691313407E+02  0.43400723262E+02  0.00000000000E+00 0.  1.
         11    1    3    3    0    0  0.13647154736E+01  0.44761991257E+01 -0.76286154341E+01  0.89495575667E+01  0.51100000000E-03 0. -1.
        -11    1    3    3    0    0  0.11389622425E+02 -0.52399006935E+01 -0.18532596919E+02  0.22374923622E+02  0.51100000000E-03 0.  1.
        -12    1    3    3    0    0  0.14603424979E+02  0.10301428471E+01 -0.75301010533E+01  0.16462795549E+02  0.00000000000E+00 0.  1.
</event>
<event>
 7    1  0.1427898E-010  0.4778728E+02  0.7816164E-02  0.1312668E+00
        -11   -1    0    0    0    0  0.00000000000E+00  0.00000000000E+00  0.45593999997E+02  0.45594000000E+02  0.51100000000E-03 0.  1.
         11   -1    0    0    0    0 -0.00000000000E+00 -0.00000000000E+00 -0.45593999997E+02  0.45594000000E+02  0.51100000000E-03 0. -1.
    9900012    2    1    2    0    0 -0.33755709650E+02  0.91470046060E+01 -0.25700328574E+02  0.47787279775E+02  0.20000039807E+02 0.  0.
        -12    1    1    2    0    0  0.33755709650E+02 -0.91470046060E+01  0.25700328574E+02  0.43400720225E+02  0.00000000000E+00 0.  1.
         11    1    3    3    0    0 -0.25315555920E+01  0.65966484512E+01 -0.18495336967E+01  0.73037880350E+01  0.51100000000E-03 0. -1.
        -11    1    3    3    0    0 -0.17687119164E+02  0.60482963269E+01 -0.14597471084E+02  0.23717129571E+02  0.51100000000E-03 0.  1.
        -12    1    3    3    0    0 -0.13537034894E+02 -0.34979401721E+01 -0.92533237931E+01  0.16766362169E+02  0.00000000000E+00 0.  1.
</event>
<event>
 7    1  0.1427898E-010  0.4778727E+02  0.7816164E-02  0.1312668E+00
        -11   -1    0    0    0    0  0.00000000000E+00  0.00000000000E+00  0.45593999997E+02  0.45594000000E+02  0.51100000000E-03 0.  1.
         11   -1    0    0    0    0 -0.00000000000E+00 -0.00000000000E+00 -0.45593999997E+02  0.45594000000E+02  0.51100000000E-03 0. -1.
    9900012    2    1    2    0    0  0.21845696179E+02 -0.13020799201E+02 -0.35168840023E+02  0.47787274638E+02  0.20000016383E+02 0.  0.
        -12    1    1    2    0    0 -0.21845696179E+02  0.13020799201E+02  0.35168840023E+02  0.43400725362E+02  0.00000000000E+00 0.  1.
         11    1    3    3    0    0  0.14803031967E+02  0.43420409355E+00 -0.13963917120E+02  0.20354588432E+02  0.51100000000E-03 0. -1.
        -11    1    3    3    0    0  0.36968192959E+01 -0.66400331542E+01 -0.39139965116E+01  0.85484432588E+01  0.51100000000E-03 0.  1.
        -12    1    3    3    0    0  0.33458449162E+01 -0.68149701403E+01 -0.17290926391E+02  0.18884242947E+02  0.00000000000E+00 0.  1.
</event>
<event>
 7    1  0.1427898E-010  0.4778727E+02  0.7816164E-02  0.1312668E+00
        -11   -1    0    0    0    0  0.00000000000E+00  0.00000000000E+00  0.45593999997E+02  0.45594000000E+02  0.51100000000E-03 0. -1.
         11   -1    0    0    0    0 -0.00000000000E+00 -0.00000000000E+00 -0.45593999997E+02  0.45594000000E+02  0.51100000000E-03 0.  1.
    9900012    2    1    2    0    0 -0.22639540198E+02 -0.31679524921E+02  0.19169825140E+02  0.47787271026E+02  0.19999999916E+02 0.  0.
        -12    1    1    2    0    0  0.22639540198E+02  0.31679524921E+02 -0.19169825140E+02  0.43400728974E+02  0.00000000000E+00 0.  1.
         11    1    3    3    0    0 -0.86612178607E+01 -0.10879360861E+02  0.16650727503E+02  0.21693868125E+02  0.51100000000E-03 0. -1.
        -11    1    3    3    0    0 -0.37679485830E+01 -0.10569700869E+02  0.30548270198E+01  0.11629616562E+02  0.51100000000E-03 0.  1.
        -12    1    3    3    0    0 -0.10210373754E+02 -0.10230463191E+02 -0.53572938350E+00  0.14463786339E+02  0.00000000000E+00 0.  1.
</event>
<event>
 7    1  0.1427898E-010  0.4778726E+02  0.7816164E-02  0.1312668E+00
        -11   -1    0    0    0    0  0.00000000000E+00  0.00000000000E+00  0.45593999997E+02  0.45594000000E+02  0.51100000000E-03 0.  1.
         11   -1    0    0    0    0 -0.00000000000E+00 -0.00000000000E+00 -0.45593999997E+02  0.45594000000E+02  0.51100000000E-03 0. -1.
    9900012    2    1    2    0    0  0.11020955605E+02 -0.41936041252E+02 -0.18791533590E+01  0.47787259964E+02  0.19999949478E+02 0.  0.
        -12    1    1    2    0    0 -0.11020955605E+02  0.41936041252E+02  0.18791533590E+01  0.43400740036E+02  0.00000000000E+00 0.  1.
         11    1    3    3    0    0 -0.42746090501E+00 -0.88729289291E+01  0.46602260132E+01  0.10031415521E+02  0.51100000000E-03 0.  1.
        -11    1    3    3    0    0  0.66734705196E+01 -0.19211996037E+02  0.25760959214E+01  0.20500543187E+02  0.51100000000E-03 0. -1.
        -12    1    3    3    0    0  0.47749459907E+01 -0.13851116286E+02 -0.91154752936E+01  0.17255301255E+02  0.00000000000E+00 0.  1.
</event>
<event>
 7    1  0.1427898E-010  0.4778727E+02  0.7816164E-02  0.1312668E+00
        -11   -1    0    0    0    0  0.00000000000E+00  0.00000000000E+00  0.45593999997E+02  0.45594000000E+02  0.51100000000E-03 0.  1.
         11   -1    0    0    0    0 -0.00000000000E+00 -0.00000000000E+00 -0.45593999997E+02  0.45594000000E+02  0.51100000000E-03 0. -1.
    9900012    2    1    2    0    0 -0.14063499027E+02 -0.24881733072E+01 -0.40983536073E+02  0.47787271431E+02  0.20000001762E+02 0.  0.
        -12    1    1    2    0    0  0.14063499027E+02  0.24881733072E+01  0.40983536073E+02  0.43400728569E+02  0.00000000000E+00 0.  1.
         11    1    3    3    0    0 -0.14281838463E+02  0.58834645178E+01 -0.26112470129E+02  0.30338872113E+02  0.51100000000E-03 0. -1.
        -11    1    3    3    0    0  0.34362001038E+00 -0.60418594774E+01 -0.13365391264E+02  0.14671599250E+02  0.51100000000E-03 0.  1.
        -12    1    3    3    0    0 -0.12528057347E+00 -0.23297783476E+01 -0.15056746800E+01  0.27768000672E+01  0.00000000000E+00 0.  1.
</event>
<event>
 7    1  0.1427898E-010  0.4778727E+02  0.7816164E-02  0.1312668E+00
        -11   -1    0    0    0    0  0.00000000000E+00  0.00000000000E+00  0.45593999997E+02  0.45594000000E+02  0.51100000000E-03 0.  1.
         11   -1    0    0    0    0 -0.00000000000E+00 -0.00000000000E+00 -0.45593999997E+02  0.45594000000E+02  0.51100000000E-03 0. -1.
    9900012    2    1    2    0    0  0.19236125933E+02  0.22365777900E+01 -0.38840601085E+02  0.47787272889E+02  0.20000008411E+02 0.  0.
        -12    1    1    2    0    0 -0.19236125933E+02 -0.22365777900E+01  0.38840601085E+02  0.43400727111E+02  0.00000000000E+00 0.  1.
         11    1    3    3    0    0  0.88173137985E+01  0.14137229354E+00 -0.10763831469E+02  0.13914922813E+02  0.51100000000E-03 0.  1.
        -11    1    3    3    0    0  0.23435557122E+01 -0.28311470090E+00 -0.24683278064E+02  0.24795899329E+02  0.51100000000E-03 0. -1.
         12    1    3    3    0    0  0.80752564220E+01  0.23783201974E+01 -0.33934915521E+01  0.90764507467E+01  0.00000000000E+00 0. -1.
</event>
<event>
 7    1  0.1427898E-010  0.4778728E+02  0.7816164E-02  0.1312668E+00
        -11   -1    0    0    0    0  0.00000000000E+00  0.00000000000E+00  0.45593999997E+02  0.45594000000E+02  0.51100000000E-03 0. -1.
         11   -1    0    0    0    0 -0.00000000000E+00 -0.00000000000E+00 -0.45593999997E+02  0.45594000000E+02  0.51100000000E-03 0.  1.
    9900012    2    1    2    0    0 -0.76853471907E+01 -0.25527618104E+02  0.34247609611E+02  0.47787278675E+02  0.20000034789E+02 0.  0.
        -12    1    1    2    0    0  0.76853471907E+01  0.25527618104E+02 -0.34247609611E+02  0.43400721325E+02  0.00000000000E+00 0.  1.
         11    1    3    3    0    0 -0.63381791358E+01 -0.14937949357E+02  0.15060541443E+02  0.22138987207E+02  0.51100000000E-03 0. -1.
        -11    1    3    3    0    0  0.13033714072E+00 -0.43905826255E+01 -0.97810772674E+00  0.45000998375E+01  0.51100000000E-03 0.  1.
         12    1    3    3    0    0 -0.14775051956E+01 -0.61990861217E+01  0.20165175895E+02  0.21148191630E+02  0.00000000000E+00 0. -1.
</event>
<event>
 7    1  0.1427898E-010  0.4778727E+02  0.7816164E-02  0.1312668E+00
        -11   -1    0    0    0    0  0.00000000000E+00  0.00000000000E+00  0.45593999997E+02  0.45594000000E+02  0.51100000000E-03 0.  1.
         11   -1    0    0    0    0 -0.00000000000E+00 -0.00000000000E+00 -0.45593999997E+02  0.45594000000E+02  0.51100000000E-03 0. -1.
    9900012    2    1    2    0    0 -0.15230730630E+02  0.31383823498E+02 -0.25820607776E+02  0.47787270527E+02  0.19999997641E+02 0.  0.
        -12    1    1    2    0    0  0.15230730630E+02 -0.31383823498E+02  0.25820607776E+02  0.43400729473E+02  0.00000000000E+00 0.  1.
         11    1    3    3    0    0 -0.69738615819E+01  0.81104311898E+01 -0.18600141837E+02  0.21456446958E+02  0.51100000000E-03 0. -1.
        -11    1    3    3    0    0 -0.40878741352E+01  0.69547069906E+01 -0.16192762172E+00  0.80687598233E+01  0.51100000000E-03 0.  1.
        -12    1    3    3    0    0 -0.41689949127E+01  0.16318685318E+02 -0.70585383169E+01  0.18262063746E+02  0.00000000000E+00 0.  1.
</event>
<event>
 7    1  0.1427898E-010  0.4778727E+02  0.7816164E-02  0.1312668E+00
        -11   -1    0    0    0    0  0.00000000000E+00  0.00000000000E+00  0.45593999997E+02  0.45594000000E+02  0.51100000000E-03 0.  1.
         11   -1    0    0    0    0 -0.00000000000E+00 -0.00000000000E+00 -0.45593999997E+02  0.45594000000E+02  0.51100000000E-03 0. -1.
    9900012    2    1    2    0    0 -0.19070724818E+02  0.30195381271E+02 -0.24661092715E+02  0.47787273173E+02  0.20000009707E+02 0.  0.
        -12    1    1    2    0    0  0.19070724818E+02 -0.30195381271E+02  0.24661092715E+02  0.43400726827E+02  0.00000000000E+00 0.  1.
         11    1    3    3    0    0 -0.17781225931E+02  0.25933032812E+02 -0.13605363149E+02  0.34260766090E+02  0.51100000000E-03 0. -1.
        -11    1    3    3    0    0  0.16104988033E+01  0.16114482612E+01 -0.59855935523E+00  0.23555775208E+01  0.51100000000E-03 0.  1.
         12    1    3    3    0    0 -0.28999976901E+01  0.26509001985E+01 -0.10457170211E+02  0.11170929563E+02  0.00000000000E+00 0. -1.
</event>
<event>
 7    1  0.1427898E-010  0.4778726E+02  0.7816164E-02  0.1312668E+00
        -11   -1    0    0    0    0  0.00000000000E+00  0.00000000000E+00  0.45593999997E+02  0.45594000000E+02  0.51100000000E-03 0.  1.
         11   -1    0    0    0    0 -0.00000000000E+00 -0.00000000000E+00 -0.45593999997E+02  0.45594000000E+02  0.51100000000E-03 0. -1.
    9900012    2    1    2    0    0  0.17819228067E+02  0.30054197369E+02 -0.25745768880E+02  0.47787259411E+02  0.19999946958E+02 0.  0.
        -12    1    1    2    0    0 -0.17819228067E+02 -0.30054197369E+02  0.25745768880E+02  0.43400740589E+02  0.00000000000E+00 0.  1.
         11    1    3    3    0    0 -0.17879470985E+00  0.24837746439E+01  0.95310118403E+00  0.26663657210E+01  0.51100000000E-03 0. -1.
        -11    1    3    3    0    0 -0.18195538723E+01  0.32165286845E+01  0.30440191152E+00  0.37080309946E+01  0.51100000000E-03 0.  1.
        -12    1    3    3    0    0  0.19817576649E+02  0.24353894041E+02 -0.27003271976E+02  0.41412862695E+02  0.00000000000E+00 0.  1.
</event>
<event>
 7    1  0.1427898E-010  0.4778726E+02  0.7816164E-02  0.1312668E+00
        -11   -1    0    0    0    0  0.00000000000E+00  0.00000000000E+00  0.45593999997E+02  0.45594000000E+02  0.51100000000E-03 0.  1.
         11   -1    0    0    0    0 -0.00000000000E+00 -0.00000000000E+00 -0.45593999997E+02  0.45594000000E+02  0.51100000000E-03 0. -1.
    9900012    2    1    2    0    0  0.10639691040E+02 -0.35998960305E+01 -0.41922094986E+02  0.47787258936E+02  0.19999944793E+02 0.  0.
        -12    1    1    2    0    0 -0.10639691040E+02  0.35998960305E+01  0.41922094986E+02  0.43400741064E+02  0.00000000000E+00 0.  1.
         11    1    3    3    0    0 -0.23166727545E+01  0.16777800060E+01 -0.13105030905E+02  0.13413566031E+02  0.51100000000E-03 0. -1.
        -11    1    3    3    0    0  0.76721372418E+01 -0.75356461966E+01 -0.25648130864E+02  0.27811405404E+02  0.51100000000E-03 0.  1.
        -12    1    3    3    0    0  0.52842265531E+01  0.22579701601E+01 -0.31689332172E+01  0.65622875008E+01  0.00000000000E+00 0.  1.
</event>
<event>
 7    1  0.1427898E-010  0.4778727E+02  0.7816164E-02  0.1312668E+00
        -11   -1    0    0    0    0  0.00000000000E+00  0.00000000000E+00  0.45593999997E+02  0.45594000000E+02  0.51100000000E-03 0. -1.
         11   -1    0    0    0    0 -0.00000000000E+00 -0.00000000000E+00 -0.45593999997E+02  0.45594000000E+02  0.51100000000E-03 0.  1.
    9900012    2    1    2    0    0 -0.22124847940E+02  0.27296972930E+01  0.37237928890E+02  0.47787268535E+02  0.19999988560E+02 0.  0.
        -12    1    1    2    0    0  0.22124847940E+02 -0.27296972930E+01 -0.37237928890E+02  0.43400731465E+02  0.00000000000E+00 0.  1.
         11    1    3    3    0    0 -0.11078400676E+02  0.90116143355E+01  0.20263613836E+02  0.24790203719E+02  0.51100000000E-03 0. -1.
        -11    1    3    3    0    0  0.59234085831E+00 -0.23712085009E+01  0.57523780674E+00  0.25108556794E+01  0.51100000000E-03 0.  1.
        -12    1    3    3    0    0 -0.11638788122E+02 -0.39107085416E+01  0.16399077247E+02  0.20486209137E+02  0.00000000000E+00 0.  1.
</event>
<event>
 7    1  0.1427898E-010  0.4778726E+02  0.7816164E-02  0.1312668E+00
        -11   -1    0    0    0    0  0.00000000000E+00  0.00000000000E+00  0.45593999997E+02  0.45594000000E+02  0.51100000000E-03 0. -1.
         11   -1    0    0    0    0 -0.00000000000E+00 -0.00000000000E+00 -0.45593999997E+02  0.45594000000E+02  0.51100000000E-03 0.  1.
    9900012    2    1    2    0    0  0.28005026857E+02 -0.98041763396E+01  0.31673658693E+02  0.47787262011E+02  0.19999958815E+02 0.  0.
        -12    1    1    2    0    0 -0.28005026857E+02  0.98041763396E+01 -0.31673658693E+02  0.43400737989E+02  0.00000000000E+00 0.  1.
         11    1    3    3    0    0  0.51516119447E+01  0.87795831384E+00  0.10077547750E+02  0.11351955133E+02  0.51100000000E-03 0. -1.
        -11    1    3    3    0    0  0.83246181792E+01 -0.11763707653E+02  0.13604805549E+02  0.19818547370E+02  0.51100000000E-03 0.  1.
        -12    1    3    3    0    0  0.14528796733E+02  0.10815729995E+01  0.79913053942E+01  0.16616759508E+02  0.00000000000E+00 0.  1.
</event>
<event>
 7    1  0.1427898E-010  0.4778728E+02  0.7816164E-02  0.1312668E+00
        -11   -1    0    0    0    0  0.00000000000E+00  0.00000000000E+00  0.45593999997E+02  0.45594000000E+02  0.51100000000E-03 0.  1.
         11   -1    0    0    0    0 -0.00000000000E+00 -0.00000000000E+00 -0.45593999997E+02  0.45594000000E+02  0.51100000000E-03 0. -1.
    9900012    2    1    2    0    0  0.22670302155E+02 -0.27709871194E+02 -0.24532495585E+02  0.47787275340E+02  0.20000019586E+02 0.  0.
        -12    1    1    2    0    0 -0.22670302155E+02  0.27709871194E+02  0.24532495585E+02  0.43400724660E+02  0.00000000000E+00 0.  1.
         11    1    3    3    0    0  0.60267265804E+01 -0.14281456499E+02 -0.81207675230E+01  0.17499379944E+02  0.51100000000E-03 0. -1.
        -11    1    3    3    0    0  0.11755850739E+02 -0.94573044057E+01 -0.18295828000E+02  0.23714509392E+02  0.51100000000E-03 0.  1.
        -12    1    3    3    0    0  0.48877248351E+01 -0.39711102892E+01  0.18840999375E+01  0.65733860047E+01  0.00000000000E+00 0.  1.
</event>
<event>
 7    1  0.1427898E-010  0.4778727E+02  0.7816164E-02  0.1312668E+00
        -11   -1    0    0    0    0  0.00000000000E+00  0.00000000000E+00  0.45593999997E+02  0.45594000000E+02  0.51100000000E-03 0.  1.
         11   -1    0    0    0    0 -0.00000000000E+00 -0.00000000000E+00 -0.45593999997E+02  0.45594000000E+02  0.51100000000E-03 0. -1.
    9900012    2    1    2    0    0 -0.37341944680E+02 -0.13127806875E+02 -0.17800643161E+02  0.47787273707E+02  0.20000012138E+02 0.  0.
        -12    1    1    2    0    0  0.37341944680E+02  0.13127806875E+02  0.17800643161E+02  0.43400726293E+02  0.00000000000E+00 0.  1.
         11    1    3    3    0    0 -0.20910473985E+02 -0.60764630202E+01 -0.11487530989E+02  0.24619802875E+02  0.51100000000E-03 0. -1.
        -11    1    3    3    0    0 -0.11923923624E+02 -0.50876894953E+01 -0.10520991830E+02  0.16695981802E+02  0.51100000000E-03 0.  1.
         12    1    3    3    0    0 -0.45075470711E+01 -0.19636543596E+01  0.42078796582E+01  0.64714890296E+01  0.00000000000E+00 0. -1.
</event>
<event>
 7    1  0.1427898E-010  0.4778726E+02  0.7816164E-02  0.1312668E+00
        -11   -1    0    0    0    0  0.00000000000E+00  0.00000000000E+00  0.45593999997E+02  0.45594000000E+02  0.51100000000E-03 0. -1.
         11   -1    0    0    0    0 -0.00000000000E+00 -0.00000000000E+00 -0.45593999997E+02  0.45594000000E+02  0.51100000000E-03 0.  1.
    9900012    2    1    2    0    0 -0.20807938022E+02  0.26303902091E+02  0.27545575884E+02  0.47787259214E+02  0.19999946062E+02 0.  0.
        -12    1    1    2    0    0  0.20807938022E+02 -0.26303902091E+02 -0.27545575884E+02  0.43400740786E+02  0.00000000000E+00 0.  1.
         11    1    3    3    0    0 -0.19006040027E+02  0.15441312783E+02  0.15557794014E+02  0.29012215580E+02  0.51100000000E-03 0.  1.
        -11    1    3    3    0    0 -0.32710387833E+01  0.12090741676E+02  0.10161585604E+02  0.16128966218E+02  0.51100000000E-03 0. -1.
        -12    1    3    3    0    0  0.14691407885E+01 -0.12281523681E+01  0.18261962652E+01  0.26460774166E+01  0.00000000000E+00 0.  1.
</event>
<event>
 7    1  0.1427898E-010  0.4778727E+02  0.7816164E-02  0.1312668E+00
        -11   -1    0    0    0    0  0.00000000000E+00  0.00000000000E+00  0.45593999997E+02  0.45594000000E+02  0.51100000000E-03 0.  1.
         11   -1    0    0    0    0 -0.00000000000E+00 -0.00000000000E+00 -0.45593999997E+02  0.45594000000E+02  0.51100000000E-03 0. -1.
    9900012    2    1    2    0    0 -0.33864685476E+02 -0.24413787184E+02 -0.11864797950E+02  0.47787270082E+02  0.19999995611E+02 0.  0.
        -12    1    1    2    0    0  0.33864685476E+02  0.24413787184E+02  0.11864797950E+02  0.43400729918E+02  0.00000000000E+00 0.  1.
         11    1    3    3    0    0 -0.12844211382E+02 -0.14140592277E+02 -0.82923328300E+01  0.20825294716E+02  0.51100000000E-03 0. -1.
        -11    1    3    3    0    0 -0.13422815066E+02 -0.12582104946E+02 -0.45750756062E+01  0.18958181512E+02  0.51100000000E-03 0.  1.
        -12    1    3    3    0    0 -0.75976590276E+01  0.23089100394E+01  0.10026104858E+01  0.80037938539E+01  0.00000000000E+00 0.  1.
</event>
<event>
 7    1  0.1427898E-010  0.4778727E+02  0.7816164E-02  0.1312668E+00
        -11   -1    0    0    0    0  0.00000000000E+00  0.00000000000E+00  0.45593999997E+02  0.45594000000E+02  0.51100000000E-03 0. -1.
         11   -1    0    0    0    0 -0.00000000000E+00 -0.00000000000E+00 -0.45593999997E+02  0.45594000000E+02  0.51100000000E-03 0.  1.
    9900012    2    1    2    0    0  0.23499068206E+02  0.26071587700E+02  0.25528211304E+02  0.47787268853E+02  0.19999990006E+02 0.  0.
        -12    1    1    2    0    0 -0.23499068206E+02 -0.26071587700E+02 -0.25528211304E+02  0.43400731147E+02  0.00000000000E+00 0.  1.
         11    1    3    3    0    0  0.68419260506E+01  0.60287830328E+00  0.23716642198E+01  0.72663750084E+01  0.51100000000E-03 0. -1.
        -11    1    3    3    0    0  0.92316753434E-01 -0.15473171016E+01  0.13194535487E+01  0.20356007772E+01  0.51100000000E-03 0.  1.
         12    1    3    3    0    0  0.16564825402E+02  0.27016026499E+02  0.21837093535E+02  0.38485293067E+02  0.00000000000E+00 0. -1.
</event>
<event>
 7    1  0.1427898E-010  0.4778727E+02  0.7816164E-02  0.1312668E+00
        -11   -1    0    0    0    0  0.00000000000E+00  0.00000000000E+00  0.45593999997E+02  0.45594000000E+02  0.51100000000E-03 0.  1.
         11   -1    0    0    0    0 -0.00000000000E+00 -0.00000000000E+00 -0.45593999997E+02  0.45594000000E+02  0.51100000000E-03 0. -1.
    9900012    2    1    2    0    0 -0.20571081709E+02 -0.27406396521E+02 -0.26633507455E+02  0.47787266224E+02  0.19999978021E+02 0.  0.
        -12    1    1    2    0    0  0.20571081709E+02  0.27406396521E+02  0.26633507455E+02  0.43400733776E+02  0.00000000000E+00 0.  1.
         11    1    3    3    0    0 -0.68152975567E+01 -0.19357956635E+01 -0.52894276913E+01  0.88415853329E+01  0.51100000000E-03 0. -1.
        -11    1    3    3    0    0 -0.22272914378E+01 -0.14782430534E+02 -0.16995242685E+02  0.22634472687E+02  0.51100000000E-03 0.  1.
        -12    1    3    3    0    0 -0.11528492714E+02 -0.10688170323E+02 -0.43488370790E+01  0.16311208204E+02  0.00000000000E+00 0.  1.
</event>
<event>
 7    1  0.1427898E-010  0.4778727E+02  0.7816164E-02  0.1312668E+00
        -11   -1    0    0    0    0  0.00000000000E+00  0.00000000000E+00  0.45593999997E+02  0.45594000000E+02  0.51100000000E-03 0.  1.
         11   -1    0    0    0    0 -0.00000000000E+00 -0.00000000000E+00 -0.45593999997E+02  0.45594000000E+02  0.51100000000E-03 0. -1.
    9900012    2    1    2    0    0 -0.10280538290E+02  0.26581932760E+02 -0.32731243960E+02  0.47787274800E+02  0.20000017122E+02 0.  0.
        -12    1    1    2    0    0  0.10280538290E+02 -0.26581932760E+02  0.32731243960E+02  0.43400725200E+02  0.00000000000E+00 0.  1.
         11    1    3    3    0    0  0.18950089244E+01  0.20616406094E+01  0.24322114381E-01  0.28003593791E+01  0.51100000000E-03 0. -1.
        -11    1    3    3    0    0 -0.57112946317E+01  0.14943301465E+02 -0.28482532825E+02  0.32667657116E+02  0.51100000000E-03 0.  1.
         12    1    3    3    0    0 -0.64642525825E+01  0.95769906856E+01 -0.42730332489E+01  0.12319258305E+02  0.00000000000E+00 0. -1.
</event>
<event>
 7    1  0.1427898E-010  0.4778727E+02  0.7816164E-02  0.1312668E+00
        -11   -1    0    0    0    0  0.00000000000E+00  0.00000000000E+00  0.45593999997E+02  0.45594000000E+02  0.51100000000E-03 0. -1.
         11   -1    0    0    0    0 -0.00000000000E+00 -0.00000000000E+00 -0.45593999997E+02  0.45594000000E+02  0.51100000000E-03 0.  1.
    9900012    2    1    2    0    0 -0.21083718742E+02 -0.27093127042E+02  0.26553014208E+02  0.47787270831E+02  0.19999999026E+02 0.  0.
        -12    1    1    2    0    0  0.21083718742E+02  0.27093127042E+02 -0.26553014208E+02  0.43400729169E+02  0.00000000000E+00 0.  1.
         11    1    3    3    0    0 -0.15047790219E+02 -0.15456790607E+02  0.11491252366E+02  0.24441711224E+02  0.51100000000E-03 0. -1.
        -11    1    3    3    0    0  0.31914368515E+01 -0.64717478755E+01  0.52870764340E+01  0.89454998307E+01  0.51100000000E-03 0.  1.
         12    1    3    3    0    0 -0.92273653738E+01 -0.51645885593E+01  0.97746854084E+01  0.14400059776E+02  0.00000000000E+00 0. -1.
</event>
<event>
 7    1  0.1427898E-010  0.4778727E+02  0.7816164E-02  0.1312668E+00
        -11   -1    0    0    0    0  0.00000000000E+00  0.00000000000E+00  0.45593999997E+02  0.45594000000E+02  0.51100000000E-03 0. -1.
         11   -1    0    0    0    0 -0.00000000000E+00 -0.00000000000E+00 -0.45593999997E+02  0.45594000000E+02  0.51100000000E-03 0.  1.
    9900012    2    1    2    0    0 -0.35763312732E+02 -0.19978831328E+02  0.14333699548E+02  0.47787272108E+02  0.20000004850E+02 0.  0.
        -12    1    1    2    0    0  0.35763312732E+02  0.19978831328E+02 -0.14333699548E+02  0.43400727892E+02  0.00000000000E+00 0.  1.
         11    1    3    3    0    0 -0.17385125109E+02 -0.15367889462E+02  0.78337780628E+01  0.24490461011E+02  0.51100000000E-03 0. -1.
        -11    1    3    3    0    0  0.13656377825E+01  0.62550946802E+00  0.17856946585E+01  0.23334383048E+01  0.51100000000E-03 0.  1.
         12    1    3    3    0    0 -0.19743825406E+02 -0.52364513341E+01  0.47142268269E+01  0.20963372792E+02  0.00000000000E+00 0. -1.
</event>
<event>
 7    1  0.1427898E-010  0.4778727E+02  0.7816164E-02  0.1312668E+00
        -11   -1    0    0    0    0  0.00000000000E+00  0.00000000000E+00  0.45593999997E+02  0.45594000000E+02  0.51100000000E-03 0.  1.
         11   -1    0    0    0    0 -0.00000000000E+00 -0.00000000000E+00 -0.45593999997E+02  0.45594000000E+02  0.51100000000E-03 0. -1.
    9900012    2    1    2    0    0  0.37875522735E+01 -0.29842904574E+02 -0.31283843084E+02  0.47787270240E+02  0.19999996332E+02 0.  0.
        -12    1    1    2    0    0 -0.37875522735E+01  0.29842904574E+02  0.31283843084E+02  0.43400729760E+02  0.00000000000E+00 0.  1.
         11    1    3    3    0    0 -0.36487275449E+01 -0.13734677619E+02 -0.16566496239E+02  0.21826666716E+02  0.51100000000E-03 0. -1.
        -11    1    3    3    0    0 -0.16321878223E+01 -0.88559420746E+01 -0.99177208294E+01  0.13396004398E+02  0.51100000000E-03 0.  1.
        -12    1    3    3    0    0  0.90684676408E+01 -0.72522848796E+01 -0.47996260151E+01  0.12564599127E+02  0.00000000000E+00 0.  1.
</event>
<event>
 7    1  0.1427898E-010  0.4778727E+02  0.7816164E-02  0.1312668E+00
        -11   -1    0    0    0    0  0.00000000000E+00  0.00000000000E+00  0.45593999997E+02  0.45594000000E+02  0.51100000000E-03 0. -1.
         11   -1    0    0    0    0 -0.00000000000E+00 -0.00000000000E+00 -0.45593999997E+02  0.45594000000E+02  0.51100000000E-03 0.  1.
    9900012    2    1    2    0    0  0.19094873012E+01 -0.19659052338E+02  0.38645814032E+02  0.47787269329E+02  0.19999992178E+02 0.  0.
        -12    1    1    2    0    0 -0.19094873012E+01  0.19659052338E+02 -0.38645814032E+02  0.43400730671E+02  0.00000000000E+00 0.  1.
         11    1    3    3    0    0 -0.37295529554E+01 -0.88607499738E+01  0.11962696325E+02  0.15346939727E+02  0.51100000000E-03 0. -1.
        -11    1    3    3    0    0  0.76334139076E+01 -0.63052256425E+01  0.69309766019E+01  0.12085665691E+02  0.51100000000E-03 0.  1.
        -12    1    3    3    0    0 -0.19943736510E+01 -0.44930767220E+01  0.19752141105E+02  0.20354663911E+02  0.00000000000E+00 0.  1.
</event>
<event>
 7    1  0.1573813E-010  0.4778727E+02  0.7816164E-02  0.1312668E+00
        -11   -1    0    0    0    0  0.00000000000E+00  0.00000000000E+00  0.45593999997E+02  0.45594000000E+02  0.51100000000E-03 0.  1.
         11   -1    0    0    0    0 -0.00000000000E+00 -0.00000000000E+00 -0.45593999997E+02  0.45594000000E+02  0.51100000000E-03 0. -1.
    9900012    2    1    2    0    0  0.36957344295E+02  0.10693595884E+02 -0.20085448311E+02  0.47787268161E+02  0.19999986855E+02 0.  0.
        -12    1    1    2    0    0 -0.36957344295E+02 -0.10693595884E+02  0.20085448311E+02  0.43400731839E+02  0.00000000000E+00 0.  1.
         11    1    3    3    0    0  0.18695315217E+02  0.71954688436E+01 -0.73049292691E+01  0.21322560232E+02  0.51100000000E-03 0. -1.
        -11    1    3    3    0    0 -0.33561014650E+00  0.25634515932E+01  0.15082683331E+01  0.29931240981E+01  0.51100000000E-03 0.  1.
         12    1    3    3    0    0  0.18597639225E+02  0.93467544706E+00 -0.14288787375E+02  0.23471583832E+02  0.00000000000E+00 0. -1.
</event>
<event>
 7    1  0.1427898E-010  0.4778727E+02  0.7816164E-02  0.1312668E+00
        -11   -1    0    0    0    0  0.00000000000E+00  0.00000000000E+00  0.45593999997E+02  0.45594000000E+02  0.51100000000E-03 0. -1.
         11   -1    0    0    0    0 -0.00000000000E+00 -0.00000000000E+00 -0.45593999997E+02  0.45594000000E+02  0.51100000000E-03 0.  1.
    9900012    2    1    2    0    0 -0.36473298281E+02  0.41397427448E+00  0.23519148079E+02  0.47787272028E+02  0.20000004483E+02 0.  0.
        -12    1    1    2    0    0  0.36473298281E+02 -0.41397427448E+00 -0.23519148079E+02  0.43400727972E+02  0.00000000000E+00 0.  1.
         11    1    3    3    0    0 -0.11746383138E+02  0.60065233556E+00  0.17610041177E+02  0.21176681765E+02  0.51100000000E-03 0. -1.
        -11    1    3    3    0    0 -0.13615141121E+02 -0.23810350279E+01  0.64893793465E+01  0.15269362794E+02  0.51100000000E-03 0.  1.
        -12    1    3    3    0    0 -0.11111774021E+02  0.21943569668E+01 -0.58027244447E+00  0.11341227469E+02  0.00000000000E+00 0.  1.
</event>
<event>
 7    1  0.1427898E-010  0.4778727E+02  0.7816164E-02  0.1312668E+00
        -11   -1    0    0    0    0  0.00000000000E+00  0.00000000000E+00  0.45593999997E+02  0.45594000000E+02  0.51100000000E-03 0. -1.
         11   -1    0    0    0    0 -0.00000000000E+00 -0.00000000000E+00 -0.45593999997E+02  0.45594000000E+02  0.51100000000E-03 0.  1.
    9900012    2    1    2    0    0  0.14018822945E+02  0.13824588928E+02  0.38677856645E+02  0.47787271314E+02  0.20000001228E+02 0.  0.
        -12    1    1    2    0    0 -0.14018822945E+02 -0.13824588928E+02 -0.38677856645E+02  0.43400728686E+02  0.00000000000E+00 0.  1.
         11    1    3    3    0    0  0.20938604181E+01 -0.17613240028E+01  0.25028038102E+01  0.37081721733E+01  0.51100000000E-03 0. -1.
        -11    1    3    3    0    0 -0.26716359010E+01  0.35875257295E+01  0.17377984179E+01  0.47987417986E+01  0.51100000000E-03 0.  1.
         12    1    3    3    0    0  0.14596598428E+02  0.11998387202E+02  0.34437254417E+02  0.39280357342E+02  0.00000000000E+00 0. -1.
</event>
<event>
 7    1  0.1427898E-010  0.4778727E+02  0.7816164E-02  0.1312668E+00
        -11   -1    0    0    0    0  0.00000000000E+00  0.00000000000E+00  0.45593999997E+02  0.45594000000E+02  0.51100000000E-03 0.  1.
         11   -1    0    0    0    0 -0.00000000000E+00 -0.00000000000E+00 -0.45593999997E+02  0.45594000000E+02  0.51100000000E-03 0. -1.
    9900012    2    1    2    0    0  0.64678814712E+01  0.15530104029E+01 -0.42887972710E+02  0.47787268033E+02  0.19999986272E+02 0.  0.
        -12    1    1    2    0    0 -0.64678814712E+01 -0.15530104029E+01  0.42887972710E+02  0.43400731967E+02  0.00000000000E+00 0.  1.
         11    1    3    3    0    0  0.41305291994E+00  0.23593414157E+01  0.47341557769E+00  0.24415624508E+01  0.51100000000E-03 0. -1.
        -11    1    3    3    0    0  0.84260680514E+00 -0.27159122975E+01 -0.16935206436E+01  0.33097096953E+01  0.51100000000E-03 0.  1.
         12    1    3    3    0    0  0.52122217461E+01  0.19095812847E+01 -0.41667867644E+02  0.42035995887E+02  0.00000000000E+00 0. -1.
</event>
<event>
 7    1  0.1427898E-010  0.4778727E+02  0.7816164E-02  0.1312668E+00
        -11   -1    0    0    0    0  0.00000000000E+00  0.00000000000E+00  0.45593999997E+02  0.45594000000E+02  0.51100000000E-03 0.  1.
         11   -1    0    0    0    0 -0.00000000000E+00 -0.00000000000E+00 -0.45593999997E+02  0.45594000000E+02  0.51100000000E-03 0. -1.
    9900012    2    1    2    0    0 -0.34105500720E+02  0.23857518038E+02 -0.12298657991E+02  0.47787270344E+02  0.19999996808E+02 0.  0.
        -12    1    1    2    0    0  0.34105500720E+02 -0.23857518038E+02  0.12298657991E+02  0.43400729656E+02  0.00000000000E+00 0.  1.
         11    1    3    3    0    0 -0.10888458698E+02  0.39089134341E+01 -0.10466121794E+01  0.11616089461E+02  0.51100000000E-03 0. -1.
        -11    1    3    3    0    0 -0.93299827150E+01  0.42726796888E+01  0.31734443788E+01  0.10741281054E+02  0.51100000000E-03 0.  1.
        -12    1    3    3    0    0 -0.13887059307E+02  0.15675924915E+02 -0.14425490190E+02  0.25429899830E+02  0.00000000000E+00 0.  1.
</event>
<event>
 7    1  0.1427898E-010  0.4778727E+02  0.7816164E-02  0.1312668E+00
        -11   -1    0    0    0    0  0.00000000000E+00  0.00000000000E+00  0.45593999997E+02  0.45594000000E+02  0.51100000000E-03 0. -1.
         11   -1    0    0    0    0 -0.00000000000E+00 -0.00000000000E+00 -0.45593999997E+02  0.45594000000E+02  0.51100000000E-03 0.  1.
    9900012    2    1    2    0    0 -0.14444993802E+02 -0.15715797749E+02  0.37788610163E+02  0.47787271863E+02  0.20000003731E+02 0.  0.
        -12    1    1    2    0    0  0.14444993802E+02  0.15715797749E+02 -0.37788610163E+02  0.43400728137E+02  0.00000000000E+00 0.  1.
         11    1    3    3    0    0  0.45991141310E+01 -0.29389186850E+01  0.66732813238E+01  0.86210079291E+01  0.51100000000E-03 0.  1.
        -11    1    3    3    0    0 -0.92220799446E+01 -0.43614730427E+01  0.18341727445E+02  0.20987810070E+02  0.51100000000E-03 0. -1.
        -12    1    3    3    0    0 -0.98220279885E+01 -0.84154060209E+01  0.12773601394E+02  0.18178453864E+02  0.00000000000E+00 0.  1.
</event>
<event>
 7    1  0.1427898E-010  0.4778727E+02  0.7816164E-02  0.1312668E+00
        -11   -1    0    0    0    0  0.00000000000E+00  0.00000000000E+00  0.45593999997E+02  0.45594000000E+02  0.51100000000E-03 0. -1.
         11   -1    0    0    0    0 -0.00000000000E+00 -0.00000000000E+00 -0.45593999997E+02  0.45594000000E+02  0.51100000000E-03 0.  1.
    9900012    2    1    2    0    0  0.34310771619E+02  0.26145972175E+02  0.47730722961E+01  0.47787272711E+02  0.20000007599E+02 0.  0.
        -12    1    1    2    0    0 -0.34310771619E+02 -0.26145972175E+02 -0.47730722961E+01  0.43400727289E+02  0.00000000000E+00 0.  1.
         11    1    3    3    0    0  0.82618426159E+01  0.94548496035E+01 -0.27186821971E+01  0.12846924051E+02  0.51100000000E-03 0. -1.
        -11    1    3    3    0    0  0.45059627315E+01 -0.17002418678E+01  0.42621191634E+01  0.64311882706E+01  0.51100000000E-03 0.  1.
         12    1    3    3    0    0  0.21542966271E+02  0.18391364440E+02  0.32296353298E+01  0.28509160389E+02  0.00000000000E+00 0. -1.
</event>
<event>
 7    1  0.1427898E-010  0.4778726E+02  0.7816164E-02  0.1312668E+00
        -11   -1    0    0    0    0  0.00000000000E+00  0.00000000000E+00  0.45593999997E+02  0.45594000000E+02  0.51100000000E-03 0.  1.
         11   -1    0    0    0    0 -0.00000000000E+00 -0.00000000000E+00 -0.45593999997E+02  0.45594000000E+02  0.51100000000E-03 0. -1.
    9900012    2    1    2    0    0  0.32051750405E+02 -0.24305290365E+01 -0.29161649171E+02  0.47787263166E+02  0.19999964077E+02 0.  0.
        -12    1    1    2    0    0 -0.32051750405E+02  0.24305290365E+01  0.29161649171E+02  0.43400736834E+02  0.00000000000E+00 0.  1.
         11    1    3    3    0    0  0.11682371615E+02  0.33027707798E+01 -0.10635193262E+02  0.16139809087E+02  0.51100000000E-03 0. -1.
        -11    1    3    3    0    0  0.11802761473E+02 -0.33812027841E+01 -0.14039065711E+01  0.12357534729E+02  0.51100000000E-03 0.  1.
         12    1    3    3    0    0  0.85666173165E+01 -0.23520970321E+01 -0.17122549337E+02  0.19289919349E+02  0.00000000000E+00 0. -1.
</event>
<event>
 7    1  0.1427898E-010  0.4778727E+02  0.7816164E-02  0.1312668E+00
        -11   -1    0    0    0    0  0.00000000000E+00  0.00000000000E+00  0.45593999997E+02  0.45594000000E+02  0.51100000000E-03 0.  1.
         11   -1    0    0    0    0 -0.00000000000E+00 -0.00000000000E+00 -0.45593999997E+02  0.45594000000E+02  0.51100000000E-03 0. -1.
    9900012    2    1    2    0    0  0.54700372893E+01 -0.42620026712E+02 -0.61020571481E+01  0.47787273205E+02  0.20000009850E+02 0.  0.
        -12    1    1    2    0    0 -0.54700372893E+01  0.42620026712E+02  0.61020571481E+01  0.43400726795E+02  0.00000000000E+00 0.  1.
         11    1    3    3    0    0  0.11386246765E+01 -0.13738685810E+01  0.11881398358E+01  0.21437484839E+01  0.51100000000E-03 0. -1.
        -11    1    3    3    0    0  0.12727093725E+01 -0.20285620508E+00 -0.41741944798E+01  0.43686198740E+01  0.51100000000E-03 0.  1.
         12    1    3    3    0    0  0.30587032403E+01 -0.41043301926E+02 -0.31160025041E+01  0.41274904847E+02  0.00000000000E+00 0. -1.
</event>
<event>
 7    1  0.1427898E-010  0.4778726E+02  0.7816164E-02  0.1312668E+00
        -11   -1    0    0    0    0  0.00000000000E+00  0.00000000000E+00  0.45593999997E+02  0.45594000000E+02  0.51100000000E-03 0. -1.
         11   -1    0    0    0    0 -0.00000000000E+00 -0.00000000000E+00 -0.45593999997E+02  0.45594000000E+02  0.51100000000E-03 0.  1.
    9900012    2    1    2    0    0  0.23651102784E+02  0.36351726590E+02  0.16738110467E+01  0.47787258850E+02  0.19999944398E+02 0.  0.
        -12    1    1    2    0    0 -0.23651102784E+02 -0.36351726590E+02 -0.16738110467E+01  0.43400741150E+02  0.00000000000E+00 0.  1.
         11    1    3    3    0    0  0.24245898396E+02  0.33341211869E+02  0.22624521525E+01  0.41287028084E+02  0.51100000000E-03 0. -1.
        -11    1    3    3    0    0 -0.68025909046E-01  0.37032979568E+00  0.24279538455E+01  0.24569761535E+01  0.51100000000E-03 0.  1.
        -12    1    3    3    0    0 -0.52676970378E+00  0.26401849255E+01 -0.30165949512E+01  0.40432546125E+01  0.00000000000E+00 0.  1.
</event>
<event>
 7    1  0.1427898E-010  0.4778727E+02  0.7816164E-02  0.1312668E+00
        -11   -1    0    0    0    0  0.00000000000E+00  0.00000000000E+00  0.45593999997E+02  0.45594000000E+02  0.51100000000E-03 0. -1.
         11   -1    0    0    0    0 -0.00000000000E+00 -0.00000000000E+00 -0.45593999997E+02  0.45594000000E+02  0.51100000000E-03 0.  1.
    9900012    2    1    2    0    0  0.32565764473E+01 -0.40722612958E+02  0.14652190887E+02  0.47787271963E+02  0.20000004189E+02 0.  0.
        -12    1    1    2    0    0 -0.32565764473E+01  0.40722612958E+02 -0.14652190887E+02  0.43400728037E+02  0.00000000000E+00 0.  1.
         11    1    3    3    0    0 -0.39156046024E+01 -0.36483115281E+02  0.12285655900E+02  0.38694792947E+02  0.51100000000E-03 0. -1.
        -11    1    3    3    0    0  0.11961525515E+01  0.13283951115E+00  0.99550561470E+00  0.15618767404E+01  0.51100000000E-03 0.  1.
         12    1    3    3    0    0  0.59760284982E+01 -0.43723371881E+01  0.13710293725E+01  0.75306022759E+01  0.00000000000E+00 0. -1.
</event>
<event>
 7    1  0.1427898E-010  0.4778727E+02  0.7816164E-02  0.1312668E+00
        -11   -1    0    0    0    0  0.00000000000E+00  0.00000000000E+00  0.45593999997E+02  0.45594000000E+02  0.51100000000E-03 0.  1.
         11   -1    0    0    0    0 -0.00000000000E+00 -0.00000000000E+00 -0.45593999997E+02  0.45594000000E+02  0.51100000000E-03 0. -1.
    9900012    2    1    2    0    0  0.31452442754E+02 -0.89709664622E+01 -0.28528736373E+02  0.47787271970E+02  0.20000004221E+02 0.  0.
        -12    1    1    2    0    0 -0.31452442754E+02  0.89709664622E+01  0.28528736373E+02  0.43400728030E+02  0.00000000000E+00 0.  1.
         11    1    3    3    0    0  0.10146907306E+02  0.96501985768E-01 -0.10712790779E+02  0.14755776057E+02  0.51100000000E-03 0. -1.
        -11    1    3    3    0    0  0.19405915849E+02 -0.10628735081E+02 -0.90124957358E+01  0.23891099996E+02  0.51100000000E-03 0.  1.
        -12    1    3    3    0    0  0.18996195994E+01  0.15612666331E+01 -0.88034498582E+01  0.91403959175E+01  0.00000000000E+00 0.  1.
</event>
<event>
 7    1  0.1427898E-010  0.4778727E+02  0.7816164E-02  0.1312668E+00
        -11   -1    0    0    0    0  0.00000000000E+00  0.00000000000E+00  0.45593999997E+02  0.45594000000E+02  0.51100000000E-03 0.  1.
         11   -1    0    0    0    0 -0.00000000000E+00 -0.00000000000E+00 -0.45593999997E+02  0.45594000000E+02  0.51100000000E-03 0. -1.
    9900012    2    1    2    0    0 -0.72396068629E+01  0.34352802083E+02 -0.25516589075E+02  0.47787271475E+02  0.20000001963E+02 0.  0.
        -12    1    1    2    0    0  0.72396068629E+01 -0.34352802083E+02  0.25516589075E+02  0.43400728525E+02  0.00000000000E+00 0.  1.
         11    1    3    3    0    0  0.34043849306E+01  0.72796831312E+01 -0.71589954825E+01  0.10762659515E+02  0.51100000000E-03 0. -1.
        -11    1    3    3    0    0 -0.76288661869E+01  0.91325347028E+01 -0.11021914365E+01  0.11950632436E+02  0.51100000000E-03 0.  1.
         12    1    3    3    0    0 -0.30151256067E+01  0.17940584249E+02 -0.17255402156E+02  0.25073979524E+02  0.00000000000E+00 0. -1.
</event>
<event>
 7    1  0.1427898E-010  0.4778727E+02  0.7816164E-02  0.1312668E+00
        -11   -1    0    0    0    0  0.00000000000E+00  0.00000000000E+00  0.45593999997E+02  0.45594000000E+02  0.51100000000E-03 0. -1.
         11   -1    0    0    0    0 -0.00000000000E+00 -0.00000000000E+00 -0.45593999997E+02  0.45594000000E+02  0.51100000000E-03 0.  1.
    9900012    2    1    2    0    0 -0.27876060643E+02 -0.31491236642E+02  0.10716824729E+02  0.47787273342E+02  0.20000010476E+02 0.  0.
        -12    1    1    2    0    0  0.27876060643E+02  0.31491236642E+02 -0.10716824729E+02  0.43400726658E+02  0.00000000000E+00 0.  1.
         11    1    3    3    0    0 -0.37315565408E+00 -0.45479570697E+01  0.56375336448E+01  0.72529266167E+01  0.51100000000E-03 0. -1.
        -11    1    3    3    0    0 -0.78507336071E+01 -0.94650398032E+01 -0.36432196538E+01  0.12825523239E+02  0.51100000000E-03 0.  1.
        -12    1    3    3    0    0 -0.19652171381E+02 -0.17478239769E+02  0.87225107384E+01  0.27708823486E+02  0.00000000000E+00 0.  1.
</event>
<event>
 7    1  0.1427898E-010  0.4778727E+02  0.7816164E-02  0.1312668E+00
        -11   -1    0    0    0    0  0.00000000000E+00  0.00000000000E+00  0.45593999997E+02  0.45594000000E+02  0.51100000000E-03 0.  1.
         11   -1    0    0    0    0 -0.00000000000E+00 -0.00000000000E+00 -0.45593999997E+02  0.45594000000E+02  0.51100000000E-03 0. -1.
    9900012    2    1    2    0    0  0.34684964275E+02  0.69605046023E+01 -0.25142156588E+02  0.47787269488E+02  0.19999992903E+02 0.  0.
        -12    1    1    2    0    0 -0.34684964275E+02 -0.69605046023E+01  0.25142156588E+02  0.43400730512E+02  0.00000000000E+00 0.  1.
         11    1    3    3    0    0 -0.49019900444E+00  0.21590807439E+01 -0.14569509942E+00  0.22188177135E+01  0.51100000000E-03 0. -1.
        -11    1    3    3    0    0  0.28051700596E+02  0.30649617304E+01 -0.12037090744E+02  0.30678713314E+02  0.51100000000E-03 0.  1.
         12    1    3    3    0    0  0.71234626831E+01  0.17364621279E+01 -0.12959370745E+02  0.14889738460E+02  0.00000000000E+00 0. -1.
</event>
<event>
 7    1  0.1427898E-010  0.4778727E+02  0.7816164E-02  0.1312668E+00
        -11   -1    0    0    0    0  0.00000000000E+00  0.00000000000E+00  0.45593999997E+02  0.45594000000E+02  0.51100000000E-03 0.  1.
         11   -1    0    0    0    0 -0.00000000000E+00 -0.00000000000E+00 -0.45593999997E+02  0.45594000000E+02  0.51100000000E-03 0. -1.
    9900012    2    1    2    0    0  0.37423141511E+02 -0.81110982473E+01  0.20428947293E+02  0.47787270481E+02  0.19999997429E+02 0.  0.
        -12    1    1    2    0    0 -0.37423141511E+02  0.81110982473E+01 -0.20428947293E+02  0.43400729519E+02  0.00000000000E+00 0.  1.
         11    1    3    3    0    0  0.13744982970E+02 -0.32360714765E+01  0.77767549893E+00  0.14142188476E+02  0.51100000000E-03 0. -1.
        -11    1    3    3    0    0  0.35451394393E+01 -0.13996557344E+01 -0.16288568028E+01  0.41449034444E+01  0.51100000000E-03 0.  1.
         12    1    3    3    0    0  0.20133019102E+02 -0.34753710364E+01  0.21280128597E+02  0.29500178561E+02  0.00000000000E+00 0. -1.
</event>
<event>
 7    1  0.1427898E-010  0.4778727E+02  0.7816164E-02  0.1312668E+00
        -11   -1    0    0    0    0  0.00000000000E+00  0.00000000000E+00  0.45593999997E+02  0.45594000000E+02  0.51100000000E-03 0. -1.
         11   -1    0    0    0    0 -0.00000000000E+00 -0.00000000000E+00 -0.45593999997E+02  0.45594000000E+02  0.51100000000E-03 0.  1.
    9900012    2    1    2    0    0  0.74952167687E+01 -0.25473826306E+02  0.34329711766E+02  0.47787271768E+02  0.20000003300E+02 0.  0.
        -12    1    1    2    0    0 -0.74952167687E+01  0.25473826306E+02 -0.34329711766E+02  0.43400728232E+02  0.00000000000E+00 0.  1.
         11    1    3    3    0    0 -0.26204740138E+01 -0.17720136566E+02  0.23752020471E+02  0.29749430258E+02  0.51100000000E-03 0. -1.
        -11    1    3    3    0    0  0.31594233489E+01 -0.60131291414E+01  0.25038301581E+01  0.72393952572E+01  0.51100000000E-03 0.  1.
        -12    1    3    3    0    0  0.69562674337E+01 -0.17405605985E+01  0.80738611376E+01  0.10798446253E+02  0.00000000000E+00 0.  1.
</event>
<event>
 7    1  0.1427898E-010  0.4778729E+02  0.7816164E-02  0.1312668E+00
        -11   -1    0    0    0    0  0.00000000000E+00  0.00000000000E+00  0.45593999997E+02  0.45594000000E+02  0.51100000000E-03 0.  1.
         11   -1    0    0    0    0 -0.00000000000E+00 -0.00000000000E+00 -0.45593999997E+02  0.45594000000E+02  0.51100000000E-03 0. -1.
    9900012    2    1    2    0    0 -0.16578029997E+02 -0.20963341498E+02 -0.34195454824E+02  0.47787286919E+02  0.20000072378E+02 0.  0.
        -12    1    1    2    0    0  0.16578029997E+02  0.20963341498E+02  0.34195454824E+02  0.43400713081E+02  0.00000000000E+00 0.  1.
         11    1    3    3    0    0 -0.10210597314E+02 -0.48505886943E+01 -0.23211386349E+02  0.25817687052E+02  0.51100000000E-03 0. -1.
        -11    1    3    3    0    0 -0.76919049476E+01 -0.10985135268E+02 -0.96103949681E+01  0.16498432964E+02  0.51100000000E-03 0.  1.
        -12    1    3    3    0    0  0.13244722650E+01 -0.51276175360E+01 -0.13736735065E+01  0.54711669029E+01  0.00000000000E+00 0.  1.
</event>
<event>
 7    1  0.1427898E-010  0.4778728E+02  0.7816164E-02  0.1312668E+00
        -11   -1    0    0    0    0  0.00000000000E+00  0.00000000000E+00  0.45593999997E+02  0.45594000000E+02  0.51100000000E-03 0.  1.
         11   -1    0    0    0    0 -0.00000000000E+00 -0.00000000000E+00 -0.45593999997E+02  0.45594000000E+02  0.51100000000E-03 0. -1.
    9900012    2    1    2    0    0  0.27710619391E+02  0.19257074865E+02 -0.27293027017E+02  0.47787277850E+02  0.20000031030E+02 0.  0.
        -12    1    1    2    0    0 -0.27710619391E+02 -0.19257074865E+02  0.27293027017E+02  0.43400722150E+02  0.00000000000E+00 0.  1.
         11    1    3    3    0    0  0.98077777484E+01  0.40868890973E+01 -0.45571283112E+01  0.11561253633E+02  0.51100000000E-03 0. -1.
        -11    1    3    3    0    0 -0.28799375864E+01  0.11711390405E+01 -0.31072197620E+01  0.43955002064E+01  0.51100000000E-03 0.  1.
        -12    1    3    3    0    0  0.20782779229E+02  0.13999046727E+02 -0.19628678944E+02  0.31830524011E+02  0.00000000000E+00 0.  1.
</event>
<event>
 7    1  0.1427898E-010  0.4778732E+02  0.7816164E-02  0.1312668E+00
        -11   -1    0    0    0    0  0.00000000000E+00  0.00000000000E+00  0.45593999997E+02  0.45594000000E+02  0.51100000000E-03 0.  1.
         11   -1    0    0    0    0 -0.00000000000E+00 -0.00000000000E+00 -0.45593999997E+02  0.45594000000E+02  0.51100000000E-03 0. -1.
    9900012    2    1    2    0    0 -0.18181918835E+02 -0.76115369389E+00 -0.39401232433E+02  0.47787324375E+02  0.20000243155E+02 0.  0.
        -12    1    1    2    0    0  0.18181918835E+02  0.76115369389E+00  0.39401232433E+02  0.43400675625E+02  0.00000000000E+00 0.  1.
         11    1    3    3    0    0 -0.40053863735E+01 -0.26385273187E+01 -0.18787744174E+02  0.19390314021E+02  0.51100000000E-03 0. -1.
        -11    1    3    3    0    0 -0.46003862738E+01  0.27920134415E+00  0.98846630909E+00  0.47136581510E+01  0.51100000000E-03 0.  1.
         12    1    3    3    0    0 -0.95761461879E+01  0.15981722806E+01 -0.21601954568E+02  0.23683352203E+02  0.00000000000E+00 0. -1.
</event>
<event>
 7    1  0.1427898E-010  0.4778727E+02  0.7816164E-02  0.1312668E+00
        -11   -1    0    0    0    0  0.00000000000E+00  0.00000000000E+00  0.45593999997E+02  0.45594000000E+02  0.51100000000E-03 0.  1.
         11   -1    0    0    0    0 -0.00000000000E+00 -0.00000000000E+00 -0.45593999997E+02  0.45594000000E+02  0.51100000000E-03 0. -1.
    9900012    2    1    2    0    0  0.27615874980E+02  0.31421959781E+02  0.11560577453E+02  0.47787273526E+02  0.20000011316E+02 0.  0.
        -12    1    1    2    0    0 -0.27615874980E+02 -0.31421959781E+02 -0.11560577453E+02  0.43400726474E+02  0.00000000000E+00 0.  1.
         11    1    3    3    0    0  0.51720348896E+01  0.61664121678E+01 -0.26048916631E+01  0.84593170386E+01  0.51100000000E-03 0. -1.
        -11    1    3    3    0    0  0.24001397423E+02  0.22241689484E+02  0.14736557046E+02  0.35887685119E+02  0.51100000000E-03 0.  1.
         12    1    3    3    0    0 -0.15575573325E+01  0.30138581295E+01 -0.57108792956E+00  0.34402713690E+01  0.00000000000E+00 0. -1.
</event>
<event>
 7    1  0.1427898E-010  0.4778726E+02  0.7816164E-02  0.1312668E+00
        -11   -1    0    0    0    0  0.00000000000E+00  0.00000000000E+00  0.45593999997E+02  0.45594000000E+02  0.51100000000E-03 0.  1.
         11   -1    0    0    0    0 -0.00000000000E+00 -0.00000000000E+00 -0.45593999997E+02  0.45594000000E+02  0.51100000000E-03 0. -1.
    9900012    2    1    2    0    0 -0.40353570638E+02  0.15161448082E+02 -0.50342826294E+01  0.47787260688E+02  0.19999952783E+02 0.  0.
        -12    1    1    2    0    0  0.40353570638E+02 -0.15161448082E+02  0.50342826294E+01  0.43400739312E+02  0.00000000000E+00 0.  1.
         11    1    3    3    0    0 -0.65549294026E+01 -0.22240276037E+01 -0.10980177586E+01  0.70084978073E+01  0.51100000000E-03 0. -1.
        -11    1    3    3    0    0 -0.26786733542E+01 -0.15434798577E+01 -0.30506964208E+01  0.43433132425E+01  0.51100000000E-03 0.  1.
         12    1    3    3    0    0 -0.31119967881E+02  0.18928955543E+02 -0.88556845004E+00  0.36435449639E+02  0.00000000000E+00 0. -1.
</event>
<event>
 7    1  0.1427898E-010  0.4778727E+02  0.7816164E-02  0.1312668E+00
        -11   -1    0    0    0    0  0.00000000000E+00  0.00000000000E+00  0.45593999997E+02  0.45594000000E+02  0.51100000000E-03 0.  1.
         11   -1    0    0    0    0 -0.00000000000E+00 -0.00000000000E+00 -0.45593999997E+02  0.45594000000E+02  0.51100000000E-03 0. -1.
    9900012    2    1    2    0    0 -0.21894822100E+02  0.19958712753E+02 -0.31715762970E+02  0.47787273390E+02  0.20000010693E+02 0.  0.
        -12    1    1    2    0    0  0.21894822100E+02 -0.19958712753E+02  0.31715762970E+02  0.43400726610E+02  0.00000000000E+00 0.  1.
         11    1    3    3    0    0 -0.12379518382E+02  0.91197827767E+01 -0.70793452193E+01  0.16927493679E+02  0.51100000000E-03 0. -1.
        -11    1    3    3    0    0  0.26658706381E+01  0.25948847735E+01 -0.34903568144E+01  0.51012630005E+01  0.51100000000E-03 0.  1.
        -12    1    3    3    0    0 -0.12181174356E+02  0.82440452031E+01 -0.21146060936E+02  0.25758516710E+02  0.00000000000E+00 0.  1.
</event>
<event>
 7    1  0.1476545E-010  0.4778727E+02  0.7816164E-02  0.1312668E+00
        -11   -1    0    0    0    0  0.00000000000E+00  0.00000000000E+00  0.45593999997E+02  0.45594000000E+02  0.51100000000E-03 0. -1.
         11   -1    0    0    0    0 -0.00000000000E+00 -0.00000000000E+00 -0.45593999997E+02  0.45594000000E+02  0.51100000000E-03 0.  1.
    9900012    2    1    2    0    0  0.30629154072E+02 -0.16943568728E+02  0.25659186844E+02  0.47787268786E+02  0.19999989704E+02 0.  0.
        -12    1    1    2    0    0 -0.30629154072E+02  0.16943568728E+02 -0.25659186844E+02  0.43400731214E+02  0.00000000000E+00 0.  1.
         11    1    3    3    0    0  0.18076769381E+02 -0.11687035965E+02  0.92943149517E+01  0.23446549673E+02  0.51100000000E-03 0. -1.
        -11    1    3    3    0    0  0.16378533072E+01  0.14049824271E+01 -0.13108193951E+01  0.25248340191E+01  0.51100000000E-03 0.  1.
         12    1    3    3    0    0  0.10914531384E+02 -0.66615151898E+01  0.17675691287E+02  0.21815885094E+02  0.00000000000E+00 0. -1.
</event>
<event>
 7    1  0.1427898E-010  0.4778726E+02  0.7816164E-02  0.1312668E+00
        -11   -1    0    0    0    0  0.00000000000E+00  0.00000000000E+00  0.45593999997E+02  0.45594000000E+02  0.51100000000E-03 0.  1.
         11   -1    0    0    0    0 -0.00000000000E+00 -0.00000000000E+00 -0.45593999997E+02  0.45594000000E+02  0.51100000000E-03 0. -1.
    9900012    2    1    2    0    0 -0.30085393200E+02  0.31261832731E+02  0.10914014687E+01  0.47787260065E+02  0.19999949943E+02 0.  0.
        -12    1    1    2    0    0  0.30085393200E+02 -0.31261832731E+02 -0.10914014687E+01  0.43400739935E+02  0.00000000000E+00 0.  1.
         11    1    3    3    0    0 -0.15910463583E+01  0.87473922319E+01 -0.21034615331E+01  0.91363477416E+01  0.51100000000E-03 0. -1.
        -11    1    3    3    0    0 -0.24064803652E+01 -0.10896738594E+01 -0.16840519607E+01  0.31328211145E+01  0.51100000000E-03 0.  1.
        -12    1    3    3    0    0 -0.26087866477E+02  0.23604114359E+02  0.48789149626E+01  0.35518091209E+02  0.00000000000E+00 0.  1.
</event>
<event>
 7    1  0.1427898E-010  0.4778727E+02  0.7816164E-02  0.1312668E+00
        -11   -1    0    0    0    0  0.00000000000E+00  0.00000000000E+00  0.45593999997E+02  0.45594000000E+02  0.51100000000E-03 0.  1.
         11   -1    0    0    0    0 -0.00000000000E+00 -0.00000000000E+00 -0.45593999997E+02  0.45594000000E+02  0.51100000000E-03 0. -1.
    9900012    2    1    2    0    0 -0.23665888970E+02 -0.18401698766E+02 -0.31383538753E+02  0.47787270480E+02  0.19999997425E+02 0.  0.
        -12    1    1    2    0    0  0.23665888970E+02  0.18401698766E+02  0.31383538753E+02  0.43400729520E+02  0.00000000000E+00 0.  1.
         11    1    3    3    0    0 -0.18643268726E+02 -0.15915388319E+02 -0.18648937050E+02  0.30800225770E+02  0.51100000000E-03 0. -1.
        -11    1    3    3    0    0  0.90279348224E+00 -0.26357379158E+01  0.16487836440E+00  0.27909381162E+01  0.51100000000E-03 0.  1.
         12    1    3    3    0    0 -0.59254137265E+01  0.14942746833E+00 -0.12899480067E+02  0.14196106593E+02  0.00000000000E+00 0. -1.
</event>
<event>
 7    1  0.1427898E-010  0.4778727E+02  0.7816164E-02  0.1312668E+00
        -11   -1    0    0    0    0  0.00000000000E+00  0.00000000000E+00  0.45593999997E+02  0.45594000000E+02  0.51100000000E-03 0.  1.
         11   -1    0    0    0    0 -0.00000000000E+00 -0.00000000000E+00 -0.45593999997E+02  0.45594000000E+02  0.51100000000E-03 0. -1.
    9900012    2    1    2    0    0  0.21406155261E+02  0.26481251039E+02 -0.26909906448E+02  0.47787271842E+02  0.20000003636E+02 0.  0.
        -12    1    1    2    0    0 -0.21406155261E+02 -0.26481251039E+02  0.26909906448E+02  0.43400728158E+02  0.00000000000E+00 0.  1.
         11    1    3    3    0    0  0.16681618617E+02  0.13332466717E+02 -0.23500727115E+02  0.31753979965E+02  0.51100000000E-03 0. -1.
        -11    1    3    3    0    0  0.40161689758E+00 -0.45954495739E+00  0.92794830335E+00  0.11106601708E+01  0.51100000000E-03 0.  1.
         12    1    3    3    0    0  0.43229197467E+01  0.13608329279E+02 -0.43371276366E+01  0.14922631706E+02  0.00000000000E+00 0. -1.
</event>
<event>
 7    1  0.1427898E-010  0.4778727E+02  0.7816164E-02  0.1312668E+00
        -11   -1    0    0    0    0  0.00000000000E+00  0.00000000000E+00  0.45593999997E+02  0.45594000000E+02  0.51100000000E-03 0.  1.
         11   -1    0    0    0    0 -0.00000000000E+00 -0.00000000000E+00 -0.45593999997E+02  0.45594000000E+02  0.51100000000E-03 0. -1.
    9900012    2    1    2    0    0  0.14561143116E+02  0.36308207107E+02 -0.18796566141E+02  0.47787266240E+02  0.19999978097E+02 0.  0.
        -12    1    1    2    0    0 -0.14561143116E+02 -0.36308207107E+02  0.18796566141E+02  0.43400733760E+02  0.00000000000E+00 0.  1.
         11    1    3    3    0    0 -0.62409476949E+00  0.68341187055E+01 -0.86044648477E+01  0.11005975120E+02  0.51100000000E-03 0. -1.
        -11    1    3    3    0    0  0.10620635127E+02  0.25989657974E+02 -0.12316074456E+02  0.30658537186E+02  0.51100000000E-03 0.  1.
         12    1    3    3    0    0  0.45646027592E+01  0.34844304273E+01  0.21239731625E+01  0.61227539349E+01  0.00000000000E+00 0. -1.
</event>
<event>
 7    1  0.1427898E-010  0.4778727E+02  0.7816164E-02  0.1312668E+00
        -11   -1    0    0    0    0  0.00000000000E+00  0.00000000000E+00  0.45593999997E+02  0.45594000000E+02  0.51100000000E-03 0.  1.
         11   -1    0    0    0    0 -0.00000000000E+00 -0.00000000000E+00 -0.45593999997E+02  0.45594000000E+02  0.51100000000E-03 0. -1.
    9900012    2    1    2    0    0  0.47024236849E+01  0.25068147219E+02 -0.35115499844E+02  0.47787272785E+02  0.20000007936E+02 0.  0.
        -12    1    1    2    0    0 -0.47024236849E+01 -0.25068147219E+02  0.35115499844E+02  0.43400727215E+02  0.00000000000E+00 0.  1.
         11    1    3    3    0    0 -0.14004450912E+01 -0.15513622035E+01 -0.43414744060E+01  0.48183369972E+01  0.51100000000E-03 0. -1.
        -11    1    3    3    0    0  0.24500242141E+01  0.12570078311E+02 -0.57479538625E+01  0.14037395102E+02  0.51100000000E-03 0.  1.
        -12    1    3    3    0    0  0.36528445620E+01  0.14049431112E+02 -0.25026071575E+02  0.28931540686E+02  0.00000000000E+00 0.  1.
</event>
<event>
 7    1  0.1427898E-010  0.4778727E+02  0.7816164E-02  0.1312668E+00
        -11   -1    0    0    0    0  0.00000000000E+00  0.00000000000E+00  0.45593999997E+02  0.45594000000E+02  0.51100000000E-03 0.  1.
         11   -1    0    0    0    0 -0.00000000000E+00 -0.00000000000E+00 -0.45593999997E+02  0.45594000000E+02  0.51100000000E-03 0. -1.
    9900012    2    1    2    0    0 -0.12184399305E+02 -0.20285643510E+02 -0.36382087457E+02  0.47787271818E+02  0.20000003526E+02 0.  0.
        -12    1    1    2    0    0  0.12184399305E+02  0.20285643510E+02  0.36382087457E+02  0.43400728182E+02  0.00000000000E+00 0.  1.
         11    1    3    3    0    0 -0.88565880241E+01 -0.86456323195E+01 -0.31343972864E+02  0.33699120831E+02  0.51100000000E-03 0. -1.
        -11    1    3    3    0    0  0.10475658017E+01 -0.49984023003E+00 -0.71208689398E+00  0.13617277152E+01  0.51100000000E-03 0.  1.
        -12    1    3    3    0    0 -0.43753770825E+01 -0.11140170960E+02 -0.43260276990E+01  0.12726423272E+02  0.00000000000E+00 0.  1.
</event>
<event>
 7    1  0.1427898E-010  0.4778727E+02  0.7816164E-02  0.1312668E+00
        -11   -1    0    0    0    0  0.00000000000E+00  0.00000000000E+00  0.45593999997E+02  0.45594000000E+02  0.51100000000E-03 0.  1.
         11   -1    0    0    0    0 -0.00000000000E+00 -0.00000000000E+00 -0.45593999997E+02  0.45594000000E+02  0.51100000000E-03 0. -1.
    9900012    2    1    2    0    0  0.24459979524E+02 -0.31260686338E+01 -0.35714987512E+02  0.47787271476E+02  0.20000001967E+02 0.  0.
        -12    1    1    2    0    0 -0.24459979524E+02  0.31260686338E+01  0.35714987512E+02  0.43400728524E+02  0.00000000000E+00 0.  1.
         11    1    3    3    0    0  0.90375956231E+01 -0.38434498122E+00 -0.77237075869E+01  0.11894600240E+02  0.51100000000E-03 0. -1.
        -11    1    3    3    0    0  0.30847545693E+01 -0.81637325622E+01 -0.13750675981E+02  0.16286292712E+02  0.51100000000E-03 0.  1.
         12    1    3    3    0    0  0.12337629332E+02  0.54220089097E+01 -0.14240603945E+02  0.19606378525E+02  0.00000000000E+00 0. -1.
</event>
<event>
 7    1  0.1427898E-010  0.4778727E+02  0.7816164E-02  0.1312668E+00
        -11   -1    0    0    0    0  0.00000000000E+00  0.00000000000E+00  0.45593999997E+02  0.45594000000E+02  0.51100000000E-03 0. -1.
         11   -1    0    0    0    0 -0.00000000000E+00 -0.00000000000E+00 -0.45593999997E+02  0.45594000000E+02  0.51100000000E-03 0.  1.
    9900012    2    1    2    0    0 -0.12327103704E+02  0.15495033363E+01  0.41584432844E+02  0.47787268424E+02  0.19999988054E+02 0.  0.
        -12    1    1    2    0    0  0.12327103704E+02 -0.15495033363E+01 -0.41584432844E+02  0.43400731576E+02  0.00000000000E+00 0.  1.
         11    1    3    3    0    0 -0.13681373790E+00  0.64067663128E-01  0.15857077536E+02  0.15857797164E+02  0.51100000000E-03 0. -1.
        -11    1    3    3    0    0 -0.57832658317E+01 -0.52893689226E+01  0.52619448709E+01  0.94398967878E+01  0.51100000000E-03 0.  1.
        -12    1    3    3    0    0 -0.64070241343E+01  0.67748045958E+01  0.20465410438E+02  0.22489574472E+02  0.00000000000E+00 0.  1.
</event>
<event>
 7    1  0.1427898E-010  0.4778727E+02  0.7816164E-02  0.1312668E+00
        -11   -1    0    0    0    0  0.00000000000E+00  0.00000000000E+00  0.45593999997E+02  0.45594000000E+02  0.51100000000E-03 0. -1.
         11   -1    0    0    0    0 -0.00000000000E+00 -0.00000000000E+00 -0.45593999997E+02  0.45594000000E+02  0.51100000000E-03 0.  1.
    9900012    2    1    2    0    0 -0.37158870296E+01  0.30242194350E+02  0.30906718410E+02  0.47787269841E+02  0.19999994511E+02 0.  0.
        -12    1    1    2    0    0  0.37158870296E+01 -0.30242194350E+02 -0.30906718410E+02  0.43400730159E+02  0.00000000000E+00 0.  1.
         11    1    3    3    0    0 -0.96632788426E+01  0.16844137134E+02  0.90945759049E+01  0.21443302566E+02  0.51100000000E-03 0.  1.
        -11    1    3    3    0    0  0.21171148706E+01  0.67708232313E+01  0.11245990104E+02  0.13296560318E+02  0.51100000000E-03 0. -1.
        -12    1    3    3    0    0  0.38302769425E+01  0.66272339849E+01  0.10566152401E+02  0.13047406957E+02  0.00000000000E+00 0.  1.
</event>
<event>
 7    1  0.1427898E-010  0.4778727E+02  0.7816164E-02  0.1312668E+00
        -11   -1    0    0    0    0  0.00000000000E+00  0.00000000000E+00  0.45593999997E+02  0.45594000000E+02  0.51100000000E-03 0. -1.
         11   -1    0    0    0    0 -0.00000000000E+00 -0.00000000000E+00 -0.45593999997E+02  0.45594000000E+02  0.51100000000E-03 0.  1.
    9900012    2    1    2    0    0 -0.22780135802E+02  0.57223192737E+01  0.36495805794E+02  0.47787269988E+02  0.19999995183E+02 0.  0.
        -12    1    1    2    0    0  0.22780135802E+02 -0.57223192737E+01 -0.36495805794E+02  0.43400730012E+02  0.00000000000E+00 0.  1.
         11    1    3    3    0    0 -0.10259956905E+02  0.38579115926E+01  0.17664602817E+02  0.20789141168E+02  0.51100000000E-03 0. -1.
        -11    1    3    3    0    0 -0.69780520210E+01  0.51038570436E+01  0.18459355540E+01  0.88402514138E+01  0.51100000000E-03 0.  1.
        -12    1    3    3    0    0 -0.55421268760E+01 -0.32394493625E+01  0.16985267423E+02  0.18157877406E+02  0.00000000000E+00 0.  1.
</event>
<event>
 7    1  0.1427898E-010  0.4778727E+02  0.7816164E-02  0.1312668E+00
        -11   -1    0    0    0    0  0.00000000000E+00  0.00000000000E+00  0.45593999997E+02  0.45594000000E+02  0.51100000000E-03 0.  1.
         11   -1    0    0    0    0 -0.00000000000E+00 -0.00000000000E+00 -0.45593999997E+02  0.45594000000E+02  0.51100000000E-03 0. -1.
    9900012    2    1    2    0    0 -0.28896247270E+02  0.31363897560E+02 -0.80582967490E+01  0.47787270479E+02  0.19999997422E+02 0.  0.
        -12    1    1    2    0    0  0.28896247270E+02 -0.31363897560E+02  0.80582967490E+01  0.43400729521E+02  0.00000000000E+00 0.  1.
         11    1    3    3    0    0 -0.15414154123E+02  0.27741559133E+02 -0.10525284294E+02  0.33436086197E+02  0.51100000000E-03 0. -1.
        -11    1    3    3    0    0 -0.29841910987E+01  0.64912185025E-01  0.11079938139E+01  0.31839065090E+01  0.51100000000E-03 0.  1.
         12    1    3    3    0    0 -0.10497902049E+02  0.35574262422E+01  0.13589937311E+01  0.11167277773E+02  0.00000000000E+00 0. -1.
</event>
<event>
 7    1  0.1427898E-010  0.4778727E+02  0.7816164E-02  0.1312668E+00
        -11   -1    0    0    0    0  0.00000000000E+00  0.00000000000E+00  0.45593999997E+02  0.45594000000E+02  0.51100000000E-03 0. -1.
         11   -1    0    0    0    0 -0.00000000000E+00 -0.00000000000E+00 -0.45593999997E+02  0.45594000000E+02  0.51100000000E-03 0.  1.
    9900012    2    1    2    0    0 -0.22577644026E+01 -0.25537073419E+02  0.35019762361E+02  0.47787269883E+02  0.19999994703E+02 0.  0.
        -12    1    1    2    0    0  0.22577644026E+01  0.25537073419E+02 -0.35019762361E+02  0.43400730117E+02  0.00000000000E+00 0.  1.
         11    1    3    3    0    0  0.47151077992E+01 -0.21272669139E+02  0.18921823345E+02  0.28858172028E+02  0.51100000000E-03 0. -1.
        -11    1    3    3    0    0 -0.11145650073E+01 -0.16530336381E+01  0.95774015013E+01  0.97827089879E+01  0.51100000000E-03 0.  1.
        -12    1    3    3    0    0 -0.58583071945E+01 -0.26113706415E+01  0.65205375151E+01  0.91463888666E+01  0.00000000000E+00 0.  1.
</event>
<event>
 7    1  0.1427898E-010  0.4778727E+02  0.7816164E-02  0.1312668E+00
        -11   -1    0    0    0    0  0.00000000000E+00  0.00000000000E+00  0.45593999997E+02  0.45594000000E+02  0.51100000000E-03 0.  1.
         11   -1    0    0    0    0 -0.00000000000E+00 -0.00000000000E+00 -0.45593999997E+02  0.45594000000E+02  0.51100000000E-03 0. -1.
    9900012    2    1    2    0    0 -0.64424421747E+01  0.14476391101E+02 -0.40404853594E+02  0.47787272420E+02  0.20000006272E+02 0.  0.
        -12    1    1    2    0    0  0.64424421747E+01 -0.14476391101E+02  0.40404853594E+02  0.43400727580E+02  0.00000000000E+00 0.  1.
         11    1    3    3    0    0 -0.54144695864E+00  0.30649753632E+01 -0.17070489066E+02  0.17351911595E+02  0.51100000000E-03 0. -1.
        -11    1    3    3    0    0  0.67997900318E+00  0.29327115033E+00  0.19255800081E+01  0.20630652052E+01  0.51100000000E-03 0.  1.
        -12    1    3    3    0    0 -0.65809742192E+01  0.11118144588E+02 -0.25259944537E+02  0.28372295620E+02  0.00000000000E+00 0.  1.
</event>
<event>
 7    1  0.1427898E-010  0.4778727E+02  0.7816164E-02  0.1312668E+00
        -11   -1    0    0    0    0  0.00000000000E+00  0.00000000000E+00  0.45593999997E+02  0.45594000000E+02  0.51100000000E-03 0.  1.
         11   -1    0    0    0    0 -0.00000000000E+00 -0.00000000000E+00 -0.45593999997E+02  0.45594000000E+02  0.51100000000E-03 0. -1.
    9900012    2    1    2    0    0 -0.24879377566E+01 -0.21198744790E+02 -0.37789506730E+02  0.47787269202E+02  0.19999991600E+02 0.  0.
        -12    1    1    2    0    0  0.24879377566E+01  0.21198744790E+02  0.37789506730E+02  0.43400730798E+02  0.00000000000E+00 0.  1.
         11    1    3    3    0    0 -0.58571114638E+01 -0.15379550440E+02 -0.27717661093E+02  0.32235152600E+02  0.51100000000E-03 0. -1.
        -11    1    3    3    0    0 -0.16764884525E+01 -0.17884624708E+01  0.10694226130E+01  0.26744862174E+01  0.51100000000E-03 0.  1.
        -12    1    3    3    0    0  0.50456621597E+01 -0.40307318788E+01 -0.11141268250E+02  0.12877630385E+02  0.00000000000E+00 0.  1.
</event>
<event>
 7    1  0.1427898E-010  0.4778727E+02  0.7816164E-02  0.1312668E+00
        -11   -1    0    0    0    0  0.00000000000E+00  0.00000000000E+00  0.45593999997E+02  0.45594000000E+02  0.51100000000E-03 0. -1.
         11   -1    0    0    0    0 -0.00000000000E+00 -0.00000000000E+00 -0.45593999997E+02  0.45594000000E+02  0.51100000000E-03 0.  1.
    9900012    2    1    2    0    0 -0.84353839225E+01  0.18161985726E+02  0.38504676192E+02  0.47787268254E+02  0.19999987278E+02 0.  0.
        -12    1    1    2    0    0  0.84353839225E+01 -0.18161985726E+02 -0.38504676192E+02  0.43400731746E+02  0.00000000000E+00 0.  1.
         11    1    3    3    0    0 -0.83998772213E+01  0.29126872322E+01  0.16047760092E+02  0.18345906587E+02  0.51100000000E-03 0. -1.
        -11    1    3    3    0    0 -0.56834917421E+01  0.85836580861E+01  0.11735918356E+02  0.15611311426E+02  0.51100000000E-03 0.  1.
        -12    1    3    3    0    0  0.56479850409E+01  0.66656404077E+01  0.10720997743E+02  0.13830050241E+02  0.00000000000E+00 0.  1.
</event>
<event>
 7    1  0.1427898E-010  0.4778727E+02  0.7816164E-02  0.1312668E+00
        -11   -1    0    0    0    0  0.00000000000E+00  0.00000000000E+00  0.45593999997E+02  0.45594000000E+02  0.51100000000E-03 0.  1.
         11   -1    0    0    0    0 -0.00000000000E+00 -0.00000000000E+00 -0.45593999997E+02  0.45594000000E+02  0.51100000000E-03 0. -1.
    9900012    2    1    2    0    0 -0.29274293169E+02  0.64448919198E+01 -0.31386341077E+02  0.47787270990E+02  0.19999999753E+02 0.  0.
        -12    1    1    2    0    0  0.29274293169E+02 -0.64448919198E+01  0.31386341077E+02  0.43400729010E+02  0.00000000000E+00 0.  1.
         11    1    3    3    0    0 -0.13669919006E+02  0.96485411263E+01 -0.12126296142E+02  0.20664174068E+02  0.51100000000E-03 0. -1.
        -11    1    3    3    0    0  0.54142628705E+00 -0.19309948544E+01 -0.62653549268E-01  0.20064419455E+01  0.51100000000E-03 0.  1.
        -12    1    3    3    0    0 -0.16145800449E+02 -0.12726543521E+01 -0.19197391385E+02  0.25116654977E+02  0.00000000000E+00 0.  1.
</event>
<event>
 7    1  0.1427898E-010  0.4778727E+02  0.7816164E-02  0.1312668E+00
        -11   -1    0    0    0    0  0.00000000000E+00  0.00000000000E+00  0.45593999997E+02  0.45594000000E+02  0.51100000000E-03 0. -1.
         11   -1    0    0    0    0 -0.00000000000E+00 -0.00000000000E+00 -0.45593999997E+02  0.45594000000E+02  0.51100000000E-03 0.  1.
    9900012    2    1    2    0    0  0.19026925737E+02 -0.30833000129E+02  0.23894044903E+02  0.47787272105E+02  0.20000004836E+02 0.  0.
        -12    1    1    2    0    0 -0.19026925737E+02  0.30833000129E+02 -0.23894044903E+02  0.43400727895E+02  0.00000000000E+00 0.  1.
         11    1    3    3    0    0  0.87005243132E+01 -0.14344831177E+02  0.12676906990E+02  0.21028011697E+02  0.51100000000E-03 0. -1.
        -11    1    3    3    0    0  0.70754546317E+01 -0.23117792111E+00  0.67236384658E+00  0.71110881643E+01  0.51100000000E-03 0.  1.
        -12    1    3    3    0    0  0.32509467926E+01 -0.16256991031E+02  0.10544774066E+02  0.19648172244E+02  0.00000000000E+00 0.  1.
</event>
<event>
 7    1  0.1427898E-010  0.4778728E+02  0.7816164E-02  0.1312668E+00
        -11   -1    0    0    0    0  0.00000000000E+00  0.00000000000E+00  0.45593999997E+02  0.45594000000E+02  0.51100000000E-03 0.  1.
         11   -1    0    0    0    0 -0.00000000000E+00 -0.00000000000E+00 -0.45593999997E+02  0.45594000000E+02  0.51100000000E-03 0. -1.
    9900012    2    1    2    0    0  0.37131947342E+02 -0.68142870533E+01 -0.21410438926E+02  0.47787275162E+02  0.20000018774E+02 0.  0.
        -12    1    1    2    0    0 -0.37131947342E+02  0.68142870533E+01  0.21410438926E+02  0.43400724838E+02  0.00000000000E+00 0.  1.
         11    1    3    3    0    0  0.21540269327E+02  0.55684968733E+01 -0.10414925195E+02  0.24565464115E+02  0.51100000000E-03 0. -1.
        -11    1    3    3    0    0  0.29986079641E+01 -0.47301268564E+01 -0.41666084740E+01  0.69804280841E+01  0.51100000000E-03 0.  1.
        -12    1    3    3    0    0  0.12593070051E+02 -0.76526570702E+01 -0.68289052572E+01  0.16241382963E+02  0.00000000000E+00 0.  1.
</event>
<event>
 7    1  0.1427898E-010  0.4778727E+02  0.7816164E-02  0.1312668E+00
        -11   -1    0    0    0    0  0.00000000000E+00  0.00000000000E+00  0.45593999997E+02  0.45594000000E+02  0.51100000000E-03 0. -1.
         11   -1    0    0    0    0 -0.00000000000E+00 -0.00000000000E+00 -0.45593999997E+02  0.45594000000E+02  0.51100000000E-03 0.  1.
    9900012    2    1    2    0    0 -0.35602934796E+01 -0.48570310772E+00  0.43251723874E+02  0.47787271720E+02  0.20000003081E+02 0.  0.
        -12    1    1    2    0    0  0.35602934796E+01  0.48570310772E+00 -0.43251723874E+02  0.43400728280E+02  0.00000000000E+00 0.  1.
         11    1    3    3    0    0  0.18587159753E+01  0.40477336208E+01  0.77289847227E+01  0.89205480575E+01  0.51100000000E-03 0.  1.
        -11    1    3    3    0    0 -0.86718581622E+01 -0.85897998285E+00  0.30970115021E+02  0.32172767915E+02  0.51100000000E-03 0. -1.
         12    1    3    3    0    0  0.32528487072E+01 -0.36744567457E+01  0.45526241297E+01  0.66939557478E+01  0.00000000000E+00 0. -1.
</event>
<event>
 7    1  0.1427898E-010  0.4778727E+02  0.7816164E-02  0.1312668E+00
        -11   -1    0    0    0    0  0.00000000000E+00  0.00000000000E+00  0.45593999997E+02  0.45594000000E+02  0.51100000000E-03 0.  1.
         11   -1    0    0    0    0 -0.00000000000E+00 -0.00000000000E+00 -0.45593999997E+02  0.45594000000E+02  0.51100000000E-03 0. -1.
    9900012    2    1    2    0    0  0.25730254928E+02  0.18896352068E+01 -0.34899951622E+02  0.47787270017E+02  0.19999995315E+02 0.  0.
        -12    1    1    2    0    0 -0.25730254928E+02 -0.18896352068E+01  0.34899951622E+02  0.43400729983E+02  0.00000000000E+00 0.  1.
         11    1    3    3    0    0  0.25617263116E+02  0.23198113951E+01 -0.24734297193E+02  0.35684886890E+02  0.51100000000E-03 0. -1.
        -11    1    3    3    0    0  0.18315774601E+01 -0.45795866251E+00 -0.10209914416E+02  0.10383003167E+02  0.51100000000E-03 0.  1.
        -12    1    3    3    0    0 -0.17185856488E+01  0.27782474162E-01  0.44259987032E-01  0.17193799593E+01  0.00000000000E+00 0.  1.
</event>
<event>
 7    1  0.1427898E-010  0.4778727E+02  0.7816164E-02  0.1312668E+00
        -11   -1    0    0    0    0  0.00000000000E+00  0.00000000000E+00  0.45593999997E+02  0.45594000000E+02  0.51100000000E-03 0.  1.
         11   -1    0    0    0    0 -0.00000000000E+00 -0.00000000000E+00 -0.45593999997E+02  0.45594000000E+02  0.51100000000E-03 0. -1.
    9900012    2    1    2    0    0  0.44695842487E+01  0.32902143816E+01 -0.43044405663E+02  0.47787267830E+02  0.19999985344E+02 0.  0.
        -12    1    1    2    0    0 -0.44695842487E+01 -0.32902143816E+01  0.43044405663E+02  0.43400732170E+02  0.00000000000E+00 0.  1.
         11    1    3    3    0    0  0.32039572005E+01  0.22292582587E+01 -0.24178031641E-01  0.39032702911E+01  0.51100000000E-03 0.  1.
        -11    1    3    3    0    0  0.41666573332E+01  0.29589882951E+01 -0.22508009902E+02  0.23080882892E+02  0.51100000000E-03 0. -1.
        -12    1    3    3    0    0 -0.29010302850E+01 -0.18980321723E+01 -0.20512217729E+02  0.20803114646E+02  0.00000000000E+00 0.  1.
</event>
<event>
 7    1  0.1427898E-010  0.4778727E+02  0.7816164E-02  0.1312668E+00
        -11   -1    0    0    0    0  0.00000000000E+00  0.00000000000E+00  0.45593999997E+02  0.45594000000E+02  0.51100000000E-03 0.  1.
         11   -1    0    0    0    0 -0.00000000000E+00 -0.00000000000E+00 -0.45593999997E+02  0.45594000000E+02  0.51100000000E-03 0. -1.
    9900012    2    1    2    0    0  0.13488629848E+02  0.15415712781E+02 -0.38262722161E+02  0.47787271402E+02  0.20000001629E+02 0.  0.
        -12    1    1    2    0    0 -0.13488629848E+02 -0.15415712781E+02  0.38262722161E+02  0.43400728598E+02  0.00000000000E+00 0.  1.
         11    1    3    3    0    0  0.34027298866E+01  0.63581539215E+01 -0.22948543629E+02  0.24054944334E+02  0.51100000000E-03 0. -1.
        -11    1    3    3    0    0  0.92526208391E+01  0.11942594880E+02 -0.13174506381E+02  0.20045053841E+02  0.51100000000E-03 0.  1.
        -12    1    3    3    0    0  0.83327912216E+00 -0.28850360202E+01 -0.21396721515E+01  0.36872732268E+01  0.00000000000E+00 0.  1.
</event>
<event>
 7    1  0.1427898E-010  0.4778727E+02  0.7816164E-02  0.1312668E+00
        -11   -1    0    0    0    0  0.00000000000E+00  0.00000000000E+00  0.45593999997E+02  0.45594000000E+02  0.51100000000E-03 0.  1.
         11   -1    0    0    0    0 -0.00000000000E+00 -0.00000000000E+00 -0.45593999997E+02  0.45594000000E+02  0.51100000000E-03 0. -1.
    9900012    2    1    2    0    0 -0.67070630864E+01 -0.30250279427E+00 -0.42878282798E+02  0.47787270295E+02  0.19999996585E+02 0.  0.
        -12    1    1    2    0    0  0.67070630864E+01  0.30250279427E+00  0.42878282798E+02  0.43400729705E+02  0.00000000000E+00 0.  1.
         11    1    3    3    0    0 -0.78721827550E+01 -0.35202651514E+01 -0.94962851086E+01  0.12827429953E+02  0.51100000000E-03 0. -1.
        -11    1    3    3    0    0 -0.34651299112E+01  0.38802245090E+01 -0.12117709196E+02  0.13187196213E+02  0.51100000000E-03 0.  1.
        -12    1    3    3    0    0  0.46302495798E+01 -0.66246215186E+00 -0.21264288493E+02  0.21772644130E+02  0.00000000000E+00 0.  1.
</event>
<event>
 7    1  0.1427898E-010  0.4778727E+02  0.7816164E-02  0.1312668E+00
        -11   -1    0    0    0    0  0.00000000000E+00  0.00000000000E+00  0.45593999997E+02  0.45594000000E+02  0.51100000000E-03 0.  1.
         11   -1    0    0    0    0 -0.00000000000E+00 -0.00000000000E+00 -0.45593999997E+02  0.45594000000E+02  0.51100000000E-03 0. -1.
    9900012    2    1    2    0    0  0.11323921328E+02  0.19126882100E+02 -0.37276729123E+02  0.47787270200E+02  0.19999996148E+02 0.  0.
        -12    1    1    2    0    0 -0.11323921328E+02 -0.19126882100E+02  0.37276729123E+02  0.43400729800E+02  0.00000000000E+00 0.  1.
         11    1    3    3    0    0 -0.35702764391E+01  0.65269996159E+01 -0.12647767168E+02  0.14673602572E+02  0.51100000000E-03 0. -1.
        -11    1    3    3    0    0  0.68592267495E+01  0.27043394906E+01 -0.16291482964E+02  0.17882249890E+02  0.51100000000E-03 0.  1.
         12    1    3    3    0    0  0.80349710174E+01  0.98955429939E+01 -0.83374789907E+01  0.15231417738E+02  0.00000000000E+00 0. -1.
</event>
<event>
 7    1  0.1427898E-010  0.4778727E+02  0.7816164E-02  0.1312668E+00
        -11   -1    0    0    0    0  0.00000000000E+00  0.00000000000E+00  0.45593999997E+02  0.45594000000E+02  0.51100000000E-03 0.  1.
         11   -1    0    0    0    0 -0.00000000000E+00 -0.00000000000E+00 -0.45593999997E+02  0.45594000000E+02  0.51100000000E-03 0. -1.
    9900012    2    1    2    0    0  0.31775811559E+02  0.11289681664E+02 -0.27321495813E+02  0.47787271368E+02  0.20000001477E+02 0.  0.
        -12    1    1    2    0    0 -0.31775811559E+02 -0.11289681664E+02  0.27321495813E+02  0.43400728632E+02  0.00000000000E+00 0.  1.
         11    1    3    3    0    0  0.69978912745E+01  0.81508552809E+01 -0.10231796785E+02  0.14835652659E+02  0.51100000000E-03 0. -1.
        -11    1    3    3    0    0  0.29426377344E+01  0.35801295743E+01 -0.81042049774E+01  0.93356619038E+01  0.51100000000E-03 0.  1.
        -12    1    3    3    0    0  0.21835282550E+02 -0.44130319090E+00 -0.89854940509E+01  0.23615956806E+02  0.00000000000E+00 0.  1.
</event>
<event>
 7    1  0.1427898E-010  0.4778727E+02  0.7816164E-02  0.1312668E+00
        -11   -1    0    0    0    0  0.00000000000E+00  0.00000000000E+00  0.45593999997E+02  0.45594000000E+02  0.51100000000E-03 0.  1.
         11   -1    0    0    0    0 -0.00000000000E+00 -0.00000000000E+00 -0.45593999997E+02  0.45594000000E+02  0.51100000000E-03 0. -1.
    9900012    2    1    2    0    0  0.16668402134E+02  0.34107416416E+02 -0.21035013787E+02  0.47787270867E+02  0.19999999191E+02 0.  0.
        -12    1    1    2    0    0 -0.16668402134E+02 -0.34107416416E+02  0.21035013787E+02  0.43400729133E+02  0.00000000000E+00 0.  1.
         11    1    3    3    0    0  0.47237024511E+01  0.20450977441E+01 -0.49611996250E+00  0.51712595088E+01  0.51100000000E-03 0. -1.
        -11    1    3    3    0    0 -0.16204691749E+01  0.16400224761E+02 -0.72760538595E+01  0.18014834237E+02  0.51100000000E-03 0.  1.
        -12    1    3    3    0    0  0.13565168858E+02  0.15662093910E+02 -0.13262839965E+02  0.24601177121E+02  0.00000000000E+00 0.  1.
</event>
<event>
 7    1  0.1427898E-010  0.4778727E+02  0.7816164E-02  0.1312668E+00
        -11   -1    0    0    0    0  0.00000000000E+00  0.00000000000E+00  0.45593999997E+02  0.45594000000E+02  0.51100000000E-03 0.  1.
         11   -1    0    0    0    0 -0.00000000000E+00 -0.00000000000E+00 -0.45593999997E+02  0.45594000000E+02  0.51100000000E-03 0. -1.
    9900012    2    1    2    0    0 -0.28906683673E+02 -0.19703833019E+02 -0.25686298104E+02  0.47787270664E+02  0.19999998266E+02 0.  0.
        -12    1    1    2    0    0  0.28906683673E+02  0.19703833019E+02  0.25686298104E+02  0.43400729336E+02  0.00000000000E+00 0.  1.
         11    1    3    3    0    0 -0.10325886923E+02 -0.97051492951E+01 -0.16442939681E+02  0.21706776113E+02  0.51100000000E-03 0. -1.
        -11    1    3    3    0    0 -0.27719620533E+01  0.25530659687E+01  0.24379230800E+00  0.37764208474E+01  0.51100000000E-03 0.  1.
         12    1    3    3    0    0 -0.15808834696E+02 -0.12551749693E+02 -0.94871507304E+01  0.22304073704E+02  0.00000000000E+00 0. -1.
</event>
<event>
 7    1  0.1427898E-010  0.4778727E+02  0.7816164E-02  0.1312668E+00
        -11   -1    0    0    0    0  0.00000000000E+00  0.00000000000E+00  0.45593999997E+02  0.45594000000E+02  0.51100000000E-03 0.  1.
         11   -1    0    0    0    0 -0.00000000000E+00 -0.00000000000E+00 -0.45593999997E+02  0.45594000000E+02  0.51100000000E-03 0. -1.
    9900012    2    1    2    0    0  0.22069733704E+02  0.32093951712E+02 -0.19144924127E+02  0.47787274175E+02  0.20000014275E+02 0.  0.
        -12    1    1    2    0    0 -0.22069733704E+02 -0.32093951712E+02  0.19144924127E+02  0.43400725825E+02  0.00000000000E+00 0.  1.
         11    1    3    3    0    0  0.10336825835E+02  0.22402713660E+02 -0.47126497765E+01  0.25118531323E+02  0.51100000000E-03 0. -1.
        -11    1    3    3    0    0  0.23767408558E-01  0.47214868596E+01 -0.32472994336E+01  0.57304412507E+01  0.51100000000E-03 0.  1.
        -12    1    3    3    0    0  0.11709140461E+02  0.49697511926E+01 -0.11184974917E+02  0.16938301601E+02  0.00000000000E+00 0.  1.
</event>
<event>
 7    1  0.1427898E-010  0.4778727E+02  0.7816164E-02  0.1312668E+00
        -11   -1    0    0    0    0  0.00000000000E+00  0.00000000000E+00  0.45593999997E+02  0.45594000000E+02  0.51100000000E-03 0.  1.
         11   -1    0    0    0    0 -0.00000000000E+00 -0.00000000000E+00 -0.45593999997E+02  0.45594000000E+02  0.51100000000E-03 0. -1.
    9900012    2    1    2    0    0  0.32179541693E+02 -0.18291303757E+02  0.22661176338E+02  0.47787267175E+02  0.19999982359E+02 0.  0.
        -12    1    1    2    0    0 -0.32179541693E+02  0.18291303757E+02 -0.22661176338E+02  0.43400732825E+02  0.00000000000E+00 0.  1.
         11    1    3    3    0    0  0.16616963900E+02 -0.49741225423E+01  0.65546033398E+01  0.18542605252E+02  0.51100000000E-03 0. -1.
        -11    1    3    3    0    0  0.14410939614E+02 -0.12200010053E+02  0.18453536022E+02  0.26401674528E+02  0.51100000000E-03 0.  1.
        -12    1    3    3    0    0  0.11516381787E+01 -0.11171711608E+01 -0.23469630239E+01  0.28429873957E+01  0.00000000000E+00 0.  1.
</event>
<event>
 7    1  0.1519281E-010  0.4778726E+02  0.7816164E-02  0.1312668E+00
        -11   -1    0    0    0    0  0.00000000000E+00  0.00000000000E+00  0.45593999997E+02  0.45594000000E+02  0.51100000000E-03 0.  1.
         11   -1    0    0    0    0 -0.00000000000E+00 -0.00000000000E+00 -0.45593999997E+02  0.45594000000E+02  0.51100000000E-03 0. -1.
    9900012    2    1    2    0    0 -0.12093147868E+02 -0.41637720470E+02 -0.19184922130E+01  0.47787255725E+02  0.19999930151E+02 0.  0.
        -12    1    1    2    0    0  0.12093147868E+02  0.41637720470E+02  0.19184922130E+01  0.43400744275E+02  0.00000000000E+00 0.  1.
         11    1    3    3    0    0 -0.51358499634E+01 -0.12699644623E+02 -0.63813159093E+01  0.15112217620E+02  0.51100000000E-03 0. -1.
        -11    1    3    3    0    0 -0.13666688714E+01 -0.30079933177E+01  0.51747925894E+01  0.61395672655E+01  0.51100000000E-03 0.  1.
         12    1    3    3    0    0 -0.55906290328E+01 -0.25930082529E+02 -0.71196889314E+00  0.26535470839E+02  0.00000000000E+00 0. -1.
</event>
<event>
 7    1  0.1427898E-010  0.4778727E+02  0.7816164E-02  0.1312668E+00
        -11   -1    0    0    0    0  0.00000000000E+00  0.00000000000E+00  0.45593999997E+02  0.45594000000E+02  0.51100000000E-03 0.  1.
         11   -1    0    0    0    0 -0.00000000000E+00 -0.00000000000E+00 -0.45593999997E+02  0.45594000000E+02  0.51100000000E-03 0. -1.
    9900012    2    1    2    0    0 -0.26330527992E+02 -0.19661923546E+02 -0.28350225793E+02  0.47787271384E+02  0.20000001548E+02 0.  0.
        -12    1    1    2    0    0  0.26330527992E+02  0.19661923546E+02  0.28350225793E+02  0.43400728616E+02  0.00000000000E+00 0.  1.
         11    1    3    3    0    0 -0.20004133433E+02 -0.84039605301E+01 -0.13566677042E+02  0.25589971341E+02  0.51100000000E-03 0. -1.
        -11    1    3    3    0    0 -0.71518954011E+01 -0.98387536773E+01 -0.16039633765E+02  0.20130090246E+02  0.51100000000E-03 0.  1.
        -12    1    3    3    0    0  0.82550084190E+00 -0.14192093384E+01  0.12560850131E+01  0.20672097973E+01  0.00000000000E+00 0.  1.
</event>
<event>
 7    1  0.1427898E-010  0.4778727E+02  0.7816164E-02  0.1312668E+00
        -11   -1    0    0    0    0  0.00000000000E+00  0.00000000000E+00  0.45593999997E+02  0.45594000000E+02  0.51100000000E-03 0. -1.
         11   -1    0    0    0    0 -0.00000000000E+00 -0.00000000000E+00 -0.45593999997E+02  0.45594000000E+02  0.51100000000E-03 0.  1.
    9900012    2    1    2    0    0 -0.25770961942E+02  0.18200549884E+02  0.29803035288E+02  0.47787269501E+02  0.19999992963E+02 0.  0.
        -12    1    1    2    0    0  0.25770961942E+02 -0.18200549884E+02 -0.29803035288E+02  0.43400730499E+02  0.00000000000E+00 0.  1.
         11    1    3    3    0    0 -0.84415001957E+01  0.64385202788E+00  0.16713923836E+02  0.18735760493E+02  0.51100000000E-03 0. -1.
        -11    1    3    3    0    0 -0.49540406714E+01  0.93095317067E+01  0.83242724705E+01  0.13435155823E+02  0.51100000000E-03 0.  1.
        -12    1    3    3    0    0 -0.12375421075E+02  0.82471661490E+01  0.47648389811E+01  0.15616353185E+02  0.00000000000E+00 0.  1.
</event>
<event>
 7    1  0.1427898E-010  0.4778727E+02  0.7816164E-02  0.1312668E+00
        -11   -1    0    0    0    0  0.00000000000E+00  0.00000000000E+00  0.45593999997E+02  0.45594000000E+02  0.51100000000E-03 0.  1.
         11   -1    0    0    0    0 -0.00000000000E+00 -0.00000000000E+00 -0.45593999997E+02  0.45594000000E+02  0.51100000000E-03 0. -1.
    9900012    2    1    2    0    0  0.97599757915E+01  0.39885890474E+02 -0.14052828474E+02  0.47787269886E+02  0.19999994716E+02 0.  0.
        -12    1    1    2    0    0 -0.97599757915E+01 -0.39885890474E+02  0.14052828474E+02  0.43400730114E+02  0.00000000000E+00 0.  1.
         11    1    3    3    0    0  0.40663612176E+01  0.10505058432E+02 -0.81798290836E+01  0.13921248159E+02  0.51100000000E-03 0. -1.
        -11    1    3    3    0    0  0.74127743174E+01  0.29338843954E+02 -0.28585260918E+01  0.30395528607E+02  0.51100000000E-03 0.  1.
        -12    1    3    3    0    0 -0.17191597434E+01  0.41988087885E-01 -0.30144732985E+01  0.34704931191E+01  0.00000000000E+00 0.  1.
</event>
<event>
 7    1  0.1427898E-010  0.4778727E+02  0.7816164E-02  0.1312668E+00
        -11   -1    0    0    0    0  0.00000000000E+00  0.00000000000E+00  0.45593999997E+02  0.45594000000E+02  0.51100000000E-03 0.  1.
         11   -1    0    0    0    0 -0.00000000000E+00 -0.00000000000E+00 -0.45593999997E+02  0.45594000000E+02  0.51100000000E-03 0. -1.
    9900012    2    1    2    0    0 -0.68766190080E+01 -0.28915977487E+02 -0.31625962621E+02  0.47787272417E+02  0.20000006258E+02 0.  0.
        -12    1    1    2    0    0  0.68766190080E+01  0.28915977487E+02  0.31625962621E+02  0.43400727583E+02  0.00000000000E+00 0.  1.
         11    1    3    3    0    0 -0.45781087633E+01 -0.33566973308E+01 -0.93572051360E+01  0.10944577883E+02  0.51100000000E-03 0. -1.
        -11    1    3    3    0    0  0.23109995323E+01 -0.20121834453E+02 -0.98470450593E+01  0.22520951073E+02  0.51100000000E-03 0.  1.
        -12    1    3    3    0    0 -0.46095097770E+01 -0.54374457035E+01 -0.12421712426E+02  0.14321743461E+02  0.00000000000E+00 0.  1.
</event>
<event>
 7    1  0.1427898E-010  0.4778727E+02  0.7816164E-02  0.1312668E+00
        -11   -1    0    0    0    0  0.00000000000E+00  0.00000000000E+00  0.45593999997E+02  0.45594000000E+02  0.51100000000E-03 0.  1.
         11   -1    0    0    0    0 -0.00000000000E+00 -0.00000000000E+00 -0.45593999997E+02  0.45594000000E+02  0.51100000000E-03 0. -1.
    9900012    2    1    2    0    0  0.41074897930E+01  0.42096964734E+02 -0.97261242731E+01  0.47787269527E+02  0.19999993080E+02 0.  0.
        -12    1    1    2    0    0 -0.41074897930E+01 -0.42096964734E+02  0.97261242731E+01  0.43400730473E+02  0.00000000000E+00 0.  1.
         11    1    3    3    0    0 -0.46645116375E-01  0.49223804002E+01 -0.60035130497E+01  0.77636443614E+01  0.51100000000E-03 0. -1.
        -11    1    3    3    0    0 -0.27456684006E+01  0.29046470144E+02 -0.22837729723E+01  0.29265196771E+02  0.51100000000E-03 0.  1.
         12    1    3    3    0    0  0.68998033100E+01  0.81281141906E+01 -0.14388382512E+01  0.10758428395E+02  0.00000000000E+00 0. -1.
</event>
<event>
 7    1  0.1427898E-010  0.4778727E+02  0.7816164E-02  0.1312668E+00
        -11   -1    0    0    0    0  0.00000000000E+00  0.00000000000E+00  0.45593999997E+02  0.45594000000E+02  0.51100000000E-03 0. -1.
         11   -1    0    0    0    0 -0.00000000000E+00 -0.00000000000E+00 -0.45593999997E+02  0.45594000000E+02  0.51100000000E-03 0.  1.
    9900012    2    1    2    0    0  0.20926017417E+02 -0.36969024171E+02  0.88891040442E+01  0.47787272773E+02  0.20000007882E+02 0.  0.
        -12    1    1    2    0    0 -0.20926017417E+02  0.36969024171E+02 -0.88891040442E+01  0.43400727227E+02  0.00000000000E+00 0.  1.
         11    1    3    3    0    0  0.11106589175E+02 -0.14751708069E+02 -0.15304166314E+01  0.18528663993E+02  0.51100000000E-03 0. -1.
        -11    1    3    3    0    0 -0.17577529987E+01  0.35199008456E+00 -0.10664290124E+00  0.17958189200E+01  0.51100000000E-03 0.  1.
        -12    1    3    3    0    0  0.11577181240E+02 -0.22569306187E+02  0.10526163577E+02  0.27462789860E+02  0.00000000000E+00 0.  1.
</event>
<event>
 7    1  0.1427898E-010  0.4778727E+02  0.7816164E-02  0.1312668E+00
        -11   -1    0    0    0    0  0.00000000000E+00  0.00000000000E+00  0.45593999997E+02  0.45594000000E+02  0.51100000000E-03 0.  1.
         11   -1    0    0    0    0 -0.00000000000E+00 -0.00000000000E+00 -0.45593999997E+02  0.45594000000E+02  0.51100000000E-03 0. -1.
    9900012    2    1    2    0    0 -0.25028317438E+02  0.73772060937E+01 -0.34681167336E+02  0.47787271765E+02  0.20000003287E+02 0.  0.
        -12    1    1    2    0    0  0.25028317438E+02 -0.73772060937E+01  0.34681167336E+02  0.43400728235E+02  0.00000000000E+00 0.  1.
         11    1    3    3    0    0 -0.12024993384E+02  0.32905539607E+01 -0.33283326558E+01  0.12903720773E+02  0.51100000000E-03 0. -1.
        -11    1    3    3    0    0 -0.20625275525E+01  0.37426446567E+01 -0.10400329686E+02  0.11244032495E+02  0.51100000000E-03 0.  1.
         12    1    3    3    0    0 -0.10940796502E+02  0.34400747632E+00 -0.20952504994E+02  0.23639518497E+02  0.00000000000E+00 0. -1.
</event>
<event>
 7    1  0.1427898E-010  0.4778724E+02  0.7816164E-02  0.1312668E+00
        -11   -1    0    0    0    0  0.00000000000E+00  0.00000000000E+00  0.45593999997E+02  0.45594000000E+02  0.51100000000E-03 0. -1.
         11   -1    0    0    0    0 -0.00000000000E+00 -0.00000000000E+00 -0.45593999997E+02  0.45594000000E+02  0.51100000000E-03 0.  1.
    9900012    2    1    2    0    0  0.14056851000E+02 -0.27648485920E+02  0.30357732838E+02  0.47787242210E+02  0.19999868533E+02 0.  0.
        -12    1    1    2    0    0 -0.14056851000E+02  0.27648485920E+02 -0.30357732838E+02  0.43400757790E+02  0.00000000000E+00 0.  1.
         11    1    3    3    0    0  0.77752038625E+00  0.21560394231E+01  0.29626556020E+01  0.37457138735E+01  0.51100000000E-03 0.  1.
        -11    1    3    3    0    0  0.65432149145E+01 -0.16552376783E+02  0.21834172312E+02  0.28169592105E+02  0.51100000000E-03 0. -1.
         12    1    3    3    0    0  0.67361156991E+01 -0.13252148560E+02  0.55609049241E+01  0.15871936232E+02  0.00000000000E+00 0. -1.
</event>
<event>
 7    1  0.1427898E-010  0.4778727E+02  0.7816164E-02  0.1312668E+00
        -11   -1    0    0    0    0  0.00000000000E+00  0.00000000000E+00  0.45593999997E+02  0.45594000000E+02  0.51100000000E-03 0.  1.
         11   -1    0    0    0    0 -0.00000000000E+00 -0.00000000000E+00 -0.45593999997E+02  0.45594000000E+02  0.51100000000E-03 0. -1.
    9900012    2    1    2    0    0 -0.37811628487E+02  0.98541480483E+00  0.21282221545E+02  0.47787271376E+02  0.20000001511E+02 0.  0.
        -12    1    1    2    0    0  0.37811628487E+02 -0.98541480483E+00 -0.21282221545E+02  0.43400728624E+02  0.00000000000E+00 0.  1.
         11    1    3    3    0    0 -0.25125561746E+02 -0.69227183275E+01  0.10393562433E+02  0.28057869171E+02  0.51100000000E-03 0. -1.
        -11    1    3    3    0    0 -0.32740448753E+00  0.21661369312E+01  0.37559492259E+01  0.43481602721E+01  0.51100000000E-03 0.  1.
        -12    1    3    3    0    0 -0.12358662254E+02  0.57419962012E+01  0.71327098860E+01  0.15381241933E+02  0.00000000000E+00 0.  1.
</event>
<event>
 7    1  0.1427898E-010  0.4778727E+02  0.7816164E-02  0.1312668E+00
        -11   -1    0    0    0    0  0.00000000000E+00  0.00000000000E+00  0.45593999997E+02  0.45594000000E+02  0.51100000000E-03 0.  1.
         11   -1    0    0    0    0 -0.00000000000E+00 -0.00000000000E+00 -0.45593999997E+02  0.45594000000E+02  0.51100000000E-03 0. -1.
    9900012    2    1    2    0    0  0.64466322189E+01 -0.41905647590E+02  0.92725832571E+01  0.47787272274E+02  0.20000005606E+02 0.  0.
        -12    1    1    2    0    0 -0.64466322189E+01  0.41905647590E+02 -0.92725832571E+01  0.43400727726E+02  0.00000000000E+00 0.  1.
         11    1    3    3    0    0  0.29246204297E+01 -0.63120065840E+01 -0.56808198064E+00  0.69797957829E+01  0.51100000000E-03 0. -1.
        -11    1    3    3    0    0 -0.30170151656E+00 -0.53971150891E+01 -0.46186303385E+01  0.71099663540E+01  0.51100000000E-03 0.  1.
         12    1    3    3    0    0  0.38237133058E+01 -0.30196525917E+02  0.14459295576E+02  0.33697510137E+02  0.00000000000E+00 0. -1.
</event>
<event>
 7    1  0.1427898E-010  0.4778727E+02  0.7816164E-02  0.1312668E+00
        -11   -1    0    0    0    0  0.00000000000E+00  0.00000000000E+00  0.45593999997E+02  0.45594000000E+02  0.51100000000E-03 0.  1.
         11   -1    0    0    0    0 -0.00000000000E+00 -0.00000000000E+00 -0.45593999997E+02  0.45594000000E+02  0.51100000000E-03 0. -1.
    9900012    2    1    2    0    0  0.13161752951E+02  0.26619574741E+02 -0.31651065618E+02  0.47787268959E+02  0.19999990492E+02 0.  0.
        -12    1    1    2    0    0 -0.13161752951E+02 -0.26619574741E+02  0.31651065618E+02  0.43400731041E+02  0.00000000000E+00 0.  1.
         11    1    3    3    0    0  0.11796330594E+02  0.40133158590E+01 -0.15602302711E+02  0.19967272468E+02  0.51100000000E-03 0. -1.
        -11    1    3    3    0    0 -0.41209201040E+00  0.68644266812E+01 -0.45769662311E+01  0.82606775526E+01  0.51100000000E-03 0.  1.
         12    1    3    3    0    0  0.17775143674E+01  0.15741832201E+02 -0.11471796676E+02  0.19559318939E+02  0.00000000000E+00 0. -1.
</event>
<event>
 7    1  0.1427898E-010  0.4778727E+02  0.7816164E-02  0.1312668E+00
        -11   -1    0    0    0    0  0.00000000000E+00  0.00000000000E+00  0.45593999997E+02  0.45594000000E+02  0.51100000000E-03 0.  1.
         11   -1    0    0    0    0 -0.00000000000E+00 -0.00000000000E+00 -0.45593999997E+02  0.45594000000E+02  0.51100000000E-03 0. -1.
    9900012    2    1    2    0    0 -0.80128167455E+01  0.38392298221E+02 -0.18586263188E+02  0.47787274497E+02  0.20000015742E+02 0.  0.
        -12    1    1    2    0    0  0.80128167455E+01 -0.38392298221E+02  0.18586263188E+02  0.43400725503E+02  0.00000000000E+00 0.  1.
         11    1    3    3    0    0 -0.36892718746E+01  0.23281157553E+02 -0.16879235883E+02  0.28991923500E+02  0.51100000000E-03 0. -1.
        -11    1    3    3    0    0  0.52102843811E+00  0.13494341733E+02 -0.34152542995E+00  0.13508714570E+02  0.51100000000E-03 0.  1.
        -12    1    3    3    0    0 -0.48445733090E+01  0.16167989347E+01 -0.13655018741E+01  0.52866364269E+01  0.00000000000E+00 0.  1.
</event>
<event>
 7    1  0.1427898E-010  0.4778727E+02  0.7816164E-02  0.1312668E+00
        -11   -1    0    0    0    0  0.00000000000E+00  0.00000000000E+00  0.45593999997E+02  0.45594000000E+02  0.51100000000E-03 0. -1.
         11   -1    0    0    0    0 -0.00000000000E+00 -0.00000000000E+00 -0.45593999997E+02  0.45594000000E+02  0.51100000000E-03 0.  1.
    9900012    2    1    2    0    0 -0.38689593147E+02 -0.15514917640E+02 -0.12084115926E+02  0.47787272529E+02  0.20000006771E+02 0.  0.
        -12    1    1    2    0    0  0.38689593147E+02  0.15514917640E+02  0.12084115926E+02  0.43400727471E+02  0.00000000000E+00 0.  1.
         11    1    3    3    0    0 -0.20995635723E+02 -0.10235051254E+02 -0.77465454730E+01  0.24608574941E+02  0.51100000000E-03 0. -1.
        -11    1    3    3    0    0 -0.13357682976E+02 -0.94497557806E+01 -0.12324072996E+01  0.16408668648E+02  0.51100000000E-03 0.  1.
         12    1    3    3    0    0 -0.43362744480E+01  0.41698893940E+01 -0.31051631530E+01  0.67700289404E+01  0.00000000000E+00 0. -1.
</event>
<event>
 7    1  0.1427898E-010  0.4778727E+02  0.7816164E-02  0.1312668E+00
        -11   -1    0    0    0    0  0.00000000000E+00  0.00000000000E+00  0.45593999997E+02  0.45594000000E+02  0.51100000000E-03 0. -1.
         11   -1    0    0    0    0 -0.00000000000E+00 -0.00000000000E+00 -0.45593999997E+02  0.45594000000E+02  0.51100000000E-03 0.  1.
    9900012    2    1    2    0    0 -0.47122857955E+01 -0.43136680748E+02 -0.80267038876E+00  0.47787272551E+02  0.20000006868E+02 0.  0.
        -12    1    1    2    0    0  0.47122857955E+01  0.43136680748E+02  0.80267038876E+00  0.43400727449E+02  0.00000000000E+00 0.  1.
         11    1    3    3    0    0 -0.79767602468E+01 -0.22360003313E+02  0.36998315092E+01  0.24026801819E+02  0.51100000000E-03 0. -1.
        -11    1    3    3    0    0  0.25812111636E+01 -0.87849586457E+00  0.13022431820E+01  0.30216292992E+01  0.51100000000E-03 0.  1.
         12    1    3    3    0    0  0.68326328767E+00 -0.19898181570E+02 -0.58047450800E+01  0.20738841432E+02  0.00000000000E+00 0. -1.
</event>
<event>
 7    1  0.1427898E-010  0.4778727E+02  0.7816164E-02  0.1312668E+00
        -11   -1    0    0    0    0  0.00000000000E+00  0.00000000000E+00  0.45593999997E+02  0.45594000000E+02  0.51100000000E-03 0. -1.
         11   -1    0    0    0    0 -0.00000000000E+00 -0.00000000000E+00 -0.45593999997E+02  0.45594000000E+02  0.51100000000E-03 0.  1.
    9900012    2    1    2    0    0  0.17298265845E+02  0.23074972465E+02  0.32433609215E+02  0.47787270026E+02  0.19999995357E+02 0.  0.
        -12    1    1    2    0    0 -0.17298265845E+02 -0.23074972465E+02 -0.32433609215E+02  0.43400729974E+02  0.00000000000E+00 0.  1.
         11    1    3    3    0    0  0.54629837824E+01  0.88980767547E+01  0.14738757393E+02  0.18062417654E+02  0.51100000000E-03 0. -1.
        -11    1    3    3    0    0 -0.33649023414E+01  0.20671109248E+01  0.92639632198E+00  0.40563192366E+01  0.51100000000E-03 0.  1.
         12    1    3    3    0    0  0.15200184405E+02  0.12109784786E+02  0.16768455500E+02  0.25668533136E+02  0.00000000000E+00 0. -1.
</event>
<event>
 7    1  0.1427898E-010  0.4778727E+02  0.7816164E-02  0.1312668E+00
        -11   -1    0    0    0    0  0.00000000000E+00  0.00000000000E+00  0.45593999997E+02  0.45594000000E+02  0.51100000000E-03 0.  1.
         11   -1    0    0    0    0 -0.00000000000E+00 -0.00000000000E+00 -0.45593999997E+02  0.45594000000E+02  0.51100000000E-03 0. -1.
    9900012    2    1    2    0    0 -0.42557434714E+00  0.38463484807E+02 -0.20099813562E+02  0.47787270948E+02  0.19999999561E+02 0.  0.
        -12    1    1    2    0    0  0.42557434714E+00 -0.38463484807E+02  0.20099813562E+02  0.43400729052E+02  0.00000000000E+00 0.  1.
         11    1    3    3    0    0  0.40731430158E+00  0.43431758743E+01 -0.15210757967E+01  0.46198217992E+01  0.51100000000E-03 0. -1.
        -11    1    3    3    0    0  0.85261526659E+01  0.15769528618E+02 -0.11880268168E+02  0.21506140614E+02  0.51100000000E-03 0.  1.
        -12    1    3    3    0    0 -0.93590413147E+01  0.18350780315E+02 -0.66984695972E+01  0.21661308535E+02  0.00000000000E+00 0.  1.
</event>
<event>
 7    1  0.1427898E-010  0.4778727E+02  0.7816164E-02  0.1312668E+00
        -11   -1    0    0    0    0  0.00000000000E+00  0.00000000000E+00  0.45593999997E+02  0.45594000000E+02  0.51100000000E-03 0. -1.
         11   -1    0    0    0    0 -0.00000000000E+00 -0.00000000000E+00 -0.45593999997E+02  0.45594000000E+02  0.51100000000E-03 0.  1.
    9900012    2    1    2    0    0  0.15411151371E+02 -0.13801732759E+02  0.38152741127E+02  0.47787273402E+02  0.20000010747E+02 0.  0.
        -12    1    1    2    0    0 -0.15411151371E+02  0.13801732759E+02 -0.38152741127E+02  0.43400726598E+02  0.00000000000E+00 0.  1.
         11    1    3    3    0    0  0.63282760354E+01  0.34889047602E+01  0.12350647195E+02  0.14309368274E+02  0.51100000000E-03 0. -1.
        -11    1    3    3    0    0  0.43068870961E-01 -0.62937005406E+01  0.12498010405E+02  0.13993312180E+02  0.51100000000E-03 0.  1.
        -12    1    3    3    0    0  0.90398064647E+01 -0.10996936979E+02  0.13304083528E+02  0.19484592948E+02  0.00000000000E+00 0.  1.
</event>
<event>
 7    1  0.1427898E-010  0.4778727E+02  0.7816164E-02  0.1312668E+00
        -11   -1    0    0    0    0  0.00000000000E+00  0.00000000000E+00  0.45593999997E+02  0.45594000000E+02  0.51100000000E-03 0. -1.
         11   -1    0    0    0    0 -0.00000000000E+00 -0.00000000000E+00 -0.45593999997E+02  0.45594000000E+02  0.51100000000E-03 0.  1.
    9900012    2    1    2    0    0 -0.14505673711E+02 -0.39727926274E+02  0.97416826570E+01  0.47787273315E+02  0.20000010352E+02 0.  0.
        -12    1    1    2    0    0  0.14505673711E+02  0.39727926274E+02 -0.97416826570E+01  0.43400726685E+02  0.00000000000E+00 0.  1.
         11    1    3    3    0    0 -0.10517163162E+02 -0.64841932167E+01  0.26889581213E+01  0.12644602749E+02  0.51100000000E-03 0. -1.
        -11    1    3    3    0    0 -0.39723535024E-02 -0.81050208924E+01  0.51851743650E+01  0.96217156943E+01  0.51100000000E-03 0.  1.
         12    1    3    3    0    0 -0.39845381955E+01 -0.25138712164E+02  0.18675501707E+01  0.25520954872E+02  0.00000000000E+00 0. -1.
</event>
<event>
 7    1  0.1427898E-010  0.4778726E+02  0.7816164E-02  0.1312668E+00
        -11   -1    0    0    0    0  0.00000000000E+00  0.00000000000E+00  0.45593999997E+02  0.45594000000E+02  0.51100000000E-03 0. -1.
         11   -1    0    0    0    0 -0.00000000000E+00 -0.00000000000E+00 -0.45593999997E+02  0.45594000000E+02  0.51100000000E-03 0.  1.
    9900012    2    1    2    0    0 -0.28738587421E+02 -0.19070977069E+02  0.26344175634E+02  0.47787260800E+02  0.19999953290E+02 0.  0.
        -12    1    1    2    0    0  0.28738587421E+02  0.19070977069E+02 -0.26344175634E+02  0.43400739200E+02  0.00000000000E+00 0.  1.
         11    1    3    3    0    0 -0.86894098626E+01  0.79781064990E-02  0.14954447600E+02  0.17295704978E+02  0.51100000000E-03 0.  1.
        -11    1    3    3    0    0 -0.11713182322E+02 -0.99329669883E+01  0.92635979923E+01  0.17935348375E+02  0.51100000000E-03 0. -1.
        -12    1    3    3    0    0 -0.83359952357E+01 -0.91459881868E+01  0.21261300420E+01  0.12556207446E+02  0.00000000000E+00 0.  1.
</event>
<event>
 7    1  0.1427898E-010  0.4778727E+02  0.7816164E-02  0.1312668E+00
        -11   -1    0    0    0    0  0.00000000000E+00  0.00000000000E+00  0.45593999997E+02  0.45594000000E+02  0.51100000000E-03 0. -1.
         11   -1    0    0    0    0 -0.00000000000E+00 -0.00000000000E+00 -0.45593999997E+02  0.45594000000E+02  0.51100000000E-03 0.  1.
    9900012    2    1    2    0    0  0.38205164130E+02  0.92441076261E+01  0.18399327991E+02  0.47787270023E+02  0.19999995345E+02 0.  0.
        -12    1    1    2    0    0 -0.38205164130E+02 -0.92441076261E+01 -0.18399327991E+02  0.43400729977E+02  0.00000000000E+00 0.  1.
         11    1    3    3    0    0  0.19669888005E+02  0.91596096236E+01  0.12638251421E+02  0.25110323411E+02  0.51100000000E-03 0. -1.
        -11    1    3    3    0    0  0.20023857634E+02 -0.29630936981E+00  0.63839478116E+01  0.21018978655E+02  0.51100000000E-03 0.  1.
        -12    1    3    3    0    0 -0.14885815087E+01  0.38080737231E+00 -0.62287124171E+00  0.16579679571E+01  0.00000000000E+00 0.  1.
</event>
<event>
 7    1  0.1427898E-010  0.4778727E+02  0.7816164E-02  0.1312668E+00
        -11   -1    0    0    0    0  0.00000000000E+00  0.00000000000E+00  0.45593999997E+02  0.45594000000E+02  0.51100000000E-03 0.  1.
         11   -1    0    0    0    0 -0.00000000000E+00 -0.00000000000E+00 -0.45593999997E+02  0.45594000000E+02  0.51100000000E-03 0. -1.
    9900012    2    1    2    0    0  0.56050797037E+00  0.40186820226E+02 -0.16380730865E+02  0.47787273822E+02  0.20000012665E+02 0.  0.
        -12    1    1    2    0    0 -0.56050797037E+00 -0.40186820226E+02  0.16380730865E+02  0.43400726178E+02  0.00000000000E+00 0.  1.
         11    1    3    3    0    0 -0.19265130225E+01  0.60495473800E+01 -0.52887622843E+01  0.82631400018E+01  0.51100000000E-03 0. -1.
        -11    1    3    3    0    0  0.10340010484E+01  0.15242356957E+02  0.34196157626E+01  0.15655426407E+02  0.51100000000E-03 0.  1.
         12    1    3    3    0    0  0.14530199444E+01  0.18894915889E+02 -0.14511584343E+02  0.23868707413E+02  0.00000000000E+00 0. -1.
</event>
<event>
 7    1  0.2132371E-010  0.4778726E+02  0.7816164E-02  0.1312668E+00
        -11   -1    0    0    0    0  0.00000000000E+00  0.00000000000E+00  0.45593999997E+02  0.45594000000E+02  0.51100000000E-03 0. -1.
         11   -1    0    0    0    0 -0.00000000000E+00 -0.00000000000E+00 -0.45593999997E+02  0.45594000000E+02  0.51100000000E-03 0.  1.
    9900012    2    1    2    0    0 -0.24709427885E+02  0.25731840947E+01  0.35587170630E+02  0.47787264796E+02  0.19999971512E+02 0.  0.
        -12    1    1    2    0    0  0.24709427885E+02 -0.25731840947E+01 -0.35587170630E+02  0.43400735204E+02  0.00000000000E+00 0.  1.
         11    1    3    3    0    0 -0.24284459683E+02 -0.25657851657E+01  0.32805259466E+02  0.40896250249E+02  0.51100000000E-03 0. -1.
        -11    1    3    3    0    0  0.93698427372E+00  0.65989192198E-01 -0.16495214685E-01  0.93945008165E+00  0.51100000000E-03 0.  1.
         12    1    3    3    0    0 -0.13619524761E+01  0.50729800683E+01  0.27984063790E+01  0.59515644651E+01  0.00000000000E+00 0. -1.
</event>
<event>
 7    1  0.1427898E-010  0.4778726E+02  0.7816164E-02  0.1312668E+00
        -11   -1    0    0    0    0  0.00000000000E+00  0.00000000000E+00  0.45593999997E+02  0.45594000000E+02  0.51100000000E-03 0. -1.
         11   -1    0    0    0    0 -0.00000000000E+00 -0.00000000000E+00 -0.45593999997E+02  0.45594000000E+02  0.51100000000E-03 0.  1.
    9900012    2    1    2    0    0  0.26452176355E+02  0.20635254817E+02  0.27533483959E+02  0.47787261363E+02  0.19999955860E+02 0.  0.
        -12    1    1    2    0    0 -0.26452176355E+02 -0.20635254817E+02 -0.27533483959E+02  0.43400738637E+02  0.00000000000E+00 0.  1.
         11    1    3    3    0    0  0.15596482254E+02  0.71028788583E+01  0.13970326755E+02  0.22110431400E+02  0.51100000000E-03 0. -1.
        -11    1    3    3    0    0  0.62499384306E+01  0.12710199972E+02  0.35157524071E+01  0.14593540659E+02  0.51100000000E-03 0.  1.
         12    1    3    3    0    0  0.46057556704E+01  0.82217598609E+00  0.10047404797E+02  0.11083289304E+02  0.00000000000E+00 0. -1.
</event>
<event>
 7    1  0.1427898E-010  0.4778727E+02  0.7816164E-02  0.1312668E+00
        -11   -1    0    0    0    0  0.00000000000E+00  0.00000000000E+00  0.45593999997E+02  0.45594000000E+02  0.51100000000E-03 0.  1.
         11   -1    0    0    0    0 -0.00000000000E+00 -0.00000000000E+00 -0.45593999997E+02  0.45594000000E+02  0.51100000000E-03 0. -1.
    9900012    2    1    2    0    0  0.30703566651E+02 -0.98075552242E+01 -0.29064175261E+02  0.47787269266E+02  0.19999991893E+02 0.  0.
        -12    1    1    2    0    0 -0.30703566651E+02  0.98075552242E+01  0.29064175261E+02  0.43400730734E+02  0.00000000000E+00 0.  1.
         11    1    3    3    0    0  0.56776386278E+01 -0.36954219984E+01 -0.25099797652E+01  0.72243839057E+01  0.51100000000E-03 0. -1.
        -11    1    3    3    0    0  0.98739153132E+01  0.80659181138E+00 -0.20627254266E+02  0.22882928413E+02  0.51100000000E-03 0.  1.
        -12    1    3    3    0    0  0.15152012710E+02 -0.69187250372E+01 -0.59269412304E+01  0.17679956947E+02  0.00000000000E+00 0.  1.
</event>
<event>
 7    1  0.1427898E-010  0.4778728E+02  0.7816164E-02  0.1312668E+00
        -11   -1    0    0    0    0  0.00000000000E+00  0.00000000000E+00  0.45593999997E+02  0.45594000000E+02  0.51100000000E-03 0.  1.
         11   -1    0    0    0    0 -0.00000000000E+00 -0.00000000000E+00 -0.45593999997E+02  0.45594000000E+02  0.51100000000E-03 0. -1.
    9900012    2    1    2    0    0  0.22121740242E+02  0.14008881190E+02 -0.34612170479E+02  0.47787280089E+02  0.20000041237E+02 0.  0.
        -12    1    1    2    0    0 -0.22121740242E+02 -0.14008881190E+02  0.34612170479E+02  0.43400719911E+02  0.00000000000E+00 0.  1.
         11    1    3    3    0    0  0.40521800123E+01  0.61859055707E+01 -0.17361410286E+02  0.18870722243E+02  0.51100000000E-03 0. -1.
        -11    1    3    3    0    0  0.65203525191E+01 -0.21783991467E+01 -0.16271109032E+01  0.70645530622E+01  0.51100000000E-03 0.  1.
         12    1    3    3    0    0  0.11549207710E+02  0.10001374766E+02 -0.15623649290E+02  0.21852004784E+02  0.00000000000E+00 0. -1.
</event>
<event>
 7    1  0.1427898E-010  0.4778728E+02  0.7816164E-02  0.1312668E+00
        -11   -1    0    0    0    0  0.00000000000E+00  0.00000000000E+00  0.45593999997E+02  0.45594000000E+02  0.51100000000E-03 0.  1.
         11   -1    0    0    0    0 -0.00000000000E+00 -0.00000000000E+00 -0.45593999997E+02  0.45594000000E+02  0.51100000000E-03 0. -1.
    9900012    2    1    2    0    0 -0.27185913872E+02 -0.99899194557E+01 -0.32322597987E+02  0.47787277144E+02  0.20000027809E+02 0.  0.
        -12    1    1    2    0    0  0.27185913872E+02  0.99899194557E+01  0.32322597987E+02  0.43400722856E+02  0.00000000000E+00 0.  1.
         11    1    3    3    0    0 -0.92745565289E+01 -0.66239255914E+01 -0.14351401202E+02  0.18326388236E+02  0.51100000000E-03 0. -1.
        -11    1    3    3    0    0 -0.11423461134E+02 -0.46153261323E+01 -0.24085434332E+01  0.12553795494E+02  0.51100000000E-03 0.  1.
        -12    1    3    3    0    0 -0.64878962099E+01  0.12493322680E+01 -0.15562653352E+02  0.16907093414E+02  0.00000000000E+00 0.  1.
</event>
<event>
 7    1  0.1427898E-010  0.4778727E+02  0.7816164E-02  0.1312668E+00
        -11   -1    0    0    0    0  0.00000000000E+00  0.00000000000E+00  0.45593999997E+02  0.45594000000E+02  0.51100000000E-03 0.  1.
         11   -1    0    0    0    0 -0.00000000000E+00 -0.00000000000E+00 -0.45593999997E+02  0.45594000000E+02  0.51100000000E-03 0. -1.
    9900012    2    1    2    0    0 -0.96339402263E+01  0.41868946299E+02 -0.61483015751E+01  0.47787273270E+02  0.20000010147E+02 0.  0.
        -12    1    1    2    0    0  0.96339402263E+01 -0.41868946299E+02  0.61483015751E+01  0.43400726730E+02  0.00000000000E+00 0.  1.
         11    1    3    3    0    0  0.49044211525E+00  0.30651086682E+02  0.14970986806E+01  0.30691545301E+02  0.51100000000E-03 0. -1.
        -11    1    3    3    0    0 -0.28970059984E+01  0.40761553225E+01 -0.35885891245E+01  0.61551326657E+01  0.51100000000E-03 0.  1.
         12    1    3    3    0    0 -0.72273763432E+01  0.71417042940E+01 -0.40568111313E+01  0.10940595303E+02  0.00000000000E+00 0. -1.
</event>
<event>
 7    1  0.1427898E-010  0.4778727E+02  0.7816164E-02  0.1312668E+00
        -11   -1    0    0    0    0  0.00000000000E+00  0.00000000000E+00  0.45593999997E+02  0.45594000000E+02  0.51100000000E-03 0.  1.
         11   -1    0    0    0    0 -0.00000000000E+00 -0.00000000000E+00 -0.45593999997E+02  0.45594000000E+02  0.51100000000E-03 0. -1.
    9900012    2    1    2    0    0 -0.11359458821E+02  0.41884512309E+02 -0.52297174549E+00  0.47787272177E+02  0.20000005164E+02 0.  0.
        -12    1    1    2    0    0  0.11359458821E+02 -0.41884512309E+02  0.52297174549E+00  0.43400727823E+02  0.00000000000E+00 0.  1.
         11    1    3    3    0    0 -0.66905844535E+01  0.10333468424E+02 -0.80417376908E+01  0.14704218284E+02  0.51100000000E-03 0. -1.
        -11    1    3    3    0    0  0.51521449870E+00  0.91044709227E+01  0.12217897965E+01  0.92005221227E+01  0.51100000000E-03 0.  1.
         12    1    3    3    0    0 -0.51840888665E+01  0.22446572962E+02  0.62969761488E+01  0.23882531770E+02  0.00000000000E+00 0. -1.
</event>
<event>
 7    1  0.1427898E-010  0.4778727E+02  0.7816164E-02  0.1312668E+00
        -11   -1    0    0    0    0  0.00000000000E+00  0.00000000000E+00  0.45593999997E+02  0.45594000000E+02  0.51100000000E-03 0.  1.
         11   -1    0    0    0    0 -0.00000000000E+00 -0.00000000000E+00 -0.45593999997E+02  0.45594000000E+02  0.51100000000E-03 0. -1.
    9900012    2    1    2    0    0 -0.34075625481E+02 -0.24109525729E+02 -0.11883015730E+02  0.47787267914E+02  0.19999985725E+02 0.  0.
        -12    1    1    2    0    0  0.34075625481E+02  0.24109525729E+02  0.11883015730E+02  0.43400732086E+02  0.00000000000E+00 0.  1.
         11    1    3    3    0    0  0.75730270084E-02 -0.49933277337E+01 -0.27911608885E+01  0.57204858686E+01  0.51100000000E-03 0. -1.
        -11    1    3    3    0    0 -0.11695194850E+02 -0.30568502002E+01  0.22067495217E+01  0.12287866350E+02  0.51100000000E-03 0.  1.
         12    1    3    3    0    0 -0.22388003658E+02 -0.16059347795E+02 -0.11298604364E+02  0.29778915695E+02  0.00000000000E+00 0. -1.
</event>
<event>
 7    1  0.1427898E-010  0.4778722E+02  0.7816164E-02  0.1312668E+00
        -11   -1    0    0    0    0  0.00000000000E+00  0.00000000000E+00  0.45593999997E+02  0.45594000000E+02  0.51100000000E-03 0.  1.
         11   -1    0    0    0    0 -0.00000000000E+00 -0.00000000000E+00 -0.45593999997E+02  0.45594000000E+02  0.51100000000E-03 0. -1.
    9900012    2    1    2    0    0 -0.35472433287E+02  0.64301603491E+01 -0.24165826087E+02  0.47787220792E+02  0.19999770877E+02 0.  0.
        -12    1    1    2    0    0  0.35472433287E+02 -0.64301603491E+01  0.24165826087E+02  0.43400779208E+02  0.00000000000E+00 0.  1.
         11    1    3    3    0    0 -0.24400052050E+02  0.43593884776E+01 -0.14607932870E+02  0.28770792672E+02  0.51100000000E-03 0. -1.
        -11    1    3    3    0    0 -0.55821212617E+01  0.22597686750E+01  0.18957279356E+01  0.63135106646E+01  0.51100000000E-03 0.  1.
         12    1    3    3    0    0 -0.54902599750E+01 -0.18899680354E+00 -0.11453621152E+02  0.12702917456E+02  0.00000000000E+00 0. -1.
</event>
<event>
 7    1  0.1427898E-010  0.4778726E+02  0.7816164E-02  0.1312668E+00
        -11   -1    0    0    0    0  0.00000000000E+00  0.00000000000E+00  0.45593999997E+02  0.45594000000E+02  0.51100000000E-03 0.  1.
         11   -1    0    0    0    0 -0.00000000000E+00 -0.00000000000E+00 -0.45593999997E+02  0.45594000000E+02  0.51100000000E-03 0. -1.
    9900012    2    1    2    0    0 -0.30586516377E+02 -0.19076889184E+02 -0.24169426610E+02  0.47787264203E+02  0.19999968809E+02 0.  0.
        -12    1    1    2    0    0  0.30586516377E+02  0.19076889184E+02  0.24169426610E+02  0.43400735797E+02  0.00000000000E+00 0.  1.
         11    1    3    3    0    0 -0.16078064410E+02 -0.12729951911E+02 -0.73199488873E+01  0.21774698225E+02  0.51100000000E-03 0. -1.
        -11    1    3    3    0    0 -0.15538091620E+02 -0.54456146956E+01 -0.17875156277E+02  0.24302432446E+02  0.51100000000E-03 0.  1.
         12    1    3    3    0    0  0.10296396527E+01 -0.90132257791E+00  0.10256785538E+01  0.17101335327E+01  0.00000000000E+00 0. -1.
</event>
<event>
 7    1  0.1427898E-010  0.4778727E+02  0.7816164E-02  0.1312668E+00
        -11   -1    0    0    0    0  0.00000000000E+00  0.00000000000E+00  0.45593999997E+02  0.45594000000E+02  0.51100000000E-03 0. -1.
         11   -1    0    0    0    0 -0.00000000000E+00 -0.00000000000E+00 -0.45593999997E+02  0.45594000000E+02  0.51100000000E-03 0.  1.
    9900012    2    1    2    0    0 -0.24701120897E+02 -0.35595355064E+02  0.25394327046E+01  0.47787269658E+02  0.19999993679E+02 0.  0.
        -12    1    1    2    0    0  0.24701120897E+02  0.35595355064E+02 -0.25394327046E+01  0.43400730342E+02  0.00000000000E+00 0.  1.
         11    1    3    3    0    0 -0.81091836834E+01 -0.71836994110E+01  0.60701438453E+01  0.12418173932E+02  0.51100000000E-03 0. -1.
        -11    1    3    3    0    0  0.27301815329E+00 -0.39517936011E+01 -0.40349130738E+01  0.56543554321E+01  0.51100000000E-03 0.  1.
         12    1    3    3    0    0 -0.16864955367E+02 -0.24459862052E+02  0.50420193312E+00  0.29714740294E+02  0.00000000000E+00 0. -1.
</event>
<event>
 7    1  0.1427898E-010  0.4778727E+02  0.7816164E-02  0.1312668E+00
        -11   -1    0    0    0    0  0.00000000000E+00  0.00000000000E+00  0.45593999997E+02  0.45594000000E+02  0.51100000000E-03 0. -1.
         11   -1    0    0    0    0 -0.00000000000E+00 -0.00000000000E+00 -0.45593999997E+02  0.45594000000E+02  0.51100000000E-03 0.  1.
    9900012    2    1    2    0    0 -0.10991040146E+02 -0.39054650225E+01  0.41803922545E+02  0.47787267740E+02  0.19999984935E+02 0.  0.
        -12    1    1    2    0    0  0.10991040146E+02  0.39054650225E+01 -0.41803922545E+02  0.43400732260E+02  0.00000000000E+00 0.  1.
         11    1    3    3    0    0 -0.46692670472E+01  0.23021477636E+01  0.27669734564E+02  0.28155215329E+02  0.51100000000E-03 0. -1.
        -11    1    3    3    0    0 -0.82804286601E+01 -0.62300427594E+01  0.14307200690E+02  0.17665642458E+02  0.51100000000E-03 0.  1.
        -12    1    3    3    0    0  0.19586555609E+01  0.22429973283E-01 -0.17301271001E+00  0.19664099541E+01  0.00000000000E+00 0.  1.
</event>
<event>
 7    1  0.1427898E-010  0.4778727E+02  0.7816164E-02  0.1312668E+00
        -11   -1    0    0    0    0  0.00000000000E+00  0.00000000000E+00  0.45593999997E+02  0.45594000000E+02  0.51100000000E-03 0.  1.
         11   -1    0    0    0    0 -0.00000000000E+00 -0.00000000000E+00 -0.45593999997E+02  0.45594000000E+02  0.51100000000E-03 0. -1.
    9900012    2    1    2    0    0  0.73856876363E+01 -0.49559737152E+01 -0.42479562210E+02  0.47787271172E+02  0.20000000580E+02 0.  0.
        -12    1    1    2    0    0 -0.73856876363E+01  0.49559737152E+01  0.42479562210E+02  0.43400728828E+02  0.00000000000E+00 0.  1.
         11    1    3    3    0    0  0.30777615611E+01 -0.73005885774E+01 -0.57245569809E+01  0.97745466745E+01  0.51100000000E-03 0. -1.
        -11    1    3    3    0    0  0.28733838368E+01 -0.41636462652E+00 -0.32278722997E+01  0.43415266923E+01  0.51100000000E-03 0.  1.
         12    1    3    3    0    0  0.14345422384E+01  0.27609794887E+01 -0.33527132929E+02  0.33671197805E+02  0.00000000000E+00 0. -1.
</event>
<event>
 7    1  0.1427898E-010  0.4778727E+02  0.7816164E-02  0.1312668E+00
        -11   -1    0    0    0    0  0.00000000000E+00  0.00000000000E+00  0.45593999997E+02  0.45594000000E+02  0.51100000000E-03 0.  1.
         11   -1    0    0    0    0 -0.00000000000E+00 -0.00000000000E+00 -0.45593999997E+02  0.45594000000E+02  0.51100000000E-03 0. -1.
    9900012    2    1    2    0    0 -0.11788930580E+02 -0.23149683041E+02 -0.34766887620E+02  0.47787272081E+02  0.20000004726E+02 0.  0.
        -12    1    1    2    0    0  0.11788930580E+02  0.23149683041E+02  0.34766887620E+02  0.43400727919E+02  0.00000000000E+00 0.  1.
         11    1    3    3    0    0 -0.22293511396E+01 -0.15272005099E+02 -0.16349135790E+02  0.22483291298E+02  0.51100000000E-03 0. -1.
        -11    1    3    3    0    0  0.19830591927E+01  0.14568876190E+01 -0.32997353352E+01  0.41162238568E+01  0.51100000000E-03 0.  1.
        -12    1    3    3    0    0 -0.11542638633E+02 -0.93345655610E+01 -0.15118016495E+02  0.21187756926E+02  0.00000000000E+00 0.  1.
</event>
<event>
 7    1  0.1427898E-010  0.4778727E+02  0.7816164E-02  0.1312668E+00
        -11   -1    0    0    0    0  0.00000000000E+00  0.00000000000E+00  0.45593999997E+02  0.45594000000E+02  0.51100000000E-03 0. -1.
         11   -1    0    0    0    0 -0.00000000000E+00 -0.00000000000E+00 -0.45593999997E+02  0.45594000000E+02  0.51100000000E-03 0.  1.
    9900012    2    1    2    0    0  0.10270575796E+02  0.26677787577E+01  0.42083506534E+02  0.47787270825E+02  0.19999999001E+02 0.  0.
        -12    1    1    2    0    0 -0.10270575796E+02 -0.26677787577E+01 -0.42083506534E+02  0.43400729175E+02  0.00000000000E+00 0.  1.
         11    1    3    3    0    0  0.30702423238E+01  0.80058944113E-01  0.14732629660E+02  0.15049357937E+02  0.51100000000E-03 0. -1.
        -11    1    3    3    0    0  0.10097222263E+02 -0.34614280047E+01  0.12464221807E+02  0.16410125130E+02  0.51100000000E-03 0.  1.
         12    1    3    3    0    0 -0.28968887912E+01  0.60491478183E+01  0.14886655067E+02  0.16327787759E+02  0.00000000000E+00 0. -1.
</event>
<event>
 7    1  0.1427898E-010  0.4778727E+02  0.7816164E-02  0.1312668E+00
        -11   -1    0    0    0    0  0.00000000000E+00  0.00000000000E+00  0.45593999997E+02  0.45594000000E+02  0.51100000000E-03 0.  1.
         11   -1    0    0    0    0 -0.00000000000E+00 -0.00000000000E+00 -0.45593999997E+02  0.45594000000E+02  0.51100000000E-03 0. -1.
    9900012    2    1    2    0    0  0.37015506843E+02 -0.19211642306E+02 -0.12016181733E+02  0.47787267628E+02  0.19999984424E+02 0.  0.
        -12    1    1    2    0    0 -0.37015506843E+02  0.19211642306E+02  0.12016181733E+02  0.43400732372E+02  0.00000000000E+00 0.  1.
         11    1    3    3    0    0  0.13005999370E+02 -0.12791487041E+02 -0.62491702755E+01  0.19282901486E+02  0.51100000000E-03 0. -1.
        -11    1    3    3    0    0  0.63454268204E+00  0.17283584656E-01  0.27380558981E+01  0.28106749190E+01  0.51100000000E-03 0.  1.
         12    1    3    3    0    0  0.23374964792E+02 -0.64374388496E+01 -0.85050673554E+01  0.25693691223E+02  0.00000000000E+00 0. -1.
</event>
<event>
 7    1  0.1427898E-010  0.4778727E+02  0.7816164E-02  0.1312668E+00
        -11   -1    0    0    0    0  0.00000000000E+00  0.00000000000E+00  0.45593999997E+02  0.45594000000E+02  0.51100000000E-03 0.  1.
         11   -1    0    0    0    0 -0.00000000000E+00 -0.00000000000E+00 -0.45593999997E+02  0.45594000000E+02  0.51100000000E-03 0. -1.
    9900012    2    1    2    0    0  0.13085660180E+02  0.73052815713E+01 -0.40731089327E+02  0.47787270986E+02  0.19999999733E+02 0.  0.
        -12    1    1    2    0    0 -0.13085660180E+02 -0.73052815713E+01  0.40731089327E+02  0.43400729014E+02  0.00000000000E+00 0.  1.
         11    1    3    3    0    0  0.84140600238E+01  0.27962743314E+01 -0.22895824737E+02  0.24552685126E+02  0.51100000000E-03 0. -1.
        -11    1    3    3    0    0  0.76485450898E+01 -0.82847979662E+00 -0.14127072302E+02  0.16086043418E+02  0.51100000000E-03 0.  1.
        -12    1    3    3    0    0 -0.29769449333E+01  0.53374870366E+01 -0.37081922879E+01  0.71485424420E+01  0.00000000000E+00 0.  1.
</event>
<event>
 7    1  0.1427898E-010  0.4778726E+02  0.7816164E-02  0.1312668E+00
        -11   -1    0    0    0    0  0.00000000000E+00  0.00000000000E+00  0.45593999997E+02  0.45594000000E+02  0.51100000000E-03 0.  1.
         11   -1    0    0    0    0 -0.00000000000E+00 -0.00000000000E+00 -0.45593999997E+02  0.45594000000E+02  0.51100000000E-03 0. -1.
    9900012    2    1    2    0    0 -0.24013683117E+01  0.25985207008E+02 -0.34678913463E+02  0.47787255859E+02  0.19999930763E+02 0.  0.
        -12    1    1    2    0    0  0.24013683117E+01 -0.25985207008E+02  0.34678913463E+02  0.43400744141E+02  0.00000000000E+00 0.  1.
         11    1    3    3    0    0  0.32044524575E+00  0.95751916843E+01 -0.72030282869E+01  0.11986267046E+02  0.51100000000E-03 0. -1.
        -11    1    3    3    0    0 -0.85723198072E+01  0.51062615365E+01 -0.14703777068E+02  0.17769626729E+02  0.51100000000E-03 0.  1.
        -12    1    3    3    0    0  0.58505062498E+01  0.11303753788E+02 -0.12772108107E+02  0.18031362083E+02  0.00000000000E+00 0.  1.
</event>
<event>
 7    1  0.1427898E-010  0.4778728E+02  0.7816164E-02  0.1312668E+00
        -11   -1    0    0    0    0  0.00000000000E+00  0.00000000000E+00  0.45593999997E+02  0.45594000000E+02  0.51100000000E-03 0. -1.
         11   -1    0    0    0    0 -0.00000000000E+00 -0.00000000000E+00 -0.45593999997E+02  0.45594000000E+02  0.51100000000E-03 0.  1.
    9900012    2    1    2    0    0  0.30796935554E+02  0.15575797782E+02  0.26316648681E+02  0.47787277497E+02  0.20000029418E+02 0.  0.
        -12    1    1    2    0    0 -0.30796935554E+02 -0.15575797782E+02 -0.26316648681E+02  0.43400722503E+02  0.00000000000E+00 0.  1.
         11    1    3    3    0    0  0.21049094123E+01  0.82088673395E+01  0.35764859177E+01  0.91982280039E+01  0.51100000000E-03 0. -1.
        -11    1    3    3    0    0  0.19507102921E+02  0.93329222755E+01  0.17599264457E+02  0.27881259159E+02  0.51100000000E-03 0.  1.
        -12    1    3    3    0    0  0.91849232198E+01 -0.19659918334E+01  0.51408983064E+01  0.10707790334E+02  0.00000000000E+00 0.  1.
</event>
<event>
 7    1  0.1427898E-010  0.4778727E+02  0.7816164E-02  0.1312668E+00
        -11   -1    0    0    0    0  0.00000000000E+00  0.00000000000E+00  0.45593999997E+02  0.45594000000E+02  0.51100000000E-03 0.  1.
         11   -1    0    0    0    0 -0.00000000000E+00 -0.00000000000E+00 -0.45593999997E+02  0.45594000000E+02  0.51100000000E-03 0. -1.
    9900012    2    1    2    0    0 -0.97862656598E+01 -0.41087814346E+02 -0.99821758840E+01  0.47787270528E+02  0.19999997645E+02 0.  0.
        -12    1    1    2    0    0  0.97862656598E+01  0.41087814346E+02  0.99821758840E+01  0.43400729472E+02  0.00000000000E+00 0.  1.
         11    1    3    3    0    0 -0.89202699979E+01 -0.26509612842E+02 -0.28202215489E+01  0.28111998145E+02  0.51100000000E-03 0. -1.
        -11    1    3    3    0    0  0.33587902237E+01 -0.79611955111E+01  0.56588611589E+00  0.86592339783E+01  0.51100000000E-03 0.  1.
        -12    1    3    3    0    0 -0.42247858856E+01 -0.66170059931E+01 -0.77278404511E+01  0.11016038404E+02  0.00000000000E+00 0.  1.
</event>
<event>
 7    1  0.1427898E-010  0.4778727E+02  0.7816164E-02  0.1312668E+00
        -11   -1    0    0    0    0  0.00000000000E+00  0.00000000000E+00  0.45593999997E+02  0.45594000000E+02  0.51100000000E-03 0. -1.
         11   -1    0    0    0    0 -0.00000000000E+00 -0.00000000000E+00 -0.45593999997E+02  0.45594000000E+02  0.51100000000E-03 0.  1.
    9900012    2    1    2    0    0 -0.35615748103E+02 -0.24252135183E+02  0.51938097467E+01  0.47787271509E+02  0.20000002117E+02 0.  0.
        -12    1    1    2    0    0  0.35615748103E+02  0.24252135183E+02 -0.51938097467E+01  0.43400728491E+02  0.00000000000E+00 0.  1.
         11    1    3    3    0    0 -0.23725089443E+02 -0.16811546362E+02  0.15538177193E+01  0.29119105583E+02  0.51100000000E-03 0. -1.
        -11    1    3    3    0    0 -0.10584174503E+02  0.13637868851E+00  0.15294543919E+01  0.10694979198E+02  0.51100000000E-03 0.  1.
         12    1    3    3    0    0 -0.13064841577E+01 -0.75769675092E+01  0.21105376354E+01  0.79731867280E+01  0.00000000000E+00 0. -1.
</event>
<event>
 7    1  0.1427898E-010  0.4778729E+02  0.7816164E-02  0.1312668E+00
        -11   -1    0    0    0    0  0.00000000000E+00  0.00000000000E+00  0.45593999997E+02  0.45594000000E+02  0.51100000000E-03 0.  1.
         11   -1    0    0    0    0 -0.00000000000E+00 -0.00000000000E+00 -0.45593999997E+02  0.45594000000E+02  0.51100000000E-03 0. -1.
    9900012    2    1    2    0    0  0.31592494374E+01 -0.11670354623E+02 -0.41682658272E+02  0.47787285321E+02  0.20000065093E+02 0.  0.
        -12    1    1    2    0    0 -0.31592494374E+01  0.11670354623E+02  0.41682658272E+02  0.43400714679E+02  0.00000000000E+00 0.  1.
         11    1    3    3    0    0  0.32238925705E+01 -0.75244875784E+01 -0.59782251439E+01  0.10136595718E+02  0.51100000000E-03 0.  1.
        -11    1    3    3    0    0 -0.40985894961E+01  0.91819996450E+00 -0.65128853295E+01  0.77497872622E+01  0.51100000000E-03 0. -1.
         12    1    3    3    0    0  0.40339463630E+01 -0.50640670095E+01 -0.29191547798E+02  0.29900902341E+02  0.00000000000E+00 0. -1.
</event>
<event>
 7    1  0.1427898E-010  0.4778727E+02  0.7816164E-02  0.1312668E+00
        -11   -1    0    0    0    0  0.00000000000E+00  0.00000000000E+00  0.45593999997E+02  0.45594000000E+02  0.51100000000E-03 0.  1.
         11   -1    0    0    0    0 -0.00000000000E+00 -0.00000000000E+00 -0.45593999997E+02  0.45594000000E+02  0.51100000000E-03 0. -1.
    9900012    2    1    2    0    0  0.66783067840E+01 -0.13377363695E+02 -0.40743950183E+02  0.47787272847E+02  0.20000008217E+02 0.  0.
        -12    1    1    2    0    0 -0.66783067840E+01  0.13377363695E+02  0.40743950183E+02  0.43400727153E+02  0.00000000000E+00 0.  1.
         11    1    3    3    0    0 -0.63932196184E+00 -0.93102632586E+01 -0.84140938639E+01  0.12565297861E+02  0.51100000000E-03 0. -1.
        -11    1    3    3    0    0 -0.61951390389E+00 -0.38334577535E+00 -0.20472454499E+02  0.20485412980E+02  0.51100000000E-03 0.  1.
         12    1    3    3    0    0  0.79371426498E+01 -0.36837546610E+01 -0.11857401820E+02  0.14736562006E+02  0.00000000000E+00 0. -1.
</event>
<event>
 7    1  0.1427898E-010  0.4778727E+02  0.7816164E-02  0.1312668E+00
        -11   -1    0    0    0    0  0.00000000000E+00  0.00000000000E+00  0.45593999997E+02  0.45594000000E+02  0.51100000000E-03 0.  1.
         11   -1    0    0    0    0 -0.00000000000E+00 -0.00000000000E+00 -0.45593999997E+02  0.45594000000E+02  0.51100000000E-03 0. -1.
    9900012    2    1    2    0    0 -0.32223554787E+02  0.21530298096E+02 -0.19537450761E+02  0.47787271879E+02  0.20000003803E+02 0.  0.
        -12    1    1    2    0    0  0.32223554787E+02 -0.21530298096E+02  0.19537450761E+02  0.43400728121E+02  0.00000000000E+00 0.  1.
         11    1    3    3    0    0 -0.63525929316E+01 -0.88423795816E+00 -0.64152008670E+01  0.90715002148E+01  0.51100000000E-03 0. -1.
        -11    1    3    3    0    0 -0.25615186052E+01  0.90737214636E+01 -0.49151216622E+01  0.10632601750E+02  0.51100000000E-03 0.  1.
        -12    1    3    3    0    0 -0.23309443250E+02  0.13340814590E+02 -0.82071282321E+01  0.28083169914E+02  0.00000000000E+00 0.  1.
</event>
<event>
 7    1  0.1427898E-010  0.4778727E+02  0.7816164E-02  0.1312668E+00
        -11   -1    0    0    0    0  0.00000000000E+00  0.00000000000E+00  0.45593999997E+02  0.45594000000E+02  0.51100000000E-03 0.  1.
         11   -1    0    0    0    0 -0.00000000000E+00 -0.00000000000E+00 -0.45593999997E+02  0.45594000000E+02  0.51100000000E-03 0. -1.
    9900012    2    1    2    0    0 -0.15790679973E+02  0.19260020085E+02 -0.35543344092E+02  0.47787271239E+02  0.20000000889E+02 0.  0.
        -12    1    1    2    0    0  0.15790679973E+02 -0.19260020085E+02  0.35543344092E+02  0.43400728761E+02  0.00000000000E+00 0.  1.
         11    1    3    3    0    0  0.31199234738E+01  0.50453160174E+01 -0.10556500243E+02  0.12109039344E+02  0.51100000000E-03 0. -1.
        -11    1    3    3    0    0 -0.75062157711E+01  0.54257059088E+00 -0.91726756117E+01  0.11864890905E+02  0.51100000000E-03 0.  1.
        -12    1    3    3    0    0 -0.11404387676E+02  0.13672133477E+02 -0.15814168237E+02  0.23813340990E+02  0.00000000000E+00 0.  1.
</event>
<event>
 7    1  0.1427898E-010  0.4778727E+02  0.7816164E-02  0.1312668E+00
        -11   -1    0    0    0    0  0.00000000000E+00  0.00000000000E+00  0.45593999997E+02  0.45594000000E+02  0.51100000000E-03 0.  1.
         11   -1    0    0    0    0 -0.00000000000E+00 -0.00000000000E+00 -0.45593999997E+02  0.45594000000E+02  0.51100000000E-03 0. -1.
    9900012    2    1    2    0    0  0.32323744059E+02 -0.25464792063E+02 -0.13796494478E+02  0.47787270459E+02  0.19999997329E+02 0.  0.
        -12    1    1    2    0    0 -0.32323744059E+02  0.25464792063E+02  0.13796494478E+02  0.43400729541E+02  0.00000000000E+00 0.  1.
         11    1    3    3    0    0  0.63447903855E+01 -0.10055857092E+02 -0.32148207237E+00  0.11894535631E+02  0.51100000000E-03 0. -1.
        -11    1    3    3    0    0  0.27586428775E+02 -0.14058097800E+02 -0.11555925589E+02  0.33048155512E+02  0.51100000000E-03 0.  1.
         12    1    3    3    0    0 -0.16074751014E+01 -0.13508371715E+01 -0.19190868175E+01  0.28445793149E+01  0.00000000000E+00 0. -1.
</event>
<event>
 7    1  0.1427898E-010  0.4778727E+02  0.7816164E-02  0.1312668E+00
        -11   -1    0    0    0    0  0.00000000000E+00  0.00000000000E+00  0.45593999997E+02  0.45594000000E+02  0.51100000000E-03 0.  1.
         11   -1    0    0    0    0 -0.00000000000E+00 -0.00000000000E+00 -0.45593999997E+02  0.45594000000E+02  0.51100000000E-03 0. -1.
    9900012    2    1    2    0    0  0.54213629544E+01  0.20349592584E+01 -0.43012685313E+02  0.47787270360E+02  0.19999996879E+02 0.  0.
        -12    1    1    2    0    0 -0.54213629544E+01 -0.20349592584E+01  0.43012685313E+02  0.43400729640E+02  0.00000000000E+00 0.  1.
         11    1    3    3    0    0  0.64792641433E+01 -0.43299571744E+01 -0.24506691830E+02  0.25715896595E+02  0.51100000000E-03 0. -1.
        -11    1    3    3    0    0  0.37952144856E+01  0.54288137398E+01 -0.74985903226E+01  0.10005225070E+02  0.51100000000E-03 0.  1.
         12    1    3    3    0    0 -0.48531156745E+01  0.93610269301E+00 -0.11007403160E+02  0.12066148695E+02  0.00000000000E+00 0. -1.
</event>
<event>
 7    1  0.1427898E-010  0.4778726E+02  0.7816164E-02  0.1312668E+00
        -11   -1    0    0    0    0  0.00000000000E+00  0.00000000000E+00  0.45593999997E+02  0.45594000000E+02  0.51100000000E-03 0.  1.
         11   -1    0    0    0    0 -0.00000000000E+00 -0.00000000000E+00 -0.45593999997E+02  0.45594000000E+02  0.51100000000E-03 0. -1.
    9900012    2    1    2    0    0  0.20913809427E+02 -0.37811457373E+02  0.40657229705E+01  0.47787264561E+02  0.19999970437E+02 0.  0.
        -12    1    1    2    0    0 -0.20913809427E+02  0.37811457373E+02 -0.40657229705E+01  0.43400735439E+02  0.00000000000E+00 0.  1.
         11    1    3    3    0    0  0.14580456482E+02 -0.15440386567E+02  0.54145445964E+01  0.21916033902E+02  0.51100000000E-03 0. -1.
        -11    1    3    3    0    0  0.96182120142E+01 -0.16967743990E+02 -0.13014504874E+01  0.19547585838E+02  0.51100000000E-03 0.  1.
        -12    1    3    3    0    0 -0.32848590694E+01 -0.54033268164E+01 -0.47371138436E-01  0.63236448205E+01  0.00000000000E+00 0.  1.
</event>
<event>
 7    1  0.1427898E-010  0.4778727E+02  0.7816164E-02  0.1312668E+00
        -11   -1    0    0    0    0  0.00000000000E+00  0.00000000000E+00  0.45593999997E+02  0.45594000000E+02  0.51100000000E-03 0. -1.
         11   -1    0    0    0    0 -0.00000000000E+00 -0.00000000000E+00 -0.45593999997E+02  0.45594000000E+02  0.51100000000E-03 0.  1.
    9900012    2    1    2    0    0  0.18856613663E+02 -0.30572303089E+02 -0.24359515894E+02  0.47787267177E+02  0.19999982367E+02 0.  0.
        -12    1    1    2    0    0 -0.18856613663E+02  0.30572303089E+02  0.24359515894E+02  0.43400732823E+02  0.00000000000E+00 0.  1.
         11    1    3    3    0    0 -0.20253134286E+00 -0.53506568377E+01 -0.53303021712E+01  0.75553073423E+01  0.51100000000E-03 0. -1.
        -11    1    3    3    0    0  0.21439051580E+02 -0.25166866838E+02 -0.17563061335E+02  0.37436148877E+02  0.51100000000E-03 0.  1.
        -12    1    3    3    0    0 -0.23799065740E+01 -0.54779413484E-01 -0.14661523881E+01  0.27958109575E+01  0.00000000000E+00 0.  1.
</event>
<event>
 7    1  0.1427898E-010  0.4778727E+02  0.7816164E-02  0.1312668E+00
        -11   -1    0    0    0    0  0.00000000000E+00  0.00000000000E+00  0.45593999997E+02  0.45594000000E+02  0.51100000000E-03 0. -1.
         11   -1    0    0    0    0 -0.00000000000E+00 -0.00000000000E+00 -0.45593999997E+02  0.45594000000E+02  0.51100000000E-03 0.  1.
    9900012    2    1    2    0    0  0.23568001164E+02  0.21366564336E+02  0.29523596377E+02  0.47787268515E+02  0.19999988469E+02 0.  0.
        -12    1    1    2    0    0 -0.23568001164E+02 -0.21366564336E+02 -0.29523596377E+02  0.43400731485E+02  0.00000000000E+00 0.  1.
         11    1    3    3    0    0  0.13915826753E+02  0.44591972908E+01  0.93580287632E+01  0.17352445859E+02  0.51100000000E-03 0. -1.
        -11    1    3    3    0    0  0.43657124661E+01  0.38713764941E+01 -0.15302041463E-01  0.58350009177E+01  0.51100000000E-03 0.  1.
         12    1    3    3    0    0  0.52864619452E+01  0.13035990551E+02  0.20180869655E+02  0.24599821738E+02  0.00000000000E+00 0. -1.
</event>
<event>
 7    1  0.1427898E-010  0.4778727E+02  0.7816164E-02  0.1312668E+00
        -11   -1    0    0    0    0  0.00000000000E+00  0.00000000000E+00  0.45593999997E+02  0.45594000000E+02  0.51100000000E-03 0.  1.
         11   -1    0    0    0    0 -0.00000000000E+00 -0.00000000000E+00 -0.45593999997E+02  0.45594000000E+02  0.51100000000E-03 0. -1.
    9900012    2    1    2    0    0  0.34941424940E+01 -0.72337993495E+01 -0.42650747597E+02  0.47787272410E+02  0.20000006224E+02 0.  0.
        -12    1    1    2    0    0 -0.34941424940E+01  0.72337993495E+01  0.42650747597E+02  0.43400727590E+02  0.00000000000E+00 0.  1.
         11    1    3    3    0    0  0.58882164519E+01 -0.59910766722E+01 -0.17826360902E+02  0.19706426260E+02  0.51100000000E-03 0. -1.
        -11    1    3    3    0    0  0.45713082903E+01 -0.35297932606E+01 -0.10194292238E+02  0.11716650308E+02  0.51100000000E-03 0.  1.
         12    1    3    3    0    0 -0.69653822482E+01  0.22870705833E+01 -0.14630094458E+02  0.16364195842E+02  0.00000000000E+00 0. -1.
</event>
<event>
 7    1  0.1427898E-010  0.4778727E+02  0.7816164E-02  0.1312668E+00
        -11   -1    0    0    0    0  0.00000000000E+00  0.00000000000E+00  0.45593999997E+02  0.45594000000E+02  0.51100000000E-03 0.  1.
         11   -1    0    0    0    0 -0.00000000000E+00 -0.00000000000E+00 -0.45593999997E+02  0.45594000000E+02  0.51100000000E-03 0. -1.
    9900012    2    1    2    0    0  0.39974480075E+02 -0.12606230497E+02 -0.11258219901E+02  0.47787267057E+02  0.19999981820E+02 0.  0.
        -12    1    1    2    0    0 -0.39974480075E+02  0.12606230497E+02  0.11258219901E+02  0.43400732943E+02  0.00000000000E+00 0.  1.
         11    1    3    3    0    0  0.10840045417E+02 -0.99523899178E+01  0.18875011812E+01  0.14836418391E+02  0.51100000000E-03 0. -1.
        -11    1    3    3    0    0  0.32093658846E+01  0.12763898171E+01 -0.37470347051E+01  0.50960248909E+01  0.51100000000E-03 0.  1.
        -12    1    3    3    0    0  0.25925068774E+02 -0.39302303964E+01 -0.93986863773E+01  0.27854823775E+02  0.00000000000E+00 0.  1.
</event>
<event>
 7    1  0.1427898E-010  0.4778727E+02  0.7816164E-02  0.1312668E+00
        -11   -1    0    0    0    0  0.00000000000E+00  0.00000000000E+00  0.45593999997E+02  0.45594000000E+02  0.51100000000E-03 0.  1.
         11   -1    0    0    0    0 -0.00000000000E+00 -0.00000000000E+00 -0.45593999997E+02  0.45594000000E+02  0.51100000000E-03 0. -1.
    9900012    2    1    2    0    0 -0.33329382763E+02  0.21452875204E+02 -0.17679071040E+02  0.47787272325E+02  0.20000005840E+02 0.  0.
        -12    1    1    2    0    0  0.33329382763E+02 -0.21452875204E+02  0.17679071040E+02  0.43400727675E+02  0.00000000000E+00 0.  1.
         11    1    3    3    0    0 -0.10951472522E+02  0.12512758807E+02 -0.13741170336E+02  0.21571361706E+02  0.51100000000E-03 0. -1.
        -11    1    3    3    0    0 -0.29535069858E+01  0.37317390933E+01  0.21240366099E+01  0.52115843998E+01  0.51100000000E-03 0.  1.
        -12    1    3    3    0    0 -0.19424403255E+02  0.52083773033E+01 -0.60619373133E+01  0.21004326220E+02  0.00000000000E+00 0.  1.
</event>
<event>
 7    1  0.1427898E-010  0.4778727E+02  0.7816164E-02  0.1312668E+00
        -11   -1    0    0    0    0  0.00000000000E+00  0.00000000000E+00  0.45593999997E+02  0.45594000000E+02  0.51100000000E-03 0.  1.
         11   -1    0    0    0    0 -0.00000000000E+00 -0.00000000000E+00 -0.45593999997E+02  0.45594000000E+02  0.51100000000E-03 0. -1.
    9900012    2    1    2    0    0 -0.22045134205E+02  0.90235837935E+01 -0.36279613064E+02  0.47787270391E+02  0.19999997019E+02 0.  0.
        -12    1    1    2    0    0  0.22045134205E+02 -0.90235837935E+01  0.36279613064E+02  0.43400729609E+02  0.00000000000E+00 0.  1.
         11    1    3    3    0    0 -0.51066879719E+01  0.54222917565E+01 -0.41701684953E+01  0.85363818726E+01  0.51100000000E-03 0. -1.
        -11    1    3    3    0    0 -0.37521882180E+00  0.24416137608E+00 -0.15662327661E+02  0.15668724005E+02  0.51100000000E-03 0.  1.
        -12    1    3    3    0    0 -0.16563227411E+02  0.33571306610E+01 -0.16447116908E+02  0.23582164513E+02  0.00000000000E+00 0.  1.
</event>
<event>
 7    1  0.1427898E-010  0.4778727E+02  0.7816164E-02  0.1312668E+00
        -11   -1    0    0    0    0  0.00000000000E+00  0.00000000000E+00  0.45593999997E+02  0.45594000000E+02  0.51100000000E-03 0.  1.
         11   -1    0    0    0    0 -0.00000000000E+00 -0.00000000000E+00 -0.45593999997E+02  0.45594000000E+02  0.51100000000E-03 0. -1.
    9900012    2    1    2    0    0 -0.22341026700E+02 -0.70061982328E+00 -0.37202299420E+02  0.47787269312E+02  0.19999992100E+02 0.  0.
        -12    1    1    2    0    0  0.22341026700E+02  0.70061982328E+00  0.37202299420E+02  0.43400730688E+02  0.00000000000E+00 0.  1.
         11    1    3    3    0    0 -0.15868393415E+00 -0.58591642993E+01 -0.97261617816E+01  0.11355756696E+02  0.51100000000E-03 0.  1.
        -11    1    3    3    0    0 -0.13098737765E+02  0.30888467202E-01 -0.18514325500E+02  0.22679465032E+02  0.51100000000E-03 0. -1.
        -12    1    3    3    0    0 -0.90836050014E+01  0.51276560088E+01 -0.89618121377E+01  0.13752047584E+02  0.00000000000E+00 0.  1.
</event>
<event>
 7    1  0.1427898E-010  0.4778727E+02  0.7816164E-02  0.1312668E+00
        -11   -1    0    0    0    0  0.00000000000E+00  0.00000000000E+00  0.45593999997E+02  0.45594000000E+02  0.51100000000E-03 0.  1.
         11   -1    0    0    0    0 -0.00000000000E+00 -0.00000000000E+00 -0.45593999997E+02  0.45594000000E+02  0.51100000000E-03 0. -1.
    9900012    2    1    2    0    0  0.30356532120E+01  0.41095070042E+02 -0.13623628699E+02  0.47787271537E+02  0.20000002245E+02 0.  0.
        -12    1    1    2    0    0 -0.30356532120E+01 -0.41095070042E+02  0.13623628699E+02  0.43400728463E+02  0.00000000000E+00 0.  1.
         11    1    3    3    0    0 -0.27169510687E+01  0.10238373279E+01  0.50096643395E+00  0.29463593829E+01  0.51100000000E-03 0. -1.
        -11    1    3    3    0    0  0.78044972773E+00  0.13775414015E+02  0.14558718595E+01  0.13874101636E+02  0.51100000000E-03 0.  1.
         12    1    3    3    0    0  0.49721545530E+01  0.26295818699E+02 -0.15580466993E+02  0.30966810518E+02  0.00000000000E+00 0. -1.
</event>
<event>
 7    1  0.1427898E-010  0.4778727E+02  0.7816164E-02  0.1312668E+00
        -11   -1    0    0    0    0  0.00000000000E+00  0.00000000000E+00  0.45593999997E+02  0.45594000000E+02  0.51100000000E-03 0. -1.
         11   -1    0    0    0    0 -0.00000000000E+00 -0.00000000000E+00 -0.45593999997E+02  0.45594000000E+02  0.51100000000E-03 0.  1.
    9900012    2    1    2    0    0 -0.37033501667E+02  0.22603764380E+02  0.11011989445E+01  0.47787273636E+02  0.20000011814E+02 0.  0.
        -12    1    1    2    0    0  0.37033501667E+02 -0.22603764380E+02 -0.11011989445E+01  0.43400726364E+02  0.00000000000E+00 0.  1.
         11    1    3    3    0    0 -0.16666818025E+02  0.13983730972E+02  0.47095717312E+01  0.22260000474E+02  0.51100000000E-03 0. -1.
        -11    1    3    3    0    0 -0.50775389678E+01 -0.19161012907E+01  0.25071258263E+01  0.59781708152E+01  0.51100000000E-03 0.  1.
        -12    1    3    3    0    0 -0.15289144674E+02  0.10536134699E+02 -0.61154986129E+01  0.19549102346E+02  0.00000000000E+00 0.  1.
</event>
<event>
 7    1  0.1427898E-010  0.4778727E+02  0.7816164E-02  0.1312668E+00
        -11   -1    0    0    0    0  0.00000000000E+00  0.00000000000E+00  0.45593999997E+02  0.45594000000E+02  0.51100000000E-03 0.  1.
         11   -1    0    0    0    0 -0.00000000000E+00 -0.00000000000E+00 -0.45593999997E+02  0.45594000000E+02  0.51100000000E-03 0. -1.
    9900012    2    1    2    0    0 -0.32223701152E+02  0.26422739562E+02  0.12128299891E+02  0.47787265673E+02  0.19999975508E+02 0.  0.
        -12    1    1    2    0    0  0.32223701152E+02 -0.26422739562E+02 -0.12128299891E+02  0.43400734327E+02  0.00000000000E+00 0.  1.
         11    1    3    3    0    0 -0.10626588525E+02  0.35048702528E+01  0.14619883138E+01  0.11284764475E+02  0.51100000000E-03 0. -1.
        -11    1    3    3    0    0  0.17812111847E+01  0.53642718443E+01  0.12522542010E+01  0.57893234967E+01  0.51100000000E-03 0.  1.
        -12    1    3    3    0    0 -0.23378323811E+02  0.17553597465E+02  0.94140573763E+01  0.30713177701E+02  0.00000000000E+00 0.  1.
</event>
<event>
 7    1  0.1427898E-010  0.4778727E+02  0.7816164E-02  0.1312668E+00
        -11   -1    0    0    0    0  0.00000000000E+00  0.00000000000E+00  0.45593999997E+02  0.45594000000E+02  0.51100000000E-03 0.  1.
         11   -1    0    0    0    0 -0.00000000000E+00 -0.00000000000E+00 -0.45593999997E+02  0.45594000000E+02  0.51100000000E-03 0. -1.
    9900012    2    1    2    0    0  0.49319384502E+01 -0.25170923816E+02 -0.35010340014E+02  0.47787270392E+02  0.19999997023E+02 0.  0.
        -12    1    1    2    0    0 -0.49319384502E+01  0.25170923816E+02  0.35010340014E+02  0.43400729608E+02  0.00000000000E+00 0.  1.
         11    1    3    3    0    0  0.19437834840E+00 -0.32640910627E+01 -0.14545212157E+01  0.35787854974E+01  0.51100000000E-03 0. -1.
        -11    1    3    3    0    0  0.38338633272E+01 -0.10967640245E+02 -0.33826708002E+01  0.12100830655E+02  0.51100000000E-03 0.  1.
         12    1    3    3    0    0  0.90369677468E+00 -0.10939192509E+02 -0.30173147998E+02  0.32107654239E+02  0.00000000000E+00 0. -1.
</event>
<event>
 7    1  0.1427898E-010  0.4778726E+02  0.7816164E-02  0.1312668E+00
        -11   -1    0    0    0    0  0.00000000000E+00  0.00000000000E+00  0.45593999997E+02  0.45594000000E+02  0.51100000000E-03 0.  1.
         11   -1    0    0    0    0 -0.00000000000E+00 -0.00000000000E+00 -0.45593999997E+02  0.45594000000E+02  0.51100000000E-03 0. -1.
    9900012    2    1    2    0    0 -0.13003946736E+02 -0.41367188558E+02  0.18102368243E+01  0.47787264093E+02  0.19999968307E+02 0.  0.
        -12    1    1    2    0    0  0.13003946736E+02  0.41367188558E+02 -0.18102368243E+01  0.43400735907E+02  0.00000000000E+00 0.  1.
         11    1    3    3    0    0 -0.54932638477E+01 -0.14657288556E+02  0.76782858751E+01  0.17434681808E+02  0.51100000000E-03 0. -1.
        -11    1    3    3    0    0 -0.29144522641E+00 -0.60793308116E+01  0.29747068569E+01  0.67743696816E+01  0.51100000000E-03 0.  1.
         12    1    3    3    0    0 -0.72192376621E+01 -0.20630569191E+02 -0.88427559076E+01  0.23578212604E+02  0.00000000000E+00 0. -1.
</event>
<event>
 7    1  0.1427898E-010  0.4778727E+02  0.7816164E-02  0.1312668E+00
        -11   -1    0    0    0    0  0.00000000000E+00  0.00000000000E+00  0.45593999997E+02  0.45594000000E+02  0.51100000000E-03 0. -1.
         11   -1    0    0    0    0 -0.00000000000E+00 -0.00000000000E+00 -0.45593999997E+02  0.45594000000E+02  0.51100000000E-03 0.  1.
    9900012    2    1    2    0    0  0.15632944779E+02  0.31249937414E+02  0.25742490502E+02  0.47787269959E+02  0.19999995050E+02 0.  0.
        -12    1    1    2    0    0 -0.15632944779E+02 -0.31249937414E+02 -0.25742490502E+02  0.43400730041E+02  0.00000000000E+00 0.  1.
         11    1    3    3    0    0  0.38966898328E+01  0.24243515780E+02  0.19953003698E+02  0.31639446990E+02  0.51100000000E-03 0. -1.
        -11    1    3    3    0    0  0.62986679184E+01  0.70558406403E+01  0.24645662453E+01  0.97740570761E+01  0.51100000000E-03 0.  1.
        -12    1    3    3    0    0  0.54375870281E+01 -0.49419006427E-01  0.33249205589E+01  0.63737658923E+01  0.00000000000E+00 0.  1.
</event>
<event>
 7    1  0.1427898E-010  0.4778727E+02  0.7816164E-02  0.1312668E+00
        -11   -1    0    0    0    0  0.00000000000E+00  0.00000000000E+00  0.45593999997E+02  0.45594000000E+02  0.51100000000E-03 0.  1.
         11   -1    0    0    0    0 -0.00000000000E+00 -0.00000000000E+00 -0.45593999997E+02  0.45594000000E+02  0.51100000000E-03 0. -1.
    9900012    2    1    2    0    0 -0.99179676391E+01  0.21962802370E+01 -0.42195187976E+02  0.47787267088E+02  0.19999981961E+02 0.  0.
        -12    1    1    2    0    0  0.99179676391E+01 -0.21962802370E+01  0.42195187976E+02  0.43400732912E+02  0.00000000000E+00 0.  1.
         11    1    3    3    0    0 -0.59762824282E+01  0.48748351872E+00 -0.43776681168E+01  0.74241208398E+01  0.51100000000E-03 0. -1.
        -11    1    3    3    0    0 -0.16708950265E+01 -0.40585840894E+01 -0.30316430034E+02  0.30632497862E+02  0.51100000000E-03 0.  1.
        -12    1    3    3    0    0 -0.22707901843E+01  0.57673808078E+01 -0.75010898250E+01  0.97306483857E+01  0.00000000000E+00 0.  1.
</event>
<event>
 7    1  0.1427898E-010  0.4778725E+02  0.7816164E-02  0.1312668E+00
        -11   -1    0    0    0    0  0.00000000000E+00  0.00000000000E+00  0.45593999997E+02  0.45594000000E+02  0.51100000000E-03 0.  1.
         11   -1    0    0    0    0 -0.00000000000E+00 -0.00000000000E+00 -0.45593999997E+02  0.45594000000E+02  0.51100000000E-03 0. -1.
    9900012    2    1    2    0    0 -0.28436207381E+02  0.15650352008E+02 -0.28810992571E+02  0.47787254602E+02  0.19999925031E+02 0.  0.
        -12    1    1    2    0    0  0.28436207381E+02 -0.15650352008E+02  0.28810992571E+02  0.43400745398E+02  0.00000000000E+00 0.  1.
         11    1    3    3    0    0 -0.55445896031E+01  0.94658947474E+01 -0.11403813080E+02  0.15823798225E+02  0.51100000000E-03 0. -1.
        -11    1    3    3    0    0 -0.22127995495E+02  0.86696919692E+01 -0.17235872736E+02  0.29357912949E+02  0.51100000000E-03 0.  1.
         12    1    3    3    0    0 -0.76362228296E+00 -0.24852347090E+01 -0.17130675493E+00  0.26055434278E+01  0.00000000000E+00 0. -1.
</event>
<event>
 7    1  0.1427898E-010  0.4778727E+02  0.7816164E-02  0.1312668E+00
        -11   -1    0    0    0    0  0.00000000000E+00  0.00000000000E+00  0.45593999997E+02  0.45594000000E+02  0.51100000000E-03 0.  1.
         11   -1    0    0    0    0 -0.00000000000E+00 -0.00000000000E+00 -0.45593999997E+02  0.45594000000E+02  0.51100000000E-03 0. -1.
    9900012    2    1    2    0    0 -0.18149620155E+02  0.28694443680E+00 -0.39422487645E+02  0.47787267506E+02  0.19999983869E+02 0.  0.
        -12    1    1    2    0    0  0.18149620155E+02 -0.28694443680E+00  0.39422487645E+02  0.43400732494E+02  0.00000000000E+00 0.  1.
         11    1    3    3    0    0 -0.21335971914E+01 -0.24128867349E+01 -0.10456825651E+02  0.10941638923E+02  0.51100000000E-03 0. -1.
        -11    1    3    3    0    0 -0.16137310841E+02  0.32096708479E+01 -0.13260871526E+02  0.21132096489E+02  0.51100000000E-03 0.  1.
        -12    1    3    3    0    0  0.12128787687E+00 -0.50983967620E+00 -0.15704790468E+02  0.15713532095E+02  0.00000000000E+00 0.  1.
</event>
<event>
 7    1  0.1744240E-010  0.4778726E+02  0.7816164E-02  0.1312668E+00
        -11   -1    0    0    0    0  0.00000000000E+00  0.00000000000E+00  0.45593999997E+02  0.45594000000E+02  0.51100000000E-03 0. -1.
         11   -1    0    0    0    0 -0.00000000000E+00 -0.00000000000E+00 -0.45593999997E+02  0.45594000000E+02  0.51100000000E-03 0.  1.
    9900012    2    1    2    0    0 -0.20309818348E+02  0.38154913352E+02 -0.39163413169E+01  0.47787264251E+02  0.19999969025E+02 0.  0.
        -12    1    1    2    0    0  0.20309818348E+02 -0.38154913352E+02  0.39163413169E+01  0.43400735749E+02  0.00000000000E+00 0.  1.
         11    1    3    3    0    0 -0.80696340200E+01  0.10029449176E+02  0.15486714973E+01  0.12965617133E+02  0.51100000000E-03 0. -1.
        -11    1    3    3    0    0 -0.86082300088E+01  0.18602830672E+02 -0.10958762860E+02  0.23243524186E+02  0.51100000000E-03 0.  1.
        -12    1    3    3    0    0 -0.36319543194E+01  0.95226335045E+01  0.54937500463E+01  0.11578122931E+02  0.00000000000E+00 0.  1.
</event>
<event>
 7    1  0.1427898E-010  0.4778727E+02  0.7816164E-02  0.1312668E+00
        -11   -1    0    0    0    0  0.00000000000E+00  0.00000000000E+00  0.45593999997E+02  0.45594000000E+02  0.51100000000E-03 0. -1.
         11   -1    0    0    0    0 -0.00000000000E+00 -0.00000000000E+00 -0.45593999997E+02  0.45594000000E+02  0.51100000000E-03 0.  1.
    9900012    2    1    2    0    0 -0.54924851164E+01 -0.45346340794E+01  0.42812297444E+02  0.47787272916E+02  0.20000008534E+02 0.  0.
        -12    1    1    2    0    0  0.54924851164E+01  0.45346340794E+01 -0.42812297444E+02  0.43400727084E+02  0.00000000000E+00 0.  1.
         11    1    3    3    0    0 -0.21922916423E+01 -0.34222527480E+01  0.48585582887E+01  0.63343149134E+01  0.51100000000E-03 0. -1.
        -11    1    3    3    0    0 -0.40519255173E+01 -0.83422421841E+01  0.18716278886E+02  0.20888039656E+02  0.51100000000E-03 0.  1.
         12    1    3    3    0    0  0.75173204328E+00  0.72298608527E+01  0.19237460269E+02  0.20564918347E+02  0.00000000000E+00 0. -1.
</event>
<event>
 7    1  0.1427898E-010  0.4778727E+02  0.7816164E-02  0.1312668E+00
        -11   -1    0    0    0    0  0.00000000000E+00  0.00000000000E+00  0.45593999997E+02  0.45594000000E+02  0.51100000000E-03 0. -1.
         11   -1    0    0    0    0 -0.00000000000E+00 -0.00000000000E+00 -0.45593999997E+02  0.45594000000E+02  0.51100000000E-03 0.  1.
    9900012    2    1    2    0    0 -0.43081090828E+01  0.12912058458E+01  0.43167074604E+02  0.47787270210E+02  0.19999996197E+02 0.  0.
        -12    1    1    2    0    0  0.43081090828E+01 -0.12912058458E+01 -0.43167074604E+02  0.43400729790E+02  0.00000000000E+00 0.  1.
         11    1    3    3    0    0  0.13990951422E+01 -0.19855658310E+01  0.84870962799E+01  0.88278390568E+01  0.51100000000E-03 0.  1.
        -11    1    3    3    0    0 -0.80771546036E+01  0.74513051633E+01  0.31061251571E+02  0.32947894084E+02  0.51100000000E-03 0. -1.
         12    1    3    3    0    0  0.23699503787E+01 -0.41745334865E+01  0.36187267531E+01  0.60115370697E+01  0.00000000000E+00 0. -1.
</event>
<event>
 7    1  0.1427898E-010  0.4778727E+02  0.7816164E-02  0.1312668E+00
        -11   -1    0    0    0    0  0.00000000000E+00  0.00000000000E+00  0.45593999997E+02  0.45594000000E+02  0.51100000000E-03 0.  1.
         11   -1    0    0    0    0 -0.00000000000E+00 -0.00000000000E+00 -0.45593999997E+02  0.45594000000E+02  0.51100000000E-03 0. -1.
    9900012    2    1    2    0    0 -0.89007632800E+01 -0.36954974510E+02 -0.20945866391E+02  0.47787273660E+02  0.20000011923E+02 0.  0.
        -12    1    1    2    0    0  0.89007632800E+01  0.36954974510E+02  0.20945866391E+02  0.43400726340E+02  0.00000000000E+00 0.  1.
         11    1    3    3    0    0 -0.52805107320E+01 -0.20145768972E+02 -0.30247338469E+01  0.21044828727E+02  0.51100000000E-03 0. -1.
        -11    1    3    3    0    0 -0.68018684880E+01 -0.12797530029E+02 -0.14954271288E+02  0.20824802995E+02  0.51100000000E-03 0.  1.
        -12    1    3    3    0    0  0.31816159401E+01 -0.40116755100E+01 -0.29668612558E+01  0.59176419374E+01  0.00000000000E+00 0.  1.
</event>
<event>
 7    1  0.1427898E-010  0.4778727E+02  0.7816164E-02  0.1312668E+00
        -11   -1    0    0    0    0  0.00000000000E+00  0.00000000000E+00  0.45593999997E+02  0.45594000000E+02  0.51100000000E-03 0.  1.
         11   -1    0    0    0    0 -0.00000000000E+00 -0.00000000000E+00 -0.45593999997E+02  0.45594000000E+02  0.51100000000E-03 0. -1.
    9900012    2    1    2    0    0  0.40132706233E+02 -0.16423243512E+02  0.18073135437E+01  0.47787269369E+02  0.19999992362E+02 0.  0.
        -12    1    1    2    0    0 -0.40132706233E+02  0.16423243512E+02 -0.18073135437E+01  0.43400730631E+02  0.00000000000E+00 0.  1.
         11    1    3    3    0    0  0.11128213812E+02 -0.10328769613E+02  0.58277073690E+01  0.16262927099E+02  0.51100000000E-03 0.  1.
        -11    1    3    3    0    0  0.52054681692E+01  0.20101282181E+01 -0.30617903008E+01  0.63649096161E+01  0.51100000000E-03 0. -1.
        -12    1    3    3    0    0  0.23799024251E+02 -0.81046021175E+01 -0.95860352442E+00  0.25159432655E+02  0.00000000000E+00 0.  1.
</event>
<event>
 7    1  0.1427898E-010  0.4778728E+02  0.7816164E-02  0.1312668E+00
        -11   -1    0    0    0    0  0.00000000000E+00  0.00000000000E+00  0.45593999997E+02  0.45594000000E+02  0.51100000000E-03 0. -1.
         11   -1    0    0    0    0 -0.00000000000E+00 -0.00000000000E+00 -0.45593999997E+02  0.45594000000E+02  0.51100000000E-03 0.  1.
    9900012    2    1    2    0    0  0.63778032187E+01  0.34585514717E+02  0.25432039175E+02  0.47787276288E+02  0.20000023906E+02 0.  0.
        -12    1    1    2    0    0 -0.63778032187E+01 -0.34585514717E+02 -0.25432039175E+02  0.43400723712E+02  0.00000000000E+00 0.  1.
         11    1    3    3    0    0  0.10242966955E+01  0.15468035142E+02  0.33234612958E+01  0.15854169487E+02  0.51100000000E-03 0. -1.
        -11    1    3    3    0    0  0.72000874194E+01  0.10489753190E+02  0.72264279251E+01  0.14632068946E+02  0.51100000000E-03 0.  1.
         12    1    3    3    0    0 -0.18465808962E+01  0.86277263853E+01  0.14882149954E+02  0.17301037854E+02  0.00000000000E+00 0. -1.
</event>
<event>
 7    1  0.1427898E-010  0.4778727E+02  0.7816164E-02  0.1312668E+00
        -11   -1    0    0    0    0  0.00000000000E+00  0.00000000000E+00  0.45593999997E+02  0.45594000000E+02  0.51100000000E-03 0.  1.
         11   -1    0    0    0    0 -0.00000000000E+00 -0.00000000000E+00 -0.45593999997E+02  0.45594000000E+02  0.51100000000E-03 0. -1.
    9900012    2    1    2    0    0 -0.41481311936E+02 -0.12104316374E+02 -0.40508653363E+01  0.47787271610E+02  0.20000002580E+02 0.  0.
        -12    1    1    2    0    0  0.41481311936E+02  0.12104316374E+02  0.40508653363E+01  0.43400728390E+02  0.00000000000E+00 0.  1.
         11    1    3    3    0    0 -0.26226768393E+02 -0.13260278925E+02 -0.15856576030E+01  0.29431151656E+02  0.51100000000E-03 0. -1.
        -11    1    3    3    0    0 -0.96689035782E+01 -0.10965266454E+01 -0.59422537008E+01  0.11401773827E+02  0.51100000000E-03 0.  1.
        -12    1    3    3    0    0 -0.55856399646E+01  0.22524891971E+01  0.34770459675E+01  0.69543461273E+01  0.00000000000E+00 0.  1.
</event>
<event>
 7    1  0.1427898E-010  0.4778727E+02  0.7816164E-02  0.1312668E+00
        -11   -1    0    0    0    0  0.00000000000E+00  0.00000000000E+00  0.45593999997E+02  0.45594000000E+02  0.51100000000E-03 0. -1.
         11   -1    0    0    0    0 -0.00000000000E+00 -0.00000000000E+00 -0.45593999997E+02  0.45594000000E+02  0.51100000000E-03 0.  1.
    9900012    2    1    2    0    0  0.22946417518E+01 -0.21577063476E+02  0.37587075099E+02  0.47787271164E+02  0.20000000544E+02 0.  0.
        -12    1    1    2    0    0 -0.22946417518E+01  0.21577063476E+02 -0.37587075099E+02  0.43400728836E+02  0.00000000000E+00 0.  1.
         11    1    3    3    0    0 -0.74665091051E+00 -0.76188164222E+01  0.21840887355E+02  0.23143643014E+02  0.51100000000E-03 0. -1.
        -11    1    3    3    0    0  0.21545995559E+01  0.20148229384E+01  0.21753100632E+01  0.36652127976E+01  0.51100000000E-03 0.  1.
        -12    1    3    3    0    0  0.88669310642E+00 -0.15973069992E+02  0.13570877681E+02  0.20978415352E+02  0.00000000000E+00 0.  1.
</event>
<event>
 7    1  0.1427898E-010  0.4778727E+02  0.7816164E-02  0.1312668E+00
        -11   -1    0    0    0    0  0.00000000000E+00  0.00000000000E+00  0.45593999997E+02  0.45594000000E+02  0.51100000000E-03 0.  1.
         11   -1    0    0    0    0 -0.00000000000E+00 -0.00000000000E+00 -0.45593999997E+02  0.45594000000E+02  0.51100000000E-03 0. -1.
    9900012    2    1    2    0    0  0.28333117835E+02  0.15336804202E+02 -0.29079892187E+02  0.47787271216E+02  0.20000000782E+02 0.  0.
        -12    1    1    2    0    0 -0.28333117835E+02 -0.15336804202E+02  0.29079892187E+02  0.43400728784E+02  0.00000000000E+00 0.  1.
         11    1    3    3    0    0  0.53149623691E+01  0.61028831749E+01 -0.53557554944E-01  0.80930140680E+01  0.51100000000E-03 0.  1.
        -11    1    3    3    0    0  0.53912474397E+01  0.53395573374E+01 -0.15083939390E+02  0.16884953340E+02  0.51100000000E-03 0. -1.
         12    1    3    3    0    0  0.17626908026E+02  0.38943636897E+01 -0.13942395242E+02  0.22809303808E+02  0.00000000000E+00 0. -1.
</event>
<event>
 7    1  0.1427898E-010  0.4778729E+02  0.7816164E-02  0.1312668E+00
        -11   -1    0    0    0    0  0.00000000000E+00  0.00000000000E+00  0.45593999997E+02  0.45594000000E+02  0.51100000000E-03 0. -1.
         11   -1    0    0    0    0 -0.00000000000E+00 -0.00000000000E+00 -0.45593999997E+02  0.45594000000E+02  0.51100000000E-03 0.  1.
    9900012    2    1    2    0    0  0.15428518328E+02  0.19556665348E+02  0.35540388518E+02  0.47787290866E+02  0.20000090373E+02 0.  0.
        -12    1    1    2    0    0 -0.15428518328E+02 -0.19556665348E+02 -0.35540388518E+02  0.43400709134E+02  0.00000000000E+00 0.  1.
         11    1    3    3    0    0  0.47874085233E+01  0.54531437219E+01  0.12124893312E+02  0.14130431519E+02  0.51100000000E-03 0. -1.
        -11    1    3    3    0    0  0.62230087177E+01  0.24686720926E+01 -0.48276576650E+00  0.67121712171E+01  0.51100000000E-03 0.  1.
        -12    1    3    3    0    0  0.44181010872E+01  0.11634849534E+02  0.23898260973E+02  0.26944688130E+02  0.00000000000E+00 0.  1.
</event>
<event>
 7    1  0.1427898E-010  0.4778727E+02  0.7816164E-02  0.1312668E+00
        -11   -1    0    0    0    0  0.00000000000E+00  0.00000000000E+00  0.45593999997E+02  0.45594000000E+02  0.51100000000E-03 0. -1.
         11   -1    0    0    0    0 -0.00000000000E+00 -0.00000000000E+00 -0.45593999997E+02  0.45594000000E+02  0.51100000000E-03 0.  1.
    9900012    2    1    2    0    0 -0.35051935790E+02  0.22332108251E+02  0.12500474915E+02  0.47787272648E+02  0.20000007313E+02 0.  0.
        -12    1    1    2    0    0  0.35051935790E+02 -0.22332108251E+02 -0.12500474915E+02  0.43400727352E+02  0.00000000000E+00 0.  1.
         11    1    3    3    0    0 -0.34926884048E+01  0.10940984759E+02  0.77193059800E+00  0.11510859955E+02  0.51100000000E-03 0. -1.
        -11    1    3    3    0    0 -0.32036114902E+01  0.35679719787E+01  0.27197325892E+01  0.55127575894E+01  0.51100000000E-03 0.  1.
        -12    1    3    3    0    0 -0.28355635895E+02  0.78231515126E+01  0.90088117274E+01  0.30763655104E+02  0.00000000000E+00 0.  1.
</event>
<event>
 7    1  0.1427898E-010  0.4778727E+02  0.7816164E-02  0.1312668E+00
        -11   -1    0    0    0    0  0.00000000000E+00  0.00000000000E+00  0.45593999997E+02  0.45594000000E+02  0.51100000000E-03 0.  1.
         11   -1    0    0    0    0 -0.00000000000E+00 -0.00000000000E+00 -0.45593999997E+02  0.45594000000E+02  0.51100000000E-03 0. -1.
    9900012    2    1    2    0    0 -0.19189170003E+02 -0.38136993580E+02  0.78082441136E+01  0.47787271885E+02  0.20000003833E+02 0.  0.
        -12    1    1    2    0    0  0.19189170003E+02  0.38136993580E+02 -0.78082441136E+01  0.43400728115E+02  0.00000000000E+00 0.  1.
         11    1    3    3    0    0 -0.85459549264E+01 -0.12963983549E+02  0.22772257368E+01  0.15693437240E+02  0.51100000000E-03 0. -1.
        -11    1    3    3    0    0  0.21678000582E+01 -0.15122160309E+02  0.36121923966E+01  0.15697994256E+02  0.51100000000E-03 0.  1.
        -12    1    3    3    0    0 -0.12811015135E+02 -0.10050849722E+02  0.19188259803E+01  0.16395840389E+02  0.00000000000E+00 0.  1.
</event>
<event>
 7    1  0.1427898E-010  0.4778728E+02  0.7816164E-02  0.1312668E+00
        -11   -1    0    0    0    0  0.00000000000E+00  0.00000000000E+00  0.45593999997E+02  0.45594000000E+02  0.51100000000E-03 0. -1.
         11   -1    0    0    0    0 -0.00000000000E+00 -0.00000000000E+00 -0.45593999997E+02  0.45594000000E+02  0.51100000000E-03 0.  1.
    9900012    2    1    2    0    0 -0.38917503568E+02  0.17302521169E+02  0.83470560770E+01  0.47787278025E+02  0.20000031828E+02 0.  0.
        -12    1    1    2    0    0  0.38917503568E+02 -0.17302521169E+02 -0.83470560770E+01  0.43400721975E+02  0.00000000000E+00 0.  1.
         11    1    3    3    0    0 -0.19109245588E+01  0.86082692731E+01  0.19635354355E+01  0.90337923495E+01  0.51100000000E-03 0. -1.
        -11    1    3    3    0    0 -0.14153714245E+02  0.14429883945E+01  0.30041271319E+01  0.14540791674E+02  0.51100000000E-03 0.  1.
        -12    1    3    3    0    0 -0.22852864765E+02  0.72512635015E+01  0.33793935095E+01  0.24212694002E+02  0.00000000000E+00 0.  1.
</event>
<event>
 7    1  0.1427898E-010  0.4778727E+02  0.7816164E-02  0.1312668E+00
        -11   -1    0    0    0    0  0.00000000000E+00  0.00000000000E+00  0.45593999997E+02  0.45594000000E+02  0.51100000000E-03 0.  1.
         11   -1    0    0    0    0 -0.00000000000E+00 -0.00000000000E+00 -0.45593999997E+02  0.45594000000E+02  0.51100000000E-03 0. -1.
    9900012    2    1    2    0    0  0.35097511844E+02  0.25461234046E+02  0.18745267904E+01  0.47787266971E+02  0.19999981427E+02 0.  0.
        -12    1    1    2    0    0 -0.35097511844E+02 -0.25461234046E+02 -0.18745267904E+01  0.43400733029E+02  0.00000000000E+00 0.  1.
         11    1    3    3    0    0  0.20552954279E+02  0.19482051083E+02 -0.19193830641E+01  0.28384120131E+02  0.51100000000E-03 0. -1.
        -11    1    3    3    0    0  0.15983874118E+02  0.51508045920E+01  0.19254099532E+01  0.16903319896E+02  0.51100000000E-03 0.  1.
        -12    1    3    3    0    0 -0.14393165534E+01  0.82837837146E+00  0.18684999012E+01  0.24998269436E+01  0.00000000000E+00 0.  1.
</event>
<event>
 7    1  0.1498937E-010  0.4778727E+02  0.7816164E-02  0.1312668E+00
        -11   -1    0    0    0    0  0.00000000000E+00  0.00000000000E+00  0.45593999997E+02  0.45594000000E+02  0.51100000000E-03 0.  1.
         11   -1    0    0    0    0 -0.00000000000E+00 -0.00000000000E+00 -0.45593999997E+02  0.45594000000E+02  0.51100000000E-03 0. -1.
    9900012    2    1    2    0    0 -0.19979987755E+02  0.38249024782E+02 -0.46298712248E+01  0.47787268267E+02  0.19999987335E+02 0.  0.
        -12    1    1    2    0    0  0.19979987755E+02 -0.38249024782E+02  0.46298712248E+01  0.43400731733E+02  0.00000000000E+00 0.  1.
         11    1    3    3    0    0 -0.10875066792E+02  0.10584820189E+02 -0.82297634470E+01  0.17263675820E+02  0.51100000000E-03 0. -1.
        -11    1    3    3    0    0 -0.66633987307E+00  0.30842074349E+01  0.32546512616E+01  0.45331114506E+01  0.51100000000E-03 0.  1.
         12    1    3    3    0    0 -0.84385810892E+01  0.24579997158E+02  0.34524096066E+00  0.25990480996E+02  0.00000000000E+00 0. -1.
</event>
<event>
 7    1  0.1427898E-010  0.4778728E+02  0.7816164E-02  0.1312668E+00
        -11   -1    0    0    0    0  0.00000000000E+00  0.00000000000E+00  0.45593999997E+02  0.45594000000E+02  0.51100000000E-03 0.  1.
         11   -1    0    0    0    0 -0.00000000000E+00 -0.00000000000E+00 -0.45593999997E+02  0.45594000000E+02  0.51100000000E-03 0. -1.
    9900012    2    1    2    0    0  0.33376781490E+02 -0.59606851098E+01 -0.27093969892E+02  0.47787279797E+02  0.20000039908E+02 0.  0.
        -12    1    1    2    0    0 -0.33376781490E+02  0.59606851098E+01  0.27093969892E+02  0.43400720203E+02  0.00000000000E+00 0.  1.
         11    1    3    3    0    0  0.10079457476E+01  0.47107831679E+00  0.19195909528E+01  0.22187156415E+01  0.51100000000E-03 0.  1.
        -11    1    3    3    0    0  0.19247373338E+02  0.13032301844E+01 -0.11936724768E+02  0.22685792642E+02  0.51100000000E-03 0. -1.
        -12    1    3    3    0    0  0.13121462405E+02 -0.77349936111E+01 -0.17076836076E+02  0.22882771514E+02  0.00000000000E+00 0.  1.
</event>
<event>
 7    1  0.2253470E-010  0.4778727E+02  0.7816164E-02  0.1312668E+00
        -11   -1    0    0    0    0  0.00000000000E+00  0.00000000000E+00  0.45593999997E+02  0.45594000000E+02  0.51100000000E-03 0. -1.
         11   -1    0    0    0    0 -0.00000000000E+00 -0.00000000000E+00 -0.45593999997E+02  0.45594000000E+02  0.51100000000E-03 0.  1.
    9900012    2    1    2    0    0 -0.26594115648E+02 -0.31824972529E+01  0.34150379793E+02  0.47787265952E+02  0.19999976782E+02 0.  0.
        -12    1    1    2    0    0  0.26594115648E+02  0.31824972529E+01 -0.34150379793E+02  0.43400734048E+02  0.00000000000E+00 0.  1.
         11    1    3    3    0    0 -0.16124307360E+02 -0.28824234583E+01  0.31802054016E+02  0.35772507499E+02  0.51100000000E-03 0. -1.
        -11    1    3    3    0    0 -0.31870836338E+01  0.23600658801E+01  0.13904143630E+01  0.42024594476E+01  0.51100000000E-03 0.  1.
         12    1    3    3    0    0 -0.72827246544E+01 -0.26601396746E+01  0.95791141402E+00  0.78122990059E+01  0.00000000000E+00 0. -1.
</event>
<event>
 7    1  0.1427898E-010  0.4778727E+02  0.7816164E-02  0.1312668E+00
        -11   -1    0    0    0    0  0.00000000000E+00  0.00000000000E+00  0.45593999997E+02  0.45594000000E+02  0.51100000000E-03 0.  1.
         11   -1    0    0    0    0 -0.00000000000E+00 -0.00000000000E+00 -0.45593999997E+02  0.45594000000E+02  0.51100000000E-03 0. -1.
    9900012    2    1    2    0    0  0.27104816228E+02  0.43549295103E+01 -0.33615275551E+02  0.47787271618E+02  0.20000002613E+02 0.  0.
        -12    1    1    2    0    0 -0.27104816228E+02 -0.43549295103E+01  0.33615275551E+02  0.43400728382E+02  0.00000000000E+00 0.  1.
         11    1    3    3    0    0 -0.23360641758E+01  0.27332810596E+01 -0.67529053404E+01  0.76504739711E+01  0.51100000000E-03 0.  1.
        -11    1    3    3    0    0  0.11516238537E+02  0.16960635206E+01 -0.13195938232E+02  0.17596396438E+02  0.51100000000E-03 0. -1.
        -12    1    3    3    0    0  0.17924641866E+02 -0.74415069881E-01 -0.13666431978E+02  0.22540401209E+02  0.00000000000E+00 0.  1.
</event>
<event>
 7    1  0.1427898E-010  0.4778729E+02  0.7816164E-02  0.1312668E+00
        -11   -1    0    0    0    0  0.00000000000E+00  0.00000000000E+00  0.45593999997E+02  0.45594000000E+02  0.51100000000E-03 0. -1.
         11   -1    0    0    0    0 -0.00000000000E+00 -0.00000000000E+00 -0.45593999997E+02  0.45594000000E+02  0.51100000000E-03 0.  1.
    9900012    2    1    2    0    0  0.14512802355E+02  0.27683665916E+02  0.30110039810E+02  0.47787293922E+02  0.20000104307E+02 0.  0.
        -12    1    1    2    0    0 -0.14512802355E+02 -0.27683665916E+02 -0.30110039810E+02  0.43400706078E+02  0.00000000000E+00 0.  1.
         11    1    3    3    0    0  0.96848564956E+01  0.24598662269E+02  0.27946601000E+02  0.38469509205E+02  0.51100000000E-03 0. -1.
        -11    1    3    3    0    0 -0.14285404678E+01  0.27094484160E+00 -0.99860977189E+00  0.17639049614E+01  0.51100000000E-03 0.  1.
        -12    1    3    3    0    0  0.62564863277E+01  0.28140588050E+01  0.31620485823E+01  0.75538797557E+01  0.00000000000E+00 0.  1.
</event>
<event>
 7    1  0.1983199E-010  0.4778727E+02  0.7816164E-02  0.1312668E+00
        -11   -1    0    0    0    0  0.00000000000E+00  0.00000000000E+00  0.45593999997E+02  0.45594000000E+02  0.51100000000E-03 0.  1.
         11   -1    0    0    0    0 -0.00000000000E+00 -0.00000000000E+00 -0.45593999997E+02  0.45594000000E+02  0.51100000000E-03 0. -1.
    9900012    2    1    2    0    0 -0.20079314300E+02  0.28415873166E+02  0.25941911041E+02  0.47787268912E+02  0.19999990277E+02 0.  0.
        -12    1    1    2    0    0  0.20079314300E+02 -0.28415873166E+02 -0.25941911041E+02  0.43400731088E+02  0.00000000000E+00 0.  1.
         11    1    3    3    0    0 -0.16468459235E+02  0.12100546869E+02  0.68969001689E+01  0.21568509831E+02  0.51100000000E-03 0. -1.
        -11    1    3    3    0    0 -0.20735667504E+00  0.11861438853E+01  0.54956311809E+01  0.56260018170E+01  0.51100000000E-03 0.  1.
         12    1    3    3    0    0 -0.34034983896E+01  0.15129182411E+02  0.13549379691E+02  0.20592757264E+02  0.00000000000E+00 0. -1.
</event>
<event>
 7    1  0.1427898E-010  0.4778726E+02  0.7816164E-02  0.1312668E+00
        -11   -1    0    0    0    0  0.00000000000E+00  0.00000000000E+00  0.45593999997E+02  0.45594000000E+02  0.51100000000E-03 0.  1.
         11   -1    0    0    0    0 -0.00000000000E+00 -0.00000000000E+00 -0.45593999997E+02  0.45594000000E+02  0.51100000000E-03 0. -1.
    9900012    2    1    2    0    0 -0.74633822571E+01  0.29810956705E+00 -0.42753162066E+02  0.47787264860E+02  0.19999971803E+02 0.  0.
        -12    1    1    2    0    0  0.74633822571E+01 -0.29810956705E+00  0.42753162066E+02  0.43400735140E+02  0.00000000000E+00 0.  1.
         11    1    3    3    0    0 -0.47939652656E+01 -0.35432813060E+01 -0.18261611384E+02  0.19209981676E+02  0.51100000000E-03 0. -1.
        -11    1    3    3    0    0 -0.58436652757E+01 -0.82674174533E+00 -0.21278519234E+02  0.22081832053E+02  0.51100000000E-03 0.  1.
        -12    1    3    3    0    0  0.31742482842E+01  0.46681326184E+01 -0.32130314484E+01  0.64954511314E+01  0.00000000000E+00 0.  1.
</event>
<event>
 7    1  0.1427898E-010  0.4778727E+02  0.7816164E-02  0.1312668E+00
        -11   -1    0    0    0    0  0.00000000000E+00  0.00000000000E+00  0.45593999997E+02  0.45594000000E+02  0.51100000000E-03 0. -1.
         11   -1    0    0    0    0 -0.00000000000E+00 -0.00000000000E+00 -0.45593999997E+02  0.45594000000E+02  0.51100000000E-03 0.  1.
    9900012    2    1    2    0    0  0.31227669892E+02  0.52270474543E+01  0.29683898248E+02  0.47787271813E+02  0.20000003502E+02 0.  0.
        -12    1    1    2    0    0 -0.31227669892E+02 -0.52270474543E+01 -0.29683898248E+02  0.43400728187E+02  0.00000000000E+00 0.  1.
         11    1    3    3    0    0  0.81913050238E+01  0.10261854479E+01  0.11677018411E+02  0.14300464811E+02  0.51100000000E-03 0. -1.
        -11    1    3    3    0    0  0.42486910398E+01 -0.23709606466E+01 -0.20046142853E+01  0.52622531898E+01  0.51100000000E-03 0.  1.
        -12    1    3    3    0    0  0.18787673829E+02  0.65718226530E+01  0.20011494122E+02  0.28224553812E+02  0.00000000000E+00 0.  1.
</event>
<event>
 7    1  0.1427898E-010  0.4778727E+02  0.7816164E-02  0.1312668E+00
        -11   -1    0    0    0    0  0.00000000000E+00  0.00000000000E+00  0.45593999997E+02  0.45594000000E+02  0.51100000000E-03 0.  1.
         11   -1    0    0    0    0 -0.00000000000E+00 -0.00000000000E+00 -0.45593999997E+02  0.45594000000E+02  0.51100000000E-03 0. -1.
    9900012    2    1    2    0    0 -0.29041977962E+02 -0.24805628491E+02 -0.20612315209E+02  0.47787271584E+02  0.20000002460E+02 0.  0.
        -12    1    1    2    0    0  0.29041977962E+02  0.24805628491E+02  0.20612315209E+02  0.43400728416E+02  0.00000000000E+00 0.  1.
         11    1    3    3    0    0 -0.69119390826E+01 -0.80305758784E+01 -0.10462361989E+02  0.14890469082E+02  0.51100000000E-03 0. -1.
        -11    1    3    3    0    0 -0.54664241311E+01 -0.32246307733E+01 -0.94804302713E+01  0.11408706973E+02  0.51100000000E-03 0.  1.
        -12    1    3    3    0    0 -0.16663614748E+02 -0.13550421840E+02 -0.66952294813E+00  0.21488095529E+02  0.00000000000E+00 0.  1.
</event>
<event>
 7    1  0.1427898E-010  0.4778727E+02  0.7816164E-02  0.1312668E+00
        -11   -1    0    0    0    0  0.00000000000E+00  0.00000000000E+00  0.45593999997E+02  0.45594000000E+02  0.51100000000E-03 0.  1.
         11   -1    0    0    0    0 -0.00000000000E+00 -0.00000000000E+00 -0.45593999997E+02  0.45594000000E+02  0.51100000000E-03 0. -1.
    9900012    2    1    2    0    0 -0.34841323975E+02 -0.76826618169E+01 -0.24711983379E+02  0.47787271072E+02  0.20000000127E+02 0.  0.
        -12    1    1    2    0    0  0.34841323975E+02  0.76826618169E+01  0.24711983379E+02  0.43400728928E+02  0.00000000000E+00 0.  1.
         11    1    3    3    0    0 -0.12537330238E+02 -0.37718789242E+01 -0.15533687134E+02  0.20315195208E+02  0.51100000000E-03 0. -1.
        -11    1    3    3    0    0 -0.99585692991E+01  0.45260745905E+01 -0.40346497078E+01  0.11659196036E+02  0.51100000000E-03 0.  1.
         12    1    3    3    0    0 -0.12345424438E+02 -0.84368574832E+01 -0.51436465369E+01  0.15812879828E+02  0.00000000000E+00 0. -1.
</event>
<event>
 7    1  0.1427898E-010  0.4778727E+02  0.7816164E-02  0.1312668E+00
        -11   -1    0    0    0    0  0.00000000000E+00  0.00000000000E+00  0.45593999997E+02  0.45594000000E+02  0.51100000000E-03 0. -1.
         11   -1    0    0    0    0 -0.00000000000E+00 -0.00000000000E+00 -0.45593999997E+02  0.45594000000E+02  0.51100000000E-03 0.  1.
    9900012    2    1    2    0    0  0.36398361664E+02 -0.53560453832E+01  0.23023799977E+02  0.47787270520E+02  0.19999997611E+02 0.  0.
        -12    1    1    2    0    0 -0.36398361664E+02  0.53560453832E+01 -0.23023799977E+02  0.43400729480E+02  0.00000000000E+00 0.  1.
         11    1    3    3    0    0  0.63506797886E-01 -0.52987812150E+00 -0.18690746832E+00  0.56545433048E+00  0.51100000000E-03 0. -1.
        -11    1    3    3    0    0  0.21862865211E+02 -0.17126559121E+01  0.29469720727E+01  0.22126967938E+02  0.51100000000E-03 0.  1.
         12    1    3    3    0    0  0.14471989656E+02 -0.31135113496E+01  0.20263735372E+02  0.25094848251E+02  0.00000000000E+00 0. -1.
</event>
<event>
 7    1  0.1427898E-010  0.4778729E+02  0.7816164E-02  0.1312668E+00
        -11   -1    0    0    0    0  0.00000000000E+00  0.00000000000E+00  0.45593999997E+02  0.45594000000E+02  0.51100000000E-03 0.  1.
         11   -1    0    0    0    0 -0.00000000000E+00 -0.00000000000E+00 -0.45593999997E+02  0.45594000000E+02  0.51100000000E-03 0. -1.
    9900012    2    1    2    0    0  0.63882895067E+01  0.31200448230E+02 -0.29484628633E+02  0.47787291040E+02  0.20000091169E+02 0.  0.
        -12    1    1    2    0    0 -0.63882895067E+01 -0.31200448230E+02  0.29484628633E+02  0.43400708960E+02  0.00000000000E+00 0.  1.
         11    1    3    3    0    0  0.10443975463E+02  0.27665010633E+02 -0.21335285047E+02  0.36464007255E+02  0.51100000000E-03 0. -1.
        -11    1    3    3    0    0  0.33543992784E+00 -0.70813504988E+00  0.34959379754E+00  0.85801589639E+00  0.51100000000E-03 0.  1.
         12    1    3    3    0    0 -0.43911258839E+01  0.42435726464E+01 -0.84989373835E+01  0.10465267889E+02  0.00000000000E+00 0. -1.
</event>
<event>
 7    1  0.1427898E-010  0.4778727E+02  0.7816164E-02  0.1312668E+00
        -11   -1    0    0    0    0  0.00000000000E+00  0.00000000000E+00  0.45593999997E+02  0.45594000000E+02  0.51100000000E-03 0. -1.
         11   -1    0    0    0    0 -0.00000000000E+00 -0.00000000000E+00 -0.45593999997E+02  0.45594000000E+02  0.51100000000E-03 0.  1.
    9900012    2    1    2    0    0  0.36836896244E+02 -0.20061162363E+02  0.11145238268E+02  0.47787268482E+02  0.19999988318E+02 0.  0.
        -12    1    1    2    0    0 -0.36836896244E+02  0.20061162363E+02 -0.11145238268E+02  0.43400731518E+02  0.00000000000E+00 0.  1.
         11    1    3    3    0    0  0.11381870694E+01 -0.83369802571E+01  0.26865667463E+01  0.88327997121E+01  0.51100000000E-03 0. -1.
        -11    1    3    3    0    0  0.96273023769E+01 -0.10942009405E+01  0.52803705739E+00  0.97036616877E+01  0.51100000000E-03 0.  1.
         12    1    3    3    0    0  0.26071406797E+02 -0.10629981166E+02  0.79306344640E+01  0.29250807082E+02  0.00000000000E+00 0. -1.
</event>
<event>
 7    1  0.1427898E-010  0.4778728E+02  0.7816164E-02  0.1312668E+00
        -11   -1    0    0    0    0  0.00000000000E+00  0.00000000000E+00  0.45593999997E+02  0.45594000000E+02  0.51100000000E-03 0.  1.
         11   -1    0    0    0    0 -0.00000000000E+00 -0.00000000000E+00 -0.45593999997E+02  0.45594000000E+02  0.51100000000E-03 0. -1.
    9900012    2    1    2    0    0  0.35114754516E+02  0.20652778656E+02 -0.14967933853E+02  0.47787282324E+02  0.20000051430E+02 0.  0.
        -12    1    1    2    0    0 -0.35114754516E+02 -0.20652778656E+02  0.14967933853E+02  0.43400717676E+02  0.00000000000E+00 0.  1.
         11    1    3    3    0    0  0.34332170121E+02  0.17503257655E+02 -0.11148507094E+02  0.40116719014E+02  0.51100000000E-03 0. -1.
        -11    1    3    3    0    0  0.21149989119E+01  0.18417259428E+01 -0.48018717163E+01  0.55608584847E+01  0.51100000000E-03 0.  1.
         12    1    3    3    0    0 -0.13324145165E+01  0.13077950581E+01  0.98244495789E+00  0.21097048260E+01  0.00000000000E+00 0. -1.
</event>
<event>
 7    1  0.1427898E-010  0.4778727E+02  0.7816164E-02  0.1312668E+00
        -11   -1    0    0    0    0  0.00000000000E+00  0.00000000000E+00  0.45593999997E+02  0.45594000000E+02  0.51100000000E-03 0.  1.
         11   -1    0    0    0    0 -0.00000000000E+00 -0.00000000000E+00 -0.45593999997E+02  0.45594000000E+02  0.51100000000E-03 0. -1.
    9900012    2    1    2    0    0  0.40965958999E+01 -0.52091928282E+00 -0.43203823203E+02  0.47787265050E+02  0.19999972668E+02 0.  0.
        -12    1    1    2    0    0 -0.40965958999E+01  0.52091928282E+00  0.43203823203E+02  0.43400734950E+02  0.00000000000E+00 0.  1.
         11    1    3    3    0    0  0.36026069923E+01  0.22264311165E+01 -0.26530526141E+02  0.26866421240E+02  0.51100000000E-03 0. -1.
        -11    1    3    3    0    0 -0.18863744779E+00  0.44172074129E+01 -0.26394659691E+01  0.51491830691E+01  0.51100000000E-03 0.  1.
         12    1    3    3    0    0  0.68262635539E+00 -0.71645578122E+01 -0.14033831093E+02  0.15771660741E+02  0.00000000000E+00 0. -1.
</event>
<event>
 7    1  0.1427898E-010  0.4778727E+02  0.7816164E-02  0.1312668E+00
        -11   -1    0    0    0    0  0.00000000000E+00  0.00000000000E+00  0.45593999997E+02  0.45594000000E+02  0.51100000000E-03 0.  1.
         11   -1    0    0    0    0 -0.00000000000E+00 -0.00000000000E+00 -0.45593999997E+02  0.45594000000E+02  0.51100000000E-03 0. -1.
    9900012    2    1    2    0    0 -0.21535301603E+02 -0.34637720490E+02 -0.14835176009E+02  0.47787270247E+02  0.19999996363E+02 0.  0.
        -12    1    1    2    0    0  0.21535301603E+02  0.34637720490E+02  0.14835176009E+02  0.43400729753E+02  0.00000000000E+00 0.  1.
         11    1    3    3    0    0 -0.35258826509E+01  0.28349614903E+00 -0.28157699262E+00  0.35484509857E+01  0.51100000000E-03 0.  1.
        -11    1    3    3    0    0 -0.64543739673E+00 -0.16164025303E+02 -0.65744409442E+01  0.17461832018E+02  0.51100000000E-03 0. -1.
         12    1    3    3    0    0 -0.17363981556E+02 -0.18757191336E+02 -0.79791580721E+01  0.26776987243E+02  0.00000000000E+00 0. -1.
</event>
<event>
 7    1  0.1427898E-010  0.4778727E+02  0.7816164E-02  0.1312668E+00
        -11   -1    0    0    0    0  0.00000000000E+00  0.00000000000E+00  0.45593999997E+02  0.45594000000E+02  0.51100000000E-03 0. -1.
         11   -1    0    0    0    0 -0.00000000000E+00 -0.00000000000E+00 -0.45593999997E+02  0.45594000000E+02  0.51100000000E-03 0.  1.
    9900012    2    1    2    0    0  0.66468499369E+01 -0.41935601052E+02 -0.89915513604E+01  0.47787271370E+02  0.20000001487E+02 0.  0.
        -12    1    1    2    0    0 -0.66468499369E+01  0.41935601052E+02  0.89915513604E+01  0.43400728630E+02  0.00000000000E+00 0.  1.
         11    1    3    3    0    0  0.28565399933E+01 -0.22688003032E+02 -0.73065173050E+01  0.24006051273E+02  0.51100000000E-03 0. -1.
        -11    1    3    3    0    0 -0.39501024161E+01 -0.75256287807E+01  0.29383555815E+01  0.89929045045E+01  0.51100000000E-03 0.  1.
         12    1    3    3    0    0  0.77404123597E+01 -0.11721969239E+02 -0.46233896369E+01  0.14788315593E+02  0.00000000000E+00 0. -1.
</event>
<event>
 7    1  0.1427898E-010  0.4778727E+02  0.7816164E-02  0.1312668E+00
        -11   -1    0    0    0    0  0.00000000000E+00  0.00000000000E+00  0.45593999997E+02  0.45594000000E+02  0.51100000000E-03 0.  1.
         11   -1    0    0    0    0 -0.00000000000E+00 -0.00000000000E+00 -0.45593999997E+02  0.45594000000E+02  0.51100000000E-03 0. -1.
    9900012    2    1    2    0    0 -0.42164996482E+02  0.59823512822E+01  0.83634984709E+01  0.47787267727E+02  0.19999984872E+02 0.  0.
        -12    1    1    2    0    0  0.42164996482E+02 -0.59823512822E+01 -0.83634984709E+01  0.43400732273E+02  0.00000000000E+00 0.  1.
         11    1    3    3    0    0 -0.11088353473E+00  0.49044190609E+00  0.93814116410E+00  0.10643953807E+01  0.51100000000E-03 0.  1.
        -11    1    3    3    0    0 -0.30756918940E+02  0.10683492960E+02  0.65531424875E+00  0.32566156076E+02  0.51100000000E-03 0. -1.
         12    1    3    3    0    0 -0.11297194007E+02 -0.51915835840E+01  0.67700430581E+01  0.14156716270E+02  0.00000000000E+00 0. -1.
</event>
<event>
 7    1  0.1427898E-010  0.4778727E+02  0.7816164E-02  0.1312668E+00
        -11   -1    0    0    0    0  0.00000000000E+00  0.00000000000E+00  0.45593999997E+02  0.45594000000E+02  0.51100000000E-03 0. -1.
         11   -1    0    0    0    0 -0.00000000000E+00 -0.00000000000E+00 -0.45593999997E+02  0.45594000000E+02  0.51100000000E-03 0.  1.
    9900012    2    1    2    0    0 -0.24589825723E+02  0.32656574705E+02  0.14577776888E+02  0.47787274435E+02  0.20000015461E+02 0.  0.
        -12    1    1    2    0    0  0.24589825723E+02 -0.32656574705E+02 -0.14577776888E+02  0.43400725565E+02  0.00000000000E+00 0.  1.
         11    1    3    3    0    0 -0.12525428920E+02  0.14133337377E+02  0.13426624358E+02  0.23171358117E+02  0.51100000000E-03 0. -1.
        -11    1    3    3    0    0 -0.11610632813E+01  0.40055849177E+00 -0.28387473626E+01  0.30930570474E+01  0.51100000000E-03 0.  1.
         12    1    3    3    0    0 -0.10903333521E+02  0.18122678836E+02  0.39898998928E+01  0.21522859271E+02  0.00000000000E+00 0. -1.
</event>
<event>
 7    1  0.1427898E-010  0.4778727E+02  0.7816164E-02  0.1312668E+00
        -11   -1    0    0    0    0  0.00000000000E+00  0.00000000000E+00  0.45593999997E+02  0.45594000000E+02  0.51100000000E-03 0.  1.
         11   -1    0    0    0    0 -0.00000000000E+00 -0.00000000000E+00 -0.45593999997E+02  0.45594000000E+02  0.51100000000E-03 0. -1.
    9900012    2    1    2    0    0 -0.30075941553E+02 -0.27085093365E+01 -0.31172501484E+02  0.47787272680E+02  0.20000007459E+02 0.  0.
        -12    1    1    2    0    0  0.30075941553E+02  0.27085093365E+01  0.31172501484E+02  0.43400727320E+02  0.00000000000E+00 0.  1.
         11    1    3    3    0    0 -0.14468994130E+02  0.46504380355E+00 -0.71747625136E+01  0.16156895564E+02  0.51100000000E-03 0. -1.
        -11    1    3    3    0    0  0.26981666139E+00 -0.29384295808E+01 -0.11768083351E+00  0.29531370560E+01  0.51100000000E-03 0.  1.
         12    1    3    3    0    0 -0.15876764084E+02 -0.23512355928E+00 -0.23880058136E+02  0.28677240060E+02  0.00000000000E+00 0. -1.
</event>
<event>
 7    1  0.1427898E-010  0.4778727E+02  0.7816164E-02  0.1312668E+00
        -11   -1    0    0    0    0  0.00000000000E+00  0.00000000000E+00  0.45593999997E+02  0.45594000000E+02  0.51100000000E-03 0.  1.
         11   -1    0    0    0    0 -0.00000000000E+00 -0.00000000000E+00 -0.45593999997E+02  0.45594000000E+02  0.51100000000E-03 0. -1.
    9900012    2    1    2    0    0  0.11895884815E+02 -0.26914213432E+02 -0.31901981226E+02  0.47787269979E+02  0.19999995143E+02 0.  0.
        -12    1    1    2    0    0 -0.11895884815E+02  0.26914213432E+02  0.31901981226E+02  0.43400730021E+02  0.00000000000E+00 0.  1.
         11    1    3    3    0    0 -0.70973836708E+00 -0.16604066541E+02 -0.17142921224E+02  0.23876316773E+02  0.51100000000E-03 0. -1.
        -11    1    3    3    0    0  0.77585202005E+01 -0.95967407757E+01 -0.56600139871E+01  0.13576738482E+02  0.51100000000E-03 0.  1.
        -12    1    3    3    0    0  0.48471029815E+01 -0.71340611528E+00 -0.90990460143E+01  0.10334214724E+02  0.00000000000E+00 0.  1.
</event>
<event>
 7    1  0.1427898E-010  0.4778727E+02  0.7816164E-02  0.1312668E+00
        -11   -1    0    0    0    0  0.00000000000E+00  0.00000000000E+00  0.45593999997E+02  0.45594000000E+02  0.51100000000E-03 0.  1.
         11   -1    0    0    0    0 -0.00000000000E+00 -0.00000000000E+00 -0.45593999997E+02  0.45594000000E+02  0.51100000000E-03 0. -1.
    9900012    2    1    2    0    0  0.30256327844E+01 -0.26530468189E+02 -0.34214076408E+02  0.47787271659E+02  0.20000002803E+02 0.  0.
        -12    1    1    2    0    0 -0.30256327844E+01  0.26530468189E+02  0.34214076408E+02  0.43400728341E+02  0.00000000000E+00 0.  1.
         11    1    3    3    0    0  0.55189560440E+01 -0.62633520779E+00 -0.26881152576E+01  0.61706673471E+01  0.51100000000E-03 0. -1.
        -11    1    3    3    0    0 -0.39920564061E+01 -0.78249511134E+01 -0.77830616697E+01  0.11736371820E+02  0.51100000000E-03 0.  1.
         12    1    3    3    0    0  0.14987331464E+01 -0.18079181868E+02 -0.23742899481E+02  0.29880232492E+02  0.00000000000E+00 0. -1.
</event>
<event>
 7    1  0.1427898E-010  0.4778728E+02  0.7816164E-02  0.1312668E+00
        -11   -1    0    0    0    0  0.00000000000E+00  0.00000000000E+00  0.45593999997E+02  0.45594000000E+02  0.51100000000E-03 0. -1.
         11   -1    0    0    0    0 -0.00000000000E+00 -0.00000000000E+00 -0.45593999997E+02  0.45594000000E+02  0.51100000000E-03 0.  1.
    9900012    2    1    2    0    0 -0.39270495742E+02 -0.17902547086E+02  0.45770924149E+01  0.47787276469E+02  0.20000024734E+02 0.  0.
        -12    1    1    2    0    0  0.39270495742E+02  0.17902547086E+02 -0.45770924149E+01  0.43400723531E+02  0.00000000000E+00 0.  1.
         11    1    3    3    0    0 -0.14776989261E+02 -0.14958356721E+02  0.10838816679E+01  0.21054373587E+02  0.51100000000E-03 0. -1.
        -11    1    3    3    0    0 -0.29332620656E+01  0.29418128207E+01  0.57748975076E+00  0.41942560355E+01  0.51100000000E-03 0.  1.
        -12    1    3    3    0    0 -0.21560244415E+02 -0.58860031864E+01  0.29157209962E+01  0.22538646847E+02  0.00000000000E+00 0.  1.
</event>
<event>
 7    1  0.1427898E-010  0.4778728E+02  0.7816164E-02  0.1312668E+00
        -11   -1    0    0    0    0  0.00000000000E+00  0.00000000000E+00  0.45593999997E+02  0.45594000000E+02  0.51100000000E-03 0. -1.
         11   -1    0    0    0    0 -0.00000000000E+00 -0.00000000000E+00 -0.45593999997E+02  0.45594000000E+02  0.51100000000E-03 0.  1.
    9900012    2    1    2    0    0  0.11792183378E+02 -0.13348901589E+02  0.39577442375E+02  0.47787277570E+02  0.20000029754E+02 0.  0.
        -12    1    1    2    0    0 -0.11792183378E+02  0.13348901589E+02 -0.39577442375E+02  0.43400722430E+02  0.00000000000E+00 0.  1.
         11    1    3    3    0    0  0.53502398981E+01 -0.30999734228E+01  0.74016270450E+01  0.96446350560E+01  0.51100000000E-03 0. -1.
        -11    1    3    3    0    0  0.10789585837E+02 -0.10886394556E+02  0.28713615331E+02  0.32548432444E+02  0.51100000000E-03 0.  1.
        -12    1    3    3    0    0 -0.43476423575E+01  0.63746639068E+00  0.34621999998E+01  0.55942100699E+01  0.00000000000E+00 0.  1.
</event>
<event>
 7    1  0.1427898E-010  0.4778727E+02  0.7816164E-02  0.1312668E+00
        -11   -1    0    0    0    0  0.00000000000E+00  0.00000000000E+00  0.45593999997E+02  0.45594000000E+02  0.51100000000E-03 0.  1.
         11   -1    0    0    0    0 -0.00000000000E+00 -0.00000000000E+00 -0.45593999997E+02  0.45594000000E+02  0.51100000000E-03 0. -1.
    9900012    2    1    2    0    0  0.15409297292E+02 -0.40426817381E+02 -0.34422400601E+01  0.47787273933E+02  0.20000013168E+02 0.  0.
        -12    1    1    2    0    0 -0.15409297292E+02  0.40426817381E+02  0.34422400601E+01  0.43400726067E+02  0.00000000000E+00 0.  1.
         11    1    3    3    0    0  0.97089791081E+01 -0.30885613931E+02  0.74766562628E+00  0.32384323790E+02  0.51100000000E-03 0. -1.
        -11    1    3    3    0    0  0.58256269640E+00  0.20605830535E+01 -0.64353460065E+00  0.22359603885E+01  0.51100000000E-03 0.  1.
         12    1    3    3    0    0  0.51177554874E+01 -0.11601786503E+02 -0.35463710858E+01  0.13166989754E+02  0.00000000000E+00 0. -1.
</event>
<event>
 7    1  0.1427898E-010  0.4778727E+02  0.7816164E-02  0.1312668E+00
        -11   -1    0    0    0    0  0.00000000000E+00  0.00000000000E+00  0.45593999997E+02  0.45594000000E+02  0.51100000000E-03 0.  1.
         11   -1    0    0    0    0 -0.00000000000E+00 -0.00000000000E+00 -0.45593999997E+02  0.45594000000E+02  0.51100000000E-03 0. -1.
    9900012    2    1    2    0    0 -0.60192663771E+01 -0.42956987252E+02 -0.14452895730E+01  0.47787272086E+02  0.20000004749E+02 0.  0.
        -12    1    1    2    0    0  0.60192663771E+01  0.42956987252E+02  0.14452895730E+01  0.43400727914E+02  0.00000000000E+00 0.  1.
         11    1    3    3    0    0 -0.28543711184E+01 -0.21525362515E+02  0.26280144755E+00  0.21715380051E+02  0.51100000000E-03 0. -1.
        -11    1    3    3    0    0 -0.41008488493E+01 -0.33521169341E+01  0.44827299725E+01  0.69389132789E+01  0.51100000000E-03 0.  1.
         12    1    3    3    0    0  0.93595359057E+00 -0.18079507803E+02 -0.61908209931E+01  0.19132978756E+02  0.00000000000E+00 0. -1.
</event>
<event>
 7    1  0.1427898E-010  0.4778728E+02  0.7816164E-02  0.1312668E+00
        -11   -1    0    0    0    0  0.00000000000E+00  0.00000000000E+00  0.45593999997E+02  0.45594000000E+02  0.51100000000E-03 0. -1.
         11   -1    0    0    0    0 -0.00000000000E+00 -0.00000000000E+00 -0.45593999997E+02  0.45594000000E+02  0.51100000000E-03 0.  1.
    9900012    2    1    2    0    0 -0.15548533710E+02 -0.21884028785E+02  0.34102129396E+02  0.47787275977E+02  0.20000022488E+02 0.  0.
        -12    1    1    2    0    0  0.15548533710E+02  0.21884028785E+02 -0.34102129396E+02  0.43400724023E+02  0.00000000000E+00 0.  1.
         11    1    3    3    0    0 -0.10134339684E+02 -0.10903968377E+02  0.26815818398E+02  0.30670661613E+02  0.51100000000E-03 0. -1.
        -11    1    3    3    0    0 -0.57579198453E+01 -0.59666214812E+01  0.85754934646E+01  0.11928675587E+02  0.51100000000E-03 0.  1.
        -12    1    3    3    0    0  0.34372581845E+00 -0.50134389267E+01 -0.12891824668E+01  0.51879387759E+01  0.00000000000E+00 0.  1.
</event>
<event>
 7    1  0.1427898E-010  0.4778728E+02  0.7816164E-02  0.1312668E+00
        -11   -1    0    0    0    0  0.00000000000E+00  0.00000000000E+00  0.45593999997E+02  0.45594000000E+02  0.51100000000E-03 0.  1.
         11   -1    0    0    0    0 -0.00000000000E+00 -0.00000000000E+00 -0.45593999997E+02  0.45594000000E+02  0.51100000000E-03 0. -1.
    9900012    2    1    2    0    0 -0.54849009397E+01  0.37509637172E+02 -0.21132094181E+02  0.47787280841E+02  0.20000044664E+02 0.  0.
        -12    1    1    2    0    0  0.54849009397E+01 -0.37509637172E+02  0.21132094181E+02  0.43400719159E+02  0.00000000000E+00 0.  1.
         11    1    3    3    0    0 -0.70546110334E+01  0.11726123801E+02 -0.99796959668E-01  0.13685009168E+02  0.51100000000E-03 0.  1.
        -11    1    3    3    0    0 -0.12933094291E+01  0.12280428591E+02 -0.13803285882E+02  0.18520590625E+02  0.51100000000E-03 0. -1.
        -12    1    3    3    0    0  0.28630195228E+01  0.13503084779E+02 -0.72290113389E+01  0.15581681048E+02  0.00000000000E+00 0.  1.
</event>
<event>
 7    1  0.1427898E-010  0.4778727E+02  0.7816164E-02  0.1312668E+00
        -11   -1    0    0    0    0  0.00000000000E+00  0.00000000000E+00  0.45593999997E+02  0.45594000000E+02  0.51100000000E-03 0. -1.
         11   -1    0    0    0    0 -0.00000000000E+00 -0.00000000000E+00 -0.45593999997E+02  0.45594000000E+02  0.51100000000E-03 0.  1.
    9900012    2    1    2    0    0 -0.22092835126E+02 -0.37354146785E+02 -0.44426773193E+00  0.47787273972E+02  0.20000013350E+02 0.  0.
        -12    1    1    2    0    0  0.22092835126E+02  0.37354146785E+02  0.44426773193E+00  0.43400726028E+02  0.00000000000E+00 0.  1.
         11    1    3    3    0    0 -0.11689842551E+02 -0.23716577148E+02  0.25655619882E+01  0.26565213326E+02  0.51100000000E-03 0. -1.
        -11    1    3    3    0    0  0.20832291874E+01 -0.32015029778E+01  0.18425548051E+01  0.42408104927E+01  0.51100000000E-03 0.  1.
        -12    1    3    3    0    0 -0.12486221762E+02 -0.10436066659E+02 -0.48523845253E+01  0.16981250154E+02  0.00000000000E+00 0.  1.
</event>
<event>
 7    1  0.1427898E-010  0.4778727E+02  0.7816164E-02  0.1312668E+00
        -11   -1    0    0    0    0  0.00000000000E+00  0.00000000000E+00  0.45593999997E+02  0.45594000000E+02  0.51100000000E-03 0.  1.
         11   -1    0    0    0    0 -0.00000000000E+00 -0.00000000000E+00 -0.45593999997E+02  0.45594000000E+02  0.51100000000E-03 0. -1.
    9900012    2    1    2    0    0  0.70181019830E+00 -0.43318300856E+02 -0.25799000741E+01  0.47787267160E+02  0.19999982290E+02 0.  0.
        -12    1    1    2    0    0 -0.70181019830E+00  0.43318300856E+02  0.25799000741E+01  0.43400732840E+02  0.00000000000E+00 0.  1.
         11    1    3    3    0    0 -0.18096818984E+01 -0.35827522515E+02  0.16383714442E+01  0.35910591465E+02  0.51100000000E-03 0. -1.
        -11    1    3    3    0    0 -0.21609865386E+01 -0.77566063130E-01 -0.25800627945E-01  0.21625321379E+01  0.51100000000E-03 0.  1.
        -12    1    3    3    0    0  0.46724786353E+01 -0.74132122787E+01 -0.41924708903E+01  0.97141435574E+01  0.00000000000E+00 0.  1.
</event>
<event>
 7    1  0.1427898E-010  0.4778727E+02  0.7816164E-02  0.1312668E+00
        -11   -1    0    0    0    0  0.00000000000E+00  0.00000000000E+00  0.45593999997E+02  0.45594000000E+02  0.51100000000E-03 0.  1.
         11   -1    0    0    0    0 -0.00000000000E+00 -0.00000000000E+00 -0.45593999997E+02  0.45594000000E+02  0.51100000000E-03 0. -1.
    9900012    2    1    2    0    0  0.28586243262E+02 -0.78497315628E+01 -0.31699078878E+02  0.47787271997E+02  0.20000004344E+02 0.  0.
        -12    1    1    2    0    0 -0.28586243262E+02  0.78497315628E+01  0.31699078878E+02  0.43400728003E+02  0.00000000000E+00 0.  1.
         11    1    3    3    0    0  0.18955407413E+02 -0.18737321819E+01 -0.23431040070E+02  0.30196555789E+02  0.51100000000E-03 0. -1.
        -11    1    3    3    0    0  0.41628537214E+01  0.23325386321E+01 -0.18720667060E+00  0.47754721415E+01  0.51100000000E-03 0.  1.
        -12    1    3    3    0    0  0.54679821279E+01 -0.83085380130E+01 -0.80808321378E+01  0.12815244067E+02  0.00000000000E+00 0.  1.
</event>
<event>
 7    1  0.1427898E-010  0.4778729E+02  0.7816164E-02  0.1312668E+00
        -11   -1    0    0    0    0  0.00000000000E+00  0.00000000000E+00  0.45593999997E+02  0.45594000000E+02  0.51100000000E-03 0. -1.
         11   -1    0    0    0    0 -0.00000000000E+00 -0.00000000000E+00 -0.45593999997E+02  0.45594000000E+02  0.51100000000E-03 0.  1.
    9900012    2    1    2    0    0  0.15091328337E+02 -0.33634208399E+02  0.22904450631E+02  0.47787285440E+02  0.20000065634E+02 0.  0.
        -12    1    1    2    0    0 -0.15091328337E+02  0.33634208399E+02 -0.22904450631E+02  0.43400714560E+02  0.00000000000E+00 0.  1.
         11    1    3    3    0    0  0.14384933778E+01 -0.16365495475E+02  0.14095214990E+02  0.21646565345E+02  0.51100000000E-03 0. -1.
        -11    1    3    3    0    0  0.60915468109E+01 -0.14524246328E+02  0.25646164685E+01  0.15957378601E+02  0.51100000000E-03 0.  1.
         12    1    3    3    0    0  0.75612881485E+01 -0.27444665962E+01  0.62446191728E+01  0.10183341494E+02  0.00000000000E+00 0. -1.
</event>
<event>
 7    1  0.1427898E-010  0.4778727E+02  0.7816164E-02  0.1312668E+00
        -11   -1    0    0    0    0  0.00000000000E+00  0.00000000000E+00  0.45593999997E+02  0.45594000000E+02  0.51100000000E-03 0. -1.
         11   -1    0    0    0    0 -0.00000000000E+00 -0.00000000000E+00 -0.45593999997E+02  0.45594000000E+02  0.51100000000E-03 0.  1.
    9900012    2    1    2    0    0  0.21759440841E+02 -0.21854369273E+02  0.30537459631E+02  0.47787272325E+02  0.20000005837E+02 0.  0.
        -12    1    1    2    0    0 -0.21759440841E+02  0.21854369273E+02 -0.30537459631E+02  0.43400727675E+02  0.00000000000E+00 0.  1.
         11    1    3    3    0    0  0.94698356148E+00 -0.84920563675E+01  0.75469744058E+01  0.11400378159E+02  0.51100000000E-03 0. -1.
        -11    1    3    3    0    0  0.13501808339E+02 -0.62435661370E+00  0.11137465716E+02  0.17513760089E+02  0.51100000000E-03 0.  1.
         12    1    3    3    0    0  0.73106489404E+01 -0.12737956292E+02  0.11853019509E+02  0.18873134077E+02  0.00000000000E+00 0. -1.
</event>
<event>
 7    1  0.1427898E-010  0.4778732E+02  0.7816164E-02  0.1312668E+00
        -11   -1    0    0    0    0  0.00000000000E+00  0.00000000000E+00  0.45593999997E+02  0.45594000000E+02  0.51100000000E-03 0. -1.
         11   -1    0    0    0    0 -0.00000000000E+00 -0.00000000000E+00 -0.45593999997E+02  0.45594000000E+02  0.51100000000E-03 0.  1.
    9900012    2    1    2    0    0  0.25525682377E+02 -0.35091243576E+02  0.81419709358E+00  0.47787323123E+02  0.20000237445E+02 0.  0.
        -12    1    1    2    0    0 -0.25525682377E+02  0.35091243576E+02 -0.81419709358E+00  0.43400676877E+02  0.00000000000E+00 0.  1.
         11    1    3    3    0    0  0.74504102275E+01 -0.34601505217E+01  0.43119370133E+01  0.92776104283E+01  0.51100000000E-03 0. -1.
        -11    1    3    3    0    0  0.41666588014E+01 -0.19309647491E+02 -0.12625607858E+01  0.19794382834E+02  0.51100000000E-03 0.  1.
         12    1    3    3    0    0  0.13908613348E+02 -0.12321445563E+02 -0.22351791339E+01  0.18715329860E+02  0.00000000000E+00 0. -1.
</event>
<event>
 7    1  0.1427898E-010  0.4778727E+02  0.7816164E-02  0.1312668E+00
        -11   -1    0    0    0    0  0.00000000000E+00  0.00000000000E+00  0.45593999997E+02  0.45594000000E+02  0.51100000000E-03 0.  1.
         11   -1    0    0    0    0 -0.00000000000E+00 -0.00000000000E+00 -0.45593999997E+02  0.45594000000E+02  0.51100000000E-03 0. -1.
    9900012    2    1    2    0    0  0.55992970590E+01 -0.40257172147E+02 -0.15219426890E+02  0.47787274295E+02  0.20000014821E+02 0.  0.
        -12    1    1    2    0    0 -0.55992970590E+01  0.40257172147E+02  0.15219426890E+02  0.43400725705E+02  0.00000000000E+00 0.  1.
         11    1    3    3    0    0  0.80119195302E+01 -0.20528270005E+02 -0.77720850423E+01  0.23366771923E+02  0.51100000000E-03 0. -1.
        -11    1    3    3    0    0  0.12043222241E+00  0.50808611122E+00 -0.36350407773E+01  0.36723530781E+01  0.51100000000E-03 0.  1.
         12    1    3    3    0    0 -0.25330546936E+01 -0.20236988254E+02 -0.38123010704E+01  0.20748149294E+02  0.00000000000E+00 0. -1.
</event>
<event>
 7    1  0.1451671E-010  0.4778728E+02  0.7816164E-02  0.1312668E+00
        -11   -1    0    0    0    0  0.00000000000E+00  0.00000000000E+00  0.45593999997E+02  0.45594000000E+02  0.51100000000E-03 0.  1.
         11   -1    0    0    0    0 -0.00000000000E+00 -0.00000000000E+00 -0.45593999997E+02  0.45594000000E+02  0.51100000000E-03 0. -1.
    9900012    2    1    2    0    0  0.43081044066E+02  0.52342184682E+01  0.49923196132E+00  0.47787278424E+02  0.20000033647E+02 0.  0.
        -12    1    1    2    0    0 -0.43081044066E+02 -0.52342184682E+01 -0.49923196132E+00  0.43400721576E+02  0.00000000000E+00 0.  1.
         11    1    3    3    0    0  0.33200828443E+02  0.54179115286E+01  0.11279776845E+00  0.33640176846E+02  0.51100000000E-03 0. -1.
        -11    1    3    3    0    0  0.26855171345E+01  0.47220539958E+01  0.48707262737E-01  0.54325103661E+01  0.51100000000E-03 0.  1.
        -12    1    3    3    0    0  0.71946984877E+01 -0.49057470562E+01  0.33772693013E+00  0.87145912118E+01  0.00000000000E+00 0.  1.
</event>
<event>
 7    1  0.1427898E-010  0.4778727E+02  0.7816164E-02  0.1312668E+00
        -11   -1    0    0    0    0  0.00000000000E+00  0.00000000000E+00  0.45593999997E+02  0.45594000000E+02  0.51100000000E-03 0. -1.
         11   -1    0    0    0    0 -0.00000000000E+00 -0.00000000000E+00 -0.45593999997E+02  0.45594000000E+02  0.51100000000E-03 0.  1.
    9900012    2    1    2    0    0 -0.17754175322E+02 -0.28667619468E+02  0.27323618331E+02  0.47787271135E+02  0.20000000414E+02 0.  0.
        -12    1    1    2    0    0  0.17754175322E+02  0.28667619468E+02 -0.27323618331E+02  0.43400728865E+02  0.00000000000E+00 0.  1.
         11    1    3    3    0    0 -0.44235171176E+01 -0.14701621290E+02  0.14993162972E+02  0.21459266260E+02  0.51100000000E-03 0. -1.
        -11    1    3    3    0    0 -0.11074922841E+01 -0.67364547574E+01  0.97372796130E+01  0.11892055179E+02  0.51100000000E-03 0.  1.
        -12    1    3    3    0    0 -0.12223165920E+02 -0.72295434200E+01  0.25931757454E+01  0.14435949696E+02  0.00000000000E+00 0.  1.
</event>
<event>
 7    1  0.1427898E-010  0.4778727E+02  0.7816164E-02  0.1312668E+00
        -11   -1    0    0    0    0  0.00000000000E+00  0.00000000000E+00  0.45593999997E+02  0.45594000000E+02  0.51100000000E-03 0. -1.
         11   -1    0    0    0    0 -0.00000000000E+00 -0.00000000000E+00 -0.45593999997E+02  0.45594000000E+02  0.51100000000E-03 0.  1.
    9900012    2    1    2    0    0  0.22454133793E+02 -0.27622651764E+02 -0.24827887993E+02  0.47787273773E+02  0.20000012439E+02 0.  0.
        -12    1    1    2    0    0 -0.22454133793E+02  0.27622651764E+02  0.24827887993E+02  0.43400726227E+02  0.00000000000E+00 0.  1.
         11    1    3    3    0    0  0.55934636140E+01 -0.11876029488E+02 -0.60242642545E+01  0.14443637758E+02  0.51100000000E-03 0. -1.
        -11    1    3    3    0    0  0.10172978100E+02 -0.18053332273E+01 -0.20280923399E+01  0.10529096366E+02  0.51100000000E-03 0.  1.
        -12    1    3    3    0    0  0.66876920781E+01 -0.13941289049E+02 -0.16775531399E+02  0.22814539649E+02  0.00000000000E+00 0.  1.
</event>
<event>
 7    1  0.1427898E-010  0.4778727E+02  0.7816164E-02  0.1312668E+00
        -11   -1    0    0    0    0  0.00000000000E+00  0.00000000000E+00  0.45593999997E+02  0.45594000000E+02  0.51100000000E-03 0.  1.
         11   -1    0    0    0    0 -0.00000000000E+00 -0.00000000000E+00 -0.45593999997E+02  0.45594000000E+02  0.51100000000E-03 0. -1.
    9900012    2    1    2    0    0  0.17662584914E+00 -0.14426213069E+02 -0.40932585066E+02  0.47787270278E+02  0.19999996504E+02 0.  0.
        -12    1    1    2    0    0 -0.17662584914E+00  0.14426213069E+02  0.40932585066E+02  0.43400729722E+02  0.00000000000E+00 0.  1.
         11    1    3    3    0    0  0.50295038174E+01 -0.43872433875E+01 -0.72540217785E+01  0.98572128624E+01  0.51100000000E-03 0. -1.
        -11    1    3    3    0    0 -0.61514942277E+01 -0.10193609517E+02 -0.14746287770E+02  0.18952666289E+02  0.51100000000E-03 0.  1.
         12    1    3    3    0    0  0.12986162595E+01  0.15463983517E+00 -0.18932275518E+02  0.18977391126E+02  0.00000000000E+00 0. -1.
</event>
<event>
 7    1  0.1427898E-010  0.4778727E+02  0.7816164E-02  0.1312668E+00
        -11   -1    0    0    0    0  0.00000000000E+00  0.00000000000E+00  0.45593999997E+02  0.45594000000E+02  0.51100000000E-03 0.  1.
         11   -1    0    0    0    0 -0.00000000000E+00 -0.00000000000E+00 -0.45593999997E+02  0.45594000000E+02  0.51100000000E-03 0. -1.
    9900012    2    1    2    0    0  0.26884643421E+02  0.33880040006E+02  0.36031357623E+01  0.47787265559E+02  0.19999974989E+02 0.  0.
        -12    1    1    2    0    0 -0.26884643421E+02 -0.33880040006E+02 -0.36031357623E+01  0.43400734441E+02  0.00000000000E+00 0.  1.
         11    1    3    3    0    0  0.13563465840E+02  0.15474405822E+02  0.76160567017E+01  0.21941494048E+02  0.51100000000E-03 0.  1.
        -11    1    3    3    0    0  0.81005451341E+00 -0.15611347330E+01 -0.11695486612E+01  0.21121492138E+01  0.51100000000E-03 0. -1.
         12    1    3    3    0    0  0.12511123068E+02  0.19966768917E+02 -0.28433722782E+01  0.23733622297E+02  0.00000000000E+00 0. -1.
</event>
<event>
 7    1  0.1427898E-010  0.4778727E+02  0.7816164E-02  0.1312668E+00
        -11   -1    0    0    0    0  0.00000000000E+00  0.00000000000E+00  0.45593999997E+02  0.45594000000E+02  0.51100000000E-03 0. -1.
         11   -1    0    0    0    0 -0.00000000000E+00 -0.00000000000E+00 -0.45593999997E+02  0.45594000000E+02  0.51100000000E-03 0.  1.
    9900012    2    1    2    0    0 -0.14665796955E+02  0.39492481018E+02 -0.10434631105E+02  0.47787272085E+02  0.20000004744E+02 0.  0.
        -12    1    1    2    0    0  0.14665796955E+02 -0.39492481018E+02  0.10434631105E+02  0.43400727915E+02  0.00000000000E+00 0.  1.
         11    1    3    3    0    0 -0.24920538511E+01  0.83984434836E+01  0.97982164090E+00  0.88150006270E+01  0.51100000000E-03 0. -1.
        -11    1    3    3    0    0 -0.84896391787E+01  0.13008489370E+02 -0.13259584668E+02  0.20423304211E+02  0.51100000000E-03 0.  1.
        -12    1    3    3    0    0 -0.36841039253E+01  0.18085548164E+02  0.18451319215E+01  0.18548967247E+02  0.00000000000E+00 0.  1.
</event>
<event>
 7    1  0.1427898E-010  0.4778726E+02  0.7816164E-02  0.1312668E+00
        -11   -1    0    0    0    0  0.00000000000E+00  0.00000000000E+00  0.45593999997E+02  0.45594000000E+02  0.51100000000E-03 0.  1.
         11   -1    0    0    0    0 -0.00000000000E+00 -0.00000000000E+00 -0.45593999997E+02  0.45594000000E+02  0.51100000000E-03 0. -1.
    9900012    2    1    2    0    0  0.32782180525E+02  0.28825855665E+01 -0.28295647770E+02  0.47787258736E+02  0.19999943882E+02 0.  0.
        -12    1    1    2    0    0 -0.32782180525E+02 -0.28825855665E+01  0.28295647770E+02  0.43400741264E+02  0.00000000000E+00 0.  1.
         11    1    3    3    0    0  0.73298944738E+01  0.55519187173E+01 -0.87157214583E+01  0.12669449682E+02  0.51100000000E-03 0. -1.
        -11    1    3    3    0    0  0.19172875043E+02  0.24672917044E+00 -0.63724057221E+01  0.20205632077E+02  0.51100000000E-03 0.  1.
         12    1    3    3    0    0  0.62794110084E+01 -0.29160623212E+01 -0.13207520590E+02  0.14912176977E+02  0.00000000000E+00 0. -1.
</event>
<event>
 7    1  0.1427898E-010  0.4778727E+02  0.7816164E-02  0.1312668E+00
        -11   -1    0    0    0    0  0.00000000000E+00  0.00000000000E+00  0.45593999997E+02  0.45594000000E+02  0.51100000000E-03 0. -1.
         11   -1    0    0    0    0 -0.00000000000E+00 -0.00000000000E+00 -0.45593999997E+02  0.45594000000E+02  0.51100000000E-03 0.  1.
    9900012    2    1    2    0    0 -0.41627244584E+02  0.12254011542E+02  0.79695441212E+00  0.47787269282E+02  0.19999991966E+02 0.  0.
        -12    1    1    2    0    0  0.41627244584E+02 -0.12254011542E+02 -0.79695441212E+00  0.43400730718E+02  0.00000000000E+00 0.  1.
         11    1    3    3    0    0 -0.65588942295E+01  0.67349267662E+01  0.34626684837E+01  0.10018403333E+02  0.51100000000E-03 0. -1.
        -11    1    3    3    0    0 -0.11063405157E+02  0.25750851294E+01 -0.67916160241E+01  0.13234653210E+02  0.51100000000E-03 0.  1.
         12    1    3    3    0    0 -0.24004945197E+02  0.29439996465E+01  0.41259019526E+01  0.24534212739E+02  0.00000000000E+00 0. -1.
</event>
<event>
 7    1  0.1427898E-010  0.4778727E+02  0.7816164E-02  0.1312668E+00
        -11   -1    0    0    0    0  0.00000000000E+00  0.00000000000E+00  0.45593999997E+02  0.45594000000E+02  0.51100000000E-03 0.  1.
         11   -1    0    0    0    0 -0.00000000000E+00 -0.00000000000E+00 -0.45593999997E+02  0.45594000000E+02  0.51100000000E-03 0. -1.
    9900012    2    1    2    0    0 -0.27776676124E+02  0.46224628271E+01 -0.33025934042E+02  0.47787271684E+02  0.20000002915E+02 0.  0.
        -12    1    1    2    0    0  0.27776676124E+02 -0.46224628271E+01  0.33025934042E+02  0.43400728316E+02  0.00000000000E+00 0.  1.
         11    1    3    3    0    0  0.38625034611E+00 -0.45339307623E+00 -0.35913140853E+01  0.36403697246E+01  0.51100000000E-03 0. -1.
        -11    1    3    3    0    0 -0.36034432717E+01  0.62512115643E+01 -0.24014363668E+01  0.76045608893E+01  0.51100000000E-03 0.  1.
         12    1    3    3    0    0 -0.24559483198E+02 -0.11753556609E+01 -0.27033183590E+02  0.36542341070E+02  0.00000000000E+00 0. -1.
</event>
<event>
 7    1  0.1595867E-010  0.4778728E+02  0.7816164E-02  0.1312668E+00
        -11   -1    0    0    0    0  0.00000000000E+00  0.00000000000E+00  0.45593999997E+02  0.45594000000E+02  0.51100000000E-03 0. -1.
         11   -1    0    0    0    0 -0.00000000000E+00 -0.00000000000E+00 -0.45593999997E+02  0.45594000000E+02  0.51100000000E-03 0.  1.
    9900012    2    1    2    0    0  0.29768764695E+02 -0.73339209221E+01  0.30719001326E+02  0.47787276619E+02  0.20000025415E+02 0.  0.
        -12    1    1    2    0    0 -0.29768764695E+02  0.73339209221E+01 -0.30719001326E+02  0.43400723381E+02  0.00000000000E+00 0.  1.
         11    1    3    3    0    0  0.13652177269E+02 -0.74695151569E+01  0.14818449756E+02  0.21488649429E+02  0.51100000000E-03 0. -1.
        -11    1    3    3    0    0  0.11744412212E+01  0.87437245493E+00 -0.23074976074E+01  0.27328345800E+01  0.51100000000E-03 0.  1.
         12    1    3    3    0    0  0.14942146204E+02 -0.73877822012E+00  0.18208049178E+02  0.23565792609E+02  0.00000000000E+00 0. -1.
</event>
<event>
 7    1  0.1427898E-010  0.4778727E+02  0.7816164E-02  0.1312668E+00
        -11   -1    0    0    0    0  0.00000000000E+00  0.00000000000E+00  0.45593999997E+02  0.45594000000E+02  0.51100000000E-03 0.  1.
         11   -1    0    0    0    0 -0.00000000000E+00 -0.00000000000E+00 -0.45593999997E+02  0.45594000000E+02  0.51100000000E-03 0. -1.
    9900012    2    1    2    0    0 -0.11918593395E+02 -0.40831993909E+02 -0.86208306689E+01  0.47787270553E+02  0.19999997761E+02 0.  0.
        -12    1    1    2    0    0  0.11918593395E+02  0.40831993909E+02  0.86208306689E+01  0.43400729447E+02  0.00000000000E+00 0.  1.
         11    1    3    3    0    0 -0.41005708500E+01 -0.16324648554E+02  0.47945192027E+01  0.17501321275E+02  0.51100000000E-03 0. -1.
        -11    1    3    3    0    0 -0.29656633805E+01 -0.19489297600E+02 -0.73523581030E+01  0.21040081990E+02  0.51100000000E-03 0.  1.
        -12    1    3    3    0    0 -0.48523591649E+01 -0.50180477546E+01 -0.60629917686E+01  0.92458672887E+01  0.00000000000E+00 0.  1.
</event>
<event>
 7    1  0.1427898E-010  0.4778727E+02  0.7816164E-02  0.1312668E+00
        -11   -1    0    0    0    0  0.00000000000E+00  0.00000000000E+00  0.45593999997E+02  0.45594000000E+02  0.51100000000E-03 0. -1.
         11   -1    0    0    0    0 -0.00000000000E+00 -0.00000000000E+00 -0.45593999997E+02  0.45594000000E+02  0.51100000000E-03 0.  1.
    9900012    2    1    2    0    0  0.28414246758E+02 -0.28946825451E+02 -0.15438107521E+02  0.47787270900E+02  0.19999999343E+02 0.  0.
        -12    1    1    2    0    0 -0.28414246758E+02  0.28946825451E+02  0.15438107521E+02  0.43400729100E+02  0.00000000000E+00 0.  1.
         11    1    3    3    0    0  0.17522001564E+02 -0.11398208786E+02 -0.55208278159E+01  0.21619880720E+02  0.51100000000E-03 0. -1.
        -11    1    3    3    0    0  0.23852907009E+01 -0.85642304949E+01  0.18631150142E+01  0.90833283280E+01  0.51100000000E-03 0.  1.
        -12    1    3    3    0    0  0.85069544937E+01 -0.89843861704E+01 -0.11780394719E+02  0.17084061852E+02  0.00000000000E+00 0.  1.
</event>
<event>
 7    1  0.1427898E-010  0.4778725E+02  0.7816164E-02  0.1312668E+00
        -11   -1    0    0    0    0  0.00000000000E+00  0.00000000000E+00  0.45593999997E+02  0.45594000000E+02  0.51100000000E-03 0. -1.
         11   -1    0    0    0    0 -0.00000000000E+00 -0.00000000000E+00 -0.45593999997E+02  0.45594000000E+02  0.51100000000E-03 0.  1.
    9900012    2    1    2    0    0  0.39290672715E+02 -0.16187018369E+02  0.88231770508E+01  0.47787251396E+02  0.19999910416E+02 0.  0.
        -12    1    1    2    0    0 -0.39290672715E+02  0.16187018369E+02 -0.88231770508E+01  0.43400748604E+02  0.00000000000E+00 0.  1.
         11    1    3    3    0    0  0.14496505215E+02 -0.26457790805E+01  0.10203109385E+02  0.17923511145E+02  0.51100000000E-03 0. -1.
        -11    1    3    3    0    0  0.11188909921E+02 -0.10490570468E+02  0.21321091722E+01  0.15485143323E+02  0.51100000000E-03 0.  1.
        -12    1    3    3    0    0  0.13605257580E+02 -0.30506688199E+01 -0.35120415065E+01  0.14378596928E+02  0.00000000000E+00 0.  1.
</event>
<event>
 7    1  0.1755474E-010  0.4778726E+02  0.7816164E-02  0.1312668E+00
        -11   -1    0    0    0    0  0.00000000000E+00  0.00000000000E+00  0.45593999997E+02  0.45594000000E+02  0.51100000000E-03 0.  1.
         11   -1    0    0    0    0 -0.00000000000E+00 -0.00000000000E+00 -0.45593999997E+02  0.45594000000E+02  0.51100000000E-03 0. -1.
    9900012    2    1    2    0    0  0.28526674352E+02 -0.20606180106E+01 -0.32643641004E+02  0.47787255834E+02  0.19999930649E+02 0.  0.
        -12    1    1    2    0    0 -0.28526674352E+02  0.20606180106E+01  0.32643641004E+02  0.43400744166E+02  0.00000000000E+00 0.  1.
         11    1    3    3    0    0  0.25411507297E+02 -0.14951422034E+00 -0.24586573918E+02  0.35359110210E+02  0.51100000000E-03 0. -1.
        -11    1    3    3    0    0  0.13023441803E+01 -0.17700092313E+01 -0.97192585199E+01  0.99645882745E+01  0.51100000000E-03 0.  1.
        -12    1    3    3    0    0  0.18128228748E+01 -0.14109455895E+00  0.16621914336E+01  0.24635573490E+01  0.00000000000E+00 0.  1.
</event>
<event>
 7    1  0.1427898E-010  0.4778727E+02  0.7816164E-02  0.1312668E+00
        -11   -1    0    0    0    0  0.00000000000E+00  0.00000000000E+00  0.45593999997E+02  0.45594000000E+02  0.51100000000E-03 0.  1.
         11   -1    0    0    0    0 -0.00000000000E+00 -0.00000000000E+00 -0.45593999997E+02  0.45594000000E+02  0.51100000000E-03 0. -1.
    9900012    2    1    2    0    0  0.19421092217E+02 -0.13001843887E+02 -0.36570438234E+02  0.47787265906E+02  0.19999976570E+02 0.  0.
        -12    1    1    2    0    0 -0.19421092217E+02  0.13001843887E+02  0.36570438234E+02  0.43400734094E+02  0.00000000000E+00 0.  1.
         11    1    3    3    0    0  0.64722922677E+01 -0.26068207648E+01 -0.15511414455E+02  0.17008529048E+02  0.51100000000E-03 0. -1.
        -11    1    3    3    0    0  0.75626837124E+01  0.10644429775E+01 -0.19962154788E+01  0.78938013837E+01  0.51100000000E-03 0.  1.
        -12    1    3    3    0    0  0.53861162364E+01 -0.11459466100E+02 -0.19062808299E+02  0.22884935474E+02  0.00000000000E+00 0.  1.
</event>
<event>
 7    1  0.1427898E-010  0.4778727E+02  0.7816164E-02  0.1312668E+00
        -11   -1    0    0    0    0  0.00000000000E+00  0.00000000000E+00  0.45593999997E+02  0.45594000000E+02  0.51100000000E-03 0.  1.
         11   -1    0    0    0    0 -0.00000000000E+00 -0.00000000000E+00 -0.45593999997E+02  0.45594000000E+02  0.51100000000E-03 0. -1.
    9900012    2    1    2    0    0  0.36541751599E+02  0.13766525415E+02 -0.18942189739E+02  0.47787269775E+02  0.19999994213E+02 0.  0.
        -12    1    1    2    0    0 -0.36541751599E+02 -0.13766525415E+02  0.18942189739E+02  0.43400730225E+02  0.00000000000E+00 0.  1.
         11    1    3    3    0    0  0.31286955258E+02  0.68707545715E+01 -0.84172725034E+01  0.33119953418E+02  0.51100000000E-03 0. -1.
        -11    1    3    3    0    0 -0.43036640163E+00  0.11832486477E+01  0.17555996702E+00  0.12712647895E+01  0.51100000000E-03 0.  1.
         12    1    3    3    0    0  0.56851627422E+01  0.57125221960E+01 -0.10700477203E+02  0.13396051568E+02  0.00000000000E+00 0. -1.
</event>
<event>
 7    1  0.1427898E-010  0.4778727E+02  0.7816164E-02  0.1312668E+00
        -11   -1    0    0    0    0  0.00000000000E+00  0.00000000000E+00  0.45593999997E+02  0.45594000000E+02  0.51100000000E-03 0. -1.
         11   -1    0    0    0    0 -0.00000000000E+00 -0.00000000000E+00 -0.45593999997E+02  0.45594000000E+02  0.51100000000E-03 0.  1.
    9900012    2    1    2    0    0  0.35380872155E+01  0.50745885656E+00  0.43253297056E+02  0.47787270952E+02  0.19999999580E+02 0.  0.
        -12    1    1    2    0    0 -0.35380872155E+01 -0.50745885656E+00 -0.43253297056E+02  0.43400729048E+02  0.00000000000E+00 0.  1.
         11    1    3    3    0    0  0.63676054147E+01  0.57645944473E+00  0.77353104630E+01  0.10035623171E+02  0.51100000000E-03 0. -1.
        -11    1    3    3    0    0  0.43451647208E+00 -0.52623442471E+01  0.81964328906E+01  0.97500043041E+01  0.51100000000E-03 0.  1.
         12    1    3    3    0    0 -0.32640346713E+01  0.51933436589E+01  0.27321553703E+02  0.28001643477E+02  0.00000000000E+00 0. -1.
</event>
<event>
 7    1  0.1427898E-010  0.4778728E+02  0.7816164E-02  0.1312668E+00
        -11   -1    0    0    0    0  0.00000000000E+00  0.00000000000E+00  0.45593999997E+02  0.45594000000E+02  0.51100000000E-03 0.  1.
         11   -1    0    0    0    0 -0.00000000000E+00 -0.00000000000E+00 -0.45593999997E+02  0.45594000000E+02  0.51100000000E-03 0. -1.
    9900012    2    1    2    0    0  0.21774846095E+02  0.49117488535E+01 -0.37220339134E+02  0.47787275991E+02  0.20000022554E+02 0.  0.
        -12    1    1    2    0    0 -0.21774846095E+02 -0.49117488535E+01  0.37220339134E+02  0.43400724009E+02  0.00000000000E+00 0.  1.
         11    1    3    3    0    0  0.78474022867E+01  0.57422513764E+01 -0.16863945604E+02  0.19466582522E+02  0.51100000000E-03 0. -1.
        -11    1    3    3    0    0  0.21091319943E+01  0.51829113477E+01 -0.10139215256E+02  0.11580789873E+02  0.51100000000E-03 0.  1.
        -12    1    3    3    0    0  0.11818311814E+02 -0.60134138707E+01 -0.10217178274E+02  0.16739903596E+02  0.00000000000E+00 0.  1.
</event>
<event>
 7    1  0.1427898E-010  0.4778727E+02  0.7816164E-02  0.1312668E+00
        -11   -1    0    0    0    0  0.00000000000E+00  0.00000000000E+00  0.45593999997E+02  0.45594000000E+02  0.51100000000E-03 0.  1.
         11   -1    0    0    0    0 -0.00000000000E+00 -0.00000000000E+00 -0.45593999997E+02  0.45594000000E+02  0.51100000000E-03 0. -1.
    9900012    2    1    2    0    0  0.59668910576E+01  0.12659733227E+02 -0.41082240645E+02  0.47787272694E+02  0.20000007522E+02 0.  0.
        -12    1    1    2    0    0 -0.59668910576E+01 -0.12659733227E+02  0.41082240645E+02  0.43400727306E+02  0.00000000000E+00 0.  1.
         11    1    3    3    0    0 -0.19002909362E+01  0.10580391574E+02 -0.19074479733E+02  0.21895012420E+02  0.51100000000E-03 0. -1.
        -11    1    3    3    0    0  0.44964113801E+01  0.31153133963E+01 -0.24061777230E+01  0.59760006988E+01  0.51100000000E-03 0.  1.
        -12    1    3    3    0    0  0.33707706138E+01 -0.10359717436E+01 -0.19601583189E+02  0.19916259576E+02  0.00000000000E+00 0.  1.
</event>
<event>
 7    1  0.1427898E-010  0.4778727E+02  0.7816164E-02  0.1312668E+00
        -11   -1    0    0    0    0  0.00000000000E+00  0.00000000000E+00  0.45593999997E+02  0.45594000000E+02  0.51100000000E-03 0.  1.
         11   -1    0    0    0    0 -0.00000000000E+00 -0.00000000000E+00 -0.45593999997E+02  0.45594000000E+02  0.51100000000E-03 0. -1.
    9900012    2    1    2    0    0  0.19885821695E+02 -0.36479190656E+02 -0.12547769133E+02  0.47787265379E+02  0.19999974171E+02 0.  0.
        -12    1    1    2    0    0 -0.19885821695E+02  0.36479190656E+02  0.12547769133E+02  0.43400734621E+02  0.00000000000E+00 0.  1.
         11    1    3    3    0    0  0.18843014684E+02 -0.16288464196E+02 -0.10788809159E+02  0.27143538303E+02  0.51100000000E-03 0. -1.
        -11    1    3    3    0    0  0.54582000767E+00 -0.97354760234E+00 -0.84230231973E+00  0.13982803273E+01  0.51100000000E-03 0.  1.
        -12    1    3    3    0    0  0.49698700256E+00 -0.19217178857E+02 -0.91665765413E+00  0.19245446749E+02  0.00000000000E+00 0.  1.
</event>
<event>
 7    1  0.1427898E-010  0.4778727E+02  0.7816164E-02  0.1312668E+00
        -11   -1    0    0    0    0  0.00000000000E+00  0.00000000000E+00  0.45593999997E+02  0.45594000000E+02  0.51100000000E-03 0.  1.
         11   -1    0    0    0    0 -0.00000000000E+00 -0.00000000000E+00 -0.45593999997E+02  0.45594000000E+02  0.51100000000E-03 0. -1.
    9900012    2    1    2    0    0  0.27528136844E+02  0.27472177300E+02 -0.19264074611E+02  0.47787269426E+02  0.19999992621E+02 0.  0.
        -12    1    1    2    0    0 -0.27528136844E+02 -0.27472177300E+02  0.19264074611E+02  0.43400730574E+02  0.00000000000E+00 0.  1.
         11    1    3    3    0    0  0.14052502427E+02  0.21554897050E+02 -0.14190210246E+02  0.29384493843E+02  0.51100000000E-03 0. -1.
        -11    1    3    3    0    0  0.85326876753E+01  0.65218853605E+01 -0.72609088964E+01  0.12963893932E+02  0.51100000000E-03 0.  1.
        -12    1    3    3    0    0  0.49429467421E+01 -0.60460511052E+00  0.21870445311E+01  0.54388816512E+01  0.00000000000E+00 0.  1.
</event>
<event>
 7    1  0.1427898E-010  0.4778727E+02  0.7816164E-02  0.1312668E+00
        -11   -1    0    0    0    0  0.00000000000E+00  0.00000000000E+00  0.45593999997E+02  0.45594000000E+02  0.51100000000E-03 0. -1.
         11   -1    0    0    0    0 -0.00000000000E+00 -0.00000000000E+00 -0.45593999997E+02  0.45594000000E+02  0.51100000000E-03 0.  1.
    9900012    2    1    2    0    0  0.39135896886E+02  0.15626924980E+02 -0.10382878173E+02  0.47787269954E+02  0.19999995028E+02 0.  0.
        -12    1    1    2    0    0 -0.39135896886E+02 -0.15626924980E+02  0.10382878173E+02  0.43400730046E+02  0.00000000000E+00 0.  1.
         11    1    3    3    0    0  0.33233865710E+02  0.18079367155E+02 -0.93900587330E+01  0.38981105038E+02  0.51100000000E-03 0. -1.
        -11    1    3    3    0    0  0.88177419447E+00 -0.33519708175E+00 -0.28874879209E+01  0.30376750267E+01  0.51100000000E-03 0.  1.
         12    1    3    3    0    0  0.50202569813E+01 -0.21172450935E+01  0.18946684809E+01  0.57684898888E+01  0.00000000000E+00 0. -1.
</event>
<event>
 7    1  0.1427898E-010  0.4778727E+02  0.7816164E-02  0.1312668E+00
        -11   -1    0    0    0    0  0.00000000000E+00  0.00000000000E+00  0.45593999997E+02  0.45594000000E+02  0.51100000000E-03 0. -1.
         11   -1    0    0    0    0 -0.00000000000E+00 -0.00000000000E+00 -0.45593999997E+02  0.45594000000E+02  0.51100000000E-03 0.  1.
    9900012    2    1    2    0    0  0.32199120294E+02  0.19341925144E+00  0.29099871618E+02  0.47787270895E+02  0.19999999317E+02 0.  0.
        -12    1    1    2    0    0 -0.32199120294E+02 -0.19341925144E+00 -0.29099871618E+02  0.43400729105E+02  0.00000000000E+00 0.  1.
         11    1    3    3    0    0  0.14502642867E+01 -0.13923268185E+01  0.13521557362E+01  0.24228425179E+01  0.51100000000E-03 0. -1.
        -11    1    3    3    0    0  0.12206992053E+02 -0.82644306022E+01  0.13514925707E+02  0.19999117113E+02  0.51100000000E-03 0.  1.
         12    1    3    3    0    0  0.18541863954E+02  0.98501766721E+01  0.14232790175E+02  0.25365311264E+02  0.00000000000E+00 0. -1.
</event>
<event>
 7    1  0.1427898E-010  0.4778727E+02  0.7816164E-02  0.1312668E+00
        -11   -1    0    0    0    0  0.00000000000E+00  0.00000000000E+00  0.45593999997E+02  0.45594000000E+02  0.51100000000E-03 0.  1.
         11   -1    0    0    0    0 -0.00000000000E+00 -0.00000000000E+00 -0.45593999997E+02  0.45594000000E+02  0.51100000000E-03 0. -1.
    9900012    2    1    2    0    0 -0.12128733152E+02 -0.76917720598E+01 -0.40955509509E+02  0.47787270922E+02  0.19999999443E+02 0.  0.
        -12    1    1    2    0    0  0.12128733152E+02  0.76917720598E+01  0.40955509509E+02  0.43400729078E+02  0.00000000000E+00 0.  1.
         11    1    3    3    0    0 -0.12153491126E+02 -0.18129482145E+01 -0.22488250369E+02  0.25626461572E+02  0.51100000000E-03 0.  1.
        -11    1    3    3    0    0  0.43780216128E+00 -0.20936343352E+00 -0.15927268195E+02  0.15934659588E+02  0.51100000000E-03 0. -1.
        -12    1    3    3    0    0 -0.41304418772E+00 -0.56694604118E+01 -0.25399909459E+01  0.62261497626E+01  0.00000000000E+00 0.  1.
</event>
<event>
 7    1  0.1427898E-010  0.4778727E+02  0.7816164E-02  0.1312668E+00
        -11   -1    0    0    0    0  0.00000000000E+00  0.00000000000E+00  0.45593999997E+02  0.45594000000E+02  0.51100000000E-03 0.  1.
         11   -1    0    0    0    0 -0.00000000000E+00 -0.00000000000E+00 -0.45593999997E+02  0.45594000000E+02  0.51100000000E-03 0. -1.
    9900012    2    1    2    0    0 -0.42092133690E+02  0.37902526888E+01 -0.98746921017E+01  0.47787270995E+02  0.19999999776E+02 0.  0.
        -12    1    1    2    0    0  0.42092133690E+02 -0.37902526888E+01  0.98746921017E+01  0.43400729005E+02  0.00000000000E+00 0.  1.
         11    1    3    3    0    0 -0.24941493635E+02 -0.48809659720E+01 -0.13596173424E+01  0.25450942873E+02  0.51100000000E-03 0. -1.
        -11    1    3    3    0    0 -0.32944767667E+01  0.75135034057E+00 -0.49331002643E+01  0.59794299878E+01  0.51100000000E-03 0.  1.
         12    1    3    3    0    0 -0.13856163288E+02  0.79198683203E+01 -0.35819744950E+01  0.16356898134E+02  0.00000000000E+00 0. -1.
</event>
<event>
 7    1  0.1427898E-010  0.4778727E+02  0.7816164E-02  0.1312668E+00
        -11   -1    0    0    0    0  0.00000000000E+00  0.00000000000E+00  0.45593999997E+02  0.45594000000E+02  0.51100000000E-03 0.  1.
         11   -1    0    0    0    0 -0.00000000000E+00 -0.00000000000E+00 -0.45593999997E+02  0.45594000000E+02  0.51100000000E-03 0. -1.
    9900012    2    1    2    0    0 -0.27134902674E+02 -0.33470071133E+02  0.52033417683E+01  0.47787269933E+02  0.19999994933E+02 0.  0.
        -12    1    1    2    0    0  0.27134902674E+02  0.33470071133E+02 -0.52033417683E+01  0.43400730067E+02  0.00000000000E+00 0.  1.
         11    1    3    3    0    0 -0.14216568659E+02 -0.11589230840E+02 -0.35475409089E+01  0.18681706096E+02  0.51100000000E-03 0. -1.
        -11    1    3    3    0    0 -0.33590839617E+01 -0.14983321964E+02  0.19024050722E+01  0.15472638025E+02  0.51100000000E-03 0.  1.
        -12    1    3    3    0    0 -0.95592500537E+01 -0.68975183292E+01  0.68484776050E+01  0.13632925812E+02  0.00000000000E+00 0.  1.
</event>
<event>
 7    1  0.1427898E-010  0.4778725E+02  0.7816164E-02  0.1312668E+00
        -11   -1    0    0    0    0  0.00000000000E+00  0.00000000000E+00  0.45593999997E+02  0.45594000000E+02  0.51100000000E-03 0.  1.
         11   -1    0    0    0    0 -0.00000000000E+00 -0.00000000000E+00 -0.45593999997E+02  0.45594000000E+02  0.51100000000E-03 0. -1.
    9900012    2    1    2    0    0  0.40606427673E+02  0.13421523231E+02 -0.73895601512E+01  0.47787252847E+02  0.19999917030E+02 0.  0.
        -12    1    1    2    0    0 -0.40606427673E+02 -0.13421523231E+02  0.73895601512E+01  0.43400747153E+02  0.00000000000E+00 0.  1.
         11    1    3    3    0    0  0.97435405362E+01  0.28004081698E+01  0.10001538549E+01  0.10187206491E+02  0.51100000000E-03 0. -1.
        -11    1    3    3    0    0  0.11806098554E+02  0.22071709661E+01  0.48106431088E+01  0.12938232264E+02  0.51100000000E-03 0.  1.
         12    1    3    3    0    0  0.19056788583E+02  0.84139440955E+01 -0.13200357115E+02  0.24661814092E+02  0.00000000000E+00 0. -1.
</event>
<event>
 7    1  0.1427898E-010  0.4778727E+02  0.7816164E-02  0.1312668E+00
        -11   -1    0    0    0    0  0.00000000000E+00  0.00000000000E+00  0.45593999997E+02  0.45594000000E+02  0.51100000000E-03 0.  1.
         11   -1    0    0    0    0 -0.00000000000E+00 -0.00000000000E+00 -0.45593999997E+02  0.45594000000E+02  0.51100000000E-03 0. -1.
    9900012    2    1    2    0    0 -0.36882576276E+02 -0.14123920793E+02 -0.17994825651E+02  0.47787270495E+02  0.19999997496E+02 0.  0.
        -12    1    1    2    0    0  0.36882576276E+02  0.14123920793E+02  0.17994825651E+02  0.43400729505E+02  0.00000000000E+00 0.  1.
         11    1    3    3    0    0  0.62509279188E-01 -0.37119873504E+01  0.81846815164E+00  0.38016638300E+01  0.51100000000E-03 0. -1.
        -11    1    3    3    0    0 -0.11275724290E+02  0.30547424345E+00 -0.91950552633E+01  0.14552811217E+02  0.51100000000E-03 0.  1.
         12    1    3    3    0    0 -0.25669361265E+02 -0.10717407686E+02 -0.96182385398E+01  0.29432795448E+02  0.00000000000E+00 0. -1.
</event>
<event>
 7    1  0.1427898E-010  0.4778728E+02  0.7816164E-02  0.1312668E+00
        -11   -1    0    0    0    0  0.00000000000E+00  0.00000000000E+00  0.45593999997E+02  0.45594000000E+02  0.51100000000E-03 0.  1.
         11   -1    0    0    0    0 -0.00000000000E+00 -0.00000000000E+00 -0.45593999997E+02  0.45594000000E+02  0.51100000000E-03 0. -1.
    9900012    2    1    2    0    0  0.49995685521E+01 -0.15296196795E+02 -0.40306985191E+02  0.47787281373E+02  0.20000047094E+02 0.  0.
        -12    1    1    2    0    0 -0.49995685521E+01  0.15296196795E+02  0.40306985191E+02  0.43400718627E+02  0.00000000000E+00 0.  1.
         11    1    3    3    0    0 -0.20140707172E+01 -0.26029309118E+01 -0.39437073668E+01  0.51365901376E+01  0.51100000000E-03 0. -1.
        -11    1    3    3    0    0  0.76540830813E+00  0.41258399074E+01 -0.50973490544E+01  0.66023762740E+01  0.51100000000E-03 0.  1.
         12    1    3    3    0    0  0.62482309611E+01 -0.16819105790E+02 -0.31265928770E+02  0.36048314962E+02  0.00000000000E+00 0. -1.
</event>
<event>
 7    1  0.1427898E-010  0.4778727E+02  0.7816164E-02  0.1312668E+00
        -11   -1    0    0    0    0  0.00000000000E+00  0.00000000000E+00  0.45593999997E+02  0.45594000000E+02  0.51100000000E-03 0.  1.
         11   -1    0    0    0    0 -0.00000000000E+00 -0.00000000000E+00 -0.45593999997E+02  0.45594000000E+02  0.51100000000E-03 0. -1.
    9900012    2    1    2    0    0 -0.32515404492E+02  0.20602771225E+01 -0.28672761580E+02  0.47787268120E+02  0.19999986667E+02 0.  0.
        -12    1    1    2    0    0  0.32515404492E+02 -0.20602771225E+01  0.28672761580E+02  0.43400731880E+02  0.00000000000E+00 0.  1.
         11    1    3    3    0    0 -0.23935265661E+02  0.41143940824E+01 -0.10798272232E+02  0.26578710736E+02  0.51100000000E-03 0. -1.
        -11    1    3    3    0    0 -0.75075455146E+01 -0.36624221601E+01 -0.96650331260E+01  0.12774562275E+02  0.51100000000E-03 0.  1.
        -12    1    3    3    0    0 -0.10725933160E+01  0.16083052002E+01 -0.82094562220E+01  0.84339951090E+01  0.00000000000E+00 0.  1.
</event>
<event>
 7    1  0.1427898E-010  0.4778730E+02  0.7816164E-02  0.1312668E+00
        -11   -1    0    0    0    0  0.00000000000E+00  0.00000000000E+00  0.45593999997E+02  0.45594000000E+02  0.51100000000E-03 0. -1.
         11   -1    0    0    0    0 -0.00000000000E+00 -0.00000000000E+00 -0.45593999997E+02  0.45594000000E+02  0.51100000000E-03 0.  1.
    9900012    2    1    2    0    0  0.34655507862E+02 -0.10057212435E+02 -0.24113664997E+02  0.47787302002E+02  0.20000141148E+02 0.  0.
        -12    1    1    2    0    0 -0.34655507862E+02  0.10057212435E+02  0.24113664997E+02  0.43400697998E+02  0.00000000000E+00 0.  1.
         11    1    3    3    0    0  0.21907539663E+02 -0.68553007316E+00 -0.93592779015E+01  0.23832883347E+02  0.51100000000E-03 0. -1.
        -11    1    3    3    0    0  0.11463994814E+02 -0.91836726747E+01 -0.73276422592E+01  0.16415156479E+02  0.51100000000E-03 0.  1.
        -12    1    3    3    0    0  0.12839733854E+01 -0.18800968722E+00 -0.74267448360E+01  0.75392621758E+01  0.00000000000E+00 0.  1.
</event>
<event>
 7    1  0.1427898E-010  0.4778727E+02  0.7816164E-02  0.1312668E+00
        -11   -1    0    0    0    0  0.00000000000E+00  0.00000000000E+00  0.45593999997E+02  0.45594000000E+02  0.51100000000E-03 0.  1.
         11   -1    0    0    0    0 -0.00000000000E+00 -0.00000000000E+00 -0.45593999997E+02  0.45594000000E+02  0.51100000000E-03 0. -1.
    9900012    2    1    2    0    0 -0.19840835781E+00 -0.11969761162E+02 -0.41717009423E+02  0.47787269322E+02  0.19999992148E+02 0.  0.
        -12    1    1    2    0    0  0.19840835781E+00  0.11969761162E+02  0.41717009423E+02  0.43400730678E+02  0.00000000000E+00 0.  1.
         11    1    3    3    0    0 -0.58643007154E+01 -0.39137543229E+01 -0.14829206931E+02  0.16419892638E+02  0.51100000000E-03 0. -1.
        -11    1    3    3    0    0 -0.22410454335E+01 -0.64696438183E+01 -0.64927929431E+01  0.94358325671E+01  0.51100000000E-03 0.  1.
        -12    1    3    3    0    0  0.79069377911E+01 -0.15863630206E+01 -0.20395009549E+02  0.21931544117E+02  0.00000000000E+00 0.  1.
</event>
<event>
 7    1  0.1427898E-010  0.4778727E+02  0.7816164E-02  0.1312668E+00
        -11   -1    0    0    0    0  0.00000000000E+00  0.00000000000E+00  0.45593999997E+02  0.45594000000E+02  0.51100000000E-03 0. -1.
         11   -1    0    0    0    0 -0.00000000000E+00 -0.00000000000E+00 -0.45593999997E+02  0.45594000000E+02  0.51100000000E-03 0.  1.
    9900012    2    1    2    0    0 -0.22744092915E+02  0.35996192810E+02  0.84026215069E+01  0.47787266049E+02  0.19999977223E+02 0.  0.
        -12    1    1    2    0    0  0.22744092915E+02 -0.35996192810E+02 -0.84026215069E+01  0.43400733951E+02  0.00000000000E+00 0.  1.
         11    1    3    3    0    0 -0.41336388999E+01  0.14941908043E+02  0.31269752678E+01  0.15815358394E+02  0.51100000000E-03 0. -1.
        -11    1    3    3    0    0 -0.81393814770E+01  0.75200134420E+01 -0.48413646799E+01  0.12092929555E+02  0.51100000000E-03 0.  1.
         12    1    3    3    0    0 -0.10471072538E+02  0.13534271324E+02  0.10117010919E+02  0.19878978100E+02  0.00000000000E+00 0. -1.
</event>
<event>
 7    1  0.1427898E-010  0.4778727E+02  0.7816164E-02  0.1312668E+00
        -11   -1    0    0    0    0  0.00000000000E+00  0.00000000000E+00  0.45593999997E+02  0.45594000000E+02  0.51100000000E-03 0. -1.
         11   -1    0    0    0    0 -0.00000000000E+00 -0.00000000000E+00 -0.45593999997E+02  0.45594000000E+02  0.51100000000E-03 0.  1.
    9900012    2    1    2    0    0  0.22825805717E+02  0.10642943870E+02  0.35345920583E+02  0.47787265413E+02  0.19999974325E+02 0.  0.
        -12    1    1    2    0    0 -0.22825805717E+02 -0.10642943870E+02 -0.35345920583E+02  0.43400734587E+02  0.00000000000E+00 0.  1.
         11    1    3    3    0    0  0.10664220255E+02  0.20041730718E+01  0.13237060707E+02  0.17116135071E+02  0.51100000000E-03 0. -1.
        -11    1    3    3    0    0 -0.27372290745E+01 -0.37802592995E+00  0.73196703383E+01  0.78238673770E+01  0.51100000000E-03 0.  1.
         12    1    3    3    0    0  0.14898814536E+02  0.90167967279E+01  0.14789189537E+02  0.22847262965E+02  0.00000000000E+00 0. -1.
</event>
<event>
 7    1  0.1427898E-010  0.4778727E+02  0.7816164E-02  0.1312668E+00
        -11   -1    0    0    0    0  0.00000000000E+00  0.00000000000E+00  0.45593999997E+02  0.45594000000E+02  0.51100000000E-03 0.  1.
         11   -1    0    0    0    0 -0.00000000000E+00 -0.00000000000E+00 -0.45593999997E+02  0.45594000000E+02  0.51100000000E-03 0. -1.
    9900012    2    1    2    0    0  0.33994633459E+02 -0.21083242862E+02 -0.16837007144E+02  0.47787273703E+02  0.20000012119E+02 0.  0.
        -12    1    1    2    0    0 -0.33994633459E+02  0.21083242862E+02  0.16837007144E+02  0.43400726297E+02  0.00000000000E+00 0.  1.
         11    1    3    3    0    0  0.25664937039E+02 -0.16799915521E+02 -0.38288876555E+01  0.30912562749E+02  0.51100000000E-03 0. -1.
        -11    1    3    3    0    0  0.12311888588E+00 -0.21988392141E+01 -0.35748850301E+01  0.41987921345E+01  0.51100000000E-03 0.  1.
         12    1    3    3    0    0  0.82065775338E+01 -0.20844881265E+01 -0.94332344582E+01  0.12675918819E+02  0.00000000000E+00 0. -1.
</event>
<event>
 7    1  0.1427898E-010  0.4778727E+02  0.7816164E-02  0.1312668E+00
        -11   -1    0    0    0    0  0.00000000000E+00  0.00000000000E+00  0.45593999997E+02  0.45594000000E+02  0.51100000000E-03 0.  1.
         11   -1    0    0    0    0 -0.00000000000E+00 -0.00000000000E+00 -0.45593999997E+02  0.45594000000E+02  0.51100000000E-03 0. -1.
    9900012    2    1    2    0    0  0.28226522566E+02  0.79130145456E+01 -0.32004233316E+02  0.47787270450E+02  0.19999997291E+02 0.  0.
        -12    1    1    2    0    0 -0.28226522566E+02 -0.79130145456E+01  0.32004233316E+02  0.43400729550E+02  0.00000000000E+00 0.  1.
         11    1    3    3    0    0  0.16723610849E+02  0.50974600362E+01 -0.28481329469E+02  0.33419296630E+02  0.51100000000E-03 0. -1.
        -11    1    3    3    0    0 -0.40777452111E+00  0.16734327576E+01  0.41430374902E+00  0.17715262098E+01  0.51100000000E-03 0.  1.
         12    1    3    3    0    0  0.11910686238E+02  0.11421217517E+01 -0.39372075952E+01  0.12596447611E+02  0.00000000000E+00 0. -1.
</event>
<event>
 7    1  0.1427898E-010  0.4778727E+02  0.7816164E-02  0.1312668E+00
        -11   -1    0    0    0    0  0.00000000000E+00  0.00000000000E+00  0.45593999997E+02  0.45594000000E+02  0.51100000000E-03 0. -1.
         11   -1    0    0    0    0 -0.00000000000E+00 -0.00000000000E+00 -0.45593999997E+02  0.45594000000E+02  0.51100000000E-03 0.  1.
    9900012    2    1    2    0    0  0.35237707469E+02 -0.13098802828E+02  0.21687517368E+02  0.47787273361E+02  0.20000010563E+02 0.  0.
        -12    1    1    2    0    0 -0.35237707469E+02  0.13098802828E+02 -0.21687517368E+02  0.43400726639E+02  0.00000000000E+00 0.  1.
         11    1    3    3    0    0  0.13658817190E+02 -0.50213744962E+01  0.32735323354E+01  0.14916216111E+02  0.51100000000E-03 0. -1.
        -11    1    3    3    0    0  0.78083432187E+00 -0.40236218416E+01 -0.90426113894E+00  0.41972518904E+01  0.51100000000E-03 0.  1.
        -12    1    3    3    0    0  0.20798055957E+02 -0.40538064898E+01  0.19318246172E+02  0.28673805360E+02  0.00000000000E+00 0.  1.
</event>
<event>
 7    1  0.1427898E-010  0.4778727E+02  0.7816164E-02  0.1312668E+00
        -11   -1    0    0    0    0  0.00000000000E+00  0.00000000000E+00  0.45593999997E+02  0.45594000000E+02  0.51100000000E-03 0. -1.
         11   -1    0    0    0    0 -0.00000000000E+00 -0.00000000000E+00 -0.45593999997E+02  0.45594000000E+02  0.51100000000E-03 0.  1.
    9900012    2    1    2    0    0 -0.22290455960E+02  0.45485893060E+01  0.36960370906E+02  0.47787272943E+02  0.20000008654E+02 0.  0.
        -12    1    1    2    0    0  0.22290455960E+02 -0.45485893060E+01 -0.36960370906E+02  0.43400727057E+02  0.00000000000E+00 0.  1.
         11    1    3    3    0    0 -0.14027544247E+02  0.62208229343E+01  0.15827250053E+02  0.22044783512E+02  0.51100000000E-03 0. -1.
        -11    1    3    3    0    0 -0.48835254345E+01 -0.34545914344E+01  0.21155930013E+01  0.63449788539E+01  0.51100000000E-03 0.  1.
        -12    1    3    3    0    0 -0.33793862780E+01  0.17823578062E+01  0.19017527852E+02  0.19397510576E+02  0.00000000000E+00 0.  1.
</event>
<event>
 7    1  0.1427898E-010  0.4778727E+02  0.7816164E-02  0.1312668E+00
        -11   -1    0    0    0    0  0.00000000000E+00  0.00000000000E+00  0.45593999997E+02  0.45594000000E+02  0.51100000000E-03 0.  1.
         11   -1    0    0    0    0 -0.00000000000E+00 -0.00000000000E+00 -0.45593999997E+02  0.45594000000E+02  0.51100000000E-03 0. -1.
    9900012    2    1    2    0    0  0.23780352992E+02  0.17066726613E+02 -0.32044421752E+02  0.47787270615E+02  0.19999998043E+02 0.  0.
        -12    1    1    2    0    0 -0.23780352992E+02 -0.17066726613E+02  0.32044421752E+02  0.43400729385E+02  0.00000000000E+00 0.  1.
         11    1    3    3    0    0  0.34999642154E+01  0.98107717258E+01 -0.19163718873E+02  0.21811673771E+02  0.51100000000E-03 0. -1.
        -11    1    3    3    0    0  0.93353769039E+01  0.14522215513E+01 -0.88567145753E+01  0.12949888135E+02  0.51100000000E-03 0.  1.
         12    1    3    3    0    0  0.10945011873E+02  0.58037333356E+01 -0.40239883033E+01  0.13025708710E+02  0.00000000000E+00 0. -1.
</event>
<event>
 7    1  0.1427898E-010  0.4778727E+02  0.7816164E-02  0.1312668E+00
        -11   -1    0    0    0    0  0.00000000000E+00  0.00000000000E+00  0.45593999997E+02  0.45594000000E+02  0.51100000000E-03 0.  1.
         11   -1    0    0    0    0 -0.00000000000E+00 -0.00000000000E+00 -0.45593999997E+02  0.45594000000E+02  0.51100000000E-03 0. -1.
    9900012    2    1    2    0    0 -0.19715876181E+02  0.38540819532E+02  0.30842896355E+01  0.47787269749E+02  0.19999994091E+02 0.  0.
        -12    1    1    2    0    0  0.19715876181E+02 -0.38540819532E+02 -0.30842896355E+01  0.43400730251E+02  0.00000000000E+00 0.  1.
         11    1    3    3    0    0 -0.10457727191E+02  0.21754192474E+02 -0.12322877001E+01  0.24168729413E+02  0.51100000000E-03 0. -1.
        -11    1    3    3    0    0 -0.81880166505E+01  0.18084945613E+02  0.64753525319E+01  0.20881548438E+02  0.51100000000E-03 0.  1.
        -12    1    3    3    0    0 -0.10701323398E+01 -0.12983185556E+01 -0.21587751963E+01  0.27369918970E+01  0.00000000000E+00 0.  1.
</event>
<event>
 7    1  0.1427898E-010  0.4778727E+02  0.7816164E-02  0.1312668E+00
        -11   -1    0    0    0    0  0.00000000000E+00  0.00000000000E+00  0.45593999997E+02  0.45594000000E+02  0.51100000000E-03 0. -1.
         11   -1    0    0    0    0 -0.00000000000E+00 -0.00000000000E+00 -0.45593999997E+02  0.45594000000E+02  0.51100000000E-03 0.  1.
    9900012    2    1    2    0    0  0.33110364862E+02 -0.46546016808E+01  0.27670590495E+02  0.47787272398E+02  0.20000006169E+02 0.  0.
        -12    1    1    2    0    0 -0.33110364862E+02  0.46546016808E+01 -0.27670590495E+02  0.43400727602E+02  0.00000000000E+00 0.  1.
         11    1    3    3    0    0  0.27524855179E+02 -0.62507031597E+01  0.29135632325E+02  0.40565675316E+02  0.51100000000E-03 0. -1.
        -11    1    3    3    0    0  0.87368048977E+00 -0.94014651741E+00 -0.13593364003E+01  0.18694889095E+01  0.51100000000E-03 0.  1.
         12    1    3    3    0    0  0.47118291934E+01  0.25362479963E+01 -0.10570543012E+00  0.53521081720E+01  0.00000000000E+00 0. -1.
</event>
<event>
 7    1  0.1427898E-010  0.4778727E+02  0.7816164E-02  0.1312668E+00
        -11   -1    0    0    0    0  0.00000000000E+00  0.00000000000E+00  0.45593999997E+02  0.45594000000E+02  0.51100000000E-03 0. -1.
         11   -1    0    0    0    0 -0.00000000000E+00 -0.00000000000E+00 -0.45593999997E+02  0.45594000000E+02  0.51100000000E-03 0.  1.
    9900012    2    1    2    0    0  0.22364469170E+02 -0.33704826625E+02  0.15730176489E+02  0.47787271072E+02  0.20000000127E+02 0.  0.
        -12    1    1    2    0    0 -0.22364469170E+02  0.33704826625E+02 -0.15730176489E+02  0.43400728928E+02  0.00000000000E+00 0.  1.
         11    1    3    3    0    0  0.52918273761E+01 -0.46984412954E+01  0.51626203023E+01  0.87596481796E+01  0.51100000000E-03 0. -1.
        -11    1    3    3    0    0  0.71486671863E+01 -0.24053317611E+02  0.23086537268E+01  0.25199115320E+02  0.51100000000E-03 0.  1.
        -12    1    3    3    0    0  0.99239746078E+01 -0.49530677191E+01  0.82589024596E+01  0.13828507573E+02  0.00000000000E+00 0.  1.
</event>
<event>
 7    1  0.1427898E-010  0.4778726E+02  0.7816164E-02  0.1312668E+00
        -11   -1    0    0    0    0  0.00000000000E+00  0.00000000000E+00  0.45593999997E+02  0.45594000000E+02  0.51100000000E-03 0.  1.
         11   -1    0    0    0    0 -0.00000000000E+00 -0.00000000000E+00 -0.45593999997E+02  0.45594000000E+02  0.51100000000E-03 0. -1.
    9900012    2    1    2    0    0  0.29929231027E+02 -0.10360470620E+02 -0.29673652522E+02  0.47787264115E+02  0.19999968406E+02 0.  0.
        -12    1    1    2    0    0 -0.29929231027E+02  0.10360470620E+02  0.29673652522E+02  0.43400735885E+02  0.00000000000E+00 0.  1.
         11    1    3    3    0    0  0.10092506773E+01 -0.73130502969E+01 -0.10570017086E+02  0.12892810130E+02  0.51100000000E-03 0.  1.
        -11    1    3    3    0    0  0.10584147904E+02 -0.12850947735E+01 -0.55112419094E+01  0.12002059951E+02  0.51100000000E-03 0. -1.
        -12    1    3    3    0    0  0.18335832446E+02 -0.17623255494E+01 -0.13592393526E+02  0.22892394034E+02  0.00000000000E+00 0.  1.
</event>
<event>
 7    1  0.1427898E-010  0.4778727E+02  0.7816164E-02  0.1312668E+00
        -11   -1    0    0    0    0  0.00000000000E+00  0.00000000000E+00  0.45593999997E+02  0.45594000000E+02  0.51100000000E-03 0. -1.
         11   -1    0    0    0    0 -0.00000000000E+00 -0.00000000000E+00 -0.45593999997E+02  0.45594000000E+02  0.51100000000E-03 0.  1.
    9900012    2    1    2    0    0 -0.18768762233E+02  0.22855590968E+02  0.31764424768E+02  0.47787272413E+02  0.20000006238E+02 0.  0.
        -12    1    1    2    0    0  0.18768762233E+02 -0.22855590968E+02 -0.31764424768E+02  0.43400727587E+02  0.00000000000E+00 0.  1.
         11    1    3    3    0    0 -0.96420205564E+01  0.11352014743E+02  0.13162085880E+02  0.19876551615E+02  0.51100000000E-03 0. -1.
        -11    1    3    3    0    0 -0.33038252227E+01  0.12766874047E+01  0.15275999807E+02  0.15681242368E+02  0.51100000000E-03 0.  1.
        -12    1    3    3    0    0 -0.58229164544E+01  0.10226888820E+02  0.33263390811E+01  0.12229478430E+02  0.00000000000E+00 0.  1.
</event>
<event>
 7    1  0.1427898E-010  0.4778727E+02  0.7816164E-02  0.1312668E+00
        -11   -1    0    0    0    0  0.00000000000E+00  0.00000000000E+00  0.45593999997E+02  0.45594000000E+02  0.51100000000E-03 0.  1.
         11   -1    0    0    0    0 -0.00000000000E+00 -0.00000000000E+00 -0.45593999997E+02  0.45594000000E+02  0.51100000000E-03 0. -1.
    9900012    2    1    2    0    0  0.59594918605E+01  0.27012200390E+02 -0.33443223285E+02  0.47787266172E+02  0.19999977784E+02 0.  0.
        -12    1    1    2    0    0 -0.59594918605E+01 -0.27012200390E+02  0.33443223285E+02  0.43400733828E+02  0.00000000000E+00 0.  1.
         11    1    3    3    0    0 -0.60526711590E+00  0.11926133076E+02 -0.12946807552E+02  0.17613029963E+02  0.51100000000E-03 0. -1.
        -11    1    3    3    0    0  0.83246309862E+00  0.34897397223E+01  0.20854426356E+01  0.41497408820E+01  0.51100000000E-03 0.  1.
         12    1    3    3    0    0  0.57322958777E+01  0.11596327592E+02 -0.22581858368E+02  0.26024495327E+02  0.00000000000E+00 0. -1.
</event>
<event>
 7    1  0.1427898E-010  0.4778727E+02  0.7816164E-02  0.1312668E+00
        -11   -1    0    0    0    0  0.00000000000E+00  0.00000000000E+00  0.45593999997E+02  0.45594000000E+02  0.51100000000E-03 0.  1.
         11   -1    0    0    0    0 -0.00000000000E+00 -0.00000000000E+00 -0.45593999997E+02  0.45594000000E+02  0.51100000000E-03 0. -1.
    9900012    2    1    2    0    0  0.43426573318E+01 -0.30955250494E+02 -0.30108755713E+02  0.47787269863E+02  0.19999994612E+02 0.  0.
        -12    1    1    2    0    0 -0.43426573318E+01  0.30955250494E+02  0.30108755713E+02  0.43400730137E+02  0.00000000000E+00 0.  1.
         11    1    3    3    0    0 -0.25043513306E+01 -0.15324957717E+02 -0.20873394539E+02  0.26015854867E+02  0.51100000000E-03 0. -1.
        -11    1    3    3    0    0  0.59092418389E+01 -0.52916532504E+01 -0.80855994846E+01  0.11326855368E+02  0.51100000000E-03 0.  1.
         12    1    3    3    0    0  0.93776682344E+00 -0.10338639527E+02 -0.11497616893E+01  0.10444559628E+02  0.00000000000E+00 0. -1.
</event>
<event>
 7    1  0.1427898E-010  0.4778727E+02  0.7816164E-02  0.1312668E+00
        -11   -1    0    0    0    0  0.00000000000E+00  0.00000000000E+00  0.45593999997E+02  0.45594000000E+02  0.51100000000E-03 0. -1.
         11   -1    0    0    0    0 -0.00000000000E+00 -0.00000000000E+00 -0.45593999997E+02  0.45594000000E+02  0.51100000000E-03 0.  1.
    9900012    2    1    2    0    0  0.35984596625E+02  0.20324286311E+02  0.13253509699E+02  0.47787270425E+02  0.19999997175E+02 0.  0.
        -12    1    1    2    0    0 -0.35984596625E+02 -0.20324286311E+02 -0.13253509699E+02  0.43400729575E+02  0.00000000000E+00 0.  1.
         11    1    3    3    0    0 -0.15827783268E+00  0.39685998507E+00 -0.10515822061E+00  0.44000935507E+00  0.51100000000E-03 0.  1.
        -11    1    3    3    0    0  0.28811283404E+02  0.23505527930E+02  0.12034707449E+02  0.39082401133E+02  0.51100000000E-03 0. -1.
         12    1    3    3    0    0  0.73315910529E+01 -0.35781016032E+01  0.13239604709E+01  0.82648599370E+01  0.00000000000E+00 0. -1.
</event>
<event>
 7    1  0.1427898E-010  0.4778727E+02  0.7816164E-02  0.1312668E+00
        -11   -1    0    0    0    0  0.00000000000E+00  0.00000000000E+00  0.45593999997E+02  0.45594000000E+02  0.51100000000E-03 0.  1.
         11   -1    0    0    0    0 -0.00000000000E+00 -0.00000000000E+00 -0.45593999997E+02  0.45594000000E+02  0.51100000000E-03 0. -1.
    9900012    2    1    2    0    0 -0.18212668066E+02  0.25633295665E+02 -0.29914144961E+02  0.47787271970E+02  0.20000004221E+02 0.  0.
        -12    1    1    2    0    0  0.18212668066E+02 -0.25633295665E+02  0.29914144961E+02  0.43400728030E+02  0.00000000000E+00 0.  1.
         11    1    3    3    0    0 -0.18089809589E+02  0.11849894149E+02 -0.14845233136E+02  0.26230557551E+02  0.51100000000E-03 0. -1.
        -11    1    3    3    0    0  0.90713033458E+00  0.26383078069E+01 -0.50783165941E-02  0.27899067329E+01  0.51100000000E-03 0.  1.
         12    1    3    3    0    0 -0.10299888109E+01  0.11145093710E+02 -0.15063833509E+02  0.18766807686E+02  0.00000000000E+00 0. -1.
</event>
<event>
 7    1  0.1427898E-010  0.4778727E+02  0.7816164E-02  0.1312668E+00
        -11   -1    0    0    0    0  0.00000000000E+00  0.00000000000E+00  0.45593999997E+02  0.45594000000E+02  0.51100000000E-03 0.  1.
         11   -1    0    0    0    0 -0.00000000000E+00 -0.00000000000E+00 -0.45593999997E+02  0.45594000000E+02  0.51100000000E-03 0. -1.
    9900012    2    1    2    0    0  0.32747034778E+02 -0.25225729297E+02 -0.13225635702E+02  0.47787272529E+02  0.20000006767E+02 0.  0.
        -12    1    1    2    0    0 -0.32747034778E+02  0.25225729297E+02  0.13225635702E+02  0.43400727471E+02  0.00000000000E+00 0.  1.
         11    1    3    3    0    0  0.85366527432E+01 -0.71084834235E+01 -0.89138780473E+01  0.14242970152E+02  0.51100000000E-03 0. -1.
        -11    1    3    3    0    0  0.10871325537E+02 -0.15497803018E+02 -0.59701633437E+01  0.19849696923E+02  0.51100000000E-03 0.  1.
        -12    1    3    3    0    0  0.13339056497E+02 -0.26194428559E+01  0.16584056887E+01  0.13694605454E+02  0.00000000000E+00 0.  1.
</event>
<event>
 7    1  0.1427898E-010  0.4778728E+02  0.7816164E-02  0.1312668E+00
        -11   -1    0    0    0    0  0.00000000000E+00  0.00000000000E+00  0.45593999997E+02  0.45594000000E+02  0.51100000000E-03 0.  1.
         11   -1    0    0    0    0 -0.00000000000E+00 -0.00000000000E+00 -0.45593999997E+02  0.45594000000E+02  0.51100000000E-03 0. -1.
    9900012    2    1    2    0    0 -0.33134796939E+02  0.26278209742E+02 -0.97551941744E+01  0.47787275480E+02  0.20000020225E+02 0.  0.
        -12    1    1    2    0    0  0.33134796939E+02 -0.26278209742E+02  0.97551941744E+01  0.43400724520E+02  0.00000000000E+00 0.  1.
         11    1    3    3    0    0 -0.44030914284E+01  0.86383658711E+01  0.11525999314E+01  0.97640701509E+01  0.51100000000E-03 0. -1.
        -11    1    3    3    0    0 -0.10198638219E+02 -0.68719753437E+00 -0.45841303554E+01  0.11202620825E+02  0.51100000000E-03 0.  1.
         12    1    3    3    0    0 -0.18533067292E+02  0.18327041406E+02 -0.63236637504E+01  0.26820584504E+02  0.00000000000E+00 0. -1.
</event>
<event>
 7    1  0.1427898E-010  0.4778727E+02  0.7816164E-02  0.1312668E+00
        -11   -1    0    0    0    0  0.00000000000E+00  0.00000000000E+00  0.45593999997E+02  0.45594000000E+02  0.51100000000E-03 0.  1.
         11   -1    0    0    0    0 -0.00000000000E+00 -0.00000000000E+00 -0.45593999997E+02  0.45594000000E+02  0.51100000000E-03 0. -1.
    9900012    2    1    2    0    0 -0.82377120470E+01 -0.29012251799E+02 -0.31209815979E+02  0.47787271116E+02  0.20000000326E+02 0.  0.
        -12    1    1    2    0    0  0.82377120470E+01  0.29012251799E+02  0.31209815979E+02  0.43400728884E+02  0.00000000000E+00 0.  1.
         11    1    3    3    0    0 -0.88673591814E+01 -0.17830172804E+02 -0.82955568609E+01  0.21572236438E+02  0.51100000000E-03 0. -1.
        -11    1    3    3    0    0  0.26175817798E+01 -0.48014311930E+01 -0.65128075452E+01  0.85042423682E+01  0.51100000000E-03 0.  1.
         12    1    3    3    0    0 -0.19879346454E+01 -0.63806478025E+01 -0.16401451573E+02  0.17710792309E+02  0.00000000000E+00 0. -1.
</event>
<event>
 7    1  0.1427898E-010  0.4778727E+02  0.7816164E-02  0.1312668E+00
        -11   -1    0    0    0    0  0.00000000000E+00  0.00000000000E+00  0.45593999997E+02  0.45594000000E+02  0.51100000000E-03 0.  1.
         11   -1    0    0    0    0 -0.00000000000E+00 -0.00000000000E+00 -0.45593999997E+02  0.45594000000E+02  0.51100000000E-03 0. -1.
    9900012    2    1    2    0    0 -0.35471919868E+02 -0.12380857282E+02 -0.21727408254E+02  0.47787274250E+02  0.20000014616E+02 0.  0.
        -12    1    1    2    0    0  0.35471919868E+02  0.12380857282E+02  0.21727408254E+02  0.43400725750E+02  0.00000000000E+00 0.  1.
         11    1    3    3    0    0  0.22461617951E+01 -0.22023207812E+01 -0.27088463944E+01  0.41513020466E+01  0.51100000000E-03 0. -1.
        -11    1    3    3    0    0 -0.15423484486E+02 -0.61276207790E+01 -0.73976324503E+01  0.18170211233E+02  0.51100000000E-03 0.  1.
        -12    1    3    3    0    0 -0.22294597177E+02 -0.40509157219E+01 -0.11620929409E+02  0.25465760971E+02  0.00000000000E+00 0.  1.
</event>
<event>
 7    1  0.1427898E-010  0.4778724E+02  0.7816164E-02  0.1312668E+00
        -11   -1    0    0    0    0  0.00000000000E+00  0.00000000000E+00  0.45593999997E+02  0.45594000000E+02  0.51100000000E-03 0. -1.
         11   -1    0    0    0    0 -0.00000000000E+00 -0.00000000000E+00 -0.45593999997E+02  0.45594000000E+02  0.51100000000E-03 0.  1.
    9900012    2    1    2    0    0  0.21125885954E+02 -0.24916533284E+02 -0.28574274222E+02  0.47787241533E+02  0.19999865444E+02 0.  0.
        -12    1    1    2    0    0 -0.21125885954E+02  0.24916533284E+02  0.28574274222E+02  0.43400758467E+02  0.00000000000E+00 0.  1.
         11    1    3    3    0    0  0.81376218720E+01 -0.78063171445E+01 -0.13613289401E+02  0.17677135675E+02  0.51100000000E-03 0.  1.
        -11    1    3    3    0    0 -0.29739031613E+01 -0.56350726932E+01 -0.48225355328E+01  0.79909319543E+01  0.51100000000E-03 0. -1.
         12    1    3    3    0    0  0.15962167243E+02 -0.11475143446E+02 -0.10138449288E+02  0.22119173904E+02  0.00000000000E+00 0. -1.
</event>
<event>
 7    1  0.1427898E-010  0.4778727E+02  0.7816164E-02  0.1312668E+00
        -11   -1    0    0    0    0  0.00000000000E+00  0.00000000000E+00  0.45593999997E+02  0.45594000000E+02  0.51100000000E-03 0.  1.
         11   -1    0    0    0    0 -0.00000000000E+00 -0.00000000000E+00 -0.45593999997E+02  0.45594000000E+02  0.51100000000E-03 0. -1.
    9900012    2    1    2    0    0 -0.33546087834E+02  0.11590911699E+01 -0.27512533920E+02  0.47787273923E+02  0.20000013123E+02 0.  0.
        -12    1    1    2    0    0  0.33546087834E+02 -0.11590911699E+01  0.27512533920E+02  0.43400726077E+02  0.00000000000E+00 0.  1.
         11    1    3    3    0    0 -0.31842720600E+02  0.73479336722E+00 -0.28458530291E+02  0.42712840260E+02  0.51100000000E-03 0. -1.
        -11    1    3    3    0    0  0.11734731159E+01  0.85623294785E+00 -0.82312906369E+00  0.16696453909E+01  0.51100000000E-03 0.  1.
         12    1    3    3    0    0 -0.28768403504E+01 -0.43193514521E+00  0.17691254348E+01  0.34047882718E+01  0.00000000000E+00 0. -1.
</event>
<event>
 7    1  0.1427898E-010  0.4778727E+02  0.7816164E-02  0.1312668E+00
        -11   -1    0    0    0    0  0.00000000000E+00  0.00000000000E+00  0.45593999997E+02  0.45594000000E+02  0.51100000000E-03 0.  1.
         11   -1    0    0    0    0 -0.00000000000E+00 -0.00000000000E+00 -0.45593999997E+02  0.45594000000E+02  0.51100000000E-03 0. -1.
    9900012    2    1    2    0    0 -0.26952716653E+02 -0.57952638080E+01 -0.33519980826E+02  0.47787272677E+02  0.20000007444E+02 0.  0.
        -12    1    1    2    0    0  0.26952716653E+02  0.57952638080E+01  0.33519980826E+02  0.43400727323E+02  0.00000000000E+00 0.  1.
         11    1    3    3    0    0 -0.16900268967E+02 -0.98517587612E+01 -0.15621143662E+02  0.25033904439E+02  0.51100000000E-03 0.  1.
        -11    1    3    3    0    0 -0.97133787576E+01  0.13634599360E+01 -0.17427913052E+02  0.19998522533E+02  0.51100000000E-03 0. -1.
        -12    1    3    3    0    0 -0.33906892814E+00  0.26930350172E+01 -0.47092411127E+00  0.27548457054E+01  0.00000000000E+00 0.  1.
</event>
<event>
 7    1  0.1427898E-010  0.4778727E+02  0.7816164E-02  0.1312668E+00
        -11   -1    0    0    0    0  0.00000000000E+00  0.00000000000E+00  0.45593999997E+02  0.45594000000E+02  0.51100000000E-03 0. -1.
         11   -1    0    0    0    0 -0.00000000000E+00 -0.00000000000E+00 -0.45593999997E+02  0.45594000000E+02  0.51100000000E-03 0.  1.
    9900012    2    1    2    0    0 -0.37020421270E+02 -0.18681817604E+02  0.12810205938E+02  0.47787271018E+02  0.19999999878E+02 0.  0.
        -12    1    1    2    0    0  0.37020421270E+02  0.18681817604E+02 -0.12810205938E+02  0.43400728982E+02  0.00000000000E+00 0.  1.
         11    1    3    3    0    0 -0.23816817996E+02 -0.76961413072E+01  0.39962127700E+01  0.25346422375E+02  0.51100000000E-03 0. -1.
        -11    1    3    3    0    0 -0.65549205575E+01 -0.16687327237E+01  0.86668755717E+01  0.10993924907E+02  0.51100000000E-03 0.  1.
         12    1    3    3    0    0 -0.66486827171E+01 -0.93169435732E+01  0.14711759622E+00  0.11446923735E+02  0.00000000000E+00 0. -1.
</event>
<event>
 7    1  0.2349960E-010  0.4778727E+02  0.7816164E-02  0.1312668E+00
        -11   -1    0    0    0    0  0.00000000000E+00  0.00000000000E+00  0.45593999997E+02  0.45594000000E+02  0.51100000000E-03 0.  1.
         11   -1    0    0    0    0 -0.00000000000E+00 -0.00000000000E+00 -0.45593999997E+02  0.45594000000E+02  0.51100000000E-03 0. -1.
    9900012    2    1    2    0    0  0.24632726227E+02  0.12515654367E+02 -0.33469546402E+02  0.47787270260E+02  0.19999996423E+02 0.  0.
        -12    1    1    2    0    0 -0.24632726227E+02 -0.12515654367E+02  0.33469546402E+02  0.43400729740E+02  0.00000000000E+00 0.  1.
         11    1    3    3    0    0  0.10525014808E+02  0.28371627666E+01 -0.25284563219E+02  0.27534243529E+02  0.51100000000E-03 0. -1.
        -11    1    3    3    0    0  0.32685246420E+01 -0.26399132386E+00  0.26530142990E+00  0.32898829560E+01  0.51100000000E-03 0.  1.
         12    1    3    3    0    0  0.10839186777E+02  0.99424829241E+01 -0.84502846132E+01  0.16963143775E+02  0.00000000000E+00 0. -1.
</event>
<event>
 7    1  0.1427898E-010  0.4778727E+02  0.7816164E-02  0.1312668E+00
        -11   -1    0    0    0    0  0.00000000000E+00  0.00000000000E+00  0.45593999997E+02  0.45594000000E+02  0.51100000000E-03 0.  1.
         11   -1    0    0    0    0 -0.00000000000E+00 -0.00000000000E+00 -0.45593999997E+02  0.45594000000E+02  0.51100000000E-03 0. -1.
    9900012    2    1    2    0    0  0.32881696514E+02 -0.87890620142E+01 -0.26928976876E+02  0.47787269910E+02  0.19999994827E+02 0.  0.
        -12    1    1    2    0    0 -0.32881696514E+02  0.87890620142E+01  0.26928976876E+02  0.43400730090E+02  0.00000000000E+00 0.  1.
         11    1    3    3    0    0  0.29712186726E+01  0.27875433393E+01 -0.32447481840E+01  0.52083518801E+01  0.51100000000E-03 0. -1.
        -11    1    3    3    0    0  0.25526062645E+02 -0.84315948082E+01 -0.25331619648E+02  0.36937279534E+02  0.51100000000E-03 0.  1.
        -12    1    3    3    0    0  0.43844151972E+01 -0.31450105454E+01  0.16473909558E+01  0.56416384954E+01  0.00000000000E+00 0.  1.
</event>
<event>
 7    1  0.1427898E-010  0.4778727E+02  0.7816164E-02  0.1312668E+00
        -11   -1    0    0    0    0  0.00000000000E+00  0.00000000000E+00  0.45593999997E+02  0.45594000000E+02  0.51100000000E-03 0.  1.
         11   -1    0    0    0    0 -0.00000000000E+00 -0.00000000000E+00 -0.45593999997E+02  0.45594000000E+02  0.51100000000E-03 0. -1.
    9900012    2    1    2    0    0  0.15580383795E+02  0.24441758939E+01 -0.40433913850E+02  0.47787265626E+02  0.19999975294E+02 0.  0.
        -12    1    1    2    0    0 -0.15580383795E+02 -0.24441758939E+01  0.40433913850E+02  0.43400734374E+02  0.00000000000E+00 0.  1.
         11    1    3    3    0    0 -0.82464640573E+00  0.19932322552E+01 -0.13242109832E+01  0.25311166522E+01  0.51100000000E-03 0. -1.
        -11    1    3    3    0    0  0.18409888016E+02  0.10155431236E+01 -0.39036764222E+02  0.43172031059E+02  0.51100000000E-03 0.  1.
        -12    1    3    3    0    0 -0.20048578149E+01 -0.56459948485E+00 -0.72938645138E-01  0.20841179146E+01  0.00000000000E+00 0.  1.
</event>
<event>
 7    1  0.1427898E-010  0.4778726E+02  0.7816164E-02  0.1312668E+00
        -11   -1    0    0    0    0  0.00000000000E+00  0.00000000000E+00  0.45593999997E+02  0.45594000000E+02  0.51100000000E-03 0.  1.
         11   -1    0    0    0    0 -0.00000000000E+00 -0.00000000000E+00 -0.45593999997E+02  0.45594000000E+02  0.51100000000E-03 0. -1.
    9900012    2    1    2    0    0 -0.88973465765E+01 -0.69109575774E+01 -0.41913006713E+02  0.47787259886E+02  0.19999949122E+02 0.  0.
        -12    1    1    2    0    0  0.88973465765E+01  0.69109575774E+01  0.41913006713E+02  0.43400740114E+02  0.00000000000E+00 0.  1.
         11    1    3    3    0    0  0.16640261583E+01 -0.17570226643E-01 -0.32940940400E+00  0.16964087317E+01  0.51100000000E-03 0.  1.
        -11    1    3    3    0    0 -0.13036629280E+02 -0.12290066364E+01 -0.33083784583E+02  0.35580907281E+02  0.51100000000E-03 0. -1.
         12    1    3    3    0    0  0.24752565453E+01 -0.56643807144E+01 -0.84998127257E+01  0.10509943873E+02  0.00000000000E+00 0. -1.
</event>
<event>
 7    1  0.1427898E-010  0.4778727E+02  0.7816164E-02  0.1312668E+00
        -11   -1    0    0    0    0  0.00000000000E+00  0.00000000000E+00  0.45593999997E+02  0.45594000000E+02  0.51100000000E-03 0. -1.
         11   -1    0    0    0    0 -0.00000000000E+00 -0.00000000000E+00 -0.45593999997E+02  0.45594000000E+02  0.51100000000E-03 0.  1.
    9900012    2    1    2    0    0 -0.22081123438E+02  0.12267626193E+02  0.35292386813E+02  0.47787271530E+02  0.20000002215E+02 0.  0.
        -12    1    1    2    0    0  0.22081123438E+02 -0.12267626193E+02 -0.35292386813E+02  0.43400728470E+02  0.00000000000E+00 0.  1.
         11    1    3    3    0    0 -0.28862882907E+01 -0.79337018976E+00  0.10915851866E+02  0.11318830265E+02  0.51100000000E-03 0. -1.
        -11    1    3    3    0    0 -0.16816240430E+02  0.43066320304E+01  0.11915392560E+02  0.21054918707E+02  0.51100000000E-03 0.  1.
         12    1    3    3    0    0 -0.23785947178E+01  0.87543643527E+01  0.12461142387E+02  0.15413522558E+02  0.00000000000E+00 0. -1.
</event>
<event>
 7    1  0.1427898E-010  0.4778730E+02  0.7816164E-02  0.1312668E+00
        -11   -1    0    0    0    0  0.00000000000E+00  0.00000000000E+00  0.45593999997E+02  0.45594000000E+02  0.51100000000E-03 0.  1.
         11   -1    0    0    0    0 -0.00000000000E+00 -0.00000000000E+00 -0.45593999997E+02  0.45594000000E+02  0.51100000000E-03 0. -1.
    9900012    2    1    2    0    0  0.83480627251E+01  0.19144213665E+02 -0.38045095963E+02  0.47787304211E+02  0.20000151220E+02 0.  0.
        -12    1    1    2    0    0 -0.83480627251E+01 -0.19144213665E+02  0.38045095963E+02  0.43400695789E+02  0.00000000000E+00 0.  1.
         11    1    3    3    0    0  0.18727694424E+01  0.25022496188E+01 -0.24332484222E+02  0.24532393018E+02  0.51100000000E-03 0. -1.
        -11    1    3    3    0    0  0.43592233237E+01  0.38697551700E+01 -0.39778862047E+01  0.70570115474E+01  0.51100000000E-03 0.  1.
         12    1    3    3    0    0  0.21160699590E+01  0.12772208876E+02 -0.97347255364E+01  0.16197899645E+02  0.00000000000E+00 0. -1.
</event>
<event>
 7    1  0.1427898E-010  0.4778727E+02  0.7816164E-02  0.1312668E+00
        -11   -1    0    0    0    0  0.00000000000E+00  0.00000000000E+00  0.45593999997E+02  0.45594000000E+02  0.51100000000E-03 0.  1.
         11   -1    0    0    0    0 -0.00000000000E+00 -0.00000000000E+00 -0.45593999997E+02  0.45594000000E+02  0.51100000000E-03 0. -1.
    9900012    2    1    2    0    0 -0.66704813151E+01 -0.15035919258E+02 -0.40162784041E+02  0.47787269466E+02  0.19999992804E+02 0.  0.
        -12    1    1    2    0    0  0.66704813151E+01  0.15035919258E+02  0.40162784041E+02  0.43400730534E+02  0.00000000000E+00 0.  1.
         11    1    3    3    0    0  0.14872043203E+01 -0.50439241354E+01 -0.60385254484E+01  0.80072927526E+01  0.51100000000E-03 0. -1.
        -11    1    3    3    0    0 -0.12914784151E+02 -0.60323256004E+01 -0.23608853772E+02  0.27578226530E+02  0.51100000000E-03 0.  1.
        -12    1    3    3    0    0  0.47570985155E+01 -0.39596695223E+01 -0.10515404821E+02  0.12201750184E+02  0.00000000000E+00 0.  1.
</event>
<event>
 7    1  0.1427898E-010  0.4778727E+02  0.7816164E-02  0.1312668E+00
        -11   -1    0    0    0    0  0.00000000000E+00  0.00000000000E+00  0.45593999997E+02  0.45594000000E+02  0.51100000000E-03 0.  1.
         11   -1    0    0    0    0 -0.00000000000E+00 -0.00000000000E+00 -0.45593999997E+02  0.45594000000E+02  0.51100000000E-03 0. -1.
    9900012    2    1    2    0    0 -0.16643026659E+02  0.33646707037E+02 -0.21783752951E+02  0.47787272777E+02  0.20000007901E+02 0.  0.
        -12    1    1    2    0    0  0.16643026659E+02 -0.33646707037E+02  0.21783752951E+02  0.43400727223E+02  0.00000000000E+00 0.  1.
         11    1    3    3    0    0  0.52112715385E+00  0.11604729805E+02 -0.73312899864E+01  0.13736416581E+02  0.51100000000E-03 0. -1.
        -11    1    3    3    0    0 -0.14936639092E+02  0.22967493673E+02 -0.10340671389E+02  0.29283757239E+02  0.51100000000E-03 0.  1.
         12    1    3    3    0    0 -0.22275147213E+01 -0.92551644042E+00 -0.41117915754E+01  0.47670989580E+01  0.00000000000E+00 0. -1.
</event>
<event>
 7    1  0.1427898E-010  0.4778726E+02  0.7816164E-02  0.1312668E+00
        -11   -1    0    0    0    0  0.00000000000E+00  0.00000000000E+00  0.45593999997E+02  0.45594000000E+02  0.51100000000E-03 0. -1.
         11   -1    0    0    0    0 -0.00000000000E+00 -0.00000000000E+00 -0.45593999997E+02  0.45594000000E+02  0.51100000000E-03 0.  1.
    9900012    2    1    2    0    0  0.15591107083E+02 -0.17448265602E+02  0.36552693371E+02  0.47787262849E+02  0.19999962632E+02 0.  0.
        -12    1    1    2    0    0 -0.15591107083E+02  0.17448265602E+02 -0.36552693371E+02  0.43400737151E+02  0.00000000000E+00 0.  1.
         11    1    3    3    0    0  0.39556193567E+01 -0.11152726706E+02  0.92409273945E+01  0.15014159212E+02  0.51100000000E-03 0. -1.
        -11    1    3    3    0    0  0.31804768801E+01 -0.56843576826E+01  0.21576279042E+02  0.22538038357E+02  0.51100000000E-03 0.  1.
         12    1    3    3    0    0  0.84550108462E+01 -0.61118121309E+00  0.57354869350E+01  0.10235065279E+02  0.00000000000E+00 0. -1.
</event>
<event>
 7    1  0.1427898E-010  0.4778729E+02  0.7816164E-02  0.1312668E+00
        -11   -1    0    0    0    0  0.00000000000E+00  0.00000000000E+00  0.45593999997E+02  0.45594000000E+02  0.51100000000E-03 0.  1.
         11   -1    0    0    0    0 -0.00000000000E+00 -0.00000000000E+00 -0.45593999997E+02  0.45594000000E+02  0.51100000000E-03 0. -1.
    9900012    2    1    2    0    0  0.21800966372E+02 -0.33970073599E+02  0.15949098376E+02  0.47787288323E+02  0.20000078778E+02 0.  0.
        -12    1    1    2    0    0 -0.21800966372E+02  0.33970073599E+02 -0.15949098376E+02  0.43400711677E+02  0.00000000000E+00 0.  1.
         11    1    3    3    0    0 -0.14934757258E+01 -0.63799676638E+01  0.15674935440E+01  0.67373209369E+01  0.51100000000E-03 0. -1.
        -11    1    3    3    0    0  0.14814573202E+02 -0.76317653387E+01  0.77090135743E+01  0.18361489915E+02  0.51100000000E-03 0.  1.
         12    1    3    3    0    0  0.84798688959E+01 -0.19958340597E+02  0.66725912579E+01  0.22688477471E+02  0.00000000000E+00 0. -1.
</event>
<event>
 7    1  0.1427898E-010  0.4778727E+02  0.7816164E-02  0.1312668E+00
        -11   -1    0    0    0    0  0.00000000000E+00  0.00000000000E+00  0.45593999997E+02  0.45594000000E+02  0.51100000000E-03 0.  1.
         11   -1    0    0    0    0 -0.00000000000E+00 -0.00000000000E+00 -0.45593999997E+02  0.45594000000E+02  0.51100000000E-03 0. -1.
    9900012    2    1    2    0    0  0.13745431183E+02 -0.83413691096E+01 -0.40312628493E+02  0.47787270362E+02  0.19999996890E+02 0.  0.
        -12    1    1    2    0    0 -0.13745431183E+02  0.83413691096E+01  0.40312628493E+02  0.43400729638E+02  0.00000000000E+00 0.  1.
         11    1    3    3    0    0  0.14984962138E+00 -0.19483865611E+01  0.99948081425E+00  0.21949093967E+01  0.51100000000E-03 0. -1.
        -11    1    3    3    0    0 -0.18170328968E+01 -0.26140732750E+01 -0.45682127506E+01  0.55680836587E+01  0.51100000000E-03 0.  1.
         12    1    3    3    0    0  0.15412614458E+02 -0.37789092735E+01 -0.36743896557E+02  0.40024277307E+02  0.00000000000E+00 0. -1.
</event>
<event>
 7    1  0.1427898E-010  0.4778727E+02  0.7816164E-02  0.1312668E+00
        -11   -1    0    0    0    0  0.00000000000E+00  0.00000000000E+00  0.45593999997E+02  0.45594000000E+02  0.51100000000E-03 0.  1.
         11   -1    0    0    0    0 -0.00000000000E+00 -0.00000000000E+00 -0.45593999997E+02  0.45594000000E+02  0.51100000000E-03 0. -1.
    9900012    2    1    2    0    0 -0.39628397921E+02 -0.33919536558E+01  0.17369740031E+02  0.47787272585E+02  0.20000007025E+02 0.  0.
        -12    1    1    2    0    0  0.39628397921E+02  0.33919536558E+01 -0.17369740031E+02  0.43400727415E+02  0.00000000000E+00 0.  1.
         11    1    3    3    0    0  0.32288169183E+00 -0.22057564008E+01  0.23091947748E+00  0.22411911906E+01  0.51100000000E-03 0. -1.
        -11    1    3    3    0    0 -0.44323970903E+01  0.43819258717E+01  0.21351251727E+01  0.65883365180E+01  0.51100000000E-03 0.  1.
        -12    1    3    3    0    0 -0.35518882523E+02 -0.55681231267E+01  0.15003695381E+02  0.38957744877E+02  0.00000000000E+00 0.  1.
</event>
<event>
 7    1  0.1845337E-010  0.4778728E+02  0.7816164E-02  0.1312668E+00
        -11   -1    0    0    0    0  0.00000000000E+00  0.00000000000E+00  0.45593999997E+02  0.45594000000E+02  0.51100000000E-03 0.  1.
         11   -1    0    0    0    0 -0.00000000000E+00 -0.00000000000E+00 -0.45593999997E+02  0.45594000000E+02  0.51100000000E-03 0. -1.
    9900012    2    1    2    0    0  0.71653174944E+01  0.42244553988E+02 -0.69049659956E+01  0.47787277980E+02  0.20000031623E+02 0.  0.
        -12    1    1    2    0    0 -0.71653174944E+01 -0.42244553988E+02  0.69049659956E+01  0.43400722020E+02  0.00000000000E+00 0.  1.
         11    1    3    3    0    0  0.88742463440E+01  0.19981709263E+02 -0.78878338387E+00  0.21877914268E+02  0.51100000000E-03 0. -1.
        -11    1    3    3    0    0  0.31176698098E+00  0.20830981714E+02 -0.84731625294E+01  0.22490475347E+02  0.51100000000E-03 0.  1.
        -12    1    3    3    0    0 -0.20206958306E+01  0.14318630111E+01  0.23569799177E+01  0.34188883653E+01  0.00000000000E+00 0.  1.
</event>
<event>
 7    1  0.1427898E-010  0.4778728E+02  0.7816164E-02  0.1312668E+00
        -11   -1    0    0    0    0  0.00000000000E+00  0.00000000000E+00  0.45593999997E+02  0.45594000000E+02  0.51100000000E-03 0.  1.
         11   -1    0    0    0    0 -0.00000000000E+00 -0.00000000000E+00 -0.45593999997E+02  0.45594000000E+02  0.51100000000E-03 0. -1.
    9900012    2    1    2    0    0 -0.25375649523E+02 -0.27547510046E+02 -0.21927908470E+02  0.47787284933E+02  0.20000063325E+02 0.  0.
        -12    1    1    2    0    0  0.25375649523E+02  0.27547510046E+02  0.21927908470E+02  0.43400715067E+02  0.00000000000E+00 0.  1.
         11    1    3    3    0    0 -0.59264864117E+01 -0.70573712067E+01 -0.15848136071E+01  0.93510087139E+01  0.51100000000E-03 0. -1.
        -11    1    3    3    0    0 -0.14718693548E+02 -0.77930269849E+01 -0.38546880758E+01  0.17094731053E+02  0.51100000000E-03 0.  1.
        -12    1    3    3    0    0 -0.47304695636E+01 -0.12697111854E+02 -0.16488406787E+02  0.21341545167E+02  0.00000000000E+00 0.  1.
</event>
<event>
 7    1  0.1427898E-010  0.4778727E+02  0.7816164E-02  0.1312668E+00
        -11   -1    0    0    0    0  0.00000000000E+00  0.00000000000E+00  0.45593999997E+02  0.45594000000E+02  0.51100000000E-03 0.  1.
         11   -1    0    0    0    0 -0.00000000000E+00 -0.00000000000E+00 -0.45593999997E+02  0.45594000000E+02  0.51100000000E-03 0. -1.
    9900012    2    1    2    0    0  0.33400620830E+02 -0.17881018386E+02 -0.21172880708E+02  0.47787272266E+02  0.20000005570E+02 0.  0.
        -12    1    1    2    0    0 -0.33400620830E+02  0.17881018386E+02  0.21172880708E+02  0.43400727734E+02  0.00000000000E+00 0.  1.
         11    1    3    3    0    0  0.17117095983E+02 -0.14221173401E+02 -0.14679852080E+02  0.26659609996E+02  0.51100000000E-03 0. -1.
        -11    1    3    3    0    0  0.17656979207E+02 -0.48116153979E+01 -0.61179447344E+01  0.19296367676E+02  0.51100000000E-03 0.  1.
         12    1    3    3    0    0 -0.13734543603E+01  0.11517704127E+01 -0.37508389449E+00  0.18312945943E+01  0.00000000000E+00 0. -1.
</event>
<event>
 7    1  0.1427898E-010  0.4778727E+02  0.7816164E-02  0.1312668E+00
        -11   -1    0    0    0    0  0.00000000000E+00  0.00000000000E+00  0.45593999997E+02  0.45594000000E+02  0.51100000000E-03 0.  1.
         11   -1    0    0    0    0 -0.00000000000E+00 -0.00000000000E+00 -0.45593999997E+02  0.45594000000E+02  0.51100000000E-03 0. -1.
    9900012    2    1    2    0    0 -0.37710833331E+01  0.14988601709E+02 -0.40555443042E+02  0.47787271768E+02  0.20000003299E+02 0.  0.
        -12    1    1    2    0    0  0.37710833331E+01 -0.14988601709E+02  0.40555443042E+02  0.43400728232E+02  0.00000000000E+00 0.  1.
         11    1    3    3    0    0 -0.53438047691E+01  0.54381551351E+01 -0.48322238459E+01  0.90266365963E+01  0.51100000000E-03 0. -1.
        -11    1    3    3    0    0  0.48742548962E+01  0.23882679862E+01 -0.63823220752E+01  0.83783184530E+01  0.51100000000E-03 0.  1.
         12    1    3    3    0    0 -0.33015334603E+01  0.71621785877E+01 -0.29340897121E+02  0.30382316719E+02  0.00000000000E+00 0. -1.
</event>
<event>
 7    1  0.1427898E-010  0.4778727E+02  0.7816164E-02  0.1312668E+00
        -11   -1    0    0    0    0  0.00000000000E+00  0.00000000000E+00  0.45593999997E+02  0.45594000000E+02  0.51100000000E-03 0.  1.
         11   -1    0    0    0    0 -0.00000000000E+00 -0.00000000000E+00 -0.45593999997E+02  0.45594000000E+02  0.51100000000E-03 0. -1.
    9900012    2    1    2    0    0 -0.24018692577E+02  0.35232331332E+02 -0.80875537140E+01  0.47787270867E+02  0.19999999191E+02 0.  0.
        -12    1    1    2    0    0  0.24018692577E+02 -0.35232331332E+02  0.80875537140E+01  0.43400729133E+02  0.00000000000E+00 0.  1.
         11    1    3    3    0    0 -0.11583335865E+02  0.22739714975E+02  0.51272600519E+00  0.25525109111E+02  0.51100000000E-03 0. -1.
        -11    1    3    3    0    0 -0.12881171973E+02  0.92189874494E+01 -0.35597111410E+01  0.16235327673E+02  0.51100000000E-03 0.  1.
        -12    1    3    3    0    0  0.44581526080E+00  0.32736289074E+01 -0.50405685782E+01  0.60268340828E+01  0.00000000000E+00 0.  1.
</event>
<event>
 7    1  0.1427898E-010  0.4778727E+02  0.7816164E-02  0.1312668E+00
        -11   -1    0    0    0    0  0.00000000000E+00  0.00000000000E+00  0.45593999997E+02  0.45594000000E+02  0.51100000000E-03 0.  1.
         11   -1    0    0    0    0 -0.00000000000E+00 -0.00000000000E+00 -0.45593999997E+02  0.45594000000E+02  0.51100000000E-03 0. -1.
    9900012    2    1    2    0    0 -0.29258521771E+01 -0.43160290919E+02 -0.35002671188E+01  0.47787271976E+02  0.20000004246E+02 0.  0.
        -12    1    1    2    0    0  0.29258521771E+01  0.43160290919E+02  0.35002671188E+01  0.43400728024E+02  0.00000000000E+00 0.  1.
         11    1    3    3    0    0  0.23569515368E+00 -0.14764502417E+02 -0.46646258080E+01  0.15485632633E+02  0.51100000000E-03 0. -1.
        -11    1    3    3    0    0 -0.64009872808E+01 -0.22731430570E+02  0.57756119067E+01  0.24311484264E+02  0.51100000000E-03 0.  1.
        -12    1    3    3    0    0  0.32394399500E+01 -0.56643579308E+01 -0.46112532174E+01  0.79901550794E+01  0.00000000000E+00 0.  1.
</event>
<event>
 7    1  0.1427898E-010  0.4778727E+02  0.7816164E-02  0.1312668E+00
        -11   -1    0    0    0    0  0.00000000000E+00  0.00000000000E+00  0.45593999997E+02  0.45594000000E+02  0.51100000000E-03 0.  1.
         11   -1    0    0    0    0 -0.00000000000E+00 -0.00000000000E+00 -0.45593999997E+02  0.45594000000E+02  0.51100000000E-03 0. -1.
    9900012    2    1    2    0    0 -0.16275765174E+01 -0.25887457959E+02 -0.34796746824E+02  0.47787273342E+02  0.20000010474E+02 0.  0.
        -12    1    1    2    0    0  0.16275765174E+01  0.25887457959E+02  0.34796746824E+02  0.43400726658E+02  0.00000000000E+00 0.  1.
         11    1    3    3    0    0  0.25162534586E+01 -0.10104394551E+02 -0.25151349835E+02  0.27221695750E+02  0.51100000000E-03 0. -1.
        -11    1    3    3    0    0 -0.28636559822E+01 -0.14490209823E+02 -0.10898791789E+02  0.18356207915E+02  0.51100000000E-03 0.  1.
        -12    1    3    3    0    0 -0.12801739938E+01 -0.12928535860E+01  0.12533947993E+01  0.22093696776E+01  0.00000000000E+00 0.  1.
</event>
<event>
 7    1  0.1427898E-010  0.4778727E+02  0.7816164E-02  0.1312668E+00
        -11   -1    0    0    0    0  0.00000000000E+00  0.00000000000E+00  0.45593999997E+02  0.45594000000E+02  0.51100000000E-03 0.  1.
         11   -1    0    0    0    0 -0.00000000000E+00 -0.00000000000E+00 -0.45593999997E+02  0.45594000000E+02  0.51100000000E-03 0. -1.
    9900012    2    1    2    0    0 -0.32041711627E+02 -0.17872753407E+02 -0.23184405908E+02  0.47787271024E+02  0.19999999905E+02 0.  0.
        -12    1    1    2    0    0  0.32041711627E+02  0.17872753407E+02  0.23184405908E+02  0.43400728976E+02  0.00000000000E+00 0.  1.
         11    1    3    3    0    0 -0.23404276644E+02 -0.49199056027E+01 -0.14402260718E+02  0.27917570640E+02  0.51100000000E-03 0. -1.
        -11    1    3    3    0    0  0.86474612550E+00  0.74847789189E+00 -0.69281636370E+00  0.13371610939E+01  0.51100000000E-03 0.  1.
         12    1    3    3    0    0 -0.95021811088E+01 -0.13701325697E+02 -0.80893288264E+01  0.18532539290E+02  0.00000000000E+00 0. -1.
</event>
<event>
 7    1  0.1427898E-010  0.4778727E+02  0.7816164E-02  0.1312668E+00
        -11   -1    0    0    0    0  0.00000000000E+00  0.00000000000E+00  0.45593999997E+02  0.45594000000E+02  0.51100000000E-03 0.  1.
         11   -1    0    0    0    0 -0.00000000000E+00 -0.00000000000E+00 -0.45593999997E+02  0.45594000000E+02  0.51100000000E-03 0. -1.
    9900012    2    1    2    0    0  0.15370017682E+02  0.31717812960E+02 -0.25325202150E+02  0.47787274586E+02  0.20000016146E+02 0.  0.
        -12    1    1    2    0    0 -0.15370017682E+02 -0.31717812960E+02  0.25325202150E+02  0.43400725414E+02  0.00000000000E+00 0.  1.
         11    1    3    3    0    0  0.77267726215E+01  0.48776932088E+01 -0.96873879537E+01  0.13316921259E+02  0.51100000000E-03 0. -1.
        -11    1    3    3    0    0  0.10376059571E+01  0.21190551808E+02 -0.14515013385E+02  0.25706063990E+02  0.51100000000E-03 0.  1.
         12    1    3    3    0    0  0.66056391038E+01  0.56495679440E+01 -0.11228008113E+01  0.87642893372E+01  0.00000000000E+00 0. -1.
</event>
<event>
 7    1  0.1427898E-010  0.4778727E+02  0.7816164E-02  0.1312668E+00
        -11   -1    0    0    0    0  0.00000000000E+00  0.00000000000E+00  0.45593999997E+02  0.45594000000E+02  0.51100000000E-03 0.  1.
         11   -1    0    0    0    0 -0.00000000000E+00 -0.00000000000E+00 -0.45593999997E+02  0.45594000000E+02  0.51100000000E-03 0. -1.
    9900012    2    1    2    0    0 -0.34759854083E+02  0.55289787519E+01 -0.25393033309E+02  0.47787271866E+02  0.20000003748E+02 0.  0.
        -12    1    1    2    0    0  0.34759854083E+02 -0.55289787519E+01  0.25393033309E+02  0.43400728134E+02  0.00000000000E+00 0.  1.
         11    1    3    3    0    0 -0.47215995872E+00  0.37537963310E+01 -0.80354881012E+00  0.38677658761E+01  0.51100000000E-03 0. -1.
        -11    1    3    3    0    0 -0.19071309920E+02  0.20696780372E+01 -0.64443698719E+01  0.20236806382E+02  0.51100000000E-03 0.  1.
         12    1    3    3    0    0 -0.15216384204E+02 -0.29449561630E+00 -0.18145114627E+02  0.23682699608E+02  0.00000000000E+00 0. -1.
</event>
<event>
 7    1  0.1427898E-010  0.4778727E+02  0.7816164E-02  0.1312668E+00
        -11   -1    0    0    0    0  0.00000000000E+00  0.00000000000E+00  0.45593999997E+02  0.45594000000E+02  0.51100000000E-03 0.  1.
         11   -1    0    0    0    0 -0.00000000000E+00 -0.00000000000E+00 -0.45593999997E+02  0.45594000000E+02  0.51100000000E-03 0. -1.
    9900012    2    1    2    0    0  0.10524844213E+02 -0.32890646336E+02 -0.26287952948E+02  0.47787269219E+02  0.19999991679E+02 0.  0.
        -12    1    1    2    0    0 -0.10524844213E+02  0.32890646336E+02  0.26287952948E+02  0.43400730781E+02  0.00000000000E+00 0.  1.
         11    1    3    3    0    0 -0.12330786081E+01 -0.51003267376E+01 -0.90532358027E+01  0.10463980812E+02  0.51100000000E-03 0.  1.
        -11    1    3    3    0    0  0.60999936705E+01 -0.16552228519E+02 -0.22917292375E+01  0.17788710321E+02  0.51100000000E-03 0. -1.
         12    1    3    3    0    0  0.56579291508E+01 -0.11238091079E+02 -0.14942987908E+02  0.19534578086E+02  0.00000000000E+00 0. -1.
</event>
<event>
 7    1  0.1427898E-010  0.4778725E+02  0.7816164E-02  0.1312668E+00
        -11   -1    0    0    0    0  0.00000000000E+00  0.00000000000E+00  0.45593999997E+02  0.45594000000E+02  0.51100000000E-03 0. -1.
         11   -1    0    0    0    0 -0.00000000000E+00 -0.00000000000E+00 -0.45593999997E+02  0.45594000000E+02  0.51100000000E-03 0.  1.
    9900012    2    1    2    0    0  0.34115331524E+02 -0.22394666207E+02  0.14773237029E+02  0.47787245953E+02  0.19999885599E+02 0.  0.
        -12    1    1    2    0    0 -0.34115331524E+02  0.22394666207E+02 -0.14773237029E+02  0.43400754047E+02  0.00000000000E+00 0.  1.
         11    1    3    3    0    0  0.73908908555E+01 -0.10524065112E+02  0.26613485478E+01  0.13132554605E+02  0.51100000000E-03 0. -1.
        -11    1    3    3    0    0  0.15190520503E+02 -0.18424143400E+01  0.24335886642E+00  0.15303778212E+02  0.51100000000E-03 0.  1.
         12    1    3    3    0    0  0.11533920165E+02 -0.10028186756E+02  0.11868529614E+02  0.19350913136E+02  0.00000000000E+00 0. -1.
</event>
<event>
 7    1  0.1427898E-010  0.4778727E+02  0.7816164E-02  0.1312668E+00
        -11   -1    0    0    0    0  0.00000000000E+00  0.00000000000E+00  0.45593999997E+02  0.45594000000E+02  0.51100000000E-03 0. -1.
         11   -1    0    0    0    0 -0.00000000000E+00 -0.00000000000E+00 -0.45593999997E+02  0.45594000000E+02  0.51100000000E-03 0.  1.
    9900012    2    1    2    0    0 -0.32149540789E+02  0.28455690309E+02  0.63485508114E+01  0.47787269807E+02  0.19999994357E+02 0.  0.
        -12    1    1    2    0    0  0.32149540789E+02 -0.28455690309E+02 -0.63485508114E+01  0.43400730193E+02  0.00000000000E+00 0.  1.
         11    1    3    3    0    0 -0.12666139108E+02  0.77705665184E+01  0.77681629533E+01  0.16767741048E+02  0.51100000000E-03 0. -1.
        -11    1    3    3    0    0  0.94775250542E+00  0.29327624231E+01 -0.24446967982E+01  0.39339386038E+01  0.51100000000E-03 0.  1.
         12    1    3    3    0    0 -0.20431154186E+02  0.17752361367E+02  0.10250846563E+01  0.27085590155E+02  0.00000000000E+00 0. -1.
</event>
<event>
 7    1  0.1427898E-010  0.4778727E+02  0.7816164E-02  0.1312668E+00
        -11   -1    0    0    0    0  0.00000000000E+00  0.00000000000E+00  0.45593999997E+02  0.45594000000E+02  0.51100000000E-03 0. -1.
         11   -1    0    0    0    0 -0.00000000000E+00 -0.00000000000E+00 -0.45593999997E+02  0.45594000000E+02  0.51100000000E-03 0.  1.
    9900012    2    1    2    0    0 -0.14166163493E+02 -0.31895880841E+02  0.25799138954E+02  0.47787274505E+02  0.20000015777E+02 0.  0.
        -12    1    1    2    0    0  0.14166163493E+02  0.31895880841E+02 -0.25799138954E+02  0.43400725495E+02  0.00000000000E+00 0.  1.
         11    1    3    3    0    0 -0.57639044811E+01 -0.73746878450E+01  0.24209532431E+01  0.96679693082E+01  0.51100000000E-03 0. -1.
        -11    1    3    3    0    0 -0.60221108709E+01 -0.25389280880E+02  0.24062647819E+02  0.35494963351E+02  0.51100000000E-03 0.  1.
        -12    1    3    3    0    0 -0.23801481411E+01  0.86808788332E+00 -0.68446210863E+00  0.26243418460E+01  0.00000000000E+00 0.  1.
</event>
<event>
 7    1  0.1427898E-010  0.4778727E+02  0.7816164E-02  0.1312668E+00
        -11   -1    0    0    0    0  0.00000000000E+00  0.00000000000E+00  0.45593999997E+02  0.45594000000E+02  0.51100000000E-03 0.  1.
         11   -1    0    0    0    0 -0.00000000000E+00 -0.00000000000E+00 -0.45593999997E+02  0.45594000000E+02  0.51100000000E-03 0. -1.
    9900012    2    1    2    0    0 -0.13219754791E+01 -0.15827017509E+02 -0.40390361186E+02  0.47787269832E+02  0.19999994472E+02 0.  0.
        -12    1    1    2    0    0  0.13219754791E+01  0.15827017509E+02  0.40390361186E+02  0.43400730168E+02  0.00000000000E+00 0.  1.
         11    1    3    3    0    0 -0.21884947640E+00 -0.10733296134E+02 -0.33528706413E+02  0.35205478195E+02  0.51100000000E-03 0. -1.
        -11    1    3    3    0    0 -0.46565957660E+01 -0.51826172974E+01 -0.49411803513E+01  0.85415847303E+01  0.51100000000E-03 0.  1.
        -12    1    3    3    0    0  0.35534697633E+01  0.88895921773E-01 -0.19204744217E+01  0.40402069066E+01  0.00000000000E+00 0.  1.
</event>
<event>
 7    1  0.1427898E-010  0.4778727E+02  0.7816164E-02  0.1312668E+00
        -11   -1    0    0    0    0  0.00000000000E+00  0.00000000000E+00  0.45593999997E+02  0.45594000000E+02  0.51100000000E-03 0. -1.
         11   -1    0    0    0    0 -0.00000000000E+00 -0.00000000000E+00 -0.45593999997E+02  0.45594000000E+02  0.51100000000E-03 0.  1.
    9900012    2    1    2    0    0  0.10691467020E+02  0.22414438857E+02  0.35593665203E+02  0.47787267991E+02  0.19999986079E+02 0.  0.
        -12    1    1    2    0    0 -0.10691467020E+02 -0.22414438857E+02 -0.35593665203E+02  0.43400732009E+02  0.00000000000E+00 0.  1.
         11    1    3    3    0    0  0.65761219165E+01  0.54648893080E+01  0.81935150716E+01  0.11842469510E+02  0.51100000000E-03 0. -1.
        -11    1    3    3    0    0  0.85301540948E+01  0.11212630628E+02  0.10535424447E+02  0.17592094333E+02  0.51100000000E-03 0.  1.
        -12    1    3    3    0    0 -0.44148089910E+01  0.57369189204E+01  0.16864725685E+02  0.18352704148E+02  0.00000000000E+00 0.  1.
</event>
<event>
 7    1  0.1427898E-010  0.4778727E+02  0.7816164E-02  0.1312668E+00
        -11   -1    0    0    0    0  0.00000000000E+00  0.00000000000E+00  0.45593999997E+02  0.45594000000E+02  0.51100000000E-03 0. -1.
         11   -1    0    0    0    0 -0.00000000000E+00 -0.00000000000E+00 -0.45593999997E+02  0.45594000000E+02  0.51100000000E-03 0.  1.
    9900012    2    1    2    0    0  0.69540506051E+01  0.41006658988E+02 -0.12398337562E+02  0.47787266418E+02  0.19999978906E+02 0.  0.
        -12    1    1    2    0    0 -0.69540506051E+01 -0.41006658988E+02  0.12398337562E+02  0.43400733582E+02  0.00000000000E+00 0.  1.
         11    1    3    3    0    0 -0.25695761552E+01  0.81024919290E+01 -0.65861322254E+01  0.10753150005E+02  0.51100000000E-03 0. -1.
        -11    1    3    3    0    0  0.24583389293E+01  0.14839329399E+02  0.36111004243E+01  0.15468974557E+02  0.51100000000E-03 0.  1.
         12    1    3    3    0    0  0.70652878309E+01  0.18064837659E+02 -0.94233057609E+01  0.21565141856E+02  0.00000000000E+00 0. -1.
</event>
<event>
 7    1  0.1427898E-010  0.4778727E+02  0.7816164E-02  0.1312668E+00
        -11   -1    0    0    0    0  0.00000000000E+00  0.00000000000E+00  0.45593999997E+02  0.45594000000E+02  0.51100000000E-03 0.  1.
         11   -1    0    0    0    0 -0.00000000000E+00 -0.00000000000E+00 -0.45593999997E+02  0.45594000000E+02  0.51100000000E-03 0. -1.
    9900012    2    1    2    0    0  0.26177994579E+01  0.26457335244E+02 -0.34304230940E+02  0.47787265875E+02  0.19999976429E+02 0.  0.
        -12    1    1    2    0    0 -0.26177994579E+01 -0.26457335244E+02  0.34304230940E+02  0.43400734125E+02  0.00000000000E+00 0.  1.
         11    1    3    3    0    0  0.28782742985E+01  0.11302863286E+02 -0.22971828267E+02  0.25763231078E+02  0.51100000000E-03 0. -1.
        -11    1    3    3    0    0  0.48210452897E+01  0.44562993390E+01 -0.17635442874E+01  0.67978798312E+01  0.51100000000E-03 0.  1.
        -12    1    3    3    0    0 -0.50815201303E+01  0.10698172619E+02 -0.95688583859E+01  0.15226154965E+02  0.00000000000E+00 0.  1.
</event>
<event>
 7    1  0.1427898E-010  0.4778727E+02  0.7816164E-02  0.1312668E+00
        -11   -1    0    0    0    0  0.00000000000E+00  0.00000000000E+00  0.45593999997E+02  0.45594000000E+02  0.51100000000E-03 0. -1.
         11   -1    0    0    0    0 -0.00000000000E+00 -0.00000000000E+00 -0.45593999997E+02  0.45594000000E+02  0.51100000000E-03 0.  1.
    9900012    2    1    2    0    0 -0.14592477408E+02  0.30314304896E+02  0.27417617592E+02  0.47787271519E+02  0.20000002164E+02 0.  0.
        -12    1    1    2    0    0  0.14592477408E+02 -0.30314304896E+02 -0.27417617592E+02  0.43400728481E+02  0.00000000000E+00 0.  1.
         11    1    3    3    0    0 -0.13197443205E+02  0.13589403215E+02  0.17657716005E+02  0.25896704842E+02  0.51100000000E-03 0. -1.
        -11    1    3    3    0    0 -0.56553484181E+01  0.74831649890E+01  0.39996314825E+01  0.10196949359E+02  0.51100000000E-03 0.  1.
        -12    1    3    3    0    0  0.42603142149E+01  0.92417366915E+01  0.57602701046E+01  0.11693617317E+02  0.00000000000E+00 0.  1.
</event>
<event>
 7    1  0.1427898E-010  0.4778726E+02  0.7816164E-02  0.1312668E+00
        -11   -1    0    0    0    0  0.00000000000E+00  0.00000000000E+00  0.45593999997E+02  0.45594000000E+02  0.51100000000E-03 0.  1.
         11   -1    0    0    0    0 -0.00000000000E+00 -0.00000000000E+00 -0.45593999997E+02  0.45594000000E+02  0.51100000000E-03 0. -1.
    9900012    2    1    2    0    0 -0.21207120182E+02  0.97561790152E+01 -0.36588240654E+02  0.47787258883E+02  0.19999944549E+02 0.  0.
        -12    1    1    2    0    0  0.21207120182E+02 -0.97561790152E+01  0.36588240654E+02  0.43400741117E+02  0.00000000000E+00 0.  1.
         11    1    3    3    0    0 -0.10773269001E+02  0.99763803295E+01 -0.14116617129E+02  0.20368366868E+02  0.51100000000E-03 0. -1.
        -11    1    3    3    0    0  0.10153890379E+01 -0.30305305629E+01 -0.19269873088E+01  0.37320786085E+01  0.51100000000E-03 0.  1.
         12    1    3    3    0    0 -0.11449240219E+02  0.28103292486E+01 -0.20544636216E+02  0.23686813406E+02  0.00000000000E+00 0. -1.
</event>
<event>
 7    1  0.1427898E-010  0.4778727E+02  0.7816164E-02  0.1312668E+00
        -11   -1    0    0    0    0  0.00000000000E+00  0.00000000000E+00  0.45593999997E+02  0.45594000000E+02  0.51100000000E-03 0.  1.
         11   -1    0    0    0    0 -0.00000000000E+00 -0.00000000000E+00 -0.45593999997E+02  0.45594000000E+02  0.51100000000E-03 0. -1.
    9900012    2    1    2    0    0  0.14918415507E+02 -0.21304398620E+02 -0.34744591709E+02  0.47787272186E+02  0.20000005204E+02 0.  0.
        -12    1    1    2    0    0 -0.14918415507E+02  0.21304398620E+02  0.34744591709E+02  0.43400727814E+02  0.00000000000E+00 0.  1.
         11    1    3    3    0    0  0.31198712728E+01 -0.10039815415E+02 -0.13081114963E+02  0.16782343676E+02  0.51100000000E-03 0. -1.
        -11    1    3    3    0    0 -0.36545257164E+01 -0.21541658840E+01 -0.40931878432E+01  0.58949279765E+01  0.51100000000E-03 0.  1.
        -12    1    3    3    0    0  0.15453069951E+02 -0.91104173215E+01 -0.17570288903E+02  0.25110000534E+02  0.00000000000E+00 0.  1.
</event>
<event>
 7    1  0.1427898E-010  0.4778727E+02  0.7816164E-02  0.1312668E+00
        -11   -1    0    0    0    0  0.00000000000E+00  0.00000000000E+00  0.45593999997E+02  0.45594000000E+02  0.51100000000E-03 0.  1.
         11   -1    0    0    0    0 -0.00000000000E+00 -0.00000000000E+00 -0.45593999997E+02  0.45594000000E+02  0.51100000000E-03 0. -1.
    9900012    2    1    2    0    0  0.16638335588E+02 -0.25194182840E+02 -0.31177594675E+02  0.47787268787E+02  0.19999989708E+02 0.  0.
        -12    1    1    2    0    0 -0.16638335588E+02  0.25194182840E+02  0.31177594675E+02  0.43400731213E+02  0.00000000000E+00 0.  1.
         11    1    3    3    0    0  0.96594516434E+01 -0.40953009132E+01 -0.13080394089E+02  0.16768220103E+02  0.51100000000E-03 0. -1.
        -11    1    3    3    0    0  0.43088554384E+01 -0.63791728682E+01 -0.21045639687E+00  0.77009333088E+01  0.51100000000E-03 0.  1.
         12    1    3    3    0    0  0.26700285063E+01 -0.14719709059E+02 -0.17886744189E+02  0.23318115376E+02  0.00000000000E+00 0. -1.
</event>
<event>
 7    1  0.1427898E-010  0.4778727E+02  0.7816164E-02  0.1312668E+00
        -11   -1    0    0    0    0  0.00000000000E+00  0.00000000000E+00  0.45593999997E+02  0.45594000000E+02  0.51100000000E-03 0.  1.
         11   -1    0    0    0    0 -0.00000000000E+00 -0.00000000000E+00 -0.45593999997E+02  0.45594000000E+02  0.51100000000E-03 0. -1.
    9900012    2    1    2    0    0  0.34944714993E+02 -0.23342628225E+02 -0.10844899146E+02  0.47787271482E+02  0.20000001994E+02 0.  0.
        -12    1    1    2    0    0 -0.34944714993E+02  0.23342628225E+02  0.10844899146E+02  0.43400728518E+02  0.00000000000E+00 0.  1.
         11    1    3    3    0    0  0.36481614122E+01 -0.11861716417E+02 -0.48569796131E+01  0.13326651840E+02  0.51100000000E-03 0. -1.
        -11    1    3    3    0    0  0.15613428116E+02 -0.87702035182E+01 -0.17681424776E+01  0.17995053081E+02  0.51100000000E-03 0.  1.
        -12    1    3    3    0    0  0.15683125465E+02 -0.27107082902E+01 -0.42197770555E+01  0.16465566561E+02  0.00000000000E+00 0.  1.
</event>
<event>
 7    1  0.1427898E-010  0.4778727E+02  0.7816164E-02  0.1312668E+00
        -11   -1    0    0    0    0  0.00000000000E+00  0.00000000000E+00  0.45593999997E+02  0.45594000000E+02  0.51100000000E-03 0.  1.
         11   -1    0    0    0    0 -0.00000000000E+00 -0.00000000000E+00 -0.45593999997E+02  0.45594000000E+02  0.51100000000E-03 0. -1.
    9900012    2    1    2    0    0 -0.13528503127E+01  0.29696385987E+01 -0.43277873399E+02  0.47787270935E+02  0.19999999503E+02 0.  0.
        -12    1    1    2    0    0  0.13528503127E+01 -0.29696385987E+01  0.43277873399E+02  0.43400729065E+02  0.00000000000E+00 0.  1.
         11    1    3    3    0    0 -0.52860563619E+01  0.23769994321E+01 -0.23455582094E+02  0.24161060610E+02  0.51100000000E-03 0. -1.
        -11    1    3    3    0    0  0.16752852035E+01 -0.57912744004E+01 -0.10438107095E+02  0.12054025040E+02  0.51100000000E-03 0.  1.
        -12    1    3    3    0    0  0.22579208457E+01  0.63839135669E+01 -0.93841842102E+01  0.11572185285E+02  0.00000000000E+00 0.  1.
</event>
<event>
 7    1  0.1427898E-010  0.4778727E+02  0.7816164E-02  0.1312668E+00
        -11   -1    0    0    0    0  0.00000000000E+00  0.00000000000E+00  0.45593999997E+02  0.45594000000E+02  0.51100000000E-03 0.  1.
         11   -1    0    0    0    0 -0.00000000000E+00 -0.00000000000E+00 -0.45593999997E+02  0.45594000000E+02  0.51100000000E-03 0. -1.
    9900012    2    1    2    0    0  0.25934610917E+02  0.33539953743E+02  0.92785060693E+01  0.47787271718E+02  0.20000003071E+02 0.  0.
        -12    1    1    2    0    0 -0.25934610917E+02 -0.33539953743E+02 -0.92785060693E+01  0.43400728282E+02  0.00000000000E+00 0.  1.
         11    1    3    3    0    0 -0.15749866589E+01  0.15486863890E+01  0.79169290783E+00  0.23464420787E+01  0.51100000000E-03 0. -1.
        -11    1    3    3    0    0  0.17966667714E+02  0.26493314475E+02  0.11514519364E+02  0.34018833270E+02  0.51100000000E-03 0.  1.
         12    1    3    3    0    0  0.95429298622E+01  0.54979528790E+01 -0.30277062020E+01  0.11421996369E+02  0.00000000000E+00 0. -1.
</event>
<event>
 7    1  0.1427898E-010  0.4778727E+02  0.7816164E-02  0.1312668E+00
        -11   -1    0    0    0    0  0.00000000000E+00  0.00000000000E+00  0.45593999997E+02  0.45594000000E+02  0.51100000000E-03 0.  1.
         11   -1    0    0    0    0 -0.00000000000E+00 -0.00000000000E+00 -0.45593999997E+02  0.45594000000E+02  0.51100000000E-03 0. -1.
    9900012    2    1    2    0    0 -0.15769984235E+02  0.21341795466E+02 -0.34343247046E+02  0.47787271271E+02  0.20000001034E+02 0.  0.
        -12    1    1    2    0    0  0.15769984235E+02 -0.21341795466E+02  0.34343247046E+02  0.43400728729E+02  0.00000000000E+00 0.  1.
         11    1    3    3    0    0 -0.59962768271E+01  0.33518494247E+01 -0.13265685971E+02  0.14938830439E+02  0.51100000000E-03 0. -1.
        -11    1    3    3    0    0 -0.47706036742E+01  0.18679609657E+02 -0.19807084802E+02  0.27640678084E+02  0.51100000000E-03 0.  1.
         12    1    3    3    0    0 -0.50031037338E+01 -0.68966361540E+00 -0.12704762739E+01  0.52077627477E+01  0.00000000000E+00 0. -1.
</event>
<event>
 7    1  0.1427898E-010  0.4778727E+02  0.7816164E-02  0.1312668E+00
        -11   -1    0    0    0    0  0.00000000000E+00  0.00000000000E+00  0.45593999997E+02  0.45594000000E+02  0.51100000000E-03 0. -1.
         11   -1    0    0    0    0 -0.00000000000E+00 -0.00000000000E+00 -0.45593999997E+02  0.45594000000E+02  0.51100000000E-03 0.  1.
    9900012    2    1    2    0    0 -0.42012480177E+02 -0.78174360796E+01  0.75804069139E+01  0.47787269977E+02  0.19999995135E+02 0.  0.
        -12    1    1    2    0    0  0.42012480177E+02  0.78174360796E+01 -0.75804069139E+01  0.43400730023E+02  0.00000000000E+00 0.  1.
         11    1    3    3    0    0 -0.20755607512E+02  0.11155933924E+01 -0.33591141989E+01  0.21055247333E+02  0.51100000000E-03 0. -1.
        -11    1    3    3    0    0  0.23895875006E+00 -0.15690599032E+01  0.12919757243E+01  0.20465218780E+01  0.51100000000E-03 0.  1.
        -12    1    3    3    0    0 -0.21495831416E+02 -0.73639695688E+01  0.96475453885E+01  0.24685500767E+02  0.00000000000E+00 0.  1.
</event>
<event>
 7    1  0.1427898E-010  0.4778727E+02  0.7816164E-02  0.1312668E+00
        -11   -1    0    0    0    0  0.00000000000E+00  0.00000000000E+00  0.45593999997E+02  0.45594000000E+02  0.51100000000E-03 0.  1.
         11   -1    0    0    0    0 -0.00000000000E+00 -0.00000000000E+00 -0.45593999997E+02  0.45594000000E+02  0.51100000000E-03 0. -1.
    9900012    2    1    2    0    0 -0.32866796376E+01 -0.26434256906E+02 -0.34264428896E+02  0.47787270873E+02  0.19999999218E+02 0.  0.
        -12    1    1    2    0    0  0.32866796376E+01  0.26434256906E+02  0.34264428896E+02  0.43400729127E+02  0.00000000000E+00 0.  1.
         11    1    3    3    0    0  0.20686444896E+01  0.16111298400E+01 -0.45086269920E+01  0.52156252740E+01  0.51100000000E-03 0. -1.
        -11    1    3    3    0    0  0.14851813607E+01 -0.14071252265E+02 -0.95537535575E+01  0.17072788621E+02  0.51100000000E-03 0.  1.
        -12    1    3    3    0    0 -0.68405054878E+01 -0.13974134481E+02 -0.20202048346E+02  0.25498856978E+02  0.00000000000E+00 0.  1.
</event>
<event>
 7    1  0.1427898E-010  0.4778728E+02  0.7816164E-02  0.1312668E+00
        -11   -1    0    0    0    0  0.00000000000E+00  0.00000000000E+00  0.45593999997E+02  0.45594000000E+02  0.51100000000E-03 0. -1.
         11   -1    0    0    0    0 -0.00000000000E+00 -0.00000000000E+00 -0.45593999997E+02  0.45594000000E+02  0.51100000000E-03 0.  1.
    9900012    2    1    2    0    0 -0.42873026043E+02 -0.32648801849E+01 -0.59048359491E+01  0.47787275440E+02  0.20000020043E+02 0.  0.
        -12    1    1    2    0    0  0.42873026043E+02  0.32648801849E+01  0.59048359491E+01  0.43400724560E+02  0.00000000000E+00 0.  1.
         11    1    3    3    0    0 -0.16153727135E+02 -0.51218172212E+01 -0.38114854010E+01  0.17369609473E+02  0.51100000000E-03 0.  1.
        -11    1    3    3    0    0 -0.24942799136E+02  0.12697379353E+00 -0.61253255059E+01  0.25684216240E+02  0.51100000000E-03 0. -1.
         12    1    3    3    0    0 -0.17764997718E+01  0.17299632428E+01  0.40319749577E+01  0.47334497272E+01  0.00000000000E+00 0. -1.
</event>
<event>
 7    1  0.1427898E-010  0.4778727E+02  0.7816164E-02  0.1312668E+00
        -11   -1    0    0    0    0  0.00000000000E+00  0.00000000000E+00  0.45593999997E+02  0.45594000000E+02  0.51100000000E-03 0. -1.
         11   -1    0    0    0    0 -0.00000000000E+00 -0.00000000000E+00 -0.45593999997E+02  0.45594000000E+02  0.51100000000E-03 0.  1.
    9900012    2    1    2    0    0  0.80851340643E+01  0.41219511594E+02  0.10918132760E+02  0.47787272450E+02  0.20000006410E+02 0.  0.
        -12    1    1    2    0    0 -0.80851340643E+01 -0.41219511594E+02 -0.10918132760E+02  0.43400727550E+02  0.00000000000E+00 0.  1.
         11    1    3    3    0    0 -0.22517578073E+01  0.12770879362E+02 -0.31164261052E+01  0.13337086820E+02  0.51100000000E-03 0. -1.
        -11    1    3    3    0    0  0.55392187052E+01  0.18795265874E+02  0.46055786751E+01  0.20128495183E+02  0.51100000000E-03 0.  1.
         12    1    3    3    0    0  0.47976731664E+01  0.96533663581E+01  0.94289801905E+01  0.14321690448E+02  0.00000000000E+00 0. -1.
</event>
<event>
 7    1  0.1427898E-010  0.4778727E+02  0.7816164E-02  0.1312668E+00
        -11   -1    0    0    0    0  0.00000000000E+00  0.00000000000E+00  0.45593999997E+02  0.45594000000E+02  0.51100000000E-03 0.  1.
         11   -1    0    0    0    0 -0.00000000000E+00 -0.00000000000E+00 -0.45593999997E+02  0.45594000000E+02  0.51100000000E-03 0. -1.
    9900012    2    1    2    0    0  0.22726626297E+02  0.36891009409E+02  0.24853963613E+01  0.47787270592E+02  0.19999997937E+02 0.  0.
        -12    1    1    2    0    0 -0.22726626297E+02 -0.36891009409E+02 -0.24853963613E+01  0.43400729408E+02  0.00000000000E+00 0.  1.
         11    1    3    3    0    0  0.16100088510E+02  0.24367397155E+02 -0.14840173292E+01  0.29243549747E+02  0.51100000000E-03 0. -1.
        -11    1    3    3    0    0  0.44434352303E+01  0.13673686676E+02  0.57668256032E+01  0.15490968393E+02  0.51100000000E-03 0.  1.
        -12    1    3    3    0    0  0.21831025572E+01 -0.11500744212E+01 -0.17974119127E+01  0.30527524520E+01  0.00000000000E+00 0.  1.
</event>
<event>
 7    1  0.1427898E-010  0.4778727E+02  0.7816164E-02  0.1312668E+00
        -11   -1    0    0    0    0  0.00000000000E+00  0.00000000000E+00  0.45593999997E+02  0.45594000000E+02  0.51100000000E-03 0.  1.
         11   -1    0    0    0    0 -0.00000000000E+00 -0.00000000000E+00 -0.45593999997E+02  0.45594000000E+02  0.51100000000E-03 0. -1.
    9900012    2    1    2    0    0  0.12805873726E+02 -0.41401179248E+02 -0.23612107443E+01  0.47787270039E+02  0.19999995416E+02 0.  0.
        -12    1    1    2    0    0 -0.12805873726E+02  0.41401179248E+02  0.23612107443E+01  0.43400729961E+02  0.00000000000E+00 0.  1.
         11    1    3    3    0    0  0.10492728111E+02 -0.17624328801E+02  0.48453364062E+01  0.21075853341E+02  0.51100000000E-03 0. -1.
        -11    1    3    3    0    0  0.25087069454E+01 -0.38225458509E+01 -0.47708397298E+01  0.66080541242E+01  0.51100000000E-03 0.  1.
         12    1    3    3    0    0 -0.19556133108E+00 -0.19954304596E+02 -0.24357074207E+01  0.20103362574E+02  0.00000000000E+00 0. -1.
</event>
<event>
 7    1  0.1427898E-010  0.4778727E+02  0.7816164E-02  0.1312668E+00
        -11   -1    0    0    0    0  0.00000000000E+00  0.00000000000E+00  0.45593999997E+02  0.45594000000E+02  0.51100000000E-03 0. -1.
         11   -1    0    0    0    0 -0.00000000000E+00 -0.00000000000E+00 -0.45593999997E+02  0.45594000000E+02  0.51100000000E-03 0.  1.
    9900012    2    1    2    0    0 -0.11660744542E+02 -0.40112946669E+02  0.11772931594E+02  0.47787269913E+02  0.19999994843E+02 0.  0.
        -12    1    1    2    0    0  0.11660744542E+02  0.40112946669E+02 -0.11772931594E+02  0.43400730087E+02  0.00000000000E+00 0.  1.
         11    1    3    3    0    0  0.36246418499E+01 -0.25079126002E+01 -0.92784122024E+00  0.45042806020E+01  0.51100000000E-03 0.  1.
        -11    1    3    3    0    0 -0.59647480967E+01 -0.14737738793E+02  0.91251104870E+01  0.18331579480E+02  0.51100000000E-03 0. -1.
        -12    1    3    3    0    0 -0.93206382951E+01 -0.22867295276E+02  0.35756623272E+01  0.24951409831E+02  0.00000000000E+00 0.  1.
</event>
<event>
 7    1  0.1427898E-010  0.4778727E+02  0.7816164E-02  0.1312668E+00
        -11   -1    0    0    0    0  0.00000000000E+00  0.00000000000E+00  0.45593999997E+02  0.45594000000E+02  0.51100000000E-03 0.  1.
         11   -1    0    0    0    0 -0.00000000000E+00 -0.00000000000E+00 -0.45593999997E+02  0.45594000000E+02  0.51100000000E-03 0. -1.
    9900012    2    1    2    0    0 -0.28055190736E+02 -0.32966040391E+02 -0.31256603320E+01  0.47787270757E+02  0.19999998691E+02 0.  0.
        -12    1    1    2    0    0  0.28055190736E+02  0.32966040391E+02  0.31256603320E+01  0.43400729243E+02  0.00000000000E+00 0.  1.
         11    1    3    3    0    0 -0.28530232211E+01 -0.81918978578E+01 -0.44839908937E+01  0.97648915308E+01  0.51100000000E-03 0. -1.
        -11    1    3    3    0    0 -0.63621161151E+01 -0.76241734706E+00  0.37222257664E+01  0.74103148780E+01  0.51100000000E-03 0.  1.
         12    1    3    3    0    0 -0.18840051399E+02 -0.24011725186E+02 -0.23638952047E+01  0.30612064349E+02  0.00000000000E+00 0. -1.
</event>
<event>
 7    1  0.1427898E-010  0.4778727E+02  0.7816164E-02  0.1312668E+00
        -11   -1    0    0    0    0  0.00000000000E+00  0.00000000000E+00  0.45593999997E+02  0.45594000000E+02  0.51100000000E-03 0. -1.
         11   -1    0    0    0    0 -0.00000000000E+00 -0.00000000000E+00 -0.45593999997E+02  0.45594000000E+02  0.51100000000E-03 0.  1.
    9900012    2    1    2    0    0 -0.23842814974E+02 -0.20162931298E+02  0.30142986389E+02  0.47787271286E+02  0.20000001102E+02 0.  0.
        -12    1    1    2    0    0  0.23842814974E+02  0.20162931298E+02 -0.30142986389E+02  0.43400728714E+02  0.00000000000E+00 0.  1.
         11    1    3    3    0    0  0.76396326402E+00 -0.73906036566E+01  0.76733470481E+01  0.10681054136E+02  0.51100000000E-03 0. -1.
        -11    1    3    3    0    0 -0.59084064514E+01  0.13940176785E+01  0.46303594279E+01  0.76349709086E+01  0.51100000000E-03 0.  1.
         12    1    3    3    0    0 -0.18698371787E+02 -0.14166345320E+02  0.17839279913E+02  0.29471246241E+02  0.00000000000E+00 0. -1.
</event>
<event>
 7    1  0.1427898E-010  0.4778727E+02  0.7816164E-02  0.1312668E+00
        -11   -1    0    0    0    0  0.00000000000E+00  0.00000000000E+00  0.45593999997E+02  0.45594000000E+02  0.51100000000E-03 0.  1.
         11   -1    0    0    0    0 -0.00000000000E+00 -0.00000000000E+00 -0.45593999997E+02  0.45594000000E+02  0.51100000000E-03 0. -1.
    9900012    2    1    2    0    0  0.87208376365E+01  0.31419605996E+02 -0.28642251300E+02  0.47787271786E+02  0.20000003380E+02 0.  0.
        -12    1    1    2    0    0 -0.87208376365E+01 -0.31419605996E+02  0.28642251300E+02  0.43400728214E+02  0.00000000000E+00 0.  1.
         11    1    3    3    0    0  0.10796629824E+01  0.25320209794E+02 -0.19771260005E+02  0.32143139526E+02  0.51100000000E-03 0. -1.
        -11    1    3    3    0    0  0.31145550073E+01  0.46547649866E+01 -0.22638086389E-01  0.56006966280E+01  0.51100000000E-03 0.  1.
        -12    1    3    3    0    0  0.45266196468E+01  0.14446312148E+01 -0.88483532088E+01  0.10043435631E+02  0.00000000000E+00 0.  1.
</event>
<event>
 7    1  0.1427898E-010  0.4778727E+02  0.7816164E-02  0.1312668E+00
        -11   -1    0    0    0    0  0.00000000000E+00  0.00000000000E+00  0.45593999997E+02  0.45594000000E+02  0.51100000000E-03 0.  1.
         11   -1    0    0    0    0 -0.00000000000E+00 -0.00000000000E+00 -0.45593999997E+02  0.45594000000E+02  0.51100000000E-03 0. -1.
    9900012    2    1    2    0    0 -0.13744984109E+01  0.40482798803E+02 -0.15584505045E+02  0.47787273712E+02  0.20000012163E+02 0.  0.
        -12    1    1    2    0    0  0.13744984109E+01 -0.40482798803E+02  0.15584505045E+02  0.43400726288E+02  0.00000000000E+00 0.  1.
         11    1    3    3    0    0  0.50732908350E+00  0.14614144526E+02 -0.62118494464E+01  0.15887658003E+02  0.51100000000E-03 0. -1.
        -11    1    3    3    0    0  0.31339513002E+01  0.74075524130E+00  0.20793724892E+01  0.38332961390E+01  0.51100000000E-03 0.  1.
        -12    1    3    3    0    0 -0.50157787946E+01  0.25127899036E+02 -0.11452028088E+02  0.28066319570E+02  0.00000000000E+00 0.  1.
</event>
<event>
 7    1  0.1427898E-010  0.4778729E+02  0.7816164E-02  0.1312668E+00
        -11   -1    0    0    0    0  0.00000000000E+00  0.00000000000E+00  0.45593999997E+02  0.45594000000E+02  0.51100000000E-03 0.  1.
         11   -1    0    0    0    0 -0.00000000000E+00 -0.00000000000E+00 -0.45593999997E+02  0.45594000000E+02  0.51100000000E-03 0. -1.
    9900012    2    1    2    0    0  0.22839897080E+02  0.29475915503E+02 -0.22206550282E+02  0.47787292992E+02  0.20000100066E+02 0.  0.
        -12    1    1    2    0    0 -0.22839897080E+02 -0.29475915503E+02  0.22206550282E+02  0.43400707008E+02  0.00000000000E+00 0.  1.
         11    1    3    3    0    0  0.74544193617E+01  0.10742452068E+02 -0.35176132370E+01  0.13540393185E+02  0.51100000000E-03 0. -1.
        -11    1    3    3    0    0 -0.11607041682E+01 -0.19139196235E+01 -0.14109288673E+01  0.26459484161E+01  0.51100000000E-03 0.  1.
        -12    1    3    3    0    0  0.16546181887E+02  0.20647383059E+02 -0.17278008178E+02  0.31600951391E+02  0.00000000000E+00 0.  1.
</event>
<event>
 7    1  0.1427898E-010  0.4778727E+02  0.7816164E-02  0.1312668E+00
        -11   -1    0    0    0    0  0.00000000000E+00  0.00000000000E+00  0.45593999997E+02  0.45594000000E+02  0.51100000000E-03 0.  1.
         11   -1    0    0    0    0 -0.00000000000E+00 -0.00000000000E+00 -0.45593999997E+02  0.45594000000E+02  0.51100000000E-03 0. -1.
    9900012    2    1    2    0    0  0.18936519292E+02  0.11555068101E+02 -0.37302973267E+02  0.47787272169E+02  0.20000005127E+02 0.  0.
        -12    1    1    2    0    0 -0.18936519292E+02 -0.11555068101E+02  0.37302973267E+02  0.43400727831E+02  0.00000000000E+00 0.  1.
         11    1    3    3    0    0  0.12503074078E+02  0.46265200590E+01 -0.12768362199E+02  0.18459756845E+02  0.51100000000E-03 0. -1.
        -11    1    3    3    0    0  0.68139498129E+01  0.55956750583E+01 -0.58269608761E+01  0.10568583856E+02  0.51100000000E-03 0.  1.
        -12    1    3    3    0    0 -0.38050459841E+00  0.13328729833E+01 -0.18707650192E+02  0.18758931468E+02  0.00000000000E+00 0.  1.
</event>
<event>
 7    1  0.1427898E-010  0.4778727E+02  0.7816164E-02  0.1312668E+00
        -11   -1    0    0    0    0  0.00000000000E+00  0.00000000000E+00  0.45593999997E+02  0.45594000000E+02  0.51100000000E-03 0. -1.
         11   -1    0    0    0    0 -0.00000000000E+00 -0.00000000000E+00 -0.45593999997E+02  0.45594000000E+02  0.51100000000E-03 0.  1.
    9900012    2    1    2    0    0  0.13508103318E+02 -0.26354750652E+02  0.31726665199E+02  0.47787273948E+02  0.20000013240E+02 0.  0.
        -12    1    1    2    0    0 -0.13508103318E+02  0.26354750652E+02 -0.31726665199E+02  0.43400726052E+02  0.00000000000E+00 0.  1.
         11    1    3    3    0    0  0.84155787737E+01 -0.98250882050E+01  0.12506694359E+02  0.17993658005E+02  0.51100000000E-03 0. -1.
        -11    1    3    3    0    0  0.79189019558E+01 -0.14717548596E+02  0.20274119862E+02  0.26274610964E+02  0.51100000000E-03 0.  1.
        -12    1    3    3    0    0 -0.28263774119E+01 -0.18121138514E+01 -0.10541490226E+01  0.35190049797E+01  0.00000000000E+00 0.  1.
</event>
<event>
 7    1  0.1427898E-010  0.4778727E+02  0.7816164E-02  0.1312668E+00
        -11   -1    0    0    0    0  0.00000000000E+00  0.00000000000E+00  0.45593999997E+02  0.45594000000E+02  0.51100000000E-03 0.  1.
         11   -1    0    0    0    0 -0.00000000000E+00 -0.00000000000E+00 -0.45593999997E+02  0.45594000000E+02  0.51100000000E-03 0. -1.
    9900012    2    1    2    0    0 -0.23130196483E+01  0.37232130314E+02 -0.22182011228E+02  0.47787271783E+02  0.20000003369E+02 0.  0.
        -12    1    1    2    0    0  0.23130196483E+01 -0.37232130314E+02  0.22182011228E+02  0.43400728217E+02  0.00000000000E+00 0.  1.
         11    1    3    3    0    0  0.30611994555E+01  0.25782198301E+02 -0.21382733056E+02  0.33635010993E+02  0.51100000000E-03 0. -1.
        -11    1    3    3    0    0 -0.43534291362E+01  0.50265405488E+01 -0.29875797939E+01  0.72899992057E+01  0.51100000000E-03 0.  1.
        -12    1    3    3    0    0 -0.10207899676E+01  0.64233914644E+01  0.21883016218E+01  0.68622615842E+01  0.00000000000E+00 0.  1.
</event>
<event>
 7    1  0.1427898E-010  0.4778722E+02  0.7816164E-02  0.1312668E+00
        -11   -1    0    0    0    0  0.00000000000E+00  0.00000000000E+00  0.45593999997E+02  0.45594000000E+02  0.51100000000E-03 0.  1.
         11   -1    0    0    0    0 -0.00000000000E+00 -0.00000000000E+00 -0.45593999997E+02  0.45594000000E+02  0.51100000000E-03 0. -1.
    9900012    2    1    2    0    0 -0.76935248294E+01  0.59171870060E+01 -0.42301583534E+02  0.47787223557E+02  0.19999783487E+02 0.  0.
        -12    1    1    2    0    0  0.76935248294E+01 -0.59171870060E+01  0.42301583534E+02  0.43400776443E+02  0.00000000000E+00 0.  1.
         11    1    3    3    0    0 -0.39895714939E+01 -0.12753111521E+01 -0.10742245323E+02  0.11529914747E+02  0.51100000000E-03 0. -1.
        -11    1    3    3    0    0  0.14172760624E+00 -0.44996500362E+01 -0.37987457129E+01  0.58904504425E+01  0.51100000000E-03 0.  1.
         12    1    3    3    0    0 -0.38456809418E+01  0.11692148194E+02 -0.27760592498E+02  0.30366858368E+02  0.00000000000E+00 0. -1.
</event>
<event>
 7    1  0.1427898E-010  0.4778727E+02  0.7816164E-02  0.1312668E+00
        -11   -1    0    0    0    0  0.00000000000E+00  0.00000000000E+00  0.45593999997E+02  0.45594000000E+02  0.51100000000E-03 0.  1.
         11   -1    0    0    0    0 -0.00000000000E+00 -0.00000000000E+00 -0.45593999997E+02  0.45594000000E+02  0.51100000000E-03 0. -1.
    9900012    2    1    2    0    0 -0.19507518878E+02 -0.12077496038E+01 -0.38750759472E+02  0.47787270611E+02  0.19999998024E+02 0.  0.
        -12    1    1    2    0    0  0.19507518878E+02  0.12077496038E+01  0.38750759472E+02  0.43400729389E+02  0.00000000000E+00 0.  1.
         11    1    3    3    0    0 -0.31804679611E+01  0.39924571601E+01 -0.12886817219E+02  0.13860921648E+02  0.51100000000E-03 0.  1.
        -11    1    3    3    0    0 -0.18292973152E+02 -0.63704004431E+01 -0.24605440749E+02  0.31315213287E+02  0.51100000000E-03 0. -1.
        -12    1    3    3    0    0  0.19659222352E+01  0.11701936792E+01 -0.12585015034E+01  0.26111356755E+01  0.00000000000E+00 0.  1.
</event>
<event>
 7    1  0.1427898E-010  0.4778727E+02  0.7816164E-02  0.1312668E+00
        -11   -1    0    0    0    0  0.00000000000E+00  0.00000000000E+00  0.45593999997E+02  0.45594000000E+02  0.51100000000E-03 0.  1.
         11   -1    0    0    0    0 -0.00000000000E+00 -0.00000000000E+00 -0.45593999997E+02  0.45594000000E+02  0.51100000000E-03 0. -1.
    9900012    2    1    2    0    0  0.33326168992E+02  0.24028463103E+02 -0.13986514102E+02  0.47787272408E+02  0.20000006218E+02 0.  0.
        -12    1    1    2    0    0 -0.33326168992E+02 -0.24028463103E+02  0.13986514102E+02  0.43400727592E+02  0.00000000000E+00 0.  1.
         11    1    3    3    0    0  0.15234550693E+02  0.81661538229E+01 -0.12698762637E+02  0.21448453927E+02  0.51100000000E-03 0. -1.
        -11    1    3    3    0    0  0.86076366823E+00 -0.57184416802E-02  0.24694142975E+01  0.26151393896E+01  0.51100000000E-03 0.  1.
         12    1    3    3    0    0  0.17230854631E+02  0.15868027722E+02 -0.37571657623E+01  0.23723679092E+02  0.00000000000E+00 0. -1.
</event>
<event>
 7    1  0.1427898E-010  0.4778726E+02  0.7816164E-02  0.1312668E+00
        -11   -1    0    0    0    0  0.00000000000E+00  0.00000000000E+00  0.45593999997E+02  0.45594000000E+02  0.51100000000E-03 0.  1.
         11   -1    0    0    0    0 -0.00000000000E+00 -0.00000000000E+00 -0.45593999997E+02  0.45594000000E+02  0.51100000000E-03 0. -1.
    9900012    2    1    2    0    0 -0.32397314607E+02 -0.35359151649E+01 -0.28662435532E+02  0.47787263826E+02  0.19999967089E+02 0.  0.
        -12    1    1    2    0    0  0.32397314607E+02  0.35359151649E+01  0.28662435532E+02  0.43400736174E+02  0.00000000000E+00 0.  1.
         11    1    3    3    0    0 -0.62541996150E+01 -0.98028315754E+00 -0.11341669680E+01  0.64313531132E+01  0.51100000000E-03 0. -1.
        -11    1    3    3    0    0 -0.81367306976E+01 -0.69867409421E+01 -0.41111358038E+01  0.11485746528E+02  0.51100000000E-03 0.  1.
         12    1    3    3    0    0 -0.18006384294E+02  0.44311089347E+01 -0.23417132761E+02  0.29870164185E+02  0.00000000000E+00 0. -1.
</event>
<event>
 7    1  0.1427898E-010  0.4778727E+02  0.7816164E-02  0.1312668E+00
        -11   -1    0    0    0    0  0.00000000000E+00  0.00000000000E+00  0.45593999997E+02  0.45594000000E+02  0.51100000000E-03 0. -1.
         11   -1    0    0    0    0 -0.00000000000E+00 -0.00000000000E+00 -0.45593999997E+02  0.45594000000E+02  0.51100000000E-03 0.  1.
    9900012    2    1    2    0    0  0.33421793293E+02  0.11365666206E+02  0.25247350357E+02  0.47787270337E+02  0.19999996776E+02 0.  0.
        -12    1    1    2    0    0 -0.33421793293E+02 -0.11365666206E+02 -0.25247350357E+02  0.43400729663E+02  0.00000000000E+00 0.  1.
         11    1    3    3    0    0  0.50492362986E+01  0.10107974712E+01  0.33030498938E+01  0.61177314087E+01  0.51100000000E-03 0. -1.
        -11    1    3    3    0    0 -0.19774901951E+01  0.23688956899E+01  0.53326635490E+01  0.61611228725E+01  0.51100000000E-03 0.  1.
        -12    1    3    3    0    0  0.30350047189E+02  0.79859730449E+01  0.16611636914E+02  0.35508416056E+02  0.00000000000E+00 0.  1.
</event>
<event>
 7    1  0.1427898E-010  0.4778729E+02  0.7816164E-02  0.1312668E+00
        -11   -1    0    0    0    0  0.00000000000E+00  0.00000000000E+00  0.45593999997E+02  0.45594000000E+02  0.51100000000E-03 0.  1.
         11   -1    0    0    0    0 -0.00000000000E+00 -0.00000000000E+00 -0.45593999997E+02  0.45594000000E+02  0.51100000000E-03 0. -1.
    9900012    2    1    2    0    0  0.10514528955E+02 -0.29497489032E+02 -0.30049369612E+02  0.47787288112E+02  0.20000077816E+02 0.  0.
        -12    1    1    2    0    0 -0.10514528955E+02  0.29497489032E+02  0.30049369612E+02  0.43400711888E+02  0.00000000000E+00 0.  1.
         11    1    3    3    0    0  0.58326838911E+01 -0.19661006135E+02 -0.16684952337E+02  0.26437908358E+02  0.51100000000E-03 0. -1.
        -11    1    3    3    0    0  0.21963747962E+01 -0.40360246685E+01  0.17917594195E+01  0.49319326281E+01  0.51100000000E-03 0.  1.
        -12    1    3    3    0    0  0.24854702677E+01 -0.58004582282E+01 -0.15156176695E+02  0.16417447125E+02  0.00000000000E+00 0.  1.
</event>
<event>
 7    1  0.1427898E-010  0.4778727E+02  0.7816164E-02  0.1312668E+00
        -11   -1    0    0    0    0  0.00000000000E+00  0.00000000000E+00  0.45593999997E+02  0.45594000000E+02  0.51100000000E-03 0. -1.
         11   -1    0    0    0    0 -0.00000000000E+00 -0.00000000000E+00 -0.45593999997E+02  0.45594000000E+02  0.51100000000E-03 0.  1.
    9900012    2    1    2    0    0 -0.32551940394E+02  0.28285471829E+02  0.48914687946E+01  0.47787271815E+02  0.20000003513E+02 0.  0.
        -12    1    1    2    0    0  0.32551940394E+02 -0.28285471829E+02 -0.48914687946E+01  0.43400728185E+02  0.00000000000E+00 0.  1.
         11    1    3    3    0    0 -0.10757254926E+02  0.10507432213E+02 -0.15765616459E+01  0.15119861512E+02  0.51100000000E-03 0. -1.
        -11    1    3    3    0    0 -0.17913628848E+02  0.97056817655E+01  0.10412421643E+02  0.22880491292E+02  0.51100000000E-03 0.  1.
        -12    1    3    3    0    0 -0.38810566194E+01  0.80723578506E+01 -0.39443912028E+01  0.97869190102E+01  0.00000000000E+00 0.  1.
</event>
<event>
 7    1  0.1427898E-010  0.4778727E+02  0.7816164E-02  0.1312668E+00
        -11   -1    0    0    0    0  0.00000000000E+00  0.00000000000E+00  0.45593999997E+02  0.45594000000E+02  0.51100000000E-03 0. -1.
         11   -1    0    0    0    0 -0.00000000000E+00 -0.00000000000E+00 -0.45593999997E+02  0.45594000000E+02  0.51100000000E-03 0.  1.
    9900012    2    1    2    0    0  0.15581261399E+01 -0.42836841771E+02 -0.67970979965E+01  0.47787270615E+02  0.19999998043E+02 0.  0.
        -12    1    1    2    0    0 -0.15581261399E+01  0.42836841771E+02  0.67970979965E+01  0.43400729385E+02  0.00000000000E+00 0.  1.
         11    1    3    3    0    0 -0.11419017854E+01 -0.59560070793E+01  0.44295048735E+01  0.75098917237E+01  0.51100000000E-03 0. -1.
        -11    1    3    3    0    0  0.24033805675E+01 -0.44600058678E+01 -0.52741442460E+01  0.73133089830E+01  0.51100000000E-03 0.  1.
         12    1    3    3    0    0  0.29664735780E+00 -0.32420828824E+02 -0.59524586241E+01  0.32964069908E+02  0.00000000000E+00 0. -1.
</event>
<event>
 7    1  0.1427898E-010  0.4778727E+02  0.7816164E-02  0.1312668E+00
        -11   -1    0    0    0    0  0.00000000000E+00  0.00000000000E+00  0.45593999997E+02  0.45594000000E+02  0.51100000000E-03 0. -1.
         11   -1    0    0    0    0 -0.00000000000E+00 -0.00000000000E+00 -0.45593999997E+02  0.45594000000E+02  0.51100000000E-03 0.  1.
    9900012    2    1    2    0    0  0.30630005979E+02  0.20631492256E+02  0.22798416106E+02  0.47787268256E+02  0.19999987285E+02 0.  0.
        -12    1    1    2    0    0 -0.30630005979E+02 -0.20631492256E+02 -0.22798416106E+02  0.43400731744E+02  0.00000000000E+00 0.  1.
         11    1    3    3    0    0  0.16530010818E+02  0.73860623185E+01  0.66788346643E+01  0.19297720252E+02  0.51100000000E-03 0. -1.
        -11    1    3    3    0    0  0.10480769647E+02  0.14356636922E+01  0.43824352071E+01  0.11450476026E+02  0.51100000000E-03 0.  1.
         12    1    3    3    0    0  0.36192255146E+01  0.11809766246E+02  0.11737146234E+02  0.17039071977E+02  0.00000000000E+00 0. -1.
</event>
<event>
 7    1  0.1427898E-010  0.4778726E+02  0.7816164E-02  0.1312668E+00
        -11   -1    0    0    0    0  0.00000000000E+00  0.00000000000E+00  0.45593999997E+02  0.45594000000E+02  0.51100000000E-03 0.  1.
         11   -1    0    0    0    0 -0.00000000000E+00 -0.00000000000E+00 -0.45593999997E+02  0.45594000000E+02  0.51100000000E-03 0. -1.
    9900012    2    1    2    0    0  0.91317527842E+01 -0.36450358893E+02 -0.21716514489E+02  0.47787256068E+02  0.19999931715E+02 0.  0.
        -12    1    1    2    0    0 -0.91317527842E+01  0.36450358893E+02  0.21716514489E+02  0.43400743932E+02  0.00000000000E+00 0.  1.
         11    1    3    3    0    0  0.94247138445E+01 -0.25648797783E+02 -0.96156409776E+01  0.28968027383E+02  0.51100000000E-03 0. -1.
        -11    1    3    3    0    0 -0.82514876358E+00 -0.12553943111E+02 -0.10613844229E+02  0.16460135106E+02  0.51100000000E-03 0.  1.
        -12    1    3    3    0    0  0.53218770328E+00  0.17523820013E+01 -0.14870292820E+01  0.23590935792E+01  0.00000000000E+00 0.  1.
</event>
<event>
 7    1  0.1427898E-010  0.4778727E+02  0.7816164E-02  0.1312668E+00
        -11   -1    0    0    0    0  0.00000000000E+00  0.00000000000E+00  0.45593999997E+02  0.45594000000E+02  0.51100000000E-03 0.  1.
         11   -1    0    0    0    0 -0.00000000000E+00 -0.00000000000E+00 -0.45593999997E+02  0.45594000000E+02  0.51100000000E-03 0. -1.
    9900012    2    1    2    0    0  0.44914179335E+01 -0.52325645400E+01 -0.42849392987E+02  0.47787273669E+02  0.20000011966E+02 0.  0.
        -12    1    1    2    0    0 -0.44914179335E+01  0.52325645400E+01  0.42849392987E+02  0.43400726331E+02  0.00000000000E+00 0.  1.
         11    1    3    3    0    0  0.10631532486E+02  0.20126840315E+01 -0.27272602419E+02  0.29340675231E+02  0.51100000000E-03 0. -1.
        -11    1    3    3    0    0 -0.17985966528E+01 -0.17672255262E+01 -0.21683412920E+01  0.33256187695E+01  0.51100000000E-03 0.  1.
         12    1    3    3    0    0 -0.43415179001E+01 -0.54780230453E+01 -0.13408449276E+02  0.15120979669E+02  0.00000000000E+00 0. -1.
</event>
<event>
 7    1  0.1427898E-010  0.4778727E+02  0.7816164E-02  0.1312668E+00
        -11   -1    0    0    0    0  0.00000000000E+00  0.00000000000E+00  0.45593999997E+02  0.45594000000E+02  0.51100000000E-03 0. -1.
         11   -1    0    0    0    0 -0.00000000000E+00 -0.00000000000E+00 -0.45593999997E+02  0.45594000000E+02  0.51100000000E-03 0.  1.
    9900012    2    1    2    0    0 -0.41894220833E+02  0.66147040391E+01 -0.92056000687E+01  0.47787272801E+02  0.20000008011E+02 0.  0.
        -12    1    1    2    0    0  0.41894220833E+02 -0.66147040391E+01  0.92056000687E+01  0.43400727199E+02  0.00000000000E+00 0.  1.
         11    1    3    3    0    0 -0.14661040288E+02  0.75345206495E+01 -0.42810186669E+01  0.17030626084E+02  0.51100000000E-03 0. -1.
        -11    1    3    3    0    0 -0.16688929738E+02 -0.41095147724E+01 -0.85005105812E+01  0.19174649093E+02  0.51100000000E-03 0.  1.
         12    1    3    3    0    0 -0.10544250808E+02  0.31896981620E+01  0.35759291795E+01  0.11581997624E+02  0.00000000000E+00 0. -1.
</event>
<event>
 7    1  0.1427898E-010  0.4778727E+02  0.7816164E-02  0.1312668E+00
        -11   -1    0    0    0    0  0.00000000000E+00  0.00000000000E+00  0.45593999997E+02  0.45594000000E+02  0.51100000000E-03 0.  1.
         11   -1    0    0    0    0 -0.00000000000E+00 -0.00000000000E+00 -0.45593999997E+02  0.45594000000E+02  0.51100000000E-03 0. -1.
    9900012    2    1    2    0    0 -0.78766645459E+00 -0.43392904327E+02  0.24230613011E+00  0.47787271012E+02  0.19999999853E+02 0.  0.
        -12    1    1    2    0    0  0.78766645459E+00  0.43392904327E+02 -0.24230613011E+00  0.43400728988E+02  0.00000000000E+00 0.  1.
         11    1    3    3    0    0  0.21343199119E+01 -0.31238493209E+02 -0.56855648607E+00  0.31316481862E+02  0.51100000000E-03 0. -1.
        -11    1    3    3    0    0 -0.52166531642E+00 -0.13230955912E+02 -0.99711339538E+00  0.13278726009E+02  0.51100000000E-03 0.  1.
        -12    1    3    3    0    0 -0.24003210500E+01  0.10765447938E+01  0.18079760116E+01  0.31920631408E+01  0.00000000000E+00 0.  1.
</event>
<event>
 7    1  0.1427898E-010  0.4778727E+02  0.7816164E-02  0.1312668E+00
        -11   -1    0    0    0    0  0.00000000000E+00  0.00000000000E+00  0.45593999997E+02  0.45594000000E+02  0.51100000000E-03 0.  1.
         11   -1    0    0    0    0 -0.00000000000E+00 -0.00000000000E+00 -0.45593999997E+02  0.45594000000E+02  0.51100000000E-03 0. -1.
    9900012    2    1    2    0    0  0.48702848816E+01  0.29557698076E+02 -0.31404555508E+02  0.47787270777E+02  0.19999998782E+02 0.  0.
        -12    1    1    2    0    0 -0.48702848816E+01 -0.29557698076E+02  0.31404555508E+02  0.43400729223E+02  0.00000000000E+00 0.  1.
         11    1    3    3    0    0  0.14623347108E+01  0.15323175985E+02 -0.18722490668E+02  0.24237776345E+02  0.51100000000E-03 0. -1.
        -11    1    3    3    0    0  0.43685277034E+01  0.14707973870E+02 -0.14710472608E+02  0.21255741207E+02  0.51100000000E-03 0.  1.
        -12    1    3    3    0    0 -0.96057753251E+00 -0.47345177824E+00  0.20284077685E+01  0.22937532251E+01  0.00000000000E+00 0.  1.
</event>
<event>
 7    1  0.1427898E-010  0.4778727E+02  0.7816164E-02  0.1312668E+00
        -11   -1    0    0    0    0  0.00000000000E+00  0.00000000000E+00  0.45593999997E+02  0.45594000000E+02  0.51100000000E-03 0. -1.
         11   -1    0    0    0    0 -0.00000000000E+00 -0.00000000000E+00 -0.45593999997E+02  0.45594000000E+02  0.51100000000E-03 0.  1.
    9900012    2    1    2    0    0  0.34877771549E+02 -0.21631750930E+02  0.14114933054E+02  0.47787274987E+02  0.20000017976E+02 0.  0.
        -12    1    1    2    0    0 -0.34877771549E+02  0.21631750930E+02 -0.14114933054E+02  0.43400725013E+02  0.00000000000E+00 0.  1.
         11    1    3    3    0    0  0.19933632490E+02 -0.18961298815E+02  0.50331442112E+01  0.27968072832E+02  0.51100000000E-03 0. -1.
        -11    1    3    3    0    0  0.48060282706E+01  0.67257954502E+00 -0.11987445924E+01  0.49987258217E+01  0.51100000000E-03 0.  1.
         12    1    3    3    0    0  0.10138110789E+02 -0.33430316596E+01  0.10280533435E+02  0.14820476334E+02  0.00000000000E+00 0. -1.
</event>
<event>
 7    1  0.1427898E-010  0.4778727E+02  0.7816164E-02  0.1312668E+00
        -11   -1    0    0    0    0  0.00000000000E+00  0.00000000000E+00  0.45593999997E+02  0.45594000000E+02  0.51100000000E-03 0.  1.
         11   -1    0    0    0    0 -0.00000000000E+00 -0.00000000000E+00 -0.45593999997E+02  0.45594000000E+02  0.51100000000E-03 0. -1.
    9900012    2    1    2    0    0 -0.13864921882E+02  0.39564104253E+02  0.11228033203E+02  0.47787272659E+02  0.20000007361E+02 0.  0.
        -12    1    1    2    0    0  0.13864921882E+02 -0.39564104253E+02 -0.11228033203E+02  0.43400727341E+02  0.00000000000E+00 0.  1.
         11    1    3    3    0    0 -0.61025205785E+00  0.68640844631E+01  0.64937500725E+01  0.94687302927E+01  0.51100000000E-03 0. -1.
        -11    1    3    3    0    0 -0.57142120409E+01  0.37874051964E+01 -0.29552024302E+01  0.74652447404E+01  0.51100000000E-03 0.  1.
         12    1    3    3    0    0 -0.75404577836E+01  0.28912614593E+02  0.76894855609E+01  0.30853297626E+02  0.00000000000E+00 0. -1.
</event>
<event>
 7    1  0.1427898E-010  0.4778727E+02  0.7816164E-02  0.1312668E+00
        -11   -1    0    0    0    0  0.00000000000E+00  0.00000000000E+00  0.45593999997E+02  0.45594000000E+02  0.51100000000E-03 0. -1.
         11   -1    0    0    0    0 -0.00000000000E+00 -0.00000000000E+00 -0.45593999997E+02  0.45594000000E+02  0.51100000000E-03 0.  1.
    9900012    2    1    2    0    0 -0.39341073404E+01  0.40441134481E+02  0.15253208908E+02  0.47787274884E+02  0.20000017504E+02 0.  0.
        -12    1    1    2    0    0  0.39341073404E+01 -0.40441134481E+02 -0.15253208908E+02  0.43400725116E+02  0.00000000000E+00 0.  1.
         11    1    3    3    0    0  0.78479342317E+00  0.55621786470E+01  0.79752710138E-01  0.56178370192E+01  0.51100000000E-03 0. -1.
        -11    1    3    3    0    0 -0.59067193459E+00 -0.17799477396E+01 -0.70928094461E+00  0.20050404010E+01  0.51100000000E-03 0.  1.
         12    1    3    3    0    0 -0.41282288290E+01  0.36658903573E+02  0.15882737143E+02  0.40164397463E+02  0.00000000000E+00 0. -1.
</event>
<event>
 7    1  0.1427898E-010  0.4778727E+02  0.7816164E-02  0.1312668E+00
        -11   -1    0    0    0    0  0.00000000000E+00  0.00000000000E+00  0.45593999997E+02  0.45594000000E+02  0.51100000000E-03 0.  1.
         11   -1    0    0    0    0 -0.00000000000E+00 -0.00000000000E+00 -0.45593999997E+02  0.45594000000E+02  0.51100000000E-03 0. -1.
    9900012    2    1    2    0    0  0.26110799338E+02  0.13933243294E+02 -0.31744521034E+02  0.47787265831E+02  0.19999976231E+02 0.  0.
        -12    1    1    2    0    0 -0.26110799338E+02 -0.13933243294E+02  0.31744521034E+02  0.43400734169E+02  0.00000000000E+00 0.  1.
         11    1    3    3    0    0 -0.10729443221E+01  0.36806912236E+01 -0.98781136337E+01  0.10596028814E+02  0.51100000000E-03 0. -1.
        -11    1    3    3    0    0  0.71920780058E+01  0.17653666020E+01 -0.17989268558E+01  0.76209345473E+01  0.51100000000E-03 0.  1.
         12    1    3    3    0    0  0.19991665654E+02  0.84871854681E+01 -0.20067480544E+02  0.29570302470E+02  0.00000000000E+00 0. -1.
</event>
<event>
 7    1  0.1427898E-010  0.4778727E+02  0.7816164E-02  0.1312668E+00
        -11   -1    0    0    0    0  0.00000000000E+00  0.00000000000E+00  0.45593999997E+02  0.45594000000E+02  0.51100000000E-03 0.  1.
         11   -1    0    0    0    0 -0.00000000000E+00 -0.00000000000E+00 -0.45593999997E+02  0.45594000000E+02  0.51100000000E-03 0. -1.
    9900012    2    1    2    0    0 -0.21000144394E+02  0.26857053112E+02 -0.26857327212E+02  0.47787269691E+02  0.19999993828E+02 0.  0.
        -12    1    1    2    0    0  0.21000144394E+02 -0.26857053112E+02  0.26857327212E+02  0.43400730309E+02  0.00000000000E+00 0.  1.
         11    1    3    3    0    0 -0.20909444785E+02  0.18259366248E+02 -0.27614419908E+02  0.39155657626E+02  0.51100000000E-03 0. -1.
        -11    1    3    3    0    0 -0.80061272551E-01  0.68454276733E+01  0.62384934280E+00  0.68742620041E+01  0.51100000000E-03 0.  1.
         12    1    3    3    0    0 -0.10638336255E-01  0.17522591904E+01  0.13324335364E+00  0.17573500607E+01  0.00000000000E+00 0. -1.
</event>
<event>
 7    1  0.1427898E-010  0.4778727E+02  0.7816164E-02  0.1312668E+00
        -11   -1    0    0    0    0  0.00000000000E+00  0.00000000000E+00  0.45593999997E+02  0.45594000000E+02  0.51100000000E-03 0.  1.
         11   -1    0    0    0    0 -0.00000000000E+00 -0.00000000000E+00 -0.45593999997E+02  0.45594000000E+02  0.51100000000E-03 0. -1.
    9900012    2    1    2    0    0  0.78812592477E+01 -0.23124324218E+02 -0.35871640149E+02  0.47787272070E+02  0.20000004678E+02 0.  0.
        -12    1    1    2    0    0 -0.78812592477E+01  0.23124324218E+02  0.35871640149E+02  0.43400727930E+02  0.00000000000E+00 0.  1.
         11    1    3    3    0    0  0.72949705742E+01 -0.11253086258E+02 -0.16222145351E+02  0.21047720686E+02  0.51100000000E-03 0. -1.
        -11    1    3    3    0    0  0.17354551397E+01  0.28242979313E+01 -0.26862971091E+01  0.42666914309E+01  0.51100000000E-03 0.  1.
         12    1    3    3    0    0 -0.11491664662E+01 -0.14695535891E+02 -0.16963197688E+02  0.22472859954E+02  0.00000000000E+00 0. -1.
</event>
<event>
 7    1  0.1427898E-010  0.4778727E+02  0.7816164E-02  0.1312668E+00
        -11   -1    0    0    0    0  0.00000000000E+00  0.00000000000E+00  0.45593999997E+02  0.45594000000E+02  0.51100000000E-03 0.  1.
         11   -1    0    0    0    0 -0.00000000000E+00 -0.00000000000E+00 -0.45593999997E+02  0.45594000000E+02  0.51100000000E-03 0. -1.
    9900012    2    1    2    0    0 -0.33610869992E+02 -0.21526589068E+02 -0.17045194424E+02  0.47787271072E+02  0.20000000127E+02 0.  0.
        -12    1    1    2    0    0  0.33610869992E+02  0.21526589068E+02  0.17045194424E+02  0.43400728928E+02  0.00000000000E+00 0.  1.
         11    1    3    3    0    0 -0.24506616955E+01 -0.48693012545E+01  0.95292332319E+00  0.55338865704E+01  0.51100000000E-03 0.  1.
        -11    1    3    3    0    0 -0.29045667109E+02 -0.96163505831E+01 -0.12401834294E+02  0.33014095027E+02  0.51100000000E-03 0. -1.
         12    1    3    3    0    0 -0.21145411874E+01 -0.70409372305E+01 -0.55962834534E+01  0.92392894753E+01  0.00000000000E+00 0. -1.
</event>
<event>
 7    1  0.1427898E-010  0.4778726E+02  0.7816164E-02  0.1312668E+00
        -11   -1    0    0    0    0  0.00000000000E+00  0.00000000000E+00  0.45593999997E+02  0.45594000000E+02  0.51100000000E-03 0.  1.
         11   -1    0    0    0    0 -0.00000000000E+00 -0.00000000000E+00 -0.45593999997E+02  0.45594000000E+02  0.51100000000E-03 0. -1.
    9900012    2    1    2    0    0  0.15602808451E+02  0.31509391843E+01 -0.40376335207E+02  0.47787256987E+02  0.19999935908E+02 0.  0.
        -12    1    1    2    0    0 -0.15602808451E+02 -0.31509391843E+01  0.40376335207E+02  0.43400743013E+02  0.00000000000E+00 0.  1.
         11    1    3    3    0    0  0.62147875388E+01  0.26535102275E+01 -0.17811144507E+02  0.19049975580E+02  0.51100000000E-03 0.  1.
        -11    1    3    3    0    0  0.29161570176E+01  0.30408693186E+01 -0.21245780523E+02  0.21659502493E+02  0.51100000000E-03 0. -1.
        -12    1    3    3    0    0  0.64718638945E+01 -0.25434403618E+01 -0.13194101771E+01  0.70777789142E+01  0.00000000000E+00 0.  1.
</event>
<event>
 7    1  0.1427898E-010  0.4778727E+02  0.7816164E-02  0.1312668E+00
        -11   -1    0    0    0    0  0.00000000000E+00  0.00000000000E+00  0.45593999997E+02  0.45594000000E+02  0.51100000000E-03 0. -1.
         11   -1    0    0    0    0 -0.00000000000E+00 -0.00000000000E+00 -0.45593999997E+02  0.45594000000E+02  0.51100000000E-03 0.  1.
    9900012    2    1    2    0    0 -0.36207923925E+02  0.22012963006E+02  0.93829140442E+01  0.47787269923E+02  0.19999994888E+02 0.  0.
        -12    1    1    2    0    0  0.36207923925E+02 -0.22012963006E+02 -0.93829140442E+01  0.43400730077E+02  0.00000000000E+00 0.  1.
         11    1    3    3    0    0 -0.67897165083E+00  0.47256173654E+01  0.26801159933E+01  0.54749871220E+01  0.51100000000E-03 0. -1.
        -11    1    3    3    0    0 -0.19321962642E+02  0.42550263007E+01  0.82974815740E+01  0.21454409568E+02  0.51100000000E-03 0.  1.
         12    1    3    3    0    0 -0.16206989631E+02  0.13032319340E+02 -0.15946835231E+01  0.20857873234E+02  0.00000000000E+00 0. -1.
</event>
<event>
 7    1  0.1427898E-010  0.4778727E+02  0.7816164E-02  0.1312668E+00
        -11   -1    0    0    0    0  0.00000000000E+00  0.00000000000E+00  0.45593999997E+02  0.45594000000E+02  0.51100000000E-03 0. -1.
         11   -1    0    0    0    0 -0.00000000000E+00 -0.00000000000E+00 -0.45593999997E+02  0.45594000000E+02  0.51100000000E-03 0.  1.
    9900012    2    1    2    0    0 -0.40611704494E+02  0.10999433884E+02  0.10645433434E+02  0.47787270275E+02  0.19999996493E+02 0.  0.
        -12    1    1    2    0    0  0.40611704494E+02 -0.10999433884E+02 -0.10645433434E+02  0.43400729725E+02  0.00000000000E+00 0.  1.
         11    1    3    3    0    0 -0.15838784129E+02  0.80992758592E+01  0.87480049134E+01  0.19824049595E+02  0.51100000000E-03 0. -1.
        -11    1    3    3    0    0 -0.19557567427E+02  0.74679008217E+01  0.19950645239E+01  0.21029699690E+02  0.51100000000E-03 0.  1.
        -12    1    3    3    0    0 -0.52153529380E+01 -0.45677427971E+01 -0.97636003784E-01  0.69335209899E+01  0.00000000000E+00 0.  1.
</event>
<event>
 7    1  0.1427898E-010  0.4778727E+02  0.7816164E-02  0.1312668E+00
        -11   -1    0    0    0    0  0.00000000000E+00  0.00000000000E+00  0.45593999997E+02  0.45594000000E+02  0.51100000000E-03 0.  1.
         11   -1    0    0    0    0 -0.00000000000E+00 -0.00000000000E+00 -0.45593999997E+02  0.45594000000E+02  0.51100000000E-03 0. -1.
    9900012    2    1    2    0    0 -0.91943273674E+01 -0.22829504088E+01 -0.42354171321E+02  0.47787270206E+02  0.19999996179E+02 0.  0.
        -12    1    1    2    0    0  0.91943273674E+01  0.22829504088E+01  0.42354171321E+02  0.43400729794E+02  0.00000000000E+00 0.  1.
         11    1    3    3    0    0 -0.74133081149E+01 -0.98329040424E+01 -0.28165720396E+02  0.30740054405E+02  0.51100000000E-03 0. -1.
        -11    1    3    3    0    0  0.16800087404E+01  0.13576070204E+01 -0.19949889944E+01  0.29403243935E+01  0.51100000000E-03 0.  1.
         12    1    3    3    0    0 -0.34610279929E+01  0.61923466132E+01 -0.12193461931E+02  0.14106891408E+02  0.00000000000E+00 0. -1.
</event>
<event>
 7    1  0.1427898E-010  0.4778727E+02  0.7816164E-02  0.1312668E+00
        -11   -1    0    0    0    0  0.00000000000E+00  0.00000000000E+00  0.45593999997E+02  0.45594000000E+02  0.51100000000E-03 0.  1.
         11   -1    0    0    0    0 -0.00000000000E+00 -0.00000000000E+00 -0.45593999997E+02  0.45594000000E+02  0.51100000000E-03 0. -1.
    9900012    2    1    2    0    0  0.42246898334E+02 -0.82749510874E+00  0.99064622693E+01  0.47787272336E+02  0.20000005891E+02 0.  0.
        -12    1    1    2    0    0 -0.42246898334E+02  0.82749510874E+00 -0.99064622693E+01  0.43400727664E+02  0.00000000000E+00 0.  1.
         11    1    3    3    0    0  0.18867655365E+02 -0.54275659283E+01  0.74757521348E+01  0.21007945190E+02  0.51100000000E-03 0. -1.
        -11    1    3    3    0    0  0.21239143812E+02  0.46468016788E+01 -0.20254687056E+01  0.21835670804E+02  0.51100000000E-03 0.  1.
         12    1    3    3    0    0  0.21400991577E+01 -0.46730859295E-01  0.44561788401E+01  0.49436563426E+01  0.00000000000E+00 0. -1.
</event>
<event>
 7    1  0.1427898E-010  0.4778723E+02  0.7816164E-02  0.1312668E+00
        -11   -1    0    0    0    0  0.00000000000E+00  0.00000000000E+00  0.45593999997E+02  0.45594000000E+02  0.51100000000E-03 0.  1.
         11   -1    0    0    0    0 -0.00000000000E+00 -0.00000000000E+00 -0.45593999997E+02  0.45594000000E+02  0.51100000000E-03 0. -1.
    9900012    2    1    2    0    0 -0.17186013961E+01 -0.76644977586E+01 -0.42684057018E+02  0.47787229959E+02  0.19999812675E+02 0.  0.
        -12    1    1    2    0    0  0.17186013961E+01  0.76644977586E+01  0.42684057018E+02  0.43400770041E+02  0.00000000000E+00 0.  1.
         11    1    3    3    0    0 -0.83840154498E+01 -0.10467177019E+01 -0.29593617897E+02  0.30776119858E+02  0.51100000000E-03 0. -1.
        -11    1    3    3    0    0  0.79028694003E+00 -0.44533956767E+01 -0.44916354607E+01  0.63743294450E+01  0.51100000000E-03 0.  1.
         12    1    3    3    0    0  0.58751271137E+01 -0.21643843800E+01 -0.85988036596E+01  0.10636780656E+02  0.00000000000E+00 0. -1.
</event>
<event>
 7    1  0.1427898E-010  0.4778727E+02  0.7816164E-02  0.1312668E+00
        -11   -1    0    0    0    0  0.00000000000E+00  0.00000000000E+00  0.45593999997E+02  0.45594000000E+02  0.51100000000E-03 0.  1.
         11   -1    0    0    0    0 -0.00000000000E+00 -0.00000000000E+00 -0.45593999997E+02  0.45594000000E+02  0.51100000000E-03 0. -1.
    9900012    2    1    2    0    0  0.25811448226E+02 -0.16762731166E+02 -0.30600710865E+02  0.47787268196E+02  0.19999987014E+02 0.  0.
        -12    1    1    2    0    0 -0.25811448226E+02  0.16762731166E+02  0.30600710865E+02  0.43400731804E+02  0.00000000000E+00 0.  1.
         11    1    3    3    0    0  0.51235928504E+01  0.93844979325E+00 -0.45470877022E+01  0.69143256030E+01  0.51100000000E-03 0. -1.
        -11    1    3    3    0    0  0.46818516653E+01 -0.11795539827E+02 -0.17956038048E+02  0.21988037599E+02  0.51100000000E-03 0.  1.
         12    1    3    3    0    0  0.16006003710E+02 -0.59056411322E+01 -0.80975851151E+01  0.18884904994E+02  0.00000000000E+00 0. -1.
</event>
<event>
 7    1  0.1427898E-010  0.4778727E+02  0.7816164E-02  0.1312668E+00
        -11   -1    0    0    0    0  0.00000000000E+00  0.00000000000E+00  0.45593999997E+02  0.45594000000E+02  0.51100000000E-03 0. -1.
         11   -1    0    0    0    0 -0.00000000000E+00 -0.00000000000E+00 -0.45593999997E+02  0.45594000000E+02  0.51100000000E-03 0.  1.
    9900012    2    1    2    0    0  0.30073574348E+02 -0.31264938308E+02  0.13064948190E+01  0.47787272240E+02  0.20000005449E+02 0.  0.
        -12    1    1    2    0    0 -0.30073574348E+02  0.31264938308E+02 -0.13064948190E+01  0.43400727760E+02  0.00000000000E+00 0.  1.
         11    1    3    3    0    0  0.17066437742E+02 -0.18958089331E+02  0.27159685407E+00  0.25509727819E+02  0.51100000000E-03 0. -1.
        -11    1    3    3    0    0  0.26635070807E+01 -0.83310086930E+01  0.54982076620E+01  0.10331034003E+02  0.51100000000E-03 0.  1.
        -12    1    3    3    0    0  0.10343629525E+02 -0.39758402839E+01 -0.44633096971E+01  0.11946510418E+02  0.00000000000E+00 0.  1.
</event>
<event>
 7    1  0.1427898E-010  0.4778726E+02  0.7816164E-02  0.1312668E+00
        -11   -1    0    0    0    0  0.00000000000E+00  0.00000000000E+00  0.45593999997E+02  0.45594000000E+02  0.51100000000E-03 0.  1.
         11   -1    0    0    0    0 -0.00000000000E+00 -0.00000000000E+00 -0.45593999997E+02  0.45594000000E+02  0.51100000000E-03 0. -1.
    9900012    2    1    2    0    0 -0.36604977964E+02  0.10759628354E+02 -0.20686473238E+02  0.47787260501E+02  0.19999951927E+02 0.  0.
        -12    1    1    2    0    0  0.36604977964E+02 -0.10759628354E+02  0.20686473238E+02  0.43400739499E+02  0.00000000000E+00 0.  1.
         11    1    3    3    0    0 -0.22939301994E+02  0.52489628845E+01 -0.20164428256E+02  0.30989794361E+02  0.51100000000E-03 0. -1.
        -11    1    3    3    0    0 -0.98184988638E+01 -0.82475484114E-01 -0.15206225186E+01  0.99358952918E+01  0.51100000000E-03 0.  1.
        -12    1    3    3    0    0 -0.38471771061E+01  0.55931409534E+01  0.99857753709E+00  0.68615708484E+01  0.00000000000E+00 0.  1.
</event>
<event>
 7    1  0.1427898E-010  0.4778727E+02  0.7816164E-02  0.1312668E+00
        -11   -1    0    0    0    0  0.00000000000E+00  0.00000000000E+00  0.45593999997E+02  0.45594000000E+02  0.51100000000E-03 0. -1.
         11   -1    0    0    0    0 -0.00000000000E+00 -0.00000000000E+00 -0.45593999997E+02  0.45594000000E+02  0.51100000000E-03 0.  1.
    9900012    2    1    2    0    0  0.18795184521E+02  0.28564081214E+02 -0.26729340803E+02  0.47787270092E+02  0.19999995657E+02 0.  0.
        -12    1    1    2    0    0 -0.18795184521E+02 -0.28564081214E+02  0.26729340803E+02  0.43400729908E+02  0.00000000000E+00 0.  1.
         11    1    3    3    0    0  0.19593112035E+00  0.67449208760E+01 -0.38507042385E+01  0.77691872176E+01  0.51100000000E-03 0. -1.
        -11    1    3    3    0    0  0.13219069309E+02  0.36044020197E+01 -0.77901329855E+01  0.15761398400E+02  0.51100000000E-03 0.  1.
        -12    1    3    3    0    0  0.53801840917E+01  0.18214758318E+02 -0.15088503579E+02  0.24256684475E+02  0.00000000000E+00 0.  1.
</event>
<event>
 7    1  0.1427898E-010  0.4778727E+02  0.7816164E-02  0.1312668E+00
        -11   -1    0    0    0    0  0.00000000000E+00  0.00000000000E+00  0.45593999997E+02  0.45594000000E+02  0.51100000000E-03 0.  1.
         11   -1    0    0    0    0 -0.00000000000E+00 -0.00000000000E+00 -0.45593999997E+02  0.45594000000E+02  0.51100000000E-03 0. -1.
    9900012    2    1    2    0    0  0.12473471717E+02 -0.97669924240E+01 -0.40405962404E+02  0.47787269183E+02  0.19999991512E+02 0.  0.
        -12    1    1    2    0    0 -0.12473471717E+02  0.97669924240E+01  0.40405962404E+02  0.43400730817E+02  0.00000000000E+00 0.  1.
         11    1    3    3    0    0 -0.20541384795E+00 -0.49739805591E+01 -0.26591580051E+02  0.27053554430E+02  0.51100000000E-03 0. -1.
        -11    1    3    3    0    0  0.12127818018E+01  0.10524998905E+00  0.85028951511E+00  0.14848938614E+01  0.51100000000E-03 0.  1.
        -12    1    3    3    0    0  0.11466103763E+02 -0.48982618540E+01 -0.14664671868E+02  0.19248820891E+02  0.00000000000E+00 0.  1.
</event>
<event>
 7    1  0.1427898E-010  0.4778727E+02  0.7816164E-02  0.1312668E+00
        -11   -1    0    0    0    0  0.00000000000E+00  0.00000000000E+00  0.45593999997E+02  0.45594000000E+02  0.51100000000E-03 0.  1.
         11   -1    0    0    0    0 -0.00000000000E+00 -0.00000000000E+00 -0.45593999997E+02  0.45594000000E+02  0.51100000000E-03 0. -1.
    9900012    2    1    2    0    0 -0.34290709138E+02 -0.26388640579E+00 -0.26602652279E+02  0.47787268699E+02  0.19999989305E+02 0.  0.
        -12    1    1    2    0    0  0.34290709138E+02  0.26388640579E+00  0.26602652279E+02  0.43400731301E+02  0.00000000000E+00 0.  1.
         11    1    3    3    0    0 -0.14979253208E+02  0.55047324199E+01 -0.18228115974E+02  0.24226933729E+02  0.51100000000E-03 0. -1.
        -11    1    3    3    0    0 -0.16580422964E+00 -0.26069036051E+01 -0.83917511796E+00  0.27436567913E+01  0.51100000000E-03 0.  1.
        -12    1    3    3    0    0 -0.19145651700E+02 -0.31617152206E+01 -0.75353611868E+01  0.20816678178E+02  0.00000000000E+00 0.  1.
</event>
<event>
 7    1  0.1427898E-010  0.4778727E+02  0.7816164E-02  0.1312668E+00
        -11   -1    0    0    0    0  0.00000000000E+00  0.00000000000E+00  0.45593999997E+02  0.45594000000E+02  0.51100000000E-03 0.  1.
         11   -1    0    0    0    0 -0.00000000000E+00 -0.00000000000E+00 -0.45593999997E+02  0.45594000000E+02  0.51100000000E-03 0. -1.
    9900012    2    1    2    0    0 -0.33388392846E+00 -0.16791119389E+02 -0.40019623693E+02  0.47787269022E+02  0.19999990781E+02 0.  0.
        -12    1    1    2    0    0  0.33388392846E+00  0.16791119389E+02  0.40019623693E+02  0.43400730978E+02  0.00000000000E+00 0.  1.
         11    1    3    3    0    0  0.11693014337E+01 -0.12733372265E+02 -0.27203770644E+02  0.30059127941E+02  0.51100000000E-03 0. -1.
        -11    1    3    3    0    0  0.29877887440E+00 -0.57655447922E+01 -0.12607461133E+01  0.59093363917E+01  0.51100000000E-03 0.  1.
        -12    1    3    3    0    0 -0.18019642366E+01  0.17077976678E+01 -0.11555106936E+02  0.11818804689E+02  0.00000000000E+00 0.  1.
</event>
<event>
 7    1  0.1427898E-010  0.4778727E+02  0.7816164E-02  0.1312668E+00
        -11   -1    0    0    0    0  0.00000000000E+00  0.00000000000E+00  0.45593999997E+02  0.45594000000E+02  0.51100000000E-03 0.  1.
         11   -1    0    0    0    0 -0.00000000000E+00 -0.00000000000E+00 -0.45593999997E+02  0.45594000000E+02  0.51100000000E-03 0. -1.
    9900012    2    1    2    0    0  0.26514998678E+02  0.78019113361E+01 -0.33462042241E+02  0.47787271362E+02  0.20000001446E+02 0.  0.
        -12    1    1    2    0    0 -0.26514998678E+02 -0.78019113361E+01  0.33462042241E+02  0.43400728638E+02  0.00000000000E+00 0.  1.
         11    1    3    3    0    0  0.14020803924E+02  0.11154754844E+02 -0.18173014450E+02  0.25519991238E+02  0.51100000000E-03 0. -1.
        -11    1    3    3    0    0  0.15200283205E+01 -0.24960173968E+01 -0.92738164156E+01  0.97233872756E+01  0.51100000000E-03 0.  1.
         12    1    3    3    0    0  0.10974166433E+02 -0.85682611149E+00 -0.60152113752E+01  0.12543892848E+02  0.00000000000E+00 0. -1.
</event>
<event>
 7    1  0.1427898E-010  0.4778727E+02  0.7816164E-02  0.1312668E+00
        -11   -1    0    0    0    0  0.00000000000E+00  0.00000000000E+00  0.45593999997E+02  0.45594000000E+02  0.51100000000E-03 0. -1.
         11   -1    0    0    0    0 -0.00000000000E+00 -0.00000000000E+00 -0.45593999997E+02  0.45594000000E+02  0.51100000000E-03 0.  1.
    9900012    2    1    2    0    0 -0.24848970344E+02  0.29324192303E+02  0.20155490473E+02  0.47787269850E+02  0.19999994553E+02 0.  0.
        -12    1    1    2    0    0  0.24848970344E+02 -0.29324192303E+02 -0.20155490473E+02  0.43400730150E+02  0.00000000000E+00 0.  1.
         11    1    3    3    0    0 -0.16109580247E+02  0.10985740331E+02  0.31285251469E+01  0.19748233749E+02  0.51100000000E-03 0. -1.
        -11    1    3    3    0    0 -0.93493174039E+01  0.10161502512E+02  0.12734129253E+02  0.18783607676E+02  0.51100000000E-03 0.  1.
        -12    1    3    3    0    0  0.60992730619E+00  0.81769494600E+01  0.42928360727E+01  0.92554284254E+01  0.00000000000E+00 0.  1.
</event>
<event>
 7    1  0.1427898E-010  0.4778728E+02  0.7816164E-02  0.1312668E+00
        -11   -1    0    0    0    0  0.00000000000E+00  0.00000000000E+00  0.45593999997E+02  0.45594000000E+02  0.51100000000E-03 0. -1.
         11   -1    0    0    0    0 -0.00000000000E+00 -0.00000000000E+00 -0.45593999997E+02  0.45594000000E+02  0.51100000000E-03 0.  1.
    9900012    2    1    2    0    0 -0.41976964212E+02 -0.10562547521E+02 -0.31606753432E+01  0.47787276467E+02  0.20000024721E+02 0.  0.
        -12    1    1    2    0    0  0.41976964212E+02  0.10562547521E+02  0.31606753432E+01  0.43400723533E+02  0.00000000000E+00 0.  1.
         11    1    3    3    0    0 -0.25991798044E+02 -0.74444316808E+01 -0.48678751024E+01  0.27471609652E+02  0.51100000000E-03 0. -1.
        -11    1    3    3    0    0 -0.14222924197E+02  0.18394048873E+00  0.52499258565E+01  0.15162029170E+02  0.51100000000E-03 0.  1.
        -12    1    3    3    0    0 -0.17622419718E+01 -0.33020563288E+01 -0.35427260972E+01  0.51536376440E+01  0.00000000000E+00 0.  1.
</event>
<event>
 7    1  0.1427898E-010  0.4778726E+02  0.7816164E-02  0.1312668E+00
        -11   -1    0    0    0    0  0.00000000000E+00  0.00000000000E+00  0.45593999997E+02  0.45594000000E+02  0.51100000000E-03 0.  1.
         11   -1    0    0    0    0 -0.00000000000E+00 -0.00000000000E+00 -0.45593999997E+02  0.45594000000E+02  0.51100000000E-03 0. -1.
    9900012    2    1    2    0    0 -0.13043022657E+01 -0.24144845633E+02 -0.36040936267E+02  0.47787264268E+02  0.19999969105E+02 0.  0.
        -12    1    1    2    0    0  0.13043022657E+01  0.24144845633E+02  0.36040936267E+02  0.43400735732E+02  0.00000000000E+00 0.  1.
         11    1    3    3    0    0 -0.40773412843E+01 -0.17403730374E+02 -0.19310750702E+02  0.26313867747E+02  0.51100000000E-03 0. -1.
        -11    1    3    3    0    0 -0.36885848102E+01  0.21347659033E+00 -0.67783469287E+01  0.77199234131E+01  0.51100000000E-03 0.  1.
         12    1    3    3    0    0  0.64616238288E+01 -0.69545918493E+01 -0.99518386359E+01  0.13753473108E+02  0.00000000000E+00 0. -1.
</event>
<event>
 7    1  0.1427898E-010  0.4778728E+02  0.7816164E-02  0.1312668E+00
        -11   -1    0    0    0    0  0.00000000000E+00  0.00000000000E+00  0.45593999997E+02  0.45594000000E+02  0.51100000000E-03 0.  1.
         11   -1    0    0    0    0 -0.00000000000E+00 -0.00000000000E+00 -0.45593999997E+02  0.45594000000E+02  0.51100000000E-03 0. -1.
    9900012    2    1    2    0    0  0.40294857900E+02 -0.16017371620E+02  0.18413816345E+01  0.47787280500E+02  0.20000043109E+02 0.  0.
        -12    1    1    2    0    0 -0.40294857900E+02  0.16017371620E+02 -0.18413816345E+01  0.43400719500E+02  0.00000000000E+00 0.  1.
         11    1    3    3    0    0  0.21555133238E+02 -0.11586618510E+02  0.99669217584E+00  0.24492180240E+02  0.51100000000E-03 0. -1.
        -11    1    3    3    0    0  0.11323617030E+02 -0.24501959788E+01  0.69295407843E+01  0.13499862915E+02  0.51100000000E-03 0.  1.
        -12    1    3    3    0    0  0.74161076326E+01 -0.19805571320E+01 -0.60848513256E+01  0.97952373440E+01  0.00000000000E+00 0.  1.
</event>
<event>
 7    1  0.1427898E-010  0.4778728E+02  0.7816164E-02  0.1312668E+00
        -11   -1    0    0    0    0  0.00000000000E+00  0.00000000000E+00  0.45593999997E+02  0.45594000000E+02  0.51100000000E-03 0. -1.
         11   -1    0    0    0    0 -0.00000000000E+00 -0.00000000000E+00 -0.45593999997E+02  0.45594000000E+02  0.51100000000E-03 0.  1.
    9900012    2    1    2    0    0 -0.23817513413E+01 -0.21419107648E+02  0.37671897447E+02  0.47787276860E+02  0.20000026513E+02 0.  0.
        -12    1    1    2    0    0  0.23817513413E+01  0.21419107648E+02 -0.37671897447E+02  0.43400723140E+02  0.00000000000E+00 0.  1.
         11    1    3    3    0    0 -0.61317659159E+01 -0.10090750602E+02  0.16500831608E+02  0.20290373210E+02  0.51100000000E-03 0. -1.
        -11    1    3    3    0    0  0.12671458003E+01  0.93373910016E+00  0.11699875168E+02  0.11805278751E+02  0.51100000000E-03 0.  1.
        -12    1    3    3    0    0  0.24828687743E+01 -0.12262096146E+02  0.94711906703E+01  0.15691624899E+02  0.00000000000E+00 0.  1.
</event>
<event>
 7    1  0.1427898E-010  0.4778726E+02  0.7816164E-02  0.1312668E+00
        -11   -1    0    0    0    0  0.00000000000E+00  0.00000000000E+00  0.45593999997E+02  0.45594000000E+02  0.51100000000E-03 0.  1.
         11   -1    0    0    0    0 -0.00000000000E+00 -0.00000000000E+00 -0.45593999997E+02  0.45594000000E+02  0.51100000000E-03 0. -1.
    9900012    2    1    2    0    0  0.34335566384E+02 -0.26539219832E+02  0.60212291528E+00  0.47787264290E+02  0.19999969203E+02 0.  0.
        -12    1    1    2    0    0 -0.34335566384E+02  0.26539219832E+02 -0.60212291528E+00  0.43400735710E+02  0.00000000000E+00 0.  1.
         11    1    3    3    0    0  0.96611373083E+00  0.10704322131E+01 -0.54042363932E+00  0.15398892281E+01  0.51100000000E-03 0. -1.
        -11    1    3    3    0    0  0.16538471296E+02 -0.22355945763E+02  0.48545344957E+01  0.28228989518E+02  0.51100000000E-03 0.  1.
         12    1    3    3    0    0  0.16830981357E+02 -0.52537062819E+01 -0.37119879411E+01  0.18018385544E+02  0.00000000000E+00 0. -1.
</event>
<event>
 7    1  0.1427898E-010  0.4778728E+02  0.7816164E-02  0.1312668E+00
        -11   -1    0    0    0    0  0.00000000000E+00  0.00000000000E+00  0.45593999997E+02  0.45594000000E+02  0.51100000000E-03 0.  1.
         11   -1    0    0    0    0 -0.00000000000E+00 -0.00000000000E+00 -0.45593999997E+02  0.45594000000E+02  0.51100000000E-03 0. -1.
    9900012    2    1    2    0    0 -0.46842075834E+01  0.14052447242E+01 -0.43124311450E+02  0.47787277063E+02  0.20000027440E+02 0.  0.
        -12    1    1    2    0    0  0.46842075834E+01 -0.14052447242E+01  0.43124311450E+02  0.43400722937E+02  0.00000000000E+00 0.  1.
         11    1    3    3    0    0 -0.38941740706E+01 -0.70266687689E+01 -0.12329475175E+02  0.14715795053E+02  0.51100000000E-03 0. -1.
        -11    1    3    3    0    0 -0.46254302876E+01  0.47184034394E+01 -0.14764143367E+02  0.16175223831E+02  0.51100000000E-03 0.  1.
        -12    1    3    3    0    0  0.38353967747E+01  0.37135100537E+01 -0.16030692908E+02  0.16896258179E+02  0.00000000000E+00 0.  1.
</event>
<event>
 7    1  0.1427898E-010  0.4778727E+02  0.7816164E-02  0.1312668E+00
        -11   -1    0    0    0    0  0.00000000000E+00  0.00000000000E+00  0.45593999997E+02  0.45594000000E+02  0.51100000000E-03 0.  1.
         11   -1    0    0    0    0 -0.00000000000E+00 -0.00000000000E+00 -0.45593999997E+02  0.45594000000E+02  0.51100000000E-03 0. -1.
    9900012    2    1    2    0    0 -0.39730315244E+02  0.86359170463E+00 -0.17446479795E+02  0.47787269623E+02  0.19999993521E+02 0.  0.
        -12    1    1    2    0    0  0.39730315244E+02 -0.86359170463E+00  0.17446479795E+02  0.43400730377E+02  0.00000000000E+00 0.  1.
         11    1    3    3    0    0 -0.67861747455E+01 -0.50302361005E+01 -0.75451757976E+01  0.11326302176E+02  0.51100000000E-03 0. -1.
        -11    1    3    3    0    0 -0.23389513820E+02 -0.64551578767E-02 -0.38486058997E+01  0.23704032696E+02  0.51100000000E-03 0.  1.
        -12    1    3    3    0    0 -0.95546266780E+01  0.59002829630E+01 -0.60526980975E+01  0.12756934752E+02  0.00000000000E+00 0.  1.
</event>
<event>
 7    1  0.1427898E-010  0.4778727E+02  0.7816164E-02  0.1312668E+00
        -11   -1    0    0    0    0  0.00000000000E+00  0.00000000000E+00  0.45593999997E+02  0.45594000000E+02  0.51100000000E-03 0.  1.
         11   -1    0    0    0    0 -0.00000000000E+00 -0.00000000000E+00 -0.45593999997E+02  0.45594000000E+02  0.51100000000E-03 0. -1.
    9900012    2    1    2    0    0  0.72044800380E+01  0.19070202226E+02 -0.38315088256E+02  0.47787272660E+02  0.20000007367E+02 0.  0.
        -12    1    1    2    0    0 -0.72044800380E+01 -0.19070202226E+02  0.38315088256E+02  0.43400727340E+02  0.00000000000E+00 0.  1.
         11    1    3    3    0    0 -0.48897347318E+01  0.88674306648E+01 -0.83683770273E+01  0.13136611689E+02  0.51100000000E-03 0. -1.
        -11    1    3    3    0    0  0.61101819559E+01  0.10001924114E+01 -0.80412445165E+01  0.10148710363E+02  0.51100000000E-03 0.  1.
        -12    1    3    3    0    0  0.59840328139E+01  0.92025791495E+01 -0.21905466712E+02  0.24501950608E+02  0.00000000000E+00 0.  1.
</event>
<event>
 7    1  0.1427898E-010  0.4778727E+02  0.7816164E-02  0.1312668E+00
        -11   -1    0    0    0    0  0.00000000000E+00  0.00000000000E+00  0.45593999997E+02  0.45594000000E+02  0.51100000000E-03 0.  1.
         11   -1    0    0    0    0 -0.00000000000E+00 -0.00000000000E+00 -0.45593999997E+02  0.45594000000E+02  0.51100000000E-03 0. -1.
    9900012    2    1    2    0    0 -0.29087485215E+02 -0.10067825202E+02 -0.30597065128E+02  0.47787270802E+02  0.19999998895E+02 0.  0.
        -12    1    1    2    0    0  0.29087485215E+02  0.10067825202E+02  0.30597065128E+02  0.43400729198E+02  0.00000000000E+00 0.  1.
         11    1    3    3    0    0 -0.14545214658E+02 -0.25836116102E+01 -0.73980023959E+01  0.16521766192E+02  0.51100000000E-03 0. -1.
        -11    1    3    3    0    0 -0.35837492363E+01  0.28936496098E+00 -0.15220513137E+02  0.15639405714E+02  0.51100000000E-03 0.  1.
         12    1    3    3    0    0 -0.10958521321E+02 -0.77735785531E+01 -0.79785495950E+01  0.15626098896E+02  0.00000000000E+00 0. -1.
</event>
<event>
 7    1  0.1427898E-010  0.4778727E+02  0.7816164E-02  0.1312668E+00
        -11   -1    0    0    0    0  0.00000000000E+00  0.00000000000E+00  0.45593999997E+02  0.45594000000E+02  0.51100000000E-03 0.  1.
         11   -1    0    0    0    0 -0.00000000000E+00 -0.00000000000E+00 -0.45593999997E+02  0.45594000000E+02  0.51100000000E-03 0. -1.
    9900012    2    1    2    0    0 -0.34296495937E+00 -0.19951263827E+02 -0.38541574498E+02  0.47787268232E+02  0.19999987175E+02 0.  0.
        -12    1    1    2    0    0  0.34296495937E+00  0.19951263827E+02  0.38541574498E+02  0.43400731768E+02  0.00000000000E+00 0.  1.
         11    1    3    3    0    0  0.41983064400E+01 -0.87089577617E+01 -0.23596986575E+02  0.25500774458E+02  0.51100000000E-03 0. -1.
        -11    1    3    3    0    0 -0.63923326888E+01 -0.91457692104E+01 -0.15817044472E+02  0.19356805205E+02  0.51100000000E-03 0.  1.
         12    1    3    3    0    0  0.18510612894E+01 -0.20965368548E+01  0.87245654903E+00  0.29296885689E+01  0.00000000000E+00 0. -1.
</event>
<event>
 7    1  0.1427898E-010  0.4778727E+02  0.7816164E-02  0.1312668E+00
        -11   -1    0    0    0    0  0.00000000000E+00  0.00000000000E+00  0.45593999997E+02  0.45594000000E+02  0.51100000000E-03 0.  1.
         11   -1    0    0    0    0 -0.00000000000E+00 -0.00000000000E+00 -0.45593999997E+02  0.45594000000E+02  0.51100000000E-03 0. -1.
    9900012    2    1    2    0    0 -0.26194322677E+02  0.17934327288E+02 -0.29594611557E+02  0.47787266493E+02  0.19999979247E+02 0.  0.
        -12    1    1    2    0    0  0.26194322677E+02 -0.17934327288E+02  0.29594611557E+02  0.43400733507E+02  0.00000000000E+00 0.  1.
         11    1    3    3    0    0 -0.12747964753E+02  0.14976707706E+02 -0.20292806241E+02  0.28259695052E+02  0.51100000000E-03 0. -1.
        -11    1    3    3    0    0 -0.29551895494E+01 -0.15199480369E+01 -0.71985206542E+01  0.79285614823E+01  0.51100000000E-03 0.  1.
        -12    1    3    3    0    0 -0.10491168374E+02  0.44775676189E+01 -0.21032846616E+01  0.11599009958E+02  0.00000000000E+00 0.  1.
</event>
<event>
 7    1  0.1427898E-010  0.4778727E+02  0.7816164E-02  0.1312668E+00
        -11   -1    0    0    0    0  0.00000000000E+00  0.00000000000E+00  0.45593999997E+02  0.45594000000E+02  0.51100000000E-03 0.  1.
         11   -1    0    0    0    0 -0.00000000000E+00 -0.00000000000E+00 -0.45593999997E+02  0.45594000000E+02  0.51100000000E-03 0. -1.
    9900012    2    1    2    0    0 -0.75047467901E+01 -0.29840847898E+02 -0.30607610822E+02  0.47787271114E+02  0.20000000317E+02 0.  0.
        -12    1    1    2    0    0  0.75047467901E+01  0.29840847898E+02  0.30607610822E+02  0.43400728886E+02  0.00000000000E+00 0.  1.
         11    1    3    3    0    0  0.18971352244E+01 -0.17660164261E+02 -0.13243401698E+02  0.22155545865E+02  0.51100000000E-03 0. -1.
        -11    1    3    3    0    0 -0.16577365366E+00  0.19116599785E+01 -0.25834671161E+01  0.32181092863E+01  0.51100000000E-03 0.  1.
         12    1    3    3    0    0 -0.92361083608E+01 -0.14092343615E+02 -0.14780742007E+02  0.22413615962E+02  0.00000000000E+00 0. -1.
</event>
<event>
 7    1  0.1427898E-010  0.4778728E+02  0.7816164E-02  0.1312668E+00
        -11   -1    0    0    0    0  0.00000000000E+00  0.00000000000E+00  0.45593999997E+02  0.45594000000E+02  0.51100000000E-03 0. -1.
         11   -1    0    0    0    0 -0.00000000000E+00 -0.00000000000E+00 -0.45593999997E+02  0.45594000000E+02  0.51100000000E-03 0.  1.
    9900012    2    1    2    0    0  0.94802166833E+01 -0.42233759472E+02 -0.31713820256E+01  0.47787278676E+02  0.20000034796E+02 0.  0.
        -12    1    1    2    0    0 -0.94802166833E+01  0.42233759472E+02  0.31713820256E+01  0.43400721324E+02  0.00000000000E+00 0.  1.
         11    1    3    3    0    0  0.34147392145E+01 -0.29644720088E+01  0.43678100836E+01  0.62869947814E+01  0.51100000000E-03 0. -1.
        -11    1    3    3    0    0 -0.24542695622E+01 -0.10704381244E+02 -0.25962753753E+01  0.11284851040E+02  0.51100000000E-03 0.  1.
         12    1    3    3    0    0  0.85197470310E+01 -0.28564906219E+02 -0.49429167339E+01  0.30215432855E+02  0.00000000000E+00 0. -1.
</event>
<event>
 7    1  0.1427898E-010  0.4778727E+02  0.7816164E-02  0.1312668E+00
        -11   -1    0    0    0    0  0.00000000000E+00  0.00000000000E+00  0.45593999997E+02  0.45594000000E+02  0.51100000000E-03 0.  1.
         11   -1    0    0    0    0 -0.00000000000E+00 -0.00000000000E+00 -0.45593999997E+02  0.45594000000E+02  0.51100000000E-03 0. -1.
    9900012    2    1    2    0    0 -0.39132776854E+02  0.14345447859E+02 -0.12101946682E+02  0.47787271756E+02  0.20000003246E+02 0.  0.
        -12    1    1    2    0    0  0.39132776854E+02 -0.14345447859E+02  0.12101946682E+02  0.43400728244E+02  0.00000000000E+00 0.  1.
         11    1    3    3    0    0 -0.14302928612E+02  0.93680136937E+01 -0.82573307928E+01  0.18987284154E+02  0.51100000000E-03 0. -1.
        -11    1    3    3    0    0 -0.48107126267E+01  0.27114485664E+01  0.43705366416E+01  0.70424782642E+01  0.51100000000E-03 0.  1.
         12    1    3    3    0    0 -0.20019135615E+02  0.22659855994E+01 -0.82151525312E+01  0.21757509338E+02  0.00000000000E+00 0. -1.
</event>
<event>
 7    1  0.1427898E-010  0.4778727E+02  0.7816164E-02  0.1312668E+00
        -11   -1    0    0    0    0  0.00000000000E+00  0.00000000000E+00  0.45593999997E+02  0.45594000000E+02  0.51100000000E-03 0.  1.
         11   -1    0    0    0    0 -0.00000000000E+00 -0.00000000000E+00 -0.45593999997E+02  0.45594000000E+02  0.51100000000E-03 0. -1.
    9900012    2    1    2    0    0  0.21967381468E+02  0.33678418757E+02 -0.16334667871E+02  0.47787272898E+02  0.20000008452E+02 0.  0.
        -12    1    1    2    0    0 -0.21967381468E+02 -0.33678418757E+02  0.16334667871E+02  0.43400727102E+02  0.00000000000E+00 0.  1.
         11    1    3    3    0    0  0.91542474981E+01  0.14433355078E+01 -0.14995881253E+01  0.93878767275E+01  0.51100000000E-03 0. -1.
        -11    1    3    3    0    0  0.39638405126E+01  0.56842323352E+01 -0.48152292343E+00  0.69465382341E+01  0.51100000000E-03 0.  1.
         12    1    3    3    0    0  0.88492934574E+01  0.26550850914E+02 -0.14353556822E+02  0.31452857937E+02  0.00000000000E+00 0. -1.
</event>
<event>
 7    1  0.1427898E-010  0.4778727E+02  0.7816164E-02  0.1312668E+00
        -11   -1    0    0    0    0  0.00000000000E+00  0.00000000000E+00  0.45593999997E+02  0.45594000000E+02  0.51100000000E-03 0.  1.
         11   -1    0    0    0    0 -0.00000000000E+00 -0.00000000000E+00 -0.45593999997E+02  0.45594000000E+02  0.51100000000E-03 0. -1.
    9900012    2    1    2    0    0 -0.25651961041E+01 -0.12534803013E+02 -0.41471942456E+02  0.47787268109E+02  0.19999986616E+02 0.  0.
        -12    1    1    2    0    0  0.25651961041E+01  0.12534803013E+02  0.41471942456E+02  0.43400731891E+02  0.00000000000E+00 0.  1.
         11    1    3    3    0    0  0.72051004752E+01 -0.78646516252E+01 -0.16738926033E+02  0.19848371798E+02  0.51100000000E-03 0.  1.
        -11    1    3    3    0    0 -0.70338536135E+01 -0.58778000419E+01 -0.13524648307E+02  0.16338290672E+02  0.51100000000E-03 0. -1.
         12    1    3    3    0    0 -0.27364429658E+01  0.12076486540E+01 -0.11208368115E+02  0.11600605638E+02  0.00000000000E+00 0. -1.
</event>
<event>
 7    1  0.1427898E-010  0.4778728E+02  0.7816164E-02  0.1312668E+00
        -11   -1    0    0    0    0  0.00000000000E+00  0.00000000000E+00  0.45593999997E+02  0.45594000000E+02  0.51100000000E-03 0.  1.
         11   -1    0    0    0    0 -0.00000000000E+00 -0.00000000000E+00 -0.45593999997E+02  0.45594000000E+02  0.51100000000E-03 0. -1.
    9900012    2    1    2    0    0  0.14956743082E+02  0.16882318352E+02 -0.37079722904E+02  0.47787277803E+02  0.20000030815E+02 0.  0.
        -12    1    1    2    0    0 -0.14956743082E+02 -0.16882318352E+02  0.37079722904E+02  0.43400722197E+02  0.00000000000E+00 0.  1.
         11    1    3    3    0    0  0.34846122387E+01  0.16504266988E+01 -0.16275801198E+02  0.16726270823E+02  0.51100000000E-03 0. -1.
        -11    1    3    3    0    0  0.23000823002E+01  0.83893081026E+00  0.15791778145E+01  0.29134148903E+01  0.51100000000E-03 0.  1.
        -12    1    3    3    0    0  0.91720485431E+01  0.14392960843E+02 -0.22383099520E+02  0.28147592090E+02  0.00000000000E+00 0.  1.
</event>
<event>
 7    1  0.1427898E-010  0.4778727E+02  0.7816164E-02  0.1312668E+00
        -11   -1    0    0    0    0  0.00000000000E+00  0.00000000000E+00  0.45593999997E+02  0.45594000000E+02  0.51100000000E-03 0.  1.
         11   -1    0    0    0    0 -0.00000000000E+00 -0.00000000000E+00 -0.45593999997E+02  0.45594000000E+02  0.51100000000E-03 0. -1.
    9900012    2    1    2    0    0  0.16202525944E+02 -0.38630375725E+02 -0.11348813634E+02  0.47787270208E+02  0.19999996185E+02 0.  0.
        -12    1    1    2    0    0 -0.16202525944E+02  0.38630375725E+02  0.11348813634E+02  0.43400729792E+02  0.00000000000E+00 0.  1.
         11    1    3    3    0    0 -0.39890334209E-01 -0.54856396746E+00 -0.54940676069E+01  0.55215299325E+01  0.51100000000E-03 0. -1.
        -11    1    3    3    0    0  0.94395672039E+01 -0.14935112958E+02 -0.36347294966E+01  0.18038134240E+02  0.51100000000E-03 0.  1.
         12    1    3    3    0    0  0.68028490741E+01 -0.23146698799E+02 -0.22200165307E+01  0.24227606036E+02  0.00000000000E+00 0. -1.
</event>
<event>
 7    1  0.1427898E-010  0.4778726E+02  0.7816164E-02  0.1312668E+00
        -11   -1    0    0    0    0  0.00000000000E+00  0.00000000000E+00  0.45593999997E+02  0.45594000000E+02  0.51100000000E-03 0.  1.
         11   -1    0    0    0    0 -0.00000000000E+00 -0.00000000000E+00 -0.45593999997E+02  0.45594000000E+02  0.51100000000E-03 0. -1.
    9900012    2    1    2    0    0  0.40868623019E+02  0.14118809201E+02 -0.37468400898E+01  0.47787263470E+02  0.19999965463E+02 0.  0.
        -12    1    1    2    0    0 -0.40868623019E+02 -0.14118809201E+02  0.37468400898E+01  0.43400736530E+02  0.00000000000E+00 0.  1.
         11    1    3    3    0    0  0.20739226252E+01  0.52872673567E+01  0.14061968211E+01  0.58509606833E+01  0.51100000000E-03 0. -1.
        -11    1    3    3    0    0  0.40371237355E+01  0.20526492567E+01 -0.46914291046E+01  0.65208315675E+01  0.51100000000E-03 0.  1.
        -12    1    3    3    0    0  0.34757576658E+02  0.67788925877E+01 -0.46160780632E+00  0.35415471219E+02  0.00000000000E+00 0.  1.
</event>
<event>
 7    1  0.1427898E-010  0.4778727E+02  0.7816164E-02  0.1312668E+00
        -11   -1    0    0    0    0  0.00000000000E+00  0.00000000000E+00  0.45593999997E+02  0.45594000000E+02  0.51100000000E-03 0. -1.
         11   -1    0    0    0    0 -0.00000000000E+00 -0.00000000000E+00 -0.45593999997E+02  0.45594000000E+02  0.51100000000E-03 0.  1.
    9900012    2    1    2    0    0 -0.54782566154E+01  0.43020088124E+02 -0.16982609753E+01  0.47787269959E+02  0.19999995052E+02 0.  0.
        -12    1    1    2    0    0  0.54782566154E+01 -0.43020088124E+02  0.16982609753E+01  0.43400730041E+02  0.00000000000E+00 0.  1.
         11    1    3    3    0    0 -0.57150266152E+01  0.53688486964E+01 -0.51209602383E+01  0.93653777052E+01  0.51100000000E-03 0. -1.
        -11    1    3    3    0    0  0.10966323085E+01  0.83869291685E+01 -0.18897937959E+01  0.86668624167E+01  0.51100000000E-03 0.  1.
        -12    1    3    3    0    0 -0.85986230867E+00  0.29264310259E+02  0.53124930589E+01  0.29755029837E+02  0.00000000000E+00 0.  1.
</event>
<event>
 7    1  0.1427898E-010  0.4778727E+02  0.7816164E-02  0.1312668E+00
        -11   -1    0    0    0    0  0.00000000000E+00  0.00000000000E+00  0.45593999997E+02  0.45594000000E+02  0.51100000000E-03 0.  1.
         11   -1    0    0    0    0 -0.00000000000E+00 -0.00000000000E+00 -0.45593999997E+02  0.45594000000E+02  0.51100000000E-03 0. -1.
    9900012    2    1    2    0    0  0.17242801959E+01 -0.47333557431E+01 -0.43107369215E+02  0.47787273285E+02  0.20000010216E+02 0.  0.
        -12    1    1    2    0    0 -0.17242801959E+01  0.47333557431E+01  0.43107369215E+02  0.43400726715E+02  0.00000000000E+00 0.  1.
         11    1    3    3    0    0  0.10434196315E+01 -0.45167385485E+01 -0.36985180181E+01  0.59303193366E+01  0.51100000000E-03 0. -1.
        -11    1    3    3    0    0  0.49433117354E+01  0.13450866165E+01 -0.50296596256E+01  0.71793499099E+01  0.51100000000E-03 0.  1.
         12    1    3    3    0    0 -0.42624511709E+01 -0.15617038111E+01 -0.34379191571E+02  0.34677604039E+02  0.00000000000E+00 0. -1.
</event>
<event>
 7    1  0.1427898E-010  0.4778727E+02  0.7816164E-02  0.1312668E+00
        -11   -1    0    0    0    0  0.00000000000E+00  0.00000000000E+00  0.45593999997E+02  0.45594000000E+02  0.51100000000E-03 0. -1.
         11   -1    0    0    0    0 -0.00000000000E+00 -0.00000000000E+00 -0.45593999997E+02  0.45594000000E+02  0.51100000000E-03 0.  1.
    9900012    2    1    2    0    0  0.40288127218E+00  0.42392066333E+02  0.92937457395E+01  0.47787270615E+02  0.19999998041E+02 0.  0.
        -12    1    1    2    0    0 -0.40288127218E+00 -0.42392066333E+02 -0.92937457395E+01  0.43400729385E+02  0.00000000000E+00 0.  1.
         11    1    3    3    0    0  0.35791204007E+00  0.20768047327E+01 -0.17667708857E+01  0.27500360998E+01  0.51100000000E-03 0. -1.
        -11    1    3    3    0    0 -0.77179836537E+00 -0.64727674878E+00 -0.18279865761E+01  0.20871452010E+01  0.51100000000E-03 0.  1.
         12    1    3    3    0    0  0.81676759749E+00  0.40962538349E+02  0.12888503201E+02  0.42950089314E+02  0.00000000000E+00 0. -1.
</event>
<event>
 7    1  0.1427898E-010  0.4778727E+02  0.7816164E-02  0.1312668E+00
        -11   -1    0    0    0    0  0.00000000000E+00  0.00000000000E+00  0.45593999997E+02  0.45594000000E+02  0.51100000000E-03 0. -1.
         11   -1    0    0    0    0 -0.00000000000E+00 -0.00000000000E+00 -0.45593999997E+02  0.45594000000E+02  0.51100000000E-03 0.  1.
    9900012    2    1    2    0    0  0.28932796466E+02  0.55704758859E+01  0.31866694869E+02  0.47787272416E+02  0.20000006254E+02 0.  0.
        -12    1    1    2    0    0 -0.28932796466E+02 -0.55704758859E+01 -0.31866694869E+02  0.43400727584E+02  0.00000000000E+00 0.  1.
         11    1    3    3    0    0  0.11831255937E+02 -0.37376612647E+01  0.79246766620E+01  0.14722405688E+02  0.51100000000E-03 0. -1.
        -11    1    3    3    0    0  0.18377624339E+02  0.10346502926E+02  0.22822175458E+02  0.31074730763E+02  0.51100000000E-03 0.  1.
         12    1    3    3    0    0 -0.12760838103E+01 -0.10383657754E+01  0.11198427492E+01  0.19901359645E+01  0.00000000000E+00 0. -1.
</event>
<event>
 7    1  0.1427898E-010  0.4778727E+02  0.7816164E-02  0.1312668E+00
        -11   -1    0    0    0    0  0.00000000000E+00  0.00000000000E+00  0.45593999997E+02  0.45594000000E+02  0.51100000000E-03 0.  1.
         11   -1    0    0    0    0 -0.00000000000E+00 -0.00000000000E+00 -0.45593999997E+02  0.45594000000E+02  0.51100000000E-03 0. -1.
    9900012    2    1    2    0    0  0.40973145556E+02  0.21593768425E+01 -0.14147855641E+02  0.47787269771E+02  0.19999994196E+02 0.  0.
        -12    1    1    2    0    0 -0.40973145556E+02 -0.21593768425E+01  0.14147855641E+02  0.43400730229E+02  0.00000000000E+00 0.  1.
         11    1    3    3    0    0  0.31982069426E+02 -0.36533432782E+01 -0.12277529388E+02  0.34451958000E+02  0.51100000000E-03 0. -1.
        -11    1    3    3    0    0  0.69682318805E+01  0.11594017465E+01 -0.36588337613E+01  0.79553461712E+01  0.51100000000E-03 0.  1.
        -12    1    3    3    0    0  0.20228442497E+01  0.46533183741E+01  0.17885075088E+01  0.53799656001E+01  0.00000000000E+00 0.  1.
</event>
<event>
 7    1  0.1427898E-010  0.4778727E+02  0.7816164E-02  0.1312668E+00
        -11   -1    0    0    0    0  0.00000000000E+00  0.00000000000E+00  0.45593999997E+02  0.45594000000E+02  0.51100000000E-03 0.  1.
         11   -1    0    0    0    0 -0.00000000000E+00 -0.00000000000E+00 -0.45593999997E+02  0.45594000000E+02  0.51100000000E-03 0. -1.
    9900012    2    1    2    0    0 -0.37449227449E+02  0.10354769685E+02 -0.19337975794E+02  0.47787271901E+02  0.20000003904E+02 0.  0.
        -12    1    1    2    0    0  0.37449227449E+02 -0.10354769685E+02  0.19337975794E+02  0.43400728099E+02  0.00000000000E+00 0.  1.
         11    1    3    3    0    0 -0.14961313546E+02  0.30785014430E+01 -0.92787094477E+01  0.17872115808E+02  0.51100000000E-03 0. -1.
        -11    1    3    3    0    0 -0.30778307065E+01  0.64486477015E+01  0.15103632086E+01  0.73033756797E+01  0.51100000000E-03 0.  1.
        -12    1    3    3    0    0 -0.19410083196E+02  0.82762054096E+00 -0.11569629555E+02  0.22611780414E+02  0.00000000000E+00 0.  1.
</event>
<event>
 7    1  0.1427898E-010  0.4778727E+02  0.7816164E-02  0.1312668E+00
        -11   -1    0    0    0    0  0.00000000000E+00  0.00000000000E+00  0.45593999997E+02  0.45594000000E+02  0.51100000000E-03 0.  1.
         11   -1    0    0    0    0 -0.00000000000E+00 -0.00000000000E+00 -0.45593999997E+02  0.45594000000E+02  0.51100000000E-03 0. -1.
    9900012    2    1    2    0    0  0.12457331128E+02 -0.24166132399E+02  0.33829516945E+02  0.47787271081E+02  0.20000000167E+02 0.  0.
        -12    1    1    2    0    0 -0.12457331128E+02  0.24166132399E+02 -0.33829516945E+02  0.43400728919E+02  0.00000000000E+00 0.  1.
         11    1    3    3    0    0  0.13330914550E+02 -0.20018280672E+02  0.16223259799E+02  0.29011015193E+02  0.51100000000E-03 0. -1.
        -11    1    3    3    0    0 -0.62159503619E+00  0.14217975436E+00 -0.15722745153E-01  0.63784240796E+00  0.51100000000E-03 0.  1.
        -12    1    3    3    0    0 -0.25198838581E+00 -0.42900314817E+01  0.17621979892E+02  0.18138413480E+02  0.00000000000E+00 0.  1.
</event>
<event>
 7    1  0.1427898E-010  0.4778727E+02  0.7816164E-02  0.1312668E+00
        -11   -1    0    0    0    0  0.00000000000E+00  0.00000000000E+00  0.45593999997E+02  0.45594000000E+02  0.51100000000E-03 0.  1.
         11   -1    0    0    0    0 -0.00000000000E+00 -0.00000000000E+00 -0.45593999997E+02  0.45594000000E+02  0.51100000000E-03 0. -1.
    9900012    2    1    2    0    0 -0.31349887188E+02  0.29077231464E+02 -0.74379121127E+01  0.47787270134E+02  0.19999995850E+02 0.  0.
        -12    1    1    2    0    0  0.31349887188E+02 -0.29077231464E+02  0.74379121127E+01  0.43400729866E+02  0.00000000000E+00 0.  1.
         11    1    3    3    0    0 -0.19300232118E+02  0.13761054432E+02 -0.39586740890E+01  0.24031992836E+02  0.51100000000E-03 0. -1.
        -11    1    3    3    0    0 -0.31623053342E+01  0.18936728606E+00 -0.52395354276E+01  0.61228070976E+01  0.51100000000E-03 0.  1.
         12    1    3    3    0    0 -0.88873497354E+01  0.15126809746E+02  0.17602974039E+01  0.17632470200E+02  0.00000000000E+00 0. -1.
</event>
<event>
 7    1  0.1427898E-010  0.4778726E+02  0.7816164E-02  0.1312668E+00
        -11   -1    0    0    0    0  0.00000000000E+00  0.00000000000E+00  0.45593999997E+02  0.45594000000E+02  0.51100000000E-03 0.  1.
         11   -1    0    0    0    0 -0.00000000000E+00 -0.00000000000E+00 -0.45593999997E+02  0.45594000000E+02  0.51100000000E-03 0. -1.
    9900012    2    1    2    0    0 -0.67850038595E+01 -0.11113320044E+02 -0.41401469890E+02  0.47787264191E+02  0.19999968750E+02 0.  0.
        -12    1    1    2    0    0  0.67850038595E+01  0.11113320044E+02  0.41401469890E+02  0.43400735809E+02  0.00000000000E+00 0.  1.
         11    1    3    3    0    0  0.45160929615E+01 -0.11632589177E+01 -0.12310575955E+02  0.13164290621E+02  0.51100000000E-03 0.  1.
        -11    1    3    3    0    0 -0.81934412110E+00 -0.45116572861E+01 -0.17445564078E+02  0.18038128576E+02  0.51100000000E-03 0. -1.
         12    1    3    3    0    0 -0.10481752700E+02 -0.54384038403E+01 -0.11645329856E+02  0.16584844993E+02  0.00000000000E+00 0. -1.
</event>
<event>
 7    1  0.1427898E-010  0.4778727E+02  0.7816164E-02  0.1312668E+00
        -11   -1    0    0    0    0  0.00000000000E+00  0.00000000000E+00  0.45593999997E+02  0.45594000000E+02  0.51100000000E-03 0.  1.
         11   -1    0    0    0    0 -0.00000000000E+00 -0.00000000000E+00 -0.45593999997E+02  0.45594000000E+02  0.51100000000E-03 0. -1.
    9900012    2    1    2    0    0 -0.18410418312E+02  0.38387550508E+02 -0.84306698039E+01  0.47787265792E+02  0.19999976054E+02 0.  0.
        -12    1    1    2    0    0  0.18410418312E+02 -0.38387550508E+02  0.84306698039E+01  0.43400734208E+02  0.00000000000E+00 0.  1.
         11    1    3    3    0    0 -0.23526544930E+01  0.99238957922E+01  0.10297276472E+01  0.10250806317E+02  0.51100000000E-03 0. -1.
        -11    1    3    3    0    0 -0.17489150354E+02  0.16230031884E+02 -0.78318186494E+01  0.25112182277E+02  0.51100000000E-03 0.  1.
        -12    1    3    3    0    0  0.14313865356E+01  0.12233622831E+02 -0.16285788017E+01  0.12424277199E+02  0.00000000000E+00 0.  1.
</event>
<event>
 7    1  0.1427898E-010  0.4778726E+02  0.7816164E-02  0.1312668E+00
        -11   -1    0    0    0    0  0.00000000000E+00  0.00000000000E+00  0.45593999997E+02  0.45594000000E+02  0.51100000000E-03 0.  1.
         11   -1    0    0    0    0 -0.00000000000E+00 -0.00000000000E+00 -0.45593999997E+02  0.45594000000E+02  0.51100000000E-03 0. -1.
    9900012    2    1    2    0    0 -0.23150912522E+02  0.26424406495E+01 -0.36615256955E+02  0.47787259395E+02  0.19999946886E+02 0.  0.
        -12    1    1    2    0    0  0.23150912522E+02 -0.26424406495E+01  0.36615256955E+02  0.43400740605E+02  0.00000000000E+00 0.  1.
         11    1    3    3    0    0  0.17667975050E+00  0.12494647912E+01  0.53976690201E+00  0.13724891869E+01  0.51100000000E-03 0.  1.
        -11    1    3    3    0    0 -0.33336492423E+01 -0.16710934195E+01  0.40853123593E+00  0.37513555576E+01  0.51100000000E-03 0. -1.
         12    1    3    3    0    0 -0.19993943030E+02  0.30640692779E+01 -0.37563555093E+02  0.42663414651E+02  0.00000000000E+00 0. -1.
</event>
<event>
 7    1  0.1427898E-010  0.4778727E+02  0.7816164E-02  0.1312668E+00
        -11   -1    0    0    0    0  0.00000000000E+00  0.00000000000E+00  0.45593999997E+02  0.45594000000E+02  0.51100000000E-03 0. -1.
         11   -1    0    0    0    0 -0.00000000000E+00 -0.00000000000E+00 -0.45593999997E+02  0.45594000000E+02  0.51100000000E-03 0.  1.
    9900012    2    1    2    0    0 -0.89538757320E+01 -0.78355855944E+00  0.42459831793E+02  0.47787272235E+02  0.20000005428E+02 0.  0.
        -12    1    1    2    0    0  0.89538757320E+01  0.78355855944E+00 -0.42459831793E+02  0.43400727765E+02  0.00000000000E+00 0.  1.
         11    1    3    3    0    0 -0.28829824887E+01  0.40575670007E+01  0.13510050681E+02  0.14397809127E+02  0.51100000000E-03 0. -1.
        -11    1    3    3    0    0  0.44149972941E+01 -0.37238120585E+01  0.73044556160E+01  0.93120378791E+01  0.51100000000E-03 0.  1.
        -12    1    3    3    0    0 -0.10485890537E+02 -0.11173135017E+01  0.21645325496E+02  0.24077425229E+02  0.00000000000E+00 0.  1.
</event>
<event>
 7    1  0.1427898E-010  0.4778727E+02  0.7816164E-02  0.1312668E+00
        -11   -1    0    0    0    0  0.00000000000E+00  0.00000000000E+00  0.45593999997E+02  0.45594000000E+02  0.51100000000E-03 0. -1.
         11   -1    0    0    0    0 -0.00000000000E+00 -0.00000000000E+00 -0.45593999997E+02  0.45594000000E+02  0.51100000000E-03 0.  1.
    9900012    2    1    2    0    0 -0.35701584619E+02  0.24666327384E+02  0.76964633341E+00  0.47787271822E+02  0.20000003544E+02 0.  0.
        -12    1    1    2    0    0  0.35701584619E+02 -0.24666327384E+02 -0.76964633341E+00  0.43400728178E+02  0.00000000000E+00 0.  1.
         11    1    3    3    0    0 -0.67336798113E+01 -0.42722070758E-01 -0.10513374700E+01  0.68153928510E+01  0.51100000000E-03 0.  1.
        -11    1    3    3    0    0 -0.25673595397E+02  0.25559792298E+02 -0.14440036107E+01  0.36256332269E+02  0.51100000000E-03 0. -1.
         12    1    3    3    0    0 -0.32943094110E+01 -0.85074284347E+00  0.32649874141E+01  0.47155467016E+01  0.00000000000E+00 0. -1.
</event>
<event>
 7    1  0.1427898E-010  0.4778728E+02  0.7816164E-02  0.1312668E+00
        -11   -1    0    0    0    0  0.00000000000E+00  0.00000000000E+00  0.45593999997E+02  0.45594000000E+02  0.51100000000E-03 0.  1.
         11   -1    0    0    0    0 -0.00000000000E+00 -0.00000000000E+00 -0.45593999997E+02  0.45594000000E+02  0.51100000000E-03 0. -1.
    9900012    2    1    2    0    0 -0.21845413617E+02 -0.34270992209E+02 -0.15228260785E+02  0.47787275011E+02  0.20000018085E+02 0.  0.
        -12    1    1    2    0    0  0.21845413617E+02  0.34270992209E+02  0.15228260785E+02  0.43400724989E+02  0.00000000000E+00 0.  1.
         11    1    3    3    0    0 -0.67746711893E+01 -0.13410872905E+02 -0.61034225055E+01  0.16217257732E+02  0.51100000000E-03 0. -1.
        -11    1    3    3    0    0 -0.17715376402E+02 -0.21104917753E+02 -0.85727133481E+01  0.28857295937E+02  0.51100000000E-03 0.  1.
        -12    1    3    3    0    0  0.26446339740E+01  0.24479844962E+00 -0.55212493113E+00  0.27127213415E+01  0.00000000000E+00 0.  1.
</event>
<event>
 7    1  0.1427898E-010  0.4778727E+02  0.7816164E-02  0.1312668E+00
        -11   -1    0    0    0    0  0.00000000000E+00  0.00000000000E+00  0.45593999997E+02  0.45594000000E+02  0.51100000000E-03 0.  1.
         11   -1    0    0    0    0 -0.00000000000E+00 -0.00000000000E+00 -0.45593999997E+02  0.45594000000E+02  0.51100000000E-03 0. -1.
    9900012    2    1    2    0    0 -0.20103044166E+02 -0.17907620736E+02 -0.34041271123E+02  0.47787269536E+02  0.19999993122E+02 0.  0.
        -12    1    1    2    0    0  0.20103044166E+02  0.17907620736E+02  0.34041271123E+02  0.43400730464E+02  0.00000000000E+00 0.  1.
         11    1    3    3    0    0 -0.14461607417E+02 -0.14124251599E+02 -0.28139606929E+02  0.34647800084E+02  0.51100000000E-03 0. -1.
        -11    1    3    3    0    0 -0.32731249444E+01 -0.60732832535E+01 -0.68389595431E+01  0.97143957235E+01  0.51100000000E-03 0.  1.
        -12    1    3    3    0    0 -0.23683118050E+01  0.22899141173E+01  0.93729534912E+00  0.34250737280E+01  0.00000000000E+00 0.  1.
</event>
<event>
 7    1  0.1427898E-010  0.4778727E+02  0.7816164E-02  0.1312668E+00
        -11   -1    0    0    0    0  0.00000000000E+00  0.00000000000E+00  0.45593999997E+02  0.45594000000E+02  0.51100000000E-03 0.  1.
         11   -1    0    0    0    0 -0.00000000000E+00 -0.00000000000E+00 -0.45593999997E+02  0.45594000000E+02  0.51100000000E-03 0. -1.
    9900012    2    1    2    0    0  0.37307526949E+02  0.73172167619E+01 -0.20933945058E+02  0.47787270929E+02  0.19999999474E+02 0.  0.
        -12    1    1    2    0    0 -0.37307526949E+02 -0.73172167619E+01  0.20933945058E+02  0.43400729071E+02  0.00000000000E+00 0.  1.
         11    1    3    3    0    0  0.32448270515E+02  0.10604858862E+02 -0.14687421598E+02  0.37162799200E+02  0.51100000000E-03 0. -1.
        -11    1    3    3    0    0  0.62436656370E+01 -0.29154548880E+01 -0.40239843231E+01  0.79797047492E+01  0.51100000000E-03 0.  1.
        -12    1    3    3    0    0 -0.13844092033E+01 -0.37218721192E+00 -0.22225391372E+01  0.26447669802E+01  0.00000000000E+00 0.  1.
</event>
<event>
 7    1  0.1427898E-010  0.4778727E+02  0.7816164E-02  0.1312668E+00
        -11   -1    0    0    0    0  0.00000000000E+00  0.00000000000E+00  0.45593999997E+02  0.45594000000E+02  0.51100000000E-03 0.  1.
         11   -1    0    0    0    0 -0.00000000000E+00 -0.00000000000E+00 -0.45593999997E+02  0.45594000000E+02  0.51100000000E-03 0. -1.
    9900012    2    1    2    0    0  0.24632284331E+02  0.30403098417E+02 -0.18775661192E+02  0.47787270998E+02  0.19999999789E+02 0.  0.
        -12    1    1    2    0    0 -0.24632284331E+02 -0.30403098417E+02  0.18775661192E+02  0.43400729002E+02  0.00000000000E+00 0.  1.
         11    1    3    3    0    0  0.13937878394E+02  0.16942710434E+02 -0.14783497382E+02  0.26455088095E+02  0.51100000000E-03 0. -1.
        -11    1    3    3    0    0  0.62969999706E+01  0.14293012470E+02 -0.45103598363E+00  0.15625167130E+02  0.51100000000E-03 0.  1.
         12    1    3    3    0    0  0.43974059659E+01 -0.83262448714E+00 -0.35411278256E+01  0.57070157738E+01  0.00000000000E+00 0. -1.
</event>
<event>
 7    1  0.1427898E-010  0.4778727E+02  0.7816164E-02  0.1312668E+00
        -11   -1    0    0    0    0  0.00000000000E+00  0.00000000000E+00  0.45593999997E+02  0.45594000000E+02  0.51100000000E-03 0.  1.
         11   -1    0    0    0    0 -0.00000000000E+00 -0.00000000000E+00 -0.45593999997E+02  0.45594000000E+02  0.51100000000E-03 0. -1.
    9900012    2    1    2    0    0  0.63740378838E+01  0.35949246593E+02 -0.23465859170E+02  0.47787271479E+02  0.20000001983E+02 0.  0.
        -12    1    1    2    0    0 -0.63740378838E+01 -0.35949246593E+02  0.23465859170E+02  0.43400728521E+02  0.00000000000E+00 0.  1.
         11    1    3    3    0    0 -0.66815620873E+00  0.81393531177E+01 -0.10066895136E+02  0.12962942561E+02  0.51100000000E-03 0. -1.
        -11    1    3    3    0    0  0.88937271033E+01  0.27857793459E+02 -0.99141919457E+01  0.30877924807E+02  0.51100000000E-03 0.  1.
        -12    1    3    3    0    0 -0.18515330108E+01 -0.47899984573E-01 -0.34847720888E+01  0.39464041112E+01  0.00000000000E+00 0.  1.
</event>
<event>
 7    1  0.1427898E-010  0.4778727E+02  0.7816164E-02  0.1312668E+00
        -11   -1    0    0    0    0  0.00000000000E+00  0.00000000000E+00  0.45593999997E+02  0.45594000000E+02  0.51100000000E-03 0. -1.
         11   -1    0    0    0    0 -0.00000000000E+00 -0.00000000000E+00 -0.45593999997E+02  0.45594000000E+02  0.51100000000E-03 0.  1.
    9900012    2    1    2    0    0  0.29247774774E+02 -0.32036162717E+02 -0.13692624724E+01  0.47787275000E+02  0.20000018033E+02 0.  0.
        -12    1    1    2    0    0 -0.29247774774E+02  0.32036162717E+02  0.13692624724E+01  0.43400725000E+02  0.00000000000E+00 0.  1.
         11    1    3    3    0    0  0.15081385552E+02 -0.14039582705E+02  0.46191929300E+01  0.21116226374E+02  0.51100000000E-03 0. -1.
        -11    1    3    3    0    0  0.15979457990E+02 -0.16799732037E+02 -0.36361825149E+01  0.23469041260E+02  0.51100000000E-03 0.  1.
        -12    1    3    3    0    0 -0.18130687674E+01 -0.11968479754E+01 -0.23522728875E+01  0.32020073655E+01  0.00000000000E+00 0.  1.
</event>
<event>
 7    1  0.1427898E-010  0.4778727E+02  0.7816164E-02  0.1312668E+00
        -11   -1    0    0    0    0  0.00000000000E+00  0.00000000000E+00  0.45593999997E+02  0.45594000000E+02  0.51100000000E-03 0.  1.
         11   -1    0    0    0    0 -0.00000000000E+00 -0.00000000000E+00 -0.45593999997E+02  0.45594000000E+02  0.51100000000E-03 0. -1.
    9900012    2    1    2    0    0  0.18330337303E+02  0.23916793410E+02 -0.31234741782E+02  0.47787269973E+02  0.19999995117E+02 0.  0.
        -12    1    1    2    0    0 -0.18330337303E+02 -0.23916793410E+02  0.31234741782E+02  0.43400730027E+02  0.00000000000E+00 0.  1.
         11    1    3    3    0    0  0.17313641083E+02  0.12034015039E+02 -0.19280384316E+02  0.28571190124E+02  0.51100000000E-03 0. -1.
        -11    1    3    3    0    0 -0.10092629413E+00  0.65244373298E-01  0.13676383484E+01  0.13729085397E+01  0.51100000000E-03 0.  1.
        -12    1    3    3    0    0  0.11176225137E+01  0.11817533998E+02 -0.13321995815E+02  0.17843171309E+02  0.00000000000E+00 0.  1.
</event>
<event>
 7    1  0.1427898E-010  0.4778727E+02  0.7816164E-02  0.1312668E+00
        -11   -1    0    0    0    0  0.00000000000E+00  0.00000000000E+00  0.45593999997E+02  0.45594000000E+02  0.51100000000E-03 0.  1.
         11   -1    0    0    0    0 -0.00000000000E+00 -0.00000000000E+00 -0.45593999997E+02  0.45594000000E+02  0.51100000000E-03 0. -1.
    9900012    2    1    2    0    0 -0.20129705409E+02  0.24177363814E+02 -0.29897713654E+02  0.47787271405E+02  0.20000001643E+02 0.  0.
        -12    1    1    2    0    0  0.20129705409E+02 -0.24177363814E+02  0.29897713654E+02  0.43400728595E+02  0.00000000000E+00 0.  1.
         11    1    3    3    0    0 -0.10525661312E+02  0.83208255048E+01 -0.20209469835E+02  0.24257954457E+02  0.51100000000E-03 0. -1.
        -11    1    3    3    0    0 -0.49793646771E+01  0.44628997094E+01 -0.90020162775E+01  0.11213734602E+02  0.51100000000E-03 0.  1.
        -12    1    3    3    0    0 -0.46246794207E+01  0.11393638600E+02 -0.68622754104E+00  0.12315582346E+02  0.00000000000E+00 0.  1.
</event>
<event>
 7    1  0.1427898E-010  0.4778727E+02  0.7816164E-02  0.1312668E+00
        -11   -1    0    0    0    0  0.00000000000E+00  0.00000000000E+00  0.45593999997E+02  0.45594000000E+02  0.51100000000E-03 0. -1.
         11   -1    0    0    0    0 -0.00000000000E+00 -0.00000000000E+00 -0.45593999997E+02  0.45594000000E+02  0.51100000000E-03 0.  1.
    9900012    2    1    2    0    0  0.18217728257E+02 -0.24189842307E+02  0.31090011953E+02  0.47787274926E+02  0.20000017697E+02 0.  0.
        -12    1    1    2    0    0 -0.18217728257E+02  0.24189842307E+02 -0.31090011953E+02  0.43400725074E+02  0.00000000000E+00 0.  1.
         11    1    3    3    0    0 -0.34727530120E+01 -0.21951941504E+01  0.15924497413E+01  0.44062214289E+01  0.51100000000E-03 0. -1.
        -11    1    3    3    0    0  0.81215100321E+01 -0.12687029872E+02  0.11187148508E+02  0.18763580260E+02  0.51100000000E-03 0.  1.
         12    1    3    3    0    0  0.13568971237E+02 -0.93076182847E+01  0.18310413704E+02  0.24617473237E+02  0.00000000000E+00 0. -1.
</event>
<event>
 7    1  0.1427898E-010  0.4778727E+02  0.7816164E-02  0.1312668E+00
        -11   -1    0    0    0    0  0.00000000000E+00  0.00000000000E+00  0.45593999997E+02  0.45594000000E+02  0.51100000000E-03 0. -1.
         11   -1    0    0    0    0 -0.00000000000E+00 -0.00000000000E+00 -0.45593999997E+02  0.45594000000E+02  0.51100000000E-03 0.  1.
    9900012    2    1    2    0    0  0.41216224930E+02  0.11527846451E+02  0.72079527936E+01  0.47787273915E+02  0.20000013086E+02 0.  0.
        -12    1    1    2    0    0 -0.41216224930E+02 -0.11527846451E+02 -0.72079527936E+01  0.43400726085E+02  0.00000000000E+00 0.  1.
         11    1    3    3    0    0 -0.88431105956E+00 -0.14337112514E+01 -0.15782507180E+00  0.16918755914E+01  0.51100000000E-03 0. -1.
        -11    1    3    3    0    0  0.21225504767E+02  0.68153351803E+01 -0.20453800176E+01  0.22386478641E+02  0.51100000000E-03 0.  1.
         12    1    3    3    0    0  0.20875031222E+02  0.61462225221E+01  0.94111578830E+01  0.23708919683E+02  0.00000000000E+00 0. -1.
</event>
<event>
 7    1  0.1427898E-010  0.4778728E+02  0.7816164E-02  0.1312668E+00
        -11   -1    0    0    0    0  0.00000000000E+00  0.00000000000E+00  0.45593999997E+02  0.45594000000E+02  0.51100000000E-03 0.  1.
         11   -1    0    0    0    0 -0.00000000000E+00 -0.00000000000E+00 -0.45593999997E+02  0.45594000000E+02  0.51100000000E-03 0. -1.
    9900012    2    1    2    0    0 -0.21966082565E+02 -0.37293765683E+02 -0.32075662161E+01  0.47787283150E+02  0.20000055196E+02 0.  0.
        -12    1    1    2    0    0  0.21966082565E+02  0.37293765683E+02  0.32075662161E+01  0.43400716850E+02  0.00000000000E+00 0.  1.
         11    1    3    3    0    0  0.49929274422E+00 -0.37071674129E+00 -0.17370348362E+01  0.18449971355E+01  0.51100000000E-03 0. -1.
        -11    1    3    3    0    0 -0.10191649567E+02 -0.45392936630E+01 -0.18463999802E+01  0.11308585278E+02  0.51100000000E-03 0.  1.
         12    1    3    3    0    0 -0.12273725742E+02 -0.32383755278E+02  0.37586860033E+00  0.34633700737E+02  0.00000000000E+00 0. -1.
</event>
<event>
 7    1  0.1427898E-010  0.4778725E+02  0.7816164E-02  0.1312668E+00
        -11   -1    0    0    0    0  0.00000000000E+00  0.00000000000E+00  0.45593999997E+02  0.45594000000E+02  0.51100000000E-03 0.  1.
         11   -1    0    0    0    0 -0.00000000000E+00 -0.00000000000E+00 -0.45593999997E+02  0.45594000000E+02  0.51100000000E-03 0. -1.
    9900012    2    1    2    0    0  0.21397973234E+02  0.15727632342E+02 -0.34327735729E+02  0.47787249800E+02  0.19999903139E+02 0.  0.
        -12    1    1    2    0    0 -0.21397973234E+02 -0.15727632342E+02  0.34327735729E+02  0.43400750200E+02  0.00000000000E+00 0.  1.
         11    1    3    3    0    0  0.53649070608E+01  0.47803902019E+00 -0.13286750919E+02  0.14336962695E+02  0.51100000000E-03 0. -1.
        -11    1    3    3    0    0  0.13923193525E+01  0.10469005290E+02 -0.94895340513E+01  0.14198235162E+02  0.51100000000E-03 0.  1.
         12    1    3    3    0    0  0.14640746820E+02  0.47805880324E+01 -0.11551450759E+02  0.19252051944E+02  0.00000000000E+00 0. -1.
</event>
<event>
 7    1  0.1427898E-010  0.4778725E+02  0.7816164E-02  0.1312668E+00
        -11   -1    0    0    0    0  0.00000000000E+00  0.00000000000E+00  0.45593999997E+02  0.45594000000E+02  0.51100000000E-03 0.  1.
         11   -1    0    0    0    0 -0.00000000000E+00 -0.00000000000E+00 -0.45593999997E+02  0.45594000000E+02  0.51100000000E-03 0. -1.
    9900012    2    1    2    0    0  0.21872277011E+02 -0.37155797457E+02 -0.49674513056E+01  0.47787247025E+02  0.19999890487E+02 0.  0.
        -12    1    1    2    0    0 -0.21872277011E+02  0.37155797457E+02  0.49674513056E+01  0.43400752975E+02  0.00000000000E+00 0.  1.
         11    1    3    3    0    0  0.89092836054E+01 -0.10482403792E+02 -0.42197821187E+01  0.14389672860E+02  0.51100000000E-03 0. -1.
        -11    1    3    3    0    0 -0.33897986328E+01 -0.71167607093E+01 -0.58333574172E+00  0.79043847714E+01  0.51100000000E-03 0.  1.
        -12    1    3    3    0    0  0.16352792039E+02 -0.19556632955E+02 -0.16433344521E+00  0.25493189394E+02  0.00000000000E+00 0.  1.
</event>
<event>
 7    1  0.1427898E-010  0.4778730E+02  0.7816164E-02  0.1312668E+00
        -11   -1    0    0    0    0  0.00000000000E+00  0.00000000000E+00  0.45593999997E+02  0.45594000000E+02  0.51100000000E-03 0.  1.
         11   -1    0    0    0    0 -0.00000000000E+00 -0.00000000000E+00 -0.45593999997E+02  0.45594000000E+02  0.51100000000E-03 0. -1.
    9900012    2    1    2    0    0  0.48437681420E+01  0.25930229483E+02 -0.34464215482E+02  0.47787296784E+02  0.20000117358E+02 0.  0.
        -12    1    1    2    0    0 -0.48437681420E+01 -0.25930229483E+02  0.34464215482E+02  0.43400703216E+02  0.00000000000E+00 0.  1.
         11    1    3    3    0    0 -0.88175274470E+00  0.22051145236E+02 -0.23713363763E+02  0.32393735742E+02  0.51100000000E-03 0. -1.
        -11    1    3    3    0    0  0.13149631876E+01  0.15909763882E+01 -0.10185753798E+02  0.10392781858E+02  0.51100000000E-03 0.  1.
        -12    1    3    3    0    0  0.44105576991E+01  0.22881078583E+01 -0.56509792100E+00  0.50007791841E+01  0.00000000000E+00 0.  1.
</event>
<event>
 7    1  0.1427898E-010  0.4778727E+02  0.7816164E-02  0.1312668E+00
        -11   -1    0    0    0    0  0.00000000000E+00  0.00000000000E+00  0.45593999997E+02  0.45594000000E+02  0.51100000000E-03 0.  1.
         11   -1    0    0    0    0 -0.00000000000E+00 -0.00000000000E+00 -0.45593999997E+02  0.45594000000E+02  0.51100000000E-03 0. -1.
    9900012    2    1    2    0    0 -0.16144308488E+02  0.24004832090E+02 -0.32353556165E+02  0.47787271241E+02  0.20000000897E+02 0.  0.
        -12    1    1    2    0    0  0.16144308488E+02 -0.24004832090E+02  0.32353556165E+02  0.43400728759E+02  0.00000000000E+00 0.  1.
         11    1    3    3    0    0 -0.34317110176E+01  0.43148672155E+01  0.29290536138E+00  0.55209159935E+01  0.51100000000E-03 0. -1.
        -11    1    3    3    0    0 -0.93665769639E+01  0.41868559067E+01 -0.17781323684E+02  0.20528955128E+02  0.51100000000E-03 0.  1.
         12    1    3    3    0    0 -0.33460205069E+01  0.15503108968E+02 -0.14865137842E+02  0.21737400120E+02  0.00000000000E+00 0. -1.
</event>
<event>
 7    1  0.1553659E-010  0.4778726E+02  0.7816164E-02  0.1312668E+00
        -11   -1    0    0    0    0  0.00000000000E+00  0.00000000000E+00  0.45593999997E+02  0.45594000000E+02  0.51100000000E-03 0.  1.
         11   -1    0    0    0    0 -0.00000000000E+00 -0.00000000000E+00 -0.45593999997E+02  0.45594000000E+02  0.51100000000E-03 0. -1.
    9900012    2    1    2    0    0 -0.39620694968E+02 -0.14592529989E+02  0.10044032765E+02  0.47787262732E+02  0.19999962100E+02 0.  0.
        -12    1    1    2    0    0  0.39620694968E+02  0.14592529989E+02 -0.10044032765E+02  0.43400737268E+02  0.00000000000E+00 0.  1.
         11    1    3    3    0    0 -0.25952460291E+02 -0.40382867751E+01  0.69528515223E+01  0.27169469994E+02  0.51100000000E-03 0. -1.
        -11    1    3    3    0    0  0.45474589233E+00  0.16084620057E+01 -0.22530702699E+00  0.16866260309E+01  0.51100000000E-03 0.  1.
         12    1    3    3    0    0 -0.14122980570E+02 -0.12162705220E+02  0.33164882697E+01  0.18931166707E+02  0.00000000000E+00 0. -1.
</event>
<event>
 7    1  0.1427898E-010  0.4778727E+02  0.7816164E-02  0.1312668E+00
        -11   -1    0    0    0    0  0.00000000000E+00  0.00000000000E+00  0.45593999997E+02  0.45594000000E+02  0.51100000000E-03 0.  1.
         11   -1    0    0    0    0 -0.00000000000E+00 -0.00000000000E+00 -0.45593999997E+02  0.45594000000E+02  0.51100000000E-03 0. -1.
    9900012    2    1    2    0    0  0.31080027140E+02  0.29594639679E+02 -0.64662538304E+01  0.47787271627E+02  0.20000002655E+02 0.  0.
        -12    1    1    2    0    0 -0.31080027140E+02 -0.29594639679E+02  0.64662538304E+01  0.43400728373E+02  0.00000000000E+00 0.  1.
         11    1    3    3    0    0  0.22275750484E+02  0.22403895693E+02 -0.53148737885E+01  0.32037345169E+02  0.51100000000E-03 0. -1.
        -11    1    3    3    0    0 -0.52920529694E+00  0.40670582555E+01 -0.37639989593E+01  0.55667503560E+01  0.51100000000E-03 0.  1.
        -12    1    3    3    0    0  0.93334819531E+01  0.31236857301E+01  0.26126189174E+01  0.10183176102E+02  0.00000000000E+00 0.  1.
</event>
<event>
 7    1  0.1427898E-010  0.4778728E+02  0.7816164E-02  0.1312668E+00
        -11   -1    0    0    0    0  0.00000000000E+00  0.00000000000E+00  0.45593999997E+02  0.45594000000E+02  0.51100000000E-03 0.  1.
         11   -1    0    0    0    0 -0.00000000000E+00 -0.00000000000E+00 -0.45593999997E+02  0.45594000000E+02  0.51100000000E-03 0. -1.
    9900012    2    1    2    0    0  0.41331864792E+02 -0.12915925376E+02  0.29117264908E+01  0.47787281957E+02  0.20000049755E+02 0.  0.
        -12    1    1    2    0    0 -0.41331864792E+02  0.12915925376E+02 -0.29117264908E+01  0.43400718043E+02  0.00000000000E+00 0.  1.
         11    1    3    3    0    0  0.68519826708E+01 -0.10889922990E+00  0.12892635451E+01  0.69730715121E+01  0.51100000000E-03 0. -1.
        -11    1    3    3    0    0  0.22627207216E+02 -0.49735561011E+01 -0.69916698208E+01  0.24199384575E+02  0.51100000000E-03 0.  1.
         12    1    3    3    0    0  0.11852674905E+02 -0.78334700454E+01  0.86141327665E+01  0.16614825870E+02  0.00000000000E+00 0. -1.
</event>
<event>
 7    1  0.1427898E-010  0.4778727E+02  0.7816164E-02  0.1312668E+00
        -11   -1    0    0    0    0  0.00000000000E+00  0.00000000000E+00  0.45593999997E+02  0.45594000000E+02  0.51100000000E-03 0.  1.
         11   -1    0    0    0    0 -0.00000000000E+00 -0.00000000000E+00 -0.45593999997E+02  0.45594000000E+02  0.51100000000E-03 0. -1.
    9900012    2    1    2    0    0  0.21433099659E+02 -0.33981124171E+01 -0.37585878109E+02  0.47787272331E+02  0.20000005865E+02 0.  0.
        -12    1    1    2    0    0 -0.21433099659E+02  0.33981124171E+01  0.37585878109E+02  0.43400727669E+02  0.00000000000E+00 0.  1.
         11    1    3    3    0    0  0.49532002638E+01 -0.48337914265E+01 -0.19932166865E+02  0.21099549962E+02  0.51100000000E-03 0. -1.
        -11    1    3    3    0    0  0.17075082830E+01  0.44900465611E+01 -0.56033652420E+01  0.73806371645E+01  0.51100000000E-03 0.  1.
        -12    1    3    3    0    0  0.14772391112E+02 -0.30543675517E+01 -0.12050346002E+02  0.19307085204E+02  0.00000000000E+00 0.  1.
</event>
<event>
 7    1  0.1427898E-010  0.4778726E+02  0.7816164E-02  0.1312668E+00
        -11   -1    0    0    0    0  0.00000000000E+00  0.00000000000E+00  0.45593999997E+02  0.45594000000E+02  0.51100000000E-03 0.  1.
         11   -1    0    0    0    0 -0.00000000000E+00 -0.00000000000E+00 -0.45593999997E+02  0.45594000000E+02  0.51100000000E-03 0. -1.
    9900012    2    1    2    0    0 -0.21004225426E+01 -0.39981919233E+02 -0.16752870113E+02  0.47787259252E+02  0.19999946234E+02 0.  0.
        -12    1    1    2    0    0  0.21004225426E+01  0.39981919233E+02  0.16752870113E+02  0.43400740748E+02  0.00000000000E+00 0.  1.
         11    1    3    3    0    0 -0.57440112615E+01 -0.26459698590E+02 -0.21190173732E+01  0.27158784025E+02  0.51100000000E-03 0. -1.
        -11    1    3    3    0    0  0.11471524496E+01 -0.10179978048E+01 -0.29925344117E+01  0.33626686931E+01  0.51100000000E-03 0.  1.
         12    1    3    3    0    0  0.24964362692E+01 -0.12504222839E+02 -0.11641318328E+02  0.17265806534E+02  0.00000000000E+00 0. -1.
</event>
<event>
 7    1  0.1427898E-010  0.4778728E+02  0.7816164E-02  0.1312668E+00
        -11   -1    0    0    0    0  0.00000000000E+00  0.00000000000E+00  0.45593999997E+02  0.45594000000E+02  0.51100000000E-03 0. -1.
         11   -1    0    0    0    0 -0.00000000000E+00 -0.00000000000E+00 -0.45593999997E+02  0.45594000000E+02  0.51100000000E-03 0.  1.
    9900012    2    1    2    0    0 -0.71773367829E+00 -0.26912610850E+02  0.34041431060E+02  0.47787276584E+02  0.20000025258E+02 0.  0.
        -12    1    1    2    0    0  0.71773367829E+00  0.26912610850E+02 -0.34041431060E+02  0.43400723416E+02  0.00000000000E+00 0.  1.
         11    1    3    3    0    0  0.54517293189E+01 -0.15881700406E+02  0.20469353484E+02  0.26475350662E+02  0.51100000000E-03 0. -1.
        -11    1    3    3    0    0  0.38064831745E+00  0.29521773527E+00 -0.13693622439E+01  0.14516197398E+01  0.51100000000E-03 0.  1.
         12    1    3    3    0    0 -0.65501113147E+01 -0.11326128179E+02  0.14941439820E+02  0.19860306183E+02  0.00000000000E+00 0. -1.
</event>
<event>
 7    1  0.1427898E-010  0.4778727E+02  0.7816164E-02  0.1312668E+00
        -11   -1    0    0    0    0  0.00000000000E+00  0.00000000000E+00  0.45593999997E+02  0.45594000000E+02  0.51100000000E-03 0.  1.
         11   -1    0    0    0    0 -0.00000000000E+00 -0.00000000000E+00 -0.45593999997E+02  0.45594000000E+02  0.51100000000E-03 0. -1.
    9900012    2    1    2    0    0 -0.15737282857E+02 -0.38301198461E+02  0.12999215041E+02  0.47787268820E+02  0.19999989859E+02 0.  0.
        -12    1    1    2    0    0  0.15737282857E+02  0.38301198461E+02 -0.12999215041E+02  0.43400731180E+02  0.00000000000E+00 0.  1.
         11    1    3    3    0    0 -0.29144864167E+01 -0.10323682124E+01 -0.19036089965E+01  0.36309423945E+01  0.51100000000E-03 0. -1.
        -11    1    3    3    0    0 -0.18315263674E+00  0.68451273890E+00 -0.89987533205E+00  0.11453726260E+01  0.51100000000E-03 0.  1.
        -12    1    3    3    0    0 -0.12639643804E+02 -0.37953342987E+02  0.15802699370E+02  0.43010953800E+02  0.00000000000E+00 0.  1.
</event>
<event>
 7    1  0.1427898E-010  0.4778724E+02  0.7816164E-02  0.1312668E+00
        -11   -1    0    0    0    0  0.00000000000E+00  0.00000000000E+00  0.45593999997E+02  0.45594000000E+02  0.51100000000E-03 0.  1.
         11   -1    0    0    0    0 -0.00000000000E+00 -0.00000000000E+00 -0.45593999997E+02  0.45594000000E+02  0.51100000000E-03 0. -1.
    9900012    2    1    2    0    0 -0.45544316405E+01 -0.31807952137E+02 -0.29174255566E+02  0.47787241313E+02  0.19999864444E+02 0.  0.
        -12    1    1    2    0    0  0.45544316405E+01  0.31807952137E+02  0.29174255566E+02  0.43400758687E+02  0.00000000000E+00 0.  1.
         11    1    3    3    0    0 -0.13944942453E+01 -0.11960724861E+01 -0.53468668495E+01  0.56536880847E+01  0.51100000000E-03 0. -1.
        -11    1    3    3    0    0 -0.23709652454E+01 -0.32554595021E+02 -0.22125543055E+02  0.39433016483E+02  0.51100000000E-03 0.  1.
        -12    1    3    3    0    0 -0.78897214978E+00  0.19427153697E+01 -0.17018456617E+01  0.27005367461E+01  0.00000000000E+00 0.  1.
</event>
<event>
 7    1  0.1427898E-010  0.4778730E+02  0.7816164E-02  0.1312668E+00
        -11   -1    0    0    0    0  0.00000000000E+00  0.00000000000E+00  0.45593999997E+02  0.45594000000E+02  0.51100000000E-03 0.  1.
         11   -1    0    0    0    0 -0.00000000000E+00 -0.00000000000E+00 -0.45593999997E+02  0.45594000000E+02  0.51100000000E-03 0. -1.
    9900012    2    1    2    0    0 -0.11838609611E+02  0.15566447147E+01 -0.41725833148E+02  0.47787297561E+02  0.20000120899E+02 0.  0.
        -12    1    1    2    0    0  0.11838609611E+02 -0.15566447147E+01  0.41725833148E+02  0.43400702439E+02  0.00000000000E+00 0.  1.
         11    1    3    3    0    0 -0.54682119042E+01 -0.35950296099E+01 -0.11759992859E+02  0.13458194962E+02  0.51100000000E-03 0. -1.
        -11    1    3    3    0    0 -0.61275571468E+01  0.83139286297E+01 -0.10956491520E+02  0.15056994140E+02  0.51100000000E-03 0.  1.
         12    1    3    3    0    0 -0.24284056023E+00 -0.31622543050E+01 -0.19009348768E+02  0.19272108458E+02  0.00000000000E+00 0. -1.
</event>
<event>
 7    1  0.1427898E-010  0.4778726E+02  0.7816164E-02  0.1312668E+00
        -11   -1    0    0    0    0  0.00000000000E+00  0.00000000000E+00  0.45593999997E+02  0.45594000000E+02  0.51100000000E-03 0.  1.
         11   -1    0    0    0    0 -0.00000000000E+00 -0.00000000000E+00 -0.45593999997E+02  0.45594000000E+02  0.51100000000E-03 0. -1.
    9900012    2    1    2    0    0 -0.33214349888E+02  0.11017300349E+02 -0.25671974792E+02  0.47787259970E+02  0.19999949507E+02 0.  0.
        -12    1    1    2    0    0  0.33214349888E+02 -0.11017300349E+02  0.25671974792E+02  0.43400740030E+02  0.00000000000E+00 0.  1.
         11    1    3    3    0    0 -0.28403161192E+02  0.74390099928E+01 -0.26186669113E+02  0.39342344552E+02  0.51100000000E-03 0. -1.
        -11    1    3    3    0    0 -0.49770227106E+01  0.48232745769E+01 -0.31795830105E+00  0.69379990234E+01  0.51100000000E-03 0.  1.
        -12    1    3    3    0    0  0.16583401531E+00 -0.12449842205E+01  0.83265262210E+00  0.15069163942E+01  0.00000000000E+00 0.  1.
</event>
<event>
 7    1  0.1427898E-010  0.4778727E+02  0.7816164E-02  0.1312668E+00
        -11   -1    0    0    0    0  0.00000000000E+00  0.00000000000E+00  0.45593999997E+02  0.45594000000E+02  0.51100000000E-03 0.  1.
         11   -1    0    0    0    0 -0.00000000000E+00 -0.00000000000E+00 -0.45593999997E+02  0.45594000000E+02  0.51100000000E-03 0. -1.
    9900012    2    1    2    0    0 -0.85158145326E+01 -0.35151301665E+02 -0.23989371326E+02  0.47787273710E+02  0.20000012152E+02 0.  0.
        -12    1    1    2    0    0  0.85158145326E+01  0.35151301665E+02  0.23989371326E+02  0.43400726290E+02  0.00000000000E+00 0.  1.
         11    1    3    3    0    0 -0.60399633394E+01 -0.15142670644E+02 -0.12240570317E+02  0.20386593470E+02  0.51100000000E-03 0. -1.
        -11    1    3    3    0    0 -0.53091875415E+01 -0.19660333326E+01  0.41932572716E-01  0.56616709563E+01  0.51100000000E-03 0.  1.
         12    1    3    3    0    0  0.28333363484E+01 -0.18042597688E+02 -0.11790733582E+02  0.21739009283E+02  0.00000000000E+00 0. -1.
</event>
<event>
 7    1  0.1427898E-010  0.4778727E+02  0.7816164E-02  0.1312668E+00
        -11   -1    0    0    0    0  0.00000000000E+00  0.00000000000E+00  0.45593999997E+02  0.45594000000E+02  0.51100000000E-03 0.  1.
         11   -1    0    0    0    0 -0.00000000000E+00 -0.00000000000E+00 -0.45593999997E+02  0.45594000000E+02  0.51100000000E-03 0. -1.
    9900012    2    1    2    0    0 -0.58934688926E+01  0.39172087673E+02  0.17732391470E+02  0.47787272639E+02  0.20000007270E+02 0.  0.
        -12    1    1    2    0    0  0.58934688926E+01 -0.39172087673E+02 -0.17732391470E+02  0.43400727361E+02  0.00000000000E+00 0.  1.
         11    1    3    3    0    0 -0.70030231643E+00 -0.56041732070E+00 -0.14459218454E+01  0.17015231858E+01  0.51100000000E-03 0.  1.
        -11    1    3    3    0    0  0.21801508595E+00  0.13251757770E+02  0.12559436753E+02  0.18259136518E+02  0.51100000000E-03 0. -1.
         12    1    3    3    0    0 -0.54111816621E+01  0.26480747223E+02  0.66188765619E+01  0.27826612935E+02  0.00000000000E+00 0. -1.
</event>
<event>
 7    1  0.1427898E-010  0.4778725E+02  0.7816164E-02  0.1312668E+00
        -11   -1    0    0    0    0  0.00000000000E+00  0.00000000000E+00  0.45593999997E+02  0.45594000000E+02  0.51100000000E-03 0.  1.
         11   -1    0    0    0    0 -0.00000000000E+00 -0.00000000000E+00 -0.45593999997E+02  0.45594000000E+02  0.51100000000E-03 0. -1.
    9900012    2    1    2    0    0  0.27025081370E+02  0.33759303347E+02  0.36850753488E+01  0.47787246943E+02  0.19999890113E+02 0.  0.
        -12    1    1    2    0    0 -0.27025081370E+02 -0.33759303347E+02 -0.36850753488E+01  0.43400753057E+02  0.00000000000E+00 0.  1.
         11    1    3    3    0    0  0.19840268159E+01 -0.10619096372E+00 -0.99792119374E+00  0.22233951284E+01  0.51100000000E-03 0. -1.
        -11    1    3    3    0    0  0.18517985881E+02  0.33040602232E+02  0.71429369850E+01  0.38543725118E+02  0.51100000000E-03 0.  1.
        -12    1    3    3    0    0  0.65230686731E+01  0.82489207903E+00 -0.24599404425E+01  0.70201266966E+01  0.00000000000E+00 0.  1.
</event>
<event>
 7    1  0.1427898E-010  0.4778726E+02  0.7816164E-02  0.1312668E+00
        -11   -1    0    0    0    0  0.00000000000E+00  0.00000000000E+00  0.45593999997E+02  0.45594000000E+02  0.51100000000E-03 0. -1.
         11   -1    0    0    0    0 -0.00000000000E+00 -0.00000000000E+00 -0.45593999997E+02  0.45594000000E+02  0.51100000000E-03 0.  1.
    9900012    2    1    2    0    0  0.15013537568E+01 -0.26598498665E+02  0.34262080717E+02  0.47787258424E+02  0.19999942459E+02 0.  0.
        -12    1    1    2    0    0 -0.15013537568E+01  0.26598498665E+02 -0.34262080717E+02  0.43400741576E+02  0.00000000000E+00 0.  1.
         11    1    3    3    0    0  0.54835334555E+01 -0.27854146448E+02  0.26364302053E+02  0.38742728821E+02  0.51100000000E-03 0. -1.
        -11    1    3    3    0    0 -0.50350339337E+00  0.58337534849E+00  0.22408558446E+01  0.23696577056E+01  0.51100000000E-03 0.  1.
         12    1    3    3    0    0 -0.34786763053E+01  0.67227243520E+00  0.56569228190E+01  0.66748718973E+01  0.00000000000E+00 0. -1.
</event>
<event>
 7    1  0.1427898E-010  0.4778726E+02  0.7816164E-02  0.1312668E+00
        -11   -1    0    0    0    0  0.00000000000E+00  0.00000000000E+00  0.45593999997E+02  0.45594000000E+02  0.51100000000E-03 0.  1.
         11   -1    0    0    0    0 -0.00000000000E+00 -0.00000000000E+00 -0.45593999997E+02  0.45594000000E+02  0.51100000000E-03 0. -1.
    9900012    2    1    2    0    0  0.23811278196E+02 -0.30081984368E+02 -0.20290916939E+02  0.47787261952E+02  0.19999958545E+02 0.  0.
        -12    1    1    2    0    0 -0.23811278196E+02  0.30081984368E+02  0.20290916939E+02  0.43400738048E+02  0.00000000000E+00 0.  1.
         11    1    3    3    0    0  0.13523185522E+02 -0.14118122156E+02 -0.12219251679E+02  0.23054457958E+02  0.51100000000E-03 0. -1.
        -11    1    3    3    0    0 -0.15029734960E+01 -0.54518093477E+01 -0.68590186032E+01  0.88897295208E+01  0.51100000000E-03 0.  1.
        -12    1    3    3    0    0  0.11791066170E+02 -0.10512052865E+02 -0.12126466565E+01  0.15843074473E+02  0.00000000000E+00 0.  1.
</event>
<event>
 7    1  0.1427898E-010  0.4778727E+02  0.7816164E-02  0.1312668E+00
        -11   -1    0    0    0    0  0.00000000000E+00  0.00000000000E+00  0.45593999997E+02  0.45594000000E+02  0.51100000000E-03 0.  1.
         11   -1    0    0    0    0 -0.00000000000E+00 -0.00000000000E+00 -0.45593999997E+02  0.45594000000E+02  0.51100000000E-03 0. -1.
    9900012    2    1    2    0    0  0.42921115781E+02 -0.29144985958E+01  0.57364197602E+01  0.47787274273E+02  0.20000014722E+02 0.  0.
        -12    1    1    2    0    0 -0.42921115781E+02  0.29144985958E+01 -0.57364197602E+01  0.43400725727E+02  0.00000000000E+00 0.  1.
         11    1    3    3    0    0  0.19646852105E+02 -0.18415165899E+01  0.50517635898E+01  0.20369346985E+02  0.51100000000E-03 0. -1.
        -11    1    3    3    0    0  0.71045897458E+01  0.64072711059E+01  0.81152177168E+00  0.96014002275E+01  0.51100000000E-03 0.  1.
        -12    1    3    3    0    0  0.16169673930E+02 -0.74802531118E+01 -0.12686560124E+00  0.17816527061E+02  0.00000000000E+00 0.  1.
</event>
<event>
 7    1  0.1427898E-010  0.4778730E+02  0.7816164E-02  0.1312668E+00
        -11   -1    0    0    0    0  0.00000000000E+00  0.00000000000E+00  0.45593999997E+02  0.45594000000E+02  0.51100000000E-03 0.  1.
         11   -1    0    0    0    0 -0.00000000000E+00 -0.00000000000E+00 -0.45593999997E+02  0.45594000000E+02  0.51100000000E-03 0. -1.
    9900012    2    1    2    0    0 -0.12828225257E+02 -0.25953841237E+01 -0.41380206494E+02  0.47787298722E+02  0.20000126191E+02 0.  0.
        -12    1    1    2    0    0  0.12828225257E+02  0.25953841237E+01  0.41380206494E+02  0.43400701278E+02  0.00000000000E+00 0.  1.
         11    1    3    3    0    0 -0.10280324690E+02 -0.19708132637E+01 -0.15528305289E+02  0.18726917687E+02  0.51100000000E-03 0. -1.
        -11    1    3    3    0    0  0.25854350782E+01  0.46954566738E+01 -0.70428331219E+01  0.88506093894E+01  0.51100000000E-03 0.  1.
         12    1    3    3    0    0 -0.51333356447E+01 -0.53200275338E+01 -0.18809068083E+02  0.20209771645E+02  0.00000000000E+00 0. -1.
</event>
<event>
 7    1  0.1427898E-010  0.4778727E+02  0.7816164E-02  0.1312668E+00
        -11   -1    0    0    0    0  0.00000000000E+00  0.00000000000E+00  0.45593999997E+02  0.45594000000E+02  0.51100000000E-03 0.  1.
         11   -1    0    0    0    0 -0.00000000000E+00 -0.00000000000E+00 -0.45593999997E+02  0.45594000000E+02  0.51100000000E-03 0. -1.
    9900012    2    1    2    0    0  0.62364240917E+01 -0.13994228048E+02 -0.40606550464E+02  0.47787270228E+02  0.19999996279E+02 0.  0.
        -12    1    1    2    0    0 -0.62364240917E+01  0.13994228048E+02  0.40606550464E+02  0.43400729772E+02  0.00000000000E+00 0.  1.
         11    1    3    3    0    0  0.20839029713E+01 -0.87443712177E+01 -0.89702070262E+01  0.12699263520E+02  0.51100000000E-03 0. -1.
        -11    1    3    3    0    0  0.25270429363E+01 -0.10908357880E+01  0.36508550774E+00  0.27765367650E+01  0.51100000000E-03 0.  1.
         12    1    3    3    0    0  0.16254781841E+01 -0.41590210425E+01 -0.32001428946E+02  0.32311469944E+02  0.00000000000E+00 0. -1.
</event>
<event>
 7    1  0.1427898E-010  0.4778727E+02  0.7816164E-02  0.1312668E+00
        -11   -1    0    0    0    0  0.00000000000E+00  0.00000000000E+00  0.45593999997E+02  0.45594000000E+02  0.51100000000E-03 0. -1.
         11   -1    0    0    0    0 -0.00000000000E+00 -0.00000000000E+00 -0.45593999997E+02  0.45594000000E+02  0.51100000000E-03 0.  1.
    9900012    2    1    2    0    0  0.16675349027E+02 -0.22651311068E+02  0.33052594057E+02  0.47787272677E+02  0.20000007442E+02 0.  0.
        -12    1    1    2    0    0 -0.16675349027E+02  0.22651311068E+02 -0.33052594057E+02  0.43400727323E+02  0.00000000000E+00 0.  1.
         11    1    3    3    0    0  0.13050867270E+02 -0.16396594340E+02  0.22265600244E+02  0.30576631550E+02  0.51100000000E-03 0. -1.
        -11    1    3    3    0    0 -0.93976861012E+00 -0.80344041129E+01  0.45544439169E+01  0.92831984867E+01  0.51100000000E-03 0.  1.
        -12    1    3    3    0    0  0.45642503671E+01  0.17796873849E+01  0.62325498964E+01  0.79274426402E+01  0.00000000000E+00 0.  1.
</event>
<event>
 7    1  0.1427898E-010  0.4778727E+02  0.7816164E-02  0.1312668E+00
        -11   -1    0    0    0    0  0.00000000000E+00  0.00000000000E+00  0.45593999997E+02  0.45594000000E+02  0.51100000000E-03 0. -1.
         11   -1    0    0    0    0 -0.00000000000E+00 -0.00000000000E+00 -0.45593999997E+02  0.45594000000E+02  0.51100000000E-03 0.  1.
    9900012    2    1    2    0    0  0.77743050779E+01  0.15056771872E+02  0.39955938165E+02  0.47787271973E+02  0.20000004234E+02 0.  0.
        -12    1    1    2    0    0 -0.77743050779E+01 -0.15056771872E+02 -0.39955938165E+02  0.43400728027E+02  0.00000000000E+00 0.  1.
         11    1    3    3    0    0  0.30803995036E+01 -0.28471765242E+01  0.39445982082E+01  0.57580491963E+01  0.51100000000E-03 0. -1.
        -11    1    3    3    0    0  0.81711335617E+01  0.10534425360E+02  0.24973973542E+02  0.28309731473E+02  0.51100000000E-03 0.  1.
        -12    1    3    3    0    0 -0.34772279874E+01  0.73695230362E+01  0.11037366415E+02  0.13719491304E+02  0.00000000000E+00 0.  1.
</event>
<event>
 7    1  0.1427898E-010  0.4778727E+02  0.7816164E-02  0.1312668E+00
        -11   -1    0    0    0    0  0.00000000000E+00  0.00000000000E+00  0.45593999997E+02  0.45594000000E+02  0.51100000000E-03 0.  1.
         11   -1    0    0    0    0 -0.00000000000E+00 -0.00000000000E+00 -0.45593999997E+02  0.45594000000E+02  0.51100000000E-03 0. -1.
    9900012    2    1    2    0    0  0.32895581391E+02 -0.72459383638E+01 -0.27367870335E+02  0.47787271613E+02  0.20000002593E+02 0.  0.
        -12    1    1    2    0    0 -0.32895581391E+02  0.72459383638E+01  0.27367870335E+02  0.43400728387E+02  0.00000000000E+00 0.  1.
         11    1    3    3    0    0  0.48983320969E+01  0.26545524742E+01 -0.80458278706E+01  0.97865035919E+01  0.51100000000E-03 0. -1.
        -11    1    3    3    0    0  0.14523420334E+01  0.19347034860E+01 -0.50982088383E+01  0.56430584421E+01  0.51100000000E-03 0.  1.
        -12    1    3    3    0    0  0.26544907261E+02 -0.11835194324E+02 -0.14223833626E+02  0.32357709579E+02  0.00000000000E+00 0.  1.
</event>
<event>
 7    1  0.1427898E-010  0.4778727E+02  0.7816164E-02  0.1312668E+00
        -11   -1    0    0    0    0  0.00000000000E+00  0.00000000000E+00  0.45593999997E+02  0.45594000000E+02  0.51100000000E-03 0.  1.
         11   -1    0    0    0    0 -0.00000000000E+00 -0.00000000000E+00 -0.45593999997E+02  0.45594000000E+02  0.51100000000E-03 0. -1.
    9900012    2    1    2    0    0  0.31167553648E+02 -0.26017316462E+02 -0.15339696413E+02  0.47787269103E+02  0.19999991150E+02 0.  0.
        -12    1    1    2    0    0 -0.31167553648E+02  0.26017316462E+02  0.15339696413E+02  0.43400730897E+02  0.00000000000E+00 0.  1.
         11    1    3    3    0    0  0.25031575563E+01 -0.11361340321E+02 -0.89328892334E+01  0.14667731998E+02  0.51100000000E-03 0. -1.
        -11    1    3    3    0    0  0.14514735873E+02 -0.94056613222E+01 -0.47522523671E+01  0.17936775775E+02  0.51100000000E-03 0.  1.
         12    1    3    3    0    0  0.14149660219E+02 -0.52503148190E+01 -0.16545548129E+01  0.15182761331E+02  0.00000000000E+00 0. -1.
</event>
<event>
 7    1  0.1427898E-010  0.4778727E+02  0.7816164E-02  0.1312668E+00
        -11   -1    0    0    0    0  0.00000000000E+00  0.00000000000E+00  0.45593999997E+02  0.45594000000E+02  0.51100000000E-03 0.  1.
         11   -1    0    0    0    0 -0.00000000000E+00 -0.00000000000E+00 -0.45593999997E+02  0.45594000000E+02  0.51100000000E-03 0. -1.
    9900012    2    1    2    0    0  0.48539770018E+01 -0.38812106365E+02 -0.18806461066E+02  0.47787266468E+02  0.19999979136E+02 0.  0.
        -12    1    1    2    0    0 -0.48539770018E+01  0.38812106365E+02  0.18806461066E+02  0.43400733532E+02  0.00000000000E+00 0.  1.
         11    1    3    3    0    0  0.41414246391E+01 -0.83259068832E+01 -0.30500582248E+01  0.97864691746E+01  0.51100000000E-03 0. -1.
        -11    1    3    3    0    0 -0.63191707759E+01 -0.23407518964E+02 -0.13576365527E+02  0.27787795244E+02  0.51100000000E-03 0.  1.
        -12    1    3    3    0    0  0.70317231386E+01 -0.70786805181E+01 -0.21800373135E+01  0.10213002049E+02  0.00000000000E+00 0.  1.
</event>
<event>
 7    1  0.1427898E-010  0.4778727E+02  0.7816164E-02  0.1312668E+00
        -11   -1    0    0    0    0  0.00000000000E+00  0.00000000000E+00  0.45593999997E+02  0.45594000000E+02  0.51100000000E-03 0. -1.
         11   -1    0    0    0    0 -0.00000000000E+00 -0.00000000000E+00 -0.45593999997E+02  0.45594000000E+02  0.51100000000E-03 0.  1.
    9900012    2    1    2    0    0  0.25652400018E+02  0.29279163315E+02  0.19191359971E+02  0.47787270413E+02  0.19999997123E+02 0.  0.
        -12    1    1    2    0    0 -0.25652400018E+02 -0.29279163315E+02 -0.19191359971E+02  0.43400729587E+02  0.00000000000E+00 0.  1.
         11    1    3    3    0    0  0.14019786612E+01  0.12518655162E+02  0.35426870687E+01  0.13085599075E+02  0.51100000000E-03 0. -1.
        -11    1    3    3    0    0  0.12400962978E+02  0.84537669028E+01  0.26312961735E+01  0.15237249668E+02  0.51100000000E-03 0.  1.
        -12    1    3    3    0    0  0.11849458379E+02  0.83067412506E+01  0.13017376729E+02  0.19464421671E+02  0.00000000000E+00 0.  1.
</event>
<event>
 7    1  0.1427898E-010  0.4778727E+02  0.7816164E-02  0.1312668E+00
        -11   -1    0    0    0    0  0.00000000000E+00  0.00000000000E+00  0.45593999997E+02  0.45594000000E+02  0.51100000000E-03 0.  1.
         11   -1    0    0    0    0 -0.00000000000E+00 -0.00000000000E+00 -0.45593999997E+02  0.45594000000E+02  0.51100000000E-03 0. -1.
    9900012    2    1    2    0    0 -0.29855144195E+02  0.23998152641E+02 -0.20405448034E+02  0.47787271037E+02  0.19999999964E+02 0.  0.
        -12    1    1    2    0    0  0.29855144195E+02 -0.23998152641E+02  0.20405448034E+02  0.43400728963E+02  0.00000000000E+00 0.  1.
         11    1    3    3    0    0 -0.39086464270E+00  0.61951892183E+01 -0.30721224484E+01  0.69261158826E+01  0.51100000000E-03 0. -1.
        -11    1    3    3    0    0 -0.13904936746E+00  0.49900479741E+00 -0.44114793643E+01  0.44417891617E+01  0.51100000000E-03 0.  1.
         12    1    3    3    0    0 -0.29325230185E+02  0.17303958625E+02 -0.12921846221E+02  0.36419365992E+02  0.00000000000E+00 0. -1.
</event>
<event>
 7    1  0.1427898E-010  0.4778727E+02  0.7816164E-02  0.1312668E+00
        -11   -1    0    0    0    0  0.00000000000E+00  0.00000000000E+00  0.45593999997E+02  0.45594000000E+02  0.51100000000E-03 0.  1.
         11   -1    0    0    0    0 -0.00000000000E+00 -0.00000000000E+00 -0.45593999997E+02  0.45594000000E+02  0.51100000000E-03 0. -1.
    9900012    2    1    2    0    0 -0.26319352810E+02  0.18004611375E+02 -0.29440601666E+02  0.47787269712E+02  0.19999993923E+02 0.  0.
        -12    1    1    2    0    0  0.26319352810E+02 -0.18004611375E+02  0.29440601666E+02  0.43400730288E+02  0.00000000000E+00 0.  1.
         11    1    3    3    0    0 -0.21392532735E+01  0.91671869006E+01 -0.10738508105E+02  0.14280380836E+02  0.51100000000E-03 0. -1.
        -11    1    3    3    0    0 -0.76060316696E+01 -0.93663553803E+00 -0.17447296483E+01  0.78595855932E+01  0.51100000000E-03 0.  1.
         12    1    3    3    0    0 -0.16574067867E+02  0.97740600122E+01 -0.16957363913E+02  0.25647303283E+02  0.00000000000E+00 0. -1.
</event>
<event>
 7    1  0.1427898E-010  0.4778727E+02  0.7816164E-02  0.1312668E+00
        -11   -1    0    0    0    0  0.00000000000E+00  0.00000000000E+00  0.45593999997E+02  0.45594000000E+02  0.51100000000E-03 0.  1.
         11   -1    0    0    0    0 -0.00000000000E+00 -0.00000000000E+00 -0.45593999997E+02  0.45594000000E+02  0.51100000000E-03 0. -1.
    9900012    2    1    2    0    0 -0.23347158500E+02 -0.22704434590E+02 -0.28688709627E+02  0.47787271663E+02  0.20000002822E+02 0.  0.
        -12    1    1    2    0    0  0.23347158500E+02  0.22704434590E+02  0.28688709627E+02  0.43400728337E+02  0.00000000000E+00 0.  1.
         11    1    3    3    0    0 -0.16443905734E+02 -0.12289715127E+02 -0.19129152033E+02  0.28059999847E+02  0.51100000000E-03 0. -1.
        -11    1    3    3    0    0 -0.88065742905E+01 -0.11604907859E+02 -0.96606049203E+01  0.17480186636E+02  0.51100000000E-03 0.  1.
        -12    1    3    3    0    0  0.19033215238E+01  0.11901883962E+01  0.10104732618E+00  0.22470851794E+01  0.00000000000E+00 0.  1.
</event>
<event>
 7    1  0.1427898E-010  0.4778727E+02  0.7816164E-02  0.1312668E+00
        -11   -1    0    0    0    0  0.00000000000E+00  0.00000000000E+00  0.45593999997E+02  0.45594000000E+02  0.51100000000E-03 0.  1.
         11   -1    0    0    0    0 -0.00000000000E+00 -0.00000000000E+00 -0.45593999997E+02  0.45594000000E+02  0.51100000000E-03 0. -1.
    9900012    2    1    2    0    0 -0.31233157609E+02  0.87855988719E+01 -0.28825799485E+02  0.47787267314E+02  0.19999982991E+02 0.  0.
        -12    1    1    2    0    0  0.31233157609E+02 -0.87855988719E+01  0.28825799485E+02  0.43400732686E+02  0.00000000000E+00 0.  1.
         11    1    3    3    0    0 -0.17227319295E+02  0.66552022626E+01 -0.70522034038E+01  0.19768809280E+02  0.51100000000E-03 0. -1.
        -11    1    3    3    0    0  0.13386215794E+01  0.16536696869E+01 -0.40164776961E+01  0.45451759604E+01  0.51100000000E-03 0.  1.
         12    1    3    3    0    0 -0.15344459894E+02  0.47672692238E+00 -0.17757118385E+02  0.23473282074E+02  0.00000000000E+00 0. -1.
</event>
<event>
 7    1  0.1427898E-010  0.4778727E+02  0.7816164E-02  0.1312668E+00
        -11   -1    0    0    0    0  0.00000000000E+00  0.00000000000E+00  0.45593999997E+02  0.45594000000E+02  0.51100000000E-03 0.  1.
         11   -1    0    0    0    0 -0.00000000000E+00 -0.00000000000E+00 -0.45593999997E+02  0.45594000000E+02  0.51100000000E-03 0. -1.
    9900012    2    1    2    0    0 -0.20303332048E+02 -0.13196273244E+02 -0.36017446428E+02  0.47787269971E+02  0.19999995108E+02 0.  0.
        -12    1    1    2    0    0  0.20303332048E+02  0.13196273244E+02  0.36017446428E+02  0.43400730029E+02  0.00000000000E+00 0.  1.
         11    1    3    3    0    0 -0.27218130278E+01  0.18843318916E+01 -0.11114355907E+02  0.11596890976E+02  0.51100000000E-03 0. -1.
        -11    1    3    3    0    0 -0.94409012631E+01 -0.47957294544E+01 -0.19117727947E+02  0.21854454003E+02  0.51100000000E-03 0.  1.
        -12    1    3    3    0    0 -0.81406177571E+01 -0.10284875682E+02 -0.57853625745E+01  0.14335924992E+02  0.00000000000E+00 0.  1.
</event>
<event>
 7    1  0.1427898E-010  0.4778727E+02  0.7816164E-02  0.1312668E+00
        -11   -1    0    0    0    0  0.00000000000E+00  0.00000000000E+00  0.45593999997E+02  0.45594000000E+02  0.51100000000E-03 0.  1.
         11   -1    0    0    0    0 -0.00000000000E+00 -0.00000000000E+00 -0.45593999997E+02  0.45594000000E+02  0.51100000000E-03 0. -1.
    9900012    2    1    2    0    0 -0.24941045313E+02 -0.22328573525E+02 -0.27622495340E+02  0.47787272059E+02  0.20000004628E+02 0.  0.
        -12    1    1    2    0    0  0.24941045313E+02  0.22328573525E+02  0.27622495340E+02  0.43400727941E+02  0.00000000000E+00 0.  1.
         11    1    3    3    0    0  0.19636445083E+01 -0.52878305943E+01 -0.76239686092E+01  0.94837729709E+01  0.51100000000E-03 0.  1.
        -11    1    3    3    0    0 -0.79512286440E+01 -0.16540639902E+01 -0.35308380756E+01  0.88557767818E+01  0.51100000000E-03 0. -1.
         12    1    3    3    0    0 -0.18953461177E+02 -0.15386678940E+02 -0.16467688656E+02  0.29447722307E+02  0.00000000000E+00 0. -1.
</event>
<event>
 7    1  0.1427898E-010  0.4778727E+02  0.7816164E-02  0.1312668E+00
        -11   -1    0    0    0    0  0.00000000000E+00  0.00000000000E+00  0.45593999997E+02  0.45594000000E+02  0.51100000000E-03 0.  1.
         11   -1    0    0    0    0 -0.00000000000E+00 -0.00000000000E+00 -0.45593999997E+02  0.45594000000E+02  0.51100000000E-03 0. -1.
    9900012    2    1    2    0    0  0.33016192470E+02  0.11217752634E+02 -0.25840216303E+02  0.47787265928E+02  0.19999976674E+02 0.  0.
        -12    1    1    2    0    0 -0.33016192470E+02 -0.11217752634E+02  0.25840216303E+02  0.43400734072E+02  0.00000000000E+00 0.  1.
         11    1    3    3    0    0  0.13952935711E+02  0.11672186385E+00 -0.90742002698E+01  0.16644493076E+02  0.51100000000E-03 0. -1.
        -11    1    3    3    0    0  0.17371667504E+02  0.13044798261E+02 -0.18067894642E+02  0.28255803131E+02  0.51100000000E-03 0.  1.
        -12    1    3    3    0    0  0.16915892546E+01 -0.19437674901E+01  0.13018786084E+01  0.28869697215E+01  0.00000000000E+00 0.  1.
</event>
<event>
 7    1  0.1427898E-010  0.4778726E+02  0.7816164E-02  0.1312668E+00
        -11   -1    0    0    0    0  0.00000000000E+00  0.00000000000E+00  0.45593999997E+02  0.45594000000E+02  0.51100000000E-03 0. -1.
         11   -1    0    0    0    0 -0.00000000000E+00 -0.00000000000E+00 -0.45593999997E+02  0.45594000000E+02  0.51100000000E-03 0.  1.
    9900012    2    1    2    0    0  0.31420900857E+02  0.29689826795E+02  0.38555171670E+01  0.47787264540E+02  0.19999970346E+02 0.  0.
        -12    1    1    2    0    0 -0.31420900857E+02 -0.29689826795E+02 -0.38555171670E+01  0.43400735460E+02  0.00000000000E+00 0.  1.
         11    1    3    3    0    0  0.19824012175E+02  0.13980343752E+02  0.85101782749E-01  0.24257961842E+02  0.51100000000E-03 0. -1.
        -11    1    3    3    0    0  0.92525568674E+01  0.17635590530E+02  0.44805333213E+01  0.20413207515E+02  0.51100000000E-03 0.  1.
        -12    1    3    3    0    0  0.23443318148E+01 -0.19261074872E+01 -0.71011793709E+00  0.31160951839E+01  0.00000000000E+00 0.  1.
</event>
<event>
 7    1  0.1427898E-010  0.4778727E+02  0.7816164E-02  0.1312668E+00
        -11   -1    0    0    0    0  0.00000000000E+00  0.00000000000E+00  0.45593999997E+02  0.45594000000E+02  0.51100000000E-03 0. -1.
         11   -1    0    0    0    0 -0.00000000000E+00 -0.00000000000E+00 -0.45593999997E+02  0.45594000000E+02  0.51100000000E-03 0.  1.
    9900012    2    1    2    0    0  0.19775553028E+02 -0.37744695092E+02 -0.82394672014E+01  0.47787270456E+02  0.19999997318E+02 0.  0.
        -12    1    1    2    0    0 -0.19775553028E+02  0.37744695092E+02  0.82394672014E+01  0.43400729544E+02  0.00000000000E+00 0.  1.
         11    1    3    3    0    0 -0.34549096474E+00 -0.63620489854E+01  0.19307743936E+01  0.66575461936E+01  0.51100000000E-03 0. -1.
        -11    1    3    3    0    0  0.90687041822E+01 -0.35603446527E+01 -0.41684227132E+01  0.10596848483E+02  0.51100000000E-03 0.  1.
         12    1    3    3    0    0  0.11052339811E+02 -0.27822301454E+02 -0.60018188817E+01  0.30532875780E+02  0.00000000000E+00 0. -1.
</event>
<event>
 7    1  0.1427898E-010  0.4778727E+02  0.7816164E-02  0.1312668E+00
        -11   -1    0    0    0    0  0.00000000000E+00  0.00000000000E+00  0.45593999997E+02  0.45594000000E+02  0.51100000000E-03 0.  1.
         11   -1    0    0    0    0 -0.00000000000E+00 -0.00000000000E+00 -0.45593999997E+02  0.45594000000E+02  0.51100000000E-03 0. -1.
    9900012    2    1    2    0    0 -0.81756089376E+01 -0.28146363912E+02 -0.32008819913E+02  0.47787274946E+02  0.20000017789E+02 0.  0.
        -12    1    1    2    0    0  0.81756089376E+01  0.28146363912E+02  0.32008819913E+02  0.43400725054E+02  0.00000000000E+00 0.  1.
         11    1    3    3    0    0 -0.69999739638E+01 -0.98796787672E+01 -0.83116048419E+01  0.14686404030E+02  0.51100000000E-03 0. -1.
        -11    1    3    3    0    0  0.48930910637E+01 -0.13890676489E+02 -0.11071367394E+02  0.18424668511E+02  0.51100000000E-03 0.  1.
         12    1    3    3    0    0 -0.60687260375E+01 -0.43760086557E+01 -0.12625847677E+02  0.14676202405E+02  0.00000000000E+00 0. -1.
</event>
<event>
 7    1  0.1427898E-010  0.4778726E+02  0.7816164E-02  0.1312668E+00
        -11   -1    0    0    0    0  0.00000000000E+00  0.00000000000E+00  0.45593999997E+02  0.45594000000E+02  0.51100000000E-03 0. -1.
         11   -1    0    0    0    0 -0.00000000000E+00 -0.00000000000E+00 -0.45593999997E+02  0.45594000000E+02  0.51100000000E-03 0.  1.
    9900012    2    1    2    0    0  0.28679791223E+02  0.32483682532E+02 -0.24298180403E+01  0.47787261860E+02  0.19999958125E+02 0.  0.
        -12    1    1    2    0    0 -0.28679791223E+02 -0.32483682532E+02  0.24298180403E+01  0.43400738140E+02  0.00000000000E+00 0.  1.
         11    1    3    3    0    0  0.17606726170E+02  0.22009346907E+02 -0.10945640122E+02  0.30235991725E+02  0.51100000000E-03 0.  1.
        -11    1    3    3    0    0  0.53572420689E+01  0.39369070388E+01  0.33111526480E+01  0.74271806048E+01  0.51100000000E-03 0. -1.
        -12    1    3    3    0    0  0.57158229842E+01  0.65374285855E+01  0.52046694333E+01  0.10124089530E+02  0.00000000000E+00 0.  1.
</event>
<event>
 7    1  0.1427898E-010  0.4778727E+02  0.7816164E-02  0.1312668E+00
        -11   -1    0    0    0    0  0.00000000000E+00  0.00000000000E+00  0.45593999997E+02  0.45594000000E+02  0.51100000000E-03 0.  1.
         11   -1    0    0    0    0 -0.00000000000E+00 -0.00000000000E+00 -0.45593999997E+02  0.45594000000E+02  0.51100000000E-03 0. -1.
    9900012    2    1    2    0    0 -0.39330745888E+02  0.17160522632E+01 -0.18269401906E+02  0.47787268975E+02  0.19999990565E+02 0.  0.
        -12    1    1    2    0    0  0.39330745888E+02 -0.17160522632E+01  0.18269401906E+02  0.43400731025E+02  0.00000000000E+00 0.  1.
         11    1    3    3    0    0 -0.60538294145E+01  0.39807519737E+01 -0.41731119999E+01  0.83612260393E+01  0.51100000000E-03 0. -1.
        -11    1    3    3    0    0 -0.24428569202E+02 -0.64848418939E+01 -0.44323815848E+01  0.25660361931E+02  0.51100000000E-03 0.  1.
        -12    1    3    3    0    0 -0.88483472719E+01  0.42201421834E+01 -0.96639083215E+01  0.13765681005E+02  0.00000000000E+00 0.  1.
</event>
<event>
 7    1  0.1427898E-010  0.4778728E+02  0.7816164E-02  0.1312668E+00
        -11   -1    0    0    0    0  0.00000000000E+00  0.00000000000E+00  0.45593999997E+02  0.45594000000E+02  0.51100000000E-03 0. -1.
         11   -1    0    0    0    0 -0.00000000000E+00 -0.00000000000E+00 -0.45593999997E+02  0.45594000000E+02  0.51100000000E-03 0.  1.
    9900012    2    1    2    0    0 -0.76420528656E+01  0.39144399098E+02  0.17115420964E+02  0.47787278951E+02  0.20000036051E+02 0.  0.
        -12    1    1    2    0    0  0.76420528656E+01 -0.39144399098E+02 -0.17115420964E+02  0.43400721049E+02  0.00000000000E+00 0.  1.
         11    1    3    3    0    0 -0.48127487820E+01  0.27056942244E+02  0.92068100432E+01  0.28982857448E+02  0.51100000000E-03 0. -1.
        -11    1    3    3    0    0  0.55464845084E-01  0.92142138107E+01  0.10506505672E+02  0.13974672597E+02  0.51100000000E-03 0.  1.
        -12    1    3    3    0    0 -0.28847689287E+01  0.28732430434E+01 -0.25978947511E+01  0.48297489062E+01  0.00000000000E+00 0.  1.
</event>
<event>
 7    1  0.1427898E-010  0.4778726E+02  0.7816164E-02  0.1312668E+00
        -11   -1    0    0    0    0  0.00000000000E+00  0.00000000000E+00  0.45593999997E+02  0.45594000000E+02  0.51100000000E-03 0.  1.
         11   -1    0    0    0    0 -0.00000000000E+00 -0.00000000000E+00 -0.45593999997E+02  0.45594000000E+02  0.51100000000E-03 0. -1.
    9900012    2    1    2    0    0  0.27019101075E+01 -0.87526430745E+01 -0.42423048855E+02  0.47787260914E+02  0.19999953812E+02 0.  0.
        -12    1    1    2    0    0 -0.27019101075E+01  0.87526430745E+01  0.42423048855E+02  0.43400739086E+02  0.00000000000E+00 0.  1.
         11    1    3    3    0    0  0.15425766286E+01  0.46111190880E+00 -0.43258508506E+01  0.46157505014E+01  0.51100000000E-03 0. -1.
        -11    1    3    3    0    0 -0.20955315041E+01  0.51595433483E+01 -0.10245785674E+02  0.11661400610E+02  0.51100000000E-03 0.  1.
         12    1    3    3    0    0  0.32548649829E+01 -0.14373298332E+02 -0.27851412331E+02  0.31510109803E+02  0.00000000000E+00 0. -1.
</event>
<event>
 7    1  0.1427898E-010  0.4778727E+02  0.7816164E-02  0.1312668E+00
        -11   -1    0    0    0    0  0.00000000000E+00  0.00000000000E+00  0.45593999997E+02  0.45594000000E+02  0.51100000000E-03 0. -1.
         11   -1    0    0    0    0 -0.00000000000E+00 -0.00000000000E+00 -0.45593999997E+02  0.45594000000E+02  0.51100000000E-03 0.  1.
    9900012    2    1    2    0    0  0.38524621621E+02  0.18418024356E+02  0.77622876306E+01  0.47787271879E+02  0.20000003804E+02 0.  0.
        -12    1    1    2    0    0 -0.38524621621E+02 -0.18418024356E+02 -0.77622876306E+01  0.43400728121E+02  0.00000000000E+00 0.  1.
         11    1    3    3    0    0  0.12482608182E+02  0.54639337595E+01 -0.26986372440E+01  0.13890742327E+02  0.51100000000E-03 0. -1.
        -11    1    3    3    0    0  0.74090201800E+01  0.11203177182E+02  0.56610330803E+01  0.14575735138E+02  0.51100000000E-03 0.  1.
        -12    1    3    3    0    0  0.18632993259E+02  0.17509134138E+01  0.47998917943E+01  0.19320794415E+02  0.00000000000E+00 0.  1.
</event>
<event>
 7    1  0.1427898E-010  0.4778727E+02  0.7816164E-02  0.1312668E+00
        -11   -1    0    0    0    0  0.00000000000E+00  0.00000000000E+00  0.45593999997E+02  0.45594000000E+02  0.51100000000E-03 0.  1.
         11   -1    0    0    0    0 -0.00000000000E+00 -0.00000000000E+00 -0.45593999997E+02  0.45594000000E+02  0.51100000000E-03 0. -1.
    9900012    2    1    2    0    0  0.10900609137E+02 -0.23970554484E+01 -0.41941079058E+02  0.47787271125E+02  0.20000000365E+02 0.  0.
        -12    1    1    2    0    0 -0.10900609137E+02  0.23970554484E+01  0.41941079058E+02  0.43400728875E+02  0.00000000000E+00 0.  1.
         11    1    3    3    0    0  0.20740685348E+01 -0.25144172345E+01 -0.18402077549E+02  0.18688512854E+02  0.51100000000E-03 0. -1.
        -11    1    3    3    0    0  0.11343557652E+02 -0.20291248304E+01 -0.10310297746E+02  0.15462725752E+02  0.51100000000E-03 0.  1.
         12    1    3    3    0    0 -0.25170170497E+01  0.21464866164E+01 -0.13228703762E+02  0.13636032519E+02  0.00000000000E+00 0. -1.
</event>
<event>
 7    1  0.1427898E-010  0.4778727E+02  0.7816164E-02  0.1312668E+00
        -11   -1    0    0    0    0  0.00000000000E+00  0.00000000000E+00  0.45593999997E+02  0.45594000000E+02  0.51100000000E-03 0. -1.
         11   -1    0    0    0    0 -0.00000000000E+00 -0.00000000000E+00 -0.45593999997E+02  0.45594000000E+02  0.51100000000E-03 0.  1.
    9900012    2    1    2    0    0  0.23692582363E+02 -0.66603385316E+01  0.35748072822E+02  0.47787270987E+02  0.19999999739E+02 0.  0.
        -12    1    1    2    0    0 -0.23692582363E+02  0.66603385316E+01 -0.35748072822E+02  0.43400729013E+02  0.00000000000E+00 0.  1.
         11    1    3    3    0    0  0.16987276430E+02 -0.85117528561E+01  0.26497212579E+02  0.32605517507E+02  0.51100000000E-03 0. -1.
        -11    1    3    3    0    0  0.28263527612E+01  0.29509298977E+01  0.10244512336E+02  0.11029337716E+02  0.51100000000E-03 0.  1.
        -12    1    3    3    0    0  0.38789531709E+01 -0.10995155732E+01 -0.99365209254E+00  0.41524157642E+01  0.00000000000E+00 0.  1.
</event>
<event>
 7    1  0.1427898E-010  0.4778727E+02  0.7816164E-02  0.1312668E+00
        -11   -1    0    0    0    0  0.00000000000E+00  0.00000000000E+00  0.45593999997E+02  0.45594000000E+02  0.51100000000E-03 0. -1.
         11   -1    0    0    0    0 -0.00000000000E+00 -0.00000000000E+00 -0.45593999997E+02  0.45594000000E+02  0.51100000000E-03 0.  1.
    9900012    2    1    2    0    0  0.26376593181E+02 -0.22680248625E+01  0.34391196869E+02  0.47787273892E+02  0.20000012984E+02 0.  0.
        -12    1    1    2    0    0 -0.26376593181E+02  0.22680248625E+01 -0.34391196869E+02  0.43400726108E+02  0.00000000000E+00 0.  1.
         11    1    3    3    0    0  0.11387506928E+02 -0.53937054168E+01  0.17741735786E+02  0.21760895228E+02  0.51100000000E-03 0. -1.
        -11    1    3    3    0    0  0.15918258177E+02  0.15111614582E+01  0.94146424516E+01  0.18555593364E+02  0.51100000000E-03 0.  1.
         12    1    3    3    0    0 -0.92917192402E+00  0.16145190961E+01  0.72348186314E+01  0.74707853004E+01  0.00000000000E+00 0. -1.
</event>
<event>
 7    1  0.1427898E-010  0.4778728E+02  0.7816164E-02  0.1312668E+00
        -11   -1    0    0    0    0  0.00000000000E+00  0.00000000000E+00  0.45593999997E+02  0.45594000000E+02  0.51100000000E-03 0.  1.
         11   -1    0    0    0    0 -0.00000000000E+00 -0.00000000000E+00 -0.45593999997E+02  0.45594000000E+02  0.51100000000E-03 0. -1.
    9900012    2    1    2    0    0  0.12696776244E+02  0.38736475324E+02 -0.14896317722E+02  0.47787275016E+02  0.20000018107E+02 0.  0.
        -12    1    1    2    0    0 -0.12696776244E+02 -0.38736475324E+02  0.14896317722E+02  0.43400724984E+02  0.00000000000E+00 0.  1.
         11    1    3    3    0    0  0.26685443121E+01  0.11570301758E+02 -0.81101362428E+01  0.14379406165E+02  0.51100000000E-03 0. -1.
        -11    1    3    3    0    0  0.10320745670E+01  0.66608611760E+01 -0.86183262997E+01  0.10941105885E+02  0.51100000000E-03 0.  1.
         12    1    3    3    0    0  0.89961573647E+01  0.20505312390E+02  0.18321448200E+01  0.22466762966E+02  0.00000000000E+00 0. -1.
</event>
<event>
 7    1  0.1541370E-010  0.4778727E+02  0.7816164E-02  0.1312668E+00
        -11   -1    0    0    0    0  0.00000000000E+00  0.00000000000E+00  0.45593999997E+02  0.45594000000E+02  0.51100000000E-03 0. -1.
         11   -1    0    0    0    0 -0.00000000000E+00 -0.00000000000E+00 -0.45593999997E+02  0.45594000000E+02  0.51100000000E-03 0.  1.
    9900012    2    1    2    0    0 -0.32447500411E+02  0.27814561204E+02 -0.75586431336E+01  0.47787272081E+02  0.20000004725E+02 0.  0.
        -12    1    1    2    0    0  0.32447500411E+02 -0.27814561204E+02  0.75586431336E+01  0.43400727919E+02  0.00000000000E+00 0.  1.
         11    1    3    3    0    0 -0.13248357927E+02  0.16439771120E+02 -0.57331623621E+01  0.21878167500E+02  0.51100000000E-03 0. -1.
        -11    1    3    3    0    0  0.12893117155E+01 -0.78226334736E+00  0.11551364123E+01  0.18996318160E+01  0.51100000000E-03 0.  1.
         12    1    3    3    0    0 -0.20488454200E+02  0.12157053431E+02 -0.29806171837E+01  0.24009472764E+02  0.00000000000E+00 0. -1.
</event>
<event>
 7    1  0.1427898E-010  0.4778727E+02  0.7816164E-02  0.1312668E+00
        -11   -1    0    0    0    0  0.00000000000E+00  0.00000000000E+00  0.45593999997E+02  0.45594000000E+02  0.51100000000E-03 0.  1.
         11   -1    0    0    0    0 -0.00000000000E+00 -0.00000000000E+00 -0.45593999997E+02  0.45594000000E+02  0.51100000000E-03 0. -1.
    9900012    2    1    2    0    0  0.31472781317E+02  0.14813360096E+02 -0.25954798644E+02  0.47787272198E+02  0.20000005258E+02 0.  0.
        -12    1    1    2    0    0 -0.31472781317E+02 -0.14813360096E+02  0.25954798644E+02  0.43400727802E+02  0.00000000000E+00 0.  1.
         11    1    3    3    0    0  0.20026377470E+02  0.78480321018E+01 -0.62344678043E+01  0.22394552720E+02  0.51100000000E-03 0.  1.
        -11    1    3    3    0    0  0.26729197090E+01  0.63536806480E+01 -0.62446643815E+01  0.93010532224E+01  0.51100000000E-03 0. -1.
        -12    1    3    3    0    0  0.87734841374E+01  0.61164734585E+00 -0.13475666458E+02  0.16091666256E+02  0.00000000000E+00 0.  1.
</event>
<event>
 7    1  0.1427898E-010  0.4778727E+02  0.7816164E-02  0.1312668E+00
        -11   -1    0    0    0    0  0.00000000000E+00  0.00000000000E+00  0.45593999997E+02  0.45594000000E+02  0.51100000000E-03 0. -1.
         11   -1    0    0    0    0 -0.00000000000E+00 -0.00000000000E+00 -0.45593999997E+02  0.45594000000E+02  0.51100000000E-03 0.  1.
    9900012    2    1    2    0    0  0.91671074819E+00 -0.24401479194E+02  0.35879672470E+02  0.47787269107E+02  0.19999991168E+02 0.  0.
        -12    1    1    2    0    0 -0.91671074819E+00  0.24401479194E+02 -0.35879672470E+02  0.43400730893E+02  0.00000000000E+00 0.  1.
         11    1    3    3    0    0  0.23220846132E+01 -0.65087141964E+01  0.11921547362E+02  0.13779649096E+02  0.51100000000E-03 0. -1.
        -11    1    3    3    0    0  0.55389267669E+00 -0.32151706892E+00 -0.22802076510E+01  0.23684420018E+01  0.51100000000E-03 0.  1.
        -12    1    3    3    0    0 -0.19592665417E+01 -0.17571247929E+02  0.26238332759E+02  0.31639178010E+02  0.00000000000E+00 0.  1.
</event>
<event>
 7    1  0.1427898E-010  0.4778727E+02  0.7816164E-02  0.1312668E+00
        -11   -1    0    0    0    0  0.00000000000E+00  0.00000000000E+00  0.45593999997E+02  0.45594000000E+02  0.51100000000E-03 0. -1.
         11   -1    0    0    0    0 -0.00000000000E+00 -0.00000000000E+00 -0.45593999997E+02  0.45594000000E+02  0.51100000000E-03 0.  1.
    9900012    2    1    2    0    0 -0.40074182994E+02  0.88489755262E+00 -0.16640316578E+02  0.47787270489E+02  0.19999997467E+02 0.  0.
        -12    1    1    2    0    0  0.40074182994E+02 -0.88489755262E+00  0.16640316578E+02  0.43400729511E+02  0.00000000000E+00 0.  1.
         11    1    3    3    0    0 -0.33487986088E+02  0.67213834310E+01 -0.13020174297E+02  0.36553346583E+02  0.51100000000E-03 0. -1.
        -11    1    3    3    0    0 -0.22878624845E+01  0.21495274456E+00 -0.30090851949E+01  0.37861739793E+01  0.51100000000E-03 0.  1.
         12    1    3    3    0    0 -0.42983344213E+01 -0.60514386229E+01 -0.61105708582E+00  0.74477499264E+01  0.00000000000E+00 0. -1.
</event>
<event>
 7    1  0.1427898E-010  0.4778728E+02  0.7816164E-02  0.1312668E+00
        -11   -1    0    0    0    0  0.00000000000E+00  0.00000000000E+00  0.45593999997E+02  0.45594000000E+02  0.51100000000E-03 0.  1.
         11   -1    0    0    0    0 -0.00000000000E+00 -0.00000000000E+00 -0.45593999997E+02  0.45594000000E+02  0.51100000000E-03 0. -1.
    9900012    2    1    2    0    0 -0.32279947911E+02 -0.21981091403E+02 -0.18933026333E+02  0.47787275323E+02  0.20000019506E+02 0.  0.
        -12    1    1    2    0    0  0.32279947911E+02  0.21981091403E+02  0.18933026333E+02  0.43400724677E+02  0.00000000000E+00 0.  1.
         11    1    3    3    0    0 -0.19483782911E+02 -0.15826755519E+02 -0.15905528441E+02  0.29716827254E+02  0.51100000000E-03 0. -1.
        -11    1    3    3    0    0 -0.11832996153E+02 -0.50966506437E+01 -0.64154738768E+01  0.14392843745E+02  0.51100000000E-03 0.  1.
         12    1    3    3    0    0 -0.96316884617E+00 -0.10576852406E+01  0.33879759841E+01  0.36776043239E+01  0.00000000000E+00 0. -1.
</event>
<event>
 7    1  0.1427898E-010  0.4778727E+02  0.7816164E-02  0.1312668E+00
        -11   -1    0    0    0    0  0.00000000000E+00  0.00000000000E+00  0.45593999997E+02  0.45594000000E+02  0.51100000000E-03 0.  1.
         11   -1    0    0    0    0 -0.00000000000E+00 -0.00000000000E+00 -0.45593999997E+02  0.45594000000E+02  0.51100000000E-03 0. -1.
    9900012    2    1    2    0    0 -0.23146063041E+02 -0.11983339735E+02 -0.34702773772E+02  0.47787272207E+02  0.20000005299E+02 0.  0.
        -12    1    1    2    0    0  0.23146063041E+02  0.11983339735E+02  0.34702773772E+02  0.43400727793E+02  0.00000000000E+00 0.  1.
         11    1    3    3    0    0 -0.13008052785E+02  0.41784145651E+00 -0.15564087906E+02  0.20288540149E+02  0.51100000000E-03 0. -1.
        -11    1    3    3    0    0 -0.13304595322E+01 -0.48710062995E+01 -0.13886846953E+02  0.14776377888E+02  0.51100000000E-03 0.  1.
        -12    1    3    3    0    0 -0.88075507240E+01 -0.75301748921E+01 -0.52518389131E+01  0.12722354170E+02  0.00000000000E+00 0.  1.
</event>
<event>
 7    1  0.1427898E-010  0.4778727E+02  0.7816164E-02  0.1312668E+00
        -11   -1    0    0    0    0  0.00000000000E+00  0.00000000000E+00  0.45593999997E+02  0.45594000000E+02  0.51100000000E-03 0. -1.
         11   -1    0    0    0    0 -0.00000000000E+00 -0.00000000000E+00 -0.45593999997E+02  0.45594000000E+02  0.51100000000E-03 0.  1.
    9900012    2    1    2    0    0  0.16512241377E+02 -0.39380389035E+02  0.77558874639E+01  0.47787274820E+02  0.20000017213E+02 0.  0.
        -12    1    1    2    0    0 -0.16512241377E+02  0.39380389035E+02 -0.77558874639E+01  0.43400725180E+02  0.00000000000E+00 0.  1.
         11    1    3    3    0    0  0.87645169797E+01 -0.16959686072E+02  0.95359358273E+01  0.21339676237E+02  0.51100000000E-03 0. -1.
        -11    1    3    3    0    0  0.10366774026E+02 -0.13186175509E+02 -0.15684514409E+01  0.16846520960E+02  0.51100000000E-03 0.  1.
         12    1    3    3    0    0 -0.26190496294E+01 -0.92345274540E+01 -0.21159692238E+00  0.96010776227E+01  0.00000000000E+00 0. -1.
</event>
<event>
 7    1  0.1427898E-010  0.4778727E+02  0.7816164E-02  0.1312668E+00
        -11   -1    0    0    0    0  0.00000000000E+00  0.00000000000E+00  0.45593999997E+02  0.45594000000E+02  0.51100000000E-03 0.  1.
         11   -1    0    0    0    0 -0.00000000000E+00 -0.00000000000E+00 -0.45593999997E+02  0.45594000000E+02  0.51100000000E-03 0. -1.
    9900012    2    1    2    0    0  0.37888740705E+02 -0.10153915223E+01 -0.21143217541E+02  0.47787270281E+02  0.19999996521E+02 0.  0.
        -12    1    1    2    0    0 -0.37888740705E+02  0.10153915223E+01  0.21143217541E+02  0.43400729719E+02  0.00000000000E+00 0.  1.
         11    1    3    3    0    0  0.84031194153E+01 -0.33369219165E+01 -0.75030290257E+01  0.11749166294E+02  0.51100000000E-03 0. -1.
        -11    1    3    3    0    0  0.22129602839E+02 -0.52635624537E+01 -0.84474914373E+01  0.24264882512E+02  0.51100000000E-03 0.  1.
        -12    1    3    3    0    0  0.73560184508E+01  0.75850928479E+01 -0.51926970777E+01  0.11773221475E+02  0.00000000000E+00 0.  1.
</event>
<event>
 7    1  0.1427898E-010  0.4778728E+02  0.7816164E-02  0.1312668E+00
        -11   -1    0    0    0    0  0.00000000000E+00  0.00000000000E+00  0.45593999997E+02  0.45594000000E+02  0.51100000000E-03 0.  1.
         11   -1    0    0    0    0 -0.00000000000E+00 -0.00000000000E+00 -0.45593999997E+02  0.45594000000E+02  0.51100000000E-03 0. -1.
    9900012    2    1    2    0    0  0.14632244298E+02 -0.31538303854E+02 -0.25977985630E+02  0.47787275115E+02  0.20000018558E+02 0.  0.
        -12    1    1    2    0    0 -0.14632244298E+02  0.31538303854E+02  0.25977985630E+02  0.43400724885E+02  0.00000000000E+00 0.  1.
         11    1    3    3    0    0 -0.11441809865E+01 -0.11588704304E+02 -0.73640190734E+01  0.13778098372E+02  0.51100000000E-03 0.  1.
        -11    1    3    3    0    0  0.77375523235E-01 -0.19122525796E+01 -0.73157755250E+01  0.75619619606E+01  0.51100000000E-03 0. -1.
         12    1    3    3    0    0  0.15699049762E+02 -0.18037346971E+02 -0.11298191031E+02  0.26447214782E+02  0.00000000000E+00 0. -1.
</event>
<event>
 7    1  0.1427898E-010  0.4778727E+02  0.7816164E-02  0.1312668E+00
        -11   -1    0    0    0    0  0.00000000000E+00  0.00000000000E+00  0.45593999997E+02  0.45594000000E+02  0.51100000000E-03 0.  1.
         11   -1    0    0    0    0 -0.00000000000E+00 -0.00000000000E+00 -0.45593999997E+02  0.45594000000E+02  0.51100000000E-03 0. -1.
    9900012    2    1    2    0    0  0.17587932162E+02  0.74420125816E+01 -0.38973125618E+02  0.47787269252E+02  0.19999991829E+02 0.  0.
        -12    1    1    2    0    0 -0.17587932162E+02 -0.74420125816E+01  0.38973125618E+02  0.43400730748E+02  0.00000000000E+00 0.  1.
         11    1    3    3    0    0  0.52841501230E+01  0.11153521564E+02 -0.21058706085E+02  0.24408858802E+02  0.51100000000E-03 0. -1.
        -11    1    3    3    0    0  0.80200067763E+01 -0.22859031489E+01 -0.16757307698E+02  0.18717724847E+02  0.51100000000E-03 0.  1.
        -12    1    3    3    0    0  0.42837752627E+01 -0.14256058337E+01 -0.11571118356E+01  0.46606856035E+01  0.00000000000E+00 0.  1.
</event>
<event>
 7    1  0.1427898E-010  0.4778727E+02  0.7816164E-02  0.1312668E+00
        -11   -1    0    0    0    0  0.00000000000E+00  0.00000000000E+00  0.45593999997E+02  0.45594000000E+02  0.51100000000E-03 0.  1.
         11   -1    0    0    0    0 -0.00000000000E+00 -0.00000000000E+00 -0.45593999997E+02  0.45594000000E+02  0.51100000000E-03 0. -1.
    9900012    2    1    2    0    0  0.42500866830E+02  0.87522129963E+01  0.83567884577E+00  0.47787271057E+02  0.20000000058E+02 0.  0.
        -12    1    1    2    0    0 -0.42500866830E+02 -0.87522129963E+01 -0.83567884577E+00  0.43400728943E+02  0.00000000000E+00 0.  1.
         11    1    3    3    0    0  0.26383835757E+02  0.55352366162E+01 -0.76600068641E+01  0.28025369562E+02  0.51100000000E-03 0. -1.
        -11    1    3    3    0    0  0.14273061135E+02  0.26119515059E+01  0.42914994226E+01  0.15131408803E+02  0.51100000000E-03 0.  1.
        -12    1    3    3    0    0  0.18439699383E+01  0.60502487415E+00  0.42041862873E+01  0.46304926919E+01  0.00000000000E+00 0.  1.
</event>
<event>
 7    1  0.1427898E-010  0.4778727E+02  0.7816164E-02  0.1312668E+00
        -11   -1    0    0    0    0  0.00000000000E+00  0.00000000000E+00  0.45593999997E+02  0.45594000000E+02  0.51100000000E-03 0.  1.
         11   -1    0    0    0    0 -0.00000000000E+00 -0.00000000000E+00 -0.45593999997E+02  0.45594000000E+02  0.51100000000E-03 0. -1.
    9900012    2    1    2    0    0  0.31410355358E+02  0.14476467111E+02 -0.26219165470E+02  0.47787272337E+02  0.20000005893E+02 0.  0.
        -12    1    1    2    0    0 -0.31410355358E+02 -0.14476467111E+02  0.26219165470E+02  0.43400727663E+02  0.00000000000E+00 0.  1.
         11    1    3    3    0    0  0.18092697994E+02  0.45008074094E+01 -0.60948667425E+01  0.19615055159E+02  0.51100000000E-03 0. -1.
        -11    1    3    3    0    0 -0.16106900442E+01  0.42680526616E+00 -0.51978986073E+00  0.17454703991E+01  0.51100000000E-03 0.  1.
        -12    1    3    3    0    0  0.14928347409E+02  0.95488544354E+01 -0.19604508867E+02  0.26426746778E+02  0.00000000000E+00 0.  1.
</event>
<event>
 7    1  0.1427898E-010  0.4778728E+02  0.7816164E-02  0.1312668E+00
        -11   -1    0    0    0    0  0.00000000000E+00  0.00000000000E+00  0.45593999997E+02  0.45594000000E+02  0.51100000000E-03 0. -1.
         11   -1    0    0    0    0 -0.00000000000E+00 -0.00000000000E+00 -0.45593999997E+02  0.45594000000E+02  0.51100000000E-03 0.  1.
    9900012    2    1    2    0    0  0.23230586410E+00  0.10297743908E+02  0.42160705445E+02  0.47787279048E+02  0.20000036489E+02 0.  0.
        -12    1    1    2    0    0 -0.23230586410E+00 -0.10297743908E+02 -0.42160705445E+02  0.43400720952E+02  0.00000000000E+00 0.  1.
         11    1    3    3    0    0 -0.11177538403E-01  0.86748759026E+01  0.19395370753E+02  0.21246976344E+02  0.51100000000E-03 0. -1.
        -11    1    3    3    0    0 -0.56356517050E+01 -0.16359053422E+00  0.17702524806E+02  0.18578662944E+02  0.51100000000E-03 0.  1.
         12    1    3    3    0    0  0.58791351075E+01  0.17864585393E+01  0.50628098854E+01  0.79616397596E+01  0.00000000000E+00 0. -1.
</event>
<event>
 7    1  0.1427898E-010  0.4778731E+02  0.7816164E-02  0.1312668E+00
        -11   -1    0    0    0    0  0.00000000000E+00  0.00000000000E+00  0.45593999997E+02  0.45594000000E+02  0.51100000000E-03 0.  1.
         11   -1    0    0    0    0 -0.00000000000E+00 -0.00000000000E+00 -0.45593999997E+02  0.45594000000E+02  0.51100000000E-03 0. -1.
    9900012    2    1    2    0    0  0.29544509687E+02  0.16307396299E+01 -0.31750308570E+02  0.47787314998E+02  0.20000200401E+02 0.  0.
        -12    1    1    2    0    0 -0.29544509687E+02 -0.16307396299E+01  0.31750308570E+02  0.43400685002E+02  0.00000000000E+00 0.  1.
         11    1    3    3    0    0  0.59148962187E+01 -0.30662889365E+01 -0.25674469938E+01  0.71400216700E+01  0.51100000000E-03 0.  1.
        -11    1    3    3    0    0  0.53922188982E+01  0.14643740301E+01 -0.18368666572E+02  0.19199696035E+02  0.51100000000E-03 0. -1.
         12    1    3    3    0    0  0.18237394570E+02  0.32326545363E+01 -0.10814195004E+02  0.21447597293E+02  0.00000000000E+00 0. -1.
</event>
<event>
 7    1  0.1427898E-010  0.4778727E+02  0.7816164E-02  0.1312668E+00
        -11   -1    0    0    0    0  0.00000000000E+00  0.00000000000E+00  0.45593999997E+02  0.45594000000E+02  0.51100000000E-03 0. -1.
         11   -1    0    0    0    0 -0.00000000000E+00 -0.00000000000E+00 -0.45593999997E+02  0.45594000000E+02  0.51100000000E-03 0.  1.
    9900012    2    1    2    0    0 -0.25437431544E+02  0.31476460607E+02 -0.15677777826E+02  0.47787271741E+02  0.20000003174E+02 0.  0.
        -12    1    1    2    0    0  0.25437431544E+02 -0.31476460607E+02  0.15677777826E+02  0.43400728259E+02  0.00000000000E+00 0.  1.
         11    1    3    3    0    0 -0.12702754035E+02  0.93370953304E+01 -0.81001031554E+01  0.17724361221E+02  0.51100000000E-03 0.  1.
        -11    1    3    3    0    0 -0.11412873758E+01  0.15055722672E+02 -0.64855728059E+01  0.16432893139E+02  0.51100000000E-03 0. -1.
         12    1    3    3    0    0 -0.11593390133E+02  0.70836426051E+01 -0.10921018644E+01  0.13630017381E+02  0.00000000000E+00 0. -1.
</event>
<event>
 7    1  0.1427898E-010  0.4778727E+02  0.7816164E-02  0.1312668E+00
        -11   -1    0    0    0    0  0.00000000000E+00  0.00000000000E+00  0.45593999997E+02  0.45594000000E+02  0.51100000000E-03 0. -1.
         11   -1    0    0    0    0 -0.00000000000E+00 -0.00000000000E+00 -0.45593999997E+02  0.45594000000E+02  0.51100000000E-03 0.  1.
    9900012    2    1    2    0    0  0.20933426364E+02 -0.14449034090E+02  0.35165899175E+02  0.47787269704E+02  0.19999993888E+02 0.  0.
        -12    1    1    2    0    0 -0.20933426364E+02  0.14449034090E+02 -0.35165899175E+02  0.43400730296E+02  0.00000000000E+00 0.  1.
         11    1    3    3    0    0  0.24240308810E+01  0.89242583069E+00  0.11344987901E+02  0.11635338427E+02  0.51100000000E-03 0. -1.
        -11    1    3    3    0    0  0.57591531616E+01 -0.12996210920E+02  0.13057421601E+02  0.19301958516E+02  0.51100000000E-03 0.  1.
         12    1    3    3    0    0  0.12750242321E+02 -0.23452490005E+01  0.10763489673E+02  0.16849972762E+02  0.00000000000E+00 0. -1.
</event>
<event>
 7    1  0.1427898E-010  0.4778727E+02  0.7816164E-02  0.1312668E+00
        -11   -1    0    0    0    0  0.00000000000E+00  0.00000000000E+00  0.45593999997E+02  0.45594000000E+02  0.51100000000E-03 0. -1.
         11   -1    0    0    0    0 -0.00000000000E+00 -0.00000000000E+00 -0.45593999997E+02  0.45594000000E+02  0.51100000000E-03 0.  1.
    9900012    2    1    2    0    0  0.13657073569E+01  0.30357944694E+02  0.30986339199E+02  0.47787272131E+02  0.20000004953E+02 0.  0.
        -12    1    1    2    0    0 -0.13657073569E+01 -0.30357944694E+02 -0.30986339199E+02  0.43400727869E+02  0.00000000000E+00 0.  1.
         11    1    3    3    0    0 -0.27707284007E+01  0.30347211219E+01  0.56664543823E+01  0.69996552548E+01  0.51100000000E-03 0. -1.
        -11    1    3    3    0    0  0.95062249496E+01  0.99511935427E+01  0.11814593911E+02  0.18137783637E+02  0.51100000000E-03 0.  1.
        -12    1    3    3    0    0 -0.53697891920E+01  0.17372030030E+02  0.13505290905E+02  0.22649833239E+02  0.00000000000E+00 0.  1.
</event>
<event>
 7    1  0.1427898E-010  0.4778727E+02  0.7816164E-02  0.1312668E+00
        -11   -1    0    0    0    0  0.00000000000E+00  0.00000000000E+00  0.45593999997E+02  0.45594000000E+02  0.51100000000E-03 0. -1.
         11   -1    0    0    0    0 -0.00000000000E+00 -0.00000000000E+00 -0.45593999997E+02  0.45594000000E+02  0.51100000000E-03 0.  1.
    9900012    2    1    2    0    0  0.15372161061E+02 -0.87186989654E+01  0.39639680394E+02  0.47787270638E+02  0.19999998149E+02 0.  0.
        -12    1    1    2    0    0 -0.15372161061E+02  0.87186989654E+01 -0.39639680394E+02  0.43400729362E+02  0.00000000000E+00 0.  1.
         11    1    3    3    0    0  0.50159681659E+01 -0.51685027057E+00  0.15540247330E+02  0.16337881080E+02  0.51100000000E-03 0. -1.
        -11    1    3    3    0    0  0.11155599256E+02 -0.61191397926E+01  0.76436240703E+01  0.14843054124E+02  0.51100000000E-03 0.  1.
        -12    1    3    3    0    0 -0.79940636009E+00 -0.20827089023E+01  0.16455808994E+02  0.16606335434E+02  0.00000000000E+00 0.  1.
</event>
<event>
 7    1  0.1427898E-010  0.4778727E+02  0.7816164E-02  0.1312668E+00
        -11   -1    0    0    0    0  0.00000000000E+00  0.00000000000E+00  0.45593999997E+02  0.45594000000E+02  0.51100000000E-03 0.  1.
         11   -1    0    0    0    0 -0.00000000000E+00 -0.00000000000E+00 -0.45593999997E+02  0.45594000000E+02  0.51100000000E-03 0. -1.
    9900012    2    1    2    0    0  0.25419742095E+02 -0.16951508176E+01 -0.35136680405E+02  0.47787272652E+02  0.20000007331E+02 0.  0.
        -12    1    1    2    0    0 -0.25419742095E+02  0.16951508176E+01  0.35136680405E+02  0.43400727348E+02  0.00000000000E+00 0.  1.
         11    1    3    3    0    0 -0.48596842401E-01 -0.11223518790E+01  0.32200479673E+00  0.11686414093E+01  0.51100000000E-03 0. -1.
        -11    1    3    3    0    0  0.57548783258E+01 -0.51509617550E+01 -0.28347332523E+01  0.82271954163E+01  0.51100000000E-03 0.  1.
         12    1    3    3    0    0  0.19713460611E+02  0.45781628163E+01 -0.32623951949E+02  0.38391435827E+02  0.00000000000E+00 0. -1.
</event>
<event>
 7    1  0.1427898E-010  0.4778727E+02  0.7816164E-02  0.1312668E+00
        -11   -1    0    0    0    0  0.00000000000E+00  0.00000000000E+00  0.45593999997E+02  0.45594000000E+02  0.51100000000E-03 0. -1.
         11   -1    0    0    0    0 -0.00000000000E+00 -0.00000000000E+00 -0.45593999997E+02  0.45594000000E+02  0.51100000000E-03 0.  1.
    9900012    2    1    2    0    0 -0.78656965684E+01 -0.23464557451E+01  0.42617465739E+02  0.47787269325E+02  0.19999992162E+02 0.  0.
        -12    1    1    2    0    0  0.78656965684E+01  0.23464557451E+01 -0.42617465739E+02  0.43400730675E+02  0.00000000000E+00 0.  1.
         11    1    3    3    0    0 -0.62207841573E+00  0.46830675646E+00  0.14418305818E+02  0.14439315624E+02  0.51100000000E-03 0. -1.
        -11    1    3    3    0    0 -0.90296565426E+01 -0.66868577379E+01  0.11363020653E+02  0.15980206579E+02  0.51100000000E-03 0.  1.
        -12    1    3    3    0    0  0.17860383899E+01  0.38720952363E+01  0.16836139268E+02  0.17367747123E+02  0.00000000000E+00 0.  1.
</event>
<event>
 7    1  0.1427898E-010  0.4778727E+02  0.7816164E-02  0.1312668E+00
        -11   -1    0    0    0    0  0.00000000000E+00  0.00000000000E+00  0.45593999997E+02  0.45594000000E+02  0.51100000000E-03 0. -1.
         11   -1    0    0    0    0 -0.00000000000E+00 -0.00000000000E+00 -0.45593999997E+02  0.45594000000E+02  0.51100000000E-03 0.  1.
    9900012    2    1    2    0    0 -0.22789956353E+02 -0.44981800273E+01  0.36660709849E+02  0.47787269813E+02  0.19999994387E+02 0.  0.
        -12    1    1    2    0    0  0.22789956353E+02  0.44981800273E+01 -0.36660709849E+02  0.43400730187E+02  0.00000000000E+00 0.  1.
         11    1    3    3    0    0 -0.36363489172E+01 -0.42169044478E+01  0.10043039798E+02  0.11483377779E+02  0.51100000000E-03 0. -1.
        -11    1    3    3    0    0 -0.27655147235E+01  0.43421856014E+01  0.56340436578E+00  0.51788099235E+01  0.51100000000E-03 0.  1.
        -12    1    3    3    0    0 -0.16388092712E+02 -0.46234611809E+01  0.26054265685E+02  0.31125082111E+02  0.00000000000E+00 0.  1.
</event>
<event>
 7    1  0.1427898E-010  0.4778728E+02  0.7816164E-02  0.1312668E+00
        -11   -1    0    0    0    0  0.00000000000E+00  0.00000000000E+00  0.45593999997E+02  0.45594000000E+02  0.51100000000E-03 0.  1.
         11   -1    0    0    0    0 -0.00000000000E+00 -0.00000000000E+00 -0.45593999997E+02  0.45594000000E+02  0.51100000000E-03 0. -1.
    9900012    2    1    2    0    0  0.14249978140E+02 -0.30752483028E+01 -0.40879132830E+02  0.47787279614E+02  0.20000039073E+02 0.  0.
        -12    1    1    2    0    0 -0.14249978140E+02  0.30752483028E+01  0.40879132830E+02  0.43400720386E+02  0.00000000000E+00 0.  1.
         11    1    3    3    0    0  0.28010136050E+01  0.14604656107E+01 -0.14828081374E+02  0.15160825654E+02  0.51100000000E-03 0. -1.
        -11    1    3    3    0    0  0.44639027643E+01 -0.22248486868E+01 -0.24633993005E+02  0.25133841553E+02  0.51100000000E-03 0.  1.
        -12    1    3    3    0    0  0.69850617704E+01 -0.23108652267E+01 -0.14170584502E+01  0.74926124071E+01  0.00000000000E+00 0.  1.
</event>
<event>
 7    1  0.1427898E-010  0.4778729E+02  0.7816164E-02  0.1312668E+00
        -11   -1    0    0    0    0  0.00000000000E+00  0.00000000000E+00  0.45593999997E+02  0.45594000000E+02  0.51100000000E-03 0.  1.
         11   -1    0    0    0    0 -0.00000000000E+00 -0.00000000000E+00 -0.45593999997E+02  0.45594000000E+02  0.51100000000E-03 0. -1.
    9900012    2    1    2    0    0 -0.28180476892E+02 -0.87497585250E+01 -0.31826467409E+02  0.47787290560E+02  0.20000088981E+02 0.  0.
        -12    1    1    2    0    0  0.28180476892E+02  0.87497585250E+01  0.31826467409E+02  0.43400709440E+02  0.00000000000E+00 0.  1.
         11    1    3    3    0    0 -0.20201859977E+01 -0.49263798436E+01 -0.11823844761E+02  0.12967408185E+02  0.51100000000E-03 0. -1.
        -11    1    3    3    0    0 -0.42540399436E+01  0.27774464131E+01 -0.12359872891E+01  0.52286450692E+01  0.51100000000E-03 0.  1.
         12    1    3    3    0    0 -0.21906250951E+02 -0.66008250944E+01 -0.18766635359E+02  0.29591237307E+02  0.00000000000E+00 0. -1.
</event>
<event>
 7    1  0.1427898E-010  0.4778726E+02  0.7816164E-02  0.1312668E+00
        -11   -1    0    0    0    0  0.00000000000E+00  0.00000000000E+00  0.45593999997E+02  0.45594000000E+02  0.51100000000E-03 0.  1.
         11   -1    0    0    0    0 -0.00000000000E+00 -0.00000000000E+00 -0.45593999997E+02  0.45594000000E+02  0.51100000000E-03 0. -1.
    9900012    2    1    2    0    0 -0.24582630672E+02  0.34583492521E+02 -0.91268906260E+01  0.47787264774E+02  0.19999971409E+02 0.  0.
        -12    1    1    2    0    0  0.24582630672E+02 -0.34583492521E+02  0.91268906260E+01  0.43400735226E+02  0.00000000000E+00 0.  1.
         11    1    3    3    0    0 -0.11120222630E+02  0.16603631147E+02  0.79279777287E+00  0.19999211164E+02  0.51100000000E-03 0. -1.
        -11    1    3    3    0    0 -0.51561831719E+01 -0.97569402612E+00 -0.16438198489E+01  0.54991224474E+01  0.51100000000E-03 0.  1.
         12    1    3    3    0    0 -0.83062248706E+01  0.18955555399E+02 -0.82758685499E+01  0.22288931162E+02  0.00000000000E+00 0. -1.
</event>
<event>
 7    1  0.1427898E-010  0.4778727E+02  0.7816164E-02  0.1312668E+00
        -11   -1    0    0    0    0  0.00000000000E+00  0.00000000000E+00  0.45593999997E+02  0.45594000000E+02  0.51100000000E-03 0.  1.
         11   -1    0    0    0    0 -0.00000000000E+00 -0.00000000000E+00 -0.45593999997E+02  0.45594000000E+02  0.51100000000E-03 0. -1.
    9900012    2    1    2    0    0  0.18130278655E+02  0.75488680208E+01 -0.38703108496E+02  0.47787273972E+02  0.20000013347E+02 0.  0.
        -12    1    1    2    0    0 -0.18130278655E+02 -0.75488680208E+01  0.38703108496E+02  0.43400726028E+02  0.00000000000E+00 0.  1.
         11    1    3    3    0    0 -0.14874265473E+01  0.35798537829E+01 -0.11016760908E+02  0.11678904572E+02  0.51100000000E-03 0. -1.
        -11    1    3    3    0    0  0.46668410849E+01 -0.11682969434E+01 -0.15259786438E+02  0.16000168932E+02  0.51100000000E-03 0.  1.
        -12    1    3    3    0    0  0.14950864117E+02  0.51373111813E+01 -0.12426561151E+02  0.20108200468E+02  0.00000000000E+00 0.  1.
</event>
<event>
 7    1  0.1427898E-010  0.4778727E+02  0.7816164E-02  0.1312668E+00
        -11   -1    0    0    0    0  0.00000000000E+00  0.00000000000E+00  0.45593999997E+02  0.45594000000E+02  0.51100000000E-03 0.  1.
         11   -1    0    0    0    0 -0.00000000000E+00 -0.00000000000E+00 -0.45593999997E+02  0.45594000000E+02  0.51100000000E-03 0. -1.
    9900012    2    1    2    0    0 -0.19932194072E+02 -0.37595907071E+02 -0.85369197311E+01  0.47787267431E+02  0.19999983526E+02 0.  0.
        -12    1    1    2    0    0  0.19932194072E+02  0.37595907071E+02  0.85369197311E+01  0.43400732569E+02  0.00000000000E+00 0.  1.
         11    1    3    3    0    0 -0.13149962631E+02 -0.16866548944E+02 -0.26527552904E+01  0.21550849203E+02  0.51100000000E-03 0. -1.
        -11    1    3    3    0    0 -0.10446115860E+02 -0.15474875454E+02 -0.20798049088E+01  0.18786130405E+02  0.51100000000E-03 0.  1.
        -12    1    3    3    0    0  0.36638844192E+01 -0.52544826730E+01 -0.38043595319E+01  0.74502878230E+01  0.00000000000E+00 0.  1.
</event>
<event>
 7    1  0.1427898E-010  0.4778727E+02  0.7816164E-02  0.1312668E+00
        -11   -1    0    0    0    0  0.00000000000E+00  0.00000000000E+00  0.45593999997E+02  0.45594000000E+02  0.51100000000E-03 0. -1.
         11   -1    0    0    0    0 -0.00000000000E+00 -0.00000000000E+00 -0.45593999997E+02  0.45594000000E+02  0.51100000000E-03 0.  1.
    9900012    2    1    2    0    0  0.35160059471E+02  0.18152358054E+01  0.25379096654E+02  0.47787269476E+02  0.19999992848E+02 0.  0.
        -12    1    1    2    0    0 -0.35160059471E+02 -0.18152358054E+01 -0.25379096654E+02  0.43400730524E+02  0.00000000000E+00 0.  1.
         11    1    3    3    0    0  0.34728864803E+01 -0.53277581701E+01  0.44352770604E+01  0.77535559899E+01  0.51100000000E-03 0. -1.
        -11    1    3    3    0    0  0.51101488837E+01  0.53991554982E+01  0.36914273354E+01  0.83000685383E+01  0.51100000000E-03 0.  1.
         12    1    3    3    0    0  0.26577024107E+02  0.17438384773E+01  0.17252392258E+02  0.31733644948E+02  0.00000000000E+00 0. -1.
</event>
<event>
 7    1  0.1427898E-010  0.4778727E+02  0.7816164E-02  0.1312668E+00
        -11   -1    0    0    0    0  0.00000000000E+00  0.00000000000E+00  0.45593999997E+02  0.45594000000E+02  0.51100000000E-03 0.  1.
         11   -1    0    0    0    0 -0.00000000000E+00 -0.00000000000E+00 -0.45593999997E+02  0.45594000000E+02  0.51100000000E-03 0. -1.
    9900012    2    1    2    0    0 -0.21270826979E+02  0.10984794440E+02 -0.36200958339E+02  0.47787272196E+02  0.20000005251E+02 0.  0.
        -12    1    1    2    0    0  0.21270826979E+02 -0.10984794440E+02  0.36200958339E+02  0.43400727804E+02  0.00000000000E+00 0.  1.
         11    1    3    3    0    0 -0.10831241064E+02  0.46995779702E+01 -0.65369574045E+01  0.13495689255E+02  0.51100000000E-03 0. -1.
        -11    1    3    3    0    0  0.25886622442E+01  0.24687208909E+01 -0.73065637098E+01  0.81352091896E+01  0.51100000000E-03 0.  1.
         12    1    3    3    0    0 -0.13028248158E+02  0.38164955787E+01 -0.22357437225E+02  0.26156373752E+02  0.00000000000E+00 0. -1.
</event>
<event>
 7    1  0.1427898E-010  0.4778731E+02  0.7816164E-02  0.1312668E+00
        -11   -1    0    0    0    0  0.00000000000E+00  0.00000000000E+00  0.45593999997E+02  0.45594000000E+02  0.51100000000E-03 0. -1.
         11   -1    0    0    0    0 -0.00000000000E+00 -0.00000000000E+00 -0.45593999997E+02  0.45594000000E+02  0.51100000000E-03 0.  1.
    9900012    2    1    2    0    0  0.36017405578E+02  0.22057102921E+01  0.24114344931E+02  0.47787305375E+02  0.20000156526E+02 0.  0.
        -12    1    1    2    0    0 -0.36017405578E+02 -0.22057102921E+01 -0.24114344931E+02  0.43400694625E+02  0.00000000000E+00 0.  1.
         11    1    3    3    0    0  0.18844333672E+02 -0.69646305942E+01  0.69387331695E+01  0.21254670289E+02  0.51100000000E-03 0.  1.
        -11    1    3    3    0    0  0.58420487766E+01  0.24994497287E+01  0.91098344364E+01  0.11107018798E+02  0.51100000000E-03 0. -1.
        -12    1    3    3    0    0  0.11331023130E+02  0.66708911576E+01  0.80657773248E+01  0.15425616288E+02  0.00000000000E+00 0.  1.
</event>
<event>
 7    1  0.1427898E-010  0.4778727E+02  0.7816164E-02  0.1312668E+00
        -11   -1    0    0    0    0  0.00000000000E+00  0.00000000000E+00  0.45593999997E+02  0.45594000000E+02  0.51100000000E-03 0. -1.
         11   -1    0    0    0    0 -0.00000000000E+00 -0.00000000000E+00 -0.45593999997E+02  0.45594000000E+02  0.51100000000E-03 0.  1.
    9900012    2    1    2    0    0 -0.33159629649E+02  0.54561379888E+01  0.27464389831E+02  0.47787272023E+02  0.20000004459E+02 0.  0.
        -12    1    1    2    0    0  0.33159629649E+02 -0.54561379888E+01 -0.27464389831E+02  0.43400727977E+02  0.00000000000E+00 0.  1.
         11    1    3    3    0    0 -0.15694424805E+02  0.76962252535E+01  0.18348299417E+02  0.25341802321E+02  0.51100000000E-03 0. -1.
        -11    1    3    3    0    0 -0.63053741636E+01  0.33460580021E+01  0.26056959523E+00  0.71429506698E+01  0.51100000000E-03 0.  1.
        -12    1    3    3    0    0 -0.11159830680E+02 -0.55861452667E+01  0.88555208183E+01  0.15302519032E+02  0.00000000000E+00 0.  1.
</event>
<event>
 7    1  0.1427898E-010  0.4778728E+02  0.7816164E-02  0.1312668E+00
        -11   -1    0    0    0    0  0.00000000000E+00  0.00000000000E+00  0.45593999997E+02  0.45594000000E+02  0.51100000000E-03 0.  1.
         11   -1    0    0    0    0 -0.00000000000E+00 -0.00000000000E+00 -0.45593999997E+02  0.45594000000E+02  0.51100000000E-03 0. -1.
    9900012    2    1    2    0    0  0.26455626224E+02  0.32558184359E+02 -0.11121452690E+02  0.47787282983E+02  0.20000054430E+02 0.  0.
        -12    1    1    2    0    0 -0.26455626224E+02 -0.32558184359E+02  0.11121452690E+02  0.43400717017E+02  0.00000000000E+00 0.  1.
         11    1    3    3    0    0  0.59603365605E+01  0.22139896665E+02 -0.51661094046E+01  0.23502964130E+02  0.51100000000E-03 0. -1.
        -11    1    3    3    0    0  0.76444238795E+01  0.41652102046E+01  0.23756198221E+00  0.87087673327E+01  0.51100000000E-03 0.  1.
         12    1    3    3    0    0  0.12850865784E+02  0.62530774898E+01 -0.61929052677E+01  0.15575551520E+02  0.00000000000E+00 0. -1.
</event>
<event>
 7    1  0.1427898E-010  0.4778728E+02  0.7816164E-02  0.1312668E+00
        -11   -1    0    0    0    0  0.00000000000E+00  0.00000000000E+00  0.45593999997E+02  0.45594000000E+02  0.51100000000E-03 0. -1.
         11   -1    0    0    0    0 -0.00000000000E+00 -0.00000000000E+00 -0.45593999997E+02  0.45594000000E+02  0.51100000000E-03 0.  1.
    9900012    2    1    2    0    0 -0.72240803947E+01  0.42232382664E+02  0.69181804104E+01  0.47787277619E+02  0.20000029974E+02 0.  0.
        -12    1    1    2    0    0  0.72240803947E+01 -0.42232382664E+02 -0.69181804104E+01  0.43400722381E+02  0.00000000000E+00 0.  1.
         11    1    3    3    0    0 -0.54891710533E+01  0.37540066894E+01  0.51878477073E+00  0.66702850745E+01  0.51100000000E-03 0.  1.
        -11    1    3    3    0    0 -0.96630052783E+00  0.87648353544E+01 -0.39242518777E+01  0.96517267139E+01  0.51100000000E-03 0. -1.
         12    1    3    3    0    0 -0.76860881364E+00  0.29713540620E+02  0.10323647517E+02  0.31465265830E+02  0.00000000000E+00 0. -1.
</event>
<event>
 7    1  0.1427898E-010  0.4778727E+02  0.7816164E-02  0.1312668E+00
        -11   -1    0    0    0    0  0.00000000000E+00  0.00000000000E+00  0.45593999997E+02  0.45594000000E+02  0.51100000000E-03 0. -1.
         11   -1    0    0    0    0 -0.00000000000E+00 -0.00000000000E+00 -0.45593999997E+02  0.45594000000E+02  0.51100000000E-03 0.  1.
    9900012    2    1    2    0    0 -0.42319245584E+02  0.84782395507E+01 -0.45633255303E+01  0.47787273824E+02  0.20000012674E+02 0.  0.
        -12    1    1    2    0    0  0.42319245584E+02 -0.84782395507E+01  0.45633255303E+01  0.43400726176E+02  0.00000000000E+00 0.  1.
         11    1    3    3    0    0 -0.16479046081E+01 -0.23933273676E+01  0.15397084295E+01  0.32885114862E+01  0.51100000000E-03 0. -1.
        -11    1    3    3    0    0 -0.18381190150E+02  0.33942096620E+01 -0.91145936292E+01  0.20795783896E+02  0.51100000000E-03 0.  1.
         12    1    3    3    0    0 -0.22290150826E+02  0.74773572563E+01  0.30115596694E+01  0.23702978442E+02  0.00000000000E+00 0. -1.
</event>
<event>
 7    1  0.1427898E-010  0.4778727E+02  0.7816164E-02  0.1312668E+00
        -11   -1    0    0    0    0  0.00000000000E+00  0.00000000000E+00  0.45593999997E+02  0.45594000000E+02  0.51100000000E-03 0.  1.
         11   -1    0    0    0    0 -0.00000000000E+00 -0.00000000000E+00 -0.45593999997E+02  0.45594000000E+02  0.51100000000E-03 0. -1.
    9900012    2    1    2    0    0 -0.58917176551E+01 -0.40144374195E+02 -0.15405858790E+02  0.47787267270E+02  0.19999982791E+02 0.  0.
        -12    1    1    2    0    0  0.58917176551E+01  0.40144374195E+02  0.15405858790E+02  0.43400732730E+02  0.00000000000E+00 0.  1.
         11    1    3    3    0    0 -0.60487265567E+01 -0.11895848460E+02 -0.13297481779E+01  0.13411432959E+02  0.51100000000E-03 0. -1.
        -11    1    3    3    0    0 -0.46130596898E+01 -0.20736664619E+02 -0.53370126146E+01  0.21903727608E+02  0.51100000000E-03 0.  1.
        -12    1    3    3    0    0  0.47700685913E+01 -0.75118611163E+01 -0.87390979974E+01  0.12472106703E+02  0.00000000000E+00 0.  1.
</event>
<event>
 7    1  0.1427898E-010  0.4778728E+02  0.7816164E-02  0.1312668E+00
        -11   -1    0    0    0    0  0.00000000000E+00  0.00000000000E+00  0.45593999997E+02  0.45594000000E+02  0.51100000000E-03 0.  1.
         11   -1    0    0    0    0 -0.00000000000E+00 -0.00000000000E+00 -0.45593999997E+02  0.45594000000E+02  0.51100000000E-03 0. -1.
    9900012    2    1    2    0    0 -0.17505430225E+02 -0.37773348218E+01 -0.39533703800E+02  0.47787284778E+02  0.20000062615E+02 0.  0.
        -12    1    1    2    0    0  0.17505430225E+02  0.37773348218E+01  0.39533703800E+02  0.43400715222E+02  0.00000000000E+00 0.  1.
         11    1    3    3    0    0 -0.14483307672E+02 -0.80458633831E+00 -0.23728658117E+02  0.27811198763E+02  0.51100000000E-03 0. -1.
        -11    1    3    3    0    0 -0.20135827625E+01 -0.53967019525E+01 -0.22740692349E+01  0.61927617951E+01  0.51100000000E-03 0.  1.
         12    1    3    3    0    0 -0.10085397896E+01  0.24239534690E+01 -0.13530976447E+02  0.13783324220E+02  0.00000000000E+00 0. -1.
</event>
<event>
 7    1  0.1427898E-010  0.4778727E+02  0.7816164E-02  0.1312668E+00
        -11   -1    0    0    0    0  0.00000000000E+00  0.00000000000E+00  0.45593999997E+02  0.45594000000E+02  0.51100000000E-03 0.  1.
         11   -1    0    0    0    0 -0.00000000000E+00 -0.00000000000E+00 -0.45593999997E+02  0.45594000000E+02  0.51100000000E-03 0. -1.
    9900012    2    1    2    0    0 -0.10520433029E+02 -0.70103835275E+01 -0.41518649653E+02  0.47787271235E+02  0.20000000871E+02 0.  0.
        -12    1    1    2    0    0  0.10520433029E+02  0.70103835275E+01  0.41518649653E+02  0.43400728765E+02  0.00000000000E+00 0.  1.
         11    1    3    3    0    0  0.37849346482E+01 -0.72399606265E+01 -0.20110134865E+02  0.21706226865E+02  0.51100000000E-03 0. -1.
        -11    1    3    3    0    0 -0.83966450850E+01 -0.90514672014E+00 -0.15482313483E+02  0.17635900043E+02  0.51100000000E-03 0.  1.
         12    1    3    3    0    0 -0.59087225917E+01  0.11347238191E+01 -0.59262013045E+01  0.84451443276E+01  0.00000000000E+00 0. -1.
</event>
<event>
 7    1  0.1427898E-010  0.4778726E+02  0.7816164E-02  0.1312668E+00
        -11   -1    0    0    0    0  0.00000000000E+00  0.00000000000E+00  0.45593999997E+02  0.45594000000E+02  0.51100000000E-03 0. -1.
         11   -1    0    0    0    0 -0.00000000000E+00 -0.00000000000E+00 -0.45593999997E+02  0.45594000000E+02  0.51100000000E-03 0.  1.
    9900012    2    1    2    0    0 -0.26351306472E+02  0.18781094568E+02  0.28922361807E+02  0.47787264079E+02  0.19999968243E+02 0.  0.
        -12    1    1    2    0    0  0.26351306472E+02 -0.18781094568E+02 -0.28922361807E+02  0.43400735921E+02  0.00000000000E+00 0.  1.
         11    1    3    3    0    0 -0.88363103666E+01  0.11362680777E+02  0.15805567290E+02  0.21377718610E+02  0.51100000000E-03 0. -1.
        -11    1    3    3    0    0 -0.58546966878E+01 -0.15559775143E+01  0.94840808471E+01  0.11253725121E+02  0.51100000000E-03 0.  1.
        -12    1    3    3    0    0 -0.11660299418E+02  0.89743913055E+01  0.36327136697E+01  0.15155820348E+02  0.00000000000E+00 0.  1.
</event>
<event>
 7    1  0.1427898E-010  0.4778727E+02  0.7816164E-02  0.1312668E+00
        -11   -1    0    0    0    0  0.00000000000E+00  0.00000000000E+00  0.45593999997E+02  0.45594000000E+02  0.51100000000E-03 0.  1.
         11   -1    0    0    0    0 -0.00000000000E+00 -0.00000000000E+00 -0.45593999997E+02  0.45594000000E+02  0.51100000000E-03 0. -1.
    9900012    2    1    2    0    0 -0.42767651202E+01  0.21048332493E+01 -0.43138177318E+02  0.47787269761E+02  0.19999994150E+02 0.  0.
        -12    1    1    2    0    0  0.42767651202E+01 -0.21048332493E+01  0.43138177318E+02  0.43400730239E+02  0.00000000000E+00 0.  1.
         11    1    3    3    0    0 -0.14669787080E+00  0.15426255455E+01 -0.16619882993E+02  0.16691965875E+02  0.51100000000E-03 0. -1.
        -11    1    3    3    0    0 -0.54840770430E+01  0.44473753419E+01 -0.38214416492E+01  0.80285531065E+01  0.51100000000E-03 0.  1.
        -12    1    3    3    0    0  0.13540097935E+01 -0.38851676381E+01 -0.22696852677E+02  0.23066750779E+02  0.00000000000E+00 0.  1.
</event>
<event>
 7    1  0.1427898E-010  0.4778727E+02  0.7816164E-02  0.1312668E+00
        -11   -1    0    0    0    0  0.00000000000E+00  0.00000000000E+00  0.45593999997E+02  0.45594000000E+02  0.51100000000E-03 0.  1.
         11   -1    0    0    0    0 -0.00000000000E+00 -0.00000000000E+00 -0.45593999997E+02  0.45594000000E+02  0.51100000000E-03 0. -1.
    9900012    2    1    2    0    0  0.85874667273E+01 -0.18370243654E+02 -0.38372028784E+02  0.47787273858E+02  0.20000012826E+02 0.  0.
        -12    1    1    2    0    0 -0.85874667273E+01  0.18370243654E+02  0.38372028784E+02  0.43400726142E+02  0.00000000000E+00 0.  1.
         11    1    3    3    0    0 -0.21929015023E+01 -0.11197324316E+01 -0.68840952798E+00  0.25566629924E+01  0.51100000000E-03 0. -1.
        -11    1    3    3    0    0 -0.34894869686E+01 -0.52060110759E+01 -0.80127693703E+01  0.10172686168E+02  0.51100000000E-03 0.  1.
         12    1    3    3    0    0  0.14269855198E+02 -0.12044500146E+02 -0.29670849886E+02  0.35057924697E+02  0.00000000000E+00 0. -1.
</event>
<event>
 7    1  0.1427898E-010  0.4778727E+02  0.7816164E-02  0.1312668E+00
        -11   -1    0    0    0    0  0.00000000000E+00  0.00000000000E+00  0.45593999997E+02  0.45594000000E+02  0.51100000000E-03 0.  1.
         11   -1    0    0    0    0 -0.00000000000E+00 -0.00000000000E+00 -0.45593999997E+02  0.45594000000E+02  0.51100000000E-03 0. -1.
    9900012    2    1    2    0    0  0.14306162411E+02  0.16273212162E+02 -0.37605046446E+02  0.47787271490E+02  0.20000002031E+02 0.  0.
        -12    1    1    2    0    0 -0.14306162411E+02 -0.16273212162E+02  0.37605046446E+02  0.43400728510E+02  0.00000000000E+00 0.  1.
         11    1    3    3    0    0  0.86137807201E+01  0.83704126551E+01 -0.20302454692E+02  0.23589207131E+02  0.51100000000E-03 0. -1.
        -11    1    3    3    0    0  0.10282550929E+02  0.46594743516E+01 -0.11878546416E+02  0.16387233447E+02  0.51100000000E-03 0.  1.
         12    1    3    3    0    0 -0.45901692376E+01  0.32433251558E+01 -0.54240453386E+01  0.78108309117E+01  0.00000000000E+00 0. -1.
</event>
<event>
 7    1  0.1427898E-010  0.4778727E+02  0.7816164E-02  0.1312668E+00
        -11   -1    0    0    0    0  0.00000000000E+00  0.00000000000E+00  0.45593999997E+02  0.45594000000E+02  0.51100000000E-03 0.  1.
         11   -1    0    0    0    0 -0.00000000000E+00 -0.00000000000E+00 -0.45593999997E+02  0.45594000000E+02  0.51100000000E-03 0. -1.
    9900012    2    1    2    0    0 -0.37196443925E+02  0.19838243879E+02 -0.10319495620E+02  0.47787270160E+02  0.19999995966E+02 0.  0.
        -12    1    1    2    0    0  0.37196443925E+02 -0.19838243879E+02  0.10319495620E+02  0.43400729840E+02  0.00000000000E+00 0.  1.
         11    1    3    3    0    0 -0.51910318379E+01  0.39994454138E+01  0.34707896360E+01  0.74154403860E+01  0.51100000000E-03 0. -1.
        -11    1    3    3    0    0  0.44665899853E+00  0.30166365312E+01 -0.10424921840E+01  0.32227923354E+01  0.51100000000E-03 0.  1.
         12    1    3    3    0    0 -0.32452071085E+02  0.12822161934E+02 -0.12747793072E+02  0.37149037438E+02  0.00000000000E+00 0. -1.
</event>
<event>
 7    1  0.1427898E-010  0.4778727E+02  0.7816164E-02  0.1312668E+00
        -11   -1    0    0    0    0  0.00000000000E+00  0.00000000000E+00  0.45593999997E+02  0.45594000000E+02  0.51100000000E-03 0.  1.
         11   -1    0    0    0    0 -0.00000000000E+00 -0.00000000000E+00 -0.45593999997E+02  0.45594000000E+02  0.51100000000E-03 0. -1.
    9900012    2    1    2    0    0  0.25129853695E+02  0.32644469595E+02 -0.13654757717E+02  0.47787270165E+02  0.19999995989E+02 0.  0.
        -12    1    1    2    0    0 -0.25129853695E+02 -0.32644469595E+02  0.13654757717E+02  0.43400729835E+02  0.00000000000E+00 0.  1.
         11    1    3    3    0    0  0.23023517956E+02  0.34495734810E+02 -0.12750030082E+02  0.43388954430E+02  0.51100000000E-03 0. -1.
        -11    1    3    3    0    0 -0.78743200582E+00  0.31073676819E-01  0.12044198527E+00  0.79719587939E+00  0.51100000000E-03 0.  1.
         12    1    3    3    0    0  0.28937677453E+01 -0.18823388914E+01 -0.10251696202E+01  0.36011198558E+01  0.00000000000E+00 0. -1.
</event>
<event>
 7    1  0.1427898E-010  0.4778727E+02  0.7816164E-02  0.1312668E+00
        -11   -1    0    0    0    0  0.00000000000E+00  0.00000000000E+00  0.45593999997E+02  0.45594000000E+02  0.51100000000E-03 0.  1.
         11   -1    0    0    0    0 -0.00000000000E+00 -0.00000000000E+00 -0.45593999997E+02  0.45594000000E+02  0.51100000000E-03 0. -1.
    9900012    2    1    2    0    0 -0.38109598849E+02  0.15874407921E+02 -0.13389742125E+02  0.47787267916E+02  0.19999985735E+02 0.  0.
        -12    1    1    2    0    0  0.38109598849E+02 -0.15874407921E+02  0.13389742125E+02  0.43400732084E+02  0.00000000000E+00 0.  1.
         11    1    3    3    0    0 -0.23822363423E+02  0.10044951787E+02 -0.16158873377E+02  0.30487952449E+02  0.51100000000E-03 0. -1.
        -11    1    3    3    0    0 -0.77078733888E+01  0.47373444329E+01 -0.17871942185E+01  0.92221368397E+01  0.51100000000E-03 0.  1.
        -12    1    3    3    0    0 -0.65793620373E+01  0.10921117011E+01  0.45563254702E+01  0.80771786272E+01  0.00000000000E+00 0.  1.
</event>
<event>
 7    1  0.1427898E-010  0.4778722E+02  0.7816164E-02  0.1312668E+00
        -11   -1    0    0    0    0  0.00000000000E+00  0.00000000000E+00  0.45593999997E+02  0.45594000000E+02  0.51100000000E-03 0.  1.
         11   -1    0    0    0    0 -0.00000000000E+00 -0.00000000000E+00 -0.45593999997E+02  0.45594000000E+02  0.51100000000E-03 0. -1.
    9900012    2    1    2    0    0 -0.46869854380E+01 -0.36485594410E+02 -0.23031739449E+02  0.47787222888E+02  0.19999780433E+02 0.  0.
        -12    1    1    2    0    0  0.46869854380E+01  0.36485594410E+02  0.23031739449E+02  0.43400777112E+02  0.00000000000E+00 0.  1.
         11    1    3    3    0    0 -0.60914830304E+01 -0.22154401481E+02 -0.12561094392E+02  0.26185965002E+02  0.51100000000E-03 0. -1.
        -11    1    3    3    0    0 -0.53333059133E+01 -0.53893062353E+01 -0.30693249685E+01  0.81798245511E+01  0.51100000000E-03 0.  1.
        -12    1    3    3    0    0  0.67378035057E+01 -0.89418866932E+01 -0.74013200880E+01  0.13421433335E+02  0.00000000000E+00 0.  1.
</event>
<event>
 7    1  0.1427898E-010  0.4778727E+02  0.7816164E-02  0.1312668E+00
        -11   -1    0    0    0    0  0.00000000000E+00  0.00000000000E+00  0.45593999997E+02  0.45594000000E+02  0.51100000000E-03 0. -1.
         11   -1    0    0    0    0 -0.00000000000E+00 -0.00000000000E+00 -0.45593999997E+02  0.45594000000E+02  0.51100000000E-03 0.  1.
    9900012    2    1    2    0    0 -0.41235555883E+01  0.41394997708E+02  0.12372295809E+02  0.47787271325E+02  0.20000001279E+02 0.  0.
        -12    1    1    2    0    0  0.41235555883E+01 -0.41394997708E+02 -0.12372295809E+02  0.43400728675E+02  0.00000000000E+00 0.  1.
         11    1    3    3    0    0 -0.48528788904E+01  0.80176179051E+01  0.72369421488E+01  0.11840859864E+02  0.51100000000E-03 0. -1.
        -11    1    3    3    0    0 -0.18157808267E+01  0.28784543578E+02  0.80456696518E+01  0.29942942565E+02  0.51100000000E-03 0.  1.
         12    1    3    3    0    0  0.25451041289E+01  0.45928362248E+01 -0.29103159917E+01  0.60034688961E+01  0.00000000000E+00 0. -1.
</event>
<event>
 7    1  0.1427898E-010  0.4778727E+02  0.7816164E-02  0.1312668E+00
        -11   -1    0    0    0    0  0.00000000000E+00  0.00000000000E+00  0.45593999997E+02  0.45594000000E+02  0.51100000000E-03 0.  1.
         11   -1    0    0    0    0 -0.00000000000E+00 -0.00000000000E+00 -0.45593999997E+02  0.45594000000E+02  0.51100000000E-03 0. -1.
    9900012    2    1    2    0    0 -0.79688739843E+01  0.19466297903E+02 -0.37962922764E+02  0.47787271764E+02  0.20000003280E+02 0.  0.
        -12    1    1    2    0    0  0.79688739843E+01 -0.19466297903E+02  0.37962922764E+02  0.43400728236E+02  0.00000000000E+00 0.  1.
         11    1    3    3    0    0 -0.59679310003E+01  0.76461472158E+01 -0.19074077610E+02  0.21398602866E+02  0.51100000000E-03 0. -1.
        -11    1    3    3    0    0  0.21693503737E+01  0.13364827548E+02 -0.11498553859E+02  0.17763486075E+02  0.51100000000E-03 0.  1.
         12    1    3    3    0    0 -0.41702933577E+01 -0.15446768615E+01 -0.73902912956E+01  0.86251828230E+01  0.00000000000E+00 0. -1.
</event>
<event>
 7    1  0.1427898E-010  0.4778727E+02  0.7816164E-02  0.1312668E+00
        -11   -1    0    0    0    0  0.00000000000E+00  0.00000000000E+00  0.45593999997E+02  0.45594000000E+02  0.51100000000E-03 0.  1.
         11   -1    0    0    0    0 -0.00000000000E+00 -0.00000000000E+00 -0.45593999997E+02  0.45594000000E+02  0.51100000000E-03 0. -1.
    9900012    2    1    2    0    0  0.10430276817E+02  0.30577366527E+02 -0.28980296316E+02  0.47787267370E+02  0.19999983248E+02 0.  0.
        -12    1    1    2    0    0 -0.10430276817E+02 -0.30577366527E+02  0.28980296316E+02  0.43400732630E+02  0.00000000000E+00 0.  1.
         11    1    3    3    0    0  0.97045371952E+01  0.15647407244E+02 -0.24392560838E+02  0.30561682220E+02  0.51100000000E-03 0. -1.
        -11    1    3    3    0    0  0.17708843657E+01  0.46902298787E+01 -0.47855089066E+01  0.69307563445E+01  0.51100000000E-03 0.  1.
        -12    1    3    3    0    0 -0.10451447437E+01  0.10239729405E+02  0.19777342772E+00  0.10294828806E+02  0.00000000000E+00 0.  1.
</event>
<event>
 7    1  0.1427898E-010  0.4778727E+02  0.7816164E-02  0.1312668E+00
        -11   -1    0    0    0    0  0.00000000000E+00  0.00000000000E+00  0.45593999997E+02  0.45594000000E+02  0.51100000000E-03 0.  1.
         11   -1    0    0    0    0 -0.00000000000E+00 -0.00000000000E+00 -0.45593999997E+02  0.45594000000E+02  0.51100000000E-03 0. -1.
    9900012    2    1    2    0    0  0.23011847158E+02 -0.31174619482E+02 -0.19550480536E+02  0.47787270759E+02  0.19999998698E+02 0.  0.
        -12    1    1    2    0    0 -0.23011847158E+02  0.31174619482E+02  0.19550480536E+02  0.43400729241E+02  0.00000000000E+00 0.  1.
         11    1    3    3    0    0  0.80554853292E+01 -0.15781480572E+02 -0.58549306303E+01  0.18660819540E+02  0.51100000000E-03 0. -1.
        -11    1    3    3    0    0  0.25282632263E+01 -0.12746687436E+02 -0.71792750482E+01  0.14846283913E+02  0.51100000000E-03 0.  1.
         12    1    3    3    0    0  0.12428098602E+02 -0.26464514731E+01 -0.65162748579E+01  0.14280167306E+02  0.00000000000E+00 0. -1.
</event>
<event>
 7    1  0.1427898E-010  0.4778727E+02  0.7816164E-02  0.1312668E+00
        -11   -1    0    0    0    0  0.00000000000E+00  0.00000000000E+00  0.45593999997E+02  0.45594000000E+02  0.51100000000E-03 0.  1.
         11   -1    0    0    0    0 -0.00000000000E+00 -0.00000000000E+00 -0.45593999997E+02  0.45594000000E+02  0.51100000000E-03 0. -1.
    9900012    2    1    2    0    0 -0.11164134733E+02  0.26967903959E+02 -0.32120359067E+02  0.47787271724E+02  0.20000003098E+02 0.  0.
        -12    1    1    2    0    0  0.11164134733E+02 -0.26967903959E+02  0.32120359067E+02  0.43400728276E+02  0.00000000000E+00 0.  1.
         11    1    3    3    0    0 -0.37511121110E+01  0.17816747180E+02 -0.28313279814E+02  0.33662280615E+02  0.51100000000E-03 0. -1.
        -11    1    3    3    0    0  0.93923352929E+00  0.20609950325E+01  0.55625757725E+00  0.23322270258E+01  0.51100000000E-03 0.  1.
        -12    1    3    3    0    0 -0.83522561515E+01  0.70901617470E+01 -0.43633368304E+01  0.11792764083E+02  0.00000000000E+00 0.  1.
</event>
<event>
 7    1  0.1427898E-010  0.4778728E+02  0.7816164E-02  0.1312668E+00
        -11   -1    0    0    0    0  0.00000000000E+00  0.00000000000E+00  0.45593999997E+02  0.45594000000E+02  0.51100000000E-03 0.  1.
         11   -1    0    0    0    0 -0.00000000000E+00 -0.00000000000E+00 -0.45593999997E+02  0.45594000000E+02  0.51100000000E-03 0. -1.
    9900012    2    1    2    0    0 -0.37160810483E+02  0.17875433283E+02 -0.13533869463E+02  0.47787279114E+02  0.20000036793E+02 0.  0.
        -12    1    1    2    0    0  0.37160810483E+02 -0.17875433283E+02  0.13533869463E+02  0.43400720886E+02  0.00000000000E+00 0.  1.
         11    1    3    3    0    0 -0.22939367795E+02  0.12748906453E+02 -0.59880675245E+01  0.26918509682E+02  0.51100000000E-03 0. -1.
        -11    1    3    3    0    0 -0.79268812285E+01 -0.11894367959E+01  0.15134397215E+01  0.81572486755E+01  0.51100000000E-03 0.  1.
        -12    1    3    3    0    0 -0.62945614593E+01  0.63159636260E+01 -0.90592416598E+01  0.12711520756E+02  0.00000000000E+00 0.  1.
</event>
<event>
 7    1  0.1427898E-010  0.4778726E+02  0.7816164E-02  0.1312668E+00
        -11   -1    0    0    0    0  0.00000000000E+00  0.00000000000E+00  0.45593999997E+02  0.45594000000E+02  0.51100000000E-03 0.  1.
         11   -1    0    0    0    0 -0.00000000000E+00 -0.00000000000E+00 -0.45593999997E+02  0.45594000000E+02  0.51100000000E-03 0. -1.
    9900012    2    1    2    0    0  0.22212270731E+02 -0.36286736044E+02 -0.85738965952E+01  0.47787263985E+02  0.19999967815E+02 0.  0.
        -12    1    1    2    0    0 -0.22212270731E+02  0.36286736044E+02  0.85738965952E+01  0.43400736015E+02  0.00000000000E+00 0.  1.
         11    1    3    3    0    0  0.13336592931E+02 -0.35382416750E+02 -0.61686741645E+01  0.38312304385E+02  0.51100000000E-03 0. -1.
        -11    1    3    3    0    0  0.21895182754E+01  0.54499999673E+00 -0.11085964970E+00  0.22590496670E+01  0.51100000000E-03 0.  1.
         12    1    3    3    0    0  0.66861595248E+01 -0.14493192911E+01 -0.22943627810E+01  0.72159099336E+01  0.00000000000E+00 0. -1.
</event>
<event>
 7    1  0.1427898E-010  0.4778727E+02  0.7816164E-02  0.1312668E+00
        -11   -1    0    0    0    0  0.00000000000E+00  0.00000000000E+00  0.45593999997E+02  0.45594000000E+02  0.51100000000E-03 0. -1.
         11   -1    0    0    0    0 -0.00000000000E+00 -0.00000000000E+00 -0.45593999997E+02  0.45594000000E+02  0.51100000000E-03 0.  1.
    9900012    2    1    2    0    0 -0.11512931955E+02  0.14332906394E+02  0.39314672160E+02  0.47787271262E+02  0.20000000992E+02 0.  0.
        -12    1    1    2    0    0  0.11512931955E+02 -0.14332906394E+02 -0.39314672160E+02  0.43400728738E+02  0.00000000000E+00 0.  1.
         11    1    3    3    0    0 -0.28764131277E+01 -0.45329032588E+00  0.37022390680E-01  0.29121462050E+01  0.51100000000E-03 0.  1.
        -11    1    3    3    0    0 -0.61246409278E+01  0.12909834584E+02  0.39217179179E+02  0.41739216553E+02  0.51100000000E-03 0. -1.
         12    1    3    3    0    0 -0.25118778999E+01  0.18763621365E+01  0.60470590729E-01  0.31359085037E+01  0.00000000000E+00 0. -1.
</event>
<event>
 7    1  0.1427898E-010  0.4778727E+02  0.7816164E-02  0.1312668E+00
        -11   -1    0    0    0    0  0.00000000000E+00  0.00000000000E+00  0.45593999997E+02  0.45594000000E+02  0.51100000000E-03 0.  1.
         11   -1    0    0    0    0 -0.00000000000E+00 -0.00000000000E+00 -0.45593999997E+02  0.45594000000E+02  0.51100000000E-03 0. -1.
    9900012    2    1    2    0    0  0.27347811255E+02 -0.90698091884E+01 -0.32457038734E+02  0.47787267488E+02  0.19999983787E+02 0.  0.
        -12    1    1    2    0    0 -0.27347811255E+02  0.90698091884E+01  0.32457038734E+02  0.43400732512E+02  0.00000000000E+00 0.  1.
         11    1    3    3    0    0  0.52828013263E+01 -0.26473120408E+01 -0.11287114073E+02  0.12740298083E+02  0.51100000000E-03 0. -1.
        -11    1    3    3    0    0  0.76698920032E+01 -0.11513904947E+01  0.12816291663E+01  0.78610124661E+01  0.51100000000E-03 0.  1.
        -12    1    3    3    0    0  0.14395117926E+02 -0.52711066529E+01 -0.22451553827E+02  0.27185956939E+02  0.00000000000E+00 0.  1.
</event>
<event>
 7    1  0.1427898E-010  0.4778729E+02  0.7816164E-02  0.1312668E+00
        -11   -1    0    0    0    0  0.00000000000E+00  0.00000000000E+00  0.45593999997E+02  0.45594000000E+02  0.51100000000E-03 0.  1.
         11   -1    0    0    0    0 -0.00000000000E+00 -0.00000000000E+00 -0.45593999997E+02  0.45594000000E+02  0.51100000000E-03 0. -1.
    9900012    2    1    2    0    0 -0.32208212139E+02 -0.38547788467E+01 -0.28833894187E+02  0.47787289140E+02  0.20000082506E+02 0.  0.
        -12    1    1    2    0    0  0.32208212139E+02  0.38547788467E+01  0.28833894187E+02  0.43400710860E+02  0.00000000000E+00 0.  1.
         11    1    3    3    0    0 -0.10894995572E+02 -0.26883561758E+01 -0.63329538077E+01  0.12885437192E+02  0.51100000000E-03 0. -1.
        -11    1    3    3    0    0 -0.86110248409E+01 -0.26144325915E+01 -0.19921446927E+02  0.21859758794E+02  0.51100000000E-03 0.  1.
         12    1    3    3    0    0 -0.12702191726E+02  0.14480099207E+01 -0.25794934522E+01  0.13042093155E+02  0.00000000000E+00 0. -1.
</event>
<event>
 7    1  0.1427898E-010  0.4778727E+02  0.7816164E-02  0.1312668E+00
        -11   -1    0    0    0    0  0.00000000000E+00  0.00000000000E+00  0.45593999997E+02  0.45594000000E+02  0.51100000000E-03 0.  1.
         11   -1    0    0    0    0 -0.00000000000E+00 -0.00000000000E+00 -0.45593999997E+02  0.45594000000E+02  0.51100000000E-03 0. -1.
    9900012    2    1    2    0    0  0.23461867214E+02 -0.11662043646E+02 -0.34600011054E+02  0.47787271433E+02  0.20000001774E+02 0.  0.
        -12    1    1    2    0    0 -0.23461867214E+02  0.11662043646E+02  0.34600011054E+02  0.43400728567E+02  0.00000000000E+00 0.  1.
         11    1    3    3    0    0  0.13854594039E+02 -0.40788521247E+01 -0.21406529219E+02  0.25822980155E+02  0.51100000000E-03 0. -1.
        -11    1    3    3    0    0  0.76398601220E+01 -0.39024737941E+00 -0.10606696791E+01  0.77230030513E+01  0.51100000000E-03 0.  1.
        -12    1    3    3    0    0  0.19674130536E+01 -0.71929441423E+01 -0.12132812155E+02  0.14241288227E+02  0.00000000000E+00 0.  1.
</event>
<event>
 7    1  0.1427898E-010  0.4778726E+02  0.7816164E-02  0.1312668E+00
        -11   -1    0    0    0    0  0.00000000000E+00  0.00000000000E+00  0.45593999997E+02  0.45594000000E+02  0.51100000000E-03 0. -1.
         11   -1    0    0    0    0 -0.00000000000E+00 -0.00000000000E+00 -0.45593999997E+02  0.45594000000E+02  0.51100000000E-03 0.  1.
    9900012    2    1    2    0    0  0.31944204516E+02  0.19394790788E+02  0.22068857244E+02  0.47787256090E+02  0.19999931818E+02 0.  0.
        -12    1    1    2    0    0 -0.31944204516E+02 -0.19394790788E+02 -0.22068857244E+02  0.43400743910E+02  0.00000000000E+00 0.  1.
         11    1    3    3    0    0  0.14869690541E+02  0.60938555963E+01  0.40997025002E+01  0.16584641500E+02  0.51100000000E-03 0. -1.
        -11    1    3    3    0    0  0.46126035802E+01 -0.20892563822E+01  0.67636354317E+01  0.84491341884E+01  0.51100000000E-03 0.  1.
         12    1    3    3    0    0  0.12461910394E+02  0.15390191574E+02  0.11205519312E+02  0.22753480402E+02  0.00000000000E+00 0. -1.
</event>
<event>
 7    1  0.1427898E-010  0.4778727E+02  0.7816164E-02  0.1312668E+00
        -11   -1    0    0    0    0  0.00000000000E+00  0.00000000000E+00  0.45593999997E+02  0.45594000000E+02  0.51100000000E-03 0.  1.
         11   -1    0    0    0    0 -0.00000000000E+00 -0.00000000000E+00 -0.45593999997E+02  0.45594000000E+02  0.51100000000E-03 0. -1.
    9900012    2    1    2    0    0 -0.40775610848E+02  0.54181420687E+01 -0.13842566726E+02  0.47787270086E+02  0.19999995632E+02 0.  0.
        -12    1    1    2    0    0  0.40775610848E+02 -0.54181420687E+01  0.13842566726E+02  0.43400729914E+02  0.00000000000E+00 0.  1.
         11    1    3    3    0    0 -0.11514296676E+02 -0.24402583691E+01 -0.12659156908E+02  0.17285489369E+02  0.51100000000E-03 0. -1.
        -11    1    3    3    0    0 -0.11331743339E+02  0.14029410999E+01 -0.19665333118E+00  0.11419952873E+02  0.51100000000E-03 0.  1.
         12    1    3    3    0    0 -0.17929570833E+02  0.64554593379E+01 -0.98675648711E+00  0.19081827844E+02  0.00000000000E+00 0. -1.
</event>
<event>
 7    1  0.1427898E-010  0.4778727E+02  0.7816164E-02  0.1312668E+00
        -11   -1    0    0    0    0  0.00000000000E+00  0.00000000000E+00  0.45593999997E+02  0.45594000000E+02  0.51100000000E-03 0.  1.
         11   -1    0    0    0    0 -0.00000000000E+00 -0.00000000000E+00 -0.45593999997E+02  0.45594000000E+02  0.51100000000E-03 0. -1.
    9900012    2    1    2    0    0  0.29237789405E+02  0.10646392233E+02 -0.30256062362E+02  0.47787270668E+02  0.19999998285E+02 0.  0.
        -12    1    1    2    0    0 -0.29237789405E+02 -0.10646392233E+02  0.30256062362E+02  0.43400729332E+02  0.00000000000E+00 0.  1.
         11    1    3    3    0    0  0.68712461605E-02  0.17707426419E+01 -0.63687334891E+01  0.66103209630E+01  0.51100000000E-03 0. -1.
        -11    1    3    3    0    0  0.17986458648E+02 -0.15743019023E+01 -0.11068318530E+02  0.21177790171E+02  0.51100000000E-03 0.  1.
         12    1    3    3    0    0  0.11244459511E+02  0.10449951494E+02 -0.12819010343E+02  0.19999159535E+02  0.00000000000E+00 0. -1.
</event>
<event>
 7    1  0.1427898E-010  0.4778727E+02  0.7816164E-02  0.1312668E+00
        -11   -1    0    0    0    0  0.00000000000E+00  0.00000000000E+00  0.45593999997E+02  0.45594000000E+02  0.51100000000E-03 0.  1.
         11   -1    0    0    0    0 -0.00000000000E+00 -0.00000000000E+00 -0.45593999997E+02  0.45594000000E+02  0.51100000000E-03 0. -1.
    9900012    2    1    2    0    0  0.42745877775E+02  0.11050392571E+01  0.74291291949E+01  0.47787272597E+02  0.20000007080E+02 0.  0.
        -12    1    1    2    0    0 -0.42745877775E+02 -0.11050392571E+01 -0.74291291949E+01  0.43400727403E+02  0.00000000000E+00 0.  1.
         11    1    3    3    0    0  0.25013909209E+02 -0.37234011001E+00 -0.54412813406E+00  0.25022597123E+02  0.51100000000E-03 0. -1.
        -11    1    3    3    0    0  0.10013870604E+02  0.66507083308E+01  0.41515956397E+01  0.12717911479E+02  0.51100000000E-03 0.  1.
        -12    1    3    3    0    0  0.77180979618E+01 -0.51733289637E+01  0.38216616892E+01  0.10046763996E+02  0.00000000000E+00 0.  1.
</event>
<event>
 7    1  0.1427898E-010  0.4778729E+02  0.7816164E-02  0.1312668E+00
        -11   -1    0    0    0    0  0.00000000000E+00  0.00000000000E+00  0.45593999997E+02  0.45594000000E+02  0.51100000000E-03 0. -1.
         11   -1    0    0    0    0 -0.00000000000E+00 -0.00000000000E+00 -0.45593999997E+02  0.45594000000E+02  0.51100000000E-03 0.  1.
    9900012    2    1    2    0    0  0.17668001002E+02  0.32579847442E+02 -0.22583554163E+02  0.47787289898E+02  0.20000085959E+02 0.  0.
        -12    1    1    2    0    0 -0.17668001002E+02 -0.32579847442E+02  0.22583554163E+02  0.43400710102E+02  0.00000000000E+00 0.  1.
         11    1    3    3    0    0  0.13190656531E+02  0.14013760106E+02 -0.11814732812E+02  0.22582444591E+02  0.51100000000E-03 0. -1.
        -11    1    3    3    0    0  0.36611149035E+01  0.10601388394E+02  0.67758550577E+00  0.11236205792E+02  0.51100000000E-03 0.  1.
         12    1    3    3    0    0  0.81622956681E+00  0.79646989421E+01 -0.11446406858E+02  0.13968639515E+02  0.00000000000E+00 0. -1.
</event>
<event>
 7    1  0.1427898E-010  0.4778726E+02  0.7816164E-02  0.1312668E+00
        -11   -1    0    0    0    0  0.00000000000E+00  0.00000000000E+00  0.45593999997E+02  0.45594000000E+02  0.51100000000E-03 0.  1.
         11   -1    0    0    0    0 -0.00000000000E+00 -0.00000000000E+00 -0.45593999997E+02  0.45594000000E+02  0.51100000000E-03 0. -1.
    9900012    2    1    2    0    0  0.82093693039E+00  0.22007173596E+02 -0.37398320996E+02  0.47787262213E+02  0.19999959734E+02 0.  0.
        -12    1    1    2    0    0 -0.82093693039E+00 -0.22007173596E+02  0.37398320996E+02  0.43400737787E+02  0.00000000000E+00 0.  1.
         11    1    3    3    0    0 -0.13491025381E+01  0.35056586622E+01 -0.13463709331E+02  0.13977882155E+02  0.51100000000E-03 0. -1.
        -11    1    3    3    0    0 -0.16339085965E+01  0.69828595725E+01 -0.22292109101E+00  0.71749340892E+01  0.51100000000E-03 0.  1.
        -12    1    3    3    0    0  0.38039480650E+01  0.11518655362E+02 -0.23711690574E+02  0.26634445969E+02  0.00000000000E+00 0.  1.
</event>
<event>
 7    1  0.1427898E-010  0.4778727E+02  0.7816164E-02  0.1312668E+00
        -11   -1    0    0    0    0  0.00000000000E+00  0.00000000000E+00  0.45593999997E+02  0.45594000000E+02  0.51100000000E-03 0. -1.
         11   -1    0    0    0    0 -0.00000000000E+00 -0.00000000000E+00 -0.45593999997E+02  0.45594000000E+02  0.51100000000E-03 0.  1.
    9900012    2    1    2    0    0  0.69629953092E+01 -0.39666640685E+02  0.16177074776E+02  0.47787269185E+02  0.19999991524E+02 0.  0.
        -12    1    1    2    0    0 -0.69629953092E+01  0.39666640685E+02 -0.16177074776E+02  0.43400730815E+02  0.00000000000E+00 0.  1.
         11    1    3    3    0    0 -0.33527249547E+01 -0.18955548574E+02  0.11013783979E+02  0.22177849855E+02  0.51100000000E-03 0. -1.
        -11    1    3    3    0    0  0.26303902080E+01 -0.45145951870E+00 -0.13397850502E+01  0.29862673332E+01  0.51100000000E-03 0.  1.
        -12    1    3    3    0    0  0.76853300559E+01 -0.20259632592E+02  0.65030758474E+01  0.22623151998E+02  0.00000000000E+00 0.  1.
</event>
<event>
 7    1  0.1427898E-010  0.4778727E+02  0.7816164E-02  0.1312668E+00
        -11   -1    0    0    0    0  0.00000000000E+00  0.00000000000E+00  0.45593999997E+02  0.45594000000E+02  0.51100000000E-03 0. -1.
         11   -1    0    0    0    0 -0.00000000000E+00 -0.00000000000E+00 -0.45593999997E+02  0.45594000000E+02  0.51100000000E-03 0.  1.
    9900012    2    1    2    0    0 -0.28943372005E+01  0.32494445028E+02  0.28624409618E+02  0.47787274528E+02  0.20000015884E+02 0.  0.
        -12    1    1    2    0    0  0.28943372005E+01 -0.32494445028E+02 -0.28624409618E+02  0.43400725472E+02  0.00000000000E+00 0.  1.
         11    1    3    3    0    0  0.26252999533E+00 -0.10676263050E+01  0.34318606244E+01  0.36036669563E+01  0.51100000000E-03 0. -1.
        -11    1    3    3    0    0  0.28178343168E+01  0.24227141500E+01  0.61847939831E+01  0.72153593787E+01  0.51100000000E-03 0.  1.
         12    1    3    3    0    0 -0.59747015126E+01  0.31139357183E+02  0.19007755011E+02  0.36968248193E+02  0.00000000000E+00 0. -1.
</event>
<event>
 7    1  0.1427898E-010  0.4778727E+02  0.7816164E-02  0.1312668E+00
        -11   -1    0    0    0    0  0.00000000000E+00  0.00000000000E+00  0.45593999997E+02  0.45594000000E+02  0.51100000000E-03 0.  1.
         11   -1    0    0    0    0 -0.00000000000E+00 -0.00000000000E+00 -0.45593999997E+02  0.45594000000E+02  0.51100000000E-03 0. -1.
    9900012    2    1    2    0    0  0.18245780308E+02  0.63495609817E+00 -0.39373995075E+02  0.47787272397E+02  0.20000006165E+02 0.  0.
        -12    1    1    2    0    0 -0.18245780308E+02 -0.63495609817E+00  0.39373995075E+02  0.43400727603E+02  0.00000000000E+00 0.  1.
         11    1    3    3    0    0  0.18389631077E+01 -0.58969220179E+00 -0.49798345877E+00  0.19943695722E+01  0.51100000000E-03 0. -1.
        -11    1    3    3    0    0  0.44443360131E+01  0.45995214542E+01 -0.17346717924E+01  0.66269756823E+01  0.51100000000E-03 0.  1.
         12    1    3    3    0    0  0.11962481188E+02 -0.33748731543E+01 -0.37141339824E+02  0.39165927142E+02  0.00000000000E+00 0. -1.
</event>
<event>
 7    1  0.1427898E-010  0.4778727E+02  0.7816164E-02  0.1312668E+00
        -11   -1    0    0    0    0  0.00000000000E+00  0.00000000000E+00  0.45593999997E+02  0.45594000000E+02  0.51100000000E-03 0. -1.
         11   -1    0    0    0    0 -0.00000000000E+00 -0.00000000000E+00 -0.45593999997E+02  0.45594000000E+02  0.51100000000E-03 0.  1.
    9900012    2    1    2    0    0  0.29654122484E+02 -0.17804482991E+02  0.26215586507E+02  0.47787267624E+02  0.19999984403E+02 0.  0.
        -12    1    1    2    0    0 -0.29654122484E+02  0.17804482991E+02 -0.26215586507E+02  0.43400732376E+02  0.00000000000E+00 0.  1.
         11    1    3    3    0    0  0.12238157062E+00  0.11443872747E+01  0.50734971382E+01  0.52024006916E+01  0.51100000000E-03 0. -1.
        -11    1    3    3    0    0  0.11670353787E+02 -0.53467050711E+01  0.18222240012E+01  0.12965527880E+02  0.51100000000E-03 0.  1.
         12    1    3    3    0    0  0.17861387127E+02 -0.13602165195E+02  0.19319865368E+02  0.29619339052E+02  0.00000000000E+00 0. -1.
</event>
<event>
 7    1  0.1427898E-010  0.4778727E+02  0.7816164E-02  0.1312668E+00
        -11   -1    0    0    0    0  0.00000000000E+00  0.00000000000E+00  0.45593999997E+02  0.45594000000E+02  0.51100000000E-03 0.  1.
         11   -1    0    0    0    0 -0.00000000000E+00 -0.00000000000E+00 -0.45593999997E+02  0.45594000000E+02  0.51100000000E-03 0. -1.
    9900012    2    1    2    0    0 -0.22205172006E+02  0.36159986638E+02  0.91109091103E+01  0.47787274634E+02  0.20000016365E+02 0.  0.
        -12    1    1    2    0    0  0.22205172006E+02 -0.36159986638E+02 -0.91109091103E+01  0.43400725366E+02  0.00000000000E+00 0.  1.
         11    1    3    3    0    0 -0.18120903737E+02  0.26487044004E+02  0.72297446988E+00  0.32100675143E+02  0.51100000000E-03 0. -1.
        -11    1    3    3    0    0  0.18825908859E+01  0.14478384926E+01 -0.19834641781E+00  0.23832176373E+01  0.51100000000E-03 0.  1.
        -12    1    3    3    0    0 -0.59668591556E+01  0.82251041417E+01  0.85862810583E+01  0.13303381853E+02  0.00000000000E+00 0.  1.
</event>
<event>
 7    1  0.1427898E-010  0.4778727E+02  0.7816164E-02  0.1312668E+00
        -11   -1    0    0    0    0  0.00000000000E+00  0.00000000000E+00  0.45593999997E+02  0.45594000000E+02  0.51100000000E-03 0.  1.
         11   -1    0    0    0    0 -0.00000000000E+00 -0.00000000000E+00 -0.45593999997E+02  0.45594000000E+02  0.51100000000E-03 0. -1.
    9900012    2    1    2    0    0 -0.38928315627E+02 -0.11306396592E+02 -0.15504025551E+02  0.47787272245E+02  0.20000005472E+02 0.  0.
        -12    1    1    2    0    0  0.38928315627E+02  0.11306396592E+02  0.15504025551E+02  0.43400727755E+02  0.00000000000E+00 0.  1.
         11    1    3    3    0    0 -0.13679784597E+02  0.96738061796E+00 -0.52547701461E+01  0.14686216036E+02  0.51100000000E-03 0. -1.
        -11    1    3    3    0    0 -0.19869679486E+02 -0.21203982286E+01 -0.66722552308E+01  0.21067017863E+02  0.51100000000E-03 0.  1.
        -12    1    3    3    0    0 -0.53788515430E+01 -0.10153378981E+02 -0.35770001740E+01  0.12034038346E+02  0.00000000000E+00 0.  1.
</event>
<event>
 7    1  0.1427898E-010  0.4778728E+02  0.7816164E-02  0.1312668E+00
        -11   -1    0    0    0    0  0.00000000000E+00  0.00000000000E+00  0.45593999997E+02  0.45594000000E+02  0.51100000000E-03 0. -1.
         11   -1    0    0    0    0 -0.00000000000E+00 -0.00000000000E+00 -0.45593999997E+02  0.45594000000E+02  0.51100000000E-03 0.  1.
    9900012    2    1    2    0    0  0.30360899722E+02 -0.11190368129E-01  0.31013522336E+02  0.47787275066E+02  0.20000018334E+02 0.  0.
        -12    1    1    2    0    0 -0.30360899722E+02  0.11190368129E-01 -0.31013522336E+02  0.43400724934E+02  0.00000000000E+00 0.  1.
         11    1    3    3    0    0  0.42376153000E+01 -0.14645950961E+01  0.58357700230E+01  0.73592550064E+01  0.51100000000E-03 0. -1.
        -11    1    3    3    0    0 -0.21765424069E+01 -0.34892465623E+00 -0.39922117963E+00  0.22401926426E+01  0.51100000000E-03 0.  1.
        -12    1    3    3    0    0  0.28299826829E+02  0.18023293842E+01  0.25576973493E+02  0.38187827417E+02  0.00000000000E+00 0.  1.
</event>
<event>
 7    1  0.1427898E-010  0.4778728E+02  0.7816164E-02  0.1312668E+00
        -11   -1    0    0    0    0  0.00000000000E+00  0.00000000000E+00  0.45593999997E+02  0.45594000000E+02  0.51100000000E-03 0.  1.
         11   -1    0    0    0    0 -0.00000000000E+00 -0.00000000000E+00 -0.45593999997E+02  0.45594000000E+02  0.51100000000E-03 0. -1.
    9900012    2    1    2    0    0  0.20720435580E+02 -0.77900007016E+01 -0.37330981201E+02  0.47787277437E+02  0.20000029146E+02 0.  0.
        -12    1    1    2    0    0 -0.20720435580E+02  0.77900007016E+01  0.37330981201E+02  0.43400722563E+02  0.00000000000E+00 0.  1.
         11    1    3    3    0    0  0.17011624933E+02 -0.63242827747E+01 -0.19043233560E+02  0.26306590051E+02  0.51100000000E-03 0. -1.
        -11    1    3    3    0    0 -0.30681161894E+00 -0.43728255502E+01 -0.27583917386E+01  0.51792337182E+01  0.51100000000E-03 0.  1.
        -12    1    3    3    0    0  0.40156222667E+01  0.29071076234E+01 -0.15529355902E+02  0.16301453667E+02  0.00000000000E+00 0.  1.
</event>
<event>
 7    1  0.1427898E-010  0.4778727E+02  0.7816164E-02  0.1312668E+00
        -11   -1    0    0    0    0  0.00000000000E+00  0.00000000000E+00  0.45593999997E+02  0.45594000000E+02  0.51100000000E-03 0.  1.
         11   -1    0    0    0    0 -0.00000000000E+00 -0.00000000000E+00 -0.45593999997E+02  0.45594000000E+02  0.51100000000E-03 0. -1.
    9900012    2    1    2    0    0  0.29216691544E+02  0.28158355457E+02 -0.15398542303E+02  0.47787272450E+02  0.20000006410E+02 0.  0.
        -12    1    1    2    0    0 -0.29216691544E+02 -0.28158355457E+02  0.15398542303E+02  0.43400727550E+02  0.00000000000E+00 0.  1.
         11    1    3    3    0    0  0.40624020487E+01  0.99379782603E+00 -0.39237293713E+01  0.57346662470E+01  0.51100000000E-03 0. -1.
        -11    1    3    3    0    0  0.17640001102E+02  0.70735572695E+01 -0.55483033118E+01  0.19798699988E+02  0.51100000000E-03 0.  1.
         12    1    3    3    0    0  0.75142883934E+01  0.20091000361E+02 -0.59265096200E+01  0.22253906216E+02  0.00000000000E+00 0. -1.
</event>
<event>
 7    1  0.1427898E-010  0.4778727E+02  0.7816164E-02  0.1312668E+00
        -11   -1    0    0    0    0  0.00000000000E+00  0.00000000000E+00  0.45593999997E+02  0.45594000000E+02  0.51100000000E-03 0.  1.
         11   -1    0    0    0    0 -0.00000000000E+00 -0.00000000000E+00 -0.45593999997E+02  0.45594000000E+02  0.51100000000E-03 0. -1.
    9900012    2    1    2    0    0 -0.33370775214E+00  0.16710040936E+02 -0.40053544741E+02  0.47787271028E+02  0.19999999926E+02 0.  0.
        -12    1    1    2    0    0  0.33370775214E+00 -0.16710040936E+02  0.40053544741E+02  0.43400728972E+02  0.00000000000E+00 0.  1.
         11    1    3    3    0    0 -0.64691165187E+01  0.32179058251E+01 -0.22032157470E+02  0.23186641617E+02  0.51100000000E-03 0. -1.
        -11    1    3    3    0    0  0.41400867529E+01  0.12422880878E+01 -0.50693494287E+01  0.66619743249E+01  0.51100000000E-03 0.  1.
        -12    1    3    3    0    0  0.19953220137E+01  0.12249847023E+02 -0.12952037842E+02  0.17938655086E+02  0.00000000000E+00 0.  1.
</event>
<event>
 7    1  0.1427898E-010  0.4778727E+02  0.7816164E-02  0.1312668E+00
        -11   -1    0    0    0    0  0.00000000000E+00  0.00000000000E+00  0.45593999997E+02  0.45594000000E+02  0.51100000000E-03 0.  1.
         11   -1    0    0    0    0 -0.00000000000E+00 -0.00000000000E+00 -0.45593999997E+02  0.45594000000E+02  0.51100000000E-03 0. -1.
    9900012    2    1    2    0    0  0.42578568233E+02  0.49124536561E+01 -0.68232593603E+01  0.47787267956E+02  0.19999985917E+02 0.  0.
        -12    1    1    2    0    0 -0.42578568233E+02 -0.49124536561E+01  0.68232593603E+01  0.43400732044E+02  0.00000000000E+00 0.  1.
         11    1    3    3    0    0  0.16555496186E+02 -0.68119539654E+00  0.44209283088E+01  0.17149142500E+02  0.51100000000E-03 0. -1.
        -11    1    3    3    0    0  0.53959905471E+00  0.18916763448E+01 -0.30229707394E+01  0.36066548054E+01  0.51100000000E-03 0.  1.
         12    1    3    3    0    0  0.25483472993E+02  0.37019727078E+01 -0.82212169297E+01  0.27031470650E+02  0.00000000000E+00 0. -1.
</event>
<event>
 7    1  0.1427898E-010  0.4778727E+02  0.7816164E-02  0.1312668E+00
        -11   -1    0    0    0    0  0.00000000000E+00  0.00000000000E+00  0.45593999997E+02  0.45594000000E+02  0.51100000000E-03 0.  1.
         11   -1    0    0    0    0 -0.00000000000E+00 -0.00000000000E+00 -0.45593999997E+02  0.45594000000E+02  0.51100000000E-03 0. -1.
    9900012    2    1    2    0    0  0.22900037596E+02  0.32498457367E+02 -0.17408671277E+02  0.47787270873E+02  0.19999999219E+02 0.  0.
        -12    1    1    2    0    0 -0.22900037596E+02 -0.32498457367E+02  0.17408671277E+02  0.43400729127E+02  0.00000000000E+00 0.  1.
         11    1    3    3    0    0  0.12376098455E+02  0.43732696192E+01 -0.75731929848E+01  0.15154093585E+02  0.51100000000E-03 0. -1.
        -11    1    3    3    0    0 -0.12546490558E+01  0.51026714245E+01 -0.17263631509E+01  0.55309791095E+01  0.51100000000E-03 0.  1.
         12    1    3    3    0    0  0.11778588197E+02  0.23022516323E+02 -0.81091151414E+01  0.27102198179E+02  0.00000000000E+00 0. -1.
</event>
<event>
 7    1  0.1427898E-010  0.4778727E+02  0.7816164E-02  0.1312668E+00
        -11   -1    0    0    0    0  0.00000000000E+00  0.00000000000E+00  0.45593999997E+02  0.45594000000E+02  0.51100000000E-03 0. -1.
         11   -1    0    0    0    0 -0.00000000000E+00 -0.00000000000E+00 -0.45593999997E+02  0.45594000000E+02  0.51100000000E-03 0.  1.
    9900012    2    1    2    0    0  0.27802555383E+02  0.32367051333E+02  0.79382196393E+01  0.47787269259E+02  0.19999991859E+02 0.  0.
        -12    1    1    2    0    0 -0.27802555383E+02 -0.32367051333E+02 -0.79382196393E+01  0.43400730741E+02  0.00000000000E+00 0.  1.
         11    1    3    3    0    0  0.64998375422E+01  0.54948724795E+01 -0.23630255697E+01  0.88331988399E+01  0.51100000000E-03 0. -1.
        -11    1    3    3    0    0  0.32652886001E+01  0.88414153698E+01  0.95810520536E+01  0.13439839809E+02  0.51100000000E-03 0.  1.
        -12    1    3    3    0    0  0.18037429241E+02  0.18030763484E+02  0.72019315539E+00  0.25514230610E+02  0.00000000000E+00 0.  1.
</event>
<event>
 7    1  0.1427898E-010  0.4778727E+02  0.7816164E-02  0.1312668E+00
        -11   -1    0    0    0    0  0.00000000000E+00  0.00000000000E+00  0.45593999997E+02  0.45594000000E+02  0.51100000000E-03 0.  1.
         11   -1    0    0    0    0 -0.00000000000E+00 -0.00000000000E+00 -0.45593999997E+02  0.45594000000E+02  0.51100000000E-03 0. -1.
    9900012    2    1    2    0    0 -0.99483457914E+01  0.19307683647E+02 -0.37574819655E+02  0.47787270698E+02  0.19999998421E+02 0.  0.
        -12    1    1    2    0    0  0.99483457914E+01 -0.19307683647E+02  0.37574819655E+02  0.43400729302E+02  0.00000000000E+00 0.  1.
         11    1    3    3    0    0 -0.91318240507E+01  0.40627124917E+01 -0.87243316718E+01  0.13266868759E+02  0.51100000000E-03 0. -1.
        -11    1    3    3    0    0 -0.60580259654E-01 -0.15598042711E+01 -0.56599905579E+01  0.58712990648E+01  0.51100000000E-03 0.  1.
        -12    1    3    3    0    0 -0.75594148105E+00  0.16804775426E+02 -0.23190497426E+02  0.28649102875E+02  0.00000000000E+00 0.  1.
</event>
<event>
 7    1  0.1427898E-010  0.4778727E+02  0.7816164E-02  0.1312668E+00
        -11   -1    0    0    0    0  0.00000000000E+00  0.00000000000E+00  0.45593999997E+02  0.45594000000E+02  0.51100000000E-03 0.  1.
         11   -1    0    0    0    0 -0.00000000000E+00 -0.00000000000E+00 -0.45593999997E+02  0.45594000000E+02  0.51100000000E-03 0. -1.
    9900012    2    1    2    0    0  0.36298398325E+02  0.20372628235E+02  0.12288446739E+02  0.47787266994E+02  0.19999981533E+02 0.  0.
        -12    1    1    2    0    0 -0.36298398325E+02 -0.20372628235E+02 -0.12288446739E+02  0.43400733006E+02  0.00000000000E+00 0.  1.
         11    1    3    3    0    0  0.86095200511E+01  0.38727760962E+00  0.59586803466E+01  0.10477580407E+02  0.51100000000E-03 0. -1.
        -11    1    3    3    0    0  0.15474841364E+02  0.15690957488E+02  0.94711084579E+01  0.23987053963E+02  0.51100000000E-03 0.  1.
         12    1    3    3    0    0  0.12214036910E+02  0.42943931372E+01 -0.31413420657E+01  0.13322632624E+02  0.00000000000E+00 0. -1.
</event>
<event>
 7    1  0.1427898E-010  0.4778727E+02  0.7816164E-02  0.1312668E+00
        -11   -1    0    0    0    0  0.00000000000E+00  0.00000000000E+00  0.45593999997E+02  0.45594000000E+02  0.51100000000E-03 0.  1.
         11   -1    0    0    0    0 -0.00000000000E+00 -0.00000000000E+00 -0.45593999997E+02  0.45594000000E+02  0.51100000000E-03 0. -1.
    9900012    2    1    2    0    0  0.39411805744E+02 -0.14816249842E+02  0.10526695374E+02  0.47787274120E+02  0.20000014024E+02 0.  0.
        -12    1    1    2    0    0 -0.39411805744E+02  0.14816249842E+02 -0.10526695374E+02  0.43400725880E+02  0.00000000000E+00 0.  1.
         11    1    3    3    0    0  0.10130070717E+02 -0.80603832503E-01 -0.69654385557E+00  0.10154309593E+02  0.51100000000E-03 0. -1.
        -11    1    3    3    0    0  0.98350998794E+01 -0.30411454098E+01  0.10823372608E+02  0.14937307318E+02  0.51100000000E-03 0.  1.
        -12    1    3    3    0    0  0.19446635147E+02 -0.11694500600E+02  0.39986662149E+00  0.22695657209E+02  0.00000000000E+00 0.  1.
</event>
<event>
 7    1  0.1427898E-010  0.4778727E+02  0.7816164E-02  0.1312668E+00
        -11   -1    0    0    0    0  0.00000000000E+00  0.00000000000E+00  0.45593999997E+02  0.45594000000E+02  0.51100000000E-03 0.  1.
         11   -1    0    0    0    0 -0.00000000000E+00 -0.00000000000E+00 -0.45593999997E+02  0.45594000000E+02  0.51100000000E-03 0. -1.
    9900012    2    1    2    0    0 -0.16776779444E+02 -0.16216751979E+02 -0.36594805738E+02  0.47787272122E+02  0.20000004914E+02 0.  0.
        -12    1    1    2    0    0  0.16776779444E+02  0.16216751979E+02  0.36594805738E+02  0.43400727878E+02  0.00000000000E+00 0.  1.
         11    1    3    3    0    0 -0.18192874231E+02 -0.83806878114E+01 -0.31586116858E+02  0.37401863315E+02  0.51100000000E-03 0. -1.
        -11    1    3    3    0    0 -0.11055508360E+01 -0.29781375666E+01 -0.34653060139E+00  0.31955640715E+01  0.51100000000E-03 0.  1.
         12    1    3    3    0    0  0.25216456226E+01 -0.48579266014E+01 -0.46621582789E+01  0.71898447360E+01  0.00000000000E+00 0. -1.
</event>
<event>
 7    1  0.1427898E-010  0.4778727E+02  0.7816164E-02  0.1312668E+00
        -11   -1    0    0    0    0  0.00000000000E+00  0.00000000000E+00  0.45593999997E+02  0.45594000000E+02  0.51100000000E-03 0.  1.
         11   -1    0    0    0    0 -0.00000000000E+00 -0.00000000000E+00 -0.45593999997E+02  0.45594000000E+02  0.51100000000E-03 0. -1.
    9900012    2    1    2    0    0 -0.40578819213E+02 -0.83506555526E+01 -0.12932481703E+02  0.47787273049E+02  0.20000009140E+02 0.  0.
        -12    1    1    2    0    0  0.40578819213E+02  0.83506555526E+01  0.12932481703E+02  0.43400726951E+02  0.00000000000E+00 0.  1.
         11    1    3    3    0    0 -0.36384016149E+02 -0.12228603868E+02 -0.97066307423E+01  0.39592348557E+02  0.51100000000E-03 0. -1.
        -11    1    3    3    0    0 -0.53162611779E+01  0.30497403955E+01 -0.24589812261E+01  0.66037972655E+01  0.51100000000E-03 0.  1.
        -12    1    3    3    0    0  0.11214581140E+01  0.82820791977E+00 -0.76686973507E+00  0.15911272263E+01  0.00000000000E+00 0.  1.
</event>
<event>
 7    1  0.1427898E-010  0.4778728E+02  0.7816164E-02  0.1312668E+00
        -11   -1    0    0    0    0  0.00000000000E+00  0.00000000000E+00  0.45593999997E+02  0.45594000000E+02  0.51100000000E-03 0. -1.
         11   -1    0    0    0    0 -0.00000000000E+00 -0.00000000000E+00 -0.45593999997E+02  0.45594000000E+02  0.51100000000E-03 0.  1.
    9900012    2    1    2    0    0  0.13269090776E+02  0.40568549236E+02  0.78579174746E+01  0.47787276226E+02  0.20000023624E+02 0.  0.
        -12    1    1    2    0    0 -0.13269090776E+02 -0.40568549236E+02 -0.78579174746E+01  0.43400723774E+02  0.00000000000E+00 0.  1.
         11    1    3    3    0    0  0.84123425501E+01  0.10023714227E+02  0.39054120244E+00  0.13091786615E+02  0.51100000000E-03 0. -1.
        -11    1    3    3    0    0 -0.27161290780E+01  0.38549707964E+00  0.10943455414E+01  0.29535669269E+01  0.51100000000E-03 0.  1.
         12    1    3    3    0    0  0.75728773037E+01  0.30159337929E+02  0.63730307308E+01  0.31741922683E+02  0.00000000000E+00 0. -1.
</event>
<event>
 7    1  0.1427898E-010  0.4778727E+02  0.7816164E-02  0.1312668E+00
        -11   -1    0    0    0    0  0.00000000000E+00  0.00000000000E+00  0.45593999997E+02  0.45594000000E+02  0.51100000000E-03 0.  1.
         11   -1    0    0    0    0 -0.00000000000E+00 -0.00000000000E+00 -0.45593999997E+02  0.45594000000E+02  0.51100000000E-03 0. -1.
    9900012    2    1    2    0    0 -0.57348031360E+01  0.32562720508E+02 -0.28114128547E+02  0.47787274685E+02  0.20000016600E+02 0.  0.
        -12    1    1    2    0    0  0.57348031360E+01 -0.32562720508E+02  0.28114128547E+02  0.43400725315E+02  0.00000000000E+00 0.  1.
         11    1    3    3    0    0 -0.90535683507E+01  0.14590124474E+02 -0.75400149376E+01  0.18753417224E+02  0.51100000000E-03 0. -1.
        -11    1    3    3    0    0  0.98717120628E+00 -0.95365488767E+00 -0.18984604980E+01  0.23426730798E+01  0.51100000000E-03 0.  1.
        -12    1    3    3    0    0  0.23315940085E+01  0.18926250922E+02 -0.18675653111E+02  0.26691184382E+02  0.00000000000E+00 0.  1.
</event>
<event>
 7    1  0.1427898E-010  0.4778727E+02  0.7816164E-02  0.1312668E+00
        -11   -1    0    0    0    0  0.00000000000E+00  0.00000000000E+00  0.45593999997E+02  0.45594000000E+02  0.51100000000E-03 0.  1.
         11   -1    0    0    0    0 -0.00000000000E+00 -0.00000000000E+00 -0.45593999997E+02  0.45594000000E+02  0.51100000000E-03 0. -1.
    9900012    2    1    2    0    0 -0.31882288247E+02 -0.27780208827E+02 -0.97674424715E+01  0.47787271448E+02  0.20000001842E+02 0.  0.
        -12    1    1    2    0    0  0.31882288247E+02  0.27780208827E+02  0.97674424715E+01  0.43400728552E+02  0.00000000000E+00 0.  1.
         11    1    3    3    0    0 -0.16193576305E+02 -0.19238553648E+02  0.14939231635E+01  0.25190983837E+02  0.51100000000E-03 0.  1.
        -11    1    3    3    0    0 -0.14913040182E+02 -0.96722841839E+01 -0.89312419564E+01  0.19892685388E+02  0.51100000000E-03 0. -1.
        -12    1    3    3    0    0 -0.77567176143E+00  0.11306290046E+01 -0.23301236786E+01  0.27036022239E+01  0.00000000000E+00 0.  1.
</event>
<event>
 7    1  0.1427898E-010  0.4778723E+02  0.7816164E-02  0.1312668E+00
        -11   -1    0    0    0    0  0.00000000000E+00  0.00000000000E+00  0.45593999997E+02  0.45594000000E+02  0.51100000000E-03 0.  1.
         11   -1    0    0    0    0 -0.00000000000E+00 -0.00000000000E+00 -0.45593999997E+02  0.45594000000E+02  0.51100000000E-03 0. -1.
    9900012    2    1    2    0    0 -0.36521494785E+02  0.23436160121E+02 -0.74409537992E+00  0.47787229725E+02  0.19999811605E+02 0.  0.
        -12    1    1    2    0    0  0.36521494785E+02 -0.23436160121E+02  0.74409537992E+00  0.43400770275E+02  0.00000000000E+00 0.  1.
         11    1    3    3    0    0  0.15963296642E+01  0.89577778254E+00 -0.48321906589E+00  0.18931949607E+01  0.51100000000E-03 0. -1.
        -11    1    3    3    0    0 -0.15250757001E+02  0.11136914513E+02  0.55618149236E+01  0.19686295728E+02  0.51100000000E-03 0.  1.
        -12    1    3    3    0    0 -0.22867067449E+02  0.11403467825E+02 -0.58226912376E+01  0.26207739036E+02  0.00000000000E+00 0.  1.
</event>
<event>
 7    1  0.1427898E-010  0.4778727E+02  0.7816164E-02  0.1312668E+00
        -11   -1    0    0    0    0  0.00000000000E+00  0.00000000000E+00  0.45593999997E+02  0.45594000000E+02  0.51100000000E-03 0.  1.
         11   -1    0    0    0    0 -0.00000000000E+00 -0.00000000000E+00 -0.45593999997E+02  0.45594000000E+02  0.51100000000E-03 0. -1.
    9900012    2    1    2    0    0 -0.30216155624E+02  0.27376093017E+02 -0.14871343608E+02  0.47787269704E+02  0.19999993889E+02 0.  0.
        -12    1    1    2    0    0  0.30216155624E+02 -0.27376093017E+02  0.14871343608E+02  0.43400730296E+02  0.00000000000E+00 0.  1.
         11    1    3    3    0    0 -0.93888521728E+01  0.46794055135E+01 -0.11347775081E+02  0.15453782082E+02  0.51100000000E-03 0. -1.
        -11    1    3    3    0    0 -0.17802428710E+02  0.17223862074E+02 -0.61949911517E+01  0.25533621137E+02  0.51100000000E-03 0.  1.
        -12    1    3    3    0    0 -0.30248747404E+01  0.54728254291E+01  0.26714226254E+01  0.67998664852E+01  0.00000000000E+00 0.  1.
</event>
<event>
 7    1  0.1427898E-010  0.4778727E+02  0.7816164E-02  0.1312668E+00
        -11   -1    0    0    0    0  0.00000000000E+00  0.00000000000E+00  0.45593999997E+02  0.45594000000E+02  0.51100000000E-03 0.  1.
         11   -1    0    0    0    0 -0.00000000000E+00 -0.00000000000E+00 -0.45593999997E+02  0.45594000000E+02  0.51100000000E-03 0. -1.
    9900012    2    1    2    0    0 -0.91259495042E+00 -0.28904979171E-02 -0.43391133466E+02  0.47787270728E+02  0.19999998557E+02 0.  0.
        -12    1    1    2    0    0  0.91259495042E+00  0.28904979171E-02  0.43391133466E+02  0.43400729272E+02  0.00000000000E+00 0.  1.
         11    1    3    3    0    0 -0.30780228223E+01 -0.46827561824E+01 -0.39846161820E+02  0.40238278318E+02  0.51100000000E-03 0. -1.
        -11    1    3    3    0    0 -0.60820769642E+00  0.33776586411E+00  0.61370330797E+00  0.92770382788E+00  0.51100000000E-03 0.  1.
         12    1    3    3    0    0  0.27736355683E+01  0.43420998204E+01 -0.41586749539E+01  0.66212885821E+01  0.00000000000E+00 0. -1.
</event>
<event>
 7    1  0.1427898E-010  0.4778727E+02  0.7816164E-02  0.1312668E+00
        -11   -1    0    0    0    0  0.00000000000E+00  0.00000000000E+00  0.45593999997E+02  0.45594000000E+02  0.51100000000E-03 0.  1.
         11   -1    0    0    0    0 -0.00000000000E+00 -0.00000000000E+00 -0.45593999997E+02  0.45594000000E+02  0.51100000000E-03 0. -1.
    9900012    2    1    2    0    0  0.39596318449E+02  0.16991947109E+02 -0.51989019921E+01  0.47787270937E+02  0.19999999512E+02 0.  0.
        -12    1    1    2    0    0 -0.39596318449E+02 -0.16991947109E+02  0.51989019921E+01  0.43400729063E+02  0.00000000000E+00 0.  1.
         11    1    3    3    0    0  0.10056331092E+02  0.86031933404E+01  0.41817194342E+01  0.13879175349E+02  0.51100000000E-03 0.  1.
        -11    1    3    3    0    0  0.13875082775E+02  0.82123461986E+01 -0.10315211638E+01  0.16156255392E+02  0.51100000000E-03 0. -1.
        -12    1    3    3    0    0  0.15664904581E+02  0.17640756974E+00 -0.83491002625E+01  0.17751840196E+02  0.00000000000E+00 0.  1.
</event>
<event>
 7    1  0.1427898E-010  0.4778727E+02  0.7816164E-02  0.1312668E+00
        -11   -1    0    0    0    0  0.00000000000E+00  0.00000000000E+00  0.45593999997E+02  0.45594000000E+02  0.51100000000E-03 0. -1.
         11   -1    0    0    0    0 -0.00000000000E+00 -0.00000000000E+00 -0.45593999997E+02  0.45594000000E+02  0.51100000000E-03 0.  1.
    9900012    2    1    2    0    0 -0.99862963637E+01  0.18942989948E+02  0.37749969502E+02  0.47787272119E+02  0.20000004898E+02 0.  0.
        -12    1    1    2    0    0  0.99862963637E+01 -0.18942989948E+02 -0.37749969502E+02  0.43400727881E+02  0.00000000000E+00 0.  1.
         11    1    3    3    0    0  0.39696354406E+01 -0.41990775574E+00  0.75909162746E+01  0.85764991812E+01  0.51100000000E-03 0.  1.
        -11    1    3    3    0    0 -0.58391767744E+01  0.33474100133E+01  0.54132741042E+01  0.86373998395E+01  0.51100000000E-03 0. -1.
        -12    1    3    3    0    0 -0.81167550300E+01  0.16015487690E+02  0.24745779123E+02  0.30573373098E+02  0.00000000000E+00 0.  1.
</event>
<event>
 7    1  0.1427898E-010  0.4778727E+02  0.7816164E-02  0.1312668E+00
        -11   -1    0    0    0    0  0.00000000000E+00  0.00000000000E+00  0.45593999997E+02  0.45594000000E+02  0.51100000000E-03 0. -1.
         11   -1    0    0    0    0 -0.00000000000E+00 -0.00000000000E+00 -0.45593999997E+02  0.45594000000E+02  0.51100000000E-03 0.  1.
    9900012    2    1    2    0    0 -0.27434565915E+02 -0.29090021082E+02 -0.16874198758E+02  0.47787270545E+02  0.19999997725E+02 0.  0.
        -12    1    1    2    0    0  0.27434565915E+02  0.29090021082E+02  0.16874198758E+02  0.43400729455E+02  0.00000000000E+00 0.  1.
         11    1    3    3    0    0 -0.12867442699E+02 -0.89278599606E+01 -0.48186860316E+01  0.16385893336E+02  0.51100000000E-03 0. -1.
        -11    1    3    3    0    0  0.24886731725E+01 -0.16704079347E+01 -0.39763196919E+01  0.49794452885E+01  0.51100000000E-03 0.  1.
         12    1    3    3    0    0 -0.17055796388E+02 -0.18491753187E+02 -0.80791930341E+01  0.26421931921E+02  0.00000000000E+00 0. -1.
</event>
<event>
 7    1  0.1427898E-010  0.4778727E+02  0.7816164E-02  0.1312668E+00
        -11   -1    0    0    0    0  0.00000000000E+00  0.00000000000E+00  0.45593999997E+02  0.45594000000E+02  0.51100000000E-03 0. -1.
         11   -1    0    0    0    0 -0.00000000000E+00 -0.00000000000E+00 -0.45593999997E+02  0.45594000000E+02  0.51100000000E-03 0.  1.
    9900012    2    1    2    0    0 -0.41997040579E+02  0.91563276098E+01 -0.60028127016E+01  0.47787268289E+02  0.19999987439E+02 0.  0.
        -12    1    1    2    0    0  0.41997040579E+02 -0.91563276098E+01  0.60028127016E+01  0.43400731711E+02  0.00000000000E+00 0.  1.
         11    1    3    3    0    0 -0.45761518084E+01  0.52474637098E+01 -0.45991186989E+01  0.83443953541E+01  0.51100000000E-03 0. -1.
        -11    1    3    3    0    0 -0.14866484566E+02  0.62985557125E+01 -0.39438826641E+01  0.16620420516E+02  0.51100000000E-03 0.  1.
         12    1    3    3    0    0 -0.22554404205E+02 -0.23896918124E+01  0.25401886614E+01  0.22822452419E+02  0.00000000000E+00 0. -1.
</event>
<event>
 7    1  0.1427898E-010  0.4778731E+02  0.7816164E-02  0.1312668E+00
        -11   -1    0    0    0    0  0.00000000000E+00  0.00000000000E+00  0.45593999997E+02  0.45594000000E+02  0.51100000000E-03 0.  1.
         11   -1    0    0    0    0 -0.00000000000E+00 -0.00000000000E+00 -0.45593999997E+02  0.45594000000E+02  0.51100000000E-03 0. -1.
    9900012    2    1    2    0    0 -0.72752610712E+01  0.34658338029E+02 -0.25089639665E+02  0.47787310638E+02  0.20000180522E+02 0.  0.
        -12    1    1    2    0    0  0.72752610712E+01 -0.34658338029E+02  0.25089639665E+02  0.43400689362E+02  0.00000000000E+00 0.  1.
         11    1    3    3    0    0 -0.13645490667E+00  0.46282905316E+01  0.65700953722E+00  0.46766820482E+01  0.51100000000E-03 0. -1.
        -11    1    3    3    0    0  0.40453742217E+01  0.88465118411E+01 -0.32711534069E+01  0.10262858726E+02  0.51100000000E-03 0.  1.
         12    1    3    3    0    0 -0.11184180386E+02  0.21183535656E+02 -0.22475495795E+02  0.32847769864E+02  0.00000000000E+00 0. -1.
</event>
<event>
 7    1  0.1427898E-010  0.4778728E+02  0.7816164E-02  0.1312668E+00
        -11   -1    0    0    0    0  0.00000000000E+00  0.00000000000E+00  0.45593999997E+02  0.45594000000E+02  0.51100000000E-03 0. -1.
         11   -1    0    0    0    0 -0.00000000000E+00 -0.00000000000E+00 -0.45593999997E+02  0.45594000000E+02  0.51100000000E-03 0.  1.
    9900012    2    1    2    0    0  0.32774158159E+01  0.11869509955E+01  0.43260514910E+02  0.47787280451E+02  0.20000042886E+02 0.  0.
        -12    1    1    2    0    0 -0.32774158159E+01 -0.11869509955E+01 -0.43260514910E+02  0.43400719549E+02  0.00000000000E+00 0.  1.
         11    1    3    3    0    0  0.78030113384E+00  0.42833598584E+01  0.22938621819E+01  0.49211630238E+01  0.51100000000E-03 0. -1.
        -11    1    3    3    0    0 -0.33917668913E+00 -0.23556057414E+01  0.68302911571E+00  0.24759742061E+01  0.51100000000E-03 0.  1.
         12    1    3    3    0    0  0.28362913712E+01 -0.74080312153E+00  0.40283623613E+02  0.40390143221E+02  0.00000000000E+00 0. -1.
</event>
<event>
 7    1  0.1427898E-010  0.4778727E+02  0.7816164E-02  0.1312668E+00
        -11   -1    0    0    0    0  0.00000000000E+00  0.00000000000E+00  0.45593999997E+02  0.45594000000E+02  0.51100000000E-03 0.  1.
         11   -1    0    0    0    0 -0.00000000000E+00 -0.00000000000E+00 -0.45593999997E+02  0.45594000000E+02  0.51100000000E-03 0. -1.
    9900012    2    1    2    0    0  0.23344780562E+02  0.19010990761E+02 -0.31260624887E+02  0.47787271694E+02  0.20000002961E+02 0.  0.
        -12    1    1    2    0    0 -0.23344780562E+02 -0.19010990761E+02  0.31260624887E+02  0.43400728306E+02  0.00000000000E+00 0.  1.
         11    1    3    3    0    0  0.78912703073E+01  0.30664628228E+01 -0.10387584173E+02  0.13400643511E+02  0.51100000000E-03 0.  1.
        -11    1    3    3    0    0  0.21008612339E+01  0.13192801900E+02 -0.76509995886E+01  0.15394850921E+02  0.51100000000E-03 0. -1.
         12    1    3    3    0    0  0.13352649020E+02  0.27517260377E+01 -0.13222041126E+02  0.18991777262E+02  0.00000000000E+00 0. -1.
</event>
<event>
 7    1  0.1427898E-010  0.4778727E+02  0.7816164E-02  0.1312668E+00
        -11   -1    0    0    0    0  0.00000000000E+00  0.00000000000E+00  0.45593999997E+02  0.45594000000E+02  0.51100000000E-03 0.  1.
         11   -1    0    0    0    0 -0.00000000000E+00 -0.00000000000E+00 -0.45593999997E+02  0.45594000000E+02  0.51100000000E-03 0. -1.
    9900012    2    1    2    0    0  0.30810576312E+02  0.18349007384E+02 -0.24446788676E+02  0.47787272342E+02  0.20000005916E+02 0.  0.
        -12    1    1    2    0    0 -0.30810576312E+02 -0.18349007384E+02  0.24446788676E+02  0.43400727658E+02  0.00000000000E+00 0.  1.
         11    1    3    3    0    0  0.42256349227E+01  0.75263497464E+00 -0.57371469482E+01  0.71650056017E+01  0.51100000000E-03 0. -1.
        -11    1    3    3    0    0  0.14584992386E+02  0.17314809834E+02 -0.66226664615E+01  0.23587800953E+02  0.51100000000E-03 0.  1.
         12    1    3    3    0    0  0.11999949003E+02  0.28156257577E+00 -0.12086975267E+02  0.17034465787E+02  0.00000000000E+00 0. -1.
</event>
<event>
 7    1  0.1427898E-010  0.4778727E+02  0.7816164E-02  0.1312668E+00
        -11   -1    0    0    0    0  0.00000000000E+00  0.00000000000E+00  0.45593999997E+02  0.45594000000E+02  0.51100000000E-03 0. -1.
         11   -1    0    0    0    0 -0.00000000000E+00 -0.00000000000E+00 -0.45593999997E+02  0.45594000000E+02  0.51100000000E-03 0.  1.
    9900012    2    1    2    0    0  0.94452367470E+00 -0.14709579231E+02  0.40821064844E+02  0.47787272113E+02  0.20000004872E+02 0.  0.
        -12    1    1    2    0    0 -0.94452367470E+00  0.14709579231E+02 -0.40821064844E+02  0.43400727887E+02  0.00000000000E+00 0.  1.
         11    1    3    3    0    0  0.27486041774E+01 -0.10738241587E+01  0.34165923586E+01  0.45145350651E+01  0.51100000000E-03 0. -1.
        -11    1    3    3    0    0  0.73692364050E+01 -0.83590258660E+01  0.18005475969E+02  0.21174893713E+02  0.51100000000E-03 0.  1.
         12    1    3    3    0    0 -0.91733169078E+01 -0.52767292061E+01  0.19398996516E+02  0.22097843335E+02  0.00000000000E+00 0. -1.
</event>
<event>
 7    1  0.1427898E-010  0.4778727E+02  0.7816164E-02  0.1312668E+00
        -11   -1    0    0    0    0  0.00000000000E+00  0.00000000000E+00  0.45593999997E+02  0.45594000000E+02  0.51100000000E-03 0.  1.
         11   -1    0    0    0    0 -0.00000000000E+00 -0.00000000000E+00 -0.45593999997E+02  0.45594000000E+02  0.51100000000E-03 0. -1.
    9900012    2    1    2    0    0  0.41793414720E+02 -0.97357178248E+01 -0.64922699661E+01  0.47787270919E+02  0.19999999426E+02 0.  0.
        -12    1    1    2    0    0 -0.41793414720E+02  0.97357178248E+01  0.64922699661E+01  0.43400729081E+02  0.00000000000E+00 0.  1.
         11    1    3    3    0    0 -0.11826991195E+01 -0.12880347265E+00  0.25577474658E+00  0.12168765442E+01  0.51100000000E-03 0.  1.
        -11    1    3    3    0    0  0.69668773426E+01  0.17166121131E+01 -0.50694465901E+01  0.87854098393E+01  0.51100000000E-03 0. -1.
         12    1    3    3    0    0  0.36009236496E+02 -0.11323526465E+02 -0.16785981226E+01  0.37784984535E+02  0.00000000000E+00 0. -1.
</event>
<event>
 7    1  0.1427898E-010  0.4778727E+02  0.7816164E-02  0.1312668E+00
        -11   -1    0    0    0    0  0.00000000000E+00  0.00000000000E+00  0.45593999997E+02  0.45594000000E+02  0.51100000000E-03 0. -1.
         11   -1    0    0    0    0 -0.00000000000E+00 -0.00000000000E+00 -0.45593999997E+02  0.45594000000E+02  0.51100000000E-03 0.  1.
    9900012    2    1    2    0    0  0.11684505550E+02 -0.11039625802E+02  0.40314042356E+02  0.47787273982E+02  0.20000013395E+02 0.  0.
        -12    1    1    2    0    0 -0.11684505550E+02  0.11039625802E+02 -0.40314042356E+02  0.43400726018E+02  0.00000000000E+00 0.  1.
         11    1    3    3    0    0  0.36559602389E+01 -0.12216593959E+02  0.17925044435E+02  0.21998146092E+02  0.51100000000E-03 0. -1.
        -11    1    3    3    0    0  0.15477283177E+01  0.21160592819E+01  0.17219412478E+00  0.26273220030E+01  0.51100000000E-03 0.  1.
        -12    1    3    3    0    0  0.64808169936E+01 -0.93909112482E+00  0.22216803796E+02  0.23161805887E+02  0.00000000000E+00 0.  1.
</event>
<event>
 7    1  0.1427898E-010  0.4778727E+02  0.7816164E-02  0.1312668E+00
        -11   -1    0    0    0    0  0.00000000000E+00  0.00000000000E+00  0.45593999997E+02  0.45594000000E+02  0.51100000000E-03 0.  1.
         11   -1    0    0    0    0 -0.00000000000E+00 -0.00000000000E+00 -0.45593999997E+02  0.45594000000E+02  0.51100000000E-03 0. -1.
    9900012    2    1    2    0    0 -0.15699233677E+02 -0.24851221990E+02 -0.31930769346E+02  0.47787271855E+02  0.20000003697E+02 0.  0.
        -12    1    1    2    0    0  0.15699233677E+02  0.24851221990E+02  0.31930769346E+02  0.43400728145E+02  0.00000000000E+00 0.  1.
         11    1    3    3    0    0 -0.10900221887E+02 -0.66358541629E+01 -0.17536310501E+02  0.21688051639E+02  0.51100000000E-03 0. -1.
        -11    1    3    3    0    0  0.30104738493E+01 -0.30910044855E+01 -0.51866525818E+01  0.67467493500E+01  0.51100000000E-03 0.  1.
        -12    1    3    3    0    0 -0.78094856396E+01 -0.15124363342E+02 -0.92078062634E+01  0.19352470867E+02  0.00000000000E+00 0.  1.
</event>
<event>
 7    1  0.1427898E-010  0.4778727E+02  0.7816164E-02  0.1312668E+00
        -11   -1    0    0    0    0  0.00000000000E+00  0.00000000000E+00  0.45593999997E+02  0.45594000000E+02  0.51100000000E-03 0. -1.
         11   -1    0    0    0    0 -0.00000000000E+00 -0.00000000000E+00 -0.45593999997E+02  0.45594000000E+02  0.51100000000E-03 0.  1.
    9900012    2    1    2    0    0  0.26437548839E+02  0.29331477130E+02 -0.18009540356E+02  0.47787273243E+02  0.20000010022E+02 0.  0.
        -12    1    1    2    0    0 -0.26437548839E+02 -0.29331477130E+02  0.18009540356E+02  0.43400726757E+02  0.00000000000E+00 0.  1.
         11    1    3    3    0    0  0.43259048182E+01  0.16178431106E+02 -0.96990902009E+01  0.19352711349E+02  0.51100000000E-03 0. -1.
        -11    1    3    3    0    0  0.65196071017E+01  0.35132583090E+01  0.16275365755E+01  0.75826866131E+01  0.51100000000E-03 0.  1.
        -12    1    3    3    0    0  0.15592036919E+02  0.96397877145E+01 -0.99379867305E+01  0.20851875281E+02  0.00000000000E+00 0.  1.
</event>
<event>
 7    1  0.1427898E-010  0.4778728E+02  0.7816164E-02  0.1312668E+00
        -11   -1    0    0    0    0  0.00000000000E+00  0.00000000000E+00  0.45593999997E+02  0.45594000000E+02  0.51100000000E-03 0.  1.
         11   -1    0    0    0    0 -0.00000000000E+00 -0.00000000000E+00 -0.45593999997E+02  0.45594000000E+02  0.51100000000E-03 0. -1.
    9900012    2    1    2    0    0  0.26019542960E+02 -0.14974713824E+02 -0.31342685795E+02  0.47787278546E+02  0.20000034201E+02 0.  0.
        -12    1    1    2    0    0 -0.26019542960E+02  0.14974713824E+02  0.31342685795E+02  0.43400721454E+02  0.00000000000E+00 0.  1.
         11    1    3    3    0    0  0.10139754132E+02 -0.71027310051E+01 -0.76277391427E+01  0.14541176234E+02  0.51100000000E-03 0. -1.
        -11    1    3    3    0    0 -0.25584002236E+01  0.10120345144E+01 -0.37797689662E+01  0.46750699740E+01  0.51100000000E-03 0.  1.
        -12    1    3    3    0    0  0.18438189051E+02 -0.88840173329E+01 -0.19935177686E+02  0.28571032337E+02  0.00000000000E+00 0.  1.
</event>
<event>
 7    1  0.1427898E-010  0.4778727E+02  0.7816164E-02  0.1312668E+00
        -11   -1    0    0    0    0  0.00000000000E+00  0.00000000000E+00  0.45593999997E+02  0.45594000000E+02  0.51100000000E-03 0.  1.
         11   -1    0    0    0    0 -0.00000000000E+00 -0.00000000000E+00 -0.45593999997E+02  0.45594000000E+02  0.51100000000E-03 0. -1.
    9900012    2    1    2    0    0 -0.20781438809E+02 -0.12825501746E+02 -0.35878427210E+02  0.47787271514E+02  0.20000002142E+02 0.  0.
        -12    1    1    2    0    0  0.20781438809E+02  0.12825501746E+02  0.35878427210E+02  0.43400728486E+02  0.00000000000E+00 0.  1.
         11    1    3    3    0    0 -0.19508596913E+02 -0.11470847444E+02 -0.31378837080E+02  0.38688462251E+02  0.51100000000E-03 0. -1.
        -11    1    3    3    0    0 -0.37901472001E+01  0.29612482369E+00 -0.14430660420E+00  0.38044356174E+01  0.51100000000E-03 0.  1.
         12    1    3    3    0    0  0.25173053033E+01 -0.16507791252E+01 -0.43552835258E+01  0.52943736457E+01  0.00000000000E+00 0. -1.
</event>
<event>
 7    1  0.1427898E-010  0.4778727E+02  0.7816164E-02  0.1312668E+00
        -11   -1    0    0    0    0  0.00000000000E+00  0.00000000000E+00  0.45593999997E+02  0.45594000000E+02  0.51100000000E-03 0.  1.
         11   -1    0    0    0    0 -0.00000000000E+00 -0.00000000000E+00 -0.45593999997E+02  0.45594000000E+02  0.51100000000E-03 0. -1.
    9900012    2    1    2    0    0 -0.18765160235E+02  0.73958417499E+01 -0.38429072408E+02  0.47787270513E+02  0.19999997577E+02 0.  0.
        -12    1    1    2    0    0  0.18765160235E+02 -0.73958417499E+01  0.38429072408E+02  0.43400729487E+02  0.00000000000E+00 0.  1.
         11    1    3    3    0    0 -0.64465569903E+01 -0.17510071065E+01 -0.63571629185E+01  0.92215857395E+01  0.51100000000E-03 0. -1.
        -11    1    3    3    0    0  0.28853012573E+01  0.45604109608E+01 -0.10158744789E+02  0.11503147718E+02  0.51100000000E-03 0.  1.
        -12    1    3    3    0    0 -0.15203904502E+02  0.45864378956E+01 -0.21913164701E+02  0.27062537056E+02  0.00000000000E+00 0.  1.
</event>
<event>
 7    1  0.1427898E-010  0.4778726E+02  0.7816164E-02  0.1312668E+00
        -11   -1    0    0    0    0  0.00000000000E+00  0.00000000000E+00  0.45593999997E+02  0.45594000000E+02  0.51100000000E-03 0. -1.
         11   -1    0    0    0    0 -0.00000000000E+00 -0.00000000000E+00 -0.45593999997E+02  0.45594000000E+02  0.51100000000E-03 0.  1.
    9900012    2    1    2    0    0 -0.24564224931E+02  0.22827536934E+02  0.27552246508E+02  0.47787264101E+02  0.19999968340E+02 0.  0.
        -12    1    1    2    0    0  0.24564224931E+02 -0.22827536934E+02 -0.27552246508E+02  0.43400735899E+02  0.00000000000E+00 0.  1.
         11    1    3    3    0    0 -0.48574106322E+01 -0.98333883155E+00  0.17488461171E+01  0.52554596669E+01  0.51100000000E-03 0. -1.
        -11    1    3    3    0    0 -0.50812266449E+01  0.14488511487E+02  0.67659351619E+01  0.16778370248E+02  0.51100000000E-03 0.  1.
         12    1    3    3    0    0 -0.14625587654E+02  0.93223642787E+01  0.19037465229E+02  0.25753434185E+02  0.00000000000E+00 0. -1.
</event>
<event>
 7    1  0.1427898E-010  0.4778727E+02  0.7816164E-02  0.1312668E+00
        -11   -1    0    0    0    0  0.00000000000E+00  0.00000000000E+00  0.45593999997E+02  0.45594000000E+02  0.51100000000E-03 0.  1.
         11   -1    0    0    0    0 -0.00000000000E+00 -0.00000000000E+00 -0.45593999997E+02  0.45594000000E+02  0.51100000000E-03 0. -1.
    9900012    2    1    2    0    0  0.15069608848E+01  0.79881038746E+01 -0.42632651381E+02  0.47787266153E+02  0.19999977700E+02 0.  0.
        -12    1    1    2    0    0 -0.15069608848E+01 -0.79881038746E+01  0.42632651381E+02  0.43400733847E+02  0.00000000000E+00 0.  1.
         11    1    3    3    0    0  0.32674015525E+01  0.47946185461E+01 -0.69489762817E+01  0.90527648556E+01  0.51100000000E-03 0. -1.
        -11    1    3    3    0    0 -0.39542034249E+00 -0.17979091507E+01 -0.32718963044E+02  0.32770709140E+02  0.51100000000E-03 0.  1.
        -12    1    3    3    0    0 -0.13650203252E+01  0.49913944792E+01 -0.29647120554E+01  0.59637921582E+01  0.00000000000E+00 0.  1.
</event>
<event>
 7    1  0.1427898E-010  0.4778727E+02  0.7816164E-02  0.1312668E+00
        -11   -1    0    0    0    0  0.00000000000E+00  0.00000000000E+00  0.45593999997E+02  0.45594000000E+02  0.51100000000E-03 0. -1.
         11   -1    0    0    0    0 -0.00000000000E+00 -0.00000000000E+00 -0.45593999997E+02  0.45594000000E+02  0.51100000000E-03 0.  1.
    9900012    2    1    2    0    0 -0.84433392817E+01  0.31239730068E+02  0.28920799405E+02  0.47787270154E+02  0.19999995940E+02 0.  0.
        -12    1    1    2    0    0  0.84433392817E+01 -0.31239730068E+02 -0.28920799405E+02  0.43400729846E+02  0.00000000000E+00 0.  1.
         11    1    3    3    0    0 -0.66058874443E+01  0.91134303051E+01  0.72911851533E+01  0.13410956045E+02  0.51100000000E-03 0. -1.
        -11    1    3    3    0    0  0.29250328287E+01  0.20915900910E+02  0.14130525415E+02  0.25410676432E+02  0.51100000000E-03 0.  1.
        -12    1    3    3    0    0 -0.47624846661E+01  0.12103988528E+01  0.74990888363E+01  0.89656376768E+01  0.00000000000E+00 0.  1.
</event>
<event>
 7    1  0.1427898E-010  0.4778727E+02  0.7816164E-02  0.1312668E+00
        -11   -1    0    0    0    0  0.00000000000E+00  0.00000000000E+00  0.45593999997E+02  0.45594000000E+02  0.51100000000E-03 0.  1.
         11   -1    0    0    0    0 -0.00000000000E+00 -0.00000000000E+00 -0.45593999997E+02  0.45594000000E+02  0.51100000000E-03 0. -1.
    9900012    2    1    2    0    0 -0.11150133316E+00 -0.37182687626E+02 -0.22384340844E+02  0.47787269514E+02  0.19999993024E+02 0.  0.
        -12    1    1    2    0    0  0.11150133316E+00  0.37182687626E+02  0.22384340844E+02  0.43400730486E+02  0.00000000000E+00 0.  1.
         11    1    3    3    0    0 -0.16204006799E+01 -0.20986565836E+02 -0.58988707465E+01  0.21859970730E+02  0.51100000000E-03 0. -1.
        -11    1    3    3    0    0  0.29864316399E+01  0.14194320882E+00 -0.51751131142E+00  0.30342610358E+01  0.51100000000E-03 0.  1.
         12    1    3    3    0    0 -0.14775322933E+01 -0.16338064999E+02 -0.15967958786E+02  0.22893037749E+02  0.00000000000E+00 0. -1.
</event>
<event>
 7    1  0.1427898E-010  0.4778727E+02  0.7816164E-02  0.1312668E+00
        -11   -1    0    0    0    0  0.00000000000E+00  0.00000000000E+00  0.45593999997E+02  0.45594000000E+02  0.51100000000E-03 0.  1.
         11   -1    0    0    0    0 -0.00000000000E+00 -0.00000000000E+00 -0.45593999997E+02  0.45594000000E+02  0.51100000000E-03 0. -1.
    9900012    2    1    2    0    0 -0.40058485279E+01  0.96973648081E+01 -0.42113390216E+02  0.47787270258E+02  0.19999996414E+02 0.  0.
        -12    1    1    2    0    0  0.40058485279E+01 -0.96973648081E+01  0.42113390216E+02  0.43400729742E+02  0.00000000000E+00 0.  1.
         11    1    3    3    0    0  0.61026337464E+01  0.56575602794E+00 -0.23796415021E+02  0.24572984895E+02  0.51100000000E-03 0. -1.
        -11    1    3    3    0    0 -0.56056567102E+01  0.32897439408E+01 -0.11288326102E+02  0.13025824688E+02  0.51100000000E-03 0.  1.
         12    1    3    3    0    0 -0.45028255641E+01  0.58418648394E+01 -0.70286490925E+01  0.10188460675E+02  0.00000000000E+00 0. -1.
</event>
<event>
 7    1  0.1427898E-010  0.4778728E+02  0.7816164E-02  0.1312668E+00
        -11   -1    0    0    0    0  0.00000000000E+00  0.00000000000E+00  0.45593999997E+02  0.45594000000E+02  0.51100000000E-03 0. -1.
         11   -1    0    0    0    0 -0.00000000000E+00 -0.00000000000E+00 -0.45593999997E+02  0.45594000000E+02  0.51100000000E-03 0.  1.
    9900012    2    1    2    0    0 -0.11260794352E+02  0.17100425928E+02  0.38267381752E+02  0.47787279240E+02  0.20000037368E+02 0.  0.
        -12    1    1    2    0    0  0.11260794352E+02 -0.17100425928E+02 -0.38267381752E+02  0.43400720760E+02  0.00000000000E+00 0.  1.
         11    1    3    3    0    0 -0.92942615098E+01  0.34836791745E+01  0.28184652344E+02  0.29881331055E+02  0.51100000000E-03 0. -1.
        -11    1    3    3    0    0 -0.12056748071E+01  0.22459300154E+01 -0.19928931148E+00  0.25568671974E+01  0.51100000000E-03 0.  1.
         12    1    3    3    0    0 -0.76085803541E+00  0.11370816738E+02  0.10282018719E+02  0.15349080988E+02  0.00000000000E+00 0. -1.
</event>
<event>
 7    1  0.1427898E-010  0.4778728E+02  0.7816164E-02  0.1312668E+00
        -11   -1    0    0    0    0  0.00000000000E+00  0.00000000000E+00  0.45593999997E+02  0.45594000000E+02  0.51100000000E-03 0.  1.
         11   -1    0    0    0    0 -0.00000000000E+00 -0.00000000000E+00 -0.45593999997E+02  0.45594000000E+02  0.51100000000E-03 0. -1.
    9900012    2    1    2    0    0  0.32286695029E+02 -0.14525258479E+02 -0.25103964840E+02  0.47787275807E+02  0.20000021713E+02 0.  0.
        -12    1    1    2    0    0 -0.32286695029E+02  0.14525258479E+02  0.25103964840E+02  0.43400724193E+02  0.00000000000E+00 0.  1.
         11    1    3    3    0    0  0.17578691911E+02 -0.69374436538E+01 -0.16768465647E+02  0.25264995036E+02  0.51100000000E-03 0. -1.
        -11    1    3    3    0    0  0.47881440417E+01 -0.50726985939E+01 -0.99606453587E+01  0.12160306354E+02  0.51100000000E-03 0.  1.
        -12    1    3    3    0    0  0.99198590764E+01 -0.25151162317E+01  0.16251461657E+01  0.10361974417E+02  0.00000000000E+00 0.  1.
</event>
<event>
 7    1  0.1427898E-010  0.4778727E+02  0.7816164E-02  0.1312668E+00
        -11   -1    0    0    0    0  0.00000000000E+00  0.00000000000E+00  0.45593999997E+02  0.45594000000E+02  0.51100000000E-03 0.  1.
         11   -1    0    0    0    0 -0.00000000000E+00 -0.00000000000E+00 -0.45593999997E+02  0.45594000000E+02  0.51100000000E-03 0. -1.
    9900012    2    1    2    0    0 -0.19783703652E+02  0.58875756868E+01 -0.38178069133E+02  0.47787269126E+02  0.19999991254E+02 0.  0.
        -12    1    1    2    0    0  0.19783703652E+02 -0.58875756868E+01  0.38178069133E+02  0.43400730874E+02  0.00000000000E+00 0.  1.
         11    1    3    3    0    0 -0.37107662004E+01  0.54749239774E+01 -0.80838962593E+01  0.10444805280E+02  0.51100000000E-03 0. -1.
        -11    1    3    3    0    0 -0.15194410695E+02 -0.25033794382E+01 -0.13524081726E+02  0.20494824024E+02  0.51100000000E-03 0.  1.
         12    1    3    3    0    0 -0.87852675652E+00  0.29160311475E+01 -0.16570091148E+02  0.16847639822E+02  0.00000000000E+00 0. -1.
</event>
<event>
 7    1  0.1427898E-010  0.4778727E+02  0.7816164E-02  0.1312668E+00
        -11   -1    0    0    0    0  0.00000000000E+00  0.00000000000E+00  0.45593999997E+02  0.45594000000E+02  0.51100000000E-03 0.  1.
         11   -1    0    0    0    0 -0.00000000000E+00 -0.00000000000E+00 -0.45593999997E+02  0.45594000000E+02  0.51100000000E-03 0. -1.
    9900012    2    1    2    0    0 -0.41692974642E+01 -0.43188668125E+02  0.98945312114E+00  0.47787272895E+02  0.20000008436E+02 0.  0.
        -12    1    1    2    0    0  0.41692974642E+01  0.43188668125E+02 -0.98945312114E+00  0.43400727105E+02  0.00000000000E+00 0.  1.
         11    1    3    3    0    0 -0.85565442749E+01 -0.26840029896E+02  0.31265187171E+01  0.28343901889E+02  0.51100000000E-03 0. -1.
        -11    1    3    3    0    0  0.41650334791E+00  0.10038305468E+01  0.86753304041E+00  0.13905986635E+01  0.51100000000E-03 0.  1.
         12    1    3    3    0    0  0.39707434628E+01 -0.17352468776E+02 -0.30045986363E+01  0.18052772342E+02  0.00000000000E+00 0. -1.
</event>
<event>
 7    1  0.1427898E-010  0.4778727E+02  0.7816164E-02  0.1312668E+00
        -11   -1    0    0    0    0  0.00000000000E+00  0.00000000000E+00  0.45593999997E+02  0.45594000000E+02  0.51100000000E-03 0.  1.
         11   -1    0    0    0    0 -0.00000000000E+00 -0.00000000000E+00 -0.45593999997E+02  0.45594000000E+02  0.51100000000E-03 0. -1.
    9900012    2    1    2    0    0  0.32828621335E+02 -0.28234632520E+02 -0.29513509970E+01  0.47787270456E+02  0.19999997316E+02 0.  0.
        -12    1    1    2    0    0 -0.32828621335E+02  0.28234632520E+02  0.29513509970E+01  0.43400729544E+02  0.00000000000E+00 0.  1.
         11    1    3    3    0    0  0.69160598755E+01 -0.37190765706E+01 -0.70880030384E+01  0.10578430983E+02  0.51100000000E-03 0. -1.
        -11    1    3    3    0    0  0.12827517766E+02 -0.58623494253E+01  0.28410852049E+01  0.14386942629E+02  0.51100000000E-03 0.  1.
         12    1    3    3    0    0  0.13085043693E+02 -0.18653206524E+02  0.12955668364E+01  0.22821896843E+02  0.00000000000E+00 0. -1.
</event>
<event>
 7    1  0.1427898E-010  0.4778727E+02  0.7816164E-02  0.1312668E+00
        -11   -1    0    0    0    0  0.00000000000E+00  0.00000000000E+00  0.45593999997E+02  0.45594000000E+02  0.51100000000E-03 0.  1.
         11   -1    0    0    0    0 -0.00000000000E+00 -0.00000000000E+00 -0.45593999997E+02  0.45594000000E+02  0.51100000000E-03 0. -1.
    9900012    2    1    2    0    0 -0.21334880077E+01 -0.14598144802E+02 -0.40816243198E+02  0.47787270611E+02  0.19999998022E+02 0.  0.
        -12    1    1    2    0    0  0.21334880077E+01  0.14598144802E+02  0.40816243198E+02  0.43400729389E+02  0.00000000000E+00 0.  1.
         11    1    3    3    0    0 -0.63479971126E+00  0.89488175764E+00 -0.25880303823E+02  0.25903550148E+02  0.51100000000E-03 0. -1.
        -11    1    3    3    0    0  0.85643299174E+00 -0.59169689198E+01 -0.71427563785E+01  0.93146641169E+01  0.51100000000E-03 0.  1.
        -12    1    3    3    0    0 -0.23551212882E+01 -0.95760576403E+01 -0.77931829964E+01  0.12569056346E+02  0.00000000000E+00 0.  1.
</event>
<event>
 7    1  0.1427898E-010  0.4778727E+02  0.7816164E-02  0.1312668E+00
        -11   -1    0    0    0    0  0.00000000000E+00  0.00000000000E+00  0.45593999997E+02  0.45594000000E+02  0.51100000000E-03 0.  1.
         11   -1    0    0    0    0 -0.00000000000E+00 -0.00000000000E+00 -0.45593999997E+02  0.45594000000E+02  0.51100000000E-03 0. -1.
    9900012    2    1    2    0    0  0.16998200428E+02  0.39857253982E+02 -0.24666153038E+01  0.47787266091E+02  0.19999977415E+02 0.  0.
        -12    1    1    2    0    0 -0.16998200428E+02 -0.39857253982E+02  0.24666153038E+01  0.43400733909E+02  0.00000000000E+00 0.  1.
         11    1    3    3    0    0  0.10279754360E+02  0.17433356972E+02 -0.65447384367E+01  0.21270375796E+02  0.51100000000E-03 0. -1.
        -11    1    3    3    0    0 -0.18523457984E+01 -0.80824802533E-01 -0.67049471647E+00  0.19716188859E+01  0.51100000000E-03 0.  1.
        -12    1    3    3    0    0  0.85707918665E+01  0.22504721812E+02  0.47486178493E+01  0.24545271409E+02  0.00000000000E+00 0.  1.
</event>
<event>
 7    1  0.1427898E-010  0.4778727E+02  0.7816164E-02  0.1312668E+00
        -11   -1    0    0    0    0  0.00000000000E+00  0.00000000000E+00  0.45593999997E+02  0.45594000000E+02  0.51100000000E-03 0.  1.
         11   -1    0    0    0    0 -0.00000000000E+00 -0.00000000000E+00 -0.45593999997E+02  0.45594000000E+02  0.51100000000E-03 0. -1.
    9900012    2    1    2    0    0 -0.98558904151E+01  0.25662039100E+02 -0.33584884863E+02  0.47787270537E+02  0.19999997686E+02 0.  0.
        -12    1    1    2    0    0  0.98558904151E+01 -0.25662039100E+02  0.33584884863E+02  0.43400729463E+02  0.00000000000E+00 0.  1.
         11    1    3    3    0    0 -0.12831587317E+02  0.74561242645E+01 -0.14493812401E+02  0.20744011673E+02  0.51100000000E-03 0. -1.
        -11    1    3    3    0    0  0.21976486377E+01  0.23195483284E+01 -0.39816287590E+01  0.51052259322E+01  0.51100000000E-03 0.  1.
         12    1    3    3    0    0  0.77804826382E+00  0.15886366507E+02 -0.15109443704E+02  0.21938032932E+02  0.00000000000E+00 0. -1.
</event>
<event>
 7    1  0.1427898E-010  0.4778728E+02  0.7816164E-02  0.1312668E+00
        -11   -1    0    0    0    0  0.00000000000E+00  0.00000000000E+00  0.45593999997E+02  0.45594000000E+02  0.51100000000E-03 0.  1.
         11   -1    0    0    0    0 -0.00000000000E+00 -0.00000000000E+00 -0.45593999997E+02  0.45594000000E+02  0.51100000000E-03 0. -1.
    9900012    2    1    2    0    0 -0.23893839735E+02 -0.28718203698E+02 -0.22090090494E+02  0.47787275363E+02  0.20000019691E+02 0.  0.
        -12    1    1    2    0    0  0.23893839735E+02  0.28718203698E+02  0.22090090494E+02  0.43400724637E+02  0.00000000000E+00 0.  1.
         11    1    3    3    0    0 -0.75287530685E+01 -0.89759234677E+01 -0.15013297183E+02  0.19043329998E+02  0.51100000000E-03 0. -1.
        -11    1    3    3    0    0 -0.61353670485E+01 -0.15688067697E+02 -0.38990883642E+01  0.17290491237E+02  0.51100000000E-03 0.  1.
         12    1    3    3    0    0 -0.10229719618E+02 -0.40542125334E+01 -0.31777049477E+01  0.11453454128E+02  0.00000000000E+00 0. -1.
</event>
<event>
 7    1  0.1427898E-010  0.4778725E+02  0.7816164E-02  0.1312668E+00
        -11   -1    0    0    0    0  0.00000000000E+00  0.00000000000E+00  0.45593999997E+02  0.45594000000E+02  0.51100000000E-03 0. -1.
         11   -1    0    0    0    0 -0.00000000000E+00 -0.00000000000E+00 -0.45593999997E+02  0.45594000000E+02  0.51100000000E-03 0.  1.
    9900012    2    1    2    0    0 -0.31163844996E+02 -0.16139988165E+02  0.25533120567E+02  0.47787254629E+02  0.19999925153E+02 0.  0.
        -12    1    1    2    0    0  0.31163844996E+02  0.16139988165E+02 -0.25533120567E+02  0.43400745371E+02  0.00000000000E+00 0.  1.
         11    1    3    3    0    0 -0.10658865197E+02 -0.29598141096E+01  0.28681005111E+01  0.11427944157E+02  0.51100000000E-03 0. -1.
        -11    1    3    3    0    0 -0.15124473883E+02 -0.10643932700E+02  0.72998303536E+01  0.19882920736E+02  0.51100000000E-03 0.  1.
         12    1    3    3    0    0 -0.53805059161E+01 -0.25362413560E+01  0.15365189703E+02  0.16476389736E+02  0.00000000000E+00 0. -1.
</event>
<event>
 7    1  0.1427898E-010  0.4778727E+02  0.7816164E-02  0.1312668E+00
        -11   -1    0    0    0    0  0.00000000000E+00  0.00000000000E+00  0.45593999997E+02  0.45594000000E+02  0.51100000000E-03 0.  1.
         11   -1    0    0    0    0 -0.00000000000E+00 -0.00000000000E+00 -0.45593999997E+02  0.45594000000E+02  0.51100000000E-03 0. -1.
    9900012    2    1    2    0    0  0.11160447756E+02 -0.19121410340E+02 -0.37328801610E+02  0.47787270084E+02  0.19999995623E+02 0.  0.
        -12    1    1    2    0    0 -0.11160447756E+02  0.19121410340E+02  0.37328801610E+02  0.43400729916E+02  0.00000000000E+00 0.  1.
         11    1    3    3    0    0  0.23595822733E+01  0.48229201793E+00 -0.11023304792E+01  0.26486537791E+01  0.51100000000E-03 0. -1.
        -11    1    3    3    0    0  0.69032219431E+01 -0.10170308179E+01 -0.16772189908E+02  0.18165769443E+02  0.51100000000E-03 0.  1.
        -12    1    3    3    0    0  0.18976435399E+01 -0.18586671540E+02 -0.19454281223E+02  0.26972846863E+02  0.00000000000E+00 0.  1.
</event>
<event>
 7    1  0.1427898E-010  0.4778727E+02  0.7816164E-02  0.1312668E+00
        -11   -1    0    0    0    0  0.00000000000E+00  0.00000000000E+00  0.45593999997E+02  0.45594000000E+02  0.51100000000E-03 0.  1.
         11   -1    0    0    0    0 -0.00000000000E+00 -0.00000000000E+00 -0.45593999997E+02  0.45594000000E+02  0.51100000000E-03 0. -1.
    9900012    2    1    2    0    0  0.30607478555E+02 -0.20768045574E+02 -0.22704495572E+02  0.47787267521E+02  0.19999983937E+02 0.  0.
        -12    1    1    2    0    0 -0.30607478555E+02  0.20768045574E+02  0.22704495572E+02  0.43400732479E+02  0.00000000000E+00 0.  1.
         11    1    3    3    0    0  0.27707982792E+01 -0.24978018712E+01 -0.90265615177E+01  0.97670440966E+01  0.51100000000E-03 0. -1.
        -11    1    3    3    0    0  0.33332938954E+01 -0.35781213294E+01  0.21684680202E+01  0.53493975602E+01  0.51100000000E-03 0.  1.
         12    1    3    3    0    0  0.24503386381E+02 -0.14692122374E+02 -0.15846402074E+02  0.32670825865E+02  0.00000000000E+00 0. -1.
</event>
<event>
 7    1  0.1427898E-010  0.4778727E+02  0.7816164E-02  0.1312668E+00
        -11   -1    0    0    0    0  0.00000000000E+00  0.00000000000E+00  0.45593999997E+02  0.45594000000E+02  0.51100000000E-03 0.  1.
         11   -1    0    0    0    0 -0.00000000000E+00 -0.00000000000E+00 -0.45593999997E+02  0.45594000000E+02  0.51100000000E-03 0. -1.
    9900012    2    1    2    0    0 -0.22387266519E+02  0.30565361205E+02 -0.21170555009E+02  0.47787269508E+02  0.19999992996E+02 0.  0.
        -12    1    1    2    0    0  0.22387266519E+02 -0.30565361205E+02  0.21170555009E+02  0.43400730492E+02  0.00000000000E+00 0.  1.
         11    1    3    3    0    0 -0.27799600484E+01  0.12242689887E+02 -0.80937118595E+01  0.14937195368E+02  0.51100000000E-03 0. -1.
        -11    1    3    3    0    0 -0.14289227428E+02  0.10728367607E+02 -0.15060819275E+02  0.23368957390E+02  0.51100000000E-03 0.  1.
        -12    1    3    3    0    0 -0.53180790434E+01  0.75943037109E+01  0.19839761252E+01  0.94811167501E+01  0.00000000000E+00 0.  1.
</event>
<event>
 7    1  0.1427898E-010  0.4778727E+02  0.7816164E-02  0.1312668E+00
        -11   -1    0    0    0    0  0.00000000000E+00  0.00000000000E+00  0.45593999997E+02  0.45594000000E+02  0.51100000000E-03 0.  1.
         11   -1    0    0    0    0 -0.00000000000E+00 -0.00000000000E+00 -0.45593999997E+02  0.45594000000E+02  0.51100000000E-03 0. -1.
    9900012    2    1    2    0    0  0.18984149064E+02 -0.37274081918E+01 -0.38850124194E+02  0.47787266856E+02  0.19999980904E+02 0.  0.
        -12    1    1    2    0    0 -0.18984149064E+02  0.37274081918E+01  0.38850124194E+02  0.43400733144E+02  0.00000000000E+00 0.  1.
         11    1    3    3    0    0  0.71801663395E+01 -0.17231124258E+01 -0.14295041098E+02  0.16089502955E+02  0.51100000000E-03 0. -1.
        -11    1    3    3    0    0 -0.70864453882E+00  0.69397801569E+00  0.19923163122E+01  0.22255577094E+01  0.51100000000E-03 0.  1.
        -12    1    3    3    0    0  0.12512627263E+02 -0.26982737817E+01 -0.26547399409E+02  0.29472206192E+02  0.00000000000E+00 0.  1.
</event>
<event>
 7    1  0.1427898E-010  0.4778727E+02  0.7816164E-02  0.1312668E+00
        -11   -1    0    0    0    0  0.00000000000E+00  0.00000000000E+00  0.45593999997E+02  0.45594000000E+02  0.51100000000E-03 0.  1.
         11   -1    0    0    0    0 -0.00000000000E+00 -0.00000000000E+00 -0.45593999997E+02  0.45594000000E+02  0.51100000000E-03 0. -1.
    9900012    2    1    2    0    0  0.15016516634E+02 -0.33051403331E+02 -0.23785128404E+02  0.47787269970E+02  0.19999995099E+02 0.  0.
        -12    1    1    2    0    0 -0.15016516634E+02  0.33051403331E+02  0.23785128404E+02  0.43400730030E+02  0.00000000000E+00 0.  1.
         11    1    3    3    0    0  0.10462563671E+02 -0.13431407280E+02 -0.10370579273E+01  0.17057063918E+02  0.51100000000E-03 0. -1.
        -11    1    3    3    0    0  0.38534965162E+01 -0.93028093643E+01 -0.13611858684E+02  0.16931461678E+02  0.51100000000E-03 0.  1.
         12    1    3    3    0    0  0.70045644714E+00 -0.10317186687E+02 -0.91362117930E+01  0.13798744373E+02  0.00000000000E+00 0. -1.
</event>
<event>
 7    1  0.1427898E-010  0.4778727E+02  0.7816164E-02  0.1312668E+00
        -11   -1    0    0    0    0  0.00000000000E+00  0.00000000000E+00  0.45593999997E+02  0.45594000000E+02  0.51100000000E-03 0.  1.
         11   -1    0    0    0    0 -0.00000000000E+00 -0.00000000000E+00 -0.45593999997E+02  0.45594000000E+02  0.51100000000E-03 0. -1.
    9900012    2    1    2    0    0 -0.19871334363E+02 -0.18570044633E+02 -0.33821690817E+02  0.47787271242E+02  0.20000000899E+02 0.  0.
        -12    1    1    2    0    0  0.19871334363E+02  0.18570044633E+02  0.33821690817E+02  0.43400728758E+02  0.00000000000E+00 0.  1.
         11    1    3    3    0    0 -0.62021330296E+01 -0.11266713344E+02 -0.17228593974E+02  0.21499528699E+02  0.51100000000E-03 0. -1.
        -11    1    3    3    0    0  0.15029582871E+01 -0.44220073704E+00  0.11586754003E+01  0.19485774424E+01  0.51100000000E-03 0.  1.
        -12    1    3    3    0    0 -0.15172159620E+02 -0.68611305521E+01 -0.17751772244E+02  0.24339165101E+02  0.00000000000E+00 0.  1.
</event>
<event>
 7    1  0.1427898E-010  0.4778727E+02  0.7816164E-02  0.1312668E+00
        -11   -1    0    0    0    0  0.00000000000E+00  0.00000000000E+00  0.45593999997E+02  0.45594000000E+02  0.51100000000E-03 0.  1.
         11   -1    0    0    0    0 -0.00000000000E+00 -0.00000000000E+00 -0.45593999997E+02  0.45594000000E+02  0.51100000000E-03 0. -1.
    9900012    2    1    2    0    0 -0.35495097741E+02 -0.40141551405E+00 -0.24971182633E+02  0.47787273507E+02  0.20000011227E+02 0.  0.
        -12    1    1    2    0    0  0.35495097741E+02  0.40141551405E+00  0.24971182633E+02  0.43400726493E+02  0.00000000000E+00 0.  1.
         11    1    3    3    0    0 -0.17165141969E+02  0.78496003635E+01 -0.16626499610E+02  0.25153505009E+02  0.51100000000E-03 0.  1.
        -11    1    3    3    0    0 -0.51070947381E+01 -0.43857943428E+01 -0.51919381426E+01  0.85014016855E+01  0.51100000000E-03 0. -1.
        -12    1    3    3    0    0 -0.13222861034E+02 -0.38652215348E+01 -0.31527448802E+01  0.14132366813E+02  0.00000000000E+00 0.  1.
</event>
<event>
 7    1  0.1427898E-010  0.4778727E+02  0.7816164E-02  0.1312668E+00
        -11   -1    0    0    0    0  0.00000000000E+00  0.00000000000E+00  0.45593999997E+02  0.45594000000E+02  0.51100000000E-03 0.  1.
         11   -1    0    0    0    0 -0.00000000000E+00 -0.00000000000E+00 -0.45593999997E+02  0.45594000000E+02  0.51100000000E-03 0. -1.
    9900012    2    1    2    0    0  0.26756702018E+02  0.32452306138E+02 -0.10702808782E+02  0.47787269679E+02  0.19999993774E+02 0.  0.
        -12    1    1    2    0    0 -0.26756702018E+02 -0.32452306138E+02  0.10702808782E+02  0.43400730321E+02  0.00000000000E+00 0.  1.
         11    1    3    3    0    0  0.52338113262E+01  0.87182924811E+01  0.94933784741E+00  0.10212866757E+02  0.51100000000E-03 0. -1.
        -11    1    3    3    0    0  0.22059872232E+01  0.97101680900E+01 -0.92363631421E+01  0.13581757924E+02  0.51100000000E-03 0.  1.
         12    1    3    3    0    0  0.19316903469E+02  0.14023845567E+02 -0.24157834870E+01  0.23992644998E+02  0.00000000000E+00 0. -1.
</event>
<event>
 7    1  0.1427898E-010  0.4778727E+02  0.7816164E-02  0.1312668E+00
        -11   -1    0    0    0    0  0.00000000000E+00  0.00000000000E+00  0.45593999997E+02  0.45594000000E+02  0.51100000000E-03 0. -1.
         11   -1    0    0    0    0 -0.00000000000E+00 -0.00000000000E+00 -0.45593999997E+02  0.45594000000E+02  0.51100000000E-03 0.  1.
    9900012    2    1    2    0    0  0.16447185786E+02  0.31855676313E+02  0.24460774715E+02  0.47787268056E+02  0.19999986373E+02 0.  0.
        -12    1    1    2    0    0 -0.16447185786E+02 -0.31855676313E+02 -0.24460774715E+02  0.43400731944E+02  0.00000000000E+00 0.  1.
         11    1    3    3    0    0  0.13766615808E+01  0.15050673195E+02  0.51096152737E+01  0.15953875054E+02  0.51100000000E-03 0. -1.
        -11    1    3    3    0    0  0.49128297974E+01  0.13558427318E-01  0.11022173593E+01  0.50349740632E+01  0.51100000000E-03 0.  1.
        -12    1    3    3    0    0  0.10157694408E+02  0.16791444691E+02  0.18248942082E+02  0.26798418939E+02  0.00000000000E+00 0.  1.
</event>
<event>
 7    1  0.1427898E-010  0.4778727E+02  0.7816164E-02  0.1312668E+00
        -11   -1    0    0    0    0  0.00000000000E+00  0.00000000000E+00  0.45593999997E+02  0.45594000000E+02  0.51100000000E-03 0.  1.
         11   -1    0    0    0    0 -0.00000000000E+00 -0.00000000000E+00 -0.45593999997E+02  0.45594000000E+02  0.51100000000E-03 0. -1.
    9900012    2    1    2    0    0  0.53351691950E+00 -0.73396530055E+01 -0.42772283555E+02  0.47787269741E+02  0.19999994056E+02 0.  0.
        -12    1    1    2    0    0 -0.53351691950E+00  0.73396530055E+01  0.42772283555E+02  0.43400730259E+02  0.00000000000E+00 0.  1.
         11    1    3    3    0    0  0.12311256221E+01 -0.85464579775E+01 -0.27658196401E+02  0.28974703496E+02  0.51100000000E-03 0. -1.
        -11    1    3    3    0    0 -0.27630431040E+01  0.25979812029E+01 -0.15784420473E+02  0.16233663895E+02  0.51100000000E-03 0.  1.
         12    1    3    3    0    0  0.20654344013E+01 -0.13911762308E+01  0.67033331931E+00  0.25789023499E+01  0.00000000000E+00 0. -1.
</event>
<event>
 7    1  0.1427898E-010  0.4778727E+02  0.7816164E-02  0.1312668E+00
        -11   -1    0    0    0    0  0.00000000000E+00  0.00000000000E+00  0.45593999997E+02  0.45594000000E+02  0.51100000000E-03 0.  1.
         11   -1    0    0    0    0 -0.00000000000E+00 -0.00000000000E+00 -0.45593999997E+02  0.45594000000E+02  0.51100000000E-03 0. -1.
    9900012    2    1    2    0    0  0.21786700400E+02 -0.19106279469E+02 -0.32309643766E+02  0.47787270631E+02  0.19999998113E+02 0.  0.
        -12    1    1    2    0    0 -0.21786700400E+02  0.19106279469E+02  0.32309643766E+02  0.43400729369E+02  0.00000000000E+00 0.  1.
         11    1    3    3    0    0  0.45573916494E+01 -0.12575685617E+02 -0.11257660551E+02  0.17482923346E+02  0.51100000000E-03 0. -1.
        -11    1    3    3    0    0  0.48836398106E+01 -0.23611540934E+01 -0.14973182170E+02  0.15925488093E+02  0.51100000000E-03 0.  1.
         12    1    3    3    0    0  0.12345668940E+02 -0.41694397588E+01 -0.60788010454E+01  0.14378859191E+02  0.00000000000E+00 0. -1.
</event>
<event>
 7    1  0.1427898E-010  0.4778727E+02  0.7816164E-02  0.1312668E+00
        -11   -1    0    0    0    0  0.00000000000E+00  0.00000000000E+00  0.45593999997E+02  0.45594000000E+02  0.51100000000E-03 0.  1.
         11   -1    0    0    0    0 -0.00000000000E+00 -0.00000000000E+00 -0.45593999997E+02  0.45594000000E+02  0.51100000000E-03 0. -1.
    9900012    2    1    2    0    0  0.15935340745E+02 -0.21962492027E+02 -0.33872366307E+02  0.47787270283E+02  0.19999996530E+02 0.  0.
        -12    1    1    2    0    0 -0.15935340745E+02  0.21962492027E+02  0.33872366307E+02  0.43400729717E+02  0.00000000000E+00 0.  1.
         11    1    3    3    0    0  0.14752135240E+02 -0.73611963961E+01 -0.23204152350E+02  0.28464809732E+02  0.51100000000E-03 0. -1.
        -11    1    3    3    0    0  0.32446516212E+01 -0.10264097871E+02 -0.95533710512E+01  0.14392580309E+02  0.51100000000E-03 0.  1.
         12    1    3    3    0    0 -0.20614461163E+01 -0.43371977604E+01 -0.11148429056E+01  0.49298802427E+01  0.00000000000E+00 0. -1.
</event>
<event>
 7    1  0.1427898E-010  0.4778727E+02  0.7816164E-02  0.1312668E+00
        -11   -1    0    0    0    0  0.00000000000E+00  0.00000000000E+00  0.45593999997E+02  0.45594000000E+02  0.51100000000E-03 0.  1.
         11   -1    0    0    0    0 -0.00000000000E+00 -0.00000000000E+00 -0.45593999997E+02  0.45594000000E+02  0.51100000000E-03 0. -1.
    9900012    2    1    2    0    0 -0.36062917247E+02 -0.18284039395E+02 -0.15772860567E+02  0.47787271579E+02  0.20000002438E+02 0.  0.
        -12    1    1    2    0    0  0.36062917247E+02  0.18284039395E+02  0.15772860567E+02  0.43400728421E+02  0.00000000000E+00 0.  1.
         11    1    3    3    0    0  0.11165101306E+01  0.66159646535E+00 -0.58014455363E+00  0.14215740287E+01  0.51100000000E-03 0. -1.
        -11    1    3    3    0    0 -0.69819050629E+01 -0.79418710437E+00 -0.75484696515E+01  0.10312959120E+02  0.51100000000E-03 0.  1.
         12    1    3    3    0    0 -0.30197522315E+02 -0.18151448756E+02 -0.76442463623E+01  0.36052738431E+02  0.00000000000E+00 0. -1.
</event>
<event>
 7    1  0.1945465E-010  0.4778727E+02  0.7816164E-02  0.1312668E+00
        -11   -1    0    0    0    0  0.00000000000E+00  0.00000000000E+00  0.45593999997E+02  0.45594000000E+02  0.51100000000E-03 0. -1.
         11   -1    0    0    0    0 -0.00000000000E+00 -0.00000000000E+00 -0.45593999997E+02  0.45594000000E+02  0.51100000000E-03 0.  1.
    9900012    2    1    2    0    0 -0.31536637429E+02  0.27754442339E+02  0.10897464883E+02  0.47787270620E+02  0.19999998064E+02 0.  0.
        -12    1    1    2    0    0  0.31536637429E+02 -0.27754442339E+02 -0.10897464883E+02  0.43400729380E+02  0.00000000000E+00 0.  1.
         11    1    3    3    0    0 -0.15441216659E+02  0.65190066228E+01  0.49933778144E+01  0.17488923395E+02  0.51100000000E-03 0. -1.
        -11    1    3    3    0    0 -0.10683493246E+01  0.19896536838E+01 -0.34726168873E+01  0.41423616896E+01  0.51100000000E-03 0.  1.
         12    1    3    3    0    0 -0.15027071446E+02  0.19245782032E+02  0.93767039555E+01  0.26155985536E+02  0.00000000000E+00 0. -1.
</event>
<event>
 7    1  0.1427898E-010  0.4778727E+02  0.7816164E-02  0.1312668E+00
        -11   -1    0    0    0    0  0.00000000000E+00  0.00000000000E+00  0.45593999997E+02  0.45594000000E+02  0.51100000000E-03 0. -1.
         11   -1    0    0    0    0 -0.00000000000E+00 -0.00000000000E+00 -0.45593999997E+02  0.45594000000E+02  0.51100000000E-03 0.  1.
    9900012    2    1    2    0    0 -0.24983507902E+02  0.28180441487E+02  0.21571048705E+02  0.47787273143E+02  0.20000009566E+02 0.  0.
        -12    1    1    2    0    0  0.24983507902E+02 -0.28180441487E+02 -0.21571048705E+02  0.43400726857E+02  0.00000000000E+00 0.  1.
         11    1    3    3    0    0 -0.86411031509E+01  0.12993738860E+02  0.16004025579E+02  0.22352511004E+02  0.51100000000E-03 0. -1.
        -11    1    3    3    0    0 -0.14963359147E+02  0.80461751498E+01  0.63122017907E+01  0.18124208761E+02  0.51100000000E-03 0.  1.
         12    1    3    3    0    0 -0.13790456039E+01  0.71405274778E+01 -0.74517866409E+00  0.73105533772E+01  0.00000000000E+00 0. -1.
</event>
<event>
 7    1  0.1427898E-010  0.4778727E+02  0.7816164E-02  0.1312668E+00
        -11   -1    0    0    0    0  0.00000000000E+00  0.00000000000E+00  0.45593999997E+02  0.45594000000E+02  0.51100000000E-03 0.  1.
         11   -1    0    0    0    0 -0.00000000000E+00 -0.00000000000E+00 -0.45593999997E+02  0.45594000000E+02  0.51100000000E-03 0. -1.
    9900012    2    1    2    0    0  0.19176430763E+02 -0.25059824074E+02 -0.29797531850E+02  0.47787272082E+02  0.20000004733E+02 0.  0.
        -12    1    1    2    0    0 -0.19176430763E+02  0.25059824074E+02  0.29797531850E+02  0.43400727918E+02  0.00000000000E+00 0.  1.
         11    1    3    3    0    0  0.82715311448E+01 -0.72782040218E+01 -0.10780523639E+02  0.15414609027E+02  0.51100000000E-03 0. -1.
        -11    1    3    3    0    0  0.11689677930E+02 -0.19907442514E+02 -0.19297904260E+02  0.30089266303E+02  0.51100000000E-03 0.  1.
        -12    1    3    3    0    0 -0.78477831158E+00  0.21258224622E+01  0.28089604882E+00  0.22833967526E+01  0.00000000000E+00 0.  1.
</event>
<event>
 7    1  0.1427898E-010  0.4778727E+02  0.7816164E-02  0.1312668E+00
        -11   -1    0    0    0    0  0.00000000000E+00  0.00000000000E+00  0.45593999997E+02  0.45594000000E+02  0.51100000000E-03 0.  1.
         11   -1    0    0    0    0 -0.00000000000E+00 -0.00000000000E+00 -0.45593999997E+02  0.45594000000E+02  0.51100000000E-03 0. -1.
    9900012    2    1    2    0    0  0.14380209923E+02  0.22384512897E+02 -0.34289452052E+02  0.47787269855E+02  0.19999994579E+02 0.  0.
        -12    1    1    2    0    0 -0.14380209923E+02 -0.22384512897E+02  0.34289452052E+02  0.43400730145E+02  0.00000000000E+00 0.  1.
         11    1    3    3    0    0  0.13492371125E+02  0.14862071724E+02 -0.19180975068E+02  0.27763916499E+02  0.51100000000E-03 0. -1.
        -11    1    3    3    0    0  0.19241381960E+01  0.52115284588E+01 -0.16302722412E+02  0.17223271901E+02  0.51100000000E-03 0.  1.
        -12    1    3    3    0    0 -0.10362993987E+01  0.23109127138E+01  0.11942454283E+01  0.28000814556E+01  0.00000000000E+00 0.  1.
</event>
<event>
 7    1  0.1427898E-010  0.4778727E+02  0.7816164E-02  0.1312668E+00
        -11   -1    0    0    0    0  0.00000000000E+00  0.00000000000E+00  0.45593999997E+02  0.45594000000E+02  0.51100000000E-03 0.  1.
         11   -1    0    0    0    0 -0.00000000000E+00 -0.00000000000E+00 -0.45593999997E+02  0.45594000000E+02  0.51100000000E-03 0. -1.
    9900012    2    1    2    0    0 -0.83331673363E+01  0.21973611149E+02 -0.36487562086E+02  0.47787268995E+02  0.19999990658E+02 0.  0.
        -12    1    1    2    0    0  0.83331673363E+01 -0.21973611149E+02  0.36487562086E+02  0.43400731005E+02  0.00000000000E+00 0.  1.
         11    1    3    3    0    0 -0.13962911624E+02  0.18098566450E+02 -0.26332969576E+02  0.34870421499E+02  0.51100000000E-03 0. -1.
        -11    1    3    3    0    0  0.23831151613E+01  0.35554217452E+01 -0.35904925539E+01  0.55867610204E+01  0.51100000000E-03 0.  1.
         12    1    3    3    0    0  0.32466291268E+01  0.31962295430E+00 -0.65640999559E+01  0.73300864763E+01  0.00000000000E+00 0. -1.
</event>
<event>
 7    1  0.1427898E-010  0.4778727E+02  0.7816164E-02  0.1312668E+00
        -11   -1    0    0    0    0  0.00000000000E+00  0.00000000000E+00  0.45593999997E+02  0.45594000000E+02  0.51100000000E-03 0.  1.
         11   -1    0    0    0    0 -0.00000000000E+00 -0.00000000000E+00 -0.45593999997E+02  0.45594000000E+02  0.51100000000E-03 0. -1.
    9900012    2    1    2    0    0  0.27107671923E+02 -0.12989213668E+01 -0.33869012063E+02  0.47787273602E+02  0.20000011660E+02 0.  0.
        -12    1    1    2    0    0 -0.27107671923E+02  0.12989213668E+01  0.33869012063E+02  0.43400726398E+02  0.00000000000E+00 0.  1.
         11    1    3    3    0    0  0.85365208494E+01  0.18848815948E+01 -0.22671824602E+02  0.24298901166E+02  0.51100000000E-03 0.  1.
        -11    1    3    3    0    0  0.11457448174E+02  0.19065206202E+01 -0.82922544487E+01  0.14271279677E+02  0.51100000000E-03 0. -1.
        -12    1    3    3    0    0  0.71137028997E+01 -0.50903235817E+01 -0.29049330120E+01  0.92170927584E+01  0.00000000000E+00 0.  1.
</event>
<event>
 7    1  0.1427898E-010  0.4778726E+02  0.7816164E-02  0.1312668E+00
        -11   -1    0    0    0    0  0.00000000000E+00  0.00000000000E+00  0.45593999997E+02  0.45594000000E+02  0.51100000000E-03 0.  1.
         11   -1    0    0    0    0 -0.00000000000E+00 -0.00000000000E+00 -0.45593999997E+02  0.45594000000E+02  0.51100000000E-03 0. -1.
    9900012    2    1    2    0    0 -0.40340119576E+02  0.15913579862E+02 -0.17483847404E+01  0.47787261290E+02  0.19999955524E+02 0.  0.
        -12    1    1    2    0    0  0.40340119576E+02 -0.15913579862E+02  0.17483847404E+01  0.43400738710E+02  0.00000000000E+00 0.  1.
         11    1    3    3    0    0 -0.59221986526E+01  0.22962093275E+00 -0.37645234994E+01  0.70211680006E+01  0.51100000000E-03 0. -1.
        -11    1    3    3    0    0 -0.94098971456E+01 -0.56944638502E+00 -0.41656619104E+01  0.10306462676E+02  0.51100000000E-03 0.  1.
        -12    1    3    3    0    0 -0.25008023777E+02  0.16253405315E+02  0.61818006694E+01  0.30459630613E+02  0.00000000000E+00 0.  1.
</event>
<event>
 7    1  0.1427898E-010  0.4778727E+02  0.7816164E-02  0.1312668E+00
        -11   -1    0    0    0    0  0.00000000000E+00  0.00000000000E+00  0.45593999997E+02  0.45594000000E+02  0.51100000000E-03 0.  1.
         11   -1    0    0    0    0 -0.00000000000E+00 -0.00000000000E+00 -0.45593999997E+02  0.45594000000E+02  0.51100000000E-03 0. -1.
    9900012    2    1    2    0    0 -0.31742718841E+02 -0.26034210847E+02 -0.14079872483E+02  0.47787272553E+02  0.20000006877E+02 0.  0.
        -12    1    1    2    0    0  0.31742718841E+02  0.26034210847E+02  0.14079872483E+02  0.43400727447E+02  0.00000000000E+00 0.  1.
         11    1    3    3    0    0 -0.17928666580E+01 -0.60874259014E+01 -0.70199844906E+00  0.63846634244E+01  0.51100000000E-03 0.  1.
        -11    1    3    3    0    0 -0.91223404859E+01 -0.15312220814E+02 -0.67675906787E+01  0.19065190428E+02  0.51100000000E-03 0. -1.
        -12    1    3    3    0    0 -0.20827511697E+02 -0.46345641312E+01 -0.66102833550E+01  0.22337418700E+02  0.00000000000E+00 0.  1.
</event>
<event>
 7    1  0.1427898E-010  0.4778727E+02  0.7816164E-02  0.1312668E+00
        -11   -1    0    0    0    0  0.00000000000E+00  0.00000000000E+00  0.45593999997E+02  0.45594000000E+02  0.51100000000E-03 0.  1.
         11   -1    0    0    0    0 -0.00000000000E+00 -0.00000000000E+00 -0.45593999997E+02  0.45594000000E+02  0.51100000000E-03 0. -1.
    9900012    2    1    2    0    0 -0.18283048756E+01  0.41839762850E+02  0.11389243710E+02  0.47787270440E+02  0.19999997245E+02 0.  0.
        -12    1    1    2    0    0  0.18283048756E+01 -0.41839762850E+02 -0.11389243710E+02  0.43400729560E+02  0.00000000000E+00 0.  1.
         11    1    3    3    0    0 -0.26806058412E+01  0.18871442296E+01  0.48140851999E+01  0.58242920250E+01  0.51100000000E-03 0. -1.
        -11    1    3    3    0    0  0.34145217995E+01  0.20763380897E+02  0.80909484135E+01  0.22544187541E+02  0.51100000000E-03 0.  1.
         12    1    3    3    0    0 -0.25622208339E+01  0.19189237723E+02 -0.15157899029E+01  0.19418790875E+02  0.00000000000E+00 0. -1.
</event>
<event>
 7    1  0.1427898E-010  0.4778727E+02  0.7816164E-02  0.1312668E+00
        -11   -1    0    0    0    0  0.00000000000E+00  0.00000000000E+00  0.45593999997E+02  0.45594000000E+02  0.51100000000E-03 0.  1.
         11   -1    0    0    0    0 -0.00000000000E+00 -0.00000000000E+00 -0.45593999997E+02  0.45594000000E+02  0.51100000000E-03 0. -1.
    9900012    2    1    2    0    0 -0.12853362311E+02 -0.47554591913E+01 -0.41180091345E+02  0.47787271458E+02  0.20000001884E+02 0.  0.
        -12    1    1    2    0    0  0.12853362311E+02  0.47554591913E+01  0.41180091345E+02  0.43400728542E+02  0.00000000000E+00 0.  1.
         11    1    3    3    0    0 -0.23798639769E+01  0.38260538347E+00 -0.24450748615E+01  0.34334429903E+01  0.51100000000E-03 0. -1.
        -11    1    3    3    0    0 -0.84682028057E+01 -0.74025534788E+01 -0.88387993111E+01  0.14304986204E+02  0.51100000000E-03 0.  1.
         12    1    3    3    0    0 -0.20052955284E+01  0.22644889040E+01 -0.29896217173E+02  0.30048842264E+02  0.00000000000E+00 0. -1.
</event>
<event>
 7    1  0.1427898E-010  0.4778727E+02  0.7816164E-02  0.1312668E+00
        -11   -1    0    0    0    0  0.00000000000E+00  0.00000000000E+00  0.45593999997E+02  0.45594000000E+02  0.51100000000E-03 0. -1.
         11   -1    0    0    0    0 -0.00000000000E+00 -0.00000000000E+00 -0.45593999997E+02  0.45594000000E+02  0.51100000000E-03 0.  1.
    9900012    2    1    2    0    0  0.12445312498E+02 -0.18499349673E+02  0.37235892374E+02  0.47787269334E+02  0.19999992201E+02 0.  0.
        -12    1    1    2    0    0 -0.12445312498E+02  0.18499349673E+02 -0.37235892374E+02  0.43400730666E+02  0.00000000000E+00 0.  1.
         11    1    3    3    0    0  0.30761463857E+01 -0.11515311752E+02  0.25581526206E+02  0.28221969538E+02  0.51100000000E-03 0. -1.
        -11    1    3    3    0    0 -0.88334110334E+00 -0.42862821042E+01  0.90766330503E+00  0.44694919977E+01  0.51100000000E-03 0.  1.
         12    1    3    3    0    0  0.10252507216E+02 -0.26977558172E+01  0.10746702862E+02  0.15095807798E+02  0.00000000000E+00 0. -1.
</event>
<event>
 7    1  0.1427898E-010  0.4778727E+02  0.7816164E-02  0.1312668E+00
        -11   -1    0    0    0    0  0.00000000000E+00  0.00000000000E+00  0.45593999997E+02  0.45594000000E+02  0.51100000000E-03 0.  1.
         11   -1    0    0    0    0 -0.00000000000E+00 -0.00000000000E+00 -0.45593999997E+02  0.45594000000E+02  0.51100000000E-03 0. -1.
    9900012    2    1    2    0    0  0.37928071857E+01  0.12784327380E+02 -0.41301317412E+02  0.47787271517E+02  0.20000002154E+02 0.  0.
        -12    1    1    2    0    0 -0.37928071857E+01 -0.12784327380E+02  0.41301317412E+02  0.43400728483E+02  0.00000000000E+00 0.  1.
         11    1    3    3    0    0  0.99873837287E+01  0.29152581769E+01 -0.25845846036E+02  0.27861340987E+02  0.51100000000E-03 0. -1.
        -11    1    3    3    0    0 -0.30694838001E+01  0.11531429791E+01 -0.33797617543E+01  0.47089552245E+01  0.51100000000E-03 0.  1.
         12    1    3    3    0    0 -0.31250927430E+01  0.87159262243E+01 -0.12075709621E+02  0.15216975306E+02  0.00000000000E+00 0. -1.
</event>
<event>
 7    1  0.1427898E-010  0.4778727E+02  0.7816164E-02  0.1312668E+00
        -11   -1    0    0    0    0  0.00000000000E+00  0.00000000000E+00  0.45593999997E+02  0.45594000000E+02  0.51100000000E-03 0. -1.
         11   -1    0    0    0    0 -0.00000000000E+00 -0.00000000000E+00 -0.45593999997E+02  0.45594000000E+02  0.51100000000E-03 0.  1.
    9900012    2    1    2    0    0  0.58524815041E+01 -0.22995318480E+02  0.36339882734E+02  0.47787270872E+02  0.19999999213E+02 0.  0.
        -12    1    1    2    0    0 -0.58524815041E+01  0.22995318480E+02 -0.36339882734E+02  0.43400729128E+02  0.00000000000E+00 0.  1.
         11    1    3    3    0    0 -0.11367226234E+01  0.20115090245E+01 -0.91294978841E-01  0.23122806734E+01  0.51100000000E-03 0. -1.
        -11    1    3    3    0    0  0.13619329533E+01 -0.72616661352E+01  0.17148632715E+02  0.18672500119E+02  0.51100000000E-03 0.  1.
         12    1    3    3    0    0  0.56272711742E+01 -0.17745161370E+02  0.19282544997E+02  0.26802490080E+02  0.00000000000E+00 0. -1.
</event>
<event>
 7    1  0.1427898E-010  0.4778727E+02  0.7816164E-02  0.1312668E+00
        -11   -1    0    0    0    0  0.00000000000E+00  0.00000000000E+00  0.45593999997E+02  0.45594000000E+02  0.51100000000E-03 0.  1.
         11   -1    0    0    0    0 -0.00000000000E+00 -0.00000000000E+00 -0.45593999997E+02  0.45594000000E+02  0.51100000000E-03 0. -1.
    9900012    2    1    2    0    0  0.12387430502E+02 -0.37438819400E+02 -0.18124839313E+02  0.47787269216E+02  0.19999991663E+02 0.  0.
        -12    1    1    2    0    0 -0.12387430502E+02  0.37438819400E+02  0.18124839313E+02  0.43400730784E+02  0.00000000000E+00 0.  1.
         11    1    3    3    0    0 -0.22930091642E+01 -0.72683532687E+01 -0.50549710269E+01  0.91454678727E+01  0.51100000000E-03 0. -1.
        -11    1    3    3    0    0 -0.31935023010E+00 -0.14874221800E+02 -0.42409524224E+01  0.15470298524E+02  0.51100000000E-03 0.  1.
        -12    1    3    3    0    0  0.14999789896E+02 -0.15296244331E+02 -0.88289158636E+01  0.23171502819E+02  0.00000000000E+00 0.  1.
</event>
<event>
 7    1  0.1427898E-010  0.4778728E+02  0.7816164E-02  0.1312668E+00
        -11   -1    0    0    0    0  0.00000000000E+00  0.00000000000E+00  0.45593999997E+02  0.45594000000E+02  0.51100000000E-03 0.  1.
         11   -1    0    0    0    0 -0.00000000000E+00 -0.00000000000E+00 -0.45593999997E+02  0.45594000000E+02  0.51100000000E-03 0. -1.
    9900012    2    1    2    0    0 -0.45754088725E+01 -0.41770895101E+02 -0.10857288170E+02  0.47787277076E+02  0.20000027500E+02 0.  0.
        -12    1    1    2    0    0  0.45754088725E+01  0.41770895101E+02  0.10857288170E+02  0.43400722924E+02  0.00000000000E+00 0.  1.
         11    1    3    3    0    0 -0.67682250884E+01 -0.19642116143E+02 -0.12125828818E+02  0.24055297175E+02  0.51100000000E-03 0. -1.
        -11    1    3    3    0    0 -0.17173344632E+01 -0.17086328611E+02 -0.24455444693E+00  0.17174157045E+02  0.51100000000E-03 0.  1.
        -12    1    3    3    0    0  0.39101506791E+01 -0.50424503478E+01  0.15130950946E+01  0.65578228559E+01  0.00000000000E+00 0.  1.
</event>
<event>
 7    1  0.1427898E-010  0.4778727E+02  0.7816164E-02  0.1312668E+00
        -11   -1    0    0    0    0  0.00000000000E+00  0.00000000000E+00  0.45593999997E+02  0.45594000000E+02  0.51100000000E-03 0.  1.
         11   -1    0    0    0    0 -0.00000000000E+00 -0.00000000000E+00 -0.45593999997E+02  0.45594000000E+02  0.51100000000E-03 0. -1.
    9900012    2    1    2    0    0 -0.25262781024E+02 -0.22582309250E+02 -0.27119263168E+02  0.47787271539E+02  0.20000002257E+02 0.  0.
        -12    1    1    2    0    0  0.25262781024E+02  0.22582309250E+02  0.27119263168E+02  0.43400728461E+02  0.00000000000E+00 0.  1.
         11    1    3    3    0    0 -0.10576577611E+02 -0.85196540091E+01 -0.11859269267E+02  0.18030273604E+02  0.51100000000E-03 0. -1.
        -11    1    3    3    0    0 -0.56482204223E+01  0.71429110147E+00  0.12484904004E+01  0.58284933094E+01  0.51100000000E-03 0.  1.
        -12    1    3    3    0    0 -0.90379829904E+01 -0.14776946342E+02 -0.16508484301E+02  0.23928504626E+02  0.00000000000E+00 0.  1.
</event>
<event>
 7    1  0.1427898E-010  0.4778727E+02  0.7816164E-02  0.1312668E+00
        -11   -1    0    0    0    0  0.00000000000E+00  0.00000000000E+00  0.45593999997E+02  0.45594000000E+02  0.51100000000E-03 0.  1.
         11   -1    0    0    0    0 -0.00000000000E+00 -0.00000000000E+00 -0.45593999997E+02  0.45594000000E+02  0.51100000000E-03 0. -1.
    9900012    2    1    2    0    0 -0.11931872030E+02 -0.17756678193E+01 -0.41690533539E+02  0.47787272436E+02  0.20000006344E+02 0.  0.
        -12    1    1    2    0    0  0.11931872030E+02  0.17756678193E+01  0.41690533539E+02  0.43400727564E+02  0.00000000000E+00 0.  1.
         11    1    3    3    0    0 -0.19293808950E+01  0.28847737680E+01 -0.16286203314E+01  0.38336451029E+01  0.51100000000E-03 0. -1.
        -11    1    3    3    0    0  0.20004244006E+01 -0.48196130265E+01 -0.19078627567E+02  0.19779393257E+02  0.51100000000E-03 0.  1.
         12    1    3    3    0    0 -0.12002915535E+02  0.15917143918E+00 -0.20983285641E+02  0.24174234076E+02  0.00000000000E+00 0. -1.
</event>
<event>
 7    1  0.1427898E-010  0.4778730E+02  0.7816164E-02  0.1312668E+00
        -11   -1    0    0    0    0  0.00000000000E+00  0.00000000000E+00  0.45593999997E+02  0.45594000000E+02  0.51100000000E-03 0. -1.
         11   -1    0    0    0    0 -0.00000000000E+00 -0.00000000000E+00 -0.45593999997E+02  0.45594000000E+02  0.51100000000E-03 0.  1.
    9900012    2    1    2    0    0  0.28652528404E+02  0.32262125385E+02 -0.46699552319E+01  0.47787301847E+02  0.20000140441E+02 0.  0.
        -12    1    1    2    0    0 -0.28652528404E+02 -0.32262125385E+02  0.46699552319E+01  0.43400698153E+02  0.00000000000E+00 0.  1.
         11    1    3    3    0    0  0.10220965183E+02  0.11914167189E+02 -0.10359345087E+02  0.18807752125E+02  0.51100000000E-03 0.  1.
        -11    1    3    3    0    0  0.32027250878E+01  0.72842862951E+01  0.38247824550E+01  0.88287731824E+01  0.51100000000E-03 0. -1.
        -12    1    3    3    0    0  0.15228838133E+02  0.13063671900E+02  0.18646074003E+01  0.20150776540E+02  0.00000000000E+00 0.  1.
</event>
<event>
 7    1  0.1427898E-010  0.4778727E+02  0.7816164E-02  0.1312668E+00
        -11   -1    0    0    0    0  0.00000000000E+00  0.00000000000E+00  0.45593999997E+02  0.45594000000E+02  0.51100000000E-03 0.  1.
         11   -1    0    0    0    0 -0.00000000000E+00 -0.00000000000E+00 -0.45593999997E+02  0.45594000000E+02  0.51100000000E-03 0. -1.
    9900012    2    1    2    0    0  0.21657884258E+02  0.25083896711E+02 -0.28024233407E+02  0.47787268637E+02  0.19999989024E+02 0.  0.
        -12    1    1    2    0    0 -0.21657884258E+02 -0.25083896711E+02  0.28024233407E+02  0.43400731363E+02  0.00000000000E+00 0.  1.
         11    1    3    3    0    0  0.20635374145E+01  0.41987250484E+01 -0.12339611400E+02  0.13196722640E+02  0.51100000000E-03 0. -1.
        -11    1    3    3    0    0  0.69056157658E+01  0.12346781745E+01 -0.61555780497E+01  0.93329041935E+01  0.51100000000E-03 0.  1.
        -12    1    3    3    0    0  0.12688731078E+02  0.19650493488E+02 -0.95290439581E+01  0.25257641803E+02  0.00000000000E+00 0.  1.
</event>
<event>
 7    1  0.1427898E-010  0.4778727E+02  0.7816164E-02  0.1312668E+00
        -11   -1    0    0    0    0  0.00000000000E+00  0.00000000000E+00  0.45593999997E+02  0.45594000000E+02  0.51100000000E-03 0. -1.
         11   -1    0    0    0    0 -0.00000000000E+00 -0.00000000000E+00 -0.45593999997E+02  0.45594000000E+02  0.51100000000E-03 0.  1.
    9900012    2    1    2    0    0  0.10688114939E+02 -0.13983240078E+02  0.39671860461E+02  0.47787270554E+02  0.19999997763E+02 0.  0.
        -12    1    1    2    0    0 -0.10688114939E+02  0.13983240078E+02 -0.39671860461E+02  0.43400729446E+02  0.00000000000E+00 0.  1.
         11    1    3    3    0    0  0.42971706494E+01 -0.18891387902E+01  0.17157262916E+02  0.17787810208E+02  0.51100000000E-03 0. -1.
        -11    1    3    3    0    0  0.29760492180E+01 -0.10860960577E+01 -0.13914273729E+01  0.34601364120E+01  0.51100000000E-03 0.  1.
        -12    1    3    3    0    0  0.34148950714E+01 -0.11008005231E+02  0.23906024918E+02  0.26539323934E+02  0.00000000000E+00 0.  1.
</event>
<event>
 7    1  0.1427898E-010  0.4778727E+02  0.7816164E-02  0.1312668E+00
        -11   -1    0    0    0    0  0.00000000000E+00  0.00000000000E+00  0.45593999997E+02  0.45594000000E+02  0.51100000000E-03 0.  1.
         11   -1    0    0    0    0 -0.00000000000E+00 -0.00000000000E+00 -0.45593999997E+02  0.45594000000E+02  0.51100000000E-03 0. -1.
    9900012    2    1    2    0    0 -0.13422047484E+02 -0.23875597670E+02 -0.33666418666E+02  0.47787271106E+02  0.20000000279E+02 0.  0.
        -12    1    1    2    0    0  0.13422047484E+02  0.23875597670E+02  0.33666418666E+02  0.43400728894E+02  0.00000000000E+00 0.  1.
         11    1    3    3    0    0 -0.94655498026E+01 -0.16066329754E+02 -0.21113794029E+02  0.28169413969E+02  0.51100000000E-03 0. -1.
        -11    1    3    3    0    0 -0.71910473463E+01 -0.47632515564E+01 -0.12484378443E+02  0.15174301720E+02  0.51100000000E-03 0.  1.
        -12    1    3    3    0    0  0.32345496644E+01 -0.30460163597E+01 -0.68246194599E-01  0.44435554164E+01  0.00000000000E+00 0.  1.
</event>
<event>
 7    1  0.1427898E-010  0.4778729E+02  0.7816164E-02  0.1312668E+00
        -11   -1    0    0    0    0  0.00000000000E+00  0.00000000000E+00  0.45593999997E+02  0.45594000000E+02  0.51100000000E-03 0. -1.
         11   -1    0    0    0    0 -0.00000000000E+00 -0.00000000000E+00 -0.45593999997E+02  0.45594000000E+02  0.51100000000E-03 0.  1.
    9900012    2    1    2    0    0  0.19829706835E+02 -0.24627895533E+00  0.38604974208E+02  0.47787286180E+02  0.20000069009E+02 0.  0.
        -12    1    1    2    0    0 -0.19829706835E+02  0.24627895533E+00 -0.38604974208E+02  0.43400713820E+02  0.00000000000E+00 0.  1.
         11    1    3    3    0    0 -0.86566812178E+00 -0.56387200390E+00 -0.82516776942E+00  0.13222083961E+01  0.51100000000E-03 0. -1.
        -11    1    3    3    0    0  0.54756654931E+01 -0.59469892705E+01  0.11773477381E+02  0.14281609289E+02  0.51100000000E-03 0.  1.
         12    1    3    3    0    0  0.15219709463E+02  0.62645823191E+01  0.27656664596E+02  0.32183468495E+02  0.00000000000E+00 0. -1.
</event>
<event>
 7    1  0.1427898E-010  0.4778727E+02  0.7816164E-02  0.1312668E+00
        -11   -1    0    0    0    0  0.00000000000E+00  0.00000000000E+00  0.45593999997E+02  0.45594000000E+02  0.51100000000E-03 0.  1.
         11   -1    0    0    0    0 -0.00000000000E+00 -0.00000000000E+00 -0.45593999997E+02  0.45594000000E+02  0.51100000000E-03 0. -1.
    9900012    2    1    2    0    0  0.33477358389E+02 -0.27096596432E+02  0.53539162821E+01  0.47787268641E+02  0.19999989042E+02 0.  0.
        -12    1    1    2    0    0 -0.33477358389E+02  0.27096596432E+02 -0.53539162821E+01  0.43400731359E+02  0.00000000000E+00 0.  1.
         11    1    3    3    0    0  0.86863857393E+00 -0.73393304388E-01  0.20162006733E+01  0.21965848414E+01  0.51100000000E-03 0. -1.
        -11    1    3    3    0    0  0.61374423074E+01 -0.51619336418E+00  0.52322005818E+01  0.80814959540E+01  0.51100000000E-03 0.  1.
         12    1    3    3    0    0  0.26471277508E+02 -0.26507009764E+02 -0.18944849730E+01  0.37509187846E+02  0.00000000000E+00 0. -1.
</event>
<event>
 7    1  0.1427898E-010  0.4778728E+02  0.7816164E-02  0.1312668E+00
        -11   -1    0    0    0    0  0.00000000000E+00  0.00000000000E+00  0.45593999997E+02  0.45594000000E+02  0.51100000000E-03 0.  1.
         11   -1    0    0    0    0 -0.00000000000E+00 -0.00000000000E+00 -0.45593999997E+02  0.45594000000E+02  0.51100000000E-03 0. -1.
    9900012    2    1    2    0    0 -0.41600060732E+02  0.49215443666E+01 -0.11350593372E+02  0.47787278557E+02  0.20000034252E+02 0.  0.
        -12    1    1    2    0    0  0.41600060732E+02 -0.49215443666E+01  0.11350593372E+02  0.43400721443E+02  0.00000000000E+00 0.  1.
         11    1    3    3    0    0 -0.52764134095E+01  0.75970759533E+01 -0.48562551178E+00  0.92623935302E+01  0.51100000000E-03 0. -1.
        -11    1    3    3    0    0 -0.12757071963E+02  0.24431389322E+00 -0.67139750226E+01  0.14418045472E+02  0.51100000000E-03 0.  1.
         12    1    3    3    0    0 -0.23566575360E+02 -0.29198454799E+01 -0.41509928373E+01  0.24106839555E+02  0.00000000000E+00 0. -1.
</event>
<event>
 7    1  0.1427898E-010  0.4778727E+02  0.7816164E-02  0.1312668E+00
        -11   -1    0    0    0    0  0.00000000000E+00  0.00000000000E+00  0.45593999997E+02  0.45594000000E+02  0.51100000000E-03 0. -1.
         11   -1    0    0    0    0 -0.00000000000E+00 -0.00000000000E+00 -0.45593999997E+02  0.45594000000E+02  0.51100000000E-03 0.  1.
    9900012    2    1    2    0    0  0.51541717373E+00 -0.39774503990E+02  0.17359335036E+02  0.47787270336E+02  0.19999996769E+02 0.  0.
        -12    1    1    2    0    0 -0.51541717373E+00  0.39774503990E+02 -0.17359335036E+02  0.43400729664E+02  0.00000000000E+00 0.  1.
         11    1    3    3    0    0 -0.47066440504E+01 -0.30251246055E+01  0.37573522650E+01  0.67395529081E+01  0.51100000000E-03 0.  1.
        -11    1    3    3    0    0 -0.14325326945E+01 -0.22163918821E+02  0.46707312781E+01  0.22695972734E+02  0.51100000000E-03 0. -1.
        -12    1    3    3    0    0  0.66545939186E+01 -0.14585460563E+02  0.89312514927E+01  0.18351744693E+02  0.00000000000E+00 0.  1.
</event>
<event>
 7    1  0.1427898E-010  0.4778727E+02  0.7816164E-02  0.1312668E+00
        -11   -1    0    0    0    0  0.00000000000E+00  0.00000000000E+00  0.45593999997E+02  0.45594000000E+02  0.51100000000E-03 0.  1.
         11   -1    0    0    0    0 -0.00000000000E+00 -0.00000000000E+00 -0.45593999997E+02  0.45594000000E+02  0.51100000000E-03 0. -1.
    9900012    2    1    2    0    0  0.19200870343E+02  0.13422000043E+02 -0.36534907243E+02  0.47787274725E+02  0.20000016782E+02 0.  0.
        -12    1    1    2    0    0 -0.19200870343E+02 -0.13422000043E+02  0.36534907243E+02  0.43400725275E+02  0.00000000000E+00 0.  1.
         11    1    3    3    0    0 -0.78476548443E+00  0.36532897865E+01 -0.72885521879E+01  0.81905663044E+01  0.51100000000E-03 0. -1.
        -11    1    3    3    0    0  0.37839211143E+00  0.68205729179E+01 -0.66284202347E+01  0.95183691138E+01  0.51100000000E-03 0.  1.
         12    1    3    3    0    0  0.19607243716E+02  0.29481373385E+01 -0.22617934821E+02  0.30078339307E+02  0.00000000000E+00 0. -1.
</event>
<event>
 7    1  0.1427898E-010  0.4778727E+02  0.7816164E-02  0.1312668E+00
        -11   -1    0    0    0    0  0.00000000000E+00  0.00000000000E+00  0.45593999997E+02  0.45594000000E+02  0.51100000000E-03 0.  1.
         11   -1    0    0    0    0 -0.00000000000E+00 -0.00000000000E+00 -0.45593999997E+02  0.45594000000E+02  0.51100000000E-03 0. -1.
    9900012    2    1    2    0    0  0.26826967874E+02  0.10927378692E+02 -0.32319181372E+02  0.47787270802E+02  0.19999998894E+02 0.  0.
        -12    1    1    2    0    0 -0.26826967874E+02 -0.10927378692E+02  0.32319181372E+02  0.43400729198E+02  0.00000000000E+00 0.  1.
         11    1    3    3    0    0  0.10594106471E+02 -0.36023221990E+01 -0.54736804703E+01  0.12456845319E+02  0.51100000000E-03 0. -1.
        -11    1    3    3    0    0  0.96012266321E+00  0.46861037329E+01 -0.50848918286E+01  0.69812268902E+01  0.51100000000E-03 0.  1.
        -12    1    3    3    0    0  0.15272738740E+02  0.98435971584E+01 -0.21760609073E+02  0.28349198593E+02  0.00000000000E+00 0.  1.
</event>
<event>
 7    1  0.1427898E-010  0.4778727E+02  0.7816164E-02  0.1312668E+00
        -11   -1    0    0    0    0  0.00000000000E+00  0.00000000000E+00  0.45593999997E+02  0.45594000000E+02  0.51100000000E-03 0. -1.
         11   -1    0    0    0    0 -0.00000000000E+00 -0.00000000000E+00 -0.45593999997E+02  0.45594000000E+02  0.51100000000E-03 0.  1.
    9900012    2    1    2    0    0  0.34773172767E+02 -0.22505310826E+02  0.12959982095E+02  0.47787266186E+02  0.19999977850E+02 0.  0.
        -12    1    1    2    0    0 -0.34773172767E+02  0.22505310826E+02 -0.12959982095E+02  0.43400733814E+02  0.00000000000E+00 0.  1.
         11    1    3    3    0    0  0.22196589827E+02 -0.17058466671E+02  0.11412389062E+02  0.30231151309E+02  0.51100000000E-03 0. -1.
        -11    1    3    3    0    0  0.39344127662E+00 -0.60569279146E+00  0.41314891338E+01  0.41941462206E+01  0.51100000000E-03 0.  1.
        -12    1    3    3    0    0  0.12183141664E+02 -0.48411513631E+01 -0.25838961011E+01  0.13361968657E+02  0.00000000000E+00 0.  1.
</event>
<event>
 7    1  0.1427898E-010  0.4778726E+02  0.7816164E-02  0.1312668E+00
        -11   -1    0    0    0    0  0.00000000000E+00  0.00000000000E+00  0.45593999997E+02  0.45594000000E+02  0.51100000000E-03 0. -1.
         11   -1    0    0    0    0 -0.00000000000E+00 -0.00000000000E+00 -0.45593999997E+02  0.45594000000E+02  0.51100000000E-03 0.  1.
    9900012    2    1    2    0    0 -0.38578307485E+02  0.52351377871E+01 -0.19181555406E+02  0.47787256413E+02  0.19999933291E+02 0.  0.
        -12    1    1    2    0    0  0.38578307485E+02 -0.52351377871E+01  0.19181555406E+02  0.43400743587E+02  0.00000000000E+00 0.  1.
         11    1    3    3    0    0 -0.33231383553E+02  0.88374398254E+00 -0.10338114017E+02  0.34813538429E+02  0.51100000000E-03 0. -1.
        -11    1    3    3    0    0 -0.50852477120E+01  0.43797557525E+01 -0.33991107309E+01  0.75230285635E+01  0.51100000000E-03 0.  1.
        -12    1    3    3    0    0 -0.26167622033E+00 -0.28361947963E-01 -0.54443306583E+01  0.54506894207E+01  0.00000000000E+00 0.  1.
</event>
<event>
 7    1  0.1427898E-010  0.4778727E+02  0.7816164E-02  0.1312668E+00
        -11   -1    0    0    0    0  0.00000000000E+00  0.00000000000E+00  0.45593999997E+02  0.45594000000E+02  0.51100000000E-03 0. -1.
         11   -1    0    0    0    0 -0.00000000000E+00 -0.00000000000E+00 -0.45593999997E+02  0.45594000000E+02  0.51100000000E-03 0.  1.
    9900012    2    1    2    0    0 -0.40971396530E+02  0.23649077977E+01  0.14120032983E+02  0.47787268970E+02  0.19999990541E+02 0.  0.
        -12    1    1    2    0    0  0.40971396530E+02 -0.23649077977E+01 -0.14120032983E+02  0.43400731030E+02  0.00000000000E+00 0.  1.
         11    1    3    3    0    0 -0.23775917688E+02 -0.45950881536E+01  0.96398393519E+01  0.26064067220E+02  0.51100000000E-03 0. -1.
        -11    1    3    3    0    0  0.25503433351E+00 -0.38634064693E+00 -0.17347595433E+01  0.17954644360E+01  0.51100000000E-03 0.  1.
         12    1    3    3    0    0 -0.17450513175E+02  0.73463365982E+01  0.62149531747E+01  0.19927737314E+02  0.00000000000E+00 0. -1.
</event>
<event>
 7    1  0.1427898E-010  0.4778722E+02  0.7816164E-02  0.1312668E+00
        -11   -1    0    0    0    0  0.00000000000E+00  0.00000000000E+00  0.45593999997E+02  0.45594000000E+02  0.51100000000E-03 0.  1.
         11   -1    0    0    0    0 -0.00000000000E+00 -0.00000000000E+00 -0.45593999997E+02  0.45594000000E+02  0.51100000000E-03 0. -1.
    9900012    2    1    2    0    0 -0.21264307253E+02  0.22164646870E+02 -0.30662446016E+02  0.47787217409E+02  0.19999755451E+02 0.  0.
        -12    1    1    2    0    0  0.21264307253E+02 -0.22164646870E+02  0.30662446016E+02  0.43400782591E+02  0.00000000000E+00 0.  1.
         11    1    3    3    0    0 -0.15759842899E+02  0.95199234186E+01 -0.24913444303E+02  0.30978723302E+02  0.51100000000E-03 0. -1.
        -11    1    3    3    0    0  0.13393308790E+01  0.74075932044E+00  0.64600749220E+00  0.16612818892E+01  0.51100000000E-03 0.  1.
         12    1    3    3    0    0 -0.68437952335E+01  0.11903964131E+02 -0.63950092055E+01  0.15147212218E+02  0.00000000000E+00 0. -1.
</event>
<event>
 7    1  0.1427898E-010  0.4778727E+02  0.7816164E-02  0.1312668E+00
        -11   -1    0    0    0    0  0.00000000000E+00  0.00000000000E+00  0.45593999997E+02  0.45594000000E+02  0.51100000000E-03 0.  1.
         11   -1    0    0    0    0 -0.00000000000E+00 -0.00000000000E+00 -0.45593999997E+02  0.45594000000E+02  0.51100000000E-03 0. -1.
    9900012    2    1    2    0    0 -0.26094351712E+02 -0.30184974964E+02  0.17075582462E+02  0.47787269347E+02  0.19999992260E+02 0.  0.
        -12    1    1    2    0    0  0.26094351712E+02  0.30184974964E+02 -0.17075582462E+02  0.43400730653E+02  0.00000000000E+00 0.  1.
         11    1    3    3    0    0 -0.10113632726E+02 -0.12864828961E+02  0.41659698125E+01  0.16886227994E+02  0.51100000000E-03 0. -1.
        -11    1    3    3    0    0 -0.56423650295E+01 -0.27334093951E+01  0.11334459354E+02  0.12952906205E+02  0.51100000000E-03 0.  1.
        -12    1    3    3    0    0 -0.10338353957E+02 -0.14586736607E+02  0.15751532952E+01  0.17948135148E+02  0.00000000000E+00 0.  1.
</event>
<event>
 7    1  0.1427898E-010  0.4778727E+02  0.7816164E-02  0.1312668E+00
        -11   -1    0    0    0    0  0.00000000000E+00  0.00000000000E+00  0.45593999997E+02  0.45594000000E+02  0.51100000000E-03 0.  1.
         11   -1    0    0    0    0 -0.00000000000E+00 -0.00000000000E+00 -0.45593999997E+02  0.45594000000E+02  0.51100000000E-03 0. -1.
    9900012    2    1    2    0    0  0.11333777862E+02 -0.37245716148E+02 -0.19181383909E+02  0.47787269814E+02  0.19999994389E+02 0.  0.
        -12    1    1    2    0    0 -0.11333777862E+02  0.37245716148E+02  0.19181383909E+02  0.43400730186E+02  0.00000000000E+00 0.  1.
         11    1    3    3    0    0  0.15787792172E+01 -0.17993091738E+02 -0.64593999570E+01  0.19182485297E+02  0.51100000000E-03 0. -1.
        -11    1    3    3    0    0  0.26849333502E+01  0.71100941842E-01  0.19619507972E+01  0.33261349387E+01  0.51100000000E-03 0.  1.
        -12    1    3    3    0    0  0.70700652950E+01 -0.19323725352E+02 -0.14683934749E+02  0.25278649578E+02  0.00000000000E+00 0.  1.
</event>
<event>
 7    1  0.1427898E-010  0.4778727E+02  0.7816164E-02  0.1312668E+00
        -11   -1    0    0    0    0  0.00000000000E+00  0.00000000000E+00  0.45593999997E+02  0.45594000000E+02  0.51100000000E-03 0.  1.
         11   -1    0    0    0    0 -0.00000000000E+00 -0.00000000000E+00 -0.45593999997E+02  0.45594000000E+02  0.51100000000E-03 0. -1.
    9900012    2    1    2    0    0  0.69710558181E+01 -0.52606825550E+01 -0.42512974396E+02  0.47787269681E+02  0.19999993785E+02 0.  0.
        -12    1    1    2    0    0 -0.69710558181E+01  0.52606825550E+01  0.42512974396E+02  0.43400730319E+02  0.00000000000E+00 0.  1.
         11    1    3    3    0    0 -0.39777109558E+01  0.28439237220E+01 -0.88360829078E+01  0.10098833992E+02  0.51100000000E-03 0. -1.
        -11    1    3    3    0    0  0.60126722482E+01 -0.11030915748E+01 -0.54482266945E+01  0.81885415651E+01  0.51100000000E-03 0.  1.
         12    1    3    3    0    0  0.49360945256E+01 -0.70015147022E+01 -0.28228664794E+02  0.29499894124E+02  0.00000000000E+00 0. -1.
</event>
<event>
 7    1  0.1427898E-010  0.4778728E+02  0.7816164E-02  0.1312668E+00
        -11   -1    0    0    0    0  0.00000000000E+00  0.00000000000E+00  0.45593999997E+02  0.45594000000E+02  0.51100000000E-03 0. -1.
         11   -1    0    0    0    0 -0.00000000000E+00 -0.00000000000E+00 -0.45593999997E+02  0.45594000000E+02  0.51100000000E-03 0.  1.
    9900012    2    1    2    0    0 -0.20093303997E+02  0.22547401704E+02  0.31168841435E+02  0.47787275749E+02  0.20000021448E+02 0.  0.
        -12    1    1    2    0    0  0.20093303997E+02 -0.22547401704E+02 -0.31168841435E+02  0.43400724251E+02  0.00000000000E+00 0.  1.
         11    1    3    3    0    0 -0.25958978761E+01  0.17448125977E+01  0.12459512456E+02  0.12846108659E+02  0.51100000000E-03 0. -1.
        -11    1    3    3    0    0 -0.46368427948E+00  0.78977319701E+01  0.31896796260E+01  0.85301365616E+01  0.51100000000E-03 0.  1.
        -12    1    3    3    0    0 -0.17033721841E+02  0.12904857137E+02  0.15519649353E+02  0.26411030528E+02  0.00000000000E+00 0.  1.
</event>
<event>
 7    1  0.1427898E-010  0.4778721E+02  0.7816164E-02  0.1312668E+00
        -11   -1    0    0    0    0  0.00000000000E+00  0.00000000000E+00  0.45593999997E+02  0.45594000000E+02  0.51100000000E-03 0.  1.
         11   -1    0    0    0    0 -0.00000000000E+00 -0.00000000000E+00 -0.45593999997E+02  0.45594000000E+02  0.51100000000E-03 0. -1.
    9900012    2    1    2    0    0 -0.26746192428E+02  0.16861558214E+02 -0.29731427579E+02  0.47787208064E+02  0.19999712844E+02 0.  0.
        -12    1    1    2    0    0  0.26746192428E+02 -0.16861558214E+02  0.29731427579E+02  0.43400791936E+02  0.00000000000E+00 0.  1.
         11    1    3    3    0    0 -0.15035281068E+01  0.19569050034E+01 -0.12730915110E+02  0.12967893961E+02  0.51100000000E-03 0. -1.
        -11    1    3    3    0    0 -0.50703434122E+01  0.54291257021E+01 -0.12609205444E+01  0.75348330497E+01  0.51100000000E-03 0.  1.
        -12    1    3    3    0    0 -0.20172320909E+02  0.94755275082E+01 -0.15739591925E+02  0.27284481053E+02  0.00000000000E+00 0.  1.
</event>
<event>
 7    1  0.1427898E-010  0.4778728E+02  0.7816164E-02  0.1312668E+00
        -11   -1    0    0    0    0  0.00000000000E+00  0.00000000000E+00  0.45593999997E+02  0.45594000000E+02  0.51100000000E-03 0.  1.
         11   -1    0    0    0    0 -0.00000000000E+00 -0.00000000000E+00 -0.45593999997E+02  0.45594000000E+02  0.51100000000E-03 0. -1.
    9900012    2    1    2    0    0 -0.11361014917E+02  0.28628626598E+02 -0.30576976865E+02  0.47787280708E+02  0.20000044061E+02 0.  0.
        -12    1    1    2    0    0  0.11361014917E+02 -0.28628626598E+02  0.30576976865E+02  0.43400719292E+02  0.00000000000E+00 0.  1.
         11    1    3    3    0    0  0.17816444270E+01  0.21940425907E+01  0.45629762997E+00  0.28629159161E+01  0.51100000000E-03 0. -1.
        -11    1    3    3    0    0 -0.12451273414E+02  0.12313959629E+02 -0.12059174151E+02  0.21262443248E+02  0.51100000000E-03 0.  1.
        -12    1    3    3    0    0 -0.69138593033E+00  0.14120624378E+02 -0.18974100344E+02  0.23661921545E+02  0.00000000000E+00 0.  1.
</event>
<event>
 7    1  0.1427898E-010  0.4778728E+02  0.7816164E-02  0.1312668E+00
        -11   -1    0    0    0    0  0.00000000000E+00  0.00000000000E+00  0.45593999997E+02  0.45594000000E+02  0.51100000000E-03 0.  1.
         11   -1    0    0    0    0 -0.00000000000E+00 -0.00000000000E+00 -0.45593999997E+02  0.45594000000E+02  0.51100000000E-03 0. -1.
    9900012    2    1    2    0    0  0.37311299725E+02 -0.70958998767E+01 -0.21003266451E+02  0.47787284755E+02  0.20000062510E+02 0.  0.
        -12    1    1    2    0    0 -0.37311299725E+02  0.70958998767E+01  0.21003266451E+02  0.43400715245E+02  0.00000000000E+00 0.  1.
         11    1    3    3    0    0  0.19369534955E+02 -0.48860855747E+01 -0.11882076398E+02  0.23242987252E+02  0.51100000000E-03 0. -1.
        -11    1    3    3    0    0  0.68080661845E+00 -0.42641734407E+01 -0.51368544609E+01  0.67107337004E+01  0.51100000000E-03 0.  1.
         12    1    3    3    0    0  0.17260958151E+02  0.20543591387E+01 -0.39843355918E+01  0.17833563802E+02  0.00000000000E+00 0. -1.
</event>
<event>
 7    1  0.1427898E-010  0.4778727E+02  0.7816164E-02  0.1312668E+00
        -11   -1    0    0    0    0  0.00000000000E+00  0.00000000000E+00  0.45593999997E+02  0.45594000000E+02  0.51100000000E-03 0. -1.
         11   -1    0    0    0    0 -0.00000000000E+00 -0.00000000000E+00 -0.45593999997E+02  0.45594000000E+02  0.51100000000E-03 0.  1.
    9900012    2    1    2    0    0 -0.15126194375E+02 -0.31158687662E+02  0.26152582877E+02  0.47787272308E+02  0.20000005760E+02 0.  0.
        -12    1    1    2    0    0  0.15126194375E+02  0.31158687662E+02 -0.26152582877E+02  0.43400727692E+02  0.00000000000E+00 0.  1.
         11    1    3    3    0    0 -0.14936767185E+02 -0.11548283645E+02  0.95721352358E+01  0.21168269706E+02  0.51100000000E-03 0. -1.
        -11    1    3    3    0    0 -0.18391365706E+01 -0.11426399104E+02  0.13347234906E+02  0.17666173884E+02  0.51100000000E-03 0.  1.
        -12    1    3    3    0    0  0.16497093814E+01 -0.81840049132E+01  0.32332127354E+01  0.89528287180E+01  0.00000000000E+00 0.  1.
</event>
<event>
 7    1  0.1427898E-010  0.4778723E+02  0.7816164E-02  0.1312668E+00
        -11   -1    0    0    0    0  0.00000000000E+00  0.00000000000E+00  0.45593999997E+02  0.45594000000E+02  0.51100000000E-03 0. -1.
         11   -1    0    0    0    0 -0.00000000000E+00 -0.00000000000E+00 -0.45593999997E+02  0.45594000000E+02  0.51100000000E-03 0.  1.
    9900012    2    1    2    0    0 -0.28078126022E+02  0.15601203934E+01  0.33057706855E+02  0.47787226746E+02  0.19999798022E+02 0.  0.
        -12    1    1    2    0    0  0.28078126022E+02 -0.15601203934E+01 -0.33057706855E+02  0.43400773254E+02  0.00000000000E+00 0.  1.
         11    1    3    3    0    0 -0.11730745869E+02  0.17341687755E+01  0.64322623477E+01  0.13490431392E+02  0.51100000000E-03 0. -1.
        -11    1    3    3    0    0 -0.56732022986E+01 -0.65150342510E+01  0.14879139465E+02  0.17205222669E+02  0.51100000000E-03 0.  1.
         12    1    3    3    0    0 -0.10674177855E+02  0.63409858689E+01  0.11746305043E+02  0.17091572684E+02  0.00000000000E+00 0. -1.
</event>
<event>
 7    1  0.1427898E-010  0.4778727E+02  0.7816164E-02  0.1312668E+00
        -11   -1    0    0    0    0  0.00000000000E+00  0.00000000000E+00  0.45593999997E+02  0.45594000000E+02  0.51100000000E-03 0.  1.
         11   -1    0    0    0    0 -0.00000000000E+00 -0.00000000000E+00 -0.45593999997E+02  0.45594000000E+02  0.51100000000E-03 0. -1.
    9900012    2    1    2    0    0 -0.18901629938E+02  0.22757702639E+02 -0.31755927033E+02  0.47787267916E+02  0.19999985735E+02 0.  0.
        -12    1    1    2    0    0  0.18901629938E+02 -0.22757702639E+02  0.31755927033E+02  0.43400732084E+02  0.00000000000E+00 0.  1.
         11    1    3    3    0    0 -0.91896784745E+01  0.15144098868E+02 -0.15645635979E+02  0.23634293863E+02  0.51100000000E-03 0. -1.
        -11    1    3    3    0    0 -0.23011014812E+01  0.76009283639E+01 -0.19606070532E+01  0.81800464728E+01  0.51100000000E-03 0.  1.
         12    1    3    3    0    0 -0.74108499825E+01  0.12675407204E-01 -0.14149684001E+02  0.15972927579E+02  0.00000000000E+00 0. -1.
</event>
<event>
 7    1  0.1427898E-010  0.4778727E+02  0.7816164E-02  0.1312668E+00
        -11   -1    0    0    0    0  0.00000000000E+00  0.00000000000E+00  0.45593999997E+02  0.45594000000E+02  0.51100000000E-03 0. -1.
         11   -1    0    0    0    0 -0.00000000000E+00 -0.00000000000E+00 -0.45593999997E+02  0.45594000000E+02  0.51100000000E-03 0.  1.
    9900012    2    1    2    0    0  0.34489627113E+01  0.42745316581E+02  0.66757824675E+01  0.47787268382E+02  0.19999987861E+02 0.  0.
        -12    1    1    2    0    0 -0.34489627113E+01 -0.42745316581E+02 -0.66757824675E+01  0.43400731618E+02  0.00000000000E+00 0.  1.
         11    1    3    3    0    0 -0.21994979200E+01  0.12938964827E+02  0.21567039085E+01  0.13300600509E+02  0.51100000000E-03 0. -1.
        -11    1    3    3    0    0  0.97599398403E+01  0.19682639420E+02 -0.14836913065E+01  0.22019628979E+02  0.51100000000E-03 0.  1.
         12    1    3    3    0    0 -0.41114792090E+01  0.10123712334E+02  0.60027698655E+01  0.12467038893E+02  0.00000000000E+00 0. -1.
</event>
<event>
 7    1  0.1427898E-010  0.4778727E+02  0.7816164E-02  0.1312668E+00
        -11   -1    0    0    0    0  0.00000000000E+00  0.00000000000E+00  0.45593999997E+02  0.45594000000E+02  0.51100000000E-03 0. -1.
         11   -1    0    0    0    0 -0.00000000000E+00 -0.00000000000E+00 -0.45593999997E+02  0.45594000000E+02  0.51100000000E-03 0.  1.
    9900012    2    1    2    0    0  0.42010361375E+02  0.16672918872E+01  0.10769095582E+02  0.47787265620E+02  0.19999975267E+02 0.  0.
        -12    1    1    2    0    0 -0.42010361375E+02 -0.16672918872E+01 -0.10769095582E+02  0.43400734380E+02  0.00000000000E+00 0.  1.
         11    1    3    3    0    0  0.64282634313E+01 -0.45967753551E+01  0.13465997868E+01  0.80166230829E+01  0.51100000000E-03 0. -1.
        -11    1    3    3    0    0  0.14233682702E+02  0.90457720769E+01  0.63637188320E+01  0.18025555008E+02  0.51100000000E-03 0.  1.
         12    1    3    3    0    0  0.21348415242E+02 -0.27817048346E+01  0.30587769634E+01  0.21745087529E+02  0.00000000000E+00 0. -1.
</event>
<event>
 7    1  0.1427898E-010  0.4778727E+02  0.7816164E-02  0.1312668E+00
        -11   -1    0    0    0    0  0.00000000000E+00  0.00000000000E+00  0.45593999997E+02  0.45594000000E+02  0.51100000000E-03 0.  1.
         11   -1    0    0    0    0 -0.00000000000E+00 -0.00000000000E+00 -0.45593999997E+02  0.45594000000E+02  0.51100000000E-03 0. -1.
    9900012    2    1    2    0    0 -0.17520402933E+02 -0.60662549227E+01 -0.39241041034E+02  0.47787271098E+02  0.20000000245E+02 0.  0.
        -12    1    1    2    0    0  0.17520402933E+02  0.60662549227E+01  0.39241041034E+02  0.43400728902E+02  0.00000000000E+00 0.  1.
         11    1    3    3    0    0 -0.11819721820E+02 -0.62125711294E+01 -0.26307733993E+02  0.29502520775E+02  0.51100000000E-03 0. -1.
        -11    1    3    3    0    0 -0.13429049447E+01 -0.36599513236E+01  0.23062196237E+00  0.39053583872E+01  0.51100000000E-03 0.  1.
         12    1    3    3    0    0 -0.43577761683E+01  0.38062675303E+01 -0.13163929003E+02  0.14379391936E+02  0.00000000000E+00 0. -1.
</event>
<event>
 7    1  0.1427898E-010  0.4778727E+02  0.7816164E-02  0.1312668E+00
        -11   -1    0    0    0    0  0.00000000000E+00  0.00000000000E+00  0.45593999997E+02  0.45594000000E+02  0.51100000000E-03 0.  1.
         11   -1    0    0    0    0 -0.00000000000E+00 -0.00000000000E+00 -0.45593999997E+02  0.45594000000E+02  0.51100000000E-03 0. -1.
    9900012    2    1    2    0    0  0.91303764535E+01  0.14414006759E+02 -0.39906088605E+02  0.47787271057E+02  0.20000000057E+02 0.  0.
        -12    1    1    2    0    0 -0.91303764535E+01 -0.14414006759E+02  0.39906088605E+02  0.43400728943E+02  0.00000000000E+00 0.  1.
         11    1    3    3    0    0  0.53219834763E+01  0.62111371674E+01 -0.28677668687E+02  0.29821308063E+02  0.51100000000E-03 0. -1.
        -11    1    3    3    0    0  0.59236544525E+01  0.97446324222E+01 -0.92884980284E+01  0.14707948157E+02  0.51100000000E-03 0.  1.
         12    1    3    3    0    0 -0.21152614753E+01 -0.15417628307E+01 -0.19399218901E+01  0.32580148364E+01  0.00000000000E+00 0. -1.
</event>
<event>
 7    1  0.1427898E-010  0.4778730E+02  0.7816164E-02  0.1312668E+00
        -11   -1    0    0    0    0  0.00000000000E+00  0.00000000000E+00  0.45593999997E+02  0.45594000000E+02  0.51100000000E-03 0.  1.
         11   -1    0    0    0    0 -0.00000000000E+00 -0.00000000000E+00 -0.45593999997E+02  0.45594000000E+02  0.51100000000E-03 0. -1.
    9900012    2    1    2    0    0  0.38712873073E+02 -0.29845298066E+01 -0.19391418994E+02  0.47787296200E+02  0.20000114695E+02 0.  0.
        -12    1    1    2    0    0 -0.38712873073E+02  0.29845298066E+01  0.19391418994E+02  0.43400703800E+02  0.00000000000E+00 0.  1.
         11    1    3    3    0    0  0.18782399525E+02 -0.33681718662E+01 -0.16239089614E+02  0.25056558929E+02  0.51100000000E-03 0. -1.
        -11    1    3    3    0    0  0.18882661147E+02  0.25962477236E+01 -0.49510180663E+01  0.19692840689E+02  0.51100000000E-03 0.  1.
        -12    1    3    3    0    0  0.10478124008E+01 -0.22126056640E+01  0.17986886863E+01  0.30378965818E+01  0.00000000000E+00 0.  1.
</event>
<event>
 7    1  0.1427898E-010  0.4778727E+02  0.7816164E-02  0.1312668E+00
        -11   -1    0    0    0    0  0.00000000000E+00  0.00000000000E+00  0.45593999997E+02  0.45594000000E+02  0.51100000000E-03 0.  1.
         11   -1    0    0    0    0 -0.00000000000E+00 -0.00000000000E+00 -0.45593999997E+02  0.45594000000E+02  0.51100000000E-03 0. -1.
    9900012    2    1    2    0    0  0.26337752574E+02  0.28310179254E+02 -0.19709897303E+02  0.47787268304E+02  0.19999987507E+02 0.  0.
        -12    1    1    2    0    0 -0.26337752574E+02 -0.28310179254E+02  0.19709897303E+02  0.43400731696E+02  0.00000000000E+00 0.  1.
         11    1    3    3    0    0  0.15264047452E+02  0.46650496387E+01 -0.98722281990E+01  0.18767384544E+02  0.51100000000E-03 0. -1.
        -11    1    3    3    0    0  0.70244254144E+00  0.51148213771E+01  0.87346247367E+00  0.52361971122E+01  0.51100000000E-03 0.  1.
        -12    1    3    3    0    0  0.10371262580E+02  0.18530308238E+02 -0.10711131577E+02  0.23783686648E+02  0.00000000000E+00 0.  1.
</event>
<event>
 7    1  0.1427898E-010  0.4778727E+02  0.7816164E-02  0.1312668E+00
        -11   -1    0    0    0    0  0.00000000000E+00  0.00000000000E+00  0.45593999997E+02  0.45594000000E+02  0.51100000000E-03 0.  1.
         11   -1    0    0    0    0 -0.00000000000E+00 -0.00000000000E+00 -0.45593999997E+02  0.45594000000E+02  0.51100000000E-03 0. -1.
    9900012    2    1    2    0    0  0.71428506565E+01  0.18266012992E+02 -0.38716351545E+02  0.47787269325E+02  0.19999992160E+02 0.  0.
        -12    1    1    2    0    0 -0.71428506565E+01 -0.18266012992E+02  0.38716351545E+02  0.43400730675E+02  0.00000000000E+00 0.  1.
         11    1    3    3    0    0  0.39529867114E+01  0.61886902139E+01 -0.33217771305E+02  0.34019793081E+02  0.51100000000E-03 0. -1.
        -11    1    3    3    0    0  0.19858672308E+01  0.41206351186E+01 -0.19470088429E+01  0.49713324305E+01  0.51100000000E-03 0.  1.
         12    1    3    3    0    0  0.12039967143E+01  0.79566876598E+01 -0.35515713975E+01  0.87961438139E+01  0.00000000000E+00 0. -1.
</event>
<event>
 7    1  0.1427898E-010  0.4778727E+02  0.7816164E-02  0.1312668E+00
        -11   -1    0    0    0    0  0.00000000000E+00  0.00000000000E+00  0.45593999997E+02  0.45594000000E+02  0.51100000000E-03 0.  1.
         11   -1    0    0    0    0 -0.00000000000E+00 -0.00000000000E+00 -0.45593999997E+02  0.45594000000E+02  0.51100000000E-03 0. -1.
    9900012    2    1    2    0    0 -0.36328240919E+02  0.18142898479E+02 -0.15320494817E+02  0.47787269420E+02  0.19999992592E+02 0.  0.
        -12    1    1    2    0    0  0.36328240919E+02 -0.18142898479E+02  0.15320494817E+02  0.43400730580E+02  0.00000000000E+00 0.  1.
         11    1    3    3    0    0 -0.30056438190E+02  0.87387966295E+01 -0.73160881964E+01  0.32144691474E+02  0.51100000000E-03 0. -1.
        -11    1    3    3    0    0 -0.58671646101E+01  0.80786538847E+01 -0.29639077944E+01  0.10415038110E+02  0.51100000000E-03 0.  1.
        -12    1    3    3    0    0 -0.40463811842E+00  0.13254479645E+01 -0.50404988266E+01  0.52275398358E+01  0.00000000000E+00 0.  1.
</event>
<event>
 7    1  0.1427898E-010  0.4778727E+02  0.7816164E-02  0.1312668E+00
        -11   -1    0    0    0    0  0.00000000000E+00  0.00000000000E+00  0.45593999997E+02  0.45594000000E+02  0.51100000000E-03 0. -1.
         11   -1    0    0    0    0 -0.00000000000E+00 -0.00000000000E+00 -0.45593999997E+02  0.45594000000E+02  0.51100000000E-03 0.  1.
    9900012    2    1    2    0    0  0.15476771147E+02 -0.30943738465E+02  0.26202633682E+02  0.47787269508E+02  0.19999992995E+02 0.  0.
        -12    1    1    2    0    0 -0.15476771147E+02  0.30943738465E+02 -0.26202633682E+02  0.43400730492E+02  0.00000000000E+00 0.  1.
         11    1    3    3    0    0  0.57493246849E+01 -0.13712752572E+02  0.10299062171E+02  0.18087702986E+02  0.51100000000E-03 0. -1.
        -11    1    3    3    0    0 -0.22004246382E+01 -0.27714510128E+01  0.90911618470E+01  0.97556154749E+01  0.51100000000E-03 0.  1.
        -12    1    3    3    0    0  0.11927871100E+02 -0.14459534881E+02  0.68124096642E+01  0.19943951048E+02  0.00000000000E+00 0.  1.
</event>
<event>
 7    1  0.1427898E-010  0.4778727E+02  0.7816164E-02  0.1312668E+00
        -11   -1    0    0    0    0  0.00000000000E+00  0.00000000000E+00  0.45593999997E+02  0.45594000000E+02  0.51100000000E-03 0.  1.
         11   -1    0    0    0    0 -0.00000000000E+00 -0.00000000000E+00 -0.45593999997E+02  0.45594000000E+02  0.51100000000E-03 0. -1.
    9900012    2    1    2    0    0  0.85026049478E+00  0.41927105872E+02 -0.11181147444E+02  0.47787271805E+02  0.20000003469E+02 0.  0.
        -12    1    1    2    0    0 -0.85026049478E+00 -0.41927105872E+02  0.11181147444E+02  0.43400728195E+02  0.00000000000E+00 0.  1.
         11    1    3    3    0    0  0.30544512851E+01  0.16899637485E+01 -0.52226236757E+01  0.62818347991E+01  0.51100000000E-03 0. -1.
        -11    1    3    3    0    0 -0.29800223793E+01  0.10179703783E+02  0.96633836242E+00  0.10650855016E+02  0.51100000000E-03 0.  1.
         12    1    3    3    0    0  0.77583158900E+00  0.30057438341E+02 -0.69248621303E+01  0.30854581990E+02  0.00000000000E+00 0. -1.
</event>
<event>
 7    1  0.1427898E-010  0.4778728E+02  0.7816164E-02  0.1312668E+00
        -11   -1    0    0    0    0  0.00000000000E+00  0.00000000000E+00  0.45593999997E+02  0.45594000000E+02  0.51100000000E-03 0.  1.
         11   -1    0    0    0    0 -0.00000000000E+00 -0.00000000000E+00 -0.45593999997E+02  0.45594000000E+02  0.51100000000E-03 0. -1.
    9900012    2    1    2    0    0  0.34899795758E+02  0.25785935860E+02 -0.84416709922E+00  0.47787275925E+02  0.20000022253E+02 0.  0.
        -12    1    1    2    0    0 -0.34899795758E+02 -0.25785935860E+02  0.84416709922E+00  0.43400724075E+02  0.00000000000E+00 0.  1.
         11    1    3    3    0    0  0.80252620178E+01  0.18082206630E+02 -0.73378718955E+00  0.19796703538E+02  0.51100000000E-03 0. -1.
        -11    1    3    3    0    0  0.92469089247E+01  0.19776323665E+01 -0.30332828247E-01  0.94560707897E+01  0.51100000000E-03 0.  1.
         12    1    3    3    0    0  0.17627624816E+02  0.57260968630E+01 -0.80047081421E-01  0.18534501598E+02  0.00000000000E+00 0. -1.
</event>
<event>
 7    1  0.1427898E-010  0.4778727E+02  0.7816164E-02  0.1312668E+00
        -11   -1    0    0    0    0  0.00000000000E+00  0.00000000000E+00  0.45593999997E+02  0.45594000000E+02  0.51100000000E-03 0. -1.
         11   -1    0    0    0    0 -0.00000000000E+00 -0.00000000000E+00 -0.45593999997E+02  0.45594000000E+02  0.51100000000E-03 0.  1.
    9900012    2    1    2    0    0  0.18566770466E+02  0.36059264907E+02  0.15447595846E+02  0.47787265345E+02  0.19999974014E+02 0.  0.
        -12    1    1    2    0    0 -0.18566770466E+02 -0.36059264907E+02 -0.15447595846E+02  0.43400734655E+02  0.00000000000E+00 0.  1.
         11    1    3    3    0    0  0.21101008357E+01  0.38990135093E+00  0.40532834106E+01  0.45862463157E+01  0.51100000000E-03 0. -1.
        -11    1    3    3    0    0  0.10169901301E+02  0.27742616973E+02  0.14083416678E+02  0.32732587960E+02  0.51100000000E-03 0.  1.
         12    1    3    3    0    0  0.62867683296E+01  0.79267465830E+01 -0.26891042431E+01  0.10468431069E+02  0.00000000000E+00 0. -1.
</event>
<event>
 7    1  0.1427898E-010  0.4778727E+02  0.7816164E-02  0.1312668E+00
        -11   -1    0    0    0    0  0.00000000000E+00  0.00000000000E+00  0.45593999997E+02  0.45594000000E+02  0.51100000000E-03 0.  1.
         11   -1    0    0    0    0 -0.00000000000E+00 -0.00000000000E+00 -0.45593999997E+02  0.45594000000E+02  0.51100000000E-03 0. -1.
    9900012    2    1    2    0    0 -0.13896279892E+02  0.40993970471E+02  0.31640250408E+01  0.47787271155E+02  0.20000000503E+02 0.  0.
        -12    1    1    2    0    0  0.13896279892E+02 -0.40993970471E+02 -0.31640250408E+01  0.43400728845E+02  0.00000000000E+00 0.  1.
         11    1    3    3    0    0 -0.41268907919E+01  0.11151254403E+02 -0.37216883435E+01  0.12459240216E+02  0.51100000000E-03 0. -1.
        -11    1    3    3    0    0 -0.62803133796E+01  0.27800790223E+01 -0.96233184009E+00  0.69352186951E+01  0.51100000000E-03 0.  1.
        -12    1    3    3    0    0 -0.34890757202E+01  0.27062637046E+02  0.78480452244E+01  0.28392812244E+02  0.00000000000E+00 0.  1.
</event>
<event>
 7    1  0.1427898E-010  0.4778729E+02  0.7816164E-02  0.1312668E+00
        -11   -1    0    0    0    0  0.00000000000E+00  0.00000000000E+00  0.45593999997E+02  0.45594000000E+02  0.51100000000E-03 0.  1.
         11   -1    0    0    0    0 -0.00000000000E+00 -0.00000000000E+00 -0.45593999997E+02  0.45594000000E+02  0.51100000000E-03 0. -1.
    9900012    2    1    2    0    0  0.39398076891E+02  0.40435400287E+01 -0.17750023509E+02  0.47787285567E+02  0.20000066216E+02 0.  0.
        -12    1    1    2    0    0 -0.39398076891E+02 -0.40435400287E+01  0.17750023509E+02  0.43400714433E+02  0.00000000000E+00 0.  1.
         11    1    3    3    0    0  0.11474644200E+02  0.64994446731E+01 -0.74018011384E+01  0.15122727959E+02  0.51100000000E-03 0. -1.
        -11    1    3    3    0    0  0.11335273728E+02  0.51737966786E+01 -0.21272663845E+01  0.12640485160E+02  0.51100000000E-03 0.  1.
        -12    1    3    3    0    0  0.16588158963E+02 -0.76297013230E+01 -0.82209559866E+01  0.20024072448E+02  0.00000000000E+00 0.  1.
</event>
<event>
 7    1  0.1427898E-010  0.4778727E+02  0.7816164E-02  0.1312668E+00
        -11   -1    0    0    0    0  0.00000000000E+00  0.00000000000E+00  0.45593999997E+02  0.45594000000E+02  0.51100000000E-03 0. -1.
         11   -1    0    0    0    0 -0.00000000000E+00 -0.00000000000E+00 -0.45593999997E+02  0.45594000000E+02  0.51100000000E-03 0.  1.
    9900012    2    1    2    0    0 -0.26341165056E+02  0.29135639066E+02  0.18462952270E+02  0.47787273660E+02  0.20000011927E+02 0.  0.
        -12    1    1    2    0    0  0.26341165056E+02 -0.29135639066E+02 -0.18462952270E+02  0.43400726340E+02  0.00000000000E+00 0.  1.
         11    1    3    3    0    0 -0.88338870719E+01  0.10985008333E+02  0.24248424605E+01  0.14303420224E+02  0.51100000000E-03 0. -1.
        -11    1    3    3    0    0 -0.13680631409E+02  0.13899134357E+02  0.18838428691E+02  0.27115161947E+02  0.51100000000E-03 0.  1.
         12    1    3    3    0    0 -0.38266465745E+01  0.42514963763E+01 -0.28003188817E+01  0.63686914891E+01  0.00000000000E+00 0. -1.
</event>
<event>
 7    1  0.1427898E-010  0.4778728E+02  0.7816164E-02  0.1312668E+00
        -11   -1    0    0    0    0  0.00000000000E+00  0.00000000000E+00  0.45593999997E+02  0.45594000000E+02  0.51100000000E-03 0.  1.
         11   -1    0    0    0    0 -0.00000000000E+00 -0.00000000000E+00 -0.45593999997E+02  0.45594000000E+02  0.51100000000E-03 0. -1.
    9900012    2    1    2    0    0  0.25670887416E+02  0.34741540674E+02 -0.42016362692E+01  0.47787275853E+02  0.20000021923E+02 0.  0.
        -12    1    1    2    0    0 -0.25670887416E+02 -0.34741540674E+02  0.42016362692E+01  0.43400724147E+02  0.00000000000E+00 0.  1.
         11    1    3    3    0    0  0.35001415429E+01  0.10829669393E+01 -0.10711125303E+01  0.38172097828E+01  0.51100000000E-03 0. -1.
        -11    1    3    3    0    0  0.16397548266E+02  0.11572072791E+02 -0.60351211596E+01  0.20957460378E+02  0.51100000000E-03 0.  1.
        -12    1    3    3    0    0  0.57731976073E+01  0.22086500944E+02  0.29045974207E+01  0.23012605693E+02  0.00000000000E+00 0.  1.
</event>
<event>
 7    1  0.1427898E-010  0.4778727E+02  0.7816164E-02  0.1312668E+00
        -11   -1    0    0    0    0  0.00000000000E+00  0.00000000000E+00  0.45593999997E+02  0.45594000000E+02  0.51100000000E-03 0. -1.
         11   -1    0    0    0    0 -0.00000000000E+00 -0.00000000000E+00 -0.45593999997E+02  0.45594000000E+02  0.51100000000E-03 0.  1.
    9900012    2    1    2    0    0 -0.22794654093E+01 -0.41960148371E+02  0.10852351550E+02  0.47787267886E+02  0.19999985598E+02 0.  0.
        -12    1    1    2    0    0  0.22794654093E+01  0.41960148371E+02 -0.10852351550E+02  0.43400732114E+02  0.00000000000E+00 0.  1.
         11    1    3    3    0    0  0.11751226603E+01 -0.69389331579E+00  0.59030400005E+01  0.60587360653E+01  0.51100000000E-03 0.  1.
        -11    1    3    3    0    0 -0.58145817635E+00 -0.14054932627E+02  0.19699987429E+01  0.14204228951E+02  0.51100000000E-03 0. -1.
        -12    1    3    3    0    0 -0.28731298932E+01 -0.27211322428E+02  0.29793128063E+01  0.27524302870E+02  0.00000000000E+00 0.  1.
</event>
<event>
 7    1  0.1427898E-010  0.4778727E+02  0.7816164E-02  0.1312668E+00
        -11   -1    0    0    0    0  0.00000000000E+00  0.00000000000E+00  0.45593999997E+02  0.45594000000E+02  0.51100000000E-03 0. -1.
         11   -1    0    0    0    0 -0.00000000000E+00 -0.00000000000E+00 -0.45593999997E+02  0.45594000000E+02  0.51100000000E-03 0.  1.
    9900012    2    1    2    0    0  0.78340407514E+01 -0.51037697402E+01  0.42381628284E+02  0.47787273323E+02  0.20000010391E+02 0.  0.
        -12    1    1    2    0    0 -0.78340407514E+01  0.51037697402E+01 -0.42381628284E+02  0.43400726677E+02  0.00000000000E+00 0.  1.
         11    1    3    3    0    0  0.24376345972E+01 -0.19248341944E+01  0.18527204656E-01  0.31060252130E+01  0.51100000000E-03 0. -1.
        -11    1    3    3    0    0  0.78427298209E+01  0.18449817231E+00  0.14289906570E+02  0.16301652697E+02  0.51100000000E-03 0.  1.
         12    1    3    3    0    0 -0.24463236667E+01 -0.33634337181E+01  0.28073194510E+02  0.28379595414E+02  0.00000000000E+00 0. -1.
</event>
<event>
 7    1  0.1427898E-010  0.4778727E+02  0.7816164E-02  0.1312668E+00
        -11   -1    0    0    0    0  0.00000000000E+00  0.00000000000E+00  0.45593999997E+02  0.45594000000E+02  0.51100000000E-03 0. -1.
         11   -1    0    0    0    0 -0.00000000000E+00 -0.00000000000E+00 -0.45593999997E+02  0.45594000000E+02  0.51100000000E-03 0.  1.
    9900012    2    1    2    0    0 -0.36292581246E+02  0.21888888721E+02 -0.93460360867E+01  0.47787270819E+02  0.19999998973E+02 0.  0.
        -12    1    1    2    0    0  0.36292581246E+02 -0.21888888721E+02  0.93460360867E+01  0.43400729181E+02  0.00000000000E+00 0.  1.
         11    1    3    3    0    0 -0.20329047163E+02  0.10032202358E+02 -0.18835111817E+00  0.22670481228E+02  0.51100000000E-03 0. -1.
        -11    1    3    3    0    0 -0.58115220610E+00 -0.20829274631E+01  0.50279798609E+00  0.22201645838E+01  0.51100000000E-03 0.  1.
        -12    1    3    3    0    0 -0.15382381876E+02  0.13939613825E+02 -0.96604829546E+01  0.22896625007E+02  0.00000000000E+00 0.  1.
</event>
<event>
 7    1  0.1427898E-010  0.4778727E+02  0.7816164E-02  0.1312668E+00
        -11   -1    0    0    0    0  0.00000000000E+00  0.00000000000E+00  0.45593999997E+02  0.45594000000E+02  0.51100000000E-03 0.  1.
         11   -1    0    0    0    0 -0.00000000000E+00 -0.00000000000E+00 -0.45593999997E+02  0.45594000000E+02  0.51100000000E-03 0. -1.
    9900012    2    1    2    0    0  0.36834783079E+01 -0.28185749877E+02 -0.32796626881E+02  0.47787271396E+02  0.20000001605E+02 0.  0.
        -12    1    1    2    0    0 -0.36834783079E+01  0.28185749877E+02  0.32796626881E+02  0.43400728604E+02  0.00000000000E+00 0.  1.
         11    1    3    3    0    0  0.30234998175E+01 -0.21405559952E+02 -0.18576523189E+02  0.28503100920E+02  0.51100000000E-03 0. -1.
        -11    1    3    3    0    0  0.18089611130E+01 -0.53680552342E+01 -0.15855466953E+02  0.16836988741E+02  0.51100000000E-03 0.  1.
        -12    1    3    3    0    0 -0.11489826225E+01 -0.14121346909E+01  0.16353632610E+01  0.24471817357E+01  0.00000000000E+00 0.  1.
</event>
<event>
 7    1  0.1427898E-010  0.4778727E+02  0.7816164E-02  0.1312668E+00
        -11   -1    0    0    0    0  0.00000000000E+00  0.00000000000E+00  0.45593999997E+02  0.45594000000E+02  0.51100000000E-03 0.  1.
         11   -1    0    0    0    0 -0.00000000000E+00 -0.00000000000E+00 -0.45593999997E+02  0.45594000000E+02  0.51100000000E-03 0. -1.
    9900012    2    1    2    0    0  0.39152914404E+02 -0.15157041494E+02 -0.10997132265E+02  0.47787268080E+02  0.19999986484E+02 0.  0.
        -12    1    1    2    0    0 -0.39152914404E+02  0.15157041494E+02  0.10997132265E+02  0.43400731920E+02  0.00000000000E+00 0.  1.
         11    1    3    3    0    0  0.14113678480E+02 -0.62162458555E+01 -0.33463775551E+01  0.15780870565E+02  0.51100000000E-03 0. -1.
        -11    1    3    3    0    0  0.26209562970E+01 -0.44293087591E+01  0.38329839667E+01  0.64171609255E+01  0.51100000000E-03 0.  1.
        -12    1    3    3    0    0  0.22418279626E+02 -0.45114868792E+01 -0.11483738676E+02  0.25589236590E+02  0.00000000000E+00 0.  1.
</event>
<event>
 7    1  0.1427898E-010  0.4778727E+02  0.7816164E-02  0.1312668E+00
        -11   -1    0    0    0    0  0.00000000000E+00  0.00000000000E+00  0.45593999997E+02  0.45594000000E+02  0.51100000000E-03 0. -1.
         11   -1    0    0    0    0 -0.00000000000E+00 -0.00000000000E+00 -0.45593999997E+02  0.45594000000E+02  0.51100000000E-03 0.  1.
    9900012    2    1    2    0    0 -0.26670173230E+02 -0.32574187115E+02  0.10547395034E+02  0.47787270187E+02  0.19999996091E+02 0.  0.
        -12    1    1    2    0    0  0.26670173230E+02  0.32574187115E+02 -0.10547395034E+02  0.43400729813E+02  0.00000000000E+00 0.  1.
         11    1    3    3    0    0 -0.31444434471E+01 -0.50752368794E+01 -0.21853328396E+01  0.63577695660E+01  0.51100000000E-03 0.  1.
        -11    1    3    3    0    0 -0.15892655518E+02 -0.12152241074E+02  0.13723326507E+02  0.24260732743E+02  0.51100000000E-03 0. -1.
         12    1    3    3    0    0 -0.76330742647E+01 -0.15346709161E+02 -0.99059863377E+00  0.17168767878E+02  0.00000000000E+00 0. -1.
</event>
<event>
 7    1  0.1427898E-010  0.4778727E+02  0.7816164E-02  0.1312668E+00
        -11   -1    0    0    0    0  0.00000000000E+00  0.00000000000E+00  0.45593999997E+02  0.45594000000E+02  0.51100000000E-03 0.  1.
         11   -1    0    0    0    0 -0.00000000000E+00 -0.00000000000E+00 -0.45593999997E+02  0.45594000000E+02  0.51100000000E-03 0. -1.
    9900012    2    1    2    0    0  0.42496711089E+02  0.88120873301E+01  0.53579548552E-02  0.47787269993E+02  0.19999995205E+02 0.  0.
        -12    1    1    2    0    0 -0.42496711089E+02 -0.88120873301E+01 -0.53579548552E-02  0.43400730007E+02  0.00000000000E+00 0.  1.
         11    1    3    3    0    0  0.37668598498E+02  0.99118446897E+01 -0.48849931909E+01  0.39255969440E+02  0.51100000000E-03 0. -1.
        -11    1    3    3    0    0  0.54880635536E+01  0.13676439313E+00  0.32741506813E+01  0.63919956987E+01  0.51100000000E-03 0.  1.
         12    1    3    3    0    0 -0.65995096261E+00 -0.12365217527E+01  0.16162004644E+01  0.21393048542E+01  0.00000000000E+00 0. -1.
</event>
<event>
 7    1  0.1427898E-010  0.4778726E+02  0.7816164E-02  0.1312668E+00
        -11   -1    0    0    0    0  0.00000000000E+00  0.00000000000E+00  0.45593999997E+02  0.45594000000E+02  0.51100000000E-03 0.  1.
         11   -1    0    0    0    0 -0.00000000000E+00 -0.00000000000E+00 -0.45593999997E+02  0.45594000000E+02  0.51100000000E-03 0. -1.
    9900012    2    1    2    0    0  0.41893591718E+02  0.41075165299E+01 -0.10567843722E+02  0.47787262218E+02  0.19999959759E+02 0.  0.
        -12    1    1    2    0    0 -0.41893591718E+02 -0.41075165299E+01  0.10567843722E+02  0.43400737782E+02  0.00000000000E+00 0.  1.
         11    1    3    3    0    0  0.10785236196E+02  0.12652197006E+01 -0.78679621363E+01  0.13409956343E+02  0.51100000000E-03 0. -1.
        -11    1    3    3    0    0  0.26625385943E+02  0.15128110199E+01  0.31883831375E+01  0.26858249404E+02  0.51100000000E-03 0.  1.
        -12    1    3    3    0    0  0.44829695795E+01  0.13294858093E+01 -0.58882647228E+01  0.75190564709E+01  0.00000000000E+00 0.  1.
</event>
<event>
 7    1  0.1427898E-010  0.4778727E+02  0.7816164E-02  0.1312668E+00
        -11   -1    0    0    0    0  0.00000000000E+00  0.00000000000E+00  0.45593999997E+02  0.45594000000E+02  0.51100000000E-03 0. -1.
         11   -1    0    0    0    0 -0.00000000000E+00 -0.00000000000E+00 -0.45593999997E+02  0.45594000000E+02  0.51100000000E-03 0.  1.
    9900012    2    1    2    0    0  0.40540915176E+02 -0.23108898831E+01  0.15320483250E+02  0.47787271638E+02  0.20000002706E+02 0.  0.
        -12    1    1    2    0    0 -0.40540915176E+02  0.23108898831E+01 -0.15320483250E+02  0.43400728362E+02  0.00000000000E+00 0.  1.
         11    1    3    3    0    0  0.14792625629E+02 -0.10077405309E+00  0.12335072351E+01  0.14844307621E+02  0.51100000000E-03 0. -1.
        -11    1    3    3    0    0  0.21229692156E+02  0.24230790975E+01  0.52737008395E+01  0.22008704237E+02  0.51100000000E-03 0.  1.
        -12    1    3    3    0    0  0.45185973905E+01 -0.46331949275E+01  0.88132751757E+01  0.10934259780E+02  0.00000000000E+00 0.  1.
</event>
<event>
 7    1  0.1427898E-010  0.4778727E+02  0.7816164E-02  0.1312668E+00
        -11   -1    0    0    0    0  0.00000000000E+00  0.00000000000E+00  0.45593999997E+02  0.45594000000E+02  0.51100000000E-03 0.  1.
         11   -1    0    0    0    0 -0.00000000000E+00 -0.00000000000E+00 -0.45593999997E+02  0.45594000000E+02  0.51100000000E-03 0. -1.
    9900012    2    1    2    0    0  0.20879733759E+02 -0.21694524237E+02 -0.31257128887E+02  0.47787265329E+02  0.19999973941E+02 0.  0.
        -12    1    1    2    0    0 -0.20879733759E+02  0.21694524237E+02  0.31257128887E+02  0.43400734671E+02  0.00000000000E+00 0.  1.
         11    1    3    3    0    0  0.76695549211E+01 -0.38126815749E+01 -0.59361863969E+01  0.10420984727E+02  0.51100000000E-03 0. -1.
        -11    1    3    3    0    0 -0.29147567860E+01 -0.72855394153E+01 -0.47989725431E+01  0.91980992289E+01  0.51100000000E-03 0.  1.
         12    1    3    3    0    0  0.16124935624E+02 -0.10596303247E+02 -0.20521969947E+02  0.28168181373E+02  0.00000000000E+00 0. -1.
</event>
<event>
 7    1  0.1427898E-010  0.4778727E+02  0.7816164E-02  0.1312668E+00
        -11   -1    0    0    0    0  0.00000000000E+00  0.00000000000E+00  0.45593999997E+02  0.45594000000E+02  0.51100000000E-03 0. -1.
         11   -1    0    0    0    0 -0.00000000000E+00 -0.00000000000E+00 -0.45593999997E+02  0.45594000000E+02  0.51100000000E-03 0.  1.
    9900012    2    1    2    0    0 -0.33007968688E+02 -0.50814592034E+01  0.27717794917E+02  0.47787269826E+02  0.19999994445E+02 0.  0.
        -12    1    1    2    0    0  0.33007968688E+02  0.50814592034E+01 -0.27717794917E+02  0.43400730174E+02  0.00000000000E+00 0.  1.
         11    1    3    3    0    0 -0.84565571890E+01  0.23271575489E+01  0.15930490365E+02  0.18185421229E+02  0.51100000000E-03 0. -1.
        -11    1    3    3    0    0 -0.45252663933E+01 -0.53696148059E+01  0.28933345733E+01  0.75948788211E+01  0.51100000000E-03 0.  1.
        -12    1    3    3    0    0 -0.20026145106E+02 -0.20390019464E+01  0.88939699793E+01  0.22006969776E+02  0.00000000000E+00 0.  1.
</event>
<event>
 7    1  0.1427898E-010  0.4778727E+02  0.7816164E-02  0.1312668E+00
        -11   -1    0    0    0    0  0.00000000000E+00  0.00000000000E+00  0.45593999997E+02  0.45594000000E+02  0.51100000000E-03 0.  1.
         11   -1    0    0    0    0 -0.00000000000E+00 -0.00000000000E+00 -0.45593999997E+02  0.45594000000E+02  0.51100000000E-03 0. -1.
    9900012    2    1    2    0    0  0.45106940172E+01  0.36230942312E+02 -0.23464778362E+02  0.47787269996E+02  0.19999995218E+02 0.  0.
        -12    1    1    2    0    0 -0.45106940172E+01 -0.36230942312E+02  0.23464778362E+02  0.43400730004E+02  0.00000000000E+00 0.  1.
         11    1    3    3    0    0  0.40750804517E+01  0.21405013060E+02 -0.15667540669E+02  0.26837524022E+02  0.51100000000E-03 0. -1.
        -11    1    3    3    0    0 -0.31606593722E+01  0.20875634955E+01 -0.66636903667E+01  0.76650152367E+01  0.51100000000E-03 0.  1.
         12    1    3    3    0    0  0.35962729377E+01  0.12738365757E+02 -0.11335473264E+01  0.13284730737E+02  0.00000000000E+00 0. -1.
</event>
<event>
 7    1  0.1427898E-010  0.4778727E+02  0.7816164E-02  0.1312668E+00
        -11   -1    0    0    0    0  0.00000000000E+00  0.00000000000E+00  0.45593999997E+02  0.45594000000E+02  0.51100000000E-03 0.  1.
         11   -1    0    0    0    0 -0.00000000000E+00 -0.00000000000E+00 -0.45593999997E+02  0.45594000000E+02  0.51100000000E-03 0. -1.
    9900012    2    1    2    0    0 -0.27399626315E+02 -0.80794848366E+01 -0.32674242531E+02  0.47787265877E+02  0.19999976441E+02 0.  0.
        -12    1    1    2    0    0  0.27399626315E+02  0.80794848366E+01  0.32674242531E+02  0.43400734123E+02  0.00000000000E+00 0.  1.
         11    1    3    3    0    0 -0.28500416691E+02 -0.36409739456E+01 -0.31750349686E+02  0.42820732692E+02  0.51100000000E-03 0. -1.
        -11    1    3    3    0    0  0.28597897986E+00 -0.38503569737E+01 -0.88379638544E+00  0.39608242973E+01  0.51100000000E-03 0.  1.
         12    1    3    3    0    0  0.81481139613E+00 -0.58815391724E+00 -0.40096459709E-01  0.10057088882E+01  0.00000000000E+00 0. -1.
</event>
<event>
 7    1  0.1427898E-010  0.4778728E+02  0.7816164E-02  0.1312668E+00
        -11   -1    0    0    0    0  0.00000000000E+00  0.00000000000E+00  0.45593999997E+02  0.45594000000E+02  0.51100000000E-03 0.  1.
         11   -1    0    0    0    0 -0.00000000000E+00 -0.00000000000E+00 -0.45593999997E+02  0.45594000000E+02  0.51100000000E-03 0. -1.
    9900012    2    1    2    0    0  0.26430194151E+01  0.41611455711E+02 -0.12046734653E+02  0.47787278649E+02  0.20000034673E+02 0.  0.
        -12    1    1    2    0    0 -0.26430194151E+01 -0.41611455711E+02  0.12046734653E+02  0.43400721351E+02  0.00000000000E+00 0.  1.
         11    1    3    3    0    0 -0.37470601316E+01  0.16849580992E+02 -0.30583055541E+01  0.17530033439E+02  0.51100000000E-03 0.  1.
        -11    1    3    3    0    0  0.58672018981E+00 -0.16834120205E+01 -0.20969070784E+00  0.17950172885E+01  0.51100000000E-03 0. -1.
         12    1    3    3    0    0  0.58033593569E+01  0.26445286739E+02 -0.87787383911E+01  0.28462227921E+02  0.00000000000E+00 0. -1.
</event>
<event>
 7    1  0.1427898E-010  0.4778727E+02  0.7816164E-02  0.1312668E+00
        -11   -1    0    0    0    0  0.00000000000E+00  0.00000000000E+00  0.45593999997E+02  0.45594000000E+02  0.51100000000E-03 0. -1.
         11   -1    0    0    0    0 -0.00000000000E+00 -0.00000000000E+00 -0.45593999997E+02  0.45594000000E+02  0.51100000000E-03 0.  1.
    9900012    2    1    2    0    0  0.27220572830E+02  0.33468012893E+02 -0.47493154918E+01  0.47787268787E+02  0.19999989708E+02 0.  0.
        -12    1    1    2    0    0 -0.27220572830E+02 -0.33468012893E+02  0.47493154918E+01  0.43400731213E+02  0.00000000000E+00 0.  1.
         11    1    3    3    0    0  0.62565130320E+01  0.11197681157E+02  0.11126842664E+01  0.12875173208E+02  0.51100000000E-03 0. -1.
        -11    1    3    3    0    0  0.41015277017E+01  0.90350667892E+01 -0.88160035035E+01  0.13273163881E+02  0.51100000000E-03 0.  1.
         12    1    3    3    0    0  0.16862532096E+02  0.13235264947E+02  0.29540037453E+01  0.21638931698E+02  0.00000000000E+00 0. -1.
</event>
<event>
 7    1  0.1427898E-010  0.4778727E+02  0.7816164E-02  0.1312668E+00
        -11   -1    0    0    0    0  0.00000000000E+00  0.00000000000E+00  0.45593999997E+02  0.45594000000E+02  0.51100000000E-03 0.  1.
         11   -1    0    0    0    0 -0.00000000000E+00 -0.00000000000E+00 -0.45593999997E+02  0.45594000000E+02  0.51100000000E-03 0. -1.
    9900012    2    1    2    0    0  0.64154958801E+01 -0.26315795167E+02 -0.33910823620E+02  0.47787267043E+02  0.19999981754E+02 0.  0.
        -12    1    1    2    0    0 -0.64154958801E+01  0.26315795167E+02  0.33910823620E+02  0.43400732957E+02  0.00000000000E+00 0.  1.
         11    1    3    3    0    0 -0.19508636830E+01 -0.29229249154E+01 -0.89434752788E+00  0.36261849005E+01  0.51100000000E-03 0. -1.
        -11    1    3    3    0    0 -0.35841799028E+01 -0.35378013511E+01 -0.19435257108E+01  0.53981178594E+01  0.51100000000E-03 0.  1.
         12    1    3    3    0    0  0.11950539466E+02 -0.19855068901E+02 -0.31072950381E+02  0.38762964283E+02  0.00000000000E+00 0. -1.
</event>
<event>
 7    1  0.1427898E-010  0.4778727E+02  0.7816164E-02  0.1312668E+00
        -11   -1    0    0    0    0  0.00000000000E+00  0.00000000000E+00  0.45593999997E+02  0.45594000000E+02  0.51100000000E-03 0.  1.
         11   -1    0    0    0    0 -0.00000000000E+00 -0.00000000000E+00 -0.45593999997E+02  0.45594000000E+02  0.51100000000E-03 0. -1.
    9900012    2    1    2    0    0 -0.10356171160E+02  0.42005489599E+01 -0.41937198989E+02  0.47787267844E+02  0.19999985408E+02 0.  0.
        -12    1    1    2    0    0  0.10356171160E+02 -0.42005489599E+01  0.41937198989E+02  0.43400732156E+02  0.00000000000E+00 0.  1.
         11    1    3    3    0    0  0.27020872785E+01  0.35594426544E+01 -0.14102753266E+02  0.14793868920E+02  0.51100000000E-03 0. -1.
        -11    1    3    3    0    0 -0.38539724498E+01 -0.22052071251E+01 -0.10979179975E+01  0.45739989395E+01  0.51100000000E-03 0.  1.
         12    1    3    3    0    0 -0.92042859884E+01  0.28463134306E+01 -0.26736527725E+02  0.28419399985E+02  0.00000000000E+00 0. -1.
</event>
<event>
 7    1  0.1427898E-010  0.4778727E+02  0.7816164E-02  0.1312668E+00
        -11   -1    0    0    0    0  0.00000000000E+00  0.00000000000E+00  0.45593999997E+02  0.45594000000E+02  0.51100000000E-03 0. -1.
         11   -1    0    0    0    0 -0.00000000000E+00 -0.00000000000E+00 -0.45593999997E+02  0.45594000000E+02  0.51100000000E-03 0.  1.
    9900012    2    1    2    0    0 -0.32996555713E+02 -0.26467475349E+02  0.97120210732E+01  0.47787270817E+02  0.19999998962E+02 0.  0.
        -12    1    1    2    0    0  0.32996555713E+02  0.26467475349E+02 -0.97120210732E+01  0.43400729183E+02  0.00000000000E+00 0.  1.
         11    1    3    3    0    0 -0.24736965476E+02 -0.17146784883E+02  0.10711882498E+02  0.31947990855E+02  0.51100000000E-03 0. -1.
        -11    1    3    3    0    0 -0.64156935063E+00  0.55294165888E+00  0.27011368002E+01  0.28308118949E+01  0.51100000000E-03 0.  1.
         12    1    3    3    0    0 -0.76180208867E+01 -0.98736321251E+01 -0.37009982249E+01  0.13008468066E+02  0.00000000000E+00 0. -1.
</event>
<event>
 7    1  0.1427898E-010  0.4778727E+02  0.7816164E-02  0.1312668E+00
        -11   -1    0    0    0    0  0.00000000000E+00  0.00000000000E+00  0.45593999997E+02  0.45594000000E+02  0.51100000000E-03 0. -1.
         11   -1    0    0    0    0 -0.00000000000E+00 -0.00000000000E+00 -0.45593999997E+02  0.45594000000E+02  0.51100000000E-03 0.  1.
    9900012    2    1    2    0    0 -0.14763519079E+02  0.15748066554E+02  0.37651830079E+02  0.47787269545E+02  0.19999993162E+02 0.  0.
        -12    1    1    2    0    0  0.14763519079E+02 -0.15748066554E+02 -0.37651830079E+02  0.43400730455E+02  0.00000000000E+00 0.  1.
         11    1    3    3    0    0  0.98738770496E+00  0.37853313410E+01  0.62511077416E+01  0.73742807174E+01  0.51100000000E-03 0. -1.
        -11    1    3    3    0    0 -0.15094803637E+01 -0.30475878877E+01  0.83420775563E+00  0.35017460991E+01  0.51100000000E-03 0.  1.
         12    1    3    3    0    0 -0.14241426420E+02  0.15010323101E+02  0.30566514582E+02  0.36911242728E+02  0.00000000000E+00 0. -1.
</event>
<event>
 7    1  0.1427898E-010  0.4778726E+02  0.7816164E-02  0.1312668E+00
        -11   -1    0    0    0    0  0.00000000000E+00  0.00000000000E+00  0.45593999997E+02  0.45594000000E+02  0.51100000000E-03 0.  1.
         11   -1    0    0    0    0 -0.00000000000E+00 -0.00000000000E+00 -0.45593999997E+02  0.45594000000E+02  0.51100000000E-03 0. -1.
    9900012    2    1    2    0    0 -0.13870656445E+02 -0.39585698269E+02 -0.11144594160E+02  0.47787255805E+02  0.19999930519E+02 0.  0.
        -12    1    1    2    0    0  0.13870656445E+02  0.39585698269E+02  0.11144594160E+02  0.43400744195E+02  0.00000000000E+00 0.  1.
         11    1    3    3    0    0 -0.15289865687E+01 -0.90689592439E+01 -0.70652670157E+01  0.11597491968E+02  0.51100000000E-03 0.  1.
        -11    1    3    3    0    0 -0.13179923923E+01 -0.44004129272E+01 -0.62530879392E+01  0.77589849150E+01  0.51100000000E-03 0. -1.
        -12    1    3    3    0    0 -0.11023677484E+02 -0.26116326098E+02  0.21737607946E+01  0.28430778922E+02  0.00000000000E+00 0.  1.
</event>
<event>
 7    1  0.1427898E-010  0.4778725E+02  0.7816164E-02  0.1312668E+00
        -11   -1    0    0    0    0  0.00000000000E+00  0.00000000000E+00  0.45593999997E+02  0.45594000000E+02  0.51100000000E-03 0.  1.
         11   -1    0    0    0    0 -0.00000000000E+00 -0.00000000000E+00 -0.45593999997E+02  0.45594000000E+02  0.51100000000E-03 0. -1.
    9900012    2    1    2    0    0  0.37594974551E+02 -0.97538702598E+01  0.19367622554E+02  0.47787252311E+02  0.19999914587E+02 0.  0.
        -12    1    1    2    0    0 -0.37594974551E+02  0.97538702598E+01 -0.19367622554E+02  0.43400747689E+02  0.00000000000E+00 0.  1.
         11    1    3    3    0    0  0.73111019521E+01 -0.86413433396E+01  0.31320267261E+01  0.11744556958E+02  0.51100000000E-03 0. -1.
        -11    1    3    3    0    0  0.14231759342E+02 -0.25332968294E+01  0.13339128970E+02  0.19669594016E+02  0.51100000000E-03 0.  1.
        -12    1    3    3    0    0  0.16052113257E+02  0.14207699092E+01  0.28964668584E+01  0.16373101337E+02  0.00000000000E+00 0.  1.
</event>
<event>
 7    1  0.1427898E-010  0.4778729E+02  0.7816164E-02  0.1312668E+00
        -11   -1    0    0    0    0  0.00000000000E+00  0.00000000000E+00  0.45593999997E+02  0.45594000000E+02  0.51100000000E-03 0.  1.
         11   -1    0    0    0    0 -0.00000000000E+00 -0.00000000000E+00 -0.45593999997E+02  0.45594000000E+02  0.51100000000E-03 0. -1.
    9900012    2    1    2    0    0  0.31246589241E+01 -0.38115628631E+02 -0.20519671782E+02  0.47787290681E+02  0.20000089532E+02 0.  0.
        -12    1    1    2    0    0 -0.31246589241E+01  0.38115628631E+02  0.20519671782E+02  0.43400709319E+02  0.00000000000E+00 0.  1.
         11    1    3    3    0    0 -0.40898080651E+00 -0.92784260119E+01 -0.94028041622E+01  0.13216246855E+02  0.51100000000E-03 0. -1.
        -11    1    3    3    0    0  0.53784114391E+01 -0.29837911860E+02 -0.90869118959E+01  0.31651228442E+02  0.51100000000E-03 0.  1.
        -12    1    3    3    0    0 -0.18447717084E+01  0.10007092411E+01 -0.20299557237E+01  0.29198153848E+01  0.00000000000E+00 0.  1.
</event>
<event>
 7    1  0.1427898E-010  0.4778727E+02  0.7816164E-02  0.1312668E+00
        -11   -1    0    0    0    0  0.00000000000E+00  0.00000000000E+00  0.45593999997E+02  0.45594000000E+02  0.51100000000E-03 0.  1.
         11   -1    0    0    0    0 -0.00000000000E+00 -0.00000000000E+00 -0.45593999997E+02  0.45594000000E+02  0.51100000000E-03 0. -1.
    9900012    2    1    2    0    0  0.23067520524E+02  0.27573180541E+02 -0.24315272805E+02  0.47787270975E+02  0.19999999684E+02 0.  0.
        -12    1    1    2    0    0 -0.23067520524E+02 -0.27573180541E+02  0.24315272805E+02  0.43400729025E+02  0.00000000000E+00 0.  1.
         11    1    3    3    0    0  0.89506341228E+01  0.10453361790E+02 -0.54864780625E+01  0.14815129622E+02  0.51100000000E-03 0. -1.
        -11    1    3    3    0    0 -0.25731942851E+01  0.27137146771E+01  0.34217814336E+00  0.37553511581E+01  0.51100000000E-03 0.  1.
        -12    1    3    3    0    0  0.16690080686E+02  0.14406104074E+02 -0.19170972886E+02  0.29216790195E+02  0.00000000000E+00 0.  1.
</event>
<event>
 7    1  0.1427898E-010  0.4778730E+02  0.7816164E-02  0.1312668E+00
        -11   -1    0    0    0    0  0.00000000000E+00  0.00000000000E+00  0.45593999997E+02  0.45594000000E+02  0.51100000000E-03 0.  1.
         11   -1    0    0    0    0 -0.00000000000E+00 -0.00000000000E+00 -0.45593999997E+02  0.45594000000E+02  0.51100000000E-03 0. -1.
    9900012    2    1    2    0    0 -0.24017197359E+02  0.69838159823E+01 -0.35468597989E+02  0.47787298416E+02  0.20000124797E+02 0.  0.
        -12    1    1    2    0    0  0.24017197359E+02 -0.69838159823E+01  0.35468597989E+02  0.43400701584E+02  0.00000000000E+00 0.  1.
         11    1    3    3    0    0 -0.15677924940E+02 -0.29952355457E+01 -0.12624026555E+02  0.20350302531E+02  0.51100000000E-03 0. -1.
        -11    1    3    3    0    0  0.12933642444E+01  0.14044514047E+01 -0.12414620399E+01  0.22773895307E+01  0.51100000000E-03 0.  1.
         12    1    3    3    0    0 -0.96326366638E+01  0.85746001233E+01 -0.21603109395E+02  0.25159606354E+02  0.00000000000E+00 0. -1.
</event>
<event>
 7    1  0.1427898E-010  0.4778727E+02  0.7816164E-02  0.1312668E+00
        -11   -1    0    0    0    0  0.00000000000E+00  0.00000000000E+00  0.45593999997E+02  0.45594000000E+02  0.51100000000E-03 0. -1.
         11   -1    0    0    0    0 -0.00000000000E+00 -0.00000000000E+00 -0.45593999997E+02  0.45594000000E+02  0.51100000000E-03 0.  1.
    9900012    2    1    2    0    0 -0.12433676565E+02  0.38497968797E+02  0.15714110863E+02  0.47787271957E+02  0.20000004162E+02 0.  0.
        -12    1    1    2    0    0  0.12433676565E+02 -0.38497968797E+02 -0.15714110863E+02  0.43400728043E+02  0.00000000000E+00 0.  1.
         11    1    3    3    0    0  0.32931579836E+01  0.15084750181E+02  0.36210193095E+01  0.15858952003E+02  0.51100000000E-03 0. -1.
        -11    1    3    3    0    0 -0.85194778378E+01  0.17431439343E+02  0.46159117752E+01  0.19943500746E+02  0.51100000000E-03 0.  1.
        -12    1    3    3    0    0 -0.72073567112E+01  0.59817792724E+01  0.74771797780E+01  0.11984819208E+02  0.00000000000E+00 0.  1.
</event>
<event>
 7    1  0.1427898E-010  0.4778727E+02  0.7816164E-02  0.1312668E+00
        -11   -1    0    0    0    0  0.00000000000E+00  0.00000000000E+00  0.45593999997E+02  0.45594000000E+02  0.51100000000E-03 0.  1.
         11   -1    0    0    0    0 -0.00000000000E+00 -0.00000000000E+00 -0.45593999997E+02  0.45594000000E+02  0.51100000000E-03 0. -1.
    9900012    2    1    2    0    0  0.37804720483E+02  0.97786376074E+01 -0.18942132886E+02  0.47787273710E+02  0.20000012152E+02 0.  0.
        -12    1    1    2    0    0 -0.37804720483E+02 -0.97786376074E+01  0.18942132886E+02  0.43400726290E+02  0.00000000000E+00 0.  1.
         11    1    3    3    0    0  0.22314831676E+02  0.83760237536E+01 -0.10588973111E+02  0.26081331225E+02  0.51100000000E-03 0. -1.
        -11    1    3    3    0    0  0.42016713585E+01  0.24712493228E+01  0.29483932053E+01  0.56968533573E+01  0.51100000000E-03 0.  1.
        -12    1    3    3    0    0  0.11288217448E+02 -0.10686354690E+01 -0.11301552980E+02  0.16009089127E+02  0.00000000000E+00 0.  1.
</event>
<event>
 7    1  0.1427898E-010  0.4778727E+02  0.7816164E-02  0.1312668E+00
        -11   -1    0    0    0    0  0.00000000000E+00  0.00000000000E+00  0.45593999997E+02  0.45594000000E+02  0.51100000000E-03 0.  1.
         11   -1    0    0    0    0 -0.00000000000E+00 -0.00000000000E+00 -0.45593999997E+02  0.45594000000E+02  0.51100000000E-03 0. -1.
    9900012    2    1    2    0    0 -0.41850600967E-01  0.16758703563E+02 -0.40034575717E+02  0.47787272478E+02  0.20000006536E+02 0.  0.
        -12    1    1    2    0    0  0.41850600967E-01 -0.16758703563E+02  0.40034575717E+02  0.43400727522E+02  0.00000000000E+00 0.  1.
         11    1    3    3    0    0  0.13609989697E+01  0.14059275522E+02 -0.17793227463E+02  0.22718153319E+02  0.51100000000E-03 0.  1.
        -11    1    3    3    0    0  0.19385837141E+01  0.48123401263E+01 -0.44234277579E+01  0.68178763334E+01  0.51100000000E-03 0. -1.
        -12    1    3    3    0    0 -0.33414332848E+01 -0.21129120852E+01 -0.17817920496E+02  0.18251242826E+02  0.00000000000E+00 0.  1.
</event>
<event>
 7    1  0.1427898E-010  0.4778727E+02  0.7816164E-02  0.1312668E+00
        -11   -1    0    0    0    0  0.00000000000E+00  0.00000000000E+00  0.45593999997E+02  0.45594000000E+02  0.51100000000E-03 0.  1.
         11   -1    0    0    0    0 -0.00000000000E+00 -0.00000000000E+00 -0.45593999997E+02  0.45594000000E+02  0.51100000000E-03 0. -1.
    9900012    2    1    2    0    0 -0.62592259349E+01  0.87486256044E+01 -0.42046487010E+02  0.47787269256E+02  0.19999991845E+02 0.  0.
        -12    1    1    2    0    0  0.62592259349E+01 -0.87486256044E+01  0.42046487010E+02  0.43400730744E+02  0.00000000000E+00 0.  1.
         11    1    3    3    0    0 -0.14608849391E+01  0.68986702025E+00 -0.19285306220E+02  0.19352858641E+02  0.51100000000E-03 0. -1.
        -11    1    3    3    0    0 -0.77263853826E+01  0.84390385922E+00 -0.55700685516E+01  0.95621581630E+01  0.51100000000E-03 0.  1.
         12    1    3    3    0    0  0.29280443868E+01  0.72148547249E+01 -0.17191112238E+02  0.18872252452E+02  0.00000000000E+00 0. -1.
</event>
<event>
 7    1  0.1427898E-010  0.4778727E+02  0.7816164E-02  0.1312668E+00
        -11   -1    0    0    0    0  0.00000000000E+00  0.00000000000E+00  0.45593999997E+02  0.45594000000E+02  0.51100000000E-03 0.  1.
         11   -1    0    0    0    0 -0.00000000000E+00 -0.00000000000E+00 -0.45593999997E+02  0.45594000000E+02  0.51100000000E-03 0. -1.
    9900012    2    1    2    0    0  0.18532356084E+01  0.36424189473E+02 -0.23525881521E+02  0.47787272330E+02  0.20000005861E+02 0.  0.
        -12    1    1    2    0    0 -0.18532356084E+01 -0.36424189473E+02  0.23525881521E+02  0.43400727670E+02  0.00000000000E+00 0.  1.
         11    1    3    3    0    0 -0.37759295111E+01  0.25957393524E+02 -0.12644837225E+02  0.29119337749E+02  0.51100000000E-03 0. -1.
        -11    1    3    3    0    0  0.37256680807E+01  0.63886519624E+01 -0.57008147518E+00  0.74175784252E+01  0.51100000000E-03 0.  1.
         12    1    3    3    0    0  0.19034970388E+01  0.40781439868E+01 -0.10310962820E+02  0.11250356156E+02  0.00000000000E+00 0. -1.
</event>
<event>
 7    1  0.1427898E-010  0.4778731E+02  0.7816164E-02  0.1312668E+00
        -11   -1    0    0    0    0  0.00000000000E+00  0.00000000000E+00  0.45593999997E+02  0.45594000000E+02  0.51100000000E-03 0. -1.
         11   -1    0    0    0    0 -0.00000000000E+00 -0.00000000000E+00 -0.45593999997E+02  0.45594000000E+02  0.51100000000E-03 0.  1.
    9900012    2    1    2    0    0 -0.10891321860E+02  0.22054182492E+02  0.35757682034E+02  0.47787312429E+02  0.20000188686E+02 0.  0.
        -12    1    1    2    0    0  0.10891321860E+02 -0.22054182492E+02 -0.35757682034E+02  0.43400687571E+02  0.00000000000E+00 0.  1.
         11    1    3    3    0    0 -0.70963829728E+01  0.60441329484E+01  0.53539338679E+01  0.10749641972E+02  0.51100000000E-03 0.  1.
        -11    1    3    3    0    0 -0.57441187322E+01  0.15489563415E+02  0.30828504808E+02  0.34975965802E+02  0.51100000000E-03 0. -1.
         12    1    3    3    0    0  0.19491798455E+01  0.52048612782E+00 -0.42475664222E+00  0.20617046550E+01  0.00000000000E+00 0. -1.
</event>
<event>
 7    1  0.1427898E-010  0.4778727E+02  0.7816164E-02  0.1312668E+00
        -11   -1    0    0    0    0  0.00000000000E+00  0.00000000000E+00  0.45593999997E+02  0.45594000000E+02  0.51100000000E-03 0.  1.
         11   -1    0    0    0    0 -0.00000000000E+00 -0.00000000000E+00 -0.45593999997E+02  0.45594000000E+02  0.51100000000E-03 0. -1.
    9900012    2    1    2    0    0  0.92487979112E+01 -0.20003756632E+02 -0.37388936862E+02  0.47787272565E+02  0.20000006931E+02 0.  0.
        -12    1    1    2    0    0 -0.92487979112E+01  0.20003756632E+02  0.37388936862E+02  0.43400727435E+02  0.00000000000E+00 0.  1.
         11    1    3    3    0    0  0.90094320718E+01 -0.35567154157E+01 -0.19130440218E+02  0.21442803781E+02  0.51100000000E-03 0. -1.
        -11    1    3    3    0    0 -0.15606304282E+01 -0.83720112924E+01 -0.15388040174E+02  0.17587436456E+02  0.51100000000E-03 0.  1.
        -12    1    3    3    0    0  0.17999962676E+01 -0.80750299243E+01 -0.28704564700E+01  0.87570323277E+01  0.00000000000E+00 0.  1.
</event>
<event>
 7    1  0.1427898E-010  0.4778727E+02  0.7816164E-02  0.1312668E+00
        -11   -1    0    0    0    0  0.00000000000E+00  0.00000000000E+00  0.45593999997E+02  0.45594000000E+02  0.51100000000E-03 0.  1.
         11   -1    0    0    0    0 -0.00000000000E+00 -0.00000000000E+00 -0.45593999997E+02  0.45594000000E+02  0.51100000000E-03 0. -1.
    9900012    2    1    2    0    0  0.21841692556E+02  0.23667400838E+02 -0.29093259634E+02  0.47787272445E+02  0.20000006388E+02 0.  0.
        -12    1    1    2    0    0 -0.21841692556E+02 -0.23667400838E+02  0.29093259634E+02  0.43400727555E+02  0.00000000000E+00 0.  1.
         11    1    3    3    0    0  0.13345782291E+02  0.22191737236E+02 -0.18796819829E+02  0.31998492816E+02  0.51100000000E-03 0. -1.
        -11    1    3    3    0    0  0.45975439647E+01  0.17127746101E+01 -0.10789114440E+02  0.11852257086E+02  0.51100000000E-03 0.  1.
        -12    1    3    3    0    0  0.38983663000E+01 -0.23711100763E+00  0.49267463596E+00  0.39365225436E+01  0.00000000000E+00 0.  1.
</event>
<event>
 7    1  0.1427898E-010  0.4778728E+02  0.7816164E-02  0.1312668E+00
        -11   -1    0    0    0    0  0.00000000000E+00  0.00000000000E+00  0.45593999997E+02  0.45594000000E+02  0.51100000000E-03 0. -1.
         11   -1    0    0    0    0 -0.00000000000E+00 -0.00000000000E+00 -0.45593999997E+02  0.45594000000E+02  0.51100000000E-03 0.  1.
    9900012    2    1    2    0    0  0.39942001201E+02  0.57036946794E+01  0.15991456462E+02  0.47787282578E+02  0.20000052585E+02 0.  0.
        -12    1    1    2    0    0 -0.39942001201E+02 -0.57036946794E+01 -0.15991456462E+02  0.43400717422E+02  0.00000000000E+00 0.  1.
         11    1    3    3    0    0  0.30534803229E+02  0.82941457839E+01  0.63302322806E+01  0.32268233660E+02  0.51100000000E-03 0. -1.
        -11    1    3    3    0    0  0.10586168243E+02 -0.27808146004E+01  0.88461284129E+01  0.14073161552E+02  0.51100000000E-03 0.  1.
        -12    1    3    3    0    0 -0.11789702715E+01  0.19036349597E+00  0.81509576866E+00  0.14458873655E+01  0.00000000000E+00 0.  1.
</event>
<event>
 7    1  0.1427898E-010  0.4778727E+02  0.7816164E-02  0.1312668E+00
        -11   -1    0    0    0    0  0.00000000000E+00  0.00000000000E+00  0.45593999997E+02  0.45594000000E+02  0.51100000000E-03 0.  1.
         11   -1    0    0    0    0 -0.00000000000E+00 -0.00000000000E+00 -0.45593999997E+02  0.45594000000E+02  0.51100000000E-03 0. -1.
    9900012    2    1    2    0    0  0.23265381010E+02 -0.17795122870E+02 -0.32026220085E+02  0.47787272766E+02  0.20000007849E+02 0.  0.
        -12    1    1    2    0    0 -0.23265381010E+02  0.17795122870E+02  0.32026220085E+02  0.43400727234E+02  0.00000000000E+00 0.  1.
         11    1    3    3    0    0  0.98185395041E+01 -0.41815783010E+01 -0.14426972244E+02  0.17945106393E+02  0.51100000000E-03 0. -1.
        -11    1    3    3    0    0  0.37723153135E+01  0.22708511471E+01 -0.74515935413E+01  0.86552512571E+01  0.51100000000E-03 0.  1.
         12    1    3    3    0    0  0.96745261924E+01 -0.15884395716E+02 -0.10147654300E+02  0.21186915115E+02  0.00000000000E+00 0. -1.
</event>
<event>
 7    1  0.1427898E-010  0.4778727E+02  0.7816164E-02  0.1312668E+00
        -11   -1    0    0    0    0  0.00000000000E+00  0.00000000000E+00  0.45593999997E+02  0.45594000000E+02  0.51100000000E-03 0.  1.
         11   -1    0    0    0    0 -0.00000000000E+00 -0.00000000000E+00 -0.45593999997E+02  0.45594000000E+02  0.51100000000E-03 0. -1.
    9900012    2    1    2    0    0  0.31672661142E+02  0.89165605873E+01 -0.28301258157E+02  0.47787265792E+02  0.19999976050E+02 0.  0.
        -12    1    1    2    0    0 -0.31672661142E+02 -0.89165605873E+01  0.28301258157E+02  0.43400734208E+02  0.00000000000E+00 0.  1.
         11    1    3    3    0    0  0.10457121229E+02 -0.69325331792E-01 -0.10797399400E+02  0.15031301489E+02  0.51100000000E-03 0. -1.
        -11    1    3    3    0    0  0.18338279504E+02  0.79878585640E+01 -0.60400200941E+01  0.20894502210E+02  0.51100000000E-03 0.  1.
        -12    1    3    3    0    0  0.28772604095E+01  0.99802735505E+00 -0.11463838664E+02  0.11861462093E+02  0.00000000000E+00 0.  1.
</event>
<event>
 7    1  0.1427898E-010  0.4778727E+02  0.7816164E-02  0.1312668E+00
        -11   -1    0    0    0    0  0.00000000000E+00  0.00000000000E+00  0.45593999997E+02  0.45594000000E+02  0.51100000000E-03 0.  1.
         11   -1    0    0    0    0 -0.00000000000E+00 -0.00000000000E+00 -0.45593999997E+02  0.45594000000E+02  0.51100000000E-03 0. -1.
    9900012    2    1    2    0    0  0.39861783984E+01 -0.37706010309E+02 -0.21118483334E+02  0.47787272242E+02  0.20000005459E+02 0.  0.
        -12    1    1    2    0    0 -0.39861783984E+01  0.37706010309E+02  0.21118483334E+02  0.43400727758E+02  0.00000000000E+00 0.  1.
         11    1    3    3    0    0  0.30046801902E+01 -0.28300101652E+02 -0.96301787669E+01  0.30044370519E+02  0.51100000000E-03 0. -1.
        -11    1    3    3    0    0 -0.42384243796E+01 -0.27499263671E+01 -0.39618750149E+01  0.64204976553E+01  0.51100000000E-03 0.  1.
        -12    1    3    3    0    0  0.52199225878E+01 -0.66559822902E+01 -0.75264295519E+01  0.11322404068E+02  0.00000000000E+00 0.  1.
</event>
<event>
 7    1  0.1427898E-010  0.4778727E+02  0.7816164E-02  0.1312668E+00
        -11   -1    0    0    0    0  0.00000000000E+00  0.00000000000E+00  0.45593999997E+02  0.45594000000E+02  0.51100000000E-03 0.  1.
         11   -1    0    0    0    0 -0.00000000000E+00 -0.00000000000E+00 -0.45593999997E+02  0.45594000000E+02  0.51100000000E-03 0. -1.
    9900012    2    1    2    0    0  0.84128824771E+01  0.42220508687E+02  0.55023489289E+01  0.47787265109E+02  0.19999972938E+02 0.  0.
        -12    1    1    2    0    0 -0.84128824771E+01 -0.42220508687E+02 -0.55023489289E+01  0.43400734891E+02  0.00000000000E+00 0.  1.
         11    1    3    3    0    0  0.18215478498E+01  0.19737077088E+02  0.74775992434E+01  0.21184540100E+02  0.51100000000E-03 0. -1.
        -11    1    3    3    0    0  0.29123218068E+00  0.17187890369E+02 -0.48890411686E+01  0.17872076414E+02  0.51100000000E-03 0.  1.
         12    1    3    3    0    0  0.63001024466E+01  0.52955412298E+01  0.29137908540E+01  0.87306485954E+01  0.00000000000E+00 0. -1.
</event>
<event>
 7    1  0.1427898E-010  0.4778727E+02  0.7816164E-02  0.1312668E+00
        -11   -1    0    0    0    0  0.00000000000E+00  0.00000000000E+00  0.45593999997E+02  0.45594000000E+02  0.51100000000E-03 0.  1.
         11   -1    0    0    0    0 -0.00000000000E+00 -0.00000000000E+00 -0.45593999997E+02  0.45594000000E+02  0.51100000000E-03 0. -1.
    9900012    2    1    2    0    0  0.22612727852E+02 -0.12524392143E+02 -0.34862978484E+02  0.47787272723E+02  0.20000007652E+02 0.  0.
        -12    1    1    2    0    0 -0.22612727852E+02  0.12524392143E+02  0.34862978484E+02  0.43400727277E+02  0.00000000000E+00 0.  1.
         11    1    3    3    0    0  0.10315856755E+02 -0.34114767801E+01 -0.82231788785E+01  0.13626288766E+02  0.51100000000E-03 0. -1.
        -11    1    3    3    0    0  0.14260972565E+01 -0.54115311333E+01 -0.51048395549E+00  0.56195210402E+01  0.51100000000E-03 0.  1.
         12    1    3    3    0    0  0.10870773840E+02 -0.37013842294E+01 -0.26129315650E+02  0.28541462917E+02  0.00000000000E+00 0. -1.
</event>
<event>
 7    1  0.1427898E-010  0.4778726E+02  0.7816164E-02  0.1312668E+00
        -11   -1    0    0    0    0  0.00000000000E+00  0.00000000000E+00  0.45593999997E+02  0.45594000000E+02  0.51100000000E-03 0.  1.
         11   -1    0    0    0    0 -0.00000000000E+00 -0.00000000000E+00 -0.45593999997E+02  0.45594000000E+02  0.51100000000E-03 0. -1.
    9900012    2    1    2    0    0 -0.22641185606E+02  0.80314596283E+01 -0.36145497868E+02  0.47787255242E+02  0.19999927951E+02 0.  0.
        -12    1    1    2    0    0  0.22641185606E+02 -0.80314596283E+01  0.36145497868E+02  0.43400744758E+02  0.00000000000E+00 0.  1.
         11    1    3    3    0    0 -0.81687244004E+01  0.12435983032E+02 -0.23951768087E+02  0.28196966629E+02  0.51100000000E-03 0. -1.
        -11    1    3    3    0    0 -0.47770557039E+01 -0.25870418247E+01 -0.36979585115E+01  0.65717534962E+01  0.51100000000E-03 0.  1.
         12    1    3    3    0    0 -0.96954055021E+01 -0.18174815791E+01 -0.84957712691E+01  0.13018535117E+02  0.00000000000E+00 0. -1.
</event>
<event>
 7    1  0.1427898E-010  0.4778727E+02  0.7816164E-02  0.1312668E+00
        -11   -1    0    0    0    0  0.00000000000E+00  0.00000000000E+00  0.45593999997E+02  0.45594000000E+02  0.51100000000E-03 0. -1.
         11   -1    0    0    0    0 -0.00000000000E+00 -0.00000000000E+00 -0.45593999997E+02  0.45594000000E+02  0.51100000000E-03 0.  1.
    9900012    2    1    2    0    0 -0.27062845268E+02  0.33306837271E+02  0.64714850790E+01  0.47787272793E+02  0.20000007970E+02 0.  0.
        -12    1    1    2    0    0  0.27062845268E+02 -0.33306837271E+02 -0.64714850790E+01  0.43400727207E+02  0.00000000000E+00 0.  1.
         11    1    3    3    0    0 -0.72318841280E+00  0.79719040768E+01  0.43149675898E+01  0.90935802439E+01  0.51100000000E-03 0. -1.
        -11    1    3    3    0    0 -0.29351886379E+01  0.10516762278E+02  0.10763400333E+01  0.10971605593E+02  0.51100000000E-03 0.  1.
        -12    1    3    3    0    0 -0.23404468218E+02  0.14818170916E+02  0.10801774558E+01  0.27722086956E+02  0.00000000000E+00 0.  1.
</event>
<event>
 7    1  0.1427898E-010  0.4778727E+02  0.7816164E-02  0.1312668E+00
        -11   -1    0    0    0    0  0.00000000000E+00  0.00000000000E+00  0.45593999997E+02  0.45594000000E+02  0.51100000000E-03 0.  1.
         11   -1    0    0    0    0 -0.00000000000E+00 -0.00000000000E+00 -0.45593999997E+02  0.45594000000E+02  0.51100000000E-03 0. -1.
    9900012    2    1    2    0    0 -0.19516048874E+02 -0.30189010244E+02 -0.24318110502E+02  0.47787274182E+02  0.20000014304E+02 0.  0.
        -12    1    1    2    0    0  0.19516048874E+02  0.30189010244E+02  0.24318110502E+02  0.43400725818E+02  0.00000000000E+00 0.  1.
         11    1    3    3    0    0 -0.10610223629E+02 -0.78222656129E+01 -0.57338839418E+01  0.14375051655E+02  0.51100000000E-03 0. -1.
        -11    1    3    3    0    0 -0.88826314011E+00 -0.14027330603E+02 -0.36501706357E+01  0.14521665234E+02  0.51100000000E-03 0.  1.
         12    1    3    3    0    0 -0.80175621051E+01 -0.83394140285E+01 -0.14934055925E+02  0.18890557292E+02  0.00000000000E+00 0. -1.
</event>
<event>
 7    1  0.1427898E-010  0.4778727E+02  0.7816164E-02  0.1312668E+00
        -11   -1    0    0    0    0  0.00000000000E+00  0.00000000000E+00  0.45593999997E+02  0.45594000000E+02  0.51100000000E-03 0.  1.
         11   -1    0    0    0    0 -0.00000000000E+00 -0.00000000000E+00 -0.45593999997E+02  0.45594000000E+02  0.51100000000E-03 0. -1.
    9900012    2    1    2    0    0  0.10044962473E+02 -0.27649150597E+02 -0.31909974143E+02  0.47787271324E+02  0.20000001273E+02 0.  0.
        -12    1    1    2    0    0 -0.10044962473E+02  0.27649150597E+02  0.31909974143E+02  0.43400728676E+02  0.00000000000E+00 0.  1.
         11    1    3    3    0    0  0.82116121254E+01 -0.18133753837E+02 -0.10348651539E+02  0.22435645542E+02  0.51100000000E-03 0. -1.
        -11    1    3    3    0    0  0.44612902620E+01 -0.18298426136E+01 -0.11140108429E+02  0.12138922970E+02  0.51100000000E-03 0.  1.
        -12    1    3    3    0    0 -0.26279399142E+01 -0.76855541462E+01 -0.10421214175E+02  0.13212702812E+02  0.00000000000E+00 0.  1.
</event>
<event>
 7    1  0.1427898E-010  0.4778729E+02  0.7816164E-02  0.1312668E+00
        -11   -1    0    0    0    0  0.00000000000E+00  0.00000000000E+00  0.45593999997E+02  0.45594000000E+02  0.51100000000E-03 0.  1.
         11   -1    0    0    0    0 -0.00000000000E+00 -0.00000000000E+00 -0.45593999997E+02  0.45594000000E+02  0.51100000000E-03 0. -1.
    9900012    2    1    2    0    0 -0.16765308705E+02  0.39452845173E+02 -0.67837410716E+01  0.47787289048E+02  0.20000082084E+02 0.  0.
        -12    1    1    2    0    0  0.16765308705E+02 -0.39452845173E+02  0.67837410716E+01  0.43400710952E+02  0.00000000000E+00 0.  1.
         11    1    3    3    0    0 -0.16155361971E+02  0.34283813577E+02 -0.76128977690E+01  0.38656588138E+02  0.51100000000E-03 0. -1.
        -11    1    3    3    0    0 -0.27793673469E+01  0.21475679123E+00 -0.15862958087E+01  0.32073880312E+01  0.51100000000E-03 0.  1.
        -12    1    3    3    0    0  0.21694206131E+01  0.49542748052E+01  0.24154525062E+01  0.59233128781E+01  0.00000000000E+00 0.  1.
</event>
<event>
 7    1  0.1427898E-010  0.4778727E+02  0.7816164E-02  0.1312668E+00
        -11   -1    0    0    0    0  0.00000000000E+00  0.00000000000E+00  0.45593999997E+02  0.45594000000E+02  0.51100000000E-03 0. -1.
         11   -1    0    0    0    0 -0.00000000000E+00 -0.00000000000E+00 -0.45593999997E+02  0.45594000000E+02  0.51100000000E-03 0.  1.
    9900012    2    1    2    0    0  0.19919838039E+02  0.29586625814E+02  0.24727615369E+02  0.47787270324E+02  0.19999996715E+02 0.  0.
        -12    1    1    2    0    0 -0.19919838039E+02 -0.29586625814E+02 -0.24727615369E+02  0.43400729676E+02  0.00000000000E+00 0.  1.
         11    1    3    3    0    0  0.97916956738E+00  0.14372477112E+02  0.13480405614E+02  0.19729374221E+02  0.51100000000E-03 0. -1.
        -11    1    3    3    0    0  0.82907486220E+01  0.36868894943E+01  0.78556586227E+01  0.12001709858E+02  0.51100000000E-03 0.  1.
         12    1    3    3    0    0  0.10649919849E+02  0.11527259208E+02  0.33915511325E+01  0.16056186245E+02  0.00000000000E+00 0. -1.
</event>
<event>
 7    1  0.1427898E-010  0.4778727E+02  0.7816164E-02  0.1312668E+00
        -11   -1    0    0    0    0  0.00000000000E+00  0.00000000000E+00  0.45593999997E+02  0.45594000000E+02  0.51100000000E-03 0.  1.
         11   -1    0    0    0    0 -0.00000000000E+00 -0.00000000000E+00 -0.45593999997E+02  0.45594000000E+02  0.51100000000E-03 0. -1.
    9900012    2    1    2    0    0 -0.14133182601E+02 -0.23016907553E+02 -0.33972023507E+02  0.47787271148E+02  0.20000000472E+02 0.  0.
        -12    1    1    2    0    0  0.14133182601E+02  0.23016907553E+02  0.33972023507E+02  0.43400728852E+02  0.00000000000E+00 0.  1.
         11    1    3    3    0    0 -0.44804225442E+01 -0.20842055231E+01 -0.17749567423E+01  0.52505781144E+01  0.51100000000E-03 0.  1.
        -11    1    3    3    0    0 -0.65410196781E+01 -0.22806007887E+02 -0.30156125987E+02  0.38370442647E+02  0.51100000000E-03 0. -1.
         12    1    3    3    0    0 -0.31117403791E+01  0.18733058572E+01 -0.20409407776E+01  0.41662503861E+01  0.00000000000E+00 0. -1.
</event>
<event>
 7    1  0.1427898E-010  0.4778727E+02  0.7816164E-02  0.1312668E+00
        -11   -1    0    0    0    0  0.00000000000E+00  0.00000000000E+00  0.45593999997E+02  0.45594000000E+02  0.51100000000E-03 0.  1.
         11   -1    0    0    0    0 -0.00000000000E+00 -0.00000000000E+00 -0.45593999997E+02  0.45594000000E+02  0.51100000000E-03 0. -1.
    9900012    2    1    2    0    0  0.10185780789E+02  0.39358752475E+02 -0.15190845589E+02  0.47787270555E+02  0.19999997767E+02 0.  0.
        -12    1    1    2    0    0 -0.10185780789E+02 -0.39358752475E+02  0.15190845589E+02  0.43400729445E+02  0.00000000000E+00 0.  1.
         11    1    3    3    0    0 -0.24410819902E+01  0.21781740374E+02 -0.20469162636E+01  0.22013472271E+02  0.51100000000E-03 0. -1.
        -11    1    3    3    0    0  0.26942657294E+01  0.11876453084E+01 -0.24324850108E+01  0.38192345814E+01  0.51100000000E-03 0.  1.
         12    1    3    3    0    0  0.99325970499E+01  0.16389366793E+02 -0.10711444314E+02  0.21954563702E+02  0.00000000000E+00 0. -1.
</event>
<event>
 7    1  0.1427898E-010  0.4778727E+02  0.7816164E-02  0.1312668E+00
        -11   -1    0    0    0    0  0.00000000000E+00  0.00000000000E+00  0.45593999997E+02  0.45594000000E+02  0.51100000000E-03 0.  1.
         11   -1    0    0    0    0 -0.00000000000E+00 -0.00000000000E+00 -0.45593999997E+02  0.45594000000E+02  0.51100000000E-03 0. -1.
    9900012    2    1    2    0    0 -0.12456905511E+02 -0.13398020556E+02 -0.39356601156E+02  0.47787268390E+02  0.19999987899E+02 0.  0.
        -12    1    1    2    0    0  0.12456905511E+02  0.13398020556E+02  0.39356601156E+02  0.43400731610E+02  0.00000000000E+00 0.  1.
         11    1    3    3    0    0 -0.97173489570E+01 -0.59140187861E+01 -0.12676334358E+02  0.17032085661E+02  0.51100000000E-03 0. -1.
        -11    1    3    3    0    0  0.91602245162E+00  0.27000697718E+01 -0.12394775486E+01  0.31089835572E+01  0.51100000000E-03 0.  1.
        -12    1    3    3    0    0 -0.36555790052E+01 -0.10184071542E+02 -0.25440789249E+02  0.27646199172E+02  0.00000000000E+00 0.  1.
</event>
<event>
 7    1  0.1427898E-010  0.4778727E+02  0.7816164E-02  0.1312668E+00
        -11   -1    0    0    0    0  0.00000000000E+00  0.00000000000E+00  0.45593999997E+02  0.45594000000E+02  0.51100000000E-03 0. -1.
         11   -1    0    0    0    0 -0.00000000000E+00 -0.00000000000E+00 -0.45593999997E+02  0.45594000000E+02  0.51100000000E-03 0.  1.
    9900012    2    1    2    0    0  0.28382314433E+02 -0.19949349509E+02  0.26078557081E+02  0.47787268926E+02  0.19999990339E+02 0.  0.
        -12    1    1    2    0    0 -0.28382314433E+02  0.19949349509E+02 -0.26078557081E+02  0.43400731074E+02  0.00000000000E+00 0.  1.
         11    1    3    3    0    0  0.11181382075E+01 -0.51508616646E+01  0.41983875786E+01  0.67385508427E+01  0.51100000000E-03 0. -1.
        -11    1    3    3    0    0  0.16575149281E+02 -0.15355636721E+02  0.20012829153E+02  0.30183513443E+02  0.51100000000E-03 0.  1.
         12    1    3    3    0    0  0.10689026944E+02  0.55714887687E+00  0.18673403494E+01  0.10865204640E+02  0.00000000000E+00 0. -1.
</event>
<event>
 7    1  0.1427898E-010  0.4778727E+02  0.7816164E-02  0.1312668E+00
        -11   -1    0    0    0    0  0.00000000000E+00  0.00000000000E+00  0.45593999997E+02  0.45594000000E+02  0.51100000000E-03 0.  1.
         11   -1    0    0    0    0 -0.00000000000E+00 -0.00000000000E+00 -0.45593999997E+02  0.45594000000E+02  0.51100000000E-03 0. -1.
    9900012    2    1    2    0    0 -0.15135593161E+02  0.22858727058E+02 -0.33645439941E+02  0.47787271759E+02  0.20000003256E+02 0.  0.
        -12    1    1    2    0    0  0.15135593161E+02 -0.22858727058E+02  0.33645439941E+02  0.43400728241E+02  0.00000000000E+00 0.  1.
         11    1    3    3    0    0 -0.88749932179E+00  0.43051832714E+01 -0.10047383452E+02  0.10966867034E+02  0.51100000000E-03 0. -1.
        -11    1    3    3    0    0 -0.55051084092E+01  0.17268907567E+02 -0.20715010961E+02  0.27525135178E+02  0.51100000000E-03 0.  1.
         12    1    3    3    0    0 -0.87429854295E+01  0.12846362193E+01 -0.28830455283E+01  0.92952695472E+01  0.00000000000E+00 0. -1.
</event>
<event>
 7    1  0.1427898E-010  0.4778727E+02  0.7816164E-02  0.1312668E+00
        -11   -1    0    0    0    0  0.00000000000E+00  0.00000000000E+00  0.45593999997E+02  0.45594000000E+02  0.51100000000E-03 0. -1.
         11   -1    0    0    0    0 -0.00000000000E+00 -0.00000000000E+00 -0.45593999997E+02  0.45594000000E+02  0.51100000000E-03 0.  1.
    9900012    2    1    2    0    0 -0.36804658216E+02 -0.76259117002E+01  0.21699908299E+02  0.47787269409E+02  0.19999992542E+02 0.  0.
        -12    1    1    2    0    0  0.36804658216E+02  0.76259117002E+01 -0.21699908299E+02  0.43400730591E+02  0.00000000000E+00 0.  1.
         11    1    3    3    0    0 -0.17981391956E+02 -0.19552659182E+01  0.17906973132E+02  0.25452174926E+02  0.51100000000E-03 0. -1.
        -11    1    3    3    0    0 -0.62405689648E+01 -0.27141857076E+01  0.61783130502E+01  0.91914665569E+01  0.51100000000E-03 0.  1.
        -12    1    3    3    0    0 -0.12582697295E+02 -0.29564600743E+01 -0.23853778828E+01  0.13143627925E+02  0.00000000000E+00 0.  1.
</event>
<event>
 7    1  0.1427898E-010  0.4778727E+02  0.7816164E-02  0.1312668E+00
        -11   -1    0    0    0    0  0.00000000000E+00  0.00000000000E+00  0.45593999997E+02  0.45594000000E+02  0.51100000000E-03 0.  1.
         11   -1    0    0    0    0 -0.00000000000E+00 -0.00000000000E+00 -0.45593999997E+02  0.45594000000E+02  0.51100000000E-03 0. -1.
    9900012    2    1    2    0    0  0.21717395108E+02 -0.14352594598E+02 -0.34727237396E+02  0.47787271444E+02  0.20000001823E+02 0.  0.
        -12    1    1    2    0    0 -0.21717395108E+02  0.14352594598E+02  0.34727237396E+02  0.43400728556E+02  0.00000000000E+00 0.  1.
         11    1    3    3    0    0  0.11402279566E+02 -0.85455765722E+01 -0.28524733362E+02  0.31885722070E+02  0.51100000000E-03 0. -1.
        -11    1    3    3    0    0  0.38448341222E+01  0.20622785478E+01 -0.10621133246E+01  0.44904150378E+01  0.51100000000E-03 0.  1.
        -12    1    3    3    0    0  0.64702814196E+01 -0.78692965732E+01 -0.51403907098E+01  0.11411134337E+02  0.00000000000E+00 0.  1.
</event>
<event>
 7    1  0.1427898E-010  0.4778727E+02  0.7816164E-02  0.1312668E+00
        -11   -1    0    0    0    0  0.00000000000E+00  0.00000000000E+00  0.45593999997E+02  0.45594000000E+02  0.51100000000E-03 0.  1.
         11   -1    0    0    0    0 -0.00000000000E+00 -0.00000000000E+00 -0.45593999997E+02  0.45594000000E+02  0.51100000000E-03 0. -1.
    9900012    2    1    2    0    0 -0.15483009547E+02 -0.39950901456E+02 -0.69155642129E+01  0.47787272585E+02  0.20000007025E+02 0.  0.
        -12    1    1    2    0    0  0.15483009547E+02  0.39950901456E+02  0.69155642129E+01  0.43400727415E+02  0.00000000000E+00 0.  1.
         11    1    3    3    0    0 -0.10040634201E+02 -0.27942145531E+02 -0.55776466667E+01  0.30210726152E+02  0.51100000000E-03 0. -1.
        -11    1    3    3    0    0  0.23598021128E+01 -0.83781696645E+01  0.70238899013E+00  0.87324534635E+01  0.51100000000E-03 0.  1.
        -12    1    3    3    0    0 -0.78021774586E+01 -0.36305862599E+01 -0.20403065364E+01  0.88440929693E+01  0.00000000000E+00 0.  1.
</event>
<event>
 7    1  0.1427898E-010  0.4778727E+02  0.7816164E-02  0.1312668E+00
        -11   -1    0    0    0    0  0.00000000000E+00  0.00000000000E+00  0.45593999997E+02  0.45594000000E+02  0.51100000000E-03 0.  1.
         11   -1    0    0    0    0 -0.00000000000E+00 -0.00000000000E+00 -0.45593999997E+02  0.45594000000E+02  0.51100000000E-03 0. -1.
    9900012    2    1    2    0    0  0.10186231053E+02  0.21695115241E+02 -0.36182672532E+02  0.47787272818E+02  0.20000008086E+02 0.  0.
        -12    1    1    2    0    0 -0.10186231053E+02 -0.21695115241E+02  0.36182672532E+02  0.43400727182E+02  0.00000000000E+00 0.  1.
         11    1    3    3    0    0  0.59716639945E+01  0.20173961135E+02 -0.25181572269E+02  0.32814037559E+02  0.51100000000E-03 0. -1.
        -11    1    3    3    0    0 -0.20892911159E+01 -0.10030479913E+01 -0.63040572898E+01  0.67165751105E+01  0.51100000000E-03 0.  1.
        -12    1    3    3    0    0  0.63038581748E+01  0.25242020976E+01 -0.46970429731E+01  0.82566601486E+01  0.00000000000E+00 0.  1.
</event>
<event>
 7    1  0.1427898E-010  0.4778727E+02  0.7816164E-02  0.1312668E+00
        -11   -1    0    0    0    0  0.00000000000E+00  0.00000000000E+00  0.45593999997E+02  0.45594000000E+02  0.51100000000E-03 0. -1.
         11   -1    0    0    0    0 -0.00000000000E+00 -0.00000000000E+00 -0.45593999997E+02  0.45594000000E+02  0.51100000000E-03 0.  1.
    9900012    2    1    2    0    0 -0.12769375287E+02  0.41374672189E+02  0.29500676721E+01  0.47787270245E+02  0.19999996357E+02 0.  0.
        -12    1    1    2    0    0  0.12769375287E+02 -0.41374672189E+02 -0.29500676721E+01  0.43400729755E+02  0.00000000000E+00 0.  1.
         11    1    3    3    0    0 -0.40930541811E+01  0.11014871104E+02 -0.80099890701E+01  0.14221125242E+02  0.51100000000E-03 0. -1.
        -11    1    3    3    0    0 -0.36783696822E+01  0.86445760565E+01  0.41074130975E+01  0.10253289293E+02  0.51100000000E-03 0.  1.
         12    1    3    3    0    0 -0.49979514238E+01  0.21715225028E+02  0.68526436447E+01  0.23312855711E+02  0.00000000000E+00 0. -1.
</event>
<event>
 7    1  0.1427898E-010  0.4778727E+02  0.7816164E-02  0.1312668E+00
        -11   -1    0    0    0    0  0.00000000000E+00  0.00000000000E+00  0.45593999997E+02  0.45594000000E+02  0.51100000000E-03 0.  1.
         11   -1    0    0    0    0 -0.00000000000E+00 -0.00000000000E+00 -0.45593999997E+02  0.45594000000E+02  0.51100000000E-03 0. -1.
    9900012    2    1    2    0    0  0.25767248293E+02 -0.19949050398E+02 -0.28665442281E+02  0.47787271002E+02  0.19999999807E+02 0.  0.
        -12    1    1    2    0    0 -0.25767248293E+02  0.19949050398E+02  0.28665442281E+02  0.43400728998E+02  0.00000000000E+00 0.  1.
         11    1    3    3    0    0  0.15331060576E+02 -0.12489267620E+02 -0.28403752252E+02  0.34609194823E+02  0.51100000000E-03 0. -1.
        -11    1    3    3    0    0  0.40550432822E+01 -0.11825900217E+01 -0.35208108698E-01  0.42241135226E+01  0.51100000000E-03 0.  1.
         12    1    3    3    0    0  0.63811444348E+01 -0.62771927556E+01 -0.22648192078E+00  0.89539626562E+01  0.00000000000E+00 0. -1.
</event>
<event>
 7    1  0.1427898E-010  0.4778727E+02  0.7816164E-02  0.1312668E+00
        -11   -1    0    0    0    0  0.00000000000E+00  0.00000000000E+00  0.45593999997E+02  0.45594000000E+02  0.51100000000E-03 0.  1.
         11   -1    0    0    0    0 -0.00000000000E+00 -0.00000000000E+00 -0.45593999997E+02  0.45594000000E+02  0.51100000000E-03 0. -1.
    9900012    2    1    2    0    0 -0.86179735406E+01 -0.17225589520E+02 -0.38892582605E+02  0.47787269776E+02  0.19999994219E+02 0.  0.
        -12    1    1    2    0    0  0.86179735406E+01  0.17225589520E+02  0.38892582605E+02  0.43400730224E+02  0.00000000000E+00 0.  1.
         11    1    3    3    0    0 -0.78690004334E+00  0.17184493825E+01 -0.11812560512E+01  0.22288216793E+01  0.51100000000E-03 0. -1.
        -11    1    3    3    0    0 -0.45968863140E+01  0.14215912959E+01 -0.54523520270E+01  0.72718930468E+01  0.51100000000E-03 0.  1.
         12    1    3    3    0    0 -0.32341871833E+01 -0.20365630198E+02 -0.32258974527E+02  0.38286555050E+02  0.00000000000E+00 0. -1.
</event>
<event>
 7    1  0.1427898E-010  0.4778727E+02  0.7816164E-02  0.1312668E+00
        -11   -1    0    0    0    0  0.00000000000E+00  0.00000000000E+00  0.45593999997E+02  0.45594000000E+02  0.51100000000E-03 0. -1.
         11   -1    0    0    0    0 -0.00000000000E+00 -0.00000000000E+00 -0.45593999997E+02  0.45594000000E+02  0.51100000000E-03 0.  1.
    9900012    2    1    2    0    0  0.40551154056E+02  0.28294893385E+01  0.15205959966E+02  0.47787270470E+02  0.19999997381E+02 0.  0.
        -12    1    1    2    0    0 -0.40551154056E+02 -0.28294893385E+01 -0.15205959966E+02  0.43400729530E+02  0.00000000000E+00 0.  1.
         11    1    3    3    0    0  0.16913371408E+02 -0.33558747168E+01  0.14480437583E+02  0.22516818167E+02  0.51100000000E-03 0. -1.
        -11    1    3    3    0    0  0.11675266187E+02  0.46152808156E+01  0.31964402774E+01  0.12954917532E+02  0.51100000000E-03 0.  1.
         12    1    3    3    0    0  0.11962516462E+02  0.15700832397E+01 -0.24709178940E+01  0.12315534772E+02  0.00000000000E+00 0. -1.
</event>
<event>
 7    1  0.1427898E-010  0.4778727E+02  0.7816164E-02  0.1312668E+00
        -11   -1    0    0    0    0  0.00000000000E+00  0.00000000000E+00  0.45593999997E+02  0.45594000000E+02  0.51100000000E-03 0. -1.
         11   -1    0    0    0    0 -0.00000000000E+00 -0.00000000000E+00 -0.45593999997E+02  0.45594000000E+02  0.51100000000E-03 0.  1.
    9900012    2    1    2    0    0 -0.35910258864E+02  0.11588791360E+02 -0.21442399007E+02  0.47787271296E+02  0.20000001147E+02 0.  0.
        -12    1    1    2    0    0  0.35910258864E+02 -0.11588791360E+02  0.21442399007E+02  0.43400728704E+02  0.00000000000E+00 0.  1.
         11    1    3    3    0    0 -0.15391717672E+02  0.65371302887E+01 -0.49452434007E+01  0.17438304902E+02  0.51100000000E-03 0. -1.
        -11    1    3    3    0    0 -0.25762699285E+01 -0.93610803498E+00  0.23768475072E+01  0.36280668863E+01  0.51100000000E-03 0.  1.
        -12    1    3    3    0    0 -0.17942271263E+02  0.59877691067E+01 -0.18874003114E+02  0.26720899508E+02  0.00000000000E+00 0.  1.
</event>
<event>
 7    1  0.1427898E-010  0.4778727E+02  0.7816164E-02  0.1312668E+00
        -11   -1    0    0    0    0  0.00000000000E+00  0.00000000000E+00  0.45593999997E+02  0.45594000000E+02  0.51100000000E-03 0.  1.
         11   -1    0    0    0    0 -0.00000000000E+00 -0.00000000000E+00 -0.45593999997E+02  0.45594000000E+02  0.51100000000E-03 0. -1.
    9900012    2    1    2    0    0  0.14034703110E+02  0.34837270214E+02 -0.21748908454E+02  0.47787270671E+02  0.19999998298E+02 0.  0.
        -12    1    1    2    0    0 -0.14034703110E+02 -0.34837270214E+02  0.21748908454E+02  0.43400729329E+02  0.00000000000E+00 0.  1.
         11    1    3    3    0    0  0.85615569973E+01  0.18000971076E+02 -0.15017949361E+02  0.24957444203E+02  0.51100000000E-03 0. -1.
        -11    1    3    3    0    0 -0.23801040925E+01  0.82244282699E+00 -0.40849799128E+01  0.47987882683E+01  0.51100000000E-03 0.  1.
         12    1    3    3    0    0  0.78532502055E+01  0.16013856311E+02 -0.26459791801E+01  0.18031038200E+02  0.00000000000E+00 0. -1.
</event>
<event>
 7    1  0.1427898E-010  0.4778727E+02  0.7816164E-02  0.1312668E+00
        -11   -1    0    0    0    0  0.00000000000E+00  0.00000000000E+00  0.45593999997E+02  0.45594000000E+02  0.51100000000E-03 0. -1.
         11   -1    0    0    0    0 -0.00000000000E+00 -0.00000000000E+00 -0.45593999997E+02  0.45594000000E+02  0.51100000000E-03 0.  1.
    9900012    2    1    2    0    0  0.34166150930E+02 -0.24062564122E+02  0.11717088752E+02  0.47787273850E+02  0.20000012792E+02 0.  0.
        -12    1    1    2    0    0 -0.34166150930E+02  0.24062564122E+02 -0.11717088752E+02  0.43400726150E+02  0.00000000000E+00 0.  1.
         11    1    3    3    0    0  0.18798682626E+02 -0.14624470866E+02  0.49571123328E+01  0.24327732724E+02  0.51100000000E-03 0. -1.
        -11    1    3    3    0    0  0.46727100012E+01  0.31772052046E+01  0.33633949203E+01  0.65758100123E+01  0.51100000000E-03 0.  1.
         12    1    3    3    0    0  0.10694758304E+02 -0.12615298461E+02  0.33965814984E+01  0.16883731113E+02  0.00000000000E+00 0. -1.
</event>
<event>
 7    1  0.1427898E-010  0.4778727E+02  0.7816164E-02  0.1312668E+00
        -11   -1    0    0    0    0  0.00000000000E+00  0.00000000000E+00  0.45593999997E+02  0.45594000000E+02  0.51100000000E-03 0.  1.
         11   -1    0    0    0    0 -0.00000000000E+00 -0.00000000000E+00 -0.45593999997E+02  0.45594000000E+02  0.51100000000E-03 0. -1.
    9900012    2    1    2    0    0 -0.13342439578E+02 -0.48424537853E+01 -0.41014060671E+02  0.47787271604E+02  0.20000002550E+02 0.  0.
        -12    1    1    2    0    0  0.13342439578E+02  0.48424537853E+01  0.41014060671E+02  0.43400728396E+02  0.00000000000E+00 0.  1.
         11    1    3    3    0    0 -0.49138257317E+01  0.48738509397E+01 -0.40005679461E+01  0.79940384323E+01  0.51100000000E-03 0. -1.
        -11    1    3    3    0    0 -0.46724333887E+01 -0.78123399422E+01 -0.16428483534E+02  0.18781889166E+02  0.51100000000E-03 0.  1.
        -12    1    3    3    0    0 -0.37561804579E+01 -0.19039647828E+01 -0.20585009191E+02  0.21011344006E+02  0.00000000000E+00 0.  1.
</event>
<event>
 7    1  0.1849498E-010  0.4778728E+02  0.7816164E-02  0.1312668E+00
        -11   -1    0    0    0    0  0.00000000000E+00  0.00000000000E+00  0.45593999997E+02  0.45594000000E+02  0.51100000000E-03 0.  1.
         11   -1    0    0    0    0 -0.00000000000E+00 -0.00000000000E+00 -0.45593999997E+02  0.45594000000E+02  0.51100000000E-03 0. -1.
    9900012    2    1    2    0    0  0.38779387480E+02  0.17511044002E+02  0.85524773255E+01  0.47787280838E+02  0.20000044651E+02 0.  0.
        -12    1    1    2    0    0 -0.38779387480E+02 -0.17511044002E+02 -0.85524773255E+01  0.43400719162E+02  0.00000000000E+00 0.  1.
         11    1    3    3    0    0  0.21454237340E+02  0.12754846694E+02  0.62795771485E+01  0.25737200769E+02  0.51100000000E-03 0. -1.
        -11    1    3    3    0    0  0.32221997251E+01  0.50202102366E+01 -0.33773880021E+01  0.68550588521E+01  0.51100000000E-03 0.  1.
         12    1    3    3    0    0  0.14102950416E+02 -0.26401292872E+00  0.56502881791E+01  0.15195021216E+02  0.00000000000E+00 0. -1.
</event>
<event>
 7    1  0.1427898E-010  0.4778727E+02  0.7816164E-02  0.1312668E+00
        -11   -1    0    0    0    0  0.00000000000E+00  0.00000000000E+00  0.45593999997E+02  0.45594000000E+02  0.51100000000E-03 0. -1.
         11   -1    0    0    0    0 -0.00000000000E+00 -0.00000000000E+00 -0.45593999997E+02  0.45594000000E+02  0.51100000000E-03 0.  1.
    9900012    2    1    2    0    0  0.14640413617E+02  0.24964333887E+02  0.32342905505E+02  0.47787271736E+02  0.20000003155E+02 0.  0.
        -12    1    1    2    0    0 -0.14640413617E+02 -0.24964333887E+02 -0.32342905505E+02  0.43400728264E+02  0.00000000000E+00 0.  1.
         11    1    3    3    0    0  0.11582300182E+02  0.17276976482E+02  0.30108725699E+02  0.36594794129E+02  0.51100000000E-03 0. -1.
        -11    1    3    3    0    0 -0.35264201790E+00 -0.12447368648E+01  0.80860243730E+00  0.15256357423E+01  0.51100000000E-03 0.  1.
         12    1    3    3    0    0  0.34107554528E+01  0.89320942703E+01  0.14255773682E+01  0.96668418651E+01  0.00000000000E+00 0. -1.
</event>
<event>
 7    1  0.1427898E-010  0.4778727E+02  0.7816164E-02  0.1312668E+00
        -11   -1    0    0    0    0  0.00000000000E+00  0.00000000000E+00  0.45593999997E+02  0.45594000000E+02  0.51100000000E-03 0.  1.
         11   -1    0    0    0    0 -0.00000000000E+00 -0.00000000000E+00 -0.45593999997E+02  0.45594000000E+02  0.51100000000E-03 0. -1.
    9900012    2    1    2    0    0 -0.28260031941E+02 -0.18906968025E+01 -0.32884938600E+02  0.47787270438E+02  0.19999997237E+02 0.  0.
        -12    1    1    2    0    0  0.28260031941E+02  0.18906968025E+01  0.32884938600E+02  0.43400729562E+02  0.00000000000E+00 0.  1.
         11    1    3    3    0    0 -0.10069018986E+02  0.13574549738E+01 -0.16600563527E+02  0.19462952936E+02  0.51100000000E-03 0. -1.
        -11    1    3    3    0    0 -0.11416443946E+02  0.15017295295E+01 -0.16413157284E+02  0.20049491670E+02  0.51100000000E-03 0.  1.
        -12    1    3    3    0    0 -0.67745690101E+01 -0.47498813057E+01  0.12878221023E+00  0.82748258319E+01  0.00000000000E+00 0.  1.
</event>
<event>
 7    1  0.1427898E-010  0.4778727E+02  0.7816164E-02  0.1312668E+00
        -11   -1    0    0    0    0  0.00000000000E+00  0.00000000000E+00  0.45593999997E+02  0.45594000000E+02  0.51100000000E-03 0. -1.
         11   -1    0    0    0    0 -0.00000000000E+00 -0.00000000000E+00 -0.45593999997E+02  0.45594000000E+02  0.51100000000E-03 0.  1.
    9900012    2    1    2    0    0 -0.23135160722E+02 -0.18089425243E+01  0.36675816595E+02  0.47787268928E+02  0.19999990350E+02 0.  0.
        -12    1    1    2    0    0  0.23135160722E+02  0.18089425243E+01 -0.36675816595E+02  0.43400731072E+02  0.00000000000E+00 0.  1.
         11    1    3    3    0    0 -0.75742238138E+01  0.24396591081E+01  0.21001489810E+02  0.22458481192E+02  0.51100000000E-03 0. -1.
        -11    1    3    3    0    0 -0.60418430816E+01 -0.69014992307E+01  0.11212405948E+02  0.14486290307E+02  0.51100000000E-03 0.  1.
        -12    1    3    3    0    0 -0.95190938267E+01  0.26528975983E+01  0.44619208367E+01  0.10842497429E+02  0.00000000000E+00 0.  1.
</event>
<event>
 7    1  0.1427898E-010  0.4778727E+02  0.7816164E-02  0.1312668E+00
        -11   -1    0    0    0    0  0.00000000000E+00  0.00000000000E+00  0.45593999997E+02  0.45594000000E+02  0.51100000000E-03 0. -1.
         11   -1    0    0    0    0 -0.00000000000E+00 -0.00000000000E+00 -0.45593999997E+02  0.45594000000E+02  0.51100000000E-03 0.  1.
    9900012    2    1    2    0    0 -0.32848706523E+02 -0.26674030526E+01  0.28239522784E+02  0.47787271822E+02  0.20000003546E+02 0.  0.
        -12    1    1    2    0    0  0.32848706523E+02  0.26674030526E+01 -0.28239522784E+02  0.43400728178E+02  0.00000000000E+00 0.  1.
         11    1    3    3    0    0 -0.61941573307E+01 -0.16621630597E+01  0.12909736151E+02  0.14414980362E+02  0.51100000000E-03 0.  1.
        -11    1    3    3    0    0 -0.47390922938E+01  0.46320323605E+01  0.58443804840E+01  0.88358080027E+01  0.51100000000E-03 0. -1.
        -12    1    3    3    0    0 -0.21915456899E+02 -0.56372723533E+01  0.94854061486E+01  0.24536483458E+02  0.00000000000E+00 0.  1.
</event>
<event>
 7    1  0.1427898E-010  0.4778727E+02  0.7816164E-02  0.1312668E+00
        -11   -1    0    0    0    0  0.00000000000E+00  0.00000000000E+00  0.45593999997E+02  0.45594000000E+02  0.51100000000E-03 0.  1.
         11   -1    0    0    0    0 -0.00000000000E+00 -0.00000000000E+00 -0.45593999997E+02  0.45594000000E+02  0.51100000000E-03 0. -1.
    9900012    2    1    2    0    0 -0.31511518724E+02  0.21939900943E+01 -0.29762969131E+02  0.47787265717E+02  0.19999975708E+02 0.  0.
        -12    1    1    2    0    0  0.31511518724E+02 -0.21939900943E+01  0.29762969131E+02  0.43400734283E+02  0.00000000000E+00 0.  1.
         11    1    3    3    0    0 -0.16940450450E+01 -0.11329458191E+00 -0.10376818817E+02  0.10514798775E+02  0.51100000000E-03 0. -1.
        -11    1    3    3    0    0 -0.92628654126E+01 -0.12951190886E+01 -0.90376541565E+00  0.93965313437E+01  0.51100000000E-03 0.  1.
         12    1    3    3    0    0 -0.20554608267E+02  0.36024037648E+01 -0.18482384899E+02  0.27875935597E+02  0.00000000000E+00 0. -1.
</event>
<event>
 7    1  0.1427898E-010  0.4778727E+02  0.7816164E-02  0.1312668E+00
        -11   -1    0    0    0    0  0.00000000000E+00  0.00000000000E+00  0.45593999997E+02  0.45594000000E+02  0.51100000000E-03 0.  1.
         11   -1    0    0    0    0 -0.00000000000E+00 -0.00000000000E+00 -0.45593999997E+02  0.45594000000E+02  0.51100000000E-03 0. -1.
    9900012    2    1    2    0    0 -0.37185908144E+02 -0.16425953806E+02 -0.15199336303E+02  0.47787267898E+02  0.19999985656E+02 0.  0.
        -12    1    1    2    0    0  0.37185908144E+02  0.16425953806E+02  0.15199336303E+02  0.43400732102E+02  0.00000000000E+00 0.  1.
         11    1    3    3    0    0 -0.87916176023E+01 -0.50790011281E+01 -0.21001100110E+01  0.10368184742E+02  0.51100000000E-03 0. -1.
        -11    1    3    3    0    0 -0.22826025764E+01 -0.71455259679E+01  0.79625466973E+00  0.75433969563E+01  0.51100000000E-03 0.  1.
        -12    1    3    3    0    0 -0.26111687965E+02 -0.42014267099E+01 -0.13895480962E+02  0.29875686200E+02  0.00000000000E+00 0.  1.
</event>
<event>
 7    1  0.1427898E-010  0.4778728E+02  0.7816164E-02  0.1312668E+00
        -11   -1    0    0    0    0  0.00000000000E+00  0.00000000000E+00  0.45593999997E+02  0.45594000000E+02  0.51100000000E-03 0. -1.
         11   -1    0    0    0    0 -0.00000000000E+00 -0.00000000000E+00 -0.45593999997E+02  0.45594000000E+02  0.51100000000E-03 0.  1.
    9900012    2    1    2    0    0 -0.27187953641E+01 -0.14961858603E+02  0.40649394623E+02  0.47787281753E+02  0.20000048827E+02 0.  0.
        -12    1    1    2    0    0  0.27187953641E+01  0.14961858603E+02 -0.40649394623E+02  0.43400718247E+02  0.00000000000E+00 0.  1.
         11    1    3    3    0    0  0.79036126667E+00 -0.74230085381E+01  0.78521965620E+01  0.10834330519E+02  0.51100000000E-03 0. -1.
        -11    1    3    3    0    0  0.13082338244E+01  0.40258246685E+01  0.57004953905E+01  0.71003090045E+01  0.51100000000E-03 0.  1.
        -12    1    3    3    0    0 -0.48173904551E+01 -0.11564674734E+02  0.27096702670E+02  0.29852642230E+02  0.00000000000E+00 0.  1.
</event>
<event>
 7    1  0.1427898E-010  0.4778727E+02  0.7816164E-02  0.1312668E+00
        -11   -1    0    0    0    0  0.00000000000E+00  0.00000000000E+00  0.45593999997E+02  0.45594000000E+02  0.51100000000E-03 0. -1.
         11   -1    0    0    0    0 -0.00000000000E+00 -0.00000000000E+00 -0.45593999997E+02  0.45594000000E+02  0.51100000000E-03 0.  1.
    9900012    2    1    2    0    0 -0.33710446894E+02 -0.14630747666E+02  0.23090476143E+02  0.47787273099E+02  0.20000009367E+02 0.  0.
        -12    1    1    2    0    0  0.33710446894E+02  0.14630747666E+02 -0.23090476143E+02  0.43400726901E+02  0.00000000000E+00 0.  1.
         11    1    3    3    0    0 -0.10169099043E+02 -0.21380241093E+01  0.82173282753E+01  0.13247875553E+02  0.51100000000E-03 0. -1.
        -11    1    3    3    0    0 -0.98577947390E+01  0.25996308379E+01  0.18523637361E+01  0.10361730033E+02  0.51100000000E-03 0.  1.
         12    1    3    3    0    0 -0.13683553112E+02 -0.15092354394E+02  0.13020784132E+02  0.24177667512E+02  0.00000000000E+00 0. -1.
</event>
<event>
 7    1  0.1427898E-010  0.4778723E+02  0.7816164E-02  0.1312668E+00
        -11   -1    0    0    0    0  0.00000000000E+00  0.00000000000E+00  0.45593999997E+02  0.45594000000E+02  0.51100000000E-03 0.  1.
         11   -1    0    0    0    0 -0.00000000000E+00 -0.00000000000E+00 -0.45593999997E+02  0.45594000000E+02  0.51100000000E-03 0. -1.
    9900012    2    1    2    0    0 -0.73145974433E+01  0.38838518619E+02 -0.17935800141E+02  0.47787230526E+02  0.19999815259E+02 0.  0.
        -12    1    1    2    0    0  0.73145974433E+01 -0.38838518619E+02  0.17935800141E+02  0.43400769474E+02  0.00000000000E+00 0.  1.
         11    1    3    3    0    0  0.12026445181E+01  0.19088376822E+02 -0.17446424725E+02  0.25888032360E+02  0.51100000000E-03 0. -1.
        -11    1    3    3    0    0 -0.49095522326E+01  0.14635431266E+02 -0.16793589846E+01  0.15528032661E+02  0.51100000000E-03 0.  1.
         12    1    3    3    0    0 -0.36076897288E+01  0.51147105301E+01  0.11899835686E+01  0.63711655040E+01  0.00000000000E+00 0. -1.
</event>
<event>
 7    1  0.1427898E-010  0.4778727E+02  0.7816164E-02  0.1312668E+00
        -11   -1    0    0    0    0  0.00000000000E+00  0.00000000000E+00  0.45593999997E+02  0.45594000000E+02  0.51100000000E-03 0. -1.
         11   -1    0    0    0    0 -0.00000000000E+00 -0.00000000000E+00 -0.45593999997E+02  0.45594000000E+02  0.51100000000E-03 0.  1.
    9900012    2    1    2    0    0 -0.68277339740E+01 -0.42099976311E+02 -0.80372381870E+01  0.47787272422E+02  0.20000006280E+02 0.  0.
        -12    1    1    2    0    0  0.68277339740E+01  0.42099976311E+02  0.80372381870E+01  0.43400727578E+02  0.00000000000E+00 0.  1.
         11    1    3    3    0    0 -0.71170163130E+00 -0.28176176270E+02 -0.50525336330E+01  0.28634446473E+02  0.51100000000E-03 0. -1.
        -11    1    3    3    0    0  0.13277377675E+01 -0.23025559266E+01 -0.45439050218E+01  0.52641926715E+01  0.51100000000E-03 0.  1.
         12    1    3    3    0    0 -0.74437701102E+01 -0.11621244114E+02  0.15592004678E+01  0.13888633278E+02  0.00000000000E+00 0. -1.
</event>
<event>
 7    1  0.1427898E-010  0.4778727E+02  0.7816164E-02  0.1312668E+00
        -11   -1    0    0    0    0  0.00000000000E+00  0.00000000000E+00  0.45593999997E+02  0.45594000000E+02  0.51100000000E-03 0. -1.
         11   -1    0    0    0    0 -0.00000000000E+00 -0.00000000000E+00 -0.45593999997E+02  0.45594000000E+02  0.51100000000E-03 0.  1.
    9900012    2    1    2    0    0  0.86351222766E+01  0.32653978332E+02  0.27253906882E+02  0.47787273301E+02  0.20000010289E+02 0.  0.
        -12    1    1    2    0    0 -0.86351222766E+01 -0.32653978332E+02 -0.27253906882E+02  0.43400726699E+02  0.00000000000E+00 0.  1.
         11    1    3    3    0    0  0.22486287297E+01  0.22448405227E+02  0.15343905300E+02  0.27284110000E+02  0.51100000000E-03 0. -1.
        -11    1    3    3    0    0  0.30501473749E+01  0.35070120318E+01 -0.17183852341E+01  0.49553385831E+01  0.51100000000E-03 0.  1.
         12    1    3    3    0    0  0.33363461720E+01  0.66985610736E+01  0.13628386817E+02  0.15547824718E+02  0.00000000000E+00 0. -1.
</event>
<event>
 7    1  0.1427898E-010  0.4778727E+02  0.7816164E-02  0.1312668E+00
        -11   -1    0    0    0    0  0.00000000000E+00  0.00000000000E+00  0.45593999997E+02  0.45594000000E+02  0.51100000000E-03 0.  1.
         11   -1    0    0    0    0 -0.00000000000E+00 -0.00000000000E+00 -0.45593999997E+02  0.45594000000E+02  0.51100000000E-03 0. -1.
    9900012    2    1    2    0    0 -0.17314333427E+01 -0.10568692007E+02 -0.42058629371E+02  0.47787269399E+02  0.19999992496E+02 0.  0.
        -12    1    1    2    0    0  0.17314333427E+01  0.10568692007E+02  0.42058629371E+02  0.43400730601E+02  0.00000000000E+00 0.  1.
         11    1    3    3    0    0 -0.97384760905E+01 -0.76452126746E+01 -0.19974524646E+02  0.23500400603E+02  0.51100000000E-03 0. -1.
        -11    1    3    3    0    0  0.22032147912E+01  0.83920101388E+00 -0.10777672687E+02  0.11032526573E+02  0.51100000000E-03 0.  1.
         12    1    3    3    0    0  0.58038279566E+01 -0.37626803467E+01 -0.11306432038E+02  0.13254342223E+02  0.00000000000E+00 0. -1.
</event>
<event>
 7    1  0.1427898E-010  0.4778728E+02  0.7816164E-02  0.1312668E+00
        -11   -1    0    0    0    0  0.00000000000E+00  0.00000000000E+00  0.45593999997E+02  0.45594000000E+02  0.51100000000E-03 0.  1.
         11   -1    0    0    0    0 -0.00000000000E+00 -0.00000000000E+00 -0.45593999997E+02  0.45594000000E+02  0.51100000000E-03 0. -1.
    9900012    2    1    2    0    0  0.42487190299E+02 -0.87900957801E+01  0.10933053690E+01  0.47787280651E+02  0.20000043802E+02 0.  0.
        -12    1    1    2    0    0 -0.42487190299E+02  0.87900957801E+01 -0.10933053690E+01  0.43400719349E+02  0.00000000000E+00 0.  1.
         11    1    3    3    0    0  0.22502211295E+02 -0.11355130407E+02  0.33574480019E+01  0.25427562940E+02  0.51100000000E-03 0.  1.
        -11    1    3    3    0    0  0.16745935393E+02  0.14113593613E+01  0.19531238022E+01  0.16918421329E+02  0.51100000000E-03 0. -1.
        -12    1    3    3    0    0  0.32390436115E+01  0.11536752653E+01 -0.42172664351E+01  0.54412963823E+01  0.00000000000E+00 0.  1.
</event>
<event>
 7    1  0.1427898E-010  0.4778727E+02  0.7816164E-02  0.1312668E+00
        -11   -1    0    0    0    0  0.00000000000E+00  0.00000000000E+00  0.45593999997E+02  0.45594000000E+02  0.51100000000E-03 0.  1.
         11   -1    0    0    0    0 -0.00000000000E+00 -0.00000000000E+00 -0.45593999997E+02  0.45594000000E+02  0.51100000000E-03 0. -1.
    9900012    2    1    2    0    0 -0.11558165039E+02 -0.41831510209E+02 -0.39594455213E+00  0.47787271924E+02  0.20000004012E+02 0.  0.
        -12    1    1    2    0    0  0.11558165039E+02  0.41831510209E+02  0.39594455213E+00  0.43400728076E+02  0.00000000000E+00 0.  1.
         11    1    3    3    0    0 -0.12766082148E+02 -0.16972037896E+02  0.17374060029E+01  0.21308249661E+02  0.51100000000E-03 0. -1.
        -11    1    3    3    0    0  0.16145506746E+01 -0.12458573843E+00  0.19693766878E+00  0.16312817640E+01  0.51100000000E-03 0.  1.
        -12    1    3    3    0    0 -0.40663356632E+00 -0.24734886575E+02 -0.23302882239E+01  0.24847740499E+02  0.00000000000E+00 0.  1.
</event>
<event>
 7    1  0.1427898E-010  0.4778727E+02  0.7816164E-02  0.1312668E+00
        -11   -1    0    0    0    0  0.00000000000E+00  0.00000000000E+00  0.45593999997E+02  0.45594000000E+02  0.51100000000E-03 0. -1.
         11   -1    0    0    0    0 -0.00000000000E+00 -0.00000000000E+00 -0.45593999997E+02  0.45594000000E+02  0.51100000000E-03 0.  1.
    9900012    2    1    2    0    0  0.38814278894E+02  0.13504962170E+02  0.13953170793E+02  0.47787271614E+02  0.20000002595E+02 0.  0.
        -12    1    1    2    0    0 -0.38814278894E+02 -0.13504962170E+02 -0.13953170793E+02  0.43400728386E+02  0.00000000000E+00 0.  1.
         11    1    3    3    0    0  0.17812460440E+02  0.36040843640E+01  0.90482281978E+00  0.18195930194E+02  0.51100000000E-03 0. -1.
        -11    1    3    3    0    0  0.17996568099E+02  0.27955017461E+01  0.11988678362E+02  0.21804121227E+02  0.51100000000E-03 0.  1.
        -12    1    3    3    0    0  0.30052503556E+01  0.71053760595E+01  0.10596696113E+01  0.77872201929E+01  0.00000000000E+00 0.  1.
</event>
<event>
 7    1  0.1427898E-010  0.4778727E+02  0.7816164E-02  0.1312668E+00
        -11   -1    0    0    0    0  0.00000000000E+00  0.00000000000E+00  0.45593999997E+02  0.45594000000E+02  0.51100000000E-03 0. -1.
         11   -1    0    0    0    0 -0.00000000000E+00 -0.00000000000E+00 -0.45593999997E+02  0.45594000000E+02  0.51100000000E-03 0.  1.
    9900012    2    1    2    0    0 -0.34142953165E+02 -0.19212495616E+02 -0.18675178032E+02  0.47787268288E+02  0.19999987432E+02 0.  0.
        -12    1    1    2    0    0  0.34142953165E+02  0.19212495616E+02  0.18675178032E+02  0.43400731712E+02  0.00000000000E+00 0.  1.
         11    1    3    3    0    0 -0.27513957582E+02 -0.12959986786E+02 -0.92444927680E+01  0.31787415215E+02  0.51100000000E-03 0. -1.
        -11    1    3    3    0    0 -0.27297588226E+01  0.22266468017E+01 -0.18664815650E+01  0.39866392994E+01  0.51100000000E-03 0.  1.
        -12    1    3    3    0    0 -0.38992367606E+01 -0.84791556322E+01 -0.75642036994E+01  0.12013213773E+02  0.00000000000E+00 0.  1.
</event>
<event>
 7    1  0.1427898E-010  0.4778729E+02  0.7816164E-02  0.1312668E+00
        -11   -1    0    0    0    0  0.00000000000E+00  0.00000000000E+00  0.45593999997E+02  0.45594000000E+02  0.51100000000E-03 0. -1.
         11   -1    0    0    0    0 -0.00000000000E+00 -0.00000000000E+00 -0.45593999997E+02  0.45594000000E+02  0.51100000000E-03 0.  1.
    9900012    2    1    2    0    0 -0.37844636019E+02 -0.20971613223E+02 -0.34053558790E+01  0.47787291650E+02  0.20000093949E+02 0.  0.
        -12    1    1    2    0    0  0.37844636019E+02  0.20971613223E+02  0.34053558790E+01  0.43400708350E+02  0.00000000000E+00 0.  1.
         11    1    3    3    0    0 -0.69317323111E+01 -0.10451208086E+02  0.23494099513E+01  0.12759168886E+02  0.51100000000E-03 0. -1.
        -11    1    3    3    0    0 -0.26102801217E+01  0.21282813572E+01 -0.16714587640E+01  0.37599093752E+01  0.51100000000E-03 0.  1.
         12    1    3    3    0    0 -0.28302623587E+02 -0.12648686494E+02 -0.40833070664E+01  0.31268213389E+02  0.00000000000E+00 0. -1.
</event>
<event>
 7    1  0.1427898E-010  0.4778727E+02  0.7816164E-02  0.1312668E+00
        -11   -1    0    0    0    0  0.00000000000E+00  0.00000000000E+00  0.45593999997E+02  0.45594000000E+02  0.51100000000E-03 0.  1.
         11   -1    0    0    0    0 -0.00000000000E+00 -0.00000000000E+00 -0.45593999997E+02  0.45594000000E+02  0.51100000000E-03 0. -1.
    9900012    2    1    2    0    0  0.22470842735E+02  0.21111563332E+02 -0.30544829208E+02  0.47787268775E+02  0.19999989651E+02 0.  0.
        -12    1    1    2    0    0 -0.22470842735E+02 -0.21111563332E+02  0.30544829208E+02  0.43400731225E+02  0.00000000000E+00 0.  1.
         11    1    3    3    0    0  0.21724374000E+02  0.20544552519E+02 -0.23798910590E+02  0.38215379226E+02  0.51100000000E-03 0. -1.
        -11    1    3    3    0    0  0.18187176125E+01  0.26663911864E+01 -0.10284186883E+01  0.33874800328E+01  0.51100000000E-03 0.  1.
        -12    1    3    3    0    0 -0.10722488774E+01 -0.20993803731E+01 -0.57174999299E+01  0.61844095154E+01  0.00000000000E+00 0.  1.
</event>
<event>
 7    1  0.1612579E-010  0.4778727E+02  0.7816164E-02  0.1312668E+00
        -11   -1    0    0    0    0  0.00000000000E+00  0.00000000000E+00  0.45593999997E+02  0.45594000000E+02  0.51100000000E-03 0. -1.
         11   -1    0    0    0    0 -0.00000000000E+00 -0.00000000000E+00 -0.45593999997E+02  0.45594000000E+02  0.51100000000E-03 0.  1.
    9900012    2    1    2    0    0  0.26529279331E+02  0.34164940800E+02 -0.35464865155E+01  0.47787269496E+02  0.19999992938E+02 0.  0.
        -12    1    1    2    0    0 -0.26529279331E+02 -0.34164940800E+02  0.35464865155E+01  0.43400730504E+02  0.00000000000E+00 0.  1.
         11    1    3    3    0    0  0.10757639979E+02  0.11882217217E+02 -0.36295203985E+01  0.16434333650E+02  0.51100000000E-03 0. -1.
        -11    1    3    3    0    0 -0.15292805492E+01  0.97842367301E+01  0.12287245349E+01  0.99789654590E+01  0.51100000000E-03 0.  1.
        -12    1    3    3    0    0  0.17300919901E+02  0.12498486853E+02 -0.11456906520E+01  0.21373970387E+02  0.00000000000E+00 0.  1.
</event>
<event>
 7    1  0.1427898E-010  0.4778728E+02  0.7816164E-02  0.1312668E+00
        -11   -1    0    0    0    0  0.00000000000E+00  0.00000000000E+00  0.45593999997E+02  0.45594000000E+02  0.51100000000E-03 0.  1.
         11   -1    0    0    0    0 -0.00000000000E+00 -0.00000000000E+00 -0.45593999997E+02  0.45594000000E+02  0.51100000000E-03 0. -1.
    9900012    2    1    2    0    0 -0.13446008904E+02  0.20822469432E+02 -0.35626570596E+02  0.47787275108E+02  0.20000018529E+02 0.  0.
        -12    1    1    2    0    0  0.13446008904E+02 -0.20822469432E+02  0.35626570596E+02  0.43400724892E+02  0.00000000000E+00 0.  1.
         11    1    3    3    0    0 -0.67972671030E+00  0.31414465276E+01 -0.31690431303E+01  0.45137068258E+01  0.51100000000E-03 0. -1.
        -11    1    3    3    0    0 -0.39220533974E+01  0.85262687062E+01 -0.11227462227E+01  0.94520008592E+01  0.51100000000E-03 0.  1.
        -12    1    3    3    0    0 -0.88442287959E+01  0.91547541985E+01 -0.31334781243E+02  0.33821567423E+02  0.00000000000E+00 0.  1.
</event>
<event>
 7    1  0.1427898E-010  0.4778727E+02  0.7816164E-02  0.1312668E+00
        -11   -1    0    0    0    0  0.00000000000E+00  0.00000000000E+00  0.45593999997E+02  0.45594000000E+02  0.51100000000E-03 0.  1.
         11   -1    0    0    0    0 -0.00000000000E+00 -0.00000000000E+00 -0.45593999997E+02  0.45594000000E+02  0.51100000000E-03 0. -1.
    9900012    2    1    2    0    0  0.25695948744E+01 -0.41391431440E+02  0.12797247733E+02  0.47787274614E+02  0.20000016277E+02 0.  0.
        -12    1    1    2    0    0 -0.25695948744E+01  0.41391431440E+02 -0.12797247733E+02  0.43400725386E+02  0.00000000000E+00 0.  1.
         11    1    3    3    0    0 -0.15736529591E+01 -0.11368949514E+02  0.71751245833E+01  0.13535575708E+02  0.51100000000E-03 0. -1.
        -11    1    3    3    0    0  0.84609517515E+01 -0.26965402030E+02  0.32300142070E+01  0.28445625379E+02  0.51100000000E-03 0.  1.
        -12    1    3    3    0    0 -0.43177039180E+01 -0.30570798956E+01  0.23921089432E+01  0.58060735275E+01  0.00000000000E+00 0.  1.
</event>
<event>
 7    1  0.1427898E-010  0.4778726E+02  0.7816164E-02  0.1312668E+00
        -11   -1    0    0    0    0  0.00000000000E+00  0.00000000000E+00  0.45593999997E+02  0.45594000000E+02  0.51100000000E-03 0.  1.
         11   -1    0    0    0    0 -0.00000000000E+00 -0.00000000000E+00 -0.45593999997E+02  0.45594000000E+02  0.51100000000E-03 0. -1.
    9900012    2    1    2    0    0 -0.15769734358E+02  0.12532565035E+02 -0.38443129821E+02  0.47787263387E+02  0.19999965089E+02 0.  0.
        -12    1    1    2    0    0  0.15769734358E+02 -0.12532565035E+02  0.38443129821E+02  0.43400736613E+02  0.00000000000E+00 0.  1.
         11    1    3    3    0    0 -0.14452126171E+02  0.68050023079E+01 -0.27637129146E+02  0.31921511790E+02  0.51100000000E-03 0. -1.
        -11    1    3    3    0    0 -0.45391067697E+01  0.36590215366E+01 -0.18353528316E+01  0.61123194575E+01  0.51100000000E-03 0.  1.
         12    1    3    3    0    0  0.32214985829E+01  0.20685411904E+01 -0.89706478436E+01  0.97534321400E+01  0.00000000000E+00 0. -1.
</event>
<event>
 7    1  0.1427898E-010  0.4778728E+02  0.7816164E-02  0.1312668E+00
        -11   -1    0    0    0    0  0.00000000000E+00  0.00000000000E+00  0.45593999997E+02  0.45594000000E+02  0.51100000000E-03 0. -1.
         11   -1    0    0    0    0 -0.00000000000E+00 -0.00000000000E+00 -0.45593999997E+02  0.45594000000E+02  0.51100000000E-03 0.  1.
    9900012    2    1    2    0    0  0.14522793876E+02 -0.34713463809E+02  0.21626064919E+02  0.47787276556E+02  0.20000025128E+02 0.  0.
        -12    1    1    2    0    0 -0.14522793876E+02  0.34713463809E+02 -0.21626064919E+02  0.43400723444E+02  0.00000000000E+00 0.  1.
         11    1    3    3    0    0  0.44851379355E+01 -0.41107139299E+01  0.94810967062E+01  0.11265239737E+02  0.51100000000E-03 0. -1.
        -11    1    3    3    0    0  0.12641913907E+01 -0.22376835249E+02  0.76239505459E+01  0.23673731388E+02  0.51100000000E-03 0.  1.
         12    1    3    3    0    0  0.87734645496E+01 -0.82259146308E+01  0.45210176668E+01  0.12848305431E+02  0.00000000000E+00 0. -1.
</event>
<event>
 7    1  0.1427898E-010  0.4778727E+02  0.7816164E-02  0.1312668E+00
        -11   -1    0    0    0    0  0.00000000000E+00  0.00000000000E+00  0.45593999997E+02  0.45594000000E+02  0.51100000000E-03 0.  1.
         11   -1    0    0    0    0 -0.00000000000E+00 -0.00000000000E+00 -0.45593999997E+02  0.45594000000E+02  0.51100000000E-03 0. -1.
    9900012    2    1    2    0    0  0.57028845788E+01 -0.39772648845E+02 -0.16408436891E+02  0.47787270860E+02  0.19999999161E+02 0.  0.
        -12    1    1    2    0    0 -0.57028845788E+01  0.39772648845E+02  0.16408436891E+02  0.43400729140E+02  0.00000000000E+00 0.  1.
         11    1    3    3    0    0  0.64968684684E+01 -0.15908629757E+02 -0.45466585321E+01  0.17775429804E+02  0.51100000000E-03 0. -1.
        -11    1    3    3    0    0 -0.50824244205E+01 -0.18904407492E+02 -0.12799192496E+02  0.23388608113E+02  0.51100000000E-03 0.  1.
         12    1    3    3    0    0  0.42884405308E+01 -0.49596115955E+01  0.93741413761E+00  0.66232329440E+01  0.00000000000E+00 0. -1.
</event>
<event>
 7    1  0.1427898E-010  0.4778727E+02  0.7816164E-02  0.1312668E+00
        -11   -1    0    0    0    0  0.00000000000E+00  0.00000000000E+00  0.45593999997E+02  0.45594000000E+02  0.51100000000E-03 0.  1.
         11   -1    0    0    0    0 -0.00000000000E+00 -0.00000000000E+00 -0.45593999997E+02  0.45594000000E+02  0.51100000000E-03 0. -1.
    9900012    2    1    2    0    0 -0.17992856111E+02  0.39465313417E+02  0.15392891504E+01  0.47787271374E+02  0.20000001504E+02 0.  0.
        -12    1    1    2    0    0  0.17992856111E+02 -0.39465313417E+02 -0.15392891504E+01  0.43400728626E+02  0.00000000000E+00 0.  1.
         11    1    3    3    0    0 -0.10859025940E+02  0.25243742455E+02 -0.14079798307E+01  0.27516311253E+02  0.51100000000E-03 0. -1.
        -11    1    3    3    0    0 -0.33392980378E+01  0.15368627787E+02  0.76490341740E+00  0.15745815601E+02  0.51100000000E-03 0.  1.
        -12    1    3    3    0    0 -0.37945321334E+01 -0.11470568254E+01  0.21823655637E+01  0.45251445199E+01  0.00000000000E+00 0.  1.
</event>
<event>
 7    1  0.1427898E-010  0.4778727E+02  0.7816164E-02  0.1312668E+00
        -11   -1    0    0    0    0  0.00000000000E+00  0.00000000000E+00  0.45593999997E+02  0.45594000000E+02  0.51100000000E-03 0. -1.
         11   -1    0    0    0    0 -0.00000000000E+00 -0.00000000000E+00 -0.45593999997E+02  0.45594000000E+02  0.51100000000E-03 0.  1.
    9900012    2    1    2    0    0 -0.24918009379E+01 -0.27922102049E+02  0.33132620612E+02  0.47787269553E+02  0.19999993198E+02 0.  0.
        -12    1    1    2    0    0  0.24918009379E+01  0.27922102049E+02 -0.33132620612E+02  0.43400730447E+02  0.00000000000E+00 0.  1.
         11    1    3    3    0    0 -0.21148269040E+01  0.10491982029E+01  0.20729044962E+01  0.31416942904E+01  0.51100000000E-03 0. -1.
        -11    1    3    3    0    0  0.21531184788E+01 -0.30263179725E+01 -0.46037790954E+00  0.37425215744E+01  0.51100000000E-03 0.  1.
         12    1    3    3    0    0 -0.25300925127E+01 -0.25944982279E+02  0.31520094026E+02  0.40903053688E+02  0.00000000000E+00 0. -1.
</event>
<event>
 7    1  0.1427898E-010  0.4778727E+02  0.7816164E-02  0.1312668E+00
        -11   -1    0    0    0    0  0.00000000000E+00  0.00000000000E+00  0.45593999997E+02  0.45594000000E+02  0.51100000000E-03 0.  1.
         11   -1    0    0    0    0 -0.00000000000E+00 -0.00000000000E+00 -0.45593999997E+02  0.45594000000E+02  0.51100000000E-03 0. -1.
    9900012    2    1    2    0    0  0.16935447345E+02 -0.39894070846E+02 -0.22972112540E+01  0.47787269073E+02  0.19999991011E+02 0.  0.
        -12    1    1    2    0    0 -0.16935447345E+02  0.39894070846E+02  0.22972112540E+01  0.43400730927E+02  0.00000000000E+00 0.  1.
         11    1    3    3    0    0  0.99661999072E+01 -0.17749234987E+02 -0.57016521716E+01  0.21139283833E+02  0.51100000000E-03 0. -1.
        -11    1    3    3    0    0  0.92793780561E+00 -0.11389607150E+01 -0.34428457645E+01  0.37431921271E+01  0.51100000000E-03 0.  1.
         12    1    3    3    0    0  0.60413096321E+01 -0.21005875144E+02  0.68472866821E+01  0.22904793113E+02  0.00000000000E+00 0. -1.
</event>
<event>
 7    1  0.1427898E-010  0.4778727E+02  0.7816164E-02  0.1312668E+00
        -11   -1    0    0    0    0  0.00000000000E+00  0.00000000000E+00  0.45593999997E+02  0.45594000000E+02  0.51100000000E-03 0.  1.
         11   -1    0    0    0    0 -0.00000000000E+00 -0.00000000000E+00 -0.45593999997E+02  0.45594000000E+02  0.51100000000E-03 0. -1.
    9900012    2    1    2    0    0 -0.30169171762E+02  0.82966743418E+01 -0.30076728122E+02  0.47787270692E+02  0.19999998395E+02 0.  0.
        -12    1    1    2    0    0  0.30169171762E+02 -0.82966743418E+01  0.30076728122E+02  0.43400729308E+02  0.00000000000E+00 0.  1.
         11    1    3    3    0    0 -0.43040467403E+01 -0.46698702024E+01 -0.41290107289E+01  0.75750403240E+01  0.51100000000E-03 0. -1.
        -11    1    3    3    0    0 -0.29978460354E+01  0.57958951824E+01 -0.36427370876E+01  0.74732198929E+01  0.51100000000E-03 0.  1.
         12    1    3    3    0    0 -0.22867278986E+02  0.71706493619E+01 -0.22304980305E+02  0.32739010475E+02  0.00000000000E+00 0. -1.
</event>
<event>
 7    1  0.1427898E-010  0.4778727E+02  0.7816164E-02  0.1312668E+00
        -11   -1    0    0    0    0  0.00000000000E+00  0.00000000000E+00  0.45593999997E+02  0.45594000000E+02  0.51100000000E-03 0. -1.
         11   -1    0    0    0    0 -0.00000000000E+00 -0.00000000000E+00 -0.45593999997E+02  0.45594000000E+02  0.51100000000E-03 0.  1.
    9900012    2    1    2    0    0 -0.37568613634E+01 -0.36906158884E+02 -0.22526537914E+02  0.47787268655E+02  0.19999989105E+02 0.  0.
        -12    1    1    2    0    0  0.37568613634E+01  0.36906158884E+02  0.22526537914E+02  0.43400731345E+02  0.00000000000E+00 0.  1.
         11    1    3    3    0    0 -0.24005773294E+00 -0.14785875105E+01 -0.74396814979E+01  0.75889860847E+01  0.51100000000E-03 0. -1.
        -11    1    3    3    0    0 -0.12461909490E+01 -0.14451117519E+01 -0.39137261640E+01  0.43541465989E+01  0.51100000000E-03 0.  1.
         12    1    3    3    0    0 -0.22706126815E+01 -0.33982459622E+02 -0.11173130252E+02  0.35844135971E+02  0.00000000000E+00 0. -1.
</event>
<event>
 7    1  0.1427898E-010  0.4778727E+02  0.7816164E-02  0.1312668E+00
        -11   -1    0    0    0    0  0.00000000000E+00  0.00000000000E+00  0.45593999997E+02  0.45594000000E+02  0.51100000000E-03 0. -1.
         11   -1    0    0    0    0 -0.00000000000E+00 -0.00000000000E+00 -0.45593999997E+02  0.45594000000E+02  0.51100000000E-03 0.  1.
    9900012    2    1    2    0    0 -0.11392398920E+02  0.29843408083E+02  0.29380394421E+02  0.47787270335E+02  0.19999996766E+02 0.  0.
        -12    1    1    2    0    0  0.11392398920E+02 -0.29843408083E+02 -0.29380394421E+02  0.43400729665E+02  0.00000000000E+00 0.  1.
         11    1    3    3    0    0 -0.13509151799E+01  0.13474681695E+02  0.14346792045E+02  0.19728721724E+02  0.51100000000E-03 0. -1.
        -11    1    3    3    0    0  0.15027816930E+01 -0.15033597258E+01  0.28014182169E+01  0.35165874891E+01  0.51100000000E-03 0.  1.
         12    1    3    3    0    0 -0.11544265433E+02  0.17872086113E+02  0.12232184158E+02  0.24541961122E+02  0.00000000000E+00 0. -1.
</event>
<event>
 7    1  0.1427898E-010  0.4778728E+02  0.7816164E-02  0.1312668E+00
        -11   -1    0    0    0    0  0.00000000000E+00  0.00000000000E+00  0.45593999997E+02  0.45594000000E+02  0.51100000000E-03 0.  1.
         11   -1    0    0    0    0 -0.00000000000E+00 -0.00000000000E+00 -0.45593999997E+02  0.45594000000E+02  0.51100000000E-03 0. -1.
    9900012    2    1    2    0    0 -0.11688222838E+01 -0.37890808510E+02 -0.21131572763E+02  0.47787275553E+02  0.20000020558E+02 0.  0.
        -12    1    1    2    0    0  0.11688222838E+01  0.37890808510E+02  0.21131572763E+02  0.43400724447E+02  0.00000000000E+00 0.  1.
         11    1    3    3    0    0 -0.12544254865E+01 -0.33195346981E+01  0.18595296288E+01  0.40063380555E+01  0.51100000000E-03 0. -1.
        -11    1    3    3    0    0  0.76560760803E+00  0.12016726997E+01 -0.45515220432E+00  0.14957727357E+01  0.51100000000E-03 0.  1.
         12    1    3    3    0    0 -0.68000440535E+00 -0.35772946512E+02 -0.22535950187E+02  0.42285164762E+02  0.00000000000E+00 0. -1.
</event>
<event>
 7    1  0.1427898E-010  0.4778728E+02  0.7816164E-02  0.1312668E+00
        -11   -1    0    0    0    0  0.00000000000E+00  0.00000000000E+00  0.45593999997E+02  0.45594000000E+02  0.51100000000E-03 0.  1.
         11   -1    0    0    0    0 -0.00000000000E+00 -0.00000000000E+00 -0.45593999997E+02  0.45594000000E+02  0.51100000000E-03 0. -1.
    9900012    2    1    2    0    0  0.41173028875E+02 -0.78006572151E+01 -0.11293996294E+02  0.47787275213E+02  0.20000019005E+02 0.  0.
        -12    1    1    2    0    0 -0.41173028875E+02  0.78006572151E+01  0.11293996294E+02  0.43400724787E+02  0.00000000000E+00 0.  1.
         11    1    3    3    0    0  0.27665751439E+01  0.14380743454E+01  0.26227339599E+01  0.40743992852E+01  0.51100000000E-03 0. -1.
        -11    1    3    3    0    0  0.11908644456E+02 -0.85352851015E+01 -0.74103109747E+01  0.16418879790E+02  0.51100000000E-03 0.  1.
         12    1    3    3    0    0  0.26497809276E+02 -0.70344645893E+00 -0.65064192797E+01  0.27293996138E+02  0.00000000000E+00 0. -1.
</event>
<event>
 7    1  0.1427898E-010  0.4778727E+02  0.7816164E-02  0.1312668E+00
        -11   -1    0    0    0    0  0.00000000000E+00  0.00000000000E+00  0.45593999997E+02  0.45594000000E+02  0.51100000000E-03 0.  1.
         11   -1    0    0    0    0 -0.00000000000E+00 -0.00000000000E+00 -0.45593999997E+02  0.45594000000E+02  0.51100000000E-03 0. -1.
    9900012    2    1    2    0    0 -0.18750589364E+02  0.37995526652E+02 -0.94009891613E+01  0.47787271386E+02  0.20000001555E+02 0.  0.
        -12    1    1    2    0    0  0.18750589364E+02 -0.37995526652E+02  0.94009891613E+01  0.43400728614E+02  0.00000000000E+00 0.  1.
         11    1    3    3    0    0 -0.50659462099E+01  0.19802149633E+02 -0.93074453536E+01  0.22459240422E+02  0.51100000000E-03 0. -1.
        -11    1    3    3    0    0 -0.62597006937E+01  0.15727974642E+02  0.24436636226E+01  0.17103348540E+02  0.51100000000E-03 0.  1.
         12    1    3    3    0    0 -0.74249424600E+01  0.24654023769E+01 -0.25372074303E+01  0.82246824230E+01  0.00000000000E+00 0. -1.
</event>
<event>
 7    1  0.1427898E-010  0.4778727E+02  0.7816164E-02  0.1312668E+00
        -11   -1    0    0    0    0  0.00000000000E+00  0.00000000000E+00  0.45593999997E+02  0.45594000000E+02  0.51100000000E-03 0.  1.
         11   -1    0    0    0    0 -0.00000000000E+00 -0.00000000000E+00 -0.45593999997E+02  0.45594000000E+02  0.51100000000E-03 0. -1.
    9900012    2    1    2    0    0  0.18591231009E+02 -0.39128978676E+02  0.26291631600E+01  0.47787270265E+02  0.19999996446E+02 0.  0.
        -12    1    1    2    0    0 -0.18591231009E+02  0.39128978676E+02 -0.26291631600E+01  0.43400729735E+02  0.00000000000E+00 0.  1.
         11    1    3    3    0    0  0.25760112399E+01 -0.17448180727E+02 -0.40405331843E+01  0.18094218780E+02  0.51100000000E-03 0. -1.
        -11    1    3    3    0    0  0.10814917113E+02 -0.21086206839E+02  0.53220390630E+01  0.24288158660E+02  0.51100000000E-03 0.  1.
        -12    1    3    3    0    0  0.52003026564E+01 -0.59459110930E+00  0.13476572813E+01  0.54048928253E+01  0.00000000000E+00 0.  1.
</event>
<event>
 7    1  0.1427898E-010  0.4778725E+02  0.7816164E-02  0.1312668E+00
        -11   -1    0    0    0    0  0.00000000000E+00  0.00000000000E+00  0.45593999997E+02  0.45594000000E+02  0.51100000000E-03 0.  1.
         11   -1    0    0    0    0 -0.00000000000E+00 -0.00000000000E+00 -0.45593999997E+02  0.45594000000E+02  0.51100000000E-03 0. -1.
    9900012    2    1    2    0    0 -0.19528476168E+02 -0.29925215558E+02 -0.24632203551E+02  0.47787247018E+02  0.19999890454E+02 0.  0.
        -12    1    1    2    0    0  0.19528476168E+02  0.29925215558E+02  0.24632203551E+02  0.43400752982E+02  0.00000000000E+00 0.  1.
         11    1    3    3    0    0 -0.98747624242E+00  0.11609151949E+01 -0.35710928131E+01  0.38827229569E+01  0.51100000000E-03 0. -1.
        -11    1    3    3    0    0 -0.31893020060E+01 -0.18206361689E+02 -0.99864965925E+01  0.21008887826E+02  0.51100000000E-03 0.  1.
         12    1    3    3    0    0 -0.15351697920E+02 -0.12879769064E+02 -0.11074614145E+02  0.22895636235E+02  0.00000000000E+00 0. -1.
</event>
<event>
 7    1  0.1427898E-010  0.4778727E+02  0.7816164E-02  0.1312668E+00
        -11   -1    0    0    0    0  0.00000000000E+00  0.00000000000E+00  0.45593999997E+02  0.45594000000E+02  0.51100000000E-03 0. -1.
         11   -1    0    0    0    0 -0.00000000000E+00 -0.00000000000E+00 -0.45593999997E+02  0.45594000000E+02  0.51100000000E-03 0.  1.
    9900012    2    1    2    0    0  0.78458662063E+01  0.21943901165E+02  0.36613258164E+02  0.47787273183E+02  0.20000009750E+02 0.  0.
        -12    1    1    2    0    0 -0.78458662063E+01 -0.21943901165E+02 -0.36613258164E+02  0.43400726817E+02  0.00000000000E+00 0.  1.
         11    1    3    3    0    0 -0.10181681708E+01  0.29733919349E+01  0.17028563532E+02  0.17316168810E+02  0.51100000000E-03 0. -1.
        -11    1    3    3    0    0  0.13688503046E+01  0.39319448582E+01 -0.60158159867E+00  0.42066426286E+01  0.51100000000E-03 0.  1.
        -12    1    3    3    0    0  0.74951840726E+01  0.15038564372E+02  0.20186276230E+02  0.26264461744E+02  0.00000000000E+00 0.  1.
</event>
<event>
 7    1  0.1427898E-010  0.4778727E+02  0.7816164E-02  0.1312668E+00
        -11   -1    0    0    0    0  0.00000000000E+00  0.00000000000E+00  0.45593999997E+02  0.45594000000E+02  0.51100000000E-03 0.  1.
         11   -1    0    0    0    0 -0.00000000000E+00 -0.00000000000E+00 -0.45593999997E+02  0.45594000000E+02  0.51100000000E-03 0. -1.
    9900012    2    1    2    0    0 -0.15894246794E+02 -0.35687382724E+02 -0.18905217653E+02  0.47787267041E+02  0.19999981748E+02 0.  0.
        -12    1    1    2    0    0  0.15894246794E+02  0.35687382724E+02  0.18905217653E+02  0.43400732959E+02  0.00000000000E+00 0.  1.
         11    1    3    3    0    0 -0.14140976868E+01 -0.16469208983E+02 -0.87323835555E+01  0.18694625955E+02  0.51100000000E-03 0. -1.
        -11    1    3    3    0    0 -0.33730012748E+01  0.45820871791E+00  0.14307060802E+01  0.36924264350E+01  0.51100000000E-03 0.  1.
         12    1    3    3    0    0 -0.11107147832E+02 -0.19676382460E+02 -0.11603540178E+02  0.25400214651E+02  0.00000000000E+00 0. -1.
</event>
<event>
 7    1  0.1427898E-010  0.4778727E+02  0.7816164E-02  0.1312668E+00
        -11   -1    0    0    0    0  0.00000000000E+00  0.00000000000E+00  0.45593999997E+02  0.45594000000E+02  0.51100000000E-03 0.  1.
         11   -1    0    0    0    0 -0.00000000000E+00 -0.00000000000E+00 -0.45593999997E+02  0.45594000000E+02  0.51100000000E-03 0. -1.
    9900012    2    1    2    0    0  0.25296638544E+02 -0.51118192403E+01 -0.34893739374E+02  0.47787266538E+02  0.19999979453E+02 0.  0.
        -12    1    1    2    0    0 -0.25296638544E+02  0.51118192403E+01  0.34893739374E+02  0.43400733462E+02  0.00000000000E+00 0.  1.
         11    1    3    3    0    0  0.51045280050E+01  0.13526131383E+00 -0.14029033492E+02  0.14929443485E+02  0.51100000000E-03 0. -1.
        -11    1    3    3    0    0  0.82085933853E+01  0.27353200347E+01 -0.14987683397E+02  0.17305884402E+02  0.51100000000E-03 0.  1.
        -12    1    3    3    0    0  0.11983517154E+02 -0.79824005889E+01 -0.58770224847E+01  0.15551938651E+02  0.00000000000E+00 0.  1.
</event>
<event>
 7    1  0.1427898E-010  0.4778727E+02  0.7816164E-02  0.1312668E+00
        -11   -1    0    0    0    0  0.00000000000E+00  0.00000000000E+00  0.45593999997E+02  0.45594000000E+02  0.51100000000E-03 0. -1.
         11   -1    0    0    0    0 -0.00000000000E+00 -0.00000000000E+00 -0.45593999997E+02  0.45594000000E+02  0.51100000000E-03 0.  1.
    9900012    2    1    2    0    0  0.22169899923E+02  0.29209843954E+02  0.23214303102E+02  0.47787270571E+02  0.19999997842E+02 0.  0.
        -12    1    1    2    0    0 -0.22169899923E+02 -0.29209843954E+02 -0.23214303102E+02  0.43400729429E+02  0.00000000000E+00 0.  1.
         11    1    3    3    0    0  0.11954966726E+02  0.22045706978E+02  0.19000457560E+02  0.31463499699E+02  0.51100000000E-03 0. -1.
        -11    1    3    3    0    0  0.32011518571E+01  0.69371989901E+01 -0.82508980333E+00  0.76845869430E+01  0.51100000000E-03 0.  1.
        -12    1    3    3    0    0  0.70137813401E+01  0.22693798604E+00  0.50389353457E+01  0.86391839288E+01  0.00000000000E+00 0.  1.
</event>
<event>
 7    1  0.1427898E-010  0.4778727E+02  0.7816164E-02  0.1312668E+00
        -11   -1    0    0    0    0  0.00000000000E+00  0.00000000000E+00  0.45593999997E+02  0.45594000000E+02  0.51100000000E-03 0. -1.
         11   -1    0    0    0    0 -0.00000000000E+00 -0.00000000000E+00 -0.45593999997E+02  0.45594000000E+02  0.51100000000E-03 0.  1.
    9900012    2    1    2    0    0  0.33559987869E+02 -0.24697017102E+02  0.12141182781E+02  0.47787265457E+02  0.19999974526E+02 0.  0.
        -12    1    1    2    0    0 -0.33559987869E+02  0.24697017102E+02 -0.12141182781E+02  0.43400734543E+02  0.00000000000E+00 0.  1.
         11    1    3    3    0    0  0.11669654963E+02 -0.43070643187E+01  0.97055096165E+01  0.15777470240E+02  0.51100000000E-03 0. -1.
        -11    1    3    3    0    0  0.11331150535E+02 -0.39955010794E+01 -0.15240018469E+01  0.12111217248E+02  0.51100000000E-03 0.  1.
         12    1    3    3    0    0  0.10559182371E+02 -0.16394451704E+02  0.39596750112E+01  0.19898577970E+02  0.00000000000E+00 0. -1.
</event>
<event>
 7    1  0.1427898E-010  0.4778727E+02  0.7816164E-02  0.1312668E+00
        -11   -1    0    0    0    0  0.00000000000E+00  0.00000000000E+00  0.45593999997E+02  0.45594000000E+02  0.51100000000E-03 0.  1.
         11   -1    0    0    0    0 -0.00000000000E+00 -0.00000000000E+00 -0.45593999997E+02  0.45594000000E+02  0.51100000000E-03 0. -1.
    9900012    2    1    2    0    0 -0.75118111934E+01  0.41740544114E+02 -0.92153901262E+01  0.47787265611E+02  0.19999975227E+02 0.  0.
        -12    1    1    2    0    0  0.75118111934E+01 -0.41740544114E+02  0.92153901262E+01  0.43400734389E+02  0.00000000000E+00 0.  1.
         11    1    3    3    0    0 -0.21380137486E+01  0.27278929606E+02 -0.96178251989E+01  0.29003683647E+02  0.51100000000E-03 0. -1.
        -11    1    3    3    0    0  0.29174467002E+01  0.64087525649E+01  0.14105201140E+01  0.71814463682E+01  0.51100000000E-03 0.  1.
         12    1    3    3    0    0 -0.82912441450E+01  0.80528619427E+01 -0.10080850414E+01  0.11602135596E+02  0.00000000000E+00 0. -1.
</event>
<event>
 7    1  0.1427898E-010  0.4778730E+02  0.7816164E-02  0.1312668E+00
        -11   -1    0    0    0    0  0.00000000000E+00  0.00000000000E+00  0.45593999997E+02  0.45594000000E+02  0.51100000000E-03 0. -1.
         11   -1    0    0    0    0 -0.00000000000E+00 -0.00000000000E+00 -0.45593999997E+02  0.45594000000E+02  0.51100000000E-03 0.  1.
    9900012    2    1    2    0    0 -0.20763255162E+02 -0.26301272111E+02  0.27581719846E+02  0.47787297826E+02  0.20000122105E+02 0.  0.
        -12    1    1    2    0    0  0.20763255162E+02  0.26301272111E+02 -0.27581719846E+02  0.43400702174E+02  0.00000000000E+00 0.  1.
         11    1    3    3    0    0 -0.98202550774E+01 -0.80990020455E+01  0.17402313217E+01  0.12847554212E+02  0.51100000000E-03 0. -1.
        -11    1    3    3    0    0 -0.12536267154E+01  0.10158536745E+01  0.49406732866E+00  0.16874956047E+01  0.51100000000E-03 0.  1.
        -12    1    3    3    0    0 -0.96893733696E+01 -0.19218123740E+02  0.25347421196E+02  0.33252248009E+02  0.00000000000E+00 0.  1.
</event>
<event>
 7    1  0.1427898E-010  0.4778727E+02  0.7816164E-02  0.1312668E+00
        -11   -1    0    0    0    0  0.00000000000E+00  0.00000000000E+00  0.45593999997E+02  0.45594000000E+02  0.51100000000E-03 0.  1.
         11   -1    0    0    0    0 -0.00000000000E+00 -0.00000000000E+00 -0.45593999997E+02  0.45594000000E+02  0.51100000000E-03 0. -1.
    9900012    2    1    2    0    0 -0.13779978675E+02  0.13161043650E+02 -0.38993875770E+02  0.47787271552E+02  0.20000002315E+02 0.  0.
        -12    1    1    2    0    0  0.13779978675E+02 -0.13161043650E+02  0.38993875770E+02  0.43400728448E+02  0.00000000000E+00 0.  1.
         11    1    3    3    0    0 -0.97626257509E+01  0.11014606009E+02 -0.16396238461E+02  0.22033316659E+02  0.51100000000E-03 0.  1.
        -11    1    3    3    0    0 -0.26329854148E+01  0.30171997581E+01 -0.23532076890E+02  0.23870373889E+02  0.51100000000E-03 0. -1.
        -12    1    3    3    0    0 -0.13843675094E+01 -0.87076211707E+00  0.93443958137E+00  0.18835810035E+01  0.00000000000E+00 0.  1.
</event>
<event>
 7    1  0.1427898E-010  0.4778727E+02  0.7816164E-02  0.1312668E+00
        -11   -1    0    0    0    0  0.00000000000E+00  0.00000000000E+00  0.45593999997E+02  0.45594000000E+02  0.51100000000E-03 0.  1.
         11   -1    0    0    0    0 -0.00000000000E+00 -0.00000000000E+00 -0.45593999997E+02  0.45594000000E+02  0.51100000000E-03 0. -1.
    9900012    2    1    2    0    0 -0.78622583774E+01  0.33198796355E+02 -0.26826251559E+02  0.47787274673E+02  0.20000016543E+02 0.  0.
        -12    1    1    2    0    0  0.78622583774E+01 -0.33198796355E+02  0.26826251559E+02  0.43400725327E+02  0.00000000000E+00 0.  1.
         11    1    3    3    0    0  0.27128769216E+01  0.43030949646E+01 -0.36263441944E+01  0.62471353390E+01  0.51100000000E-03 0. -1.
        -11    1    3    3    0    0 -0.86202622076E+01  0.47447165751E+01 -0.39855105905E+01  0.10616287055E+02  0.51100000000E-03 0.  1.
         12    1    3    3    0    0 -0.19548730913E+01  0.24150984816E+02 -0.19214396774E+02  0.30923852279E+02  0.00000000000E+00 0. -1.
</event>
<event>
 7    1  0.1427898E-010  0.4778727E+02  0.7816164E-02  0.1312668E+00
        -11   -1    0    0    0    0  0.00000000000E+00  0.00000000000E+00  0.45593999997E+02  0.45594000000E+02  0.51100000000E-03 0.  1.
         11   -1    0    0    0    0 -0.00000000000E+00 -0.00000000000E+00 -0.45593999997E+02  0.45594000000E+02  0.51100000000E-03 0. -1.
    9900012    2    1    2    0    0  0.20127070978E+02  0.62175080856E+01 -0.37945582561E+02  0.47787266955E+02  0.19999981353E+02 0.  0.
        -12    1    1    2    0    0 -0.20127070978E+02 -0.62175080856E+01  0.37945582561E+02  0.43400733045E+02  0.00000000000E+00 0.  1.
         11    1    3    3    0    0  0.11761181161E+01 -0.28572025830E+01 -0.85629735295E+01  0.91033717023E+01  0.51100000000E-03 0. -1.
        -11    1    3    3    0    0  0.16771754599E+02  0.37149898833E+01 -0.13713608158E+02  0.21980808701E+02  0.51100000000E-03 0.  1.
         12    1    3    3    0    0  0.21791982630E+01  0.53597207853E+01 -0.15669000873E+02  0.16703086551E+02  0.00000000000E+00 0. -1.
</event>
<event>
 7    1  0.1427898E-010  0.4778728E+02  0.7816164E-02  0.1312668E+00
        -11   -1    0    0    0    0  0.00000000000E+00  0.00000000000E+00  0.45593999997E+02  0.45594000000E+02  0.51100000000E-03 0. -1.
         11   -1    0    0    0    0 -0.00000000000E+00 -0.00000000000E+00 -0.45593999997E+02  0.45594000000E+02  0.51100000000E-03 0.  1.
    9900012    2    1    2    0    0 -0.41115772558E+02  0.13817199301E+02  0.14835398448E+01  0.47787278347E+02  0.20000033295E+02 0.  0.
        -12    1    1    2    0    0  0.41115772558E+02 -0.13817199301E+02 -0.14835398448E+01  0.43400721653E+02  0.00000000000E+00 0.  1.
         11    1    3    3    0    0 -0.17660640186E+02  0.85337687209E+01 -0.14947259756E+01  0.19671238557E+02  0.51100000000E-03 0. -1.
        -11    1    3    3    0    0 -0.18413021633E+02  0.77203592212E+01  0.70694638542E+01  0.21180666458E+02  0.51100000000E-03 0.  1.
         12    1    3    3    0    0 -0.50421107384E+01 -0.24369286408E+01 -0.40911980338E+01  0.69353733317E+01  0.00000000000E+00 0. -1.
</event>
<event>
 7    1  0.1427898E-010  0.4778727E+02  0.7816164E-02  0.1312668E+00
        -11   -1    0    0    0    0  0.00000000000E+00  0.00000000000E+00  0.45593999997E+02  0.45594000000E+02  0.51100000000E-03 0.  1.
         11   -1    0    0    0    0 -0.00000000000E+00 -0.00000000000E+00 -0.45593999997E+02  0.45594000000E+02  0.51100000000E-03 0. -1.
    9900012    2    1    2    0    0  0.38604390400E+02 -0.12829520993E+02 -0.15123752465E+02  0.47787268950E+02  0.19999990451E+02 0.  0.
        -12    1    1    2    0    0 -0.38604390400E+02  0.12829520993E+02  0.15123752465E+02  0.43400731050E+02  0.00000000000E+00 0.  1.
         11    1    3    3    0    0  0.58530450642E+01 -0.78201249084E+00 -0.55322851849E+01  0.80917154972E+01  0.51100000000E-03 0. -1.
        -11    1    3    3    0    0  0.20049961630E+02 -0.40272439886E+01  0.22417582960E+01  0.20572922399E+02  0.51100000000E-03 0.  1.
        -12    1    3    3    0    0  0.12701383706E+02 -0.80202645132E+01 -0.11833225576E+02  0.19122631054E+02  0.00000000000E+00 0.  1.
</event>
<event>
 7    1  0.1427898E-010  0.4778727E+02  0.7816164E-02  0.1312668E+00
        -11   -1    0    0    0    0  0.00000000000E+00  0.00000000000E+00  0.45593999997E+02  0.45594000000E+02  0.51100000000E-03 0.  1.
         11   -1    0    0    0    0 -0.00000000000E+00 -0.00000000000E+00 -0.45593999997E+02  0.45594000000E+02  0.51100000000E-03 0. -1.
    9900012    2    1    2    0    0  0.20660514675E+02 -0.37382920270E+02  0.76996054295E+01  0.47787268228E+02  0.19999987160E+02 0.  0.
        -12    1    1    2    0    0 -0.20660514675E+02  0.37382920270E+02 -0.76996054295E+01  0.43400731772E+02  0.00000000000E+00 0.  1.
         11    1    3    3    0    0 -0.24686773823E+01 -0.95182469041E+00  0.45269279800E+00  0.26842632675E+01  0.51100000000E-03 0.  1.
        -11    1    3    3    0    0  0.16210183606E+02 -0.19974099665E+02 -0.28768503175E+00  0.25725813357E+02  0.51100000000E-03 0. -1.
         12    1    3    3    0    0  0.69190084511E+01 -0.16456995915E+02  0.75345976632E+01  0.19377191603E+02  0.00000000000E+00 0. -1.
</event>
<event>
 7    1  0.1427898E-010  0.4778727E+02  0.7816164E-02  0.1312668E+00
        -11   -1    0    0    0    0  0.00000000000E+00  0.00000000000E+00  0.45593999997E+02  0.45594000000E+02  0.51100000000E-03 0.  1.
         11   -1    0    0    0    0 -0.00000000000E+00 -0.00000000000E+00 -0.45593999997E+02  0.45594000000E+02  0.51100000000E-03 0. -1.
    9900012    2    1    2    0    0  0.30818847702E+02  0.10188189689E+02 -0.28810112058E+02  0.47787272592E+02  0.20000007054E+02 0.  0.
        -12    1    1    2    0    0 -0.30818847702E+02 -0.10188189689E+02  0.28810112058E+02  0.43400727408E+02  0.00000000000E+00 0.  1.
         11    1    3    3    0    0  0.26792804454E+02  0.73532971980E+01 -0.20959372344E+02  0.34802595298E+02  0.51100000000E-03 0. -1.
        -11    1    3    3    0    0  0.30938565947E+01  0.29905790058E+00  0.13549131304E+01  0.33907483110E+01  0.51100000000E-03 0.  1.
        -12    1    3    3    0    0  0.93218665331E+00  0.25358345900E+01 -0.92056528448E+01  0.95939289826E+01  0.00000000000E+00 0.  1.
</event>
<event>
 7    1  0.1427898E-010  0.4778727E+02  0.7816164E-02  0.1312668E+00
        -11   -1    0    0    0    0  0.00000000000E+00  0.00000000000E+00  0.45593999997E+02  0.45594000000E+02  0.51100000000E-03 0.  1.
         11   -1    0    0    0    0 -0.00000000000E+00 -0.00000000000E+00 -0.45593999997E+02  0.45594000000E+02  0.51100000000E-03 0. -1.
    9900012    2    1    2    0    0 -0.30485252831E+01  0.57426218367E+01 -0.42910977188E+02  0.47787272181E+02  0.20000005182E+02 0.  0.
        -12    1    1    2    0    0  0.30485252831E+01 -0.57426218367E+01  0.42910977188E+02  0.43400727819E+02  0.00000000000E+00 0.  1.
         11    1    3    3    0    0 -0.32383688552E+01  0.30146127177E+01 -0.38247916368E+01  0.58484146575E+01  0.51100000000E-03 0. -1.
        -11    1    3    3    0    0 -0.33718080067E+01  0.12937099467E+01 -0.11230767895E+01  0.37820730289E+01  0.51100000000E-03 0.  1.
         12    1    3    3    0    0  0.35616515787E+01  0.14342991723E+01 -0.37963108762E+02  0.38156784495E+02  0.00000000000E+00 0. -1.
</event>
<event>
 7    1  0.1427898E-010  0.4778727E+02  0.7816164E-02  0.1312668E+00
        -11   -1    0    0    0    0  0.00000000000E+00  0.00000000000E+00  0.45593999997E+02  0.45594000000E+02  0.51100000000E-03 0.  1.
         11   -1    0    0    0    0 -0.00000000000E+00 -0.00000000000E+00 -0.45593999997E+02  0.45594000000E+02  0.51100000000E-03 0. -1.
    9900012    2    1    2    0    0  0.41418194597E+02 -0.12369314755E+02 -0.38930973281E+01  0.47787274223E+02  0.20000014492E+02 0.  0.
        -12    1    1    2    0    0 -0.41418194597E+02  0.12369314755E+02  0.38930973281E+01  0.43400725777E+02  0.00000000000E+00 0.  1.
         11    1    3    3    0    0  0.15593988175E+02 -0.12711059374E+02 -0.64885631398E+01  0.21138707375E+02  0.51100000000E-03 0.  1.
        -11    1    3    3    0    0  0.12352515954E+02 -0.19377306316E+01  0.34127903469E+01  0.12960964030E+02  0.51100000000E-03 0. -1.
        -12    1    3    3    0    0  0.13471690468E+02  0.22794752510E+01 -0.81732453519E+00  0.13687602818E+02  0.00000000000E+00 0.  1.
</event>
<event>
 7    1  0.1427898E-010  0.4778727E+02  0.7816164E-02  0.1312668E+00
        -11   -1    0    0    0    0  0.00000000000E+00  0.00000000000E+00  0.45593999997E+02  0.45594000000E+02  0.51100000000E-03 0.  1.
         11   -1    0    0    0    0 -0.00000000000E+00 -0.00000000000E+00 -0.45593999997E+02  0.45594000000E+02  0.51100000000E-03 0. -1.
    9900012    2    1    2    0    0 -0.14711255217E+02  0.30850281463E+02 -0.26748129609E+02  0.47787270352E+02  0.19999996844E+02 0.  0.
        -12    1    1    2    0    0  0.14711255217E+02 -0.30850281463E+02  0.26748129609E+02  0.43400729648E+02  0.00000000000E+00 0.  1.
         11    1    3    3    0    0 -0.72315980711E+01  0.90224923384E+01  0.10674365086E+01  0.11612097124E+02  0.51100000000E-03 0. -1.
        -11    1    3    3    0    0 -0.10862008766E+01  0.32071108005E+01 -0.50124560159E+01  0.60489757483E+01  0.51100000000E-03 0.  1.
         12    1    3    3    0    0 -0.63934562694E+01  0.18620678324E+02 -0.22803110101E+02  0.30126197480E+02  0.00000000000E+00 0. -1.
</event>
<event>
 7    1  0.1427898E-010  0.4778727E+02  0.7816164E-02  0.1312668E+00
        -11   -1    0    0    0    0  0.00000000000E+00  0.00000000000E+00  0.45593999997E+02  0.45594000000E+02  0.51100000000E-03 0.  1.
         11   -1    0    0    0    0 -0.00000000000E+00 -0.00000000000E+00 -0.45593999997E+02  0.45594000000E+02  0.51100000000E-03 0. -1.
    9900012    2    1    2    0    0  0.26064408292E+02  0.34701350588E+02  0.29323160098E+00  0.47787273082E+02  0.20000009291E+02 0.  0.
        -12    1    1    2    0    0 -0.26064408292E+02 -0.34701350588E+02 -0.29323160098E+00  0.43400726918E+02  0.00000000000E+00 0.  1.
         11    1    3    3    0    0  0.17639086142E+02  0.15070561697E+02 -0.47010336093E+01  0.23671901213E+02  0.51100000000E-03 0. -1.
        -11    1    3    3    0    0  0.94362927098E+01  0.20199701509E+02  0.41436863969E+01  0.22676897900E+02  0.51100000000E-03 0.  1.
        -12    1    3    3    0    0 -0.10109705595E+01 -0.56891261896E+00  0.85057881343E+00  0.14384739685E+01  0.00000000000E+00 0.  1.
</event>
<event>
 7    1  0.1427898E-010  0.4778727E+02  0.7816164E-02  0.1312668E+00
        -11   -1    0    0    0    0  0.00000000000E+00  0.00000000000E+00  0.45593999997E+02  0.45594000000E+02  0.51100000000E-03 0. -1.
         11   -1    0    0    0    0 -0.00000000000E+00 -0.00000000000E+00 -0.45593999997E+02  0.45594000000E+02  0.51100000000E-03 0.  1.
    9900012    2    1    2    0    0 -0.35144541242E+01  0.11895406657E+02  0.41590517560E+02  0.47787271455E+02  0.20000001873E+02 0.  0.
        -12    1    1    2    0    0  0.35144541242E+01 -0.11895406657E+02 -0.41590517560E+02  0.43400728545E+02  0.00000000000E+00 0.  1.
         11    1    3    3    0    0 -0.32565385567E+01  0.17213001350E+01  0.74781261501E+01  0.83360835232E+01  0.51100000000E-03 0. -1.
        -11    1    3    3    0    0 -0.14883216579E+01  0.15779071634E+01 -0.16018112525E+01  0.26964220596E+01  0.51100000000E-03 0.  1.
         12    1    3    3    0    0  0.12304060905E+01  0.85961993589E+01  0.35714202662E+02  0.36754765873E+02  0.00000000000E+00 0. -1.
</event>
<event>
 7    1  0.1427898E-010  0.4778728E+02  0.7816164E-02  0.1312668E+00
        -11   -1    0    0    0    0  0.00000000000E+00  0.00000000000E+00  0.45593999997E+02  0.45594000000E+02  0.51100000000E-03 0.  1.
         11   -1    0    0    0    0 -0.00000000000E+00 -0.00000000000E+00 -0.45593999997E+02  0.45594000000E+02  0.51100000000E-03 0. -1.
    9900012    2    1    2    0    0 -0.17675777784E+02 -0.76233242121E+01 -0.38898260373E+02  0.47787275900E+02  0.20000022139E+02 0.  0.
        -12    1    1    2    0    0  0.17675777784E+02  0.76233242121E+01  0.38898260373E+02  0.43400724100E+02  0.00000000000E+00 0.  1.
         11    1    3    3    0    0 -0.31849272862E+01 -0.32574823689E+01 -0.20650181764E+01  0.50019249827E+01  0.51100000000E-03 0.  1.
        -11    1    3    3    0    0 -0.13777822788E+01 -0.19533866589E+01 -0.24520150853E+02  0.24636391813E+02  0.51100000000E-03 0. -1.
        -12    1    3    3    0    0 -0.13113068219E+02 -0.24124551842E+01 -0.12313091344E+02  0.18148959104E+02  0.00000000000E+00 0.  1.
</event>
<event>
 7    1  0.1427898E-010  0.4778727E+02  0.7816164E-02  0.1312668E+00
        -11   -1    0    0    0    0  0.00000000000E+00  0.00000000000E+00  0.45593999997E+02  0.45594000000E+02  0.51100000000E-03 0.  1.
         11   -1    0    0    0    0 -0.00000000000E+00 -0.00000000000E+00 -0.45593999997E+02  0.45594000000E+02  0.51100000000E-03 0. -1.
    9900012    2    1    2    0    0 -0.27799476607E+02  0.25318738809E+02 -0.21674266868E+02  0.47787270988E+02  0.19999999743E+02 0.  0.
        -12    1    1    2    0    0  0.27799476607E+02 -0.25318738809E+02  0.21674266868E+02  0.43400729012E+02  0.00000000000E+00 0.  1.
         11    1    3    3    0    0 -0.83960573156E+01 -0.89587352141E+00  0.35745907705E-01  0.84437933326E+01  0.51100000000E-03 0.  1.
        -11    1    3    3    0    0 -0.87781863529E+01  0.89789309968E+01 -0.79221245415E+01  0.14847148379E+02  0.51100000000E-03 0. -1.
        -12    1    3    3    0    0 -0.10625232938E+02  0.17235681334E+02 -0.13787888234E+02  0.24496329276E+02  0.00000000000E+00 0.  1.
</event>
<event>
 7    1  0.1427898E-010  0.4778727E+02  0.7816164E-02  0.1312668E+00
        -11   -1    0    0    0    0  0.00000000000E+00  0.00000000000E+00  0.45593999997E+02  0.45594000000E+02  0.51100000000E-03 0.  1.
         11   -1    0    0    0    0 -0.00000000000E+00 -0.00000000000E+00 -0.45593999997E+02  0.45594000000E+02  0.51100000000E-03 0. -1.
    9900012    2    1    2    0    0  0.93841331284E+01  0.42349964356E+02  0.14289430082E+01  0.47787270587E+02  0.19999997912E+02 0.  0.
        -12    1    1    2    0    0 -0.93841331284E+01 -0.42349964356E+02 -0.14289430082E+01  0.43400729413E+02  0.00000000000E+00 0.  1.
         11    1    3    3    0    0 -0.89427855806E+00  0.15144927172E+02  0.17846791594E+01  0.15275916770E+02  0.51100000000E-03 0. -1.
        -11    1    3    3    0    0  0.15820064861E+01  0.23115823982E+00 -0.36448020553E+01  0.39800453436E+01  0.51100000000E-03 0.  1.
         12    1    3    3    0    0  0.86964052004E+01  0.26973878944E+02  0.32890659041E+01  0.28531308473E+02  0.00000000000E+00 0. -1.
</event>
<event>
 7    1  0.1427898E-010  0.4778728E+02  0.7816164E-02  0.1312668E+00
        -11   -1    0    0    0    0  0.00000000000E+00  0.00000000000E+00  0.45593999997E+02  0.45594000000E+02  0.51100000000E-03 0.  1.
         11   -1    0    0    0    0 -0.00000000000E+00 -0.00000000000E+00 -0.45593999997E+02  0.45594000000E+02  0.51100000000E-03 0. -1.
    9900012    2    1    2    0    0 -0.22931031996E+02  0.11373403576E+02 -0.35049049629E+02  0.47787280913E+02  0.20000044996E+02 0.  0.
        -12    1    1    2    0    0  0.22931031996E+02 -0.11373403576E+02  0.35049049629E+02  0.43400719087E+02  0.00000000000E+00 0.  1.
         11    1    3    3    0    0 -0.17037018867E+02  0.69721690458E+01 -0.33779652876E+02  0.38469937636E+02  0.51100000000E-03 0. -1.
        -11    1    3    3    0    0 -0.60922983390E+01  0.32396861818E+01 -0.27475168107E+01  0.74270124878E+01  0.51100000000E-03 0.  1.
         12    1    3    3    0    0  0.19828520926E+00  0.11615483484E+01  0.14781200570E+01  0.18903307892E+01  0.00000000000E+00 0. -1.
</event>
<event>
 7    1  0.1427898E-010  0.4778727E+02  0.7816164E-02  0.1312668E+00
        -11   -1    0    0    0    0  0.00000000000E+00  0.00000000000E+00  0.45593999997E+02  0.45594000000E+02  0.51100000000E-03 0. -1.
         11   -1    0    0    0    0 -0.00000000000E+00 -0.00000000000E+00 -0.45593999997E+02  0.45594000000E+02  0.51100000000E-03 0.  1.
    9900012    2    1    2    0    0  0.32986072769E+02 -0.59468962704E+01  0.27571307660E+02  0.47787267540E+02  0.19999984023E+02 0.  0.
        -12    1    1    2    0    0 -0.32986072769E+02  0.59468962704E+01 -0.27571307660E+02  0.43400732460E+02  0.00000000000E+00 0.  1.
         11    1    3    3    0    0  0.20239769358E+02 -0.79072745909E+01  0.20409730892E+02  0.29811581147E+02  0.51100000000E-03 0.  1.
        -11    1    3    3    0    0  0.12531235747E+02  0.39276224818E+01  0.84483643988E+01  0.15615151264E+02  0.51100000000E-03 0. -1.
        -12    1    3    3    0    0  0.21506766366E+00 -0.19672441613E+01 -0.12867876311E+01  0.23605351296E+01  0.00000000000E+00 0.  1.
</event>
<event>
 7    1  0.1427898E-010  0.4778727E+02  0.7816164E-02  0.1312668E+00
        -11   -1    0    0    0    0  0.00000000000E+00  0.00000000000E+00  0.45593999997E+02  0.45594000000E+02  0.51100000000E-03 0.  1.
         11   -1    0    0    0    0 -0.00000000000E+00 -0.00000000000E+00 -0.45593999997E+02  0.45594000000E+02  0.51100000000E-03 0. -1.
    9900012    2    1    2    0    0  0.58338292257E+01 -0.42153632696E+02 -0.85241331942E+01  0.47787272361E+02  0.20000006001E+02 0.  0.
        -12    1    1    2    0    0 -0.58338292257E+01  0.42153632696E+02  0.85241331942E+01  0.43400727639E+02  0.00000000000E+00 0.  1.
         11    1    3    3    0    0  0.49323293371E+01 -0.12817797051E+02 -0.10039913450E+02  0.17012455916E+02  0.51100000000E-03 0. -1.
        -11    1    3    3    0    0 -0.29625330275E+01 -0.36771860097E+01  0.97223768482E+00  0.48211560093E+01  0.51100000000E-03 0.  1.
        -12    1    3    3    0    0  0.38640329160E+01 -0.25658649636E+02  0.54354257140E+00  0.25953660436E+02  0.00000000000E+00 0.  1.
</event>
<event>
 7    1  0.1427898E-010  0.4778727E+02  0.7816164E-02  0.1312668E+00
        -11   -1    0    0    0    0  0.00000000000E+00  0.00000000000E+00  0.45593999997E+02  0.45594000000E+02  0.51100000000E-03 0.  1.
         11   -1    0    0    0    0 -0.00000000000E+00 -0.00000000000E+00 -0.45593999997E+02  0.45594000000E+02  0.51100000000E-03 0. -1.
    9900012    2    1    2    0    0 -0.19037350868E+02 -0.28455050537E+01 -0.38898655057E+02  0.47787274288E+02  0.20000014790E+02 0.  0.
        -12    1    1    2    0    0  0.19037350868E+02  0.28455050537E+01  0.38898655057E+02  0.43400725712E+02  0.00000000000E+00 0.  1.
         11    1    3    3    0    0 -0.69967456716E+01 -0.25233836581E+01 -0.13789580802E+02  0.15667624390E+02  0.51100000000E-03 0. -1.
        -11    1    3    3    0    0 -0.11292873100E+01  0.13850616611E+01  0.20983060452E+01  0.27561883380E+01  0.51100000000E-03 0.  1.
        -12    1    3    3    0    0 -0.10911317886E+02 -0.17071830568E+01 -0.27207380300E+02  0.29363461560E+02  0.00000000000E+00 0.  1.
</event>
<event>
 7    1  0.1427898E-010  0.4778727E+02  0.7816164E-02  0.1312668E+00
        -11   -1    0    0    0    0  0.00000000000E+00  0.00000000000E+00  0.45593999997E+02  0.45594000000E+02  0.51100000000E-03 0.  1.
         11   -1    0    0    0    0 -0.00000000000E+00 -0.00000000000E+00 -0.45593999997E+02  0.45594000000E+02  0.51100000000E-03 0. -1.
    9900012    2    1    2    0    0  0.27288431332E+01 -0.33961080072E+02 -0.26885345288E+02  0.47787270332E+02  0.19999996753E+02 0.  0.
        -12    1    1    2    0    0 -0.27288431332E+01  0.33961080072E+02  0.26885345288E+02  0.43400729668E+02  0.00000000000E+00 0.  1.
         11    1    3    3    0    0  0.70204537364E+01 -0.15157407200E+02 -0.73602719887E+01  0.18253968546E+02  0.51100000000E-03 0. -1.
        -11    1    3    3    0    0 -0.22364133745E+01  0.85282154746E+00 -0.22009046316E+01  0.32515889704E+01  0.51100000000E-03 0.  1.
         12    1    3    3    0    0 -0.20551972287E+01 -0.19656494419E+02 -0.17324168667E+02  0.26281712815E+02  0.00000000000E+00 0. -1.
</event>
<event>
 7    1  0.1427898E-010  0.4778727E+02  0.7816164E-02  0.1312668E+00
        -11   -1    0    0    0    0  0.00000000000E+00  0.00000000000E+00  0.45593999997E+02  0.45594000000E+02  0.51100000000E-03 0.  1.
         11   -1    0    0    0    0 -0.00000000000E+00 -0.00000000000E+00 -0.45593999997E+02  0.45594000000E+02  0.51100000000E-03 0. -1.
    9900012    2    1    2    0    0  0.48254971031E+01  0.23888389480E+02 -0.35912152307E+02  0.47787271233E+02  0.20000000858E+02 0.  0.
        -12    1    1    2    0    0 -0.48254971031E+01 -0.23888389480E+02  0.35912152307E+02  0.43400728767E+02  0.00000000000E+00 0.  1.
         11    1    3    3    0    0 -0.28905326285E+01  0.21452597433E+01 -0.11113017840E+02  0.11681458985E+02  0.51100000000E-03 0. -1.
        -11    1    3    3    0    0  0.69626290412E+01  0.66614652518E+01 -0.40713854397E+01  0.10460855707E+02  0.51100000000E-03 0.  1.
         12    1    3    3    0    0  0.75340069039E+00  0.15081664485E+02 -0.20727749027E+02  0.25644956541E+02  0.00000000000E+00 0. -1.
</event>
<event>
 7    1  0.1427898E-010  0.4778723E+02  0.7816164E-02  0.1312668E+00
        -11   -1    0    0    0    0  0.00000000000E+00  0.00000000000E+00  0.45593999997E+02  0.45594000000E+02  0.51100000000E-03 0. -1.
         11   -1    0    0    0    0 -0.00000000000E+00 -0.00000000000E+00 -0.45593999997E+02  0.45594000000E+02  0.51100000000E-03 0.  1.
    9900012    2    1    2    0    0 -0.16324376258E+02  0.39414792217E+02  0.79759690024E+01  0.47787225961E+02  0.19999794443E+02 0.  0.
        -12    1    1    2    0    0  0.16324376258E+02 -0.39414792217E+02 -0.79759690024E+01  0.43400774039E+02  0.00000000000E+00 0.  1.
         11    1    3    3    0    0 -0.14473212138E+02  0.26944286538E+02  0.13276760988E+02  0.33342777767E+02  0.51100000000E-03 0. -1.
        -11    1    3    3    0    0  0.72004569483E+00  0.48282681861E+00 -0.12716272011E+01  0.15390333132E+01  0.51100000000E-03 0.  1.
         12    1    3    3    0    0 -0.25712098145E+01  0.11987678860E+02 -0.40291647846E+01  0.12905414880E+02  0.00000000000E+00 0. -1.
</event>
<event>
 7    1  0.1427898E-010  0.4778726E+02  0.7816164E-02  0.1312668E+00
        -11   -1    0    0    0    0  0.00000000000E+00  0.00000000000E+00  0.45593999997E+02  0.45594000000E+02  0.51100000000E-03 0.  1.
         11   -1    0    0    0    0 -0.00000000000E+00 -0.00000000000E+00 -0.45593999997E+02  0.45594000000E+02  0.51100000000E-03 0. -1.
    9900012    2    1    2    0    0 -0.24459983909E+02  0.35794925350E+01 -0.35672408004E+02  0.47787259541E+02  0.19999947549E+02 0.  0.
        -12    1    1    2    0    0  0.24459983909E+02 -0.35794925350E+01  0.35672408004E+02  0.43400740459E+02  0.00000000000E+00 0.  1.
         11    1    3    3    0    0 -0.10722915604E+02  0.59915906486E+01 -0.21192978322E+02  0.24495354824E+02  0.51100000000E-03 0. -1.
        -11    1    3    3    0    0 -0.13553209436E+02 -0.42658793943E+01 -0.15613593236E+02  0.21110933353E+02  0.51100000000E-03 0.  1.
        -12    1    3    3    0    0 -0.18385886916E+00  0.18537812807E+01  0.11341635542E+01  0.21809713635E+01  0.00000000000E+00 0.  1.
</event>
<event>
 7    1  0.1427898E-010  0.4778729E+02  0.7816164E-02  0.1312668E+00
        -11   -1    0    0    0    0  0.00000000000E+00  0.00000000000E+00  0.45593999997E+02  0.45594000000E+02  0.51100000000E-03 0.  1.
         11   -1    0    0    0    0 -0.00000000000E+00 -0.00000000000E+00 -0.45593999997E+02  0.45594000000E+02  0.51100000000E-03 0. -1.
    9900012    2    1    2    0    0 -0.10654886093E+02 -0.14729648804E+02 -0.39409800167E+02  0.47787291472E+02  0.20000093135E+02 0.  0.
        -12    1    1    2    0    0  0.10654886093E+02  0.14729648804E+02  0.39409800167E+02  0.43400708528E+02  0.00000000000E+00 0.  1.
         11    1    3    3    0    0 -0.17773558774E+01 -0.80776143658E+01 -0.11291088432E+02  0.13996268289E+02  0.51100000000E-03 0. -1.
        -11    1    3    3    0    0  0.28935667691E+01  0.22659070125E+01 -0.82818306463E+01  0.90606722903E+01  0.51100000000E-03 0.  1.
         12    1    3    3    0    0 -0.11771096985E+02 -0.89179414508E+01 -0.19836881089E+02  0.24730350893E+02  0.00000000000E+00 0. -1.
</event>
<event>
 7    1  0.1427898E-010  0.4778727E+02  0.7816164E-02  0.1312668E+00
        -11   -1    0    0    0    0  0.00000000000E+00  0.00000000000E+00  0.45593999997E+02  0.45594000000E+02  0.51100000000E-03 0.  1.
         11   -1    0    0    0    0 -0.00000000000E+00 -0.00000000000E+00 -0.45593999997E+02  0.45594000000E+02  0.51100000000E-03 0. -1.
    9900012    2    1    2    0    0 -0.17076170211E+02 -0.36083158201E+02 -0.17030374142E+02  0.47787267998E+02  0.19999986111E+02 0.  0.
        -12    1    1    2    0    0  0.17076170211E+02  0.36083158201E+02  0.17030374142E+02  0.43400732002E+02  0.00000000000E+00 0.  1.
         11    1    3    3    0    0 -0.61726073182E+01 -0.23318451776E+02 -0.32170898841E+01  0.24335179102E+02  0.51100000000E-03 0. -1.
        -11    1    3    3    0    0 -0.78852988024E+01 -0.49736999172E+01 -0.30139039428E+01  0.97979204583E+01  0.51100000000E-03 0.  1.
        -12    1    3    3    0    0 -0.30182640906E+01 -0.77910065077E+01 -0.10799380316E+02  0.13654168438E+02  0.00000000000E+00 0.  1.
</event>
<event>
 7    1  0.1427898E-010  0.4778728E+02  0.7816164E-02  0.1312668E+00
        -11   -1    0    0    0    0  0.00000000000E+00  0.00000000000E+00  0.45593999997E+02  0.45594000000E+02  0.51100000000E-03 0.  1.
         11   -1    0    0    0    0 -0.00000000000E+00 -0.00000000000E+00 -0.45593999997E+02  0.45594000000E+02  0.51100000000E-03 0. -1.
    9900012    2    1    2    0    0  0.19974891544E+02  0.34708876683E+02 -0.16730808712E+02  0.47787281424E+02  0.20000047323E+02 0.  0.
        -12    1    1    2    0    0 -0.19974891544E+02 -0.34708876683E+02  0.16730808712E+02  0.43400718576E+02  0.00000000000E+00 0.  1.
         11    1    3    3    0    0  0.14282480689E+02  0.24240994204E+02 -0.71830747399E+01  0.29038106302E+02  0.51100000000E-03 0. -1.
        -11    1    3    3    0    0  0.50752322870E+01  0.28555680781E-01 -0.84725898426E+00  0.51455462529E+01  0.51100000000E-03 0.  1.
        -12    1    3    3    0    0  0.61717856871E+00  0.10439326797E+02 -0.87004749882E+01  0.13603628868E+02  0.00000000000E+00 0.  1.
</event>
<event>
 7    1  0.1427898E-010  0.4778726E+02  0.7816164E-02  0.1312668E+00
        -11   -1    0    0    0    0  0.00000000000E+00  0.00000000000E+00  0.45593999997E+02  0.45594000000E+02  0.51100000000E-03 0.  1.
         11   -1    0    0    0    0 -0.00000000000E+00 -0.00000000000E+00 -0.45593999997E+02  0.45594000000E+02  0.51100000000E-03 0. -1.
    9900012    2    1    2    0    0  0.24654795981E+02  0.21845243239E+02 -0.28258630353E+02  0.47787264909E+02  0.19999972026E+02 0.  0.
        -12    1    1    2    0    0 -0.24654795981E+02 -0.21845243239E+02  0.28258630353E+02  0.43400735091E+02  0.00000000000E+00 0.  1.
         11    1    3    3    0    0  0.35038633969E+01 -0.93507421545E+00 -0.73283192947E+01  0.81765326660E+01  0.51100000000E-03 0.  1.
        -11    1    3    3    0    0  0.11279110751E+02  0.17195268221E+02 -0.19205750772E+02  0.28138167167E+02  0.51100000000E-03 0. -1.
         12    1    3    3    0    0  0.98718218334E+01  0.55850492331E+01 -0.17245602858E+01  0.11472565076E+02  0.00000000000E+00 0. -1.
</event>
<event>
 7    1  0.1427898E-010  0.4778729E+02  0.7816164E-02  0.1312668E+00
        -11   -1    0    0    0    0  0.00000000000E+00  0.00000000000E+00  0.45593999997E+02  0.45594000000E+02  0.51100000000E-03 0.  1.
         11   -1    0    0    0    0 -0.00000000000E+00 -0.00000000000E+00 -0.45593999997E+02  0.45594000000E+02  0.51100000000E-03 0. -1.
    9900012    2    1    2    0    0 -0.22160477044E+02  0.36208943654E+02  0.90248161133E+01  0.47787289761E+02  0.20000085336E+02 0.  0.
        -12    1    1    2    0    0  0.22160477044E+02 -0.36208943654E+02 -0.90248161133E+01  0.43400710239E+02  0.00000000000E+00 0.  1.
         11    1    3    3    0    0 -0.20443188494E+01  0.17811044501E+02 -0.10098049453E+01  0.17956398639E+02  0.51100000000E-03 0. -1.
        -11    1    3    3    0    0 -0.44206260120E+01  0.25839393109E+01  0.46316723675E+01  0.69044236458E+01  0.51100000000E-03 0.  1.
         12    1    3    3    0    0 -0.15695532183E+02  0.15813959842E+02  0.54029486911E+01  0.22926467476E+02  0.00000000000E+00 0. -1.
</event>
<event>
 7    1  0.1427898E-010  0.4778727E+02  0.7816164E-02  0.1312668E+00
        -11   -1    0    0    0    0  0.00000000000E+00  0.00000000000E+00  0.45593999997E+02  0.45594000000E+02  0.51100000000E-03 0. -1.
         11   -1    0    0    0    0 -0.00000000000E+00 -0.00000000000E+00 -0.45593999997E+02  0.45594000000E+02  0.51100000000E-03 0.  1.
    9900012    2    1    2    0    0 -0.31842052859E+02  0.18788795738E+02  0.22730767715E+02  0.47787274471E+02  0.20000015622E+02 0.  0.
        -12    1    1    2    0    0  0.31842052859E+02 -0.18788795738E+02 -0.22730767715E+02  0.43400725529E+02  0.00000000000E+00 0.  1.
         11    1    3    3    0    0 -0.61699131491E+01 -0.31267275029E+01  0.12600634408E+01  0.70307903738E+01  0.51100000000E-03 0. -1.
        -11    1    3    3    0    0 -0.80850225737E+01  0.64162772463E+01  0.10993445879E+02  0.15079524405E+02  0.51100000000E-03 0.  1.
         12    1    3    3    0    0 -0.17587117136E+02  0.15499245995E+02  0.10477258395E+02  0.25676959692E+02  0.00000000000E+00 0. -1.
</event>
<event>
 7    1  0.1427898E-010  0.4778727E+02  0.7816164E-02  0.1312668E+00
        -11   -1    0    0    0    0  0.00000000000E+00  0.00000000000E+00  0.45593999997E+02  0.45594000000E+02  0.51100000000E-03 0. -1.
         11   -1    0    0    0    0 -0.00000000000E+00 -0.00000000000E+00 -0.45593999997E+02  0.45594000000E+02  0.51100000000E-03 0.  1.
    9900012    2    1    2    0    0 -0.40015888348E+02 -0.96455327114E+01  0.13759194815E+02  0.47787273468E+02  0.20000011051E+02 0.  0.
        -12    1    1    2    0    0  0.40015888348E+02  0.96455327114E+01 -0.13759194815E+02  0.43400726532E+02  0.00000000000E+00 0.  1.
         11    1    3    3    0    0 -0.15363365493E+02 -0.50507842865E+01  0.48082299679E+01  0.16871944075E+02  0.51100000000E-03 0. -1.
        -11    1    3    3    0    0 -0.92356468449E-01 -0.42849655047E+01  0.39930809303E+01  0.58578284945E+01  0.51100000000E-03 0.  1.
        -12    1    3    3    0    0 -0.24560166386E+02 -0.30978292012E+00  0.49578839166E+01  0.25057500899E+02  0.00000000000E+00 0.  1.
</event>
<event>
 7    1  0.1427898E-010  0.4778727E+02  0.7816164E-02  0.1312668E+00
        -11   -1    0    0    0    0  0.00000000000E+00  0.00000000000E+00  0.45593999997E+02  0.45594000000E+02  0.51100000000E-03 0.  1.
         11   -1    0    0    0    0 -0.00000000000E+00 -0.00000000000E+00 -0.45593999997E+02  0.45594000000E+02  0.51100000000E-03 0. -1.
    9900012    2    1    2    0    0 -0.37741051739E+02 -0.69449261498E+01 -0.20273242526E+02  0.47787270189E+02  0.19999996101E+02 0.  0.
        -12    1    1    2    0    0  0.37741051739E+02  0.69449261498E+01  0.20273242526E+02  0.43400729811E+02  0.00000000000E+00 0.  1.
         11    1    3    3    0    0 -0.13721678739E+02  0.16803955924E+00 -0.60146592287E+01  0.14982951332E+02  0.51100000000E-03 0. -1.
        -11    1    3    3    0    0 -0.71885756685E+01 -0.94550936550E+01 -0.93514156908E+01  0.15116990172E+02  0.51100000000E-03 0.  1.
        -12    1    3    3    0    0 -0.16830797331E+02  0.23421279459E+01 -0.49071676067E+01  0.17687328686E+02  0.00000000000E+00 0.  1.
</event>
<event>
 7    1  0.1427898E-010  0.4778726E+02  0.7816164E-02  0.1312668E+00
        -11   -1    0    0    0    0  0.00000000000E+00  0.00000000000E+00  0.45593999997E+02  0.45594000000E+02  0.51100000000E-03 0.  1.
         11   -1    0    0    0    0 -0.00000000000E+00 -0.00000000000E+00 -0.45593999997E+02  0.45594000000E+02  0.51100000000E-03 0. -1.
    9900012    2    1    2    0    0  0.25197686788E+02 -0.67881655743E+01 -0.34678838445E+02  0.47787257527E+02  0.19999938368E+02 0.  0.
        -12    1    1    2    0    0 -0.25197686788E+02  0.67881655743E+01  0.34678838445E+02  0.43400742473E+02  0.00000000000E+00 0.  1.
         11    1    3    3    0    0  0.53733375002E+01  0.40343429372E+01 -0.12978140221E+02  0.14614403946E+02  0.51100000000E-03 0. -1.
        -11    1    3    3    0    0  0.13931014585E+02 -0.73937438216E+01 -0.21079345921E+02  0.26326401953E+02  0.51100000000E-03 0.  1.
        -12    1    3    3    0    0  0.58933347023E+01 -0.34287646899E+01 -0.62135230304E+00  0.68464516281E+01  0.00000000000E+00 0.  1.
</event>
<event>
 7    1  0.1427898E-010  0.4778727E+02  0.7816164E-02  0.1312668E+00
        -11   -1    0    0    0    0  0.00000000000E+00  0.00000000000E+00  0.45593999997E+02  0.45594000000E+02  0.51100000000E-03 0.  1.
         11   -1    0    0    0    0 -0.00000000000E+00 -0.00000000000E+00 -0.45593999997E+02  0.45594000000E+02  0.51100000000E-03 0. -1.
    9900012    2    1    2    0    0 -0.11817244765E+02  0.17569836667E+02 -0.37885050868E+02  0.47787268283E+02  0.19999987409E+02 0.  0.
        -12    1    1    2    0    0  0.11817244765E+02 -0.17569836667E+02  0.37885050868E+02  0.43400731717E+02  0.00000000000E+00 0.  1.
         11    1    3    3    0    0 -0.13037834774E+02  0.11368600438E+02 -0.26287629332E+02  0.31468550453E+02  0.51100000000E-03 0. -1.
        -11    1    3    3    0    0  0.17469344973E+01 -0.21276621546E+01 -0.48907260164E+01  0.56123014540E+01  0.51100000000E-03 0.  1.
         12    1    3    3    0    0 -0.52634448783E+00  0.83288983837E+01 -0.67066955198E+01  0.10706416375E+02  0.00000000000E+00 0. -1.
</event>
<event>
 7    1  0.1427898E-010  0.4778727E+02  0.7816164E-02  0.1312668E+00
        -11   -1    0    0    0    0  0.00000000000E+00  0.00000000000E+00  0.45593999997E+02  0.45594000000E+02  0.51100000000E-03 0.  1.
         11   -1    0    0    0    0 -0.00000000000E+00 -0.00000000000E+00 -0.45593999997E+02  0.45594000000E+02  0.51100000000E-03 0. -1.
    9900012    2    1    2    0    0 -0.34100213369E+02 -0.28248345192E+01 -0.26698670762E+02  0.47787271178E+02  0.20000000607E+02 0.  0.
        -12    1    1    2    0    0  0.34100213369E+02  0.28248345192E+01  0.26698670762E+02  0.43400728822E+02  0.00000000000E+00 0.  1.
         11    1    3    3    0    0 -0.18222207119E+02  0.20832613284E+01 -0.72929601391E+01  0.19737681675E+02  0.51100000000E-03 0. -1.
        -11    1    3    3    0    0  0.55950003392E+00  0.11155841768E+01 -0.56476679372E+01  0.57839192365E+01  0.51100000000E-03 0.  1.
         12    1    3    3    0    0 -0.16437506284E+02 -0.60236800244E+01 -0.13758042686E+02  0.22265670267E+02  0.00000000000E+00 0. -1.
</event>
<event>
 7    1  0.1427898E-010  0.4778727E+02  0.7816164E-02  0.1312668E+00
        -11   -1    0    0    0    0  0.00000000000E+00  0.00000000000E+00  0.45593999997E+02  0.45594000000E+02  0.51100000000E-03 0.  1.
         11   -1    0    0    0    0 -0.00000000000E+00 -0.00000000000E+00 -0.45593999997E+02  0.45594000000E+02  0.51100000000E-03 0. -1.
    9900012    2    1    2    0    0  0.15912982690E+01  0.35838778264E+02 -0.24426895269E+02  0.47787268784E+02  0.19999989694E+02 0.  0.
        -12    1    1    2    0    0 -0.15912982690E+01 -0.35838778264E+02  0.24426895269E+02  0.43400731216E+02  0.00000000000E+00 0.  1.
         11    1    3    3    0    0  0.28629375340E+01  0.24742508423E+01 -0.61132071096E+01  0.71895500541E+01  0.51100000000E-03 0.  1.
        -11    1    3    3    0    0 -0.70997168107E+01  0.17899324247E+02 -0.13016387096E+02  0.23242592811E+02  0.51100000000E-03 0. -1.
         12    1    3    3    0    0  0.58280775457E+01  0.15465203174E+02 -0.52973010635E+01  0.17355125919E+02  0.00000000000E+00 0. -1.
</event>
<event>
 7    1  0.1427898E-010  0.4778727E+02  0.7816164E-02  0.1312668E+00
        -11   -1    0    0    0    0  0.00000000000E+00  0.00000000000E+00  0.45593999997E+02  0.45594000000E+02  0.51100000000E-03 0.  1.
         11   -1    0    0    0    0 -0.00000000000E+00 -0.00000000000E+00 -0.45593999997E+02  0.45594000000E+02  0.51100000000E-03 0. -1.
    9900012    2    1    2    0    0 -0.36519331479E+02  0.12090767397E+02  0.20094158320E+02  0.47787269286E+02  0.19999991981E+02 0.  0.
        -12    1    1    2    0    0  0.36519331479E+02 -0.12090767397E+02 -0.20094158320E+02  0.43400730714E+02  0.00000000000E+00 0.  1.
         11    1    3    3    0    0  0.14187864377E+01 -0.83193843102E+00  0.61228024586E+00  0.17549825838E+01  0.51100000000E-03 0. -1.
        -11    1    3    3    0    0 -0.15166959880E+02  0.10643877923E+02  0.11436570614E+02  0.21774387636E+02  0.51100000000E-03 0.  1.
         12    1    3    3    0    0 -0.22771158037E+02  0.22788279053E+01  0.80453074598E+01  0.24257899066E+02  0.00000000000E+00 0. -1.
</event>
<event>
 7    1  0.1427898E-010  0.4778727E+02  0.7816164E-02  0.1312668E+00
        -11   -1    0    0    0    0  0.00000000000E+00  0.00000000000E+00  0.45593999997E+02  0.45594000000E+02  0.51100000000E-03 0. -1.
         11   -1    0    0    0    0 -0.00000000000E+00 -0.00000000000E+00 -0.45593999997E+02  0.45594000000E+02  0.51100000000E-03 0.  1.
    9900012    2    1    2    0    0  0.42637534144E+01  0.32799893771E+02  0.28100011864E+02  0.47787270843E+02  0.19999999083E+02 0.  0.
        -12    1    1    2    0    0 -0.42637534144E+01 -0.32799893771E+02 -0.28100011864E+02  0.43400729157E+02  0.00000000000E+00 0.  1.
         11    1    3    3    0    0  0.36114866753E+01  0.22454016814E+02  0.12763343043E+02  0.26079275929E+02  0.51100000000E-03 0. -1.
        -11    1    3    3    0    0 -0.19867493584E+01  0.19461089069E+01 -0.11564146473E+01  0.30119442206E+01  0.51100000000E-03 0.  1.
        -12    1    3    3    0    0  0.26390160974E+01  0.83997680509E+01  0.16493083468E+02  0.18696050694E+02  0.00000000000E+00 0.  1.
</event>
<event>
 7    1  0.1427898E-010  0.4778727E+02  0.7816164E-02  0.1312668E+00
        -11   -1    0    0    0    0  0.00000000000E+00  0.00000000000E+00  0.45593999997E+02  0.45594000000E+02  0.51100000000E-03 0.  1.
         11   -1    0    0    0    0 -0.00000000000E+00 -0.00000000000E+00 -0.45593999997E+02  0.45594000000E+02  0.51100000000E-03 0. -1.
    9900012    2    1    2    0    0 -0.20732251782E+02 -0.37955565931E+02 -0.36293222479E+01  0.47787271561E+02  0.20000002355E+02 0.  0.
        -12    1    1    2    0    0  0.20732251782E+02  0.37955565931E+02  0.36293222479E+01  0.43400728439E+02  0.00000000000E+00 0.  1.
         11    1    3    3    0    0 -0.23048056878E+01 -0.52678708162E+01  0.51327794716E+01  0.77076596681E+01  0.51100000000E-03 0. -1.
        -11    1    3    3    0    0 -0.10789769145E+02 -0.96795741172E+01 -0.62864938723E+00  0.14508910145E+02  0.51100000000E-03 0.  1.
         12    1    3    3    0    0 -0.76376769492E+01 -0.23008120997E+02 -0.81334523323E+01  0.25570701747E+02  0.00000000000E+00 0. -1.
</event>
<event>
 7    1  0.1427898E-010  0.4778733E+02  0.7816164E-02  0.1312668E+00
        -11   -1    0    0    0    0  0.00000000000E+00  0.00000000000E+00  0.45593999997E+02  0.45594000000E+02  0.51100000000E-03 0.  1.
         11   -1    0    0    0    0 -0.00000000000E+00 -0.00000000000E+00 -0.45593999997E+02  0.45594000000E+02  0.51100000000E-03 0. -1.
    9900012    2    1    2    0    0 -0.42289937902E+02 -0.30108727269E+01 -0.92797836798E+01  0.47787325034E+02  0.20000246158E+02 0.  0.
        -12    1    1    2    0    0  0.42289937902E+02  0.30108727269E+01  0.92797836798E+01  0.43400674966E+02  0.00000000000E+00 0.  1.
         11    1    3    3    0    0 -0.34774242462E+02 -0.78101431052E+01 -0.84111793997E+01  0.36619587837E+02  0.51100000000E-03 0. -1.
        -11    1    3    3    0    0 -0.85633777529E+01  0.35407227614E+01 -0.15478628363E+01  0.93948941364E+01  0.51100000000E-03 0.  1.
        -12    1    3    3    0    0  0.10476823130E+01  0.12585476169E+01  0.67925855622E+00  0.17728430611E+01  0.00000000000E+00 0.  1.
</event>
<event>
 7    1  0.1427898E-010  0.4778727E+02  0.7816164E-02  0.1312668E+00
        -11   -1    0    0    0    0  0.00000000000E+00  0.00000000000E+00  0.45593999997E+02  0.45594000000E+02  0.51100000000E-03 0.  1.
         11   -1    0    0    0    0 -0.00000000000E+00 -0.00000000000E+00 -0.45593999997E+02  0.45594000000E+02  0.51100000000E-03 0. -1.
    9900012    2    1    2    0    0  0.40129304624E+02  0.79703781086E+00 -0.16511408985E+02  0.47787274366E+02  0.20000015146E+02 0.  0.
        -12    1    1    2    0    0 -0.40129304624E+02 -0.79703781086E+00  0.16511408985E+02  0.43400725634E+02  0.00000000000E+00 0.  1.
         11    1    3    3    0    0  0.29366422203E+01 -0.47859862222E+01 -0.67670930268E+01  0.87933543056E+01  0.51100000000E-03 0. -1.
        -11    1    3    3    0    0  0.99424681111E+01  0.29739570418E+01 -0.29400808334E+01  0.10786156322E+02  0.51100000000E-03 0.  1.
        -12    1    3    3    0    0  0.27250194292E+02  0.26090669913E+01 -0.68042351249E+01  0.28207763739E+02  0.00000000000E+00 0.  1.
</event>
<event>
 7    1  0.1427898E-010  0.4778727E+02  0.7816164E-02  0.1312668E+00
        -11   -1    0    0    0    0  0.00000000000E+00  0.00000000000E+00  0.45593999997E+02  0.45594000000E+02  0.51100000000E-03 0.  1.
         11   -1    0    0    0    0 -0.00000000000E+00 -0.00000000000E+00 -0.45593999997E+02  0.45594000000E+02  0.51100000000E-03 0. -1.
    9900012    2    1    2    0    0 -0.15901020448E+02  0.31766581736E+02 -0.24933206989E+02  0.47787274462E+02  0.20000015581E+02 0.  0.
        -12    1    1    2    0    0  0.15901020448E+02 -0.31766581736E+02  0.24933206989E+02  0.43400725538E+02  0.00000000000E+00 0.  1.
         11    1    3    3    0    0  0.22552837543E+01  0.23241621861E+01 -0.83430734351E+01  0.89495759276E+01  0.51100000000E-03 0. -1.
        -11    1    3    3    0    0 -0.98654754242E+01  0.12656021466E+02 -0.10384301935E+02  0.19113770210E+02  0.51100000000E-03 0.  1.
        -12    1    3    3    0    0 -0.82908287779E+01  0.16786398084E+02 -0.62058316190E+01  0.19723928324E+02  0.00000000000E+00 0.  1.
</event>
<event>
 7    1  0.1427898E-010  0.4778726E+02  0.7816164E-02  0.1312668E+00
        -11   -1    0    0    0    0  0.00000000000E+00  0.00000000000E+00  0.45593999997E+02  0.45594000000E+02  0.51100000000E-03 0. -1.
         11   -1    0    0    0    0 -0.00000000000E+00 -0.00000000000E+00 -0.45593999997E+02  0.45594000000E+02  0.51100000000E-03 0.  1.
    9900012    2    1    2    0    0 -0.41640731316E+02 -0.10317393688E+02  0.65745762880E+01  0.47787260716E+02  0.19999952908E+02 0.  0.
        -12    1    1    2    0    0  0.41640731316E+02  0.10317393688E+02 -0.65745762880E+01  0.43400739284E+02  0.00000000000E+00 0.  1.
         11    1    3    3    0    0 -0.30135830367E+02 -0.79128042585E+00  0.82486709156E+01  0.31254359196E+02  0.51100000000E-03 0. -1.
        -11    1    3    3    0    0 -0.65529207413E+01 -0.55303126882E+01  0.24894149714E+01  0.89287353993E+01  0.51100000000E-03 0.  1.
        -12    1    3    3    0    0 -0.49519802079E+01 -0.39958005743E+01 -0.41635095990E+01  0.76041661206E+01  0.00000000000E+00 0.  1.
</event>
<event>
 7    1  0.1427898E-010  0.4778727E+02  0.7816164E-02  0.1312668E+00
        -11   -1    0    0    0    0  0.00000000000E+00  0.00000000000E+00  0.45593999997E+02  0.45594000000E+02  0.51100000000E-03 0.  1.
         11   -1    0    0    0    0 -0.00000000000E+00 -0.00000000000E+00 -0.45593999997E+02  0.45594000000E+02  0.51100000000E-03 0. -1.
    9900012    2    1    2    0    0  0.22786664433E+02 -0.16270290196E+02 -0.33161254970E+02  0.47787271317E+02  0.20000001241E+02 0.  0.
        -12    1    1    2    0    0 -0.22786664433E+02  0.16270290196E+02  0.33161254970E+02  0.43400728683E+02  0.00000000000E+00 0.  1.
         11    1    3    3    0    0 -0.20120341479E+00 -0.21643606047E+01  0.22129573005E+00  0.21849283060E+01  0.51100000000E-03 0. -1.
        -11    1    3    3    0    0  0.16971566258E+02 -0.10647845633E+02 -0.33058006981E+02  0.38655433042E+02  0.51100000000E-03 0.  1.
        -12    1    3    3    0    0  0.60163015895E+01 -0.34580839585E+01 -0.32454371955E+00  0.69469099682E+01  0.00000000000E+00 0.  1.
</event>
<event>
 7    1  0.1427898E-010  0.4778727E+02  0.7816164E-02  0.1312668E+00
        -11   -1    0    0    0    0  0.00000000000E+00  0.00000000000E+00  0.45593999997E+02  0.45594000000E+02  0.51100000000E-03 0.  1.
         11   -1    0    0    0    0 -0.00000000000E+00 -0.00000000000E+00 -0.45593999997E+02  0.45594000000E+02  0.51100000000E-03 0. -1.
    9900012    2    1    2    0    0 -0.37708451310E+01 -0.17947563236E+02 -0.39335591678E+02  0.47787273373E+02  0.20000010616E+02 0.  0.
        -12    1    1    2    0    0  0.37708451310E+01  0.17947563236E+02  0.39335591678E+02  0.43400726627E+02  0.00000000000E+00 0.  1.
         11    1    3    3    0    0 -0.10109269621E+02 -0.10294691340E+02 -0.19380769498E+02  0.24161792745E+02  0.51100000000E-03 0. -1.
        -11    1    3    3    0    0  0.13638456824E+01  0.16243217487E+01 -0.33061428179E+01  0.39279863520E+01  0.51100000000E-03 0.  1.
         12    1    3    3    0    0  0.49745788076E+01 -0.92771936450E+01 -0.16648679362E+02  0.19697494276E+02  0.00000000000E+00 0. -1.
</event>
<event>
 7    1  0.1427898E-010  0.4778728E+02  0.7816164E-02  0.1312668E+00
        -11   -1    0    0    0    0  0.00000000000E+00  0.00000000000E+00  0.45593999997E+02  0.45594000000E+02  0.51100000000E-03 0. -1.
         11   -1    0    0    0    0 -0.00000000000E+00 -0.00000000000E+00 -0.45593999997E+02  0.45594000000E+02  0.51100000000E-03 0.  1.
    9900012    2    1    2    0    0 -0.20449245831E+02  0.37352099001E+02  0.83828135835E+01  0.47787279748E+02  0.20000039681E+02 0.  0.
        -12    1    1    2    0    0  0.20449245831E+02 -0.37352099001E+02 -0.83828135835E+01  0.43400720252E+02  0.00000000000E+00 0.  1.
         11    1    3    3    0    0  0.90820444367E+00  0.22550512026E+01  0.17443282901E+01  0.29921184273E+01  0.51100000000E-03 0. -1.
        -11    1    3    3    0    0 -0.20792070115E+01 -0.72325147748E+00  0.33172556148E+01  0.39812535176E+01  0.51100000000E-03 0.  1.
         12    1    3    3    0    0 -0.19278243263E+02  0.35820299276E+02  0.33212296785E+01  0.40813907803E+02  0.00000000000E+00 0. -1.
</event>
<event>
 7    1  0.1427898E-010  0.4778727E+02  0.7816164E-02  0.1312668E+00
        -11   -1    0    0    0    0  0.00000000000E+00  0.00000000000E+00  0.45593999997E+02  0.45594000000E+02  0.51100000000E-03 0. -1.
         11   -1    0    0    0    0 -0.00000000000E+00 -0.00000000000E+00 -0.45593999997E+02  0.45594000000E+02  0.51100000000E-03 0.  1.
    9900012    2    1    2    0    0  0.75634890361E+01  0.36098271108E+02  0.22876445468E+02  0.47787270736E+02  0.19999998594E+02 0.  0.
        -12    1    1    2    0    0 -0.75634890361E+01 -0.36098271108E+02 -0.22876445468E+02  0.43400729264E+02  0.00000000000E+00 0.  1.
         11    1    3    3    0    0  0.47152637192E+01  0.96377764761E+01  0.32834075731E+01  0.11220570970E+02  0.51100000000E-03 0. -1.
        -11    1    3    3    0    0 -0.35907607781E+01  0.10784778763E+02  0.15343749804E+02  0.19095435953E+02  0.51100000000E-03 0.  1.
        -12    1    3    3    0    0  0.64389860950E+01  0.15675715869E+02  0.42492880908E+01  0.17471263813E+02  0.00000000000E+00 0.  1.
</event>
<event>
 7    1  0.1427898E-010  0.4778727E+02  0.7816164E-02  0.1312668E+00
        -11   -1    0    0    0    0  0.00000000000E+00  0.00000000000E+00  0.45593999997E+02  0.45594000000E+02  0.51100000000E-03 0.  1.
         11   -1    0    0    0    0 -0.00000000000E+00 -0.00000000000E+00 -0.45593999997E+02  0.45594000000E+02  0.51100000000E-03 0. -1.
    9900012    2    1    2    0    0  0.11415012707E+02  0.34625709779E+02 -0.23545301779E+02  0.47787268109E+02  0.19999986614E+02 0.  0.
        -12    1    1    2    0    0 -0.11415012707E+02 -0.34625709779E+02  0.23545301779E+02  0.43400731891E+02  0.00000000000E+00 0.  1.
         11    1    3    3    0    0  0.15158933020E+01  0.21008877421E+02 -0.51848460314E+01  0.21692244965E+02  0.51100000000E-03 0. -1.
        -11    1    3    3    0    0  0.80521105649E+01  0.94180908682E+01 -0.79587317083E+01  0.14726789562E+02  0.51100000000E-03 0.  1.
         12    1    3    3    0    0  0.18470088404E+01  0.41987414900E+01 -0.10401724040E+02  0.11368233581E+02  0.00000000000E+00 0. -1.
</event>
<event>
 7    1  0.1427898E-010  0.4778728E+02  0.7816164E-02  0.1312668E+00
        -11   -1    0    0    0    0  0.00000000000E+00  0.00000000000E+00  0.45593999997E+02  0.45594000000E+02  0.51100000000E-03 0.  1.
         11   -1    0    0    0    0 -0.00000000000E+00 -0.00000000000E+00 -0.45593999997E+02  0.45594000000E+02  0.51100000000E-03 0. -1.
    9900012    2    1    2    0    0 -0.29612724472E+02 -0.23676525017E+02 -0.21121823324E+02  0.47787277563E+02  0.20000029723E+02 0.  0.
        -12    1    1    2    0    0  0.29612724472E+02  0.23676525017E+02  0.21121823324E+02  0.43400722437E+02  0.00000000000E+00 0.  1.
         11    1    3    3    0    0 -0.55403550091E+00 -0.69807855264E+01 -0.26046279200E+01  0.74714395376E+01  0.51100000000E-03 0. -1.
        -11    1    3    3    0    0 -0.79076726813E+01 -0.90796963416E+01 -0.11787208420E+02  0.16849642592E+02  0.51100000000E-03 0.  1.
        -12    1    3    3    0    0 -0.21151016289E+02 -0.76160431490E+01 -0.67299869834E+01  0.23466195433E+02  0.00000000000E+00 0.  1.
</event>
<event>
 7    1  0.1427898E-010  0.4778727E+02  0.7816164E-02  0.1312668E+00
        -11   -1    0    0    0    0  0.00000000000E+00  0.00000000000E+00  0.45593999997E+02  0.45594000000E+02  0.51100000000E-03 0. -1.
         11   -1    0    0    0    0 -0.00000000000E+00 -0.00000000000E+00 -0.45593999997E+02  0.45594000000E+02  0.51100000000E-03 0.  1.
    9900012    2    1    2    0    0 -0.33708400114E+02 -0.23444080456E+02  0.14062077527E+02  0.47787272229E+02  0.20000005403E+02 0.  0.
        -12    1    1    2    0    0  0.33708400114E+02  0.23444080456E+02 -0.14062077527E+02  0.43400727771E+02  0.00000000000E+00 0.  1.
         11    1    3    3    0    0 -0.15590762793E+02 -0.10388187322E+02 -0.13524275049E+01  0.18783380439E+02  0.51100000000E-03 0. -1.
        -11    1    3    3    0    0  0.66499530948E+00 -0.33075729329E+00  0.31043319302E+01  0.31919423777E+01  0.51100000000E-03 0.  1.
         12    1    3    3    0    0 -0.18782632630E+02 -0.12725135840E+02  0.12310173102E+02  0.25811949412E+02  0.00000000000E+00 0. -1.
</event>
<event>
 7    1  0.1427898E-010  0.4778727E+02  0.7816164E-02  0.1312668E+00
        -11   -1    0    0    0    0  0.00000000000E+00  0.00000000000E+00  0.45593999997E+02  0.45594000000E+02  0.51100000000E-03 0. -1.
         11   -1    0    0    0    0 -0.00000000000E+00 -0.00000000000E+00 -0.45593999997E+02  0.45594000000E+02  0.51100000000E-03 0.  1.
    9900012    2    1    2    0    0 -0.32018010320E+02 -0.99161942333E+01  0.27570623471E+02  0.47787272224E+02  0.20000005377E+02 0.  0.
        -12    1    1    2    0    0  0.32018010320E+02  0.99161942333E+01 -0.27570623471E+02  0.43400727776E+02  0.00000000000E+00 0.  1.
         11    1    3    3    0    0 -0.18473253878E+02 -0.22783114101E+01  0.73278541795E+01  0.20003731123E+02  0.51100000000E-03 0. -1.
        -11    1    3    3    0    0  0.13924604420E+01  0.51327666369E+00  0.20962686057E+00  0.14987804035E+01  0.51100000000E-03 0.  1.
         12    1    3    3    0    0 -0.14937216884E+02 -0.81511594869E+01  0.20033142431E+02  0.26284760697E+02  0.00000000000E+00 0. -1.
</event>
<event>
 7    1  0.1427898E-010  0.4778727E+02  0.7816164E-02  0.1312668E+00
        -11   -1    0    0    0    0  0.00000000000E+00  0.00000000000E+00  0.45593999997E+02  0.45594000000E+02  0.51100000000E-03 0. -1.
         11   -1    0    0    0    0 -0.00000000000E+00 -0.00000000000E+00 -0.45593999997E+02  0.45594000000E+02  0.51100000000E-03 0.  1.
    9900012    2    1    2    0    0 -0.16535214030E+02 -0.32376439244E+02  0.23706039644E+02  0.47787269168E+02  0.19999991445E+02 0.  0.
        -12    1    1    2    0    0  0.16535214030E+02  0.32376439244E+02 -0.23706039644E+02  0.43400730832E+02  0.00000000000E+00 0.  1.
         11    1    3    3    0    0 -0.83891584776E+01 -0.55648025225E+01  0.17340002124E+01  0.10215271121E+02  0.51100000000E-03 0.  1.
        -11    1    3    3    0    0 -0.66127141264E+01 -0.66642075530E+01  0.30013632172E+01  0.98563599696E+01  0.51100000000E-03 0. -1.
         12    1    3    3    0    0 -0.15333414265E+01 -0.20147429169E+02  0.18970676214E+02  0.27715638078E+02  0.00000000000E+00 0. -1.
</event>
<event>
 7    1  0.1427898E-010  0.4778727E+02  0.7816164E-02  0.1312668E+00
        -11   -1    0    0    0    0  0.00000000000E+00  0.00000000000E+00  0.45593999997E+02  0.45594000000E+02  0.51100000000E-03 0.  1.
         11   -1    0    0    0    0 -0.00000000000E+00 -0.00000000000E+00 -0.45593999997E+02  0.45594000000E+02  0.51100000000E-03 0. -1.
    9900012    2    1    2    0    0 -0.30992563231E+02 -0.67742682912E+01 -0.29617454470E+02  0.47787270792E+02  0.19999998849E+02 0.  0.
        -12    1    1    2    0    0  0.30992563231E+02  0.67742682912E+01  0.29617454470E+02  0.43400729208E+02  0.00000000000E+00 0.  1.
         11    1    3    3    0    0 -0.11426501899E+02  0.38043769395E+01 -0.16298070484E+02  0.20264879257E+02  0.51100000000E-03 0. -1.
        -11    1    3    3    0    0 -0.65716956082E+01 -0.13257260467E+01  0.56784771057E-01  0.67043237906E+01  0.51100000000E-03 0.  1.
        -12    1    3    3    0    0 -0.12994365724E+02 -0.92529191841E+01 -0.13376168756E+02  0.20818067744E+02  0.00000000000E+00 0.  1.
</event>
<event>
 7    1  0.1664247E-010  0.4778727E+02  0.7816164E-02  0.1312668E+00
        -11   -1    0    0    0    0  0.00000000000E+00  0.00000000000E+00  0.45593999997E+02  0.45594000000E+02  0.51100000000E-03 0.  1.
         11   -1    0    0    0    0 -0.00000000000E+00 -0.00000000000E+00 -0.45593999997E+02  0.45594000000E+02  0.51100000000E-03 0. -1.
    9900012    2    1    2    0    0  0.40312686238E+02 -0.13112980979E+02 -0.93037902821E+01  0.47787268952E+02  0.19999990462E+02 0.  0.
        -12    1    1    2    0    0 -0.40312686238E+02  0.13112980979E+02  0.93037902821E+01  0.43400731048E+02  0.00000000000E+00 0.  1.
         11    1    3    3    0    0  0.31925260613E+02 -0.16236877649E+02 -0.50272360415E+01  0.36168101464E+02  0.51100000000E-03 0. -1.
        -11    1    3    3    0    0  0.19125512220E+01  0.13599364735E+01  0.14826347098E+01  0.27758755974E+01  0.51100000000E-03 0.  1.
         12    1    3    3    0    0  0.64748744025E+01  0.17639601969E+01 -0.57591889504E+01  0.88432918911E+01  0.00000000000E+00 0. -1.
</event>
<event>
 7    1  0.1427898E-010  0.4778727E+02  0.7816164E-02  0.1312668E+00
        -11   -1    0    0    0    0  0.00000000000E+00  0.00000000000E+00  0.45593999997E+02  0.45594000000E+02  0.51100000000E-03 0. -1.
         11   -1    0    0    0    0 -0.00000000000E+00 -0.00000000000E+00 -0.45593999997E+02  0.45594000000E+02  0.51100000000E-03 0.  1.
    9900012    2    1    2    0    0  0.17779004743E+01  0.27473229099E+02  0.33551209868E+02  0.47787274997E+02  0.20000018020E+02 0.  0.
        -12    1    1    2    0    0 -0.17779004743E+01 -0.27473229099E+02 -0.33551209868E+02  0.43400725003E+02  0.00000000000E+00 0.  1.
         11    1    3    3    0    0 -0.25001159338E+01  0.21285921230E+02  0.27866600763E+02  0.35155205313E+02  0.51100000000E-03 0. -1.
        -11    1    3    3    0    0 -0.32838084575E+00  0.65324313215E+01  0.42293195634E+01  0.77889432647E+01  0.51100000000E-03 0.  1.
        -12    1    3    3    0    0  0.46063972538E+01 -0.34512345207E+00  0.14552895411E+01  0.48431264185E+01  0.00000000000E+00 0.  1.
</event>
<event>
 7    1  0.1600419E-010  0.4778727E+02  0.7816164E-02  0.1312668E+00
        -11   -1    0    0    0    0  0.00000000000E+00  0.00000000000E+00  0.45593999997E+02  0.45594000000E+02  0.51100000000E-03 0. -1.
         11   -1    0    0    0    0 -0.00000000000E+00 -0.00000000000E+00 -0.45593999997E+02  0.45594000000E+02  0.51100000000E-03 0.  1.
    9900012    2    1    2    0    0  0.49312391546E+01 -0.25091639472E+02  0.35067308323E+02  0.47787267241E+02  0.19999982658E+02 0.  0.
        -12    1    1    2    0    0 -0.49312391546E+01  0.25091639472E+02 -0.35067308323E+02  0.43400732759E+02  0.00000000000E+00 0.  1.
         11    1    3    3    0    0 -0.35404720046E+01 -0.47997066268E+01  0.10910018458E+02  0.12433850117E+02  0.51100000000E-03 0. -1.
        -11    1    3    3    0    0  0.26450962853E+01 -0.41827503510E+01 -0.87005364820E+00  0.50248311881E+01  0.51100000000E-03 0.  1.
         12    1    3    3    0    0  0.58266148739E+01 -0.16109182495E+02  0.25027343513E+02  0.30328585936E+02  0.00000000000E+00 0. -1.
</event>
<event>
 7    1  0.1427898E-010  0.4778728E+02  0.7816164E-02  0.1312668E+00
        -11   -1    0    0    0    0  0.00000000000E+00  0.00000000000E+00  0.45593999997E+02  0.45594000000E+02  0.51100000000E-03 0. -1.
         11   -1    0    0    0    0 -0.00000000000E+00 -0.00000000000E+00 -0.45593999997E+02  0.45594000000E+02  0.51100000000E-03 0.  1.
    9900012    2    1    2    0    0 -0.13564470973E+01  0.35565278463E+02 -0.24837347965E+02  0.47787276102E+02  0.20000023061E+02 0.  0.
        -12    1    1    2    0    0  0.13564470973E+01 -0.35565278463E+02  0.24837347965E+02  0.43400723898E+02  0.00000000000E+00 0.  1.
         11    1    3    3    0    0 -0.38963207073E+01  0.27202020459E+02 -0.14276035494E+02  0.30966698594E+02  0.51100000000E-03 0. -1.
        -11    1    3    3    0    0  0.42876664562E+01  0.53953377873E+01 -0.13988432445E+01  0.70321060972E+01  0.51100000000E-03 0.  1.
         12    1    3    3    0    0 -0.17477928462E+01  0.29679202171E+01 -0.91624692264E+01  0.97884714114E+01  0.00000000000E+00 0. -1.
</event>
<event>
 7    1  0.1427898E-010  0.4778727E+02  0.7816164E-02  0.1312668E+00
        -11   -1    0    0    0    0  0.00000000000E+00  0.00000000000E+00  0.45593999997E+02  0.45594000000E+02  0.51100000000E-03 0. -1.
         11   -1    0    0    0    0 -0.00000000000E+00 -0.00000000000E+00 -0.45593999997E+02  0.45594000000E+02  0.51100000000E-03 0.  1.
    9900012    2    1    2    0    0 -0.50010489584E+01  0.16793940335E+02  0.39706126616E+02  0.47787269436E+02  0.19999992667E+02 0.  0.
        -12    1    1    2    0    0  0.50010489584E+01 -0.16793940335E+02 -0.39706126616E+02  0.43400730564E+02  0.00000000000E+00 0.  1.
         11    1    3    3    0    0  0.19533003889E+01  0.48554457544E+01  0.14143790458E+02  0.15081032613E+02  0.51100000000E-03 0. -1.
        -11    1    3    3    0    0 -0.36612637384E+01  0.10518794436E+02  0.56788752379E+01  0.12501980354E+02  0.51100000000E-03 0.  1.
        -12    1    3    3    0    0 -0.32930856088E+01  0.14197001450E+01  0.19883460919E+02  0.20204256469E+02  0.00000000000E+00 0.  1.
</event>
<event>
 7    1  0.1427898E-010  0.4778724E+02  0.7816164E-02  0.1312668E+00
        -11   -1    0    0    0    0  0.00000000000E+00  0.00000000000E+00  0.45593999997E+02  0.45594000000E+02  0.51100000000E-03 0. -1.
         11   -1    0    0    0    0 -0.00000000000E+00 -0.00000000000E+00 -0.45593999997E+02  0.45594000000E+02  0.51100000000E-03 0.  1.
    9900012    2    1    2    0    0  0.11199242694E+02 -0.37698476029E+02 -0.18358326153E+02  0.47787236516E+02  0.19999842570E+02 0.  0.
        -12    1    1    2    0    0 -0.11199242694E+02  0.37698476029E+02  0.18358326153E+02  0.43400763484E+02  0.00000000000E+00 0.  1.
         11    1    3    3    0    0  0.88440500112E+01 -0.17705215269E+02 -0.90311837794E+01  0.21754405279E+02  0.51100000000E-03 0. -1.
        -11    1    3    3    0    0  0.38237871577E+01 -0.18638334341E+02 -0.12149505139E+02  0.22574749846E+02  0.51100000000E-03 0.  1.
        -12    1    3    3    0    0 -0.14685944744E+01 -0.13549264191E+01  0.28223627647E+01  0.34580813910E+01  0.00000000000E+00 0.  1.
</event>
<event>
 7    1  0.2331065E-010  0.4778727E+02  0.7816164E-02  0.1312668E+00
        -11   -1    0    0    0    0  0.00000000000E+00  0.00000000000E+00  0.45593999997E+02  0.45594000000E+02  0.51100000000E-03 0.  1.
         11   -1    0    0    0    0 -0.00000000000E+00 -0.00000000000E+00 -0.45593999997E+02  0.45594000000E+02  0.51100000000E-03 0. -1.
    9900012    2    1    2    0    0  0.37153545431E+02  0.21973153987E+02 -0.45186139279E+01  0.47787270674E+02  0.19999998309E+02 0.  0.
        -12    1    1    2    0    0 -0.37153545431E+02 -0.21973153987E+02  0.45186139279E+01  0.43400729326E+02  0.00000000000E+00 0.  1.
         11    1    3    3    0    0  0.20960258074E+02  0.16905822687E+02  0.15406349771E+00  0.26928850608E+02  0.51100000000E-03 0. -1.
        -11    1    3    3    0    0  0.81495790163E+01 -0.22079397814E+00  0.28552897783E+01  0.86381171619E+01  0.51100000000E-03 0.  1.
         12    1    3    3    0    0  0.80437083403E+01  0.52881252787E+01 -0.75279672039E+01  0.12220302903E+02  0.00000000000E+00 0. -1.
</event>
<event>
 7    1  0.1427898E-010  0.4778725E+02  0.7816164E-02  0.1312668E+00
        -11   -1    0    0    0    0  0.00000000000E+00  0.00000000000E+00  0.45593999997E+02  0.45594000000E+02  0.51100000000E-03 0.  1.
         11   -1    0    0    0    0 -0.00000000000E+00 -0.00000000000E+00 -0.45593999997E+02  0.45594000000E+02  0.51100000000E-03 0. -1.
    9900012    2    1    2    0    0  0.25019025730E+02  0.25097823275E+02 -0.25055399189E+02  0.47787246434E+02  0.19999887789E+02 0.  0.
        -12    1    1    2    0    0 -0.25019025730E+02 -0.25097823275E+02  0.25055399189E+02  0.43400753566E+02  0.00000000000E+00 0.  1.
         11    1    3    3    0    0  0.51981446370E+01  0.17478930729E+00 -0.67681980833E+01  0.85357931397E+01  0.51100000000E-03 0. -1.
        -11    1    3    3    0    0  0.84717705443E+01  0.94925703666E+01  0.65937654014E-01  0.12723369693E+02  0.51100000000E-03 0.  1.
         12    1    3    3    0    0  0.11349110548E+02  0.15430463601E+02 -0.18353138759E+02  0.26528083600E+02  0.00000000000E+00 0. -1.
</event>
<event>
 7    1  0.1427898E-010  0.4778727E+02  0.7816164E-02  0.1312668E+00
        -11   -1    0    0    0    0  0.00000000000E+00  0.00000000000E+00  0.45593999997E+02  0.45594000000E+02  0.51100000000E-03 0.  1.
         11   -1    0    0    0    0 -0.00000000000E+00 -0.00000000000E+00 -0.45593999997E+02  0.45594000000E+02  0.51100000000E-03 0. -1.
    9900012    2    1    2    0    0 -0.23871860545E+01  0.36514751548E+02 -0.23336607790E+02  0.47787274188E+02  0.20000014333E+02 0.  0.
        -12    1    1    2    0    0  0.23871860545E+01 -0.36514751548E+02  0.23336607790E+02  0.43400725812E+02  0.00000000000E+00 0.  1.
         11    1    3    3    0    0  0.40434755244E+01  0.19236517901E+02 -0.15855683959E+02  0.25254623920E+02  0.51100000000E-03 0. -1.
        -11    1    3    3    0    0 -0.57475895484E+01  0.18056137883E+02 -0.87695004720E+01  0.20879727959E+02  0.51100000000E-03 0.  1.
        -12    1    3    3    0    0 -0.68307203052E+00 -0.77790423597E+00  0.12885766411E+01  0.16529223089E+01  0.00000000000E+00 0.  1.
</event>
<event>
 7    1  0.1427898E-010  0.4778727E+02  0.7816164E-02  0.1312668E+00
        -11   -1    0    0    0    0  0.00000000000E+00  0.00000000000E+00  0.45593999997E+02  0.45594000000E+02  0.51100000000E-03 0.  1.
         11   -1    0    0    0    0 -0.00000000000E+00 -0.00000000000E+00 -0.45593999997E+02  0.45594000000E+02  0.51100000000E-03 0. -1.
    9900012    2    1    2    0    0  0.32528604472E+02 -0.14846904019E+02 -0.24598422484E+02  0.47787273548E+02  0.20000011413E+02 0.  0.
        -12    1    1    2    0    0 -0.32528604472E+02  0.14846904019E+02  0.24598422484E+02  0.43400726452E+02  0.00000000000E+00 0.  1.
         11    1    3    3    0    0  0.15252660620E+02 -0.16452881742E+02 -0.12149560117E+02  0.25513776375E+02  0.51100000000E-03 0. -1.
        -11    1    3    3    0    0  0.13443625995E+02 -0.14393094623E+01 -0.83672199643E+01  0.15900096283E+02  0.51100000000E-03 0.  1.
        -12    1    3    3    0    0  0.38323178568E+01  0.30452871848E+01 -0.40816424030E+01  0.63734008895E+01  0.00000000000E+00 0.  1.
</event>
<event>
 7    1  0.1427898E-010  0.4778727E+02  0.7816164E-02  0.1312668E+00
        -11   -1    0    0    0    0  0.00000000000E+00  0.00000000000E+00  0.45593999997E+02  0.45594000000E+02  0.51100000000E-03 0.  1.
         11   -1    0    0    0    0 -0.00000000000E+00 -0.00000000000E+00 -0.45593999997E+02  0.45594000000E+02  0.51100000000E-03 0. -1.
    9900012    2    1    2    0    0 -0.32951637290E+02  0.14959305918E+02 -0.23958959195E+02  0.47787274668E+02  0.20000016520E+02 0.  0.
        -12    1    1    2    0    0  0.32951637290E+02 -0.14959305918E+02  0.23958959195E+02  0.43400725332E+02  0.00000000000E+00 0.  1.
         11    1    3    3    0    0 -0.79504319728E+00 -0.11822262119E+01 -0.33309716429E+01  0.36228614172E+01  0.51100000000E-03 0.  1.
        -11    1    3    3    0    0 -0.14511279879E+02  0.14862712755E+02 -0.73116433602E+01  0.22021298850E+02  0.51100000000E-03 0. -1.
         12    1    3    3    0    0 -0.17645314214E+02  0.12788193745E+01 -0.13316344192E+02  0.22143114400E+02  0.00000000000E+00 0. -1.
</event>
<event>
 7    1  0.1427898E-010  0.4778728E+02  0.7816164E-02  0.1312668E+00
        -11   -1    0    0    0    0  0.00000000000E+00  0.00000000000E+00  0.45593999997E+02  0.45594000000E+02  0.51100000000E-03 0.  1.
         11   -1    0    0    0    0 -0.00000000000E+00 -0.00000000000E+00 -0.45593999997E+02  0.45594000000E+02  0.51100000000E-03 0. -1.
    9900012    2    1    2    0    0 -0.22197427341E+02  0.90197882858E+01 -0.36187574175E+02  0.47787275514E+02  0.20000020377E+02 0.  0.
        -12    1    1    2    0    0  0.22197427341E+02 -0.90197882858E+01  0.36187574175E+02  0.43400724486E+02  0.00000000000E+00 0.  1.
         11    1    3    3    0    0 -0.22657404194E+02  0.46938964723E+01 -0.32519337884E+02  0.39911125837E+02  0.51100000000E-03 0. -1.
        -11    1    3    3    0    0  0.11095847717E+01 -0.10443287443E+01 -0.11518718375E+01  0.19101334725E+01  0.51100000000E-03 0.  1.
        -12    1    3    3    0    0 -0.64960791894E+00  0.53702205577E+01 -0.25163644530E+01  0.59660162041E+01  0.00000000000E+00 0.  1.
</event>
<event>
 7    1  0.1870831E-010  0.4778727E+02  0.7816164E-02  0.1312668E+00
        -11   -1    0    0    0    0  0.00000000000E+00  0.00000000000E+00  0.45593999997E+02  0.45594000000E+02  0.51100000000E-03 0.  1.
         11   -1    0    0    0    0 -0.00000000000E+00 -0.00000000000E+00 -0.45593999997E+02  0.45594000000E+02  0.51100000000E-03 0. -1.
    9900012    2    1    2    0    0  0.17664891433E+02  0.38323997187E+02 -0.10141316832E+02  0.47787268937E+02  0.19999990394E+02 0.  0.
        -12    1    1    2    0    0 -0.17664891433E+02 -0.38323997187E+02  0.10141316832E+02  0.43400731063E+02  0.00000000000E+00 0.  1.
         11    1    3    3    0    0  0.82179165001E+01  0.16565784527E+02 -0.22185298713E+01  0.18624748150E+02  0.51100000000E-03 0. -1.
        -11    1    3    3    0    0  0.62981954014E+01  0.10291417749E+02 -0.11577991878E+02  0.16722154191E+02  0.51100000000E-03 0.  1.
        -12    1    3    3    0    0  0.31487795312E+01  0.11466794911E+02  0.36552049180E+01  0.12440366597E+02  0.00000000000E+00 0.  1.
</event>
<event>
 7    1  0.1427898E-010  0.4778727E+02  0.7816164E-02  0.1312668E+00
        -11   -1    0    0    0    0  0.00000000000E+00  0.00000000000E+00  0.45593999997E+02  0.45594000000E+02  0.51100000000E-03 0.  1.
         11   -1    0    0    0    0 -0.00000000000E+00 -0.00000000000E+00 -0.45593999997E+02  0.45594000000E+02  0.51100000000E-03 0. -1.
    9900012    2    1    2    0    0 -0.15719392312E+02  0.23696323129E+02 -0.32787321848E+02  0.47787268457E+02  0.19999988205E+02 0.  0.
        -12    1    1    2    0    0  0.15719392312E+02 -0.23696323129E+02  0.32787321848E+02  0.43400731543E+02  0.00000000000E+00 0.  1.
         11    1    3    3    0    0 -0.30434891413E+01 -0.53204573813E+00 -0.68127776748E+01  0.74806309044E+01  0.51100000000E-03 0. -1.
        -11    1    3    3    0    0 -0.56084533833E+01  0.32575499335E+01 -0.13317767095E+02  0.14813146242E+02  0.51100000000E-03 0.  1.
         12    1    3    3    0    0 -0.70674497875E+01  0.20970818934E+02 -0.12656777078E+02  0.25493491311E+02  0.00000000000E+00 0. -1.
</event>
<event>
 7    1  0.1427898E-010  0.4778728E+02  0.7816164E-02  0.1312668E+00
        -11   -1    0    0    0    0  0.00000000000E+00  0.00000000000E+00  0.45593999997E+02  0.45594000000E+02  0.51100000000E-03 0.  1.
         11   -1    0    0    0    0 -0.00000000000E+00 -0.00000000000E+00 -0.45593999997E+02  0.45594000000E+02  0.51100000000E-03 0. -1.
    9900012    2    1    2    0    0  0.34277913525E+02  0.11606818858E+02 -0.23956816689E+02  0.47787278053E+02  0.20000031955E+02 0.  0.
        -12    1    1    2    0    0 -0.34277913525E+02 -0.11606818858E+02  0.23956816689E+02  0.43400721947E+02  0.00000000000E+00 0.  1.
         11    1    3    3    0    0  0.47801385061E+00  0.52867969489E+01 -0.46549342254E+01  0.70602501460E+01  0.51100000000E-03 0. -1.
        -11    1    3    3    0    0  0.10323956387E+02 -0.26414755823E+01 -0.69920784921E+01  0.12745612211E+02  0.51100000000E-03 0.  1.
         12    1    3    3    0    0  0.23475943288E+02  0.89614974916E+01 -0.12309803971E+02  0.27981415696E+02  0.00000000000E+00 0. -1.
</event>
<event>
 7    1  0.1427898E-010  0.4778727E+02  0.7816164E-02  0.1312668E+00
        -11   -1    0    0    0    0  0.00000000000E+00  0.00000000000E+00  0.45593999997E+02  0.45594000000E+02  0.51100000000E-03 0. -1.
         11   -1    0    0    0    0 -0.00000000000E+00 -0.00000000000E+00 -0.45593999997E+02  0.45594000000E+02  0.51100000000E-03 0.  1.
    9900012    2    1    2    0    0 -0.37293507673E+02 -0.16385616482E+02  0.14977632986E+02  0.47787266920E+02  0.19999981194E+02 0.  0.
        -12    1    1    2    0    0  0.37293507673E+02  0.16385616482E+02 -0.14977632986E+02  0.43400733080E+02  0.00000000000E+00 0.  1.
         11    1    3    3    0    0 -0.29925018715E+02 -0.98378870539E+01  0.69744829792E+01  0.32263511586E+02  0.51100000000E-03 0. -1.
        -11    1    3    3    0    0 -0.63046562367E+00 -0.42943876750E+01 -0.58281047559E+00  0.43793744664E+01  0.51100000000E-03 0.  1.
        -12    1    3    3    0    0 -0.67380233344E+01 -0.22533417528E+01  0.85859604820E+01  0.11144380867E+02  0.00000000000E+00 0.  1.
</event>
<event>
 7    1  0.1427898E-010  0.4778727E+02  0.7816164E-02  0.1312668E+00
        -11   -1    0    0    0    0  0.00000000000E+00  0.00000000000E+00  0.45593999997E+02  0.45594000000E+02  0.51100000000E-03 0. -1.
         11   -1    0    0    0    0 -0.00000000000E+00 -0.00000000000E+00 -0.45593999997E+02  0.45594000000E+02  0.51100000000E-03 0.  1.
    9900012    2    1    2    0    0  0.19024233437E+02  0.38735671978E+02 -0.46097203098E+01  0.47787271172E+02  0.20000000584E+02 0.  0.
        -12    1    1    2    0    0 -0.19024233437E+02 -0.38735671978E+02  0.46097203098E+01  0.43400728828E+02  0.00000000000E+00 0.  1.
         11    1    3    3    0    0 -0.82644557817E+00 -0.14643828145E+01  0.31795233105E+00  0.17112928642E+01  0.51100000000E-03 0.  1.
        -11    1    3    3    0    0  0.66525558946E+01  0.16603715893E+02  0.24424173275E+01  0.18052846979E+02  0.51100000000E-03 0. -1.
        -12    1    3    3    0    0  0.13198123121E+02  0.23596338899E+02 -0.73700899684E+01  0.28023131329E+02  0.00000000000E+00 0.  1.
</event>
<event>
 7    1  0.1427898E-010  0.4778727E+02  0.7816164E-02  0.1312668E+00
        -11   -1    0    0    0    0  0.00000000000E+00  0.00000000000E+00  0.45593999997E+02  0.45594000000E+02  0.51100000000E-03 0. -1.
         11   -1    0    0    0    0 -0.00000000000E+00 -0.00000000000E+00 -0.45593999997E+02  0.45594000000E+02  0.51100000000E-03 0.  1.
    9900012    2    1    2    0    0  0.36349341597E+02  0.21217545919E+01  0.23618781616E+02  0.47787270489E+02  0.19999997466E+02 0.  0.
        -12    1    1    2    0    0 -0.36349341597E+02 -0.21217545919E+01 -0.23618781616E+02  0.43400729511E+02  0.00000000000E+00 0.  1.
         11    1    3    3    0    0  0.59611646670E+01  0.26968752325E+01  0.74403319494E+00  0.65849985469E+01  0.51100000000E-03 0. -1.
        -11    1    3    3    0    0  0.20099173874E+01  0.35892342439E+01 -0.57570936299E+00  0.41537708042E+01  0.51100000000E-03 0.  1.
         12    1    3    3    0    0  0.28378259543E+02 -0.41643548845E+01  0.23450457784E+02  0.37048501138E+02  0.00000000000E+00 0. -1.
</event>
<event>
 7    1  0.1427898E-010  0.4778728E+02  0.7816164E-02  0.1312668E+00
        -11   -1    0    0    0    0  0.00000000000E+00  0.00000000000E+00  0.45593999997E+02  0.45594000000E+02  0.51100000000E-03 0.  1.
         11   -1    0    0    0    0 -0.00000000000E+00 -0.00000000000E+00 -0.45593999997E+02  0.45594000000E+02  0.51100000000E-03 0. -1.
    9900012    2    1    2    0    0  0.13793720066E+02 -0.39243406076E+02  0.12381878839E+02  0.47787279300E+02  0.20000037639E+02 0.  0.
        -12    1    1    2    0    0 -0.13793720066E+02  0.39243406076E+02 -0.12381878839E+02  0.43400720700E+02  0.00000000000E+00 0.  1.
         11    1    3    3    0    0  0.90966692217E+00 -0.62214242063E+01 -0.14259176773E+01  0.64472361945E+01  0.51100000000E-03 0. -1.
        -11    1    3    3    0    0  0.44834584572E+00 -0.10834102242E+02  0.11491207576E+02  0.15799577121E+02  0.51100000000E-03 0.  1.
         12    1    3    3    0    0  0.12435707298E+02 -0.22187879628E+02  0.23165889409E+01  0.25540465984E+02  0.00000000000E+00 0. -1.
</event>
<event>
 7    1  0.1427898E-010  0.4778727E+02  0.7816164E-02  0.1312668E+00
        -11   -1    0    0    0    0  0.00000000000E+00  0.00000000000E+00  0.45593999997E+02  0.45594000000E+02  0.51100000000E-03 0.  1.
         11   -1    0    0    0    0 -0.00000000000E+00 -0.00000000000E+00 -0.45593999997E+02  0.45594000000E+02  0.51100000000E-03 0. -1.
    9900012    2    1    2    0    0  0.12965969600E+02  0.13490019964E+02 -0.39160264939E+02  0.47787270094E+02  0.19999995667E+02 0.  0.
        -12    1    1    2    0    0 -0.12965969600E+02 -0.13490019964E+02  0.39160264939E+02  0.43400729906E+02  0.00000000000E+00 0.  1.
         11    1    3    3    0    0  0.98891243701E+01  0.12809905504E+02 -0.23904722001E+02  0.28867355162E+02  0.51100000000E-03 0. -1.
        -11    1    3    3    0    0  0.40651723731E+01 -0.19116611820E+01 -0.12789590597E+01  0.46707399238E+01  0.51100000000E-03 0.  1.
         12    1    3    3    0    0 -0.98832714360E+00  0.25917756422E+01 -0.13976583878E+02  0.14249175008E+02  0.00000000000E+00 0. -1.
</event>
<event>
 7    1  0.1427898E-010  0.4778727E+02  0.7816164E-02  0.1312668E+00
        -11   -1    0    0    0    0  0.00000000000E+00  0.00000000000E+00  0.45593999997E+02  0.45594000000E+02  0.51100000000E-03 0.  1.
         11   -1    0    0    0    0 -0.00000000000E+00 -0.00000000000E+00 -0.45593999997E+02  0.45594000000E+02  0.51100000000E-03 0. -1.
    9900012    2    1    2    0    0  0.33170031270E+02  0.11424590929E+02 -0.25550948305E+02  0.47787271762E+02  0.20000003271E+02 0.  0.
        -12    1    1    2    0    0 -0.33170031270E+02 -0.11424590929E+02  0.25550948305E+02  0.43400728238E+02  0.00000000000E+00 0.  1.
         11    1    3    3    0    0  0.15056932776E+02 -0.20396885858E+01 -0.77730550560E+01  0.17067276857E+02  0.51100000000E-03 0. -1.
        -11    1    3    3    0    0  0.58250586415E+00  0.44218282870E+01 -0.48245166208E+00  0.44860493030E+01  0.51100000000E-03 0.  1.
         12    1    3    3    0    0  0.17530592629E+02  0.90424512281E+01 -0.17295441587E+02  0.26233945601E+02  0.00000000000E+00 0. -1.
</event>
<event>
 7    1  0.1427898E-010  0.4778727E+02  0.7816164E-02  0.1312668E+00
        -11   -1    0    0    0    0  0.00000000000E+00  0.00000000000E+00  0.45593999997E+02  0.45594000000E+02  0.51100000000E-03 0.  1.
         11   -1    0    0    0    0 -0.00000000000E+00 -0.00000000000E+00 -0.45593999997E+02  0.45594000000E+02  0.51100000000E-03 0. -1.
    9900012    2    1    2    0    0 -0.30823976955E+02 -0.29922722361E+02 -0.61754792002E+01  0.47787269451E+02  0.19999992736E+02 0.  0.
        -12    1    1    2    0    0  0.30823976955E+02  0.29922722361E+02  0.61754792002E+01  0.43400730549E+02  0.00000000000E+00 0.  1.
         11    1    3    3    0    0 -0.12243536646E+02 -0.10958167688E+02  0.13688231227E+01  0.16488156528E+02  0.51100000000E-03 0. -1.
        -11    1    3    3    0    0 -0.98692248309E+01 -0.13945369841E+01 -0.59852692622E+01  0.11626253935E+02  0.51100000000E-03 0.  1.
         12    1    3    3    0    0 -0.87112154778E+01 -0.17570017689E+02 -0.15590330607E+01  0.19672858988E+02  0.00000000000E+00 0. -1.
</event>
<event>
 7    1  0.1427898E-010  0.4778727E+02  0.7816164E-02  0.1312668E+00
        -11   -1    0    0    0    0  0.00000000000E+00  0.00000000000E+00  0.45593999997E+02  0.45594000000E+02  0.51100000000E-03 0.  1.
         11   -1    0    0    0    0 -0.00000000000E+00 -0.00000000000E+00 -0.45593999997E+02  0.45594000000E+02  0.51100000000E-03 0. -1.
    9900012    2    1    2    0    0 -0.29746207107E+02  0.70354610053E-02 -0.31603585271E+02  0.47787268569E+02  0.19999988715E+02 0.  0.
        -12    1    1    2    0    0  0.29746207107E+02 -0.70354610053E-02  0.31603585271E+02  0.43400731431E+02  0.00000000000E+00 0.  1.
         11    1    3    3    0    0 -0.37121855870E+01 -0.53251785000E+01 -0.13312168415E+02  0.14810525853E+02  0.51100000000E-03 0. -1.
        -11    1    3    3    0    0 -0.10367043735E+02 -0.76463747389E+00 -0.49442109838E+01  0.11511102848E+02  0.51100000000E-03 0.  1.
         12    1    3    3    0    0 -0.15666977785E+02  0.60968514349E+01 -0.13347205872E+02  0.21465639868E+02  0.00000000000E+00 0. -1.
</event>
<event>
 7    1  0.1427898E-010  0.4778725E+02  0.7816164E-02  0.1312668E+00
        -11   -1    0    0    0    0  0.00000000000E+00  0.00000000000E+00  0.45593999997E+02  0.45594000000E+02  0.51100000000E-03 0.  1.
         11   -1    0    0    0    0 -0.00000000000E+00 -0.00000000000E+00 -0.45593999997E+02  0.45594000000E+02  0.51100000000E-03 0. -1.
    9900012    2    1    2    0    0  0.39249977711E+02 -0.48448269962E+01  0.17877127137E+02  0.47787253767E+02  0.19999921224E+02 0.  0.
        -12    1    1    2    0    0 -0.39249977711E+02  0.48448269962E+01 -0.17877127137E+02  0.43400746233E+02  0.00000000000E+00 0.  1.
         11    1    3    3    0    0  0.77515786096E+01  0.24167078495E+00  0.10638548992E+02  0.13165261130E+02  0.51100000000E-03 0.  1.
        -11    1    3    3    0    0  0.64978873583E+01 -0.54668543452E+01 -0.33019898394E+00  0.84981214502E+01  0.51100000000E-03 0. -1.
        -12    1    3    3    0    0  0.25000511743E+02  0.38035656403E+00  0.75687771290E+01  0.26123871186E+02  0.00000000000E+00 0.  1.
</event>
<event>
 7    1  0.1427898E-010  0.4778727E+02  0.7816164E-02  0.1312668E+00
        -11   -1    0    0    0    0  0.00000000000E+00  0.00000000000E+00  0.45593999997E+02  0.45594000000E+02  0.51100000000E-03 0. -1.
         11   -1    0    0    0    0 -0.00000000000E+00 -0.00000000000E+00 -0.45593999997E+02  0.45594000000E+02  0.51100000000E-03 0.  1.
    9900012    2    1    2    0    0 -0.21473875068E+02  0.14854192689E+02  0.34667692960E+02  0.47787270904E+02  0.19999999360E+02 0.  0.
        -12    1    1    2    0    0  0.21473875068E+02 -0.14854192689E+02 -0.34667692960E+02  0.43400729096E+02  0.00000000000E+00 0.  1.
         11    1    3    3    0    0 -0.82012711941E+01  0.83702971172E+01  0.20218849511E+02  0.23369308908E+02  0.51100000000E-03 0. -1.
        -11    1    3    3    0    0 -0.13453233897E+02  0.94008645582E+00  0.12892113422E+02  0.18656898284E+02  0.51100000000E-03 0.  1.
         12    1    3    3    0    0  0.18063002297E+00  0.55438091158E+01  0.15567300273E+01  0.57610637121E+01  0.00000000000E+00 0. -1.
</event>
<event>
 7    1  0.1427898E-010  0.4778727E+02  0.7816164E-02  0.1312668E+00
        -11   -1    0    0    0    0  0.00000000000E+00  0.00000000000E+00  0.45593999997E+02  0.45594000000E+02  0.51100000000E-03 0.  1.
         11   -1    0    0    0    0 -0.00000000000E+00 -0.00000000000E+00 -0.45593999997E+02  0.45594000000E+02  0.51100000000E-03 0. -1.
    9900012    2    1    2    0    0  0.14204709458E+01 -0.23874190153E+02 -0.36216413519E+02  0.47787270728E+02  0.19999998556E+02 0.  0.
        -12    1    1    2    0    0 -0.14204709458E+01  0.23874190153E+02  0.36216413519E+02  0.43400729272E+02  0.00000000000E+00 0.  1.
         11    1    3    3    0    0  0.11782794146E+01  0.71624009637E+00 -0.15007643948E+02  0.15070856624E+02  0.51100000000E-03 0. -1.
        -11    1    3    3    0    0 -0.94377992411E+00 -0.88685129312E+01 -0.98280528456E+01  0.13271468086E+02  0.51100000000E-03 0.  1.
         12    1    3    3    0    0  0.11859714553E+01 -0.15721917318E+02 -0.11380716726E+02  0.19444946018E+02  0.00000000000E+00 0. -1.
</event>
<event>
 7    1  0.1427898E-010  0.4778727E+02  0.7816164E-02  0.1312668E+00
        -11   -1    0    0    0    0  0.00000000000E+00  0.00000000000E+00  0.45593999997E+02  0.45594000000E+02  0.51100000000E-03 0. -1.
         11   -1    0    0    0    0 -0.00000000000E+00 -0.00000000000E+00 -0.45593999997E+02  0.45594000000E+02  0.51100000000E-03 0.  1.
    9900012    2    1    2    0    0 -0.41429499700E+02 -0.58130637112E+01 -0.11551125222E+02  0.47787266723E+02  0.19999980297E+02 0.  0.
        -12    1    1    2    0    0  0.41429499700E+02  0.58130637112E+01  0.11551125222E+02  0.43400733277E+02  0.00000000000E+00 0.  1.
         11    1    3    3    0    0 -0.23389280186E+02 -0.11665374005E+02 -0.74551667631E+01  0.27179383547E+02  0.51100000000E-03 0. -1.
        -11    1    3    3    0    0 -0.22728381077E+01 -0.13512230595E+01  0.46078770170E+00  0.26840123673E+01  0.51100000000E-03 0.  1.
        -12    1    3    3    0    0 -0.15767381406E+02  0.72035333532E+01 -0.45567461603E+01  0.17923870808E+02  0.00000000000E+00 0.  1.
</event>
<event>
 7    1  0.1427898E-010  0.4778726E+02  0.7816164E-02  0.1312668E+00
        -11   -1    0    0    0    0  0.00000000000E+00  0.00000000000E+00  0.45593999997E+02  0.45594000000E+02  0.51100000000E-03 0.  1.
         11   -1    0    0    0    0 -0.00000000000E+00 -0.00000000000E+00 -0.45593999997E+02  0.45594000000E+02  0.51100000000E-03 0. -1.
    9900012    2    1    2    0    0 -0.18289672038E+02 -0.12103944037E+02 -0.37451387985E+02  0.47787262374E+02  0.19999960467E+02 0.  0.
        -12    1    1    2    0    0  0.18289672038E+02  0.12103944037E+02  0.37451387985E+02  0.43400737626E+02  0.00000000000E+00 0.  1.
         11    1    3    3    0    0 -0.12721813611E+02 -0.52330055240E+01 -0.11900692302E+02  0.18189430059E+02  0.51100000000E-03 0.  1.
        -11    1    3    3    0    0 -0.15535673532E+01 -0.97799565180E+01 -0.18420897656E+02  0.20913885142E+02  0.51100000000E-03 0. -1.
         12    1    3    3    0    0 -0.40142910744E+01  0.29090180055E+01 -0.71297980268E+01  0.86839471722E+01  0.00000000000E+00 0. -1.
</event>
<event>
 7    1  0.1427898E-010  0.4778728E+02  0.7816164E-02  0.1312668E+00
        -11   -1    0    0    0    0  0.00000000000E+00  0.00000000000E+00  0.45593999997E+02  0.45594000000E+02  0.51100000000E-03 0.  1.
         11   -1    0    0    0    0 -0.00000000000E+00 -0.00000000000E+00 -0.45593999997E+02  0.45594000000E+02  0.51100000000E-03 0. -1.
    9900012    2    1    2    0    0  0.30055484158E+02 -0.27261049028E+02 -0.15398876352E+02  0.47787282091E+02  0.20000050367E+02 0.  0.
        -12    1    1    2    0    0 -0.30055484158E+02  0.27261049028E+02  0.15398876352E+02  0.43400717909E+02  0.00000000000E+00 0.  1.
         11    1    3    3    0    0  0.90903778583E+01 -0.91082128544E+00 -0.88193766741E+01  0.12698266425E+02  0.51100000000E-03 0. -1.
        -11    1    3    3    0    0  0.16233553137E+01 -0.66948253202E+01 -0.11732488540E+01  0.69880241612E+01  0.51100000000E-03 0.  1.
         12    1    3    3    0    0  0.19341750986E+02 -0.19655402422E+02 -0.54062508244E+01  0.28100991505E+02  0.00000000000E+00 0. -1.
</event>
<event>
 7    1  0.1427898E-010  0.4778727E+02  0.7816164E-02  0.1312668E+00
        -11   -1    0    0    0    0  0.00000000000E+00  0.00000000000E+00  0.45593999997E+02  0.45594000000E+02  0.51100000000E-03 0.  1.
         11   -1    0    0    0    0 -0.00000000000E+00 -0.00000000000E+00 -0.45593999997E+02  0.45594000000E+02  0.51100000000E-03 0. -1.
    9900012    2    1    2    0    0  0.13629913012E+02  0.36973463585E+02 -0.18188229712E+02  0.47787271455E+02  0.20000001871E+02 0.  0.
        -12    1    1    2    0    0 -0.13629913012E+02 -0.36973463585E+02  0.18188229712E+02  0.43400728545E+02  0.00000000000E+00 0.  1.
         11    1    3    3    0    0  0.20541385223E+01  0.71272300791E+00 -0.15874072355E+01  0.26920849071E+01  0.51100000000E-03 0. -1.
        -11    1    3    3    0    0  0.84661444359E+00 -0.43125382070E+00 -0.50804778927E+01  0.51685579956E+01  0.51100000000E-03 0.  1.
         12    1    3    3    0    0  0.10729160046E+02  0.36691994398E+02 -0.11520344583E+02  0.39926628552E+02  0.00000000000E+00 0. -1.
</event>
<event>
 7    1  0.1427898E-010  0.4778728E+02  0.7816164E-02  0.1312668E+00
        -11   -1    0    0    0    0  0.00000000000E+00  0.00000000000E+00  0.45593999997E+02  0.45594000000E+02  0.51100000000E-03 0.  1.
         11   -1    0    0    0    0 -0.00000000000E+00 -0.00000000000E+00 -0.45593999997E+02  0.45594000000E+02  0.51100000000E-03 0. -1.
    9900012    2    1    2    0    0 -0.18136253420E+02 -0.12347562526E+01 -0.39410336297E+02  0.47787275143E+02  0.20000018686E+02 0.  0.
        -12    1    1    2    0    0  0.18136253420E+02  0.12347562526E+01  0.39410336297E+02  0.43400724857E+02  0.00000000000E+00 0.  1.
         11    1    3    3    0    0 -0.56184220802E+01 -0.20380853812E+01 -0.26757493725E+02  0.27416854842E+02  0.51100000000E-03 0. -1.
        -11    1    3    3    0    0 -0.41962430234E+01 -0.38040333724E+01 -0.79451161096E+01  0.97572534899E+01  0.51100000000E-03 0.  1.
        -12    1    3    3    0    0 -0.83215883162E+01  0.46073625010E+01 -0.47077264620E+01  0.10613166811E+02  0.00000000000E+00 0.  1.
</event>
<event>
 7    1  0.1587343E-010  0.4778726E+02  0.7816164E-02  0.1312668E+00
        -11   -1    0    0    0    0  0.00000000000E+00  0.00000000000E+00  0.45593999997E+02  0.45594000000E+02  0.51100000000E-03 0. -1.
         11   -1    0    0    0    0 -0.00000000000E+00 -0.00000000000E+00 -0.45593999997E+02  0.45594000000E+02  0.51100000000E-03 0.  1.
    9900012    2    1    2    0    0 -0.20461800522E+02  0.32360002504E+00  0.38273151726E+02  0.47787261059E+02  0.19999954473E+02 0.  0.
        -12    1    1    2    0    0  0.20461800522E+02 -0.32360002504E+00 -0.38273151726E+02  0.43400738941E+02  0.00000000000E+00 0.  1.
         11    1    3    3    0    0 -0.16204300885E+02 -0.14263433119E+01  0.28985009537E+02  0.33237698484E+02  0.51100000000E-03 0. -1.
        -11    1    3    3    0    0 -0.22586535356E+01 -0.41415330784E+01  0.24894182329E+01  0.53339493280E+01  0.51100000000E-03 0.  1.
         12    1    3    3    0    0 -0.19988461022E+01  0.58914764153E+01  0.67987239555E+01  0.92156132469E+01  0.00000000000E+00 0. -1.
</event>
<event>
 7    1  0.1427898E-010  0.4778727E+02  0.7816164E-02  0.1312668E+00
        -11   -1    0    0    0    0  0.00000000000E+00  0.00000000000E+00  0.45593999997E+02  0.45594000000E+02  0.51100000000E-03 0. -1.
         11   -1    0    0    0    0 -0.00000000000E+00 -0.00000000000E+00 -0.45593999997E+02  0.45594000000E+02  0.51100000000E-03 0.  1.
    9900012    2    1    2    0    0  0.20912520289E+02  0.25370572279E+02  0.28330619769E+02  0.47787268910E+02  0.19999990271E+02 0.  0.
        -12    1    1    2    0    0 -0.20912520289E+02 -0.25370572279E+02 -0.28330619769E+02  0.43400731090E+02  0.00000000000E+00 0.  1.
         11    1    3    3    0    0  0.96048264718E+01  0.77609899297E+01  0.96895729595E+01  0.15696288754E+02  0.51100000000E-03 0. -1.
        -11    1    3    3    0    0 -0.11100257553E+01  0.11793494885E+02  0.53616825609E+01  0.13002550477E+02  0.51100000000E-03 0.  1.
        -12    1    3    3    0    0  0.12417719573E+02  0.58160874650E+01  0.13279364248E+02  0.19088429680E+02  0.00000000000E+00 0.  1.
</event>
<event>
 7    1  0.1427898E-010  0.4778727E+02  0.7816164E-02  0.1312668E+00
        -11   -1    0    0    0    0  0.00000000000E+00  0.00000000000E+00  0.45593999997E+02  0.45594000000E+02  0.51100000000E-03 0. -1.
         11   -1    0    0    0    0 -0.00000000000E+00 -0.00000000000E+00 -0.45593999997E+02  0.45594000000E+02  0.51100000000E-03 0.  1.
    9900012    2    1    2    0    0  0.40470681840E+02 -0.10891008647E+02  0.11275327579E+02  0.47787272242E+02  0.20000005460E+02 0.  0.
        -12    1    1    2    0    0 -0.40470681840E+02  0.10891008647E+02 -0.11275327579E+02  0.43400727758E+02  0.00000000000E+00 0.  1.
         11    1    3    3    0    0  0.19199290214E+02 -0.34320110745E+01  0.83925185885E+01  0.21232659118E+02  0.51100000000E-03 0. -1.
        -11    1    3    3    0    0  0.69266206694E+01 -0.96469194082E+01  0.91751766136E+00  0.11911463675E+02  0.51100000000E-03 0.  1.
         12    1    3    3    0    0  0.14344770957E+02  0.21879218360E+01  0.19652913292E+01  0.14643149448E+02  0.00000000000E+00 0. -1.
</event>
<event>
 7    1  0.1427898E-010  0.4778727E+02  0.7816164E-02  0.1312668E+00
        -11   -1    0    0    0    0  0.00000000000E+00  0.00000000000E+00  0.45593999997E+02  0.45594000000E+02  0.51100000000E-03 0. -1.
         11   -1    0    0    0    0 -0.00000000000E+00 -0.00000000000E+00 -0.45593999997E+02  0.45594000000E+02  0.51100000000E-03 0.  1.
    9900012    2    1    2    0    0  0.59794539092E+01 -0.42917732470E+02  0.24368166513E+01  0.47787266080E+02  0.19999977364E+02 0.  0.
        -12    1    1    2    0    0 -0.59794539092E+01  0.42917732470E+02 -0.24368166513E+01  0.43400733920E+02  0.00000000000E+00 0.  1.
         11    1    3    3    0    0 -0.42518187709E+00 -0.36617812523E+02 -0.15851316967E+01  0.36654571562E+02  0.51100000000E-03 0. -1.
        -11    1    3    3    0    0  0.29772227076E+01 -0.61785851073E+01  0.33700463299E+01  0.76417263432E+01  0.51100000000E-03 0.  1.
         12    1    3    3    0    0  0.34274130787E+01 -0.12133483956E+00  0.65190201811E+00  0.34909681747E+01  0.00000000000E+00 0. -1.
</event>
<event>
 7    1  0.1427898E-010  0.4778727E+02  0.7816164E-02  0.1312668E+00
        -11   -1    0    0    0    0  0.00000000000E+00  0.00000000000E+00  0.45593999997E+02  0.45594000000E+02  0.51100000000E-03 0. -1.
         11   -1    0    0    0    0 -0.00000000000E+00 -0.00000000000E+00 -0.45593999997E+02  0.45594000000E+02  0.51100000000E-03 0.  1.
    9900012    2    1    2    0    0 -0.20800932257E+02 -0.33254760943E+02  0.18575935812E+02  0.47787270750E+02  0.19999998657E+02 0.  0.
        -12    1    1    2    0    0  0.20800932257E+02  0.33254760943E+02 -0.18575935812E+02  0.43400729250E+02  0.00000000000E+00 0.  1.
         11    1    3    3    0    0 -0.13455252929E+02 -0.81006327563E+01  0.69941268143E+01  0.17192495240E+02  0.51100000000E-03 0. -1.
        -11    1    3    3    0    0 -0.24971275173E+01 -0.73517359795E+00  0.36164987034E+01  0.44559162009E+01  0.51100000000E-03 0.  1.
        -12    1    3    3    0    0 -0.48485518106E+01 -0.24418954589E+02  0.79653102946E+01  0.26138859309E+02  0.00000000000E+00 0.  1.
</event>
<event>
 7    1  0.1427898E-010  0.4778723E+02  0.7816164E-02  0.1312668E+00
        -11   -1    0    0    0    0  0.00000000000E+00  0.00000000000E+00  0.45593999997E+02  0.45594000000E+02  0.51100000000E-03 0. -1.
         11   -1    0    0    0    0 -0.00000000000E+00 -0.00000000000E+00 -0.45593999997E+02  0.45594000000E+02  0.51100000000E-03 0.  1.
    9900012    2    1    2    0    0 -0.22563528822E+01  0.39918997258E+02 -0.16882228195E+02  0.47787226974E+02  0.19999799066E+02 0.  0.
        -12    1    1    2    0    0  0.22563528822E+01 -0.39918997258E+02  0.16882228195E+02  0.43400773026E+02  0.00000000000E+00 0.  1.
         11    1    3    3    0    0 -0.83329890892E+01  0.26247700575E+02 -0.10220051484E+02  0.29373967135E+02  0.51100000000E-03 0. -1.
        -11    1    3    3    0    0  0.26852980026E+01  0.71357055678E+01  0.11128460442E+01  0.77050338022E+01  0.51100000000E-03 0.  1.
        -12    1    3    3    0    0  0.33913382044E+01  0.65355911152E+01 -0.77750227545E+01  0.10708226038E+02  0.00000000000E+00 0.  1.
</event>
<event>
 7    1  0.1427898E-010  0.4778726E+02  0.7816164E-02  0.1312668E+00
        -11   -1    0    0    0    0  0.00000000000E+00  0.00000000000E+00  0.45593999997E+02  0.45594000000E+02  0.51100000000E-03 0.  1.
         11   -1    0    0    0    0 -0.00000000000E+00 -0.00000000000E+00 -0.45593999997E+02  0.45594000000E+02  0.51100000000E-03 0. -1.
    9900012    2    1    2    0    0 -0.40449115738E+02  0.61402601071E+01  0.14484147958E+02  0.47787259220E+02  0.19999946089E+02 0.  0.
        -12    1    1    2    0    0  0.40449115738E+02 -0.61402601071E+01 -0.14484147958E+02  0.43400740780E+02  0.00000000000E+00 0.  1.
         11    1    3    3    0    0 -0.26492394992E+01  0.13378467715E+01 -0.38139354733E+01  0.48326398545E+01  0.51100000000E-03 0. -1.
        -11    1    3    3    0    0 -0.19284330273E+02  0.19184262038E+00  0.57758852574E+01  0.20131642964E+02  0.51100000000E-03 0.  1.
         12    1    3    3    0    0 -0.18515545966E+02  0.46105707153E+01  0.12522198174E+02  0.22822976402E+02  0.00000000000E+00 0. -1.
</event>
<event>
 7    1  0.1427898E-010  0.4778727E+02  0.7816164E-02  0.1312668E+00
        -11   -1    0    0    0    0  0.00000000000E+00  0.00000000000E+00  0.45593999997E+02  0.45594000000E+02  0.51100000000E-03 0. -1.
         11   -1    0    0    0    0 -0.00000000000E+00 -0.00000000000E+00 -0.45593999997E+02  0.45594000000E+02  0.51100000000E-03 0.  1.
    9900012    2    1    2    0    0 -0.24871059901E+02 -0.29250016655E+02  0.20235860572E+02  0.47787272495E+02  0.20000006612E+02 0.  0.
        -12    1    1    2    0    0  0.24871059901E+02  0.29250016655E+02 -0.20235860572E+02  0.43400727505E+02  0.00000000000E+00 0.  1.
         11    1    3    3    0    0 -0.96671560795E+00 -0.10577854030E+02  0.99752346848E+01  0.14571576518E+02  0.51100000000E-03 0. -1.
        -11    1    3    3    0    0 -0.63251654509E+01 -0.58397079673E+00  0.16447627658E+01  0.65615535271E+01  0.51100000000E-03 0.  1.
        -12    1    3    3    0    0 -0.17579178842E+02 -0.18088191828E+02  0.86158631218E+01  0.26654142449E+02  0.00000000000E+00 0.  1.
</event>
<event>
 7    1  0.1427898E-010  0.4778727E+02  0.7816164E-02  0.1312668E+00
        -11   -1    0    0    0    0  0.00000000000E+00  0.00000000000E+00  0.45593999997E+02  0.45594000000E+02  0.51100000000E-03 0.  1.
         11   -1    0    0    0    0 -0.00000000000E+00 -0.00000000000E+00 -0.45593999997E+02  0.45594000000E+02  0.51100000000E-03 0. -1.
    9900012    2    1    2    0    0 -0.33320373018E+02 -0.45986886173E+01 -0.27426772313E+02  0.47787273801E+02  0.20000012570E+02 0.  0.
        -12    1    1    2    0    0  0.33320373018E+02  0.45986886173E+01  0.27426772313E+02  0.43400726199E+02  0.00000000000E+00 0.  1.
         11    1    3    3    0    0 -0.10483335116E+02 -0.21917820585E+01 -0.10698718827E+02  0.15138256457E+02  0.51100000000E-03 0. -1.
        -11    1    3    3    0    0 -0.16279106865E+01  0.48947634467E+01 -0.10023080378E+01  0.52548476729E+01  0.51100000000E-03 0.  1.
         12    1    3    3    0    0 -0.21209127215E+02 -0.73016700055E+01 -0.15725745448E+02  0.27394169672E+02  0.00000000000E+00 0. -1.
</event>
<event>
 7    1  0.1427898E-010  0.4778727E+02  0.7816164E-02  0.1312668E+00
        -11   -1    0    0    0    0  0.00000000000E+00  0.00000000000E+00  0.45593999997E+02  0.45594000000E+02  0.51100000000E-03 0.  1.
         11   -1    0    0    0    0 -0.00000000000E+00 -0.00000000000E+00 -0.45593999997E+02  0.45594000000E+02  0.51100000000E-03 0. -1.
    9900012    2    1    2    0    0 -0.18944382237E+02  0.24604159068E+02  0.30321097789E+02  0.47787271517E+02  0.20000002153E+02 0.  0.
        -12    1    1    2    0    0  0.18944382237E+02 -0.24604159068E+02 -0.30321097789E+02  0.43400728483E+02  0.00000000000E+00 0.  1.
         11    1    3    3    0    0 -0.88306877772E+01  0.11553769955E+01  0.39169104410E+01  0.97292409922E+01  0.51100000000E-03 0.  1.
        -11    1    3    3    0    0 -0.29476296980E+01  0.31624417414E+01  0.45090410529E+00  0.43465933072E+01  0.51100000000E-03 0. -1.
        -12    1    3    3    0    0 -0.71660647615E+01  0.20286340331E+02  0.25953283242E+02  0.33711437217E+02  0.00000000000E+00 0.  1.
</event>
<event>
 7    1  0.1427898E-010  0.4778727E+02  0.7816164E-02  0.1312668E+00
        -11   -1    0    0    0    0  0.00000000000E+00  0.00000000000E+00  0.45593999997E+02  0.45594000000E+02  0.51100000000E-03 0. -1.
         11   -1    0    0    0    0 -0.00000000000E+00 -0.00000000000E+00 -0.45593999997E+02  0.45594000000E+02  0.51100000000E-03 0.  1.
    9900012    2    1    2    0    0  0.15112449736E+02  0.27851708870E+02  0.29656690404E+02  0.47787272935E+02  0.20000008622E+02 0.  0.
        -12    1    1    2    0    0 -0.15112449736E+02 -0.27851708870E+02 -0.29656690404E+02  0.43400727065E+02  0.00000000000E+00 0.  1.
         11    1    3    3    0    0  0.13243416392E+02  0.16993053942E+02  0.25192992712E+02  0.33148738167E+02  0.51100000000E-03 0. -1.
        -11    1    3    3    0    0  0.25865784673E+00  0.10804234105E+02  0.60431982147E+01  0.12382189766E+02  0.51100000000E-03 0.  1.
         12    1    3    3    0    0  0.16103754973E+01  0.54420822906E-01 -0.15795005229E+01  0.22563450024E+01  0.00000000000E+00 0. -1.
</event>
<event>
 7    1  0.1427898E-010  0.4778727E+02  0.7816164E-02  0.1312668E+00
        -11   -1    0    0    0    0  0.00000000000E+00  0.00000000000E+00  0.45593999997E+02  0.45594000000E+02  0.51100000000E-03 0. -1.
         11   -1    0    0    0    0 -0.00000000000E+00 -0.00000000000E+00 -0.45593999997E+02  0.45594000000E+02  0.51100000000E-03 0.  1.
    9900012    2    1    2    0    0  0.27050184791E+02  0.27695119125E+02  0.19618644694E+02  0.47787270280E+02  0.19999996516E+02 0.  0.
        -12    1    1    2    0    0 -0.27050184791E+02 -0.27695119125E+02 -0.19618644694E+02  0.43400729720E+02  0.00000000000E+00 0.  1.
         11    1    3    3    0    0  0.68581139521E+01  0.10979589522E+02  0.70352646673E+01  0.14733637102E+02  0.51100000000E-03 0. -1.
        -11    1    3    3    0    0  0.38987233294E+01  0.12113863446E+02  0.14909771976E+01  0.12812835145E+02  0.51100000000E-03 0.  1.
         12    1    3    3    0    0  0.16293347510E+02  0.46016661567E+01  0.11092402829E+02  0.20240798033E+02  0.00000000000E+00 0. -1.
</event>
<event>
 7    1  0.1427898E-010  0.4778727E+02  0.7816164E-02  0.1312668E+00
        -11   -1    0    0    0    0  0.00000000000E+00  0.00000000000E+00  0.45593999997E+02  0.45594000000E+02  0.51100000000E-03 0.  1.
         11   -1    0    0    0    0 -0.00000000000E+00 -0.00000000000E+00 -0.45593999997E+02  0.45594000000E+02  0.51100000000E-03 0. -1.
    9900012    2    1    2    0    0  0.12117968757E+02  0.23440388952E+02 -0.34457607252E+02  0.47787266152E+02  0.19999977694E+02 0.  0.
        -12    1    1    2    0    0 -0.12117968757E+02 -0.23440388952E+02  0.34457607252E+02  0.43400733848E+02  0.00000000000E+00 0.  1.
         11    1    3    3    0    0  0.21391221980E+01  0.10799455101E+02 -0.16869555758E+02  0.20144130311E+02  0.51100000000E-03 0. -1.
        -11    1    3    3    0    0  0.11564499659E+02  0.11260506985E+02 -0.83580544719E+01  0.18176736362E+02  0.51100000000E-03 0.  1.
         12    1    3    3    0    0 -0.15856531000E+01  0.13804268656E+01 -0.92299970216E+01  0.94663994794E+01  0.00000000000E+00 0. -1.
</event>
<event>
 7    1  0.1427898E-010  0.4778727E+02  0.7816164E-02  0.1312668E+00
        -11   -1    0    0    0    0  0.00000000000E+00  0.00000000000E+00  0.45593999997E+02  0.45594000000E+02  0.51100000000E-03 0. -1.
         11   -1    0    0    0    0 -0.00000000000E+00 -0.00000000000E+00 -0.45593999997E+02  0.45594000000E+02  0.51100000000E-03 0.  1.
    9900012    2    1    2    0    0 -0.19958790968E+02  0.38066477068E+02 -0.60177661662E+01  0.47787268175E+02  0.19999986917E+02 0.  0.
        -12    1    1    2    0    0  0.19958790968E+02 -0.38066477068E+02  0.60177661662E+01  0.43400731825E+02  0.00000000000E+00 0.  1.
         11    1    3    3    0    0 -0.21569596423E+01  0.16684864430E+02 -0.64006849708E+01  0.18000165119E+02  0.51100000000E-03 0. -1.
        -11    1    3    3    0    0 -0.11257126659E+01  0.37858654913E-01  0.23744293391E+01  0.26280367637E+01  0.51100000000E-03 0.  1.
        -12    1    3    3    0    0 -0.16676118660E+02  0.21343753983E+02 -0.19915105345E+01  0.27159066292E+02  0.00000000000E+00 0.  1.
</event>
<event>
 7    1  0.1427898E-010  0.4778727E+02  0.7816164E-02  0.1312668E+00
        -11   -1    0    0    0    0  0.00000000000E+00  0.00000000000E+00  0.45593999997E+02  0.45594000000E+02  0.51100000000E-03 0. -1.
         11   -1    0    0    0    0 -0.00000000000E+00 -0.00000000000E+00 -0.45593999997E+02  0.45594000000E+02  0.51100000000E-03 0.  1.
    9900012    2    1    2    0    0  0.58144877501E+01  0.40185074026E+02  0.15328892984E+02  0.47787269563E+02  0.19999993247E+02 0.  0.
        -12    1    1    2    0    0 -0.58144877501E+01 -0.40185074026E+02 -0.15328892984E+02  0.43400730437E+02  0.00000000000E+00 0.  1.
         11    1    3    3    0    0  0.35720251655E+01  0.21071030201E+02  0.18305000839E+02  0.28139309399E+02  0.51100000000E-03 0. -1.
        -11    1    3    3    0    0  0.22788391718E+01  0.86488073939E+01 -0.17152720264E+01  0.91069827986E+01  0.51100000000E-03 0.  1.
         12    1    3    3    0    0 -0.36376587193E-01  0.10465236432E+02 -0.12608358280E+01  0.10540977365E+02  0.00000000000E+00 0. -1.
</event>
<event>
 7    1  0.1427898E-010  0.4778728E+02  0.7816164E-02  0.1312668E+00
        -11   -1    0    0    0    0  0.00000000000E+00  0.00000000000E+00  0.45593999997E+02  0.45594000000E+02  0.51100000000E-03 0. -1.
         11   -1    0    0    0    0 -0.00000000000E+00 -0.00000000000E+00 -0.45593999997E+02  0.45594000000E+02  0.51100000000E-03 0.  1.
    9900012    2    1    2    0    0 -0.17630704577E+02 -0.19854338799E+01  0.39608572807E+02  0.47787277295E+02  0.20000028497E+02 0.  0.
        -12    1    1    2    0    0  0.17630704577E+02  0.19854338799E+01 -0.39608572807E+02  0.43400722705E+02  0.00000000000E+00 0.  1.
         11    1    3    3    0    0 -0.89565609985E+01  0.52174955586E+01  0.29369495762E+02  0.31144975941E+02  0.51100000000E-03 0. -1.
        -11    1    3    3    0    0 -0.11521333004E+01 -0.70580244013E+00 -0.96836156582E+00  0.16623154363E+01  0.51100000000E-03 0.  1.
         12    1    3    3    0    0 -0.75220102781E+01 -0.64971269983E+01  0.11207438611E+02  0.14979985917E+02  0.00000000000E+00 0. -1.
</event>
<event>
 7    1  0.1427898E-010  0.4778727E+02  0.7816164E-02  0.1312668E+00
        -11   -1    0    0    0    0  0.00000000000E+00  0.00000000000E+00  0.45593999997E+02  0.45594000000E+02  0.51100000000E-03 0.  1.
         11   -1    0    0    0    0 -0.00000000000E+00 -0.00000000000E+00 -0.45593999997E+02  0.45594000000E+02  0.51100000000E-03 0. -1.
    9900012    2    1    2    0    0 -0.41106015332E+02 -0.10335449176E+02 -0.93325904337E+01  0.47787271315E+02  0.20000001235E+02 0.  0.
        -12    1    1    2    0    0  0.41106015332E+02  0.10335449176E+02  0.93325904337E+01  0.43400728685E+02  0.00000000000E+00 0.  1.
         11    1    3    3    0    0 -0.10169169759E+02 -0.58894533817E-02 -0.50804300923E+01  0.11367621495E+02  0.51100000000E-03 0. -1.
        -11    1    3    3    0    0 -0.21721911351E+02 -0.67513057923E+01  0.45336721946E+01  0.23194304181E+02  0.51100000000E-03 0.  1.
        -12    1    3    3    0    0 -0.92149342231E+01 -0.35782539300E+01 -0.87858325360E+01  0.13225345639E+02  0.00000000000E+00 0.  1.
</event>
<event>
 7    1  0.1427898E-010  0.4778727E+02  0.7816164E-02  0.1312668E+00
        -11   -1    0    0    0    0  0.00000000000E+00  0.00000000000E+00  0.45593999997E+02  0.45594000000E+02  0.51100000000E-03 0.  1.
         11   -1    0    0    0    0 -0.00000000000E+00 -0.00000000000E+00 -0.45593999997E+02  0.45594000000E+02  0.51100000000E-03 0. -1.
    9900012    2    1    2    0    0 -0.19925296145E+02 -0.20744541694E+02 -0.32500302028E+02  0.47787273411E+02  0.20000010788E+02 0.  0.
        -12    1    1    2    0    0  0.19925296145E+02  0.20744541694E+02  0.32500302028E+02  0.43400726589E+02  0.00000000000E+00 0.  1.
         11    1    3    3    0    0 -0.91435888425E+01 -0.77252199915E+01 -0.93195574437E+01  0.15170312853E+02  0.51100000000E-03 0. -1.
        -11    1    3    3    0    0 -0.37291834200E+01 -0.11153450933E+02 -0.22375032698E+02  0.25277427978E+02  0.51100000000E-03 0.  1.
        -12    1    3    3    0    0 -0.70525238829E+01 -0.18658707695E+01 -0.80571188669E+00  0.73395325799E+01  0.00000000000E+00 0.  1.
</event>
<event>
 7    1  0.1427898E-010  0.4778727E+02  0.7816164E-02  0.1312668E+00
        -11   -1    0    0    0    0  0.00000000000E+00  0.00000000000E+00  0.45593999997E+02  0.45594000000E+02  0.51100000000E-03 0.  1.
         11   -1    0    0    0    0 -0.00000000000E+00 -0.00000000000E+00 -0.45593999997E+02  0.45594000000E+02  0.51100000000E-03 0. -1.
    9900012    2    1    2    0    0 -0.38280951321E+02  0.96626335575E+01  0.18022916929E+02  0.47787271251E+02  0.20000000943E+02 0.  0.
        -12    1    1    2    0    0  0.38280951321E+02 -0.96626335575E+01 -0.18022916929E+02  0.43400728749E+02  0.00000000000E+00 0.  1.
         11    1    3    3    0    0 -0.70774749905E+01 -0.57523705489E+01  0.15930565571E+01  0.92584150171E+01  0.51100000000E-03 0.  1.
        -11    1    3    3    0    0 -0.16646243523E+02  0.81387103212E+01  0.77543723541E+01  0.20086471069E+02  0.51100000000E-03 0. -1.
        -12    1    3    3    0    0 -0.14557232807E+02  0.72762937852E+01  0.86754880180E+01  0.18442385166E+02  0.00000000000E+00 0.  1.
</event>
<event>
 7    1  0.1427898E-010  0.4778728E+02  0.7816164E-02  0.1312668E+00
        -11   -1    0    0    0    0  0.00000000000E+00  0.00000000000E+00  0.45593999997E+02  0.45594000000E+02  0.51100000000E-03 0.  1.
         11   -1    0    0    0    0 -0.00000000000E+00 -0.00000000000E+00 -0.45593999997E+02  0.45594000000E+02  0.51100000000E-03 0. -1.
    9900012    2    1    2    0    0  0.41667708030E+01 -0.59064381137E+01 -0.42794566356E+02  0.47787275355E+02  0.20000019655E+02 0.  0.
        -12    1    1    2    0    0 -0.41667708030E+01  0.59064381137E+01  0.42794566356E+02  0.43400724645E+02  0.00000000000E+00 0.  1.
         11    1    3    3    0    0 -0.20317060503E+01  0.27527088050E+01 -0.30236911190E+02  0.30429854318E+02  0.51100000000E-03 0. -1.
        -11    1    3    3    0    0  0.31464540342E+01 -0.39931800769E+01 -0.10010907881E+02  0.11227819779E+02  0.51100000000E-03 0.  1.
        -12    1    3    3    0    0  0.30520228191E+01 -0.46659668418E+01 -0.25467472843E+01  0.61296012585E+01  0.00000000000E+00 0.  1.
</event>
<event>
 7    1  0.1427898E-010  0.4778727E+02  0.7816164E-02  0.1312668E+00
        -11   -1    0    0    0    0  0.00000000000E+00  0.00000000000E+00  0.45593999997E+02  0.45594000000E+02  0.51100000000E-03 0.  1.
         11   -1    0    0    0    0 -0.00000000000E+00 -0.00000000000E+00 -0.45593999997E+02  0.45594000000E+02  0.51100000000E-03 0. -1.
    9900012    2    1    2    0    0  0.13170639077E+02  0.38954288840E+02 -0.13882390423E+02  0.47787272856E+02  0.20000008261E+02 0.  0.
        -12    1    1    2    0    0 -0.13170639077E+02 -0.38954288840E+02  0.13882390423E+02  0.43400727144E+02  0.00000000000E+00 0.  1.
         11    1    3    3    0    0  0.72240305406E+01  0.33730885967E+02 -0.70651671767E+01  0.35211871193E+02  0.51100000000E-03 0. -1.
        -11    1    3    3    0    0 -0.15518111396E+01  0.16343066204E+01 -0.15003484871E+01  0.27074197655E+01  0.51100000000E-03 0.  1.
         12    1    3    3    0    0  0.74984196755E+01  0.35890962527E+01 -0.53168747589E+01  0.98679818982E+01  0.00000000000E+00 0. -1.
</event>
<event>
 7    1  0.1427898E-010  0.4778728E+02  0.7816164E-02  0.1312668E+00
        -11   -1    0    0    0    0  0.00000000000E+00  0.00000000000E+00  0.45593999997E+02  0.45594000000E+02  0.51100000000E-03 0. -1.
         11   -1    0    0    0    0 -0.00000000000E+00 -0.00000000000E+00 -0.45593999997E+02  0.45594000000E+02  0.51100000000E-03 0.  1.
    9900012    2    1    2    0    0  0.35932390861E+02 -0.43064746301E+01  0.23957049418E+02  0.47787278191E+02  0.20000032582E+02 0.  0.
        -12    1    1    2    0    0 -0.35932390861E+02  0.43064746301E+01 -0.23957049418E+02  0.43400721809E+02  0.00000000000E+00 0.  1.
         11    1    3    3    0    0  0.83276728767E+01 -0.47953953434E+01  0.67924187507E+01  0.11767875968E+02  0.51100000000E-03 0. -1.
        -11    1    3    3    0    0  0.64308114176E+01  0.61592005528E+01  0.13877051902E+01  0.90120371112E+01  0.51100000000E-03 0.  1.
        -12    1    3    3    0    0  0.21173906567E+02 -0.56702798395E+01  0.15776925477E+02  0.27007365112E+02  0.00000000000E+00 0.  1.
</event>
<event>
 7    1  0.1427898E-010  0.4778727E+02  0.7816164E-02  0.1312668E+00
        -11   -1    0    0    0    0  0.00000000000E+00  0.00000000000E+00  0.45593999997E+02  0.45594000000E+02  0.51100000000E-03 0. -1.
         11   -1    0    0    0    0 -0.00000000000E+00 -0.00000000000E+00 -0.45593999997E+02  0.45594000000E+02  0.51100000000E-03 0.  1.
    9900012    2    1    2    0    0 -0.30737321447E+02 -0.13689717296E+02  0.27412260304E+02  0.47787270694E+02  0.19999998400E+02 0.  0.
        -12    1    1    2    0    0  0.30737321447E+02  0.13689717296E+02 -0.27412260304E+02  0.43400729306E+02  0.00000000000E+00 0.  1.
         11    1    3    3    0    0 -0.23102673318E+01  0.14335417864E+01  0.66271355181E+01  0.71631908137E+01  0.51100000000E-03 0. -1.
        -11    1    3    3    0    0 -0.14388850682E+02 -0.13481042375E+02  0.71177564986E+01  0.20962823887E+02  0.51100000000E-03 0.  1.
         12    1    3    3    0    0 -0.14038203432E+02 -0.16422167079E+01  0.13667368287E+02  0.19661255993E+02  0.00000000000E+00 0. -1.
</event>
<event>
 7    1  0.1427898E-010  0.4778727E+02  0.7816164E-02  0.1312668E+00
        -11   -1    0    0    0    0  0.00000000000E+00  0.00000000000E+00  0.45593999997E+02  0.45594000000E+02  0.51100000000E-03 0.  1.
         11   -1    0    0    0    0 -0.00000000000E+00 -0.00000000000E+00 -0.45593999997E+02  0.45594000000E+02  0.51100000000E-03 0. -1.
    9900012    2    1    2    0    0 -0.38834224868E+02 -0.25904684347E+01 -0.19204567161E+02  0.47787274803E+02  0.20000017137E+02 0.  0.
        -12    1    1    2    0    0  0.38834224868E+02  0.25904684347E+01  0.19204567161E+02  0.43400725197E+02  0.00000000000E+00 0.  1.
         11    1    3    3    0    0 -0.12992541617E+02  0.11020213511E+01 -0.10801473787E+02  0.16931994122E+02  0.51100000000E-03 0. -1.
        -11    1    3    3    0    0 -0.47671119499E+01  0.46475412411E+01 -0.39994419146E+01  0.77666293732E+01  0.51100000000E-03 0.  1.
         12    1    3    3    0    0 -0.21074571301E+02 -0.83400310269E+01 -0.44036514597E+01  0.23088651308E+02  0.00000000000E+00 0. -1.
</event>
<event>
 7    1  0.1427898E-010  0.4778724E+02  0.7816164E-02  0.1312668E+00
        -11   -1    0    0    0    0  0.00000000000E+00  0.00000000000E+00  0.45593999997E+02  0.45594000000E+02  0.51100000000E-03 0.  1.
         11   -1    0    0    0    0 -0.00000000000E+00 -0.00000000000E+00 -0.45593999997E+02  0.45594000000E+02  0.51100000000E-03 0. -1.
    9900012    2    1    2    0    0 -0.11024335969E+00  0.42464216660E+02 -0.89668339625E+01  0.47787240082E+02  0.19999858830E+02 0.  0.
        -12    1    1    2    0    0  0.11024335969E+00 -0.42464216660E+02  0.89668339625E+01  0.43400759918E+02  0.00000000000E+00 0.  1.
         11    1    3    3    0    0  0.45668006931E+01  0.17280635907E+02  0.17943643375E+01  0.17963735401E+02  0.51100000000E-03 0. -1.
        -11    1    3    3    0    0 -0.41607112311E+01  0.19898398065E+01 -0.19430951550E+01  0.50046577752E+01  0.51100000000E-03 0.  1.
         12    1    3    3    0    0 -0.51633282168E+00  0.23193740946E+02 -0.88181031450E+01  0.24818846906E+02  0.00000000000E+00 0. -1.
</event>
<event>
 7    1  0.1427898E-010  0.4778726E+02  0.7816164E-02  0.1312668E+00
        -11   -1    0    0    0    0  0.00000000000E+00  0.00000000000E+00  0.45593999997E+02  0.45594000000E+02  0.51100000000E-03 0.  1.
         11   -1    0    0    0    0 -0.00000000000E+00 -0.00000000000E+00 -0.45593999997E+02  0.45594000000E+02  0.51100000000E-03 0. -1.
    9900012    2    1    2    0    0  0.58174602284E+01 -0.11654147710E+02 -0.41400021936E+02  0.47787264768E+02  0.19999971383E+02 0.  0.
        -12    1    1    2    0    0 -0.58174602284E+01  0.11654147710E+02  0.41400021936E+02  0.43400735232E+02  0.00000000000E+00 0.  1.
         11    1    3    3    0    0  0.10082758984E+02 -0.91367935386E+01 -0.29183254499E+02  0.32199462236E+02  0.51100000000E-03 0. -1.
        -11    1    3    3    0    0 -0.31028612415E+01  0.14570477400E+01 -0.10603333271E+02  0.11143671420E+02  0.51100000000E-03 0.  1.
        -12    1    3    3    0    0 -0.11624375145E+01 -0.39744019115E+01 -0.16134341667E+01  0.44441311118E+01  0.00000000000E+00 0.  1.
</event>
<event>
 7    1  0.1427898E-010  0.4778727E+02  0.7816164E-02  0.1312668E+00
        -11   -1    0    0    0    0  0.00000000000E+00  0.00000000000E+00  0.45593999997E+02  0.45594000000E+02  0.51100000000E-03 0.  1.
         11   -1    0    0    0    0 -0.00000000000E+00 -0.00000000000E+00 -0.45593999997E+02  0.45594000000E+02  0.51100000000E-03 0. -1.
    9900012    2    1    2    0    0 -0.38731841425E+02 -0.93823793262E+01 -0.17188331192E+02  0.47787270615E+02  0.19999998043E+02 0.  0.
        -12    1    1    2    0    0  0.38731841425E+02  0.93823793262E+01  0.17188331192E+02  0.43400729385E+02  0.00000000000E+00 0.  1.
         11    1    3    3    0    0 -0.97849739164E+01 -0.38788644918E+01 -0.95641390064E+00  0.10569107441E+02  0.51100000000E-03 0. -1.
        -11    1    3    3    0    0 -0.29154545230E+01  0.21920263861E+01 -0.80964615529E+01  0.88801770642E+01  0.51100000000E-03 0.  1.
         12    1    3    3    0    0 -0.26031412985E+02 -0.76955412206E+01 -0.81354557388E+01  0.28337986110E+02  0.00000000000E+00 0. -1.
</event>
<event>
 7    1  0.1427898E-010  0.4778727E+02  0.7816164E-02  0.1312668E+00
        -11   -1    0    0    0    0  0.00000000000E+00  0.00000000000E+00  0.45593999997E+02  0.45594000000E+02  0.51100000000E-03 0.  1.
         11   -1    0    0    0    0 -0.00000000000E+00 -0.00000000000E+00 -0.45593999997E+02  0.45594000000E+02  0.51100000000E-03 0. -1.
    9900012    2    1    2    0    0  0.16841482572E+02 -0.32078343784E+00 -0.39998558607E+02  0.47787272726E+02  0.20000007669E+02 0.  0.
        -12    1    1    2    0    0 -0.16841482572E+02  0.32078343784E+00  0.39998558607E+02  0.43400727274E+02  0.00000000000E+00 0.  1.
         11    1    3    3    0    0  0.13369797858E+02 -0.59179633750E+01 -0.28220053454E+02  0.31782781540E+02  0.51100000000E-03 0. -1.
        -11    1    3    3    0    0 -0.20574100248E+01  0.24883981247E+00 -0.17114062056E+00  0.20794582553E+01  0.51100000000E-03 0.  1.
        -12    1    3    3    0    0  0.55290947391E+01  0.53483401247E+01 -0.11607364533E+02  0.13925032931E+02  0.00000000000E+00 0.  1.
</event>
<event>
 7    1  0.1427898E-010  0.4778727E+02  0.7816164E-02  0.1312668E+00
        -11   -1    0    0    0    0  0.00000000000E+00  0.00000000000E+00  0.45593999997E+02  0.45594000000E+02  0.51100000000E-03 0.  1.
         11   -1    0    0    0    0 -0.00000000000E+00 -0.00000000000E+00 -0.45593999997E+02  0.45594000000E+02  0.51100000000E-03 0. -1.
    9900012    2    1    2    0    0  0.23317116222E+02 -0.32843862888E+02 -0.16162175246E+02  0.47787272506E+02  0.20000006662E+02 0.  0.
        -12    1    1    2    0    0 -0.23317116222E+02  0.32843862888E+02  0.16162175246E+02  0.43400727494E+02  0.00000000000E+00 0.  1.
         11    1    3    3    0    0  0.20920336937E+02 -0.14507899273E+02 -0.12882920138E+02  0.28532600134E+02  0.51100000000E-03 0. -1.
        -11    1    3    3    0    0  0.83894764628E+00 -0.23343909715E+01  0.90730479080E+00  0.26412907082E+01  0.51100000000E-03 0.  1.
         12    1    3    3    0    0  0.15578316389E+01 -0.16001572644E+02 -0.41865598991E+01  0.16613381663E+02  0.00000000000E+00 0. -1.
</event>
<event>
 7    1  0.1427898E-010  0.4778727E+02  0.7816164E-02  0.1312668E+00
        -11   -1    0    0    0    0  0.00000000000E+00  0.00000000000E+00  0.45593999997E+02  0.45594000000E+02  0.51100000000E-03 0. -1.
         11   -1    0    0    0    0 -0.00000000000E+00 -0.00000000000E+00 -0.45593999997E+02  0.45594000000E+02  0.51100000000E-03 0.  1.
    9900012    2    1    2    0    0 -0.24595722833E+02  0.30261626581E+02  0.19050137398E+02  0.47787270054E+02  0.19999995483E+02 0.  0.
        -12    1    1    2    0    0  0.24595722833E+02 -0.30261626581E+02 -0.19050137398E+02  0.43400729946E+02  0.00000000000E+00 0.  1.
         11    1    3    3    0    0 -0.15016666192E+01  0.67079123345E+01  0.91873220692E+01  0.11474231024E+02  0.51100000000E-03 0. -1.
        -11    1    3    3    0    0 -0.64226916000E+01  0.24269682580E+01 -0.16182150781E+01  0.70540600092E+01  0.51100000000E-03 0.  1.
         12    1    3    3    0    0 -0.16671364613E+02  0.21126745988E+02  0.11481030407E+02  0.29258979021E+02  0.00000000000E+00 0. -1.
</event>
<event>
 7    1  0.1427898E-010  0.4778727E+02  0.7816164E-02  0.1312668E+00
        -11   -1    0    0    0    0  0.00000000000E+00  0.00000000000E+00  0.45593999997E+02  0.45594000000E+02  0.51100000000E-03 0.  1.
         11   -1    0    0    0    0 -0.00000000000E+00 -0.00000000000E+00 -0.45593999997E+02  0.45594000000E+02  0.51100000000E-03 0. -1.
    9900012    2    1    2    0    0 -0.39742659926E+02  0.75750729406E+01 -0.15708676664E+02  0.47787271083E+02  0.20000000175E+02 0.  0.
        -12    1    1    2    0    0  0.39742659926E+02 -0.75750729406E+01  0.15708676664E+02  0.43400728917E+02  0.00000000000E+00 0.  1.
         11    1    3    3    0    0 -0.34731927613E+02  0.52832176295E+01 -0.86918479804E+01  0.36190708832E+02  0.51100000000E-03 0. -1.
        -11    1    3    3    0    0 -0.26134240486E+01 -0.59675617436E+00  0.90582803747E+00  0.28295985376E+01  0.51100000000E-03 0.  1.
        -12    1    3    3    0    0 -0.23973082643E+01  0.28886114856E+01 -0.79226567208E+01  0.87669637129E+01  0.00000000000E+00 0.  1.
</event>
<event>
 7    1  0.1427898E-010  0.4778727E+02  0.7816164E-02  0.1312668E+00
        -11   -1    0    0    0    0  0.00000000000E+00  0.00000000000E+00  0.45593999997E+02  0.45594000000E+02  0.51100000000E-03 0.  1.
         11   -1    0    0    0    0 -0.00000000000E+00 -0.00000000000E+00 -0.45593999997E+02  0.45594000000E+02  0.51100000000E-03 0. -1.
    9900012    2    1    2    0    0 -0.16352460292E+02 -0.27363536507E+02  0.29452624820E+02  0.47787271935E+02  0.20000004061E+02 0.  0.
        -12    1    1    2    0    0  0.16352460292E+02  0.27363536507E+02 -0.29452624820E+02  0.43400728065E+02  0.00000000000E+00 0.  1.
         11    1    3    3    0    0 -0.16673382457E+01 -0.27988982675E+01 -0.86671810825E+00  0.33712088155E+01  0.51100000000E-03 0. -1.
        -11    1    3    3    0    0 -0.15476340095E+02 -0.26289120832E+02  0.27892191663E+02  0.41335327903E+02  0.51100000000E-03 0.  1.
        -12    1    3    3    0    0  0.79121804866E+00  0.17244825920E+01  0.24271512648E+01  0.30807352163E+01  0.00000000000E+00 0.  1.
</event>
<event>
 7    1  0.1427898E-010  0.4778727E+02  0.7816164E-02  0.1312668E+00
        -11   -1    0    0    0    0  0.00000000000E+00  0.00000000000E+00  0.45593999997E+02  0.45594000000E+02  0.51100000000E-03 0. -1.
         11   -1    0    0    0    0 -0.00000000000E+00 -0.00000000000E+00 -0.45593999997E+02  0.45594000000E+02  0.51100000000E-03 0.  1.
    9900012    2    1    2    0    0 -0.43365328757E+02  0.94125018111E+00  0.14783697729E+01  0.47787271120E+02  0.20000000346E+02 0.  0.
        -12    1    1    2    0    0  0.43365328757E+02 -0.94125018111E+00 -0.14783697729E+01  0.43400728880E+02  0.00000000000E+00 0.  1.
         11    1    3    3    0    0 -0.99469360387E+01 -0.11770967462E+01 -0.37932543946E+01  0.10710549588E+02  0.51100000000E-03 0. -1.
        -11    1    3    3    0    0 -0.15740106070E+02 -0.52836187835E+01  0.65964485903E+01  0.17865629035E+02  0.51100000000E-03 0.  1.
        -12    1    3    3    0    0 -0.17678286648E+02  0.74019657108E+01 -0.13248244228E+01  0.19211092498E+02  0.00000000000E+00 0.  1.
</event>
<event>
 7    1  0.1427898E-010  0.4778727E+02  0.7816164E-02  0.1312668E+00
        -11   -1    0    0    0    0  0.00000000000E+00  0.00000000000E+00  0.45593999997E+02  0.45594000000E+02  0.51100000000E-03 0.  1.
         11   -1    0    0    0    0 -0.00000000000E+00 -0.00000000000E+00 -0.45593999997E+02  0.45594000000E+02  0.51100000000E-03 0. -1.
    9900012    2    1    2    0    0 -0.12309778130E+02 -0.40413045374E+02  0.99437682325E+01  0.47787269584E+02  0.19999993342E+02 0.  0.
        -12    1    1    2    0    0  0.12309778130E+02  0.40413045374E+02 -0.99437682325E+01  0.43400730416E+02  0.00000000000E+00 0.  1.
         11    1    3    3    0    0 -0.35233360030E+01 -0.33342137734E+02  0.47930933984E+01  0.33868654976E+02  0.51100000000E-03 0. -1.
        -11    1    3    3    0    0 -0.69322357231E+01 -0.77647434413E+01  0.26722504533E+01  0.10746536911E+02  0.51100000000E-03 0.  1.
        -12    1    3    3    0    0 -0.18542064036E+01  0.69383580194E+00  0.24784243808E+01  0.31720776974E+01  0.00000000000E+00 0.  1.
</event>
<event>
 7    1  0.1427898E-010  0.4778727E+02  0.7816164E-02  0.1312668E+00
        -11   -1    0    0    0    0  0.00000000000E+00  0.00000000000E+00  0.45593999997E+02  0.45594000000E+02  0.51100000000E-03 0.  1.
         11   -1    0    0    0    0 -0.00000000000E+00 -0.00000000000E+00 -0.45593999997E+02  0.45594000000E+02  0.51100000000E-03 0. -1.
    9900012    2    1    2    0    0  0.35979094792E+02  0.58798658207E+01 -0.23548991800E+02  0.47787273060E+02  0.20000009189E+02 0.  0.
        -12    1    1    2    0    0 -0.35979094792E+02 -0.58798658207E+01  0.23548991800E+02  0.43400726940E+02  0.00000000000E+00 0.  1.
         11    1    3    3    0    0  0.14879449094E+02  0.10020932897E+01 -0.20542219314E+02  0.25384738937E+02  0.51100000000E-03 0. -1.
        -11    1    3    3    0    0  0.29171132764E+01 -0.13549113997E+00  0.10625217272E+01  0.31075489374E+01  0.51100000000E-03 0.  1.
        -12    1    3    3    0    0  0.18182532422E+02  0.50132636710E+01 -0.40692942133E+01  0.19294985185E+02  0.00000000000E+00 0.  1.
</event>
<event>
 7    1  0.1427898E-010  0.4778727E+02  0.7816164E-02  0.1312668E+00
        -11   -1    0    0    0    0  0.00000000000E+00  0.00000000000E+00  0.45593999997E+02  0.45594000000E+02  0.51100000000E-03 0. -1.
         11   -1    0    0    0    0 -0.00000000000E+00 -0.00000000000E+00 -0.45593999997E+02  0.45594000000E+02  0.51100000000E-03 0.  1.
    9900012    2    1    2    0    0 -0.70541756790E+01 -0.39882568699E+02  0.15596230042E+02  0.47787273370E+02  0.20000010601E+02 0.  0.
        -12    1    1    2    0    0  0.70541756790E+01  0.39882568699E+02 -0.15596230042E+02  0.43400726630E+02  0.00000000000E+00 0.  1.
         11    1    3    3    0    0 -0.48969073733E+01 -0.30916555676E+02  0.10439295583E+02  0.32996848474E+02  0.51100000000E-03 0. -1.
        -11    1    3    3    0    0 -0.29931402795E+01 -0.44831594619E+01  0.78288495256E+01  0.95051824101E+01  0.51100000000E-03 0.  1.
         12    1    3    3    0    0  0.83587197384E+00 -0.44828535612E+01 -0.26719150666E+01  0.52852424855E+01  0.00000000000E+00 0. -1.
</event>
<event>
 7    1  0.1427898E-010  0.4778727E+02  0.7816164E-02  0.1312668E+00
        -11   -1    0    0    0    0  0.00000000000E+00  0.00000000000E+00  0.45593999997E+02  0.45594000000E+02  0.51100000000E-03 0. -1.
         11   -1    0    0    0    0 -0.00000000000E+00 -0.00000000000E+00 -0.45593999997E+02  0.45594000000E+02  0.51100000000E-03 0.  1.
    9900012    2    1    2    0    0 -0.30798602067E+02 -0.61618691633E+01  0.29951637868E+02  0.47787272681E+02  0.20000007462E+02 0.  0.
        -12    1    1    2    0    0  0.30798602067E+02  0.61618691633E+01 -0.29951637868E+02  0.43400727319E+02  0.00000000000E+00 0.  1.
         11    1    3    3    0    0 -0.19681695327E+02 -0.59126267115E+01  0.10391087316E+02  0.23028308263E+02  0.51100000000E-03 0. -1.
        -11    1    3    3    0    0 -0.72832292789E+01 -0.45310021312E+01  0.74798068200E+01  0.11380813651E+02  0.51100000000E-03 0.  1.
         12    1    3    3    0    0 -0.38336774609E+01  0.42817596794E+01  0.12080743732E+02  0.13378150767E+02  0.00000000000E+00 0. -1.
</event>
<event>
 7    1  0.1427898E-010  0.4778727E+02  0.7816164E-02  0.1312668E+00
        -11   -1    0    0    0    0  0.00000000000E+00  0.00000000000E+00  0.45593999997E+02  0.45594000000E+02  0.51100000000E-03 0.  1.
         11   -1    0    0    0    0 -0.00000000000E+00 -0.00000000000E+00 -0.45593999997E+02  0.45594000000E+02  0.51100000000E-03 0. -1.
    9900012    2    1    2    0    0 -0.16352046565E+02  0.23759990926E+02 -0.32429876101E+02  0.47787268905E+02  0.19999990246E+02 0.  0.
        -12    1    1    2    0    0  0.16352046565E+02 -0.23759990926E+02  0.32429876101E+02  0.43400731095E+02  0.00000000000E+00 0.  1.
         11    1    3    3    0    0 -0.15327400935E+02  0.16073998175E+02 -0.13000727786E+02  0.25735608794E+02  0.51100000000E-03 0. -1.
        -11    1    3    3    0    0 -0.26462278941E+01  0.82790684861E+01 -0.15807272097E+02  0.18039272393E+02  0.51100000000E-03 0.  1.
        -12    1    3    3    0    0  0.16215822639E+01 -0.59307573503E+00 -0.36218762175E+01  0.40123877182E+01  0.00000000000E+00 0.  1.
</event>
<event>
 7    1  0.1427898E-010  0.4778727E+02  0.7816164E-02  0.1312668E+00
        -11   -1    0    0    0    0  0.00000000000E+00  0.00000000000E+00  0.45593999997E+02  0.45594000000E+02  0.51100000000E-03 0.  1.
         11   -1    0    0    0    0 -0.00000000000E+00 -0.00000000000E+00 -0.45593999997E+02  0.45594000000E+02  0.51100000000E-03 0. -1.
    9900012    2    1    2    0    0 -0.42755034343E+02 -0.68323053181E+01 -0.29916331865E+01  0.47787271588E+02  0.20000002477E+02 0.  0.
        -12    1    1    2    0    0  0.42755034343E+02  0.68323053181E+01  0.29916331865E+01  0.43400728412E+02  0.00000000000E+00 0.  1.
         11    1    3    3    0    0 -0.10877424237E+02 -0.32570432798E+01  0.19384132324E+01  0.11518859973E+02  0.51100000000E-03 0. -1.
        -11    1    3    3    0    0 -0.11814051028E+02  0.64613366178E+01 -0.11054527080E+01  0.13510836337E+02  0.51100000000E-03 0.  1.
         12    1    3    3    0    0 -0.20063559077E+02 -0.10036598656E+02 -0.38245937108E+01  0.22757575277E+02  0.00000000000E+00 0. -1.
</event>
<event>
 7    1  0.1427898E-010  0.4778727E+02  0.7816164E-02  0.1312668E+00
        -11   -1    0    0    0    0  0.00000000000E+00  0.00000000000E+00  0.45593999997E+02  0.45594000000E+02  0.51100000000E-03 0. -1.
         11   -1    0    0    0    0 -0.00000000000E+00 -0.00000000000E+00 -0.45593999997E+02  0.45594000000E+02  0.51100000000E-03 0.  1.
    9900012    2    1    2    0    0  0.11814319429E+02 -0.71470679673E+01  0.41145655470E+02  0.47787266272E+02  0.19999978241E+02 0.  0.
        -12    1    1    2    0    0 -0.11814319429E+02  0.71470679673E+01 -0.41145655470E+02  0.43400733728E+02  0.00000000000E+00 0.  1.
         11    1    3    3    0    0  0.20979686363E+01 -0.46624586198E+01  0.45514644547E+01  0.68451312423E+01  0.51100000000E-03 0. -1.
        -11    1    3    3    0    0  0.31692642367E+01 -0.27553641389E+01  0.46693769403E+00  0.42254347008E+01  0.51100000000E-03 0.  1.
        -12    1    3    3    0    0  0.65470865556E+01  0.27075479142E+00  0.36127253321E+02  0.36716700329E+02  0.00000000000E+00 0.  1.
</event>
<event>
 7    1  0.1427898E-010  0.4778727E+02  0.7816164E-02  0.1312668E+00
        -11   -1    0    0    0    0  0.00000000000E+00  0.00000000000E+00  0.45593999997E+02  0.45594000000E+02  0.51100000000E-03 0.  1.
         11   -1    0    0    0    0 -0.00000000000E+00 -0.00000000000E+00 -0.45593999997E+02  0.45594000000E+02  0.51100000000E-03 0. -1.
    9900012    2    1    2    0    0 -0.38134316961E+02  0.99578511361E+00 -0.20697960851E+02  0.47787270727E+02  0.19999998552E+02 0.  0.
        -12    1    1    2    0    0  0.38134316961E+02 -0.99578511361E+00  0.20697960851E+02  0.43400729273E+02  0.00000000000E+00 0.  1.
         11    1    3    3    0    0 -0.16072916911E+02 -0.48019297179E+00 -0.16146075258E+02  0.22787386638E+02  0.51100000000E-03 0. -1.
        -11    1    3    3    0    0 -0.21926060734E+02  0.14733016184E+01 -0.66016251452E+01  0.22945679589E+02  0.51100000000E-03 0.  1.
         12    1    3    3    0    0 -0.13533931602E+00  0.26764669805E-02  0.20497395523E+01  0.20542044996E+01  0.00000000000E+00 0. -1.
</event>
<event>
 7    1  0.1427898E-010  0.4778727E+02  0.7816164E-02  0.1312668E+00
        -11   -1    0    0    0    0  0.00000000000E+00  0.00000000000E+00  0.45593999997E+02  0.45594000000E+02  0.51100000000E-03 0.  1.
         11   -1    0    0    0    0 -0.00000000000E+00 -0.00000000000E+00 -0.45593999997E+02  0.45594000000E+02  0.51100000000E-03 0. -1.
    9900012    2    1    2    0    0  0.35640385052E+02  0.77490525222E+01 -0.23523149434E+02  0.47787269350E+02  0.19999992275E+02 0.  0.
        -12    1    1    2    0    0 -0.35640385052E+02 -0.77490525222E+01  0.23523149434E+02  0.43400730650E+02  0.00000000000E+00 0.  1.
         11    1    3    3    0    0  0.78209823562E+00  0.32874597215E+01 -0.61743359369E+01  0.70385718434E+01  0.51100000000E-03 0. -1.
        -11    1    3    3    0    0  0.92310904530E+01 -0.24091107096E+01 -0.10205773742E+01  0.95947081144E+01  0.51100000000E-03 0.  1.
         12    1    3    3    0    0  0.25627196364E+02  0.68707035103E+01 -0.16328236122E+02  0.31153989392E+02  0.00000000000E+00 0. -1.
</event>
<event>
 7    1  0.1427898E-010  0.4778727E+02  0.7816164E-02  0.1312668E+00
        -11   -1    0    0    0    0  0.00000000000E+00  0.00000000000E+00  0.45593999997E+02  0.45594000000E+02  0.51100000000E-03 0. -1.
         11   -1    0    0    0    0 -0.00000000000E+00 -0.00000000000E+00 -0.45593999997E+02  0.45594000000E+02  0.51100000000E-03 0.  1.
    9900012    2    1    2    0    0  0.14519707610E+02  0.19443910102E+02  0.35982436760E+02  0.47787270694E+02  0.19999998402E+02 0.  0.
        -12    1    1    2    0    0 -0.14519707610E+02 -0.19443910102E+02 -0.35982436760E+02  0.43400729306E+02  0.00000000000E+00 0.  1.
         11    1    3    3    0    0 -0.34542530246E+00  0.65767711023E+01  0.15394084148E+02  0.16743687282E+02  0.51100000000E-03 0. -1.
        -11    1    3    3    0    0  0.93876733120E+01  0.14516905787E+02  0.13497388860E+02  0.21932817196E+02  0.51100000000E-03 0.  1.
        -12    1    3    3    0    0  0.54774596004E+01 -0.16497667871E+01  0.70909637516E+01  0.91107662166E+01  0.00000000000E+00 0.  1.
</event>
<event>
 7    1  0.1427898E-010  0.4778727E+02  0.7816164E-02  0.1312668E+00
        -11   -1    0    0    0    0  0.00000000000E+00  0.00000000000E+00  0.45593999997E+02  0.45594000000E+02  0.51100000000E-03 0.  1.
         11   -1    0    0    0    0 -0.00000000000E+00 -0.00000000000E+00 -0.45593999997E+02  0.45594000000E+02  0.51100000000E-03 0. -1.
    9900012    2    1    2    0    0  0.31104916654E+02 -0.83188177245E+01 -0.29101626858E+02  0.47787271272E+02  0.20000001036E+02 0.  0.
        -12    1    1    2    0    0 -0.31104916654E+02  0.83188177245E+01  0.29101626858E+02  0.43400728728E+02  0.00000000000E+00 0.  1.
         11    1    3    3    0    0  0.74175204013E+01 -0.77822762040E+01 -0.72250325554E+01  0.12953166698E+02  0.51100000000E-03 0.  1.
        -11    1    3    3    0    0  0.13085211252E+02  0.27031821659E+01 -0.19264117980E+02  0.23444321042E+02  0.51100000000E-03 0. -1.
         12    1    3    3    0    0  0.10602185001E+02 -0.32397236864E+01 -0.26124763226E+01  0.11389783532E+02  0.00000000000E+00 0. -1.
</event>
<event>
 7    1  0.1427898E-010  0.4778727E+02  0.7816164E-02  0.1312668E+00
        -11   -1    0    0    0    0  0.00000000000E+00  0.00000000000E+00  0.45593999997E+02  0.45594000000E+02  0.51100000000E-03 0.  1.
         11   -1    0    0    0    0 -0.00000000000E+00 -0.00000000000E+00 -0.45593999997E+02  0.45594000000E+02  0.51100000000E-03 0. -1.
    9900012    2    1    2    0    0 -0.13357094258E+02  0.19785979399E+02 -0.36245362863E+02  0.47787271010E+02  0.19999999845E+02 0.  0.
        -12    1    1    2    0    0  0.13357094258E+02 -0.19785979399E+02  0.36245362863E+02  0.43400728990E+02  0.00000000000E+00 0.  1.
         11    1    3    3    0    0 -0.10791235501E+02  0.55369805058E+01 -0.13084015718E+02  0.17840974870E+02  0.51100000000E-03 0. -1.
        -11    1    3    3    0    0 -0.75392380072E+00  0.54544257962E+01 -0.19477257248E+02  0.20240620347E+02  0.51100000000E-03 0.  1.
        -12    1    3    3    0    0 -0.18119349567E+01  0.87945730965E+01 -0.36840898972E+01  0.97056757935E+01  0.00000000000E+00 0.  1.
</event>
<event>
 7    1  0.1427898E-010  0.4778726E+02  0.7816164E-02  0.1312668E+00
        -11   -1    0    0    0    0  0.00000000000E+00  0.00000000000E+00  0.45593999997E+02  0.45594000000E+02  0.51100000000E-03 0. -1.
         11   -1    0    0    0    0 -0.00000000000E+00 -0.00000000000E+00 -0.45593999997E+02  0.45594000000E+02  0.51100000000E-03 0.  1.
    9900012    2    1    2    0    0 -0.11374752992E+02  0.41518535836E+02  0.55181560109E+01  0.47787264184E+02  0.19999968721E+02 0.  0.
        -12    1    1    2    0    0  0.11374752992E+02 -0.41518535836E+02 -0.55181560109E+01  0.43400735816E+02  0.00000000000E+00 0.  1.
         11    1    3    3    0    0 -0.39069768011E+01  0.34407983826E+02  0.22646969116E+01  0.34703064289E+02  0.51100000000E-03 0. -1.
        -11    1    3    3    0    0 -0.14721750737E+01  0.60828837256E+01  0.16180034688E+00  0.62605873111E+01  0.51100000000E-03 0.  1.
        -12    1    3    3    0    0 -0.59956011170E+01  0.10276682848E+01  0.30916587523E+01  0.68236125842E+01  0.00000000000E+00 0.  1.
</event>
<event>
 7    1  0.1427898E-010  0.4778724E+02  0.7816164E-02  0.1312668E+00
        -11   -1    0    0    0    0  0.00000000000E+00  0.00000000000E+00  0.45593999997E+02  0.45594000000E+02  0.51100000000E-03 0.  1.
         11   -1    0    0    0    0 -0.00000000000E+00 -0.00000000000E+00 -0.45593999997E+02  0.45594000000E+02  0.51100000000E-03 0. -1.
    9900012    2    1    2    0    0  0.19098060882E+02 -0.34064911878E+02 -0.18933361616E+02  0.47787235804E+02  0.19999839324E+02 0.  0.
        -12    1    1    2    0    0 -0.19098060882E+02  0.34064911878E+02  0.18933361616E+02  0.43400764196E+02  0.00000000000E+00 0.  1.
         11    1    3    3    0    0  0.10947893065E+02 -0.18167634657E+02 -0.90240619514E+01  0.23051095547E+02  0.51100000000E-03 0. -1.
        -11    1    3    3    0    0  0.56856365072E+01  0.82282820222E+00 -0.20779867290E+01  0.61091356058E+01  0.51100000000E-03 0.  1.
         12    1    3    3    0    0  0.24645313100E+01 -0.16720105424E+02 -0.78313129357E+01  0.18627004651E+02  0.00000000000E+00 0. -1.
</event>
<event>
 7    1  0.1427898E-010  0.4778728E+02  0.7816164E-02  0.1312668E+00
        -11   -1    0    0    0    0  0.00000000000E+00  0.00000000000E+00  0.45593999997E+02  0.45594000000E+02  0.51100000000E-03 0.  1.
         11   -1    0    0    0    0 -0.00000000000E+00 -0.00000000000E+00 -0.45593999997E+02  0.45594000000E+02  0.51100000000E-03 0. -1.
    9900012    2    1    2    0    0  0.16968185698E+02  0.28870248106E+02 -0.27608188663E+02  0.47787278429E+02  0.20000033670E+02 0.  0.
        -12    1    1    2    0    0 -0.16968185698E+02 -0.28870248106E+02  0.27608188663E+02  0.43400721571E+02  0.00000000000E+00 0.  1.
         11    1    3    3    0    0  0.12047936433E+02  0.24237930878E+02 -0.24332340562E+02  0.36396330351E+02  0.51100000000E-03 0. -1.
        -11    1    3    3    0    0  0.56856675233E+01 -0.40930161504E-02 -0.35171424273E+01  0.66855907034E+01  0.51100000000E-03 0.  1.
        -12    1    3    3    0    0 -0.76541825848E+00  0.46364102448E+01  0.24129432646E+00  0.47053573744E+01  0.00000000000E+00 0.  1.
</event>
<event>
 7    1  0.1427898E-010  0.4778727E+02  0.7816164E-02  0.1312668E+00
        -11   -1    0    0    0    0  0.00000000000E+00  0.00000000000E+00  0.45593999997E+02  0.45594000000E+02  0.51100000000E-03 0.  1.
         11   -1    0    0    0    0 -0.00000000000E+00 -0.00000000000E+00 -0.45593999997E+02  0.45594000000E+02  0.51100000000E-03 0. -1.
    9900012    2    1    2    0    0  0.13537178583E+02 -0.27674997349E+00 -0.41234591952E+02  0.47787269960E+02  0.19999995057E+02 0.  0.
        -12    1    1    2    0    0 -0.13537178583E+02  0.27674997349E+00  0.41234591952E+02  0.43400730040E+02  0.00000000000E+00 0.  1.
         11    1    3    3    0    0 -0.20242012284E+01 -0.41888560149E+01 -0.11060983965E+02  0.11999552986E+02  0.51100000000E-03 0. -1.
        -11    1    3    3    0    0  0.59669756205E+01  0.17943581247E+00 -0.29020173310E+01  0.66376727938E+01  0.51100000000E-03 0.  1.
         12    1    3    3    0    0  0.95944041911E+01  0.37326702290E+01 -0.27271590656E+02  0.29150044181E+02  0.00000000000E+00 0. -1.
</event>
<event>
 7    1  0.1427898E-010  0.4778725E+02  0.7816164E-02  0.1312668E+00
        -11   -1    0    0    0    0  0.00000000000E+00  0.00000000000E+00  0.45593999997E+02  0.45594000000E+02  0.51100000000E-03 0.  1.
         11   -1    0    0    0    0 -0.00000000000E+00 -0.00000000000E+00 -0.45593999997E+02  0.45594000000E+02  0.51100000000E-03 0. -1.
    9900012    2    1    2    0    0 -0.24497808973E+02 -0.18058669934E+02 -0.30941351153E+02  0.47787246373E+02  0.19999887511E+02 0.  0.
        -12    1    1    2    0    0  0.24497808973E+02  0.18058669934E+02  0.30941351153E+02  0.43400753627E+02  0.00000000000E+00 0.  1.
         11    1    3    3    0    0  0.20749309916E+01 -0.56050757064E+01 -0.82322968853E+01  0.10173147230E+02  0.51100000000E-03 0. -1.
        -11    1    3    3    0    0 -0.92285876532E+01 -0.67667139506E+01 -0.62638710524E+01  0.13045739863E+02  0.51100000000E-03 0.  1.
         12    1    3    3    0    0 -0.17344152311E+02 -0.56868802771E+01 -0.16445183215E+02  0.24568359279E+02  0.00000000000E+00 0. -1.
</event>
<event>
 7    1  0.1427898E-010  0.4778727E+02  0.7816164E-02  0.1312668E+00
        -11   -1    0    0    0    0  0.00000000000E+00  0.00000000000E+00  0.45593999997E+02  0.45594000000E+02  0.51100000000E-03 0. -1.
         11   -1    0    0    0    0 -0.00000000000E+00 -0.00000000000E+00 -0.45593999997E+02  0.45594000000E+02  0.51100000000E-03 0.  1.
    9900012    2    1    2    0    0  0.33584748688E+02  0.17232471994E+02  0.21417976209E+02  0.47787272583E+02  0.20000007015E+02 0.  0.
        -12    1    1    2    0    0 -0.33584748688E+02 -0.17232471994E+02 -0.21417976209E+02  0.43400727417E+02  0.00000000000E+00 0.  1.
         11    1    3    3    0    0 -0.48925431015E-01  0.17329615832E+01 -0.10924235460E+01  0.20491312822E+01  0.51100000000E-03 0.  1.
        -11    1    3    3    0    0  0.27716411037E+02  0.17738427339E+02  0.15758673932E+02  0.36485436130E+02  0.51100000000E-03 0. -1.
         12    1    3    3    0    0  0.59172630814E+01 -0.22389169281E+01  0.67517258233E+01  0.92527051708E+01  0.00000000000E+00 0. -1.
</event>
<event>
 7    1  0.1427898E-010  0.4778727E+02  0.7816164E-02  0.1312668E+00
        -11   -1    0    0    0    0  0.00000000000E+00  0.00000000000E+00  0.45593999997E+02  0.45594000000E+02  0.51100000000E-03 0.  1.
         11   -1    0    0    0    0 -0.00000000000E+00 -0.00000000000E+00 -0.45593999997E+02  0.45594000000E+02  0.51100000000E-03 0. -1.
    9900012    2    1    2    0    0  0.13215407009E+02 -0.35324691922E+02 -0.21474235406E+02  0.47787266964E+02  0.19999981393E+02 0.  0.
        -12    1    1    2    0    0 -0.13215407009E+02  0.35324691922E+02  0.21474235406E+02  0.43400733036E+02  0.00000000000E+00 0.  1.
         11    1    3    3    0    0  0.61377025495E+01 -0.17131782983E+02 -0.64132994250E+01  0.19295071665E+02  0.51100000000E-03 0. -1.
        -11    1    3    3    0    0  0.50300315914E+01 -0.16184562413E+02 -0.17763290611E+02  0.24551492254E+02  0.51100000000E-03 0.  1.
        -12    1    3    3    0    0  0.20476728679E+01 -0.20083465262E+01  0.27023546296E+01  0.39407030448E+01  0.00000000000E+00 0.  1.
</event>
<event>
 7    1  0.1427898E-010  0.4778727E+02  0.7816164E-02  0.1312668E+00
        -11   -1    0    0    0    0  0.00000000000E+00  0.00000000000E+00  0.45593999997E+02  0.45594000000E+02  0.51100000000E-03 0.  1.
         11   -1    0    0    0    0 -0.00000000000E+00 -0.00000000000E+00 -0.45593999997E+02  0.45594000000E+02  0.51100000000E-03 0. -1.
    9900012    2    1    2    0    0  0.20727155380E+02 -0.21411812057E+02 -0.31552218563E+02  0.47787272334E+02  0.20000005878E+02 0.  0.
        -12    1    1    2    0    0 -0.20727155380E+02  0.21411812057E+02  0.31552218563E+02  0.43400727666E+02  0.00000000000E+00 0.  1.
         11    1    3    3    0    0  0.41769949800E+01 -0.26226380545E+01 -0.12367862869E+02  0.13315012191E+02  0.51100000000E-03 0. -1.
        -11    1    3    3    0    0  0.86449681843E+00 -0.21100599927E+01  0.21814093314E+01  0.31556702702E+01  0.51100000000E-03 0.  1.
         12    1    3    3    0    0  0.15685663581E+02 -0.16679114010E+02 -0.21365765026E+02  0.31316589873E+02  0.00000000000E+00 0. -1.
</event>
<event>
 7    1  0.1427898E-010  0.4778727E+02  0.7816164E-02  0.1312668E+00
        -11   -1    0    0    0    0  0.00000000000E+00  0.00000000000E+00  0.45593999997E+02  0.45594000000E+02  0.51100000000E-03 0.  1.
         11   -1    0    0    0    0 -0.00000000000E+00 -0.00000000000E+00 -0.45593999997E+02  0.45594000000E+02  0.51100000000E-03 0. -1.
    9900012    2    1    2    0    0  0.27958401261E+02  0.14023491391E+02 -0.30088081873E+02  0.47787272095E+02  0.20000004791E+02 0.  0.
        -12    1    1    2    0    0 -0.27958401261E+02 -0.14023491391E+02  0.30088081873E+02  0.43400727905E+02  0.00000000000E+00 0.  1.
         11    1    3    3    0    0  0.91596918145E+01  0.40303560574E+01 -0.13012095333E+02  0.16415186545E+02  0.51100000000E-03 0. -1.
        -11    1    3    3    0    0 -0.17717776305E+01  0.47699412735E+01 -0.30397857775E+01  0.59272112801E+01  0.51100000000E-03 0.  1.
         12    1    3    3    0    0  0.20570487077E+02  0.52231940603E+01 -0.14036200762E+02  0.25444874270E+02  0.00000000000E+00 0. -1.
</event>
<event>
 7    1  0.1427898E-010  0.4778727E+02  0.7816164E-02  0.1312668E+00
        -11   -1    0    0    0    0  0.00000000000E+00  0.00000000000E+00  0.45593999997E+02  0.45594000000E+02  0.51100000000E-03 0. -1.
         11   -1    0    0    0    0 -0.00000000000E+00 -0.00000000000E+00 -0.45593999997E+02  0.45594000000E+02  0.51100000000E-03 0.  1.
    9900012    2    1    2    0    0  0.13831570898E+02 -0.17412189727E+02  0.37270990800E+02  0.47787268902E+02  0.19999990233E+02 0.  0.
        -12    1    1    2    0    0 -0.13831570898E+02  0.17412189727E+02 -0.37270990800E+02  0.43400731098E+02  0.00000000000E+00 0.  1.
         11    1    3    3    0    0  0.11433883986E+02 -0.13787685549E+02  0.33098872672E+02  0.37634682783E+02  0.51100000000E-03 0. -1.
        -11    1    3    3    0    0 -0.16634190205E+00 -0.43085468278E+01  0.56560841650E+01  0.71121398846E+01  0.51100000000E-03 0.  1.
        -12    1    3    3    0    0  0.25640288140E+01  0.68404264992E+00 -0.14839660364E+01  0.30404462343E+01  0.00000000000E+00 0.  1.
</event>
<event>
 7    1  0.1427898E-010  0.4778728E+02  0.7816164E-02  0.1312668E+00
        -11   -1    0    0    0    0  0.00000000000E+00  0.00000000000E+00  0.45593999997E+02  0.45594000000E+02  0.51100000000E-03 0.  1.
         11   -1    0    0    0    0 -0.00000000000E+00 -0.00000000000E+00 -0.45593999997E+02  0.45594000000E+02  0.51100000000E-03 0. -1.
    9900012    2    1    2    0    0  0.45777478849E+01 -0.29113168788E+02 -0.31860484279E+02  0.47787276145E+02  0.20000023257E+02 0.  0.
        -12    1    1    2    0    0 -0.45777478849E+01  0.29113168788E+02  0.31860484279E+02  0.43400723855E+02  0.00000000000E+00 0.  1.
         11    1    3    3    0    0  0.33548995041E+01 -0.64706746933E+01 -0.13921523619E+02  0.15714127459E+02  0.51100000000E-03 0. -1.
        -11    1    3    3    0    0  0.30129538544E+00 -0.56042945568E+01 -0.13231496083E+02  0.14372591459E+02  0.51100000000E-03 0.  1.
        -12    1    3    3    0    0  0.92155299536E+00 -0.17038199538E+02 -0.47074645779E+01  0.17700557228E+02  0.00000000000E+00 0.  1.
</event>
<event>
 7    1  0.1427898E-010  0.4778728E+02  0.7816164E-02  0.1312668E+00
        -11   -1    0    0    0    0  0.00000000000E+00  0.00000000000E+00  0.45593999997E+02  0.45594000000E+02  0.51100000000E-03 0.  1.
         11   -1    0    0    0    0 -0.00000000000E+00 -0.00000000000E+00 -0.45593999997E+02  0.45594000000E+02  0.51100000000E-03 0. -1.
    9900012    2    1    2    0    0 -0.16845057947E+01  0.67862834213E+01 -0.42833767228E+02  0.47787276304E+02  0.20000023978E+02 0.  0.
        -12    1    1    2    0    0  0.16845057947E+01 -0.67862834213E+01  0.42833767228E+02  0.43400723696E+02  0.00000000000E+00 0.  1.
         11    1    3    3    0    0  0.12542994596E+00  0.47764190532E+01 -0.37479477361E+02  0.37782815342E+02  0.51100000000E-03 0. -1.
        -11    1    3    3    0    0  0.27033074992E+01 -0.94318691989E+00 -0.87606136490E+00  0.29941537665E+01  0.51100000000E-03 0.  1.
        -12    1    3    3    0    0 -0.45132432399E+01  0.29530512880E+01 -0.44782285016E+01  0.70103071947E+01  0.00000000000E+00 0.  1.
</event>
<event>
 7    1  0.1427898E-010  0.4778727E+02  0.7816164E-02  0.1312668E+00
        -11   -1    0    0    0    0  0.00000000000E+00  0.00000000000E+00  0.45593999997E+02  0.45594000000E+02  0.51100000000E-03 0. -1.
         11   -1    0    0    0    0 -0.00000000000E+00 -0.00000000000E+00 -0.45593999997E+02  0.45594000000E+02  0.51100000000E-03 0.  1.
    9900012    2    1    2    0    0  0.14860847156E+02  0.10687288882E+02  0.39351751147E+02  0.47787271432E+02  0.20000001769E+02 0.  0.
        -12    1    1    2    0    0 -0.14860847156E+02 -0.10687288882E+02 -0.39351751147E+02  0.43400728568E+02  0.00000000000E+00 0.  1.
         11    1    3    3    0    0  0.65844305347E+01 -0.28440217540E+01  0.58336176483E+01  0.92452301395E+01  0.51100000000E-03 0. -1.
        -11    1    3    3    0    0 -0.24200239933E+00  0.85722629984E+01  0.10897231462E+02  0.13866935922E+02  0.51100000000E-03 0.  1.
         12    1    3    3    0    0  0.85184190206E+01  0.49590476380E+01  0.22620902037E+02  0.24675105371E+02  0.00000000000E+00 0. -1.
</event>
<event>
 7    1  0.1427898E-010  0.4778727E+02  0.7816164E-02  0.1312668E+00
        -11   -1    0    0    0    0  0.00000000000E+00  0.00000000000E+00  0.45593999997E+02  0.45594000000E+02  0.51100000000E-03 0.  1.
         11   -1    0    0    0    0 -0.00000000000E+00 -0.00000000000E+00 -0.45593999997E+02  0.45594000000E+02  0.51100000000E-03 0. -1.
    9900012    2    1    2    0    0  0.19986207286E+02  0.23128451986E+02 -0.30809896938E+02  0.47787268183E+02  0.19999986953E+02 0.  0.
        -12    1    1    2    0    0 -0.19986207286E+02 -0.23128451986E+02  0.30809896938E+02  0.43400731817E+02  0.00000000000E+00 0.  1.
         11    1    3    3    0    0  0.88632351446E+01  0.14222543046E+02 -0.12865015804E+02  0.21126909377E+02  0.51100000000E-03 0. -1.
        -11    1    3    3    0    0 -0.10807050418E+01  0.47799369084E+00  0.16847635757E+01  0.20578702396E+01  0.51100000000E-03 0.  1.
         12    1    3    3    0    0  0.12203677183E+02  0.84279152493E+01 -0.19629644710E+02  0.24602488567E+02  0.00000000000E+00 0. -1.
</event>
<event>
 7    1  0.1427898E-010  0.4778727E+02  0.7816164E-02  0.1312668E+00
        -11   -1    0    0    0    0  0.00000000000E+00  0.00000000000E+00  0.45593999997E+02  0.45594000000E+02  0.51100000000E-03 0.  1.
         11   -1    0    0    0    0 -0.00000000000E+00 -0.00000000000E+00 -0.45593999997E+02  0.45594000000E+02  0.51100000000E-03 0. -1.
    9900012    2    1    2    0    0 -0.66386844751E+01 -0.22440741902E+02 -0.36550849358E+02  0.47787267086E+02  0.19999981952E+02 0.  0.
        -12    1    1    2    0    0  0.66386844751E+01  0.22440741902E+02  0.36550849358E+02  0.43400732914E+02  0.00000000000E+00 0.  1.
         11    1    3    3    0    0 -0.73149871723E+01 -0.12533610497E+02 -0.21995436534E+02  0.26351464058E+02  0.51100000000E-03 0. -1.
        -11    1    3    3    0    0 -0.24301148151E+01  0.12158254315E+01  0.16924227525E+00  0.27225599540E+01  0.51100000000E-03 0.  1.
         12    1    3    3    0    0  0.31064175122E+01 -0.11122956836E+02 -0.14724655100E+02  0.18713243074E+02  0.00000000000E+00 0. -1.
</event>
<event>
 7    1  0.1427898E-010  0.4778727E+02  0.7816164E-02  0.1312668E+00
        -11   -1    0    0    0    0  0.00000000000E+00  0.00000000000E+00  0.45593999997E+02  0.45594000000E+02  0.51100000000E-03 0.  1.
         11   -1    0    0    0    0 -0.00000000000E+00 -0.00000000000E+00 -0.45593999997E+02  0.45594000000E+02  0.51100000000E-03 0. -1.
    9900012    2    1    2    0    0 -0.24543808756E+02  0.16292807097E+02 -0.31871132396E+02  0.47787271992E+02  0.20000004322E+02 0.  0.
        -12    1    1    2    0    0  0.24543808756E+02 -0.16292807097E+02  0.31871132396E+02  0.43400728008E+02  0.00000000000E+00 0.  1.
         11    1    3    3    0    0 -0.48068662114E+01  0.71775383841E+01 -0.15257431556E+02  0.17533175354E+02  0.51100000000E-03 0. -1.
        -11    1    3    3    0    0 -0.21037366639E+02  0.95632329727E+01 -0.17150257648E+02  0.28777726763E+02  0.51100000000E-03 0.  1.
         12    1    3    3    0    0  0.13004240938E+01 -0.44796425972E+00  0.53655680822E+00  0.14763698758E+01  0.00000000000E+00 0. -1.
</event>
<event>
 7    1  0.1427898E-010  0.4778728E+02  0.7816164E-02  0.1312668E+00
        -11   -1    0    0    0    0  0.00000000000E+00  0.00000000000E+00  0.45593999997E+02  0.45594000000E+02  0.51100000000E-03 0. -1.
         11   -1    0    0    0    0 -0.00000000000E+00 -0.00000000000E+00 -0.45593999997E+02  0.45594000000E+02  0.51100000000E-03 0.  1.
    9900012    2    1    2    0    0 -0.25407709659E+02  0.17492066330E+02  0.30530292253E+02  0.47787276046E+02  0.20000022806E+02 0.  0.
        -12    1    1    2    0    0  0.25407709659E+02 -0.17492066330E+02 -0.30530292253E+02  0.43400723954E+02  0.00000000000E+00 0.  1.
         11    1    3    3    0    0 -0.19072866057E+02  0.10741948539E+02  0.26684859036E+02  0.34514422783E+02  0.51100000000E-03 0. -1.
        -11    1    3    3    0    0 -0.49436269937E+01  0.45472608571E+01  0.66450442457E+01  0.94484730218E+01  0.51100000000E-03 0.  1.
        -12    1    3    3    0    0 -0.13912166087E+01  0.22028569334E+01 -0.27996110280E+01  0.38243802412E+01  0.00000000000E+00 0.  1.
</event>
<event>
 7    1  0.1427898E-010  0.4778727E+02  0.7816164E-02  0.1312668E+00
        -11   -1    0    0    0    0  0.00000000000E+00  0.00000000000E+00  0.45593999997E+02  0.45594000000E+02  0.51100000000E-03 0.  1.
         11   -1    0    0    0    0 -0.00000000000E+00 -0.00000000000E+00 -0.45593999997E+02  0.45594000000E+02  0.51100000000E-03 0. -1.
    9900012    2    1    2    0    0  0.47337499370E+01 -0.25912786121E+02 -0.34492642986E+02  0.47787270822E+02  0.19999998986E+02 0.  0.
        -12    1    1    2    0    0 -0.47337499370E+01  0.25912786121E+02  0.34492642986E+02  0.43400729178E+02  0.00000000000E+00 0.  1.
         11    1    3    3    0    0 -0.17498864248E+01 -0.10333517135E+01 -0.13860024141E+01  0.24598620320E+01  0.51100000000E-03 0. -1.
        -11    1    3    3    0    0 -0.26094012757E+01  0.52327793811E-01  0.33930510540E+00  0.26318893274E+01  0.51100000000E-03 0.  1.
         12    1    3    3    0    0  0.90930376375E+01 -0.24931762202E+02 -0.33445945677E+02  0.42695519463E+02  0.00000000000E+00 0. -1.
</event>
<event>
 7    1  0.1427898E-010  0.4778727E+02  0.7816164E-02  0.1312668E+00
        -11   -1    0    0    0    0  0.00000000000E+00  0.00000000000E+00  0.45593999997E+02  0.45594000000E+02  0.51100000000E-03 0.  1.
         11   -1    0    0    0    0 -0.00000000000E+00 -0.00000000000E+00 -0.45593999997E+02  0.45594000000E+02  0.51100000000E-03 0. -1.
    9900012    2    1    2    0    0  0.17196026278E+02  0.20926409500E+02 -0.33911729199E+02  0.47787270610E+02  0.19999998018E+02 0.  0.
        -12    1    1    2    0    0 -0.17196026278E+02 -0.20926409500E+02  0.33911729199E+02  0.43400729390E+02  0.00000000000E+00 0.  1.
         11    1    3    3    0    0  0.93941939926E+01  0.71984379437E+01 -0.16521989883E+02  0.20323497227E+02  0.51100000000E-03 0. -1.
        -11    1    3    3    0    0  0.78715569135E+01  0.57169094645E+01 -0.16821701078E+02  0.19432295013E+02  0.51100000000E-03 0.  1.
        -12    1    3    3    0    0 -0.69724627744E-01  0.80110620916E+01 -0.56803823900E+00  0.80314783695E+01  0.00000000000E+00 0.  1.
</event>
<event>
 7    1  0.1427898E-010  0.4778727E+02  0.7816164E-02  0.1312668E+00
        -11   -1    0    0    0    0  0.00000000000E+00  0.00000000000E+00  0.45593999997E+02  0.45594000000E+02  0.51100000000E-03 0.  1.
         11   -1    0    0    0    0 -0.00000000000E+00 -0.00000000000E+00 -0.45593999997E+02  0.45594000000E+02  0.51100000000E-03 0. -1.
    9900012    2    1    2    0    0 -0.22537180291E+02 -0.36691989592E+02 -0.54218590418E+01  0.47787272458E+02  0.20000006445E+02 0.  0.
        -12    1    1    2    0    0  0.22537180291E+02  0.36691989592E+02  0.54218590418E+01  0.43400727542E+02  0.00000000000E+00 0.  1.
         11    1    3    3    0    0 -0.10514927344E+02 -0.65095739943E+01 -0.36661710058E+01  0.12898800748E+02  0.51100000000E-03 0. -1.
        -11    1    3    3    0    0 -0.29549409998E+01 -0.71718462506E+01  0.50262709879E+01  0.92428596905E+01  0.51100000000E-03 0.  1.
         12    1    3    3    0    0 -0.90673119475E+01 -0.23010569347E+02 -0.67819590239E+01  0.25645612019E+02  0.00000000000E+00 0. -1.
</event>
<event>
 7    1  0.1427898E-010  0.4778727E+02  0.7816164E-02  0.1312668E+00
        -11   -1    0    0    0    0  0.00000000000E+00  0.00000000000E+00  0.45593999997E+02  0.45594000000E+02  0.51100000000E-03 0. -1.
         11   -1    0    0    0    0 -0.00000000000E+00 -0.00000000000E+00 -0.45593999997E+02  0.45594000000E+02  0.51100000000E-03 0.  1.
    9900012    2    1    2    0    0 -0.14125387853E+02 -0.34298921056E+02  0.22531774328E+02  0.47787269339E+02  0.19999992223E+02 0.  0.
        -12    1    1    2    0    0  0.14125387853E+02  0.34298921056E+02 -0.22531774328E+02  0.43400730661E+02  0.00000000000E+00 0.  1.
         11    1    3    3    0    0 -0.95567782199E+01 -0.14609055096E+02  0.25720396658E+01  0.17645732885E+02  0.51100000000E-03 0. -1.
        -11    1    3    3    0    0 -0.52192422495E+00  0.64293531561E+00  0.37076623452E+01  0.37990171154E+01  0.51100000000E-03 0.  1.
        -12    1    3    3    0    0 -0.40466854080E+01 -0.20332801276E+02  0.16252072317E+02  0.26342519339E+02  0.00000000000E+00 0.  1.
</event>
<event>
 7    1  0.2541257E-010  0.4778725E+02  0.7816164E-02  0.1312668E+00
        -11   -1    0    0    0    0  0.00000000000E+00  0.00000000000E+00  0.45593999997E+02  0.45594000000E+02  0.51100000000E-03 0.  1.
         11   -1    0    0    0    0 -0.00000000000E+00 -0.00000000000E+00 -0.45593999997E+02  0.45594000000E+02  0.51100000000E-03 0. -1.
    9900012    2    1    2    0    0 -0.21364196260E+02  0.37584035570E+02 -0.38257390347E+01  0.47787252418E+02  0.19999915073E+02 0.  0.
        -12    1    1    2    0    0  0.21364196260E+02 -0.37584035570E+02  0.38257390347E+01  0.43400747582E+02  0.00000000000E+00 0.  1.
         11    1    3    3    0    0 -0.18812726424E+02  0.34811851362E+02 -0.91039622448E+01  0.40603765830E+02  0.51100000000E-03 0. -1.
        -11    1    3    3    0    0  0.41276550647E-01  0.21727268299E+01  0.19290997525E+01  0.29058340880E+01  0.51100000000E-03 0.  1.
         12    1    3    3    0    0 -0.25927463862E+01  0.59945737752E+00  0.33491234576E+01  0.42776524993E+01  0.00000000000E+00 0. -1.
</event>
<event>
 7    1  0.1427898E-010  0.4778728E+02  0.7816164E-02  0.1312668E+00
        -11   -1    0    0    0    0  0.00000000000E+00  0.00000000000E+00  0.45593999997E+02  0.45594000000E+02  0.51100000000E-03 0.  1.
         11   -1    0    0    0    0 -0.00000000000E+00 -0.00000000000E+00 -0.45593999997E+02  0.45594000000E+02  0.51100000000E-03 0. -1.
    9900012    2    1    2    0    0 -0.42606418448E+02  0.16079307855E+01 -0.81074138251E+01  0.47787280037E+02  0.20000041001E+02 0.  0.
        -12    1    1    2    0    0  0.42606418448E+02 -0.16079307855E+01  0.81074138251E+01  0.43400719963E+02  0.00000000000E+00 0.  1.
         11    1    3    3    0    0 -0.41895854688E+01  0.45361022694E+01 -0.76935244219E+00  0.62226002314E+01  0.51100000000E-03 0. -1.
        -11    1    3    3    0    0 -0.14958052780E+02 -0.69298792616E+01 -0.65945737686E+01  0.17755420947E+02  0.51100000000E-03 0.  1.
         12    1    3    3    0    0 -0.23458780199E+02  0.40017077777E+01 -0.74348761423E+00  0.23809258859E+02  0.00000000000E+00 0. -1.
</event>
<event>
 7    1  0.1427898E-010  0.4778727E+02  0.7816164E-02  0.1312668E+00
        -11   -1    0    0    0    0  0.00000000000E+00  0.00000000000E+00  0.45593999997E+02  0.45594000000E+02  0.51100000000E-03 0. -1.
         11   -1    0    0    0    0 -0.00000000000E+00 -0.00000000000E+00 -0.45593999997E+02  0.45594000000E+02  0.51100000000E-03 0.  1.
    9900012    2    1    2    0    0 -0.38915628956E+02  0.73540815607E+01  0.17751463831E+02  0.47787272348E+02  0.20000005943E+02 0.  0.
        -12    1    1    2    0    0  0.38915628956E+02 -0.73540815607E+01 -0.17751463831E+02  0.43400727652E+02  0.00000000000E+00 0.  1.
         11    1    3    3    0    0 -0.25107539843E+02  0.95568640889E+01  0.19143709066E+02  0.32987934238E+02  0.51100000000E-03 0. -1.
        -11    1    3    3    0    0 -0.11793297461E+01  0.41320896858E+00 -0.14344348214E+01  0.19024100031E+01  0.51100000000E-03 0.  1.
         12    1    3    3    0    0 -0.12628759366E+02 -0.26159914968E+01  0.42189585921E-01  0.12896928107E+02  0.00000000000E+00 0. -1.
</event>
<event>
 7    1  0.1427898E-010  0.4778727E+02  0.7816164E-02  0.1312668E+00
        -11   -1    0    0    0    0  0.00000000000E+00  0.00000000000E+00  0.45593999997E+02  0.45594000000E+02  0.51100000000E-03 0.  1.
         11   -1    0    0    0    0 -0.00000000000E+00 -0.00000000000E+00 -0.45593999997E+02  0.45594000000E+02  0.51100000000E-03 0. -1.
    9900012    2    1    2    0    0 -0.23218151315E+02 -0.31549812360E+02 -0.18685558235E+02  0.47787270778E+02  0.19999998785E+02 0.  0.
        -12    1    1    2    0    0  0.23218151315E+02  0.31549812360E+02  0.18685558235E+02  0.43400729222E+02  0.00000000000E+00 0.  1.
         11    1    3    3    0    0 -0.98900887265E+01 -0.10914842695E+01 -0.60005075090E+01  0.11619435595E+02  0.51100000000E-03 0. -1.
        -11    1    3    3    0    0 -0.90505966771E+01 -0.14061836879E+02 -0.82751672009E+01  0.18658160388E+02  0.51100000000E-03 0.  1.
        -12    1    3    3    0    0 -0.42774659115E+01 -0.16396491212E+02 -0.44098835252E+01  0.17509674794E+02  0.00000000000E+00 0.  1.
</event>
<event>
 7    1  0.1427898E-010  0.4778727E+02  0.7816164E-02  0.1312668E+00
        -11   -1    0    0    0    0  0.00000000000E+00  0.00000000000E+00  0.45593999997E+02  0.45594000000E+02  0.51100000000E-03 0. -1.
         11   -1    0    0    0    0 -0.00000000000E+00 -0.00000000000E+00 -0.45593999997E+02  0.45594000000E+02  0.51100000000E-03 0.  1.
    9900012    2    1    2    0    0  0.17708242338E+02  0.37582765498E+02  0.12552963301E+02  0.47787274236E+02  0.20000014550E+02 0.  0.
        -12    1    1    2    0    0 -0.17708242338E+02 -0.37582765498E+02 -0.12552963301E+02  0.43400725764E+02  0.00000000000E+00 0.  1.
         11    1    3    3    0    0  0.14678541613E+02  0.12302718149E+02  0.12007097834E+01  0.19190053726E+02  0.51100000000E-03 0. -1.
        -11    1    3    3    0    0 -0.18204667888E+01  0.51545929040E+01  0.14878005499E+01  0.56654636238E+01  0.51100000000E-03 0.  1.
        -12    1    3    3    0    0  0.48501675141E+01  0.20125454445E+02  0.98644529676E+01  0.22931756886E+02  0.00000000000E+00 0.  1.
</event>
<event>
 7    1  0.1427898E-010  0.4778727E+02  0.7816164E-02  0.1312668E+00
        -11   -1    0    0    0    0  0.00000000000E+00  0.00000000000E+00  0.45593999997E+02  0.45594000000E+02  0.51100000000E-03 0.  1.
         11   -1    0    0    0    0 -0.00000000000E+00 -0.00000000000E+00 -0.45593999997E+02  0.45594000000E+02  0.51100000000E-03 0. -1.
    9900012    2    1    2    0    0 -0.15173428373E+02  0.40661525913E+02  0.17473733705E+00  0.47787272457E+02  0.20000006440E+02 0.  0.
        -12    1    1    2    0    0  0.15173428373E+02 -0.40661525913E+02 -0.17473733705E+00  0.43400727543E+02  0.00000000000E+00 0.  1.
         11    1    3    3    0    0  0.48041182594E+00  0.90817088949E+01  0.21323517575E+00  0.90969061486E+01  0.51100000000E-03 0. -1.
        -11    1    3    3    0    0 -0.17444475781E+02  0.23936688794E+02  0.39569906320E+01  0.29881977525E+02  0.51100000000E-03 0.  1.
        -12    1    3    3    0    0  0.17906355826E+01  0.76431282237E+01 -0.39954884707E+01  0.88083887831E+01  0.00000000000E+00 0.  1.
</event>
<event>
 7    1  0.1427898E-010  0.4778727E+02  0.7816164E-02  0.1312668E+00
        -11   -1    0    0    0    0  0.00000000000E+00  0.00000000000E+00  0.45593999997E+02  0.45594000000E+02  0.51100000000E-03 0.  1.
         11   -1    0    0    0    0 -0.00000000000E+00 -0.00000000000E+00 -0.45593999997E+02  0.45594000000E+02  0.51100000000E-03 0. -1.
    9900012    2    1    2    0    0 -0.17501677253E+02 -0.30214514634E+01 -0.39600319587E+02  0.47787272045E+02  0.20000004564E+02 0.  0.
        -12    1    1    2    0    0  0.17501677253E+02  0.30214514634E+01  0.39600319587E+02  0.43400727955E+02  0.00000000000E+00 0.  1.
         11    1    3    3    0    0 -0.64286487369E+01 -0.24934481557E+01 -0.34177402303E+01  0.76958272350E+01  0.51100000000E-03 0.  1.
        -11    1    3    3    0    0 -0.52271205934E+01  0.63384649121E+01 -0.18493063211E+02  0.20235916444E+02  0.51100000000E-03 0. -1.
         12    1    3    3    0    0 -0.58459079227E+01 -0.68664682198E+01 -0.17689516146E+02  0.19855528367E+02  0.00000000000E+00 0. -1.
</event>
<event>
 7    1  0.1427898E-010  0.4778727E+02  0.7816164E-02  0.1312668E+00
        -11   -1    0    0    0    0  0.00000000000E+00  0.00000000000E+00  0.45593999997E+02  0.45594000000E+02  0.51100000000E-03 0. -1.
         11   -1    0    0    0    0 -0.00000000000E+00 -0.00000000000E+00 -0.45593999997E+02  0.45594000000E+02  0.51100000000E-03 0.  1.
    9900012    2    1    2    0    0  0.94353371853E+01 -0.41711623603E+02  0.73985089239E+01  0.47787273443E+02  0.20000010937E+02 0.  0.
        -12    1    1    2    0    0 -0.94353371853E+01  0.41711623603E+02 -0.73985089239E+01  0.43400726557E+02  0.00000000000E+00 0.  1.
         11    1    3    3    0    0  0.71053093156E+01 -0.21044538285E+02  0.56345378676E+01  0.22915192108E+02  0.51100000000E-03 0. -1.
        -11    1    3    3    0    0  0.18763505141E+01 -0.22017980850E+02  0.37642424280E+01  0.22416103436E+02  0.51100000000E-03 0.  1.
        -12    1    3    3    0    0  0.45367735555E+00  0.13508955318E+01 -0.20002713717E+01  0.24559778992E+01  0.00000000000E+00 0.  1.
</event>
<event>
 7    1  0.1427898E-010  0.4778727E+02  0.7816164E-02  0.1312668E+00
        -11   -1    0    0    0    0  0.00000000000E+00  0.00000000000E+00  0.45593999997E+02  0.45594000000E+02  0.51100000000E-03 0.  1.
         11   -1    0    0    0    0 -0.00000000000E+00 -0.00000000000E+00 -0.45593999997E+02  0.45594000000E+02  0.51100000000E-03 0. -1.
    9900012    2    1    2    0    0 -0.19727692363E+02 -0.13175624380E+02 -0.36343423385E+02  0.47787270201E+02  0.19999996152E+02 0.  0.
        -12    1    1    2    0    0  0.19727692363E+02  0.13175624380E+02  0.36343423385E+02  0.43400729799E+02  0.00000000000E+00 0.  1.
         11    1    3    3    0    0 -0.20751686945E+02 -0.94698072605E+01 -0.29862789251E+02  0.37577865064E+02  0.51100000000E-03 0. -1.
        -11    1    3    3    0    0 -0.46176180161E-01  0.17739024047E+01 -0.33936578417E+01  0.38295921178E+01  0.51100000000E-03 0.  1.
         12    1    3    3    0    0  0.10701707629E+01 -0.54797195242E+01 -0.30869762923E+01  0.63798130188E+01  0.00000000000E+00 0. -1.
</event>
<event>
 7    1  0.1427898E-010  0.4778728E+02  0.7816164E-02  0.1312668E+00
        -11   -1    0    0    0    0  0.00000000000E+00  0.00000000000E+00  0.45593999997E+02  0.45594000000E+02  0.51100000000E-03 0.  1.
         11   -1    0    0    0    0 -0.00000000000E+00 -0.00000000000E+00 -0.45593999997E+02  0.45594000000E+02  0.51100000000E-03 0. -1.
    9900012    2    1    2    0    0 -0.80155425304E+01 -0.19660024959E+02 -0.37853096805E+02  0.47787280638E+02  0.20000043741E+02 0.  0.
        -12    1    1    2    0    0  0.80155425304E+01  0.19660024959E+02  0.37853096805E+02  0.43400719362E+02  0.00000000000E+00 0.  1.
         11    1    3    3    0    0 -0.12991079339E+02 -0.15098831839E+02 -0.23234373013E+02  0.30603577484E+02  0.51100000000E-03 0. -1.
        -11    1    3    3    0    0  0.40769964464E+00  0.13607231521E+01 -0.35649979249E+01  0.38375769650E+01  0.51100000000E-03 0.  1.
         12    1    3    3    0    0  0.45678371642E+01 -0.59219162724E+01 -0.11053725867E+02  0.13346126189E+02  0.00000000000E+00 0. -1.
</event>
<event>
 7    1  0.1427898E-010  0.4778727E+02  0.7816164E-02  0.1312668E+00
        -11   -1    0    0    0    0  0.00000000000E+00  0.00000000000E+00  0.45593999997E+02  0.45594000000E+02  0.51100000000E-03 0. -1.
         11   -1    0    0    0    0 -0.00000000000E+00 -0.00000000000E+00 -0.45593999997E+02  0.45594000000E+02  0.51100000000E-03 0.  1.
    9900012    2    1    2    0    0 -0.33485724447E+02  0.24695003691E+02 -0.12348532656E+02  0.47787271806E+02  0.20000003473E+02 0.  0.
        -12    1    1    2    0    0  0.33485724447E+02 -0.24695003691E+02  0.12348532656E+02  0.43400728194E+02  0.00000000000E+00 0.  1.
         11    1    3    3    0    0 -0.11635603722E+02  0.20869095090E+02 -0.72746208942E+01  0.24976519238E+02  0.51100000000E-03 0. -1.
        -11    1    3    3    0    0 -0.90817930063E+01  0.19658060345E+01 -0.14177358079E+01  0.93996453474E+01  0.51100000000E-03 0.  1.
         12    1    3    3    0    0 -0.12768327718E+02  0.18601025665E+01 -0.36561759536E+01  0.13411107221E+02  0.00000000000E+00 0. -1.
</event>
<event>
 7    1  0.1427898E-010  0.4778727E+02  0.7816164E-02  0.1312668E+00
        -11   -1    0    0    0    0  0.00000000000E+00  0.00000000000E+00  0.45593999997E+02  0.45594000000E+02  0.51100000000E-03 0. -1.
         11   -1    0    0    0    0 -0.00000000000E+00 -0.00000000000E+00 -0.45593999997E+02  0.45594000000E+02  0.51100000000E-03 0.  1.
    9900012    2    1    2    0    0  0.25519681519E+01  0.15485649948E+02  0.40463632089E+02  0.47787269389E+02  0.19999992450E+02 0.  0.
        -12    1    1    2    0    0 -0.25519681519E+01 -0.15485649948E+02 -0.40463632089E+02  0.43400730611E+02  0.00000000000E+00 0.  1.
         11    1    3    3    0    0 -0.31316052359E+00  0.96492221274E+01  0.14352109919E+02  0.17297069595E+02  0.51100000000E-03 0. -1.
        -11    1    3    3    0    0  0.28413538419E+01  0.15240267795E+01 -0.72882008188E+00  0.33056207061E+01  0.51100000000E-03 0.  1.
         12    1    3    3    0    0  0.23774833614E-01  0.43124010411E+01  0.26840342252E+02  0.27184579087E+02  0.00000000000E+00 0. -1.
</event>
<event>
 7    1  0.1427898E-010  0.4778727E+02  0.7816164E-02  0.1312668E+00
        -11   -1    0    0    0    0  0.00000000000E+00  0.00000000000E+00  0.45593999997E+02  0.45594000000E+02  0.51100000000E-03 0.  1.
         11   -1    0    0    0    0 -0.00000000000E+00 -0.00000000000E+00 -0.45593999997E+02  0.45594000000E+02  0.51100000000E-03 0. -1.
    9900012    2    1    2    0    0  0.14814967759E+02  0.34828088796E+02 -0.21240155425E+02  0.47787271419E+02  0.20000001710E+02 0.  0.
        -12    1    1    2    0    0 -0.14814967759E+02 -0.34828088796E+02  0.21240155425E+02  0.43400728581E+02  0.00000000000E+00 0.  1.
         11    1    3    3    0    0  0.56509482849E+01  0.73126973743E+01 -0.10260411499E+02  0.13808866854E+02  0.51100000000E-03 0.  1.
        -11    1    3    3    0    0  0.11760612495E+02  0.16080890634E+02 -0.39604479242E+01  0.20312365639E+02  0.51100000000E-03 0. -1.
         12    1    3    3    0    0 -0.25965930210E+01  0.11434500788E+02 -0.70192960019E+01  0.13666038927E+02  0.00000000000E+00 0. -1.
</event>
<event>
 7    1  0.1427898E-010  0.4778727E+02  0.7816164E-02  0.1312668E+00
        -11   -1    0    0    0    0  0.00000000000E+00  0.00000000000E+00  0.45593999997E+02  0.45594000000E+02  0.51100000000E-03 0. -1.
         11   -1    0    0    0    0 -0.00000000000E+00 -0.00000000000E+00 -0.45593999997E+02  0.45594000000E+02  0.51100000000E-03 0.  1.
    9900012    2    1    2    0    0 -0.41778276213E+02  0.10624327674E+02 -0.50321577875E+01  0.47787270584E+02  0.19999997899E+02 0.  0.
        -12    1    1    2    0    0  0.41778276213E+02 -0.10624327674E+02  0.50321577875E+01  0.43400729416E+02  0.00000000000E+00 0.  1.
         11    1    3    3    0    0 -0.23410324996E+02  0.15559186239E+02 -0.84371321819E+00  0.28121938858E+02  0.51100000000E-03 0. -1.
        -11    1    3    3    0    0 -0.75471721331E+01 -0.17468305224E+01 -0.36842237841E+00  0.77554470787E+01  0.51100000000E-03 0.  1.
        -12    1    3    3    0    0 -0.10820779084E+02 -0.31880280424E+01 -0.38200221909E+01  0.11909884647E+02  0.00000000000E+00 0.  1.
</event>
<event>
 7    1  0.1427898E-010  0.4778727E+02  0.7816164E-02  0.1312668E+00
        -11   -1    0    0    0    0  0.00000000000E+00  0.00000000000E+00  0.45593999997E+02  0.45594000000E+02  0.51100000000E-03 0.  1.
         11   -1    0    0    0    0 -0.00000000000E+00 -0.00000000000E+00 -0.45593999997E+02  0.45594000000E+02  0.51100000000E-03 0. -1.
    9900012    2    1    2    0    0  0.34418975981E+02 -0.12929946452E+02 -0.23060223434E+02  0.47787270425E+02  0.19999997176E+02 0.  0.
        -12    1    1    2    0    0 -0.34418975981E+02  0.12929946452E+02  0.23060223434E+02  0.43400729575E+02  0.00000000000E+00 0.  1.
         11    1    3    3    0    0  0.10074110403E+02  0.13269202055E+01 -0.11123063744E+02  0.15065555581E+02  0.51100000000E-03 0. -1.
        -11    1    3    3    0    0  0.21210067535E+00 -0.43255957639E+01 -0.22925544743E+01  0.49001603737E+01  0.51100000000E-03 0.  1.
         12    1    3    3    0    0  0.24132764903E+02 -0.99312708931E+01 -0.96446052153E+01  0.27821554470E+02  0.00000000000E+00 0. -1.
</event>
<event>
 7    1  0.1427898E-010  0.4778727E+02  0.7816164E-02  0.1312668E+00
        -11   -1    0    0    0    0  0.00000000000E+00  0.00000000000E+00  0.45593999997E+02  0.45594000000E+02  0.51100000000E-03 0.  1.
         11   -1    0    0    0    0 -0.00000000000E+00 -0.00000000000E+00 -0.45593999997E+02  0.45594000000E+02  0.51100000000E-03 0. -1.
    9900012    2    1    2    0    0  0.13456824288E+02  0.19901111443E+02 -0.36145303154E+02  0.47787270782E+02  0.19999998802E+02 0.  0.
        -12    1    1    2    0    0 -0.13456824288E+02 -0.19901111443E+02  0.36145303154E+02  0.43400729218E+02  0.00000000000E+00 0.  1.
         11    1    3    3    0    0  0.60152908927E+01  0.16175653096E+02 -0.25649897463E+02  0.30915250569E+02  0.51100000000E-03 0. -1.
        -11    1    3    3    0    0  0.52087206601E+01  0.56574252529E+01 -0.11429006124E+02  0.13775318967E+02  0.51100000000E-03 0.  1.
        -12    1    3    3    0    0  0.22328127349E+01 -0.19319669065E+01  0.93360043256E+00  0.30967012456E+01  0.00000000000E+00 0.  1.
</event>
<event>
 7    1  0.1427898E-010  0.4778727E+02  0.7816164E-02  0.1312668E+00
        -11   -1    0    0    0    0  0.00000000000E+00  0.00000000000E+00  0.45593999997E+02  0.45594000000E+02  0.51100000000E-03 0.  1.
         11   -1    0    0    0    0 -0.00000000000E+00 -0.00000000000E+00 -0.45593999997E+02  0.45594000000E+02  0.51100000000E-03 0. -1.
    9900012    2    1    2    0    0  0.77782991189E+01  0.25127940514E+02 -0.34521119990E+02  0.47787273543E+02  0.20000011390E+02 0.  0.
        -12    1    1    2    0    0 -0.77782991189E+01 -0.25127940514E+02  0.34521119990E+02  0.43400726457E+02  0.00000000000E+00 0.  1.
         11    1    3    3    0    0  0.49687609091E+01  0.66726423504E+00 -0.11209494827E+02  0.12279519578E+02  0.51100000000E-03 0. -1.
        -11    1    3    3    0    0 -0.29163292795E+01  0.98787930493E+01 -0.13657238426E+02  0.17106013278E+02  0.51100000000E-03 0.  1.
         12    1    3    3    0    0  0.57258674894E+01  0.14581883230E+02 -0.96543867373E+01  0.18401740687E+02  0.00000000000E+00 0. -1.
</event>
<event>
 7    1  0.1427898E-010  0.4778727E+02  0.7816164E-02  0.1312668E+00
        -11   -1    0    0    0    0  0.00000000000E+00  0.00000000000E+00  0.45593999997E+02  0.45594000000E+02  0.51100000000E-03 0. -1.
         11   -1    0    0    0    0 -0.00000000000E+00 -0.00000000000E+00 -0.45593999997E+02  0.45594000000E+02  0.51100000000E-03 0.  1.
    9900012    2    1    2    0    0  0.34841638547E+02 -0.21295270039E+02  0.14703566152E+02  0.47787272353E+02  0.20000005966E+02 0.  0.
        -12    1    1    2    0    0 -0.34841638547E+02  0.21295270039E+02 -0.14703566152E+02  0.43400727647E+02  0.00000000000E+00 0.  1.
         11    1    3    3    0    0  0.10877551347E+02 -0.14424410418E+02  0.13909901624E+02  0.22800660137E+02  0.51100000000E-03 0. -1.
        -11    1    3    3    0    0  0.10082380203E+02 -0.35222791839E+01 -0.77237056836E-01  0.10680206320E+02  0.51100000000E-03 0.  1.
         12    1    3    3    0    0  0.13881706997E+02 -0.33485804368E+01  0.87090158483E+00  0.14306405896E+02  0.00000000000E+00 0. -1.
</event>
<event>
 7    1  0.1427898E-010  0.4778727E+02  0.7816164E-02  0.1312668E+00
        -11   -1    0    0    0    0  0.00000000000E+00  0.00000000000E+00  0.45593999997E+02  0.45594000000E+02  0.51100000000E-03 0.  1.
         11   -1    0    0    0    0 -0.00000000000E+00 -0.00000000000E+00 -0.45593999997E+02  0.45594000000E+02  0.51100000000E-03 0. -1.
    9900012    2    1    2    0    0  0.43049336443E+02  0.54589530493E+01 -0.75990018688E+00  0.47787274374E+02  0.20000015181E+02 0.  0.
        -12    1    1    2    0    0 -0.43049336443E+02 -0.54589530493E+01  0.75990018688E+00  0.43400725626E+02  0.00000000000E+00 0.  1.
         11    1    3    3    0    0  0.95467096730E+00  0.20642698078E+01  0.35799238787E+00  0.23023390945E+01  0.51100000000E-03 0. -1.
        -11    1    3    3    0    0  0.61091142704E+01  0.63327637398E+01 -0.30896798059E+01  0.93258401936E+01  0.51100000000E-03 0.  1.
        -12    1    3    3    0    0  0.35985551205E+02 -0.29380804983E+01  0.19717872311E+01  0.36159095086E+02  0.00000000000E+00 0.  1.
</event>
<event>
 7    1  0.1427898E-010  0.4778727E+02  0.7816164E-02  0.1312668E+00
        -11   -1    0    0    0    0  0.00000000000E+00  0.00000000000E+00  0.45593999997E+02  0.45594000000E+02  0.51100000000E-03 0.  1.
         11   -1    0    0    0    0 -0.00000000000E+00 -0.00000000000E+00 -0.45593999997E+02  0.45594000000E+02  0.51100000000E-03 0. -1.
    9900012    2    1    2    0    0  0.42337518254E+02  0.44474016278E+01 -0.84485679489E+01  0.47787272661E+02  0.20000007371E+02 0.  0.
        -12    1    1    2    0    0 -0.42337518254E+02 -0.44474016278E+01  0.84485679489E+01  0.43400727339E+02  0.00000000000E+00 0.  1.
         11    1    3    3    0    0  0.11278934796E+02  0.35296605649E+00 -0.80055554683E-01  0.11284740330E+02  0.51100000000E-03 0. -1.
        -11    1    3    3    0    0  0.93246318950E+01 -0.95537377181E+00  0.48646882559E+01  0.10560619826E+02  0.51100000000E-03 0.  1.
         12    1    3    3    0    0  0.21733951563E+02  0.50498093431E+01 -0.13233200650E+02  0.25941912505E+02  0.00000000000E+00 0. -1.
</event>
<event>
 7    1  0.1427898E-010  0.4778727E+02  0.7816164E-02  0.1312668E+00
        -11   -1    0    0    0    0  0.00000000000E+00  0.00000000000E+00  0.45593999997E+02  0.45594000000E+02  0.51100000000E-03 0. -1.
         11   -1    0    0    0    0 -0.00000000000E+00 -0.00000000000E+00 -0.45593999997E+02  0.45594000000E+02  0.51100000000E-03 0.  1.
    9900012    2    1    2    0    0  0.91062186683E+01  0.41311088529E+02 -0.97002147242E+01  0.47787269365E+02  0.19999992345E+02 0.  0.
        -12    1    1    2    0    0 -0.91062186683E+01 -0.41311088529E+02  0.97002147242E+01  0.43400730635E+02  0.00000000000E+00 0.  1.
         11    1    3    3    0    0  0.98457310235E+01  0.17131574790E+02 -0.81929290503E+00  0.19776261408E+02  0.51100000000E-03 0. -1.
        -11    1    3    3    0    0 -0.27585976344E+01  0.14259783898E+02  0.30665029654E-01  0.14524194929E+02  0.51100000000E-03 0.  1.
        -12    1    3    3    0    0  0.20190852792E+01  0.99197298413E+01 -0.89115868488E+01  0.13486813028E+02  0.00000000000E+00 0.  1.
</event>
<event>
 7    1  0.1427898E-010  0.4778727E+02  0.7816164E-02  0.1312668E+00
        -11   -1    0    0    0    0  0.00000000000E+00  0.00000000000E+00  0.45593999997E+02  0.45594000000E+02  0.51100000000E-03 0.  1.
         11   -1    0    0    0    0 -0.00000000000E+00 -0.00000000000E+00 -0.45593999997E+02  0.45594000000E+02  0.51100000000E-03 0. -1.
    9900012    2    1    2    0    0 -0.36803187001E+02 -0.23000221367E+02 -0.37220091018E+00  0.47787270860E+02  0.19999999157E+02 0.  0.
        -12    1    1    2    0    0  0.36803187001E+02  0.23000221367E+02  0.37220091018E+00  0.43400729140E+02  0.00000000000E+00 0.  1.
         11    1    3    3    0    0 -0.23862460671E+01 -0.55006780319E+01  0.47533160026E+01  0.76515124247E+01  0.51100000000E-03 0. -1.
        -11    1    3    3    0    0 -0.10374275967E+02 -0.71971045683E+00 -0.25259555024E+01  0.10701590370E+02  0.51100000000E-03 0.  1.
         12    1    3    3    0    0 -0.24042664968E+02 -0.16779832879E+02 -0.25995614103E+01  0.29434168065E+02  0.00000000000E+00 0. -1.
</event>
<event>
 7    1  0.1427898E-010  0.4778727E+02  0.7816164E-02  0.1312668E+00
        -11   -1    0    0    0    0  0.00000000000E+00  0.00000000000E+00  0.45593999997E+02  0.45594000000E+02  0.51100000000E-03 0.  1.
         11   -1    0    0    0    0 -0.00000000000E+00 -0.00000000000E+00 -0.45593999997E+02  0.45594000000E+02  0.51100000000E-03 0. -1.
    9900012    2    1    2    0    0 -0.26959547578E+02 -0.39233383316E+01 -0.33784809267E+02  0.47787272743E+02  0.20000007742E+02 0.  0.
        -12    1    1    2    0    0  0.26959547578E+02  0.39233383316E+01  0.33784809267E+02  0.43400727257E+02  0.00000000000E+00 0.  1.
         11    1    3    3    0    0 -0.78494142932E+01 -0.36583625103E+01 -0.12102275186E+02  0.14881598904E+02  0.51100000000E-03 0. -1.
        -11    1    3    3    0    0 -0.34425823332E+01  0.62748801688E+01 -0.99978722577E+01  0.12295647368E+02  0.51100000000E-03 0.  1.
        -12    1    3    3    0    0 -0.15667550952E+02 -0.65398559901E+01 -0.11684661823E+02  0.20610026471E+02  0.00000000000E+00 0.  1.
</event>
<event>
 7    1  0.1427898E-010  0.4778727E+02  0.7816164E-02  0.1312668E+00
        -11   -1    0    0    0    0  0.00000000000E+00  0.00000000000E+00  0.45593999997E+02  0.45594000000E+02  0.51100000000E-03 0.  1.
         11   -1    0    0    0    0 -0.00000000000E+00 -0.00000000000E+00 -0.45593999997E+02  0.45594000000E+02  0.51100000000E-03 0. -1.
    9900012    2    1    2    0    0 -0.17541734297E+02 -0.37471240269E+02 -0.13107905140E+02  0.47787268824E+02  0.19999989876E+02 0.  0.
        -12    1    1    2    0    0  0.17541734297E+02  0.37471240269E+02  0.13107905140E+02  0.43400731176E+02  0.00000000000E+00 0.  1.
         11    1    3    3    0    0 -0.17602941278E+02 -0.17125381764E+02 -0.58818860892E+01  0.25253491371E+02  0.51100000000E-03 0. -1.
        -11    1    3    3    0    0 -0.99836521601E+00 -0.57092987394E+01 -0.50717130587E+01  0.77016296205E+01  0.51100000000E-03 0.  1.
        -12    1    3    3    0    0  0.10595721969E+01 -0.14636559765E+02 -0.21543059920E+01  0.14832147832E+02  0.00000000000E+00 0.  1.
</event>
<event>
 7    1  0.1427898E-010  0.4778727E+02  0.7816164E-02  0.1312668E+00
        -11   -1    0    0    0    0  0.00000000000E+00  0.00000000000E+00  0.45593999997E+02  0.45594000000E+02  0.51100000000E-03 0. -1.
         11   -1    0    0    0    0 -0.00000000000E+00 -0.00000000000E+00 -0.45593999997E+02  0.45594000000E+02  0.51100000000E-03 0.  1.
    9900012    2    1    2    0    0  0.34297818294E+02  0.26315450101E+02  0.38444557354E+01  0.47787273121E+02  0.20000009466E+02 0.  0.
        -12    1    1    2    0    0 -0.34297818294E+02 -0.26315450101E+02 -0.38444557354E+01  0.43400726879E+02  0.00000000000E+00 0.  1.
         11    1    3    3    0    0  0.21127459804E+02  0.21516629206E+02  0.51295214325E+01  0.30588345502E+02  0.51100000000E-03 0. -1.
        -11    1    3    3    0    0  0.14560877990E+02  0.47580663210E+01 -0.19949909160E-01  0.15318575691E+02  0.51100000000E-03 0.  1.
         12    1    3    3    0    0 -0.13905194997E+01  0.40754574071E-01 -0.12651157880E+01  0.18803519275E+01  0.00000000000E+00 0. -1.
</event>
<event>
 7    1  0.1427898E-010  0.4778726E+02  0.7816164E-02  0.1312668E+00
        -11   -1    0    0    0    0  0.00000000000E+00  0.00000000000E+00  0.45593999997E+02  0.45594000000E+02  0.51100000000E-03 0.  1.
         11   -1    0    0    0    0 -0.00000000000E+00 -0.00000000000E+00 -0.45593999997E+02  0.45594000000E+02  0.51100000000E-03 0. -1.
    9900012    2    1    2    0    0  0.12845991136E+02 -0.24931938501E+02 -0.33121035801E+02  0.47787262008E+02  0.19999958801E+02 0.  0.
        -12    1    1    2    0    0 -0.12845991136E+02  0.24931938501E+02  0.33121035801E+02  0.43400737992E+02  0.00000000000E+00 0.  1.
         11    1    3    3    0    0 -0.13244692204E+01  0.82524841294E+00 -0.26705598331E+01  0.30930799767E+01  0.51100000000E-03 0. -1.
        -11    1    3    3    0    0  0.38232084388E+01 -0.20368076922E+01  0.48785835014E+00  0.43593020510E+01  0.51100000000E-03 0.  1.
         12    1    3    3    0    0  0.10347251918E+02 -0.23720379222E+02 -0.30938334318E+02  0.40334879981E+02  0.00000000000E+00 0. -1.
</event>
<event>
 7    1  0.1427898E-010  0.4778727E+02  0.7816164E-02  0.1312668E+00
        -11   -1    0    0    0    0  0.00000000000E+00  0.00000000000E+00  0.45593999997E+02  0.45594000000E+02  0.51100000000E-03 0.  1.
         11   -1    0    0    0    0 -0.00000000000E+00 -0.00000000000E+00 -0.45593999997E+02  0.45594000000E+02  0.51100000000E-03 0. -1.
    9900012    2    1    2    0    0 -0.19175756238E+02  0.59698892147E+01 -0.38474336585E+02  0.47787265212E+02  0.19999973405E+02 0.  0.
        -12    1    1    2    0    0  0.19175756238E+02 -0.59698892147E+01  0.38474336585E+02  0.43400734788E+02  0.00000000000E+00 0.  1.
         11    1    3    3    0    0 -0.97122849036E+01  0.32671532664E+01 -0.76205716031E+01  0.12770116692E+02  0.51100000000E-03 0. -1.
        -11    1    3    3    0    0 -0.92797707466E+01 -0.17842915444E+01 -0.28332858046E+02  0.29867184111E+02  0.51100000000E-03 0.  1.
        -12    1    3    3    0    0 -0.18370058795E+00  0.44870274927E+01 -0.25209069361E+01  0.51499644083E+01  0.00000000000E+00 0.  1.
</event>
<event>
 7    1  0.1427898E-010  0.4778727E+02  0.7816164E-02  0.1312668E+00
        -11   -1    0    0    0    0  0.00000000000E+00  0.00000000000E+00  0.45593999997E+02  0.45594000000E+02  0.51100000000E-03 0.  1.
         11   -1    0    0    0    0 -0.00000000000E+00 -0.00000000000E+00 -0.45593999997E+02  0.45594000000E+02  0.51100000000E-03 0. -1.
    9900012    2    1    2    0    0  0.22906531165E+02 -0.13270412657E+02 -0.34392007838E+02  0.47787271605E+02  0.20000002555E+02 0.  0.
        -12    1    1    2    0    0 -0.22906531165E+02  0.13270412657E+02  0.34392007838E+02  0.43400728395E+02  0.00000000000E+00 0.  1.
         11    1    3    3    0    0  0.89487412561E+01 -0.30102847384E+01 -0.82323696968E+01  0.12526519683E+02  0.51100000000E-03 0.  1.
        -11    1    3    3    0    0  0.15464103456E+02 -0.11100062712E+02 -0.27235274342E+02  0.33228151569E+02  0.51100000000E-03 0. -1.
         12    1    3    3    0    0 -0.15063135473E+01  0.83993479310E+00  0.10756362011E+01  0.20326003534E+01  0.00000000000E+00 0. -1.
</event>
<event>
 7    1  0.1427898E-010  0.4778727E+02  0.7816164E-02  0.1312668E+00
        -11   -1    0    0    0    0  0.00000000000E+00  0.00000000000E+00  0.45593999997E+02  0.45594000000E+02  0.51100000000E-03 0. -1.
         11   -1    0    0    0    0 -0.00000000000E+00 -0.00000000000E+00 -0.45593999997E+02  0.45594000000E+02  0.51100000000E-03 0.  1.
    9900012    2    1    2    0    0 -0.37748294807E+02 -0.21089048118E+02  0.37338309947E+01  0.47787271835E+02  0.20000003604E+02 0.  0.
        -12    1    1    2    0    0  0.37748294807E+02  0.21089048118E+02 -0.37338309947E+01  0.43400728165E+02  0.00000000000E+00 0.  1.
         11    1    3    3    0    0 -0.12673246148E+02 -0.12003695366E+02  0.15227479997E+01  0.17521947155E+02  0.51100000000E-03 0. -1.
        -11    1    3    3    0    0 -0.15463952066E+02 -0.74529023437E+01 -0.52921023078E+01  0.17963460522E+02  0.51100000000E-03 0.  1.
         12    1    3    3    0    0 -0.96110965932E+01 -0.16324504078E+01  0.75031853027E+01  0.12301864157E+02  0.00000000000E+00 0. -1.
</event>
<event>
 7    1  0.1427898E-010  0.4778728E+02  0.7816164E-02  0.1312668E+00
        -11   -1    0    0    0    0  0.00000000000E+00  0.00000000000E+00  0.45593999997E+02  0.45594000000E+02  0.51100000000E-03 0. -1.
         11   -1    0    0    0    0 -0.00000000000E+00 -0.00000000000E+00 -0.45593999997E+02  0.45594000000E+02  0.51100000000E-03 0.  1.
    9900012    2    1    2    0    0 -0.34849973729E+01  0.11575030828E+02  0.41683285592E+02  0.47787276007E+02  0.20000022628E+02 0.  0.
        -12    1    1    2    0    0  0.34849973729E+01 -0.11575030828E+02 -0.41683285592E+02  0.43400723993E+02  0.00000000000E+00 0.  1.
         11    1    3    3    0    0  0.34244128555E+01  0.54765462127E+01  0.92038926288E+01  0.11244145215E+02  0.51100000000E-03 0. -1.
        -11    1    3    3    0    0 -0.88688140549E+01  0.88815452115E+01  0.20036845063E+02  0.23643452972E+02  0.51100000000E-03 0.  1.
         12    1    3    3    0    0  0.19594038265E+01 -0.27830605965E+01  0.12442547900E+02  0.12899677821E+02  0.00000000000E+00 0. -1.
</event>
<event>
 7    1  0.1427898E-010  0.4778727E+02  0.7816164E-02  0.1312668E+00
        -11   -1    0    0    0    0  0.00000000000E+00  0.00000000000E+00  0.45593999997E+02  0.45594000000E+02  0.51100000000E-03 0.  1.
         11   -1    0    0    0    0 -0.00000000000E+00 -0.00000000000E+00 -0.45593999997E+02  0.45594000000E+02  0.51100000000E-03 0. -1.
    9900012    2    1    2    0    0 -0.23010540820E+02  0.17266230988E+02 -0.32496391688E+02  0.47787271963E+02  0.20000004188E+02 0.  0.
        -12    1    1    2    0    0  0.23010540820E+02 -0.17266230988E+02  0.32496391688E+02  0.43400728037E+02  0.00000000000E+00 0.  1.
         11    1    3    3    0    0 -0.60997000651E+01  0.10678242547E+02 -0.44287221528E+01  0.13070760688E+02  0.51100000000E-03 0. -1.
        -11    1    3    3    0    0 -0.17700251084E+01 -0.20693533124E+01 -0.59971422464E+01  0.65864199229E+01  0.51100000000E-03 0.  1.
         12    1    3    3    0    0 -0.15140815647E+02  0.86573417531E+01 -0.22070527289E+02  0.28130091353E+02  0.00000000000E+00 0. -1.
</event>
<event>
 7    1  0.1427898E-010  0.4778727E+02  0.7816164E-02  0.1312668E+00
        -11   -1    0    0    0    0  0.00000000000E+00  0.00000000000E+00  0.45593999997E+02  0.45594000000E+02  0.51100000000E-03 0.  1.
         11   -1    0    0    0    0 -0.00000000000E+00 -0.00000000000E+00 -0.45593999997E+02  0.45594000000E+02  0.51100000000E-03 0. -1.
    9900012    2    1    2    0    0  0.14953235701E+02  0.28369047994E+02 -0.29244165477E+02  0.47787270093E+02  0.19999995662E+02 0.  0.
        -12    1    1    2    0    0 -0.14953235701E+02 -0.28369047994E+02  0.29244165477E+02  0.43400729907E+02  0.00000000000E+00 0.  1.
         11    1    3    3    0    0  0.51391395498E+01  0.44791890611E+01 -0.88753652475E+00  0.68747080884E+01  0.51100000000E-03 0.  1.
        -11    1    3    3    0    0  0.10856546917E+02  0.13435629977E+02 -0.23927309002E+02  0.29510962034E+02  0.51100000000E-03 0. -1.
         12    1    3    3    0    0 -0.10424507656E+01  0.10454228956E+02 -0.44293199498E+01  0.11401599970E+02  0.00000000000E+00 0. -1.
</event>
<event>
 7    1  0.1427898E-010  0.4778727E+02  0.7816164E-02  0.1312668E+00
        -11   -1    0    0    0    0  0.00000000000E+00  0.00000000000E+00  0.45593999997E+02  0.45594000000E+02  0.51100000000E-03 0.  1.
         11   -1    0    0    0    0 -0.00000000000E+00 -0.00000000000E+00 -0.45593999997E+02  0.45594000000E+02  0.51100000000E-03 0. -1.
    9900012    2    1    2    0    0 -0.97267518145E+01 -0.24794078972E+02 -0.34267583875E+02  0.47787270080E+02  0.19999995602E+02 0.  0.
        -12    1    1    2    0    0  0.97267518145E+01  0.24794078972E+02  0.34267583875E+02  0.43400729920E+02  0.00000000000E+00 0.  1.
         11    1    3    3    0    0 -0.20615408084E+01 -0.16010716686E+02 -0.13241950705E+02  0.20879230303E+02  0.51100000000E-03 0. -1.
        -11    1    3    3    0    0 -0.10350406513E+02 -0.94472929636E+01 -0.17169992051E+02  0.22162826684E+02  0.51100000000E-03 0.  1.
         12    1    3    3    0    0  0.26851955072E+01  0.66393067735E+00 -0.38556411188E+01  0.47452130925E+01  0.00000000000E+00 0. -1.
</event>
<event>
 7    1  0.1427898E-010  0.4778727E+02  0.7816164E-02  0.1312668E+00
        -11   -1    0    0    0    0  0.00000000000E+00  0.00000000000E+00  0.45593999997E+02  0.45594000000E+02  0.51100000000E-03 0. -1.
         11   -1    0    0    0    0 -0.00000000000E+00 -0.00000000000E+00 -0.45593999997E+02  0.45594000000E+02  0.51100000000E-03 0.  1.
    9900012    2    1    2    0    0 -0.53468703003E+01 -0.42610422567E+02  0.62758346463E+01  0.47787271506E+02  0.20000002102E+02 0.  0.
        -12    1    1    2    0    0  0.53468703003E+01  0.42610422567E+02 -0.62758346463E+01  0.43400728494E+02  0.00000000000E+00 0.  1.
         11    1    3    3    0    0 -0.82708479742E+01 -0.38122178638E+02  0.11039377520E+00  0.39009224772E+02  0.51100000000E-03 0. -1.
        -11    1    3    3    0    0  0.13582367212E+01 -0.41362151007E+01  0.31890927919E+01  0.53966096252E+01  0.51100000000E-03 0.  1.
         12    1    3    3    0    0  0.15657409527E+01 -0.35202882861E+00  0.29763480791E+01  0.33814371080E+01  0.00000000000E+00 0. -1.
</event>
<event>
 7    1  0.1427898E-010  0.4778731E+02  0.7816164E-02  0.1312668E+00
        -11   -1    0    0    0    0  0.00000000000E+00  0.00000000000E+00  0.45593999997E+02  0.45594000000E+02  0.51100000000E-03 0.  1.
         11   -1    0    0    0    0 -0.00000000000E+00 -0.00000000000E+00 -0.45593999997E+02  0.45594000000E+02  0.51100000000E-03 0. -1.
    9900012    2    1    2    0    0 -0.27186892461E+02  0.10832644161E+02 -0.32049129058E+02  0.47787309054E+02  0.20000173301E+02 0.  0.
        -12    1    1    2    0    0  0.27186892461E+02 -0.10832644161E+02  0.32049129058E+02  0.43400690946E+02  0.00000000000E+00 0.  1.
         11    1    3    3    0    0 -0.13202859653E+02  0.11697618583E+02 -0.93395352276E+01  0.19959376295E+02  0.51100000000E-03 0. -1.
        -11    1    3    3    0    0 -0.11320283162E+01 -0.27574237887E+01 -0.30549044917E+01  0.42681747591E+01  0.51100000000E-03 0.  1.
        -12    1    3    3    0    0 -0.12852004492E+02  0.18924493665E+01 -0.19654689338E+02  0.23559758000E+02  0.00000000000E+00 0.  1.
</event>
<event>
 7    1  0.1427898E-010  0.4778727E+02  0.7816164E-02  0.1312668E+00
        -11   -1    0    0    0    0  0.00000000000E+00  0.00000000000E+00  0.45593999997E+02  0.45594000000E+02  0.51100000000E-03 0.  1.
         11   -1    0    0    0    0 -0.00000000000E+00 -0.00000000000E+00 -0.45593999997E+02  0.45594000000E+02  0.51100000000E-03 0. -1.
    9900012    2    1    2    0    0  0.22500801075E+02  0.14221829655E+00 -0.37112221455E+02  0.47787271246E+02  0.20000000920E+02 0.  0.
        -12    1    1    2    0    0 -0.22500801075E+02 -0.14221829655E+00  0.37112221455E+02  0.43400728754E+02  0.00000000000E+00 0.  1.
         11    1    3    3    0    0  0.18929878438E+02  0.70782585394E+01 -0.24025934462E+02  0.31395661622E+02  0.51100000000E-03 0. -1.
        -11    1    3    3    0    0 -0.11846305393E+01 -0.71149792580E+00 -0.32762644961E+00  0.14201824406E+01  0.51100000000E-03 0.  1.
         12    1    3    3    0    0  0.47555531765E+01 -0.62245423171E+01 -0.12758660543E+02  0.14971427184E+02  0.00000000000E+00 0. -1.
</event>
<event>
 7    1  0.1427898E-010  0.4778728E+02  0.7816164E-02  0.1312668E+00
        -11   -1    0    0    0    0  0.00000000000E+00  0.00000000000E+00  0.45593999997E+02  0.45594000000E+02  0.51100000000E-03 0.  1.
         11   -1    0    0    0    0 -0.00000000000E+00 -0.00000000000E+00 -0.45593999997E+02  0.45594000000E+02  0.51100000000E-03 0. -1.
    9900012    2    1    2    0    0 -0.43071893637E+02 -0.28169396161E+01  0.45276470008E+01  0.47787276992E+02  0.20000027117E+02 0.  0.
        -12    1    1    2    0    0  0.43071893637E+02  0.28169396161E+01 -0.45276470008E+01  0.43400723008E+02  0.00000000000E+00 0.  1.
         11    1    3    3    0    0 -0.68763671727E+01 -0.37727627495E+01 -0.33418054048E+01  0.85255983885E+01  0.51100000000E-03 0. -1.
        -11    1    3    3    0    0 -0.70842594615E+01  0.20366621828E+01 -0.32820825978E+01  0.80688779520E+01  0.51100000000E-03 0.  1.
        -12    1    3    3    0    0 -0.29111267003E+02 -0.10808390493E+01  0.11151535003E+02  0.31192800651E+02  0.00000000000E+00 0.  1.
</event>
<event>
 7    1  0.1427898E-010  0.4778727E+02  0.7816164E-02  0.1312668E+00
        -11   -1    0    0    0    0  0.00000000000E+00  0.00000000000E+00  0.45593999997E+02  0.45594000000E+02  0.51100000000E-03 0.  1.
         11   -1    0    0    0    0 -0.00000000000E+00 -0.00000000000E+00 -0.45593999997E+02  0.45594000000E+02  0.51100000000E-03 0. -1.
    9900012    2    1    2    0    0 -0.25439329707E+02  0.19298702382E+02 -0.29394286302E+02  0.47787268707E+02  0.19999989342E+02 0.  0.
        -12    1    1    2    0    0  0.25439329707E+02 -0.19298702382E+02  0.29394286302E+02  0.43400731293E+02  0.00000000000E+00 0.  1.
         11    1    3    3    0    0 -0.12635171446E+02  0.89852325046E+01 -0.82716185970E+01  0.17572752633E+02  0.51100000000E-03 0. -1.
        -11    1    3    3    0    0  0.11041498224E+01  0.73837205220E+00  0.14879662848E+01  0.19945886903E+01  0.51100000000E-03 0.  1.
        -12    1    3    3    0    0 -0.13908308084E+02  0.95750978253E+01 -0.22610633990E+02  0.28219927384E+02  0.00000000000E+00 0.  1.
</event>
<event>
 7    1  0.1427898E-010  0.4778728E+02  0.7816164E-02  0.1312668E+00
        -11   -1    0    0    0    0  0.00000000000E+00  0.00000000000E+00  0.45593999997E+02  0.45594000000E+02  0.51100000000E-03 0.  1.
         11   -1    0    0    0    0 -0.00000000000E+00 -0.00000000000E+00 -0.45593999997E+02  0.45594000000E+02  0.51100000000E-03 0. -1.
    9900012    2    1    2    0    0  0.23490613743E+02  0.31719261431E+02 -0.18047215076E+02  0.47787280516E+02  0.20000043184E+02 0.  0.
        -12    1    1    2    0    0 -0.23490613743E+02 -0.31719261431E+02  0.18047215076E+02  0.43400719484E+02  0.00000000000E+00 0.  1.
         11    1    3    3    0    0  0.15535948866E+02  0.93068125174E+01 -0.11269171009E+02  0.21330182416E+02  0.51100000000E-03 0. -1.
        -11    1    3    3    0    0  0.10130567624E+02  0.18231028695E+02 -0.57052660604E+01  0.21622878364E+02  0.51100000000E-03 0.  1.
        -12    1    3    3    0    0 -0.21759027465E+01  0.41814202186E+01 -0.10727780063E+01  0.48342197362E+01  0.00000000000E+00 0.  1.
</event>
<event>
 7    1  0.1427898E-010  0.4778727E+02  0.7816164E-02  0.1312668E+00
        -11   -1    0    0    0    0  0.00000000000E+00  0.00000000000E+00  0.45593999997E+02  0.45594000000E+02  0.51100000000E-03 0. -1.
         11   -1    0    0    0    0 -0.00000000000E+00 -0.00000000000E+00 -0.45593999997E+02  0.45594000000E+02  0.51100000000E-03 0.  1.
    9900012    2    1    2    0    0 -0.12628505182E+02 -0.37584766335E+01  0.41352363417E+02  0.47787271320E+02  0.20000001256E+02 0.  0.
        -12    1    1    2    0    0  0.12628505182E+02  0.37584766335E+01 -0.41352363417E+02  0.43400728680E+02  0.00000000000E+00 0.  1.
         11    1    3    3    0    0 -0.86587148338E+00 -0.44580995461E+01  0.23166381484E+01  0.50981562903E+01  0.51100000000E-03 0. -1.
        -11    1    3    3    0    0  0.11601330628E+01  0.22582745559E+01  0.16253978993E+02  0.16451065196E+02  0.51100000000E-03 0.  1.
         12    1    3    3    0    0 -0.12922766762E+02 -0.15586516433E+01  0.22781746276E+02  0.26238049834E+02  0.00000000000E+00 0. -1.
</event>
<event>
 7    1  0.1427898E-010  0.4778727E+02  0.7816164E-02  0.1312668E+00
        -11   -1    0    0    0    0  0.00000000000E+00  0.00000000000E+00  0.45593999997E+02  0.45594000000E+02  0.51100000000E-03 0.  1.
         11   -1    0    0    0    0 -0.00000000000E+00 -0.00000000000E+00 -0.45593999997E+02  0.45594000000E+02  0.51100000000E-03 0. -1.
    9900012    2    1    2    0    0 -0.39365253524E+02 -0.37148231310E+00 -0.18271896790E+02  0.47787269633E+02  0.19999993564E+02 0.  0.
        -12    1    1    2    0    0  0.39365253524E+02  0.37148231310E+00  0.18271896790E+02  0.43400730367E+02  0.00000000000E+00 0.  1.
         11    1    3    3    0    0 -0.20738257926E+02  0.53876383553E+01 -0.14021006363E+02  0.25606456384E+02  0.51100000000E-03 0. -1.
        -11    1    3    3    0    0 -0.21726280793E+01 -0.36806613043E+01 -0.35913313473E+01  0.55825837670E+01  0.51100000000E-03 0.  1.
        -12    1    3    3    0    0 -0.16454367519E+02 -0.20784593641E+01 -0.65955908001E+00  0.16598229482E+02  0.00000000000E+00 0.  1.
</event>
<event>
 7    1  0.1427898E-010  0.4778731E+02  0.7816164E-02  0.1312668E+00
        -11   -1    0    0    0    0  0.00000000000E+00  0.00000000000E+00  0.45593999997E+02  0.45594000000E+02  0.51100000000E-03 0.  1.
         11   -1    0    0    0    0 -0.00000000000E+00 -0.00000000000E+00 -0.45593999997E+02  0.45594000000E+02  0.51100000000E-03 0. -1.
    9900012    2    1    2    0    0 -0.34158524473E+01 -0.13840525342E+01 -0.43243912088E+02  0.47787313577E+02  0.20000193922E+02 0.  0.
        -12    1    1    2    0    0  0.34158524473E+01  0.13840525342E+01  0.43243912088E+02  0.43400686423E+02  0.00000000000E+00 0.  1.
         11    1    3    3    0    0 -0.46472471013E+00 -0.24271610789E+01 -0.71857194592E+00  0.25736017294E+01  0.51100000000E-03 0. -1.
        -11    1    3    3    0    0  0.35252466514E+01  0.61632974160E+01 -0.20034201925E+02  0.21255183980E+02  0.51100000000E-03 0.  1.
         12    1    3    3    0    0 -0.64763743885E+01 -0.51201888713E+01 -0.22491138216E+02  0.23958527867E+02  0.00000000000E+00 0. -1.
</event>
<event>
 7    1  0.1427898E-010  0.4778727E+02  0.7816164E-02  0.1312668E+00
        -11   -1    0    0    0    0  0.00000000000E+00  0.00000000000E+00  0.45593999997E+02  0.45594000000E+02  0.51100000000E-03 0.  1.
         11   -1    0    0    0    0 -0.00000000000E+00 -0.00000000000E+00 -0.45593999997E+02  0.45594000000E+02  0.51100000000E-03 0. -1.
    9900012    2    1    2    0    0 -0.22889498349E+02 -0.35198117488E+02 -0.10990292439E+02  0.47787272618E+02  0.20000007176E+02 0.  0.
        -12    1    1    2    0    0  0.22889498349E+02  0.35198117488E+02  0.10990292439E+02  0.43400727382E+02  0.00000000000E+00 0.  1.
         11    1    3    3    0    0  0.23543652327E+01 -0.23627210377E+01 -0.74409471983E+00  0.34174791242E+01  0.51100000000E-03 0. -1.
        -11    1    3    3    0    0 -0.12694777012E+02 -0.12766370280E+02 -0.10215852200E+02  0.20700270770E+02  0.51100000000E-03 0.  1.
         12    1    3    3    0    0 -0.12549086570E+02 -0.20069026170E+02 -0.30345518910E-01  0.23669522725E+02  0.00000000000E+00 0. -1.
</event>
<event>
 7    1  0.1427898E-010  0.4778727E+02  0.7816164E-02  0.1312668E+00
        -11   -1    0    0    0    0  0.00000000000E+00  0.00000000000E+00  0.45593999997E+02  0.45594000000E+02  0.51100000000E-03 0.  1.
         11   -1    0    0    0    0 -0.00000000000E+00 -0.00000000000E+00 -0.45593999997E+02  0.45594000000E+02  0.51100000000E-03 0. -1.
    9900012    2    1    2    0    0 -0.37850237905E+02 -0.20569995821E+02 -0.52780441733E+01  0.47787274340E+02  0.20000015024E+02 0.  0.
        -12    1    1    2    0    0  0.37850237905E+02  0.20569995821E+02  0.52780441733E+01  0.43400725660E+02  0.00000000000E+00 0.  1.
         11    1    3    3    0    0 -0.95807295797E+01 -0.20782710644E+01  0.33136518599E+01  0.10348423977E+02  0.51100000000E-03 0.  1.
        -11    1    3    3    0    0 -0.25290318336E+02 -0.11249594217E+02 -0.10098751677E+02  0.29464187708E+02  0.51100000000E-03 0. -1.
         12    1    3    3    0    0 -0.29791899897E+01 -0.72421305392E+01  0.15070556441E+01  0.79746626547E+01  0.00000000000E+00 0. -1.
</event>
<event>
 7    1  0.1427898E-010  0.4778727E+02  0.7816164E-02  0.1312668E+00
        -11   -1    0    0    0    0  0.00000000000E+00  0.00000000000E+00  0.45593999997E+02  0.45594000000E+02  0.51100000000E-03 0.  1.
         11   -1    0    0    0    0 -0.00000000000E+00 -0.00000000000E+00 -0.45593999997E+02  0.45594000000E+02  0.51100000000E-03 0. -1.
    9900012    2    1    2    0    0  0.39849848613E+01 -0.18353825251E+02 -0.39126462755E+02  0.47787273123E+02  0.20000009478E+02 0.  0.
        -12    1    1    2    0    0 -0.39849848613E+01  0.18353825251E+02  0.39126462755E+02  0.43400726877E+02  0.00000000000E+00 0.  1.
         11    1    3    3    0    0  0.80249374817E+01 -0.45317211480E+01 -0.22366200434E+02  0.24190556840E+02  0.51100000000E-03 0. -1.
        -11    1    3    3    0    0 -0.27568730483E+00 -0.26693738009E+01  0.47522125711E+00  0.27253248400E+01  0.51100000000E-03 0.  1.
         12    1    3    3    0    0 -0.37642653156E+01 -0.11152730302E+02 -0.17235483579E+02  0.20871391443E+02  0.00000000000E+00 0. -1.
</event>
<event>
 7    1  0.1427898E-010  0.4778727E+02  0.7816164E-02  0.1312668E+00
        -11   -1    0    0    0    0  0.00000000000E+00  0.00000000000E+00  0.45593999997E+02  0.45594000000E+02  0.51100000000E-03 0.  1.
         11   -1    0    0    0    0 -0.00000000000E+00 -0.00000000000E+00 -0.45593999997E+02  0.45594000000E+02  0.51100000000E-03 0. -1.
    9900012    2    1    2    0    0  0.42433924040E+01  0.88307554420E+01 -0.42280428774E+02  0.47787270996E+02  0.19999999780E+02 0.  0.
        -12    1    1    2    0    0 -0.42433924040E+01 -0.88307554420E+01  0.42280428774E+02  0.43400729004E+02  0.00000000000E+00 0.  1.
         11    1    3    3    0    0  0.12448747618E+01  0.36124131077E+00 -0.28877021250E+01  0.31652854975E+01  0.51100000000E-03 0. -1.
        -11    1    3    3    0    0  0.71510787002E+01  0.11752692915E+02 -0.18413732587E+02  0.22985414188E+02  0.51100000000E-03 0.  1.
         12    1    3    3    0    0 -0.41525610579E+01 -0.32831787837E+01 -0.20978994061E+02  0.21636571311E+02  0.00000000000E+00 0. -1.
</event>
<event>
 7    1  0.1427898E-010  0.4778727E+02  0.7816164E-02  0.1312668E+00
        -11   -1    0    0    0    0  0.00000000000E+00  0.00000000000E+00  0.45593999997E+02  0.45594000000E+02  0.51100000000E-03 0.  1.
         11   -1    0    0    0    0 -0.00000000000E+00 -0.00000000000E+00 -0.45593999997E+02  0.45594000000E+02  0.51100000000E-03 0. -1.
    9900012    2    1    2    0    0 -0.88721878246E+01  0.53087226353E+01 -0.42151215732E+02  0.47787271429E+02  0.20000001753E+02 0.  0.
        -12    1    1    2    0    0  0.88721878246E+01 -0.53087226353E+01  0.42151215732E+02  0.43400728571E+02  0.00000000000E+00 0.  1.
         11    1    3    3    0    0 -0.47312412618E+01 -0.24994138096E+01 -0.34330288079E+02  0.34744789439E+02  0.51100000000E-03 0. -1.
        -11    1    3    3    0    0 -0.44393815118E+01  0.28284592616E+01 -0.52334662076E+01  0.74227662505E+01  0.51100000000E-03 0.  1.
         12    1    3    3    0    0  0.29843494894E+00  0.49796771832E+01 -0.25874614452E+01  0.56197157400E+01  0.00000000000E+00 0. -1.
</event>
<event>
 7    1  0.1427898E-010  0.4778727E+02  0.7816164E-02  0.1312668E+00
        -11   -1    0    0    0    0  0.00000000000E+00  0.00000000000E+00  0.45593999997E+02  0.45594000000E+02  0.51100000000E-03 0.  1.
         11   -1    0    0    0    0 -0.00000000000E+00 -0.00000000000E+00 -0.45593999997E+02  0.45594000000E+02  0.51100000000E-03 0. -1.
    9900012    2    1    2    0    0 -0.11142969245E+02  0.30517040963E+02 -0.28777901012E+02  0.47787272594E+02  0.20000007064E+02 0.  0.
        -12    1    1    2    0    0  0.11142969245E+02 -0.30517040963E+02  0.28777901012E+02  0.43400727406E+02  0.00000000000E+00 0.  1.
         11    1    3    3    0    0 -0.13638351485E+02  0.26485992966E+02 -0.21713018648E+02  0.36864178191E+02  0.51100000000E-03 0. -1.
        -11    1    3    3    0    0 -0.10674785981E+01 -0.13883412212E+01 -0.22200520994E+01  0.28276551221E+01  0.51100000000E-03 0.  1.
        -12    1    3    3    0    0  0.35628608385E+01  0.54193892186E+01 -0.48448302648E+01  0.80954392810E+01  0.00000000000E+00 0.  1.
</event>
<event>
 7    1  0.1427898E-010  0.4778727E+02  0.7816164E-02  0.1312668E+00
        -11   -1    0    0    0    0  0.00000000000E+00  0.00000000000E+00  0.45593999997E+02  0.45594000000E+02  0.51100000000E-03 0. -1.
         11   -1    0    0    0    0 -0.00000000000E+00 -0.00000000000E+00 -0.45593999997E+02  0.45594000000E+02  0.51100000000E-03 0.  1.
    9900012    2    1    2    0    0  0.37495265387E+02  0.19569991997E+01  0.21769208965E+02  0.47787271535E+02  0.20000002236E+02 0.  0.
        -12    1    1    2    0    0 -0.37495265387E+02 -0.19569991997E+01 -0.21769208965E+02  0.43400728465E+02  0.00000000000E+00 0.  1.
         11    1    3    3    0    0  0.91807898961E+01 -0.32053986513E+01  0.84499984972E+00  0.97609174076E+01  0.51100000000E-03 0.  1.
        -11    1    3    3    0    0  0.23363988532E+02  0.69546002634E+01  0.10898766399E+02  0.26702537973E+02  0.51100000000E-03 0. -1.
         12    1    3    3    0    0  0.49504869597E+01 -0.17922024125E+01  0.10025442717E+02  0.11323816154E+02  0.00000000000E+00 0. -1.
</event>
<event>
 7    1  0.1427898E-010  0.4778727E+02  0.7816164E-02  0.1312668E+00
        -11   -1    0    0    0    0  0.00000000000E+00  0.00000000000E+00  0.45593999997E+02  0.45594000000E+02  0.51100000000E-03 0.  1.
         11   -1    0    0    0    0 -0.00000000000E+00 -0.00000000000E+00 -0.45593999997E+02  0.45594000000E+02  0.51100000000E-03 0. -1.
    9900012    2    1    2    0    0  0.58151316294E+01 -0.29435884968E+02 -0.31358194491E+02  0.47787269114E+02  0.19999991198E+02 0.  0.
        -12    1    1    2    0    0 -0.58151316294E+01  0.29435884968E+02  0.31358194491E+02  0.43400730886E+02  0.00000000000E+00 0.  1.
         11    1    3    3    0    0  0.32725321543E+01 -0.22615606114E+02 -0.17234394185E+02  0.28621660500E+02  0.51100000000E-03 0. -1.
        -11    1    3    3    0    0  0.41982110526E+01 -0.26802782585E+01 -0.71127753682E+00  0.50313798883E+01  0.51100000000E-03 0.  1.
        -12    1    3    3    0    0 -0.16556115775E+01 -0.41400005955E+01 -0.13412522769E+02  0.14134228726E+02  0.00000000000E+00 0.  1.
</event>
<event>
 7    1  0.1427898E-010  0.4778726E+02  0.7816164E-02  0.1312668E+00
        -11   -1    0    0    0    0  0.00000000000E+00  0.00000000000E+00  0.45593999997E+02  0.45594000000E+02  0.51100000000E-03 0.  1.
         11   -1    0    0    0    0 -0.00000000000E+00 -0.00000000000E+00 -0.45593999997E+02  0.45594000000E+02  0.51100000000E-03 0. -1.
    9900012    2    1    2    0    0 -0.22205562883E+02  0.98855701259E+01 -0.35955700136E+02  0.47787263924E+02  0.19999967535E+02 0.  0.
        -12    1    1    2    0    0  0.22205562883E+02 -0.98855701259E+01  0.35955700136E+02  0.43400736076E+02  0.00000000000E+00 0.  1.
         11    1    3    3    0    0  0.10961908798E+01  0.47648125983E+00 -0.10565916196E+02  0.10633308712E+02  0.51100000000E-03 0. -1.
        -11    1    3    3    0    0 -0.57236813289E+01  0.58528917763E+01 -0.36274735957E+01  0.89540736566E+01  0.51100000000E-03 0.  1.
         12    1    3    3    0    0 -0.17578072434E+02  0.35561970898E+01 -0.21762310344E+02  0.28199881556E+02  0.00000000000E+00 0. -1.
</event>
<event>
 7    1  0.1427898E-010  0.4778726E+02  0.7816164E-02  0.1312668E+00
        -11   -1    0    0    0    0  0.00000000000E+00  0.00000000000E+00  0.45593999997E+02  0.45594000000E+02  0.51100000000E-03 0.  1.
         11   -1    0    0    0    0 -0.00000000000E+00 -0.00000000000E+00 -0.45593999997E+02  0.45594000000E+02  0.51100000000E-03 0. -1.
    9900012    2    1    2    0    0 -0.28321911969E+02  0.32469836001E+02 -0.52156640911E+01  0.47787261534E+02  0.19999956636E+02 0.  0.
        -12    1    1    2    0    0  0.28321911969E+02 -0.32469836001E+02  0.52156640911E+01  0.43400738466E+02  0.00000000000E+00 0.  1.
         11    1    3    3    0    0 -0.48547492987E+00  0.13917740683E+00 -0.21531992901E+01  0.22116337179E+01  0.51100000000E-03 0. -1.
        -11    1    3    3    0    0 -0.23513853267E+02  0.19273124155E+02  0.29871450631E+01  0.30549593222E+02  0.51100000000E-03 0.  1.
        -12    1    3    3    0    0 -0.43225837729E+01  0.13057534439E+02 -0.60496098641E+01  0.15026034594E+02  0.00000000000E+00 0.  1.
</event>
<event>
 7    1  0.1427898E-010  0.4778727E+02  0.7816164E-02  0.1312668E+00
        -11   -1    0    0    0    0  0.00000000000E+00  0.00000000000E+00  0.45593999997E+02  0.45594000000E+02  0.51100000000E-03 0.  1.
         11   -1    0    0    0    0 -0.00000000000E+00 -0.00000000000E+00 -0.45593999997E+02  0.45594000000E+02  0.51100000000E-03 0. -1.
    9900012    2    1    2    0    0 -0.11115050229E+02  0.40551179639E+02 -0.10755498095E+02  0.47787271308E+02  0.20000001201E+02 0.  0.
        -12    1    1    2    0    0  0.11115050229E+02 -0.40551179639E+02  0.10755498095E+02  0.43400728692E+02  0.00000000000E+00 0.  1.
         11    1    3    3    0    0 -0.31475339877E+01  0.30507889088E+01 -0.29039222422E+01  0.52580460077E+01  0.51100000000E-03 0. -1.
        -11    1    3    3    0    0 -0.48876620259E+01  0.37665602144E+02 -0.49643973349E+01  0.38304465355E+02  0.51100000000E-03 0.  1.
        -12    1    3    3    0    0 -0.30798542156E+01 -0.16521141367E+00 -0.28871785183E+01  0.42247599455E+01  0.00000000000E+00 0.  1.
</event>
<event>
 7    1  0.2444406E-010  0.4778727E+02  0.7816164E-02  0.1312668E+00
        -11   -1    0    0    0    0  0.00000000000E+00  0.00000000000E+00  0.45593999997E+02  0.45594000000E+02  0.51100000000E-03 0. -1.
         11   -1    0    0    0    0 -0.00000000000E+00 -0.00000000000E+00 -0.45593999997E+02  0.45594000000E+02  0.51100000000E-03 0.  1.
    9900012    2    1    2    0    0  0.23908412932E+02  0.11006285965E+02  0.34509026623E+02  0.47787268922E+02  0.19999990322E+02 0.  0.
        -12    1    1    2    0    0 -0.23908412932E+02 -0.11006285965E+02 -0.34509026623E+02  0.43400731078E+02  0.00000000000E+00 0.  1.
         11    1    3    3    0    0  0.12192194562E+01  0.47853720126E+01  0.97099445689E+00  0.50328035802E+01  0.51100000000E-03 0. -1.
        -11    1    3    3    0    0  0.61133554307E+01 -0.36427943332E+01  0.10846452842E+02  0.12972609787E+02  0.51100000000E-03 0.  1.
         12    1    3    3    0    0  0.16575838045E+02  0.98637082859E+01  0.22691579324E+02  0.29781855555E+02  0.00000000000E+00 0. -1.
</event>
<event>
 7    1  0.1427898E-010  0.4778727E+02  0.7816164E-02  0.1312668E+00
        -11   -1    0    0    0    0  0.00000000000E+00  0.00000000000E+00  0.45593999997E+02  0.45594000000E+02  0.51100000000E-03 0.  1.
         11   -1    0    0    0    0 -0.00000000000E+00 -0.00000000000E+00 -0.45593999997E+02  0.45594000000E+02  0.51100000000E-03 0. -1.
    9900012    2    1    2    0    0  0.43057930022E+02  0.35966340794E+01 -0.40868008395E+01  0.47787273559E+02  0.20000011467E+02 0.  0.
        -12    1    1    2    0    0 -0.43057930022E+02 -0.35966340794E+01  0.40868008395E+01  0.43400726441E+02  0.00000000000E+00 0.  1.
         11    1    3    3    0    0  0.18013496719E+02 -0.52353093676E+00 -0.21069566714E+01  0.18143853377E+02  0.51100000000E-03 0. -1.
        -11    1    3    3    0    0  0.10238716715E+02  0.90085837393E+01  0.13357878804E+01  0.13702927807E+02  0.51100000000E-03 0.  1.
        -12    1    3    3    0    0  0.14805716588E+02 -0.48884187232E+01 -0.33156320484E+01  0.15940492375E+02  0.00000000000E+00 0.  1.
</event>
<event>
 7    1  0.1427898E-010  0.4778728E+02  0.7816164E-02  0.1312668E+00
        -11   -1    0    0    0    0  0.00000000000E+00  0.00000000000E+00  0.45593999997E+02  0.45594000000E+02  0.51100000000E-03 0.  1.
         11   -1    0    0    0    0 -0.00000000000E+00 -0.00000000000E+00 -0.45593999997E+02  0.45594000000E+02  0.51100000000E-03 0. -1.
    9900012    2    1    2    0    0 -0.21637822038E+02  0.73590357220E+01 -0.36895414242E+02  0.47787281787E+02  0.20000048980E+02 0.  0.
        -12    1    1    2    0    0  0.21637822038E+02 -0.73590357220E+01  0.36895414242E+02  0.43400718213E+02  0.00000000000E+00 0.  1.
         11    1    3    3    0    0 -0.58935383152E+01 -0.28151908879E+01 -0.17538889144E+02  0.18715547715E+02  0.51100000000E-03 0. -1.
        -11    1    3    3    0    0 -0.38759354499E+00  0.55516437878E+01 -0.38772357986E+01  0.67826200838E+01  0.51100000000E-03 0.  1.
         12    1    3    3    0    0 -0.15356690178E+02  0.46225828221E+01 -0.15479289299E+02  0.22289113988E+02  0.00000000000E+00 0. -1.
</event>
<event>
 7    1  0.1427898E-010  0.4778727E+02  0.7816164E-02  0.1312668E+00
        -11   -1    0    0    0    0  0.00000000000E+00  0.00000000000E+00  0.45593999997E+02  0.45594000000E+02  0.51100000000E-03 0.  1.
         11   -1    0    0    0    0 -0.00000000000E+00 -0.00000000000E+00 -0.45593999997E+02  0.45594000000E+02  0.51100000000E-03 0. -1.
    9900012    2    1    2    0    0  0.16937641071E+02  0.17593647047E+02 -0.35877611425E+02  0.47787273013E+02  0.20000008974E+02 0.  0.
        -12    1    1    2    0    0 -0.16937641071E+02 -0.17593647047E+02  0.35877611425E+02  0.43400726987E+02  0.00000000000E+00 0.  1.
         11    1    3    3    0    0  0.10159184643E+01  0.55566164749E+01 -0.11999339389E+02  0.13262436541E+02  0.51100000000E-03 0. -1.
        -11    1    3    3    0    0  0.72390313171E+01  0.10696757179E+02 -0.52756038074E+01  0.13951924037E+02  0.51100000000E-03 0.  1.
         12    1    3    3    0    0  0.86826912897E+01  0.13402733935E+01 -0.18602668229E+02  0.20572912435E+02  0.00000000000E+00 0. -1.
</event>
<event>
 7    1  0.1427898E-010  0.4778728E+02  0.7816164E-02  0.1312668E+00
        -11   -1    0    0    0    0  0.00000000000E+00  0.00000000000E+00  0.45593999997E+02  0.45594000000E+02  0.51100000000E-03 0.  1.
         11   -1    0    0    0    0 -0.00000000000E+00 -0.00000000000E+00 -0.45593999997E+02  0.45594000000E+02  0.51100000000E-03 0. -1.
    9900012    2    1    2    0    0  0.25374392394E+01 -0.39226437008E+02 -0.18397577141E+02  0.47787276470E+02  0.20000024738E+02 0.  0.
        -12    1    1    2    0    0 -0.25374392394E+01  0.39226437008E+02  0.18397577141E+02  0.43400723530E+02  0.00000000000E+00 0.  1.
         11    1    3    3    0    0 -0.39019346154E+01 -0.96390261192E+01 -0.35283173061E+01  0.10981117500E+02  0.51100000000E-03 0. -1.
        -11    1    3    3    0    0  0.24560942644E+01 -0.98679009593E+01  0.22215302276E+01  0.10408797490E+02  0.51100000000E-03 0.  1.
        -12    1    3    3    0    0  0.39832795905E+01 -0.19719509930E+02 -0.17090790062E+02  0.26397361480E+02  0.00000000000E+00 0.  1.
</event>
<event>
 7    1  0.1427898E-010  0.4778726E+02  0.7816164E-02  0.1312668E+00
        -11   -1    0    0    0    0  0.00000000000E+00  0.00000000000E+00  0.45593999997E+02  0.45594000000E+02  0.51100000000E-03 0.  1.
         11   -1    0    0    0    0 -0.00000000000E+00 -0.00000000000E+00 -0.45593999997E+02  0.45594000000E+02  0.51100000000E-03 0. -1.
    9900012    2    1    2    0    0  0.16093636007E+02 -0.32850327446E+02 -0.23355409780E+02  0.47787259232E+02  0.19999946141E+02 0.  0.
        -12    1    1    2    0    0 -0.16093636007E+02  0.32850327446E+02  0.23355409780E+02  0.43400740768E+02  0.00000000000E+00 0.  1.
         11    1    3    3    0    0  0.17234911378E+01 -0.51116180055E+01  0.22167607545E+01  0.58320741456E+01  0.51100000000E-03 0. -1.
        -11    1    3    3    0    0  0.12564206387E+02 -0.12740402475E+02 -0.11235503125E+02  0.21128503688E+02  0.51100000000E-03 0.  1.
         12    1    3    3    0    0  0.18059384817E+01 -0.14998306966E+02 -0.14336667410E+02  0.20826681398E+02  0.00000000000E+00 0. -1.
</event>
<event>
 7    1  0.1427898E-010  0.4778727E+02  0.7816164E-02  0.1312668E+00
        -11   -1    0    0    0    0  0.00000000000E+00  0.00000000000E+00  0.45593999997E+02  0.45594000000E+02  0.51100000000E-03 0.  1.
         11   -1    0    0    0    0 -0.00000000000E+00 -0.00000000000E+00 -0.45593999997E+02  0.45594000000E+02  0.51100000000E-03 0. -1.
    9900012    2    1    2    0    0  0.32106793111E+02  0.10856524310E+02 -0.27109277954E+02  0.47787271491E+02  0.20000002035E+02 0.  0.
        -12    1    1    2    0    0 -0.32106793111E+02 -0.10856524310E+02  0.27109277954E+02  0.43400728509E+02  0.00000000000E+00 0.  1.
         11    1    3    3    0    0  0.69540769172E+01 -0.40012146096E+01 -0.64625210559E+01  0.10302091185E+02  0.51100000000E-03 0. -1.
        -11    1    3    3    0    0  0.11496457086E+01  0.22544828871E+01 -0.63501253176E+01  0.68358225659E+01  0.51100000000E-03 0.  1.
         12    1    3    3    0    0  0.24003070485E+02  0.12603256033E+02 -0.14296631580E+02  0.30649357740E+02  0.00000000000E+00 0. -1.
</event>
<event>
 7    1  0.1427898E-010  0.4778727E+02  0.7816164E-02  0.1312668E+00
        -11   -1    0    0    0    0  0.00000000000E+00  0.00000000000E+00  0.45593999997E+02  0.45594000000E+02  0.51100000000E-03 0.  1.
         11   -1    0    0    0    0 -0.00000000000E+00 -0.00000000000E+00 -0.45593999997E+02  0.45594000000E+02  0.51100000000E-03 0. -1.
    9900012    2    1    2    0    0 -0.40882253582E+02  0.52056696204E+01 -0.13607551843E+02  0.47787272802E+02  0.20000008013E+02 0.  0.
        -12    1    1    2    0    0  0.40882253582E+02 -0.52056696204E+01  0.13607551843E+02  0.43400727198E+02  0.00000000000E+00 0.  1.
         11    1    3    3    0    0 -0.96596529535E+01 -0.25981799646E+01 -0.19866890296E+01  0.10198351233E+02  0.51100000000E-03 0. -1.
        -11    1    3    3    0    0 -0.64515701654E+01  0.88344115171E+01 -0.30468503518E+01  0.11355742238E+02  0.51100000000E-03 0.  1.
        -12    1    3    3    0    0 -0.24771030463E+02 -0.10305619321E+01 -0.85740124616E+01  0.26233179331E+02  0.00000000000E+00 0.  1.
</event>
<event>
 7    1  0.1427898E-010  0.4778727E+02  0.7816164E-02  0.1312668E+00
        -11   -1    0    0    0    0  0.00000000000E+00  0.00000000000E+00  0.45593999997E+02  0.45594000000E+02  0.51100000000E-03 0.  1.
         11   -1    0    0    0    0 -0.00000000000E+00 -0.00000000000E+00 -0.45593999997E+02  0.45594000000E+02  0.51100000000E-03 0. -1.
    9900012    2    1    2    0    0 -0.52225487151E+01  0.16130020949E+02 -0.39952102614E+02  0.47787273114E+02  0.20000009438E+02 0.  0.
        -12    1    1    2    0    0  0.52225487151E+01 -0.16130020949E+02  0.39952102614E+02  0.43400726886E+02  0.00000000000E+00 0.  1.
         11    1    3    3    0    0 -0.48676700235E+01  0.59983719540E+01 -0.31665897585E+02  0.32594535549E+02  0.51100000000E-03 0. -1.
        -11    1    3    3    0    0 -0.39416453153E+01  0.46225485987E+01 -0.48594976771E+01  0.77794113707E+01  0.51100000000E-03 0.  1.
         12    1    3    3    0    0  0.35867666237E+01  0.55091003960E+01 -0.34267073525E+01  0.74133261945E+01  0.00000000000E+00 0. -1.
</event>
<event>
 7    1  0.1427898E-010  0.4778727E+02  0.7816164E-02  0.1312668E+00
        -11   -1    0    0    0    0  0.00000000000E+00  0.00000000000E+00  0.45593999997E+02  0.45594000000E+02  0.51100000000E-03 0.  1.
         11   -1    0    0    0    0 -0.00000000000E+00 -0.00000000000E+00 -0.45593999997E+02  0.45594000000E+02  0.51100000000E-03 0. -1.
    9900012    2    1    2    0    0 -0.25106240000E+01 -0.21318803980E+02 -0.37720397718E+02  0.47787273739E+02  0.20000012284E+02 0.  0.
        -12    1    1    2    0    0  0.25106240000E+01  0.21318803980E+02  0.37720397718E+02  0.43400726261E+02  0.00000000000E+00 0.  1.
         11    1    3    3    0    0  0.21124750826E+01 -0.13153900281E+02 -0.17786252451E+02  0.22222475562E+02  0.51100000000E-03 0. -1.
        -11    1    3    3    0    0 -0.72316258969E+01 -0.86296889529E+01 -0.92934673660E+01  0.14599194515E+02  0.51100000000E-03 0.  1.
        -12    1    3    3    0    0  0.26085268143E+01  0.46478525447E+00 -0.10640677901E+02  0.10965603662E+02  0.00000000000E+00 0.  1.
</event>
<event>
 7    1  0.1427898E-010  0.4778727E+02  0.7816164E-02  0.1312668E+00
        -11   -1    0    0    0    0  0.00000000000E+00  0.00000000000E+00  0.45593999997E+02  0.45594000000E+02  0.51100000000E-03 0.  1.
         11   -1    0    0    0    0 -0.00000000000E+00 -0.00000000000E+00 -0.45593999997E+02  0.45594000000E+02  0.51100000000E-03 0. -1.
    9900012    2    1    2    0    0 -0.38819043964E+02 -0.40311908003E+00 -0.19404704294E+02  0.47787271573E+02  0.20000002411E+02 0.  0.
        -12    1    1    2    0    0  0.38819043964E+02  0.40311908003E+00  0.19404704294E+02  0.43400728427E+02  0.00000000000E+00 0.  1.
         11    1    3    3    0    0 -0.14624015764E+02  0.57082587306E+01 -0.36888812303E+01  0.16126186772E+02  0.51100000000E-03 0.  1.
        -11    1    3    3    0    0 -0.19215980705E+02 -0.11591306299E+01 -0.15363128554E+02  0.24629722237E+02  0.51100000000E-03 0. -1.
         12    1    3    3    0    0 -0.49790474949E+01 -0.49522471808E+01 -0.35269450984E+00  0.70313625645E+01  0.00000000000E+00 0. -1.
</event>
<event>
 7    1  0.1427898E-010  0.4778726E+02  0.7816164E-02  0.1312668E+00
        -11   -1    0    0    0    0  0.00000000000E+00  0.00000000000E+00  0.45593999997E+02  0.45594000000E+02  0.51100000000E-03 0. -1.
         11   -1    0    0    0    0 -0.00000000000E+00 -0.00000000000E+00 -0.45593999997E+02  0.45594000000E+02  0.51100000000E-03 0.  1.
    9900012    2    1    2    0    0 -0.18032037306E+02  0.39476818797E+02  0.22503148286E+00  0.47787260019E+02  0.19999949731E+02 0.  0.
        -12    1    1    2    0    0  0.18032037306E+02 -0.39476818797E+02 -0.22503148286E+00  0.43400739981E+02  0.00000000000E+00 0.  1.
         11    1    3    3    0    0 -0.43010691658E+00  0.67134078858E+01  0.54848469075E+01  0.86797686180E+01  0.51100000000E-03 0. -1.
        -11    1    3    3    0    0 -0.18524966525E+02  0.29984904798E+02 -0.29329565432E+01  0.35367656621E+02  0.51100000000E-03 0.  1.
         12    1    3    3    0    0  0.92303613608E+00  0.27785061130E+01 -0.23268588815E+01  0.37398347802E+01  0.00000000000E+00 0. -1.
</event>
<event>
 7    1  0.1427898E-010  0.4778727E+02  0.7816164E-02  0.1312668E+00
        -11   -1    0    0    0    0  0.00000000000E+00  0.00000000000E+00  0.45593999997E+02  0.45594000000E+02  0.51100000000E-03 0.  1.
         11   -1    0    0    0    0 -0.00000000000E+00 -0.00000000000E+00 -0.45593999997E+02  0.45594000000E+02  0.51100000000E-03 0. -1.
    9900012    2    1    2    0    0  0.17162097509E+02  0.15384237844E+02 -0.36775139707E+02  0.47787271141E+02  0.20000000442E+02 0.  0.
        -12    1    1    2    0    0 -0.17162097509E+02 -0.15384237844E+02  0.36775139707E+02  0.43400728859E+02  0.00000000000E+00 0.  1.
         11    1    3    3    0    0  0.10716966509E+02  0.10861655854E+02 -0.20992052891E+02  0.25951786526E+02  0.51100000000E-03 0. -1.
        -11    1    3    3    0    0  0.53186971215E+01 -0.38808329768E+01 -0.62601700234E+01  0.90851049882E+01  0.51100000000E-03 0.  1.
         12    1    3    3    0    0  0.11264338792E+01  0.84034149673E+01 -0.95229167929E+01  0.12750379627E+02  0.00000000000E+00 0. -1.
</event>
<event>
 7    1  0.1427898E-010  0.4778727E+02  0.7816164E-02  0.1312668E+00
        -11   -1    0    0    0    0  0.00000000000E+00  0.00000000000E+00  0.45593999997E+02  0.45594000000E+02  0.51100000000E-03 0.  1.
         11   -1    0    0    0    0 -0.00000000000E+00 -0.00000000000E+00 -0.45593999997E+02  0.45594000000E+02  0.51100000000E-03 0. -1.
    9900012    2    1    2    0    0 -0.28326732523E+02  0.22978429335E+02 -0.23520443722E+02  0.47787271170E+02  0.20000000572E+02 0.  0.
        -12    1    1    2    0    0  0.28326732523E+02 -0.22978429335E+02  0.23520443722E+02  0.43400728830E+02  0.00000000000E+00 0.  1.
         11    1    3    3    0    0 -0.12398120733E+02  0.73664163982E+01 -0.10252552590E+02  0.17694415027E+02  0.51100000000E-03 0. -1.
        -11    1    3    3    0    0  0.13942952194E+01  0.30001436041E+01 -0.70399041321E+01  0.77785070067E+01  0.51100000000E-03 0.  1.
        -12    1    3    3    0    0 -0.17322907010E+02  0.12611869332E+02 -0.62279869997E+01  0.22314349137E+02  0.00000000000E+00 0.  1.
</event>
<event>
 7    1  0.1427898E-010  0.4778727E+02  0.7816164E-02  0.1312668E+00
        -11   -1    0    0    0    0  0.00000000000E+00  0.00000000000E+00  0.45593999997E+02  0.45594000000E+02  0.51100000000E-03 0.  1.
         11   -1    0    0    0    0 -0.00000000000E+00 -0.00000000000E+00 -0.45593999997E+02  0.45594000000E+02  0.51100000000E-03 0. -1.
    9900012    2    1    2    0    0 -0.39582973671E+02 -0.16668758328E+02  0.62421140155E+01  0.47787270787E+02  0.19999998827E+02 0.  0.
        -12    1    1    2    0    0  0.39582973671E+02  0.16668758328E+02 -0.62421140155E+01  0.43400729213E+02  0.00000000000E+00 0.  1.
         11    1    3    3    0    0 -0.54747696402E+01 -0.72227666220E+01  0.15167243751E+01  0.91892281167E+01  0.51100000000E-03 0. -1.
        -11    1    3    3    0    0 -0.23535690430E+02 -0.35542833893E+01  0.94437490921E+01  0.25607538960E+02  0.51100000000E-03 0.  1.
        -12    1    3    3    0    0 -0.10572513601E+02 -0.58917083171E+01 -0.47183594517E+01  0.12990503710E+02  0.00000000000E+00 0.  1.
</event>
<event>
 7    1  0.1427898E-010  0.4778727E+02  0.7816164E-02  0.1312668E+00
        -11   -1    0    0    0    0  0.00000000000E+00  0.00000000000E+00  0.45593999997E+02  0.45594000000E+02  0.51100000000E-03 0.  1.
         11   -1    0    0    0    0 -0.00000000000E+00 -0.00000000000E+00 -0.45593999997E+02  0.45594000000E+02  0.51100000000E-03 0. -1.
    9900012    2    1    2    0    0  0.38588390594E+02 -0.89966996611E+01 -0.17709280019E+02  0.47787273138E+02  0.20000009543E+02 0.  0.
        -12    1    1    2    0    0 -0.38588390594E+02  0.89966996611E+01  0.17709280019E+02  0.43400726862E+02  0.00000000000E+00 0.  1.
         11    1    3    3    0    0  0.21090689821E+02  0.14425635595E+01 -0.88042465828E+01  0.22900064299E+02  0.51100000000E-03 0. -1.
        -11    1    3    3    0    0  0.72500395975E+01 -0.40068132441E+01  0.20848594851E+01  0.85419123077E+01  0.51100000000E-03 0.  1.
         12    1    3    3    0    0  0.10247661175E+02 -0.64324499765E+01 -0.10989892921E+02  0.16345296531E+02  0.00000000000E+00 0. -1.
</event>
<event>
 7    1  0.1427898E-010  0.4778727E+02  0.7816164E-02  0.1312668E+00
        -11   -1    0    0    0    0  0.00000000000E+00  0.00000000000E+00  0.45593999997E+02  0.45594000000E+02  0.51100000000E-03 0. -1.
         11   -1    0    0    0    0 -0.00000000000E+00 -0.00000000000E+00 -0.45593999997E+02  0.45594000000E+02  0.51100000000E-03 0.  1.
    9900012    2    1    2    0    0  0.36856455585E+02 -0.11603068812E+01  0.22888395444E+02  0.47787271016E+02  0.19999999871E+02 0.  0.
        -12    1    1    2    0    0 -0.36856455585E+02  0.11603068812E+01 -0.22888395444E+02  0.43400728984E+02  0.00000000000E+00 0.  1.
         11    1    3    3    0    0  0.16583038782E+02  0.36188505071E+01  0.54540565292E+01  0.17828067397E+02  0.51100000000E-03 0. -1.
        -11    1    3    3    0    0 -0.16580360445E+01  0.59931174166E+00  0.96322234710E+00  0.20089936883E+01  0.51100000000E-03 0.  1.
        -12    1    3    3    0    0  0.21931452847E+02 -0.53784691300E+01  0.16471116568E+02  0.27950209930E+02  0.00000000000E+00 0.  1.
</event>
<event>
 7    1  0.1427898E-010  0.4778727E+02  0.7816164E-02  0.1312668E+00
        -11   -1    0    0    0    0  0.00000000000E+00  0.00000000000E+00  0.45593999997E+02  0.45594000000E+02  0.51100000000E-03 0. -1.
         11   -1    0    0    0    0 -0.00000000000E+00 -0.00000000000E+00 -0.45593999997E+02  0.45594000000E+02  0.51100000000E-03 0.  1.
    9900012    2    1    2    0    0  0.29087570462E+02 -0.11311674313E+02  0.30159284917E+02  0.47787271920E+02  0.20000003993E+02 0.  0.
        -12    1    1    2    0    0 -0.29087570462E+02  0.11311674313E+02 -0.30159284917E+02  0.43400728080E+02  0.00000000000E+00 0.  1.
         11    1    3    3    0    0  0.18492285498E+02 -0.10387826507E+02  0.87719365752E+01  0.22952525657E+02  0.51100000000E-03 0. -1.
        -11    1    3    3    0    0  0.77845316639E+01 -0.37337915194E+01  0.14071013719E+02  0.16508590481E+02  0.51100000000E-03 0.  1.
         12    1    3    3    0    0  0.28107532994E+01  0.28099437139E+01  0.73163346230E+01  0.83261557817E+01  0.00000000000E+00 0. -1.
</event>
<event>
 7    1  0.1427898E-010  0.4778727E+02  0.7816164E-02  0.1312668E+00
        -11   -1    0    0    0    0  0.00000000000E+00  0.00000000000E+00  0.45593999997E+02  0.45594000000E+02  0.51100000000E-03 0.  1.
         11   -1    0    0    0    0 -0.00000000000E+00 -0.00000000000E+00 -0.45593999997E+02  0.45594000000E+02  0.51100000000E-03 0. -1.
    9900012    2    1    2    0    0  0.23353312941E+02 -0.27027932705E+02 -0.24652319580E+02  0.47787271523E+02  0.20000002183E+02 0.  0.
        -12    1    1    2    0    0 -0.23353312941E+02  0.27027932705E+02  0.24652319580E+02  0.43400728477E+02  0.00000000000E+00 0.  1.
         11    1    3    3    0    0  0.38985247425E+01  0.72401362910E+00 -0.10090383778E+01  0.40915583354E+01  0.51100000000E-03 0. -1.
        -11    1    3    3    0    0  0.80651762732E+01 -0.21188425686E+02 -0.19524974643E+02  0.29920245428E+02  0.51100000000E-03 0.  1.
         12    1    3    3    0    0  0.11389611925E+02 -0.65635206477E+01 -0.41183065598E+01  0.13775467760E+02  0.00000000000E+00 0. -1.
</event>
<event>
 7    1  0.1427898E-010  0.4778727E+02  0.7816164E-02  0.1312668E+00
        -11   -1    0    0    0    0  0.00000000000E+00  0.00000000000E+00  0.45593999997E+02  0.45594000000E+02  0.51100000000E-03 0.  1.
         11   -1    0    0    0    0 -0.00000000000E+00 -0.00000000000E+00 -0.45593999997E+02  0.45594000000E+02  0.51100000000E-03 0. -1.
    9900012    2    1    2    0    0  0.75782161237E+01  0.38204168059E+02 -0.19147719118E+02  0.47787274613E+02  0.20000016271E+02 0.  0.
        -12    1    1    2    0    0 -0.75782161237E+01 -0.38204168059E+02  0.19147719118E+02  0.43400725387E+02  0.00000000000E+00 0.  1.
         11    1    3    3    0    0  0.64647648624E+01  0.13254665165E+02 -0.43164116207E+00  0.14753496119E+02  0.51100000000E-03 0. -1.
        -11    1    3    3    0    0  0.53876622410E+01  0.14042376314E+02 -0.13499122774E+02  0.20209936983E+02  0.51100000000E-03 0.  1.
        -12    1    3    3    0    0 -0.42742109797E+01  0.10907126580E+02 -0.52169551825E+01  0.12823841511E+02  0.00000000000E+00 0.  1.
</event>
<event>
 7    1  0.1427898E-010  0.4778727E+02  0.7816164E-02  0.1312668E+00
        -11   -1    0    0    0    0  0.00000000000E+00  0.00000000000E+00  0.45593999997E+02  0.45594000000E+02  0.51100000000E-03 0.  1.
         11   -1    0    0    0    0 -0.00000000000E+00 -0.00000000000E+00 -0.45593999997E+02  0.45594000000E+02  0.51100000000E-03 0. -1.
    9900012    2    1    2    0    0 -0.17983278052E+02 -0.15160907183E+02 -0.36474262006E+02  0.47787272068E+02  0.20000004667E+02 0.  0.
        -12    1    1    2    0    0  0.17983278052E+02  0.15160907183E+02  0.36474262006E+02  0.43400727932E+02  0.00000000000E+00 0.  1.
         11    1    3    3    0    0  0.24800683990E+01 -0.35290669178E+01 -0.51925307171E+01  0.67503650333E+01  0.51100000000E-03 0. -1.
        -11    1    3    3    0    0 -0.12470047644E+02 -0.21065108702E+00 -0.12616734146E+02  0.17740587445E+02  0.51100000000E-03 0.  1.
         12    1    3    3    0    0 -0.79932988072E+01 -0.11421189178E+02 -0.18664997143E+02  0.23296319590E+02  0.00000000000E+00 0. -1.
</event>
<event>
 7    1  0.1427898E-010  0.4778727E+02  0.7816164E-02  0.1312668E+00
        -11   -1    0    0    0    0  0.00000000000E+00  0.00000000000E+00  0.45593999997E+02  0.45594000000E+02  0.51100000000E-03 0.  1.
         11   -1    0    0    0    0 -0.00000000000E+00 -0.00000000000E+00 -0.45593999997E+02  0.45594000000E+02  0.51100000000E-03 0. -1.
    9900012    2    1    2    0    0  0.11066441159E+02 -0.40536864407E+02 -0.10859096544E+02  0.47787268743E+02  0.19999989508E+02 0.  0.
        -12    1    1    2    0    0 -0.11066441159E+02  0.40536864407E+02  0.10859096544E+02  0.43400731257E+02  0.00000000000E+00 0.  1.
         11    1    3    3    0    0  0.49640937404E+00  0.98221883050E+00 -0.87660241806E+00  0.14069854861E+01  0.51100000000E-03 0. -1.
        -11    1    3    3    0    0  0.49387300618E+01 -0.24771539626E+02  0.15074084444E+01  0.25304001868E+02  0.51100000000E-03 0.  1.
         12    1    3    3    0    0  0.56313017235E+01 -0.16747543611E+02 -0.11489902570E+02  0.21076281389E+02  0.00000000000E+00 0. -1.
</event>
<event>
 7    1  0.1427898E-010  0.4778727E+02  0.7816164E-02  0.1312668E+00
        -11   -1    0    0    0    0  0.00000000000E+00  0.00000000000E+00  0.45593999997E+02  0.45594000000E+02  0.51100000000E-03 0.  1.
         11   -1    0    0    0    0 -0.00000000000E+00 -0.00000000000E+00 -0.45593999997E+02  0.45594000000E+02  0.51100000000E-03 0. -1.
    9900012    2    1    2    0    0  0.52435788860E+01  0.42722288408E+02 -0.55618451971E+01  0.47787272261E+02  0.20000005545E+02 0.  0.
        -12    1    1    2    0    0 -0.52435788860E+01 -0.42722288408E+02  0.55618451971E+01  0.43400727739E+02  0.00000000000E+00 0.  1.
         11    1    3    3    0    0  0.59211247284E+01  0.13954264535E+02 -0.17209443588E+00  0.15159512971E+02  0.51100000000E-03 0. -1.
        -11    1    3    3    0    0 -0.26988666007E+01  0.21282297319E+02 -0.99332149803E+01  0.23640829516E+02  0.51100000000E-03 0.  1.
         12    1    3    3    0    0  0.20213207582E+01  0.74857265546E+01  0.45434642191E+01  0.89869297743E+01  0.00000000000E+00 0. -1.
</event>
<event>
 7    1  0.1427898E-010  0.4778727E+02  0.7816164E-02  0.1312668E+00
        -11   -1    0    0    0    0  0.00000000000E+00  0.00000000000E+00  0.45593999997E+02  0.45594000000E+02  0.51100000000E-03 0.  1.
         11   -1    0    0    0    0 -0.00000000000E+00 -0.00000000000E+00 -0.45593999997E+02  0.45594000000E+02  0.51100000000E-03 0. -1.
    9900012    2    1    2    0    0 -0.35465704594E+02 -0.14540427293E+02 -0.20356399018E+02  0.47787271790E+02  0.20000003399E+02 0.  0.
        -12    1    1    2    0    0  0.35465704594E+02  0.14540427293E+02  0.20356399018E+02  0.43400728210E+02  0.00000000000E+00 0.  1.
         11    1    3    3    0    0 -0.13807504193E+02 -0.12903846463E+01 -0.76126221395E+01  0.15819743382E+02  0.51100000000E-03 0. -1.
        -11    1    3    3    0    0  0.20054043104E+01 -0.17676121882E+01  0.14477143115E+00  0.26771362170E+01  0.51100000000E-03 0.  1.
         12    1    3    3    0    0 -0.23663604711E+02 -0.11482430459E+02 -0.12888548309E+02  0.29290392190E+02  0.00000000000E+00 0. -1.
</event>
<event>
 7    1  0.1427898E-010  0.4778727E+02  0.7816164E-02  0.1312668E+00
        -11   -1    0    0    0    0  0.00000000000E+00  0.00000000000E+00  0.45593999997E+02  0.45594000000E+02  0.51100000000E-03 0. -1.
         11   -1    0    0    0    0 -0.00000000000E+00 -0.00000000000E+00 -0.45593999997E+02  0.45594000000E+02  0.51100000000E-03 0.  1.
    9900012    2    1    2    0    0 -0.29998507546E+02  0.29151865190E+02  0.11570711982E+02  0.47787273337E+02  0.20000010453E+02 0.  0.
        -12    1    1    2    0    0  0.29998507546E+02 -0.29151865190E+02 -0.11570711982E+02  0.43400726663E+02  0.00000000000E+00 0.  1.
         11    1    3    3    0    0 -0.13547581865E+02  0.16027138619E+02  0.71068483991E+01  0.22156566546E+02  0.51100000000E-03 0. -1.
        -11    1    3    3    0    0  0.37197763015E+00  0.49710252455E+01 -0.26289607451E+01  0.56356804566E+01  0.51100000000E-03 0.  1.
         12    1    3    3    0    0 -0.16822903312E+02  0.81537013259E+01  0.70928243278E+01  0.19995026334E+02  0.00000000000E+00 0. -1.
</event>
<event>
 7    1  0.1427898E-010  0.4778727E+02  0.7816164E-02  0.1312668E+00
        -11   -1    0    0    0    0  0.00000000000E+00  0.00000000000E+00  0.45593999997E+02  0.45594000000E+02  0.51100000000E-03 0.  1.
         11   -1    0    0    0    0 -0.00000000000E+00 -0.00000000000E+00 -0.45593999997E+02  0.45594000000E+02  0.51100000000E-03 0. -1.
    9900012    2    1    2    0    0  0.37717068363E+02  0.64654541966E+01 -0.20475450196E+02  0.47787269539E+02  0.19999993135E+02 0.  0.
        -12    1    1    2    0    0 -0.37717068363E+02 -0.64654541966E+01  0.20475450196E+02  0.43400730461E+02  0.00000000000E+00 0.  1.
         11    1    3    3    0    0  0.24979807596E+02 -0.34713594380E+01 -0.67266025729E+01  0.26101500077E+02  0.51100000000E-03 0. -1.
        -11    1    3    3    0    0  0.85991465987E+01  0.39656045921E+01 -0.70739085942E+01  0.11819962989E+02  0.51100000000E-03 0.  1.
        -12    1    3    3    0    0  0.41381141683E+01  0.59712090426E+01 -0.66749390292E+01  0.98658064720E+01  0.00000000000E+00 0.  1.
</event>
<event>
 7    1  0.1427898E-010  0.4778727E+02  0.7816164E-02  0.1312668E+00
        -11   -1    0    0    0    0  0.00000000000E+00  0.00000000000E+00  0.45593999997E+02  0.45594000000E+02  0.51100000000E-03 0. -1.
         11   -1    0    0    0    0 -0.00000000000E+00 -0.00000000000E+00 -0.45593999997E+02  0.45594000000E+02  0.51100000000E-03 0.  1.
    9900012    2    1    2    0    0 -0.14129978357E+01 -0.27691104498E+02  0.33389060552E+02  0.47787271945E+02  0.20000004105E+02 0.  0.
        -12    1    1    2    0    0  0.14129978357E+01  0.27691104498E+02 -0.33389060552E+02  0.43400728055E+02  0.00000000000E+00 0.  1.
         11    1    3    3    0    0  0.18003793988E+01 -0.53609931172E+01  0.12581303980E+02  0.13793869047E+02  0.51100000000E-03 0. -1.
        -11    1    3    3    0    0  0.19335827726E+01 -0.16288064542E+02  0.65234150157E+01  0.17652046130E+02  0.51100000000E-03 0.  1.
         12    1    3    3    0    0 -0.51469600071E+01 -0.60420468391E+01  0.14284341556E+02  0.16341356768E+02  0.00000000000E+00 0. -1.
</event>
<event>
 7    1  0.1427898E-010  0.4778727E+02  0.7816164E-02  0.1312668E+00
        -11   -1    0    0    0    0  0.00000000000E+00  0.00000000000E+00  0.45593999997E+02  0.45594000000E+02  0.51100000000E-03 0.  1.
         11   -1    0    0    0    0 -0.00000000000E+00 -0.00000000000E+00 -0.45593999997E+02  0.45594000000E+02  0.51100000000E-03 0. -1.
    9900012    2    1    2    0    0 -0.30784446190E+02  0.33597868972E+01 -0.30408109276E+02  0.47787269534E+02  0.19999993115E+02 0.  0.
        -12    1    1    2    0    0  0.30784446190E+02 -0.33597868972E+01  0.30408109276E+02  0.43400730466E+02  0.00000000000E+00 0.  1.
         11    1    3    3    0    0 -0.71501249187E+01 -0.40950079962E+01 -0.93332788633E+01  0.12450039014E+02  0.51100000000E-03 0. -1.
        -11    1    3    3    0    0  0.15831327318E+01  0.21053783413E+00 -0.32397632449E+01  0.36120218119E+01  0.51100000000E-03 0.  1.
        -12    1    3    3    0    0 -0.25217454003E+02  0.72442570593E+01 -0.17835067167E+02  0.31725208709E+02  0.00000000000E+00 0.  1.
</event>
<event>
 7    1  0.1427898E-010  0.4778727E+02  0.7816164E-02  0.1312668E+00
        -11   -1    0    0    0    0  0.00000000000E+00  0.00000000000E+00  0.45593999997E+02  0.45594000000E+02  0.51100000000E-03 0.  1.
         11   -1    0    0    0    0 -0.00000000000E+00 -0.00000000000E+00 -0.45593999997E+02  0.45594000000E+02  0.51100000000E-03 0. -1.
    9900012    2    1    2    0    0  0.17321075820E+02 -0.25386146059E+02 -0.30645507475E+02  0.47787271807E+02  0.20000003477E+02 0.  0.
        -12    1    1    2    0    0 -0.17321075820E+02  0.25386146059E+02  0.30645507475E+02  0.43400728193E+02  0.00000000000E+00 0.  1.
         11    1    3    3    0    0  0.12428605698E+02 -0.10656438150E+02 -0.14466790457E+02  0.21847607192E+02  0.51100000000E-03 0. -1.
        -11    1    3    3    0    0  0.39426999373E+01 -0.11316017023E+02 -0.30835506080E+01  0.12373577037E+02  0.51100000000E-03 0.  1.
        -12    1    3    3    0    0  0.94977018428E+00 -0.34136908856E+01 -0.13095166410E+02  0.13566087578E+02  0.00000000000E+00 0.  1.
</event>
<event>
 7    1  0.1427898E-010  0.4778727E+02  0.7816164E-02  0.1312668E+00
        -11   -1    0    0    0    0  0.00000000000E+00  0.00000000000E+00  0.45593999997E+02  0.45594000000E+02  0.51100000000E-03 0. -1.
         11   -1    0    0    0    0 -0.00000000000E+00 -0.00000000000E+00 -0.45593999997E+02  0.45594000000E+02  0.51100000000E-03 0.  1.
    9900012    2    1    2    0    0 -0.26481896401E+02 -0.33627412995E+02  0.71784006204E+01  0.47787272158E+02  0.20000005078E+02 0.  0.
        -12    1    1    2    0    0  0.26481896401E+02  0.33627412995E+02 -0.71784006204E+01  0.43400727842E+02  0.00000000000E+00 0.  1.
         11    1    3    3    0    0 -0.31259320567E+01  0.17190228732E+01  0.34915527382E+01  0.49917363359E+01  0.51100000000E-03 0. -1.
        -11    1    3    3    0    0 -0.65259429311E+01 -0.12312509192E+02 -0.59943006855E+00  0.13947943590E+02  0.51100000000E-03 0.  1.
         12    1    3    3    0    0 -0.16830021413E+02 -0.23033926677E+02  0.42862779508E+01  0.28847592232E+02  0.00000000000E+00 0. -1.
</event>
<event>
 7    1  0.1428015E-010  0.4778727E+02  0.7816164E-02  0.1312668E+00
        -11   -1    0    0    0    0  0.00000000000E+00  0.00000000000E+00  0.45593999997E+02  0.45594000000E+02  0.51100000000E-03 0. -1.
         11   -1    0    0    0    0 -0.00000000000E+00 -0.00000000000E+00 -0.45593999997E+02  0.45594000000E+02  0.51100000000E-03 0.  1.
    9900012    2    1    2    0    0  0.18576996330E+02 -0.39116043104E+02 -0.29075267241E+01  0.47787270370E+02  0.19999996924E+02 0.  0.
        -12    1    1    2    0    0 -0.18576996330E+02  0.39116043104E+02  0.29075267241E+01  0.43400729630E+02  0.00000000000E+00 0.  1.
         11    1    3    3    0    0  0.11216202670E+02 -0.15422578119E+02 -0.47834980203E+01  0.19660645252E+02  0.51100000000E-03 0. -1.
        -11    1    3    3    0    0 -0.17036553967E+01  0.44283048946E+00 -0.12451419285E+01  0.21561352547E+01  0.51100000000E-03 0.  1.
        -12    1    3    3    0    0  0.90644490571E+01 -0.24136295475E+02  0.31211132248E+01  0.25970489863E+02  0.00000000000E+00 0.  1.
</event>
<event>
 7    1  0.1427898E-010  0.4778727E+02  0.7816164E-02  0.1312668E+00
        -11   -1    0    0    0    0  0.00000000000E+00  0.00000000000E+00  0.45593999997E+02  0.45594000000E+02  0.51100000000E-03 0.  1.
         11   -1    0    0    0    0 -0.00000000000E+00 -0.00000000000E+00 -0.45593999997E+02  0.45594000000E+02  0.51100000000E-03 0. -1.
    9900012    2    1    2    0    0  0.77785444845E+01 -0.12666363548E+02 -0.40775982361E+02  0.47787271236E+02  0.20000000871E+02 0.  0.
        -12    1    1    2    0    0 -0.77785444845E+01  0.12666363548E+02  0.40775982361E+02  0.43400728764E+02  0.00000000000E+00 0.  1.
         11    1    3    3    0    0  0.63672888138E+01  0.12972813875E+01 -0.20476277217E+02  0.21482626347E+02  0.51100000000E-03 0. -1.
        -11    1    3    3    0    0 -0.21761079392E+01 -0.18552741612E+01 -0.62731120964E+00  0.29276283219E+01  0.51100000000E-03 0.  1.
        -12    1    3    3    0    0  0.35873636099E+01 -0.12108370774E+02 -0.19672393934E+02  0.23377016567E+02  0.00000000000E+00 0.  1.
</event>
<event>
 7    1  0.1427898E-010  0.4778727E+02  0.7816164E-02  0.1312668E+00
        -11   -1    0    0    0    0  0.00000000000E+00  0.00000000000E+00  0.45593999997E+02  0.45594000000E+02  0.51100000000E-03 0. -1.
         11   -1    0    0    0    0 -0.00000000000E+00 -0.00000000000E+00 -0.45593999997E+02  0.45594000000E+02  0.51100000000E-03 0.  1.
    9900012    2    1    2    0    0  0.16431859044E+02  0.30711738716E+02  0.25892207558E+02  0.47787270757E+02  0.19999998691E+02 0.  0.
        -12    1    1    2    0    0 -0.16431859044E+02 -0.30711738716E+02 -0.25892207558E+02  0.43400729243E+02  0.00000000000E+00 0.  1.
         11    1    3    3    0    0  0.44942890110E+01  0.16077041264E+02  0.41666182903E+01  0.17205539741E+02  0.51100000000E-03 0. -1.
        -11    1    3    3    0    0  0.72038748234E+00  0.81366243700E+01  0.11315780472E+02  0.13956020286E+02  0.51100000000E-03 0.  1.
        -12    1    3    3    0    0  0.11217182550E+02  0.64980730812E+01  0.10409808796E+02  0.16625710731E+02  0.00000000000E+00 0.  1.
</event>
<event>
 7    1  0.1427898E-010  0.4778727E+02  0.7816164E-02  0.1312668E+00
        -11   -1    0    0    0    0  0.00000000000E+00  0.00000000000E+00  0.45593999997E+02  0.45594000000E+02  0.51100000000E-03 0.  1.
         11   -1    0    0    0    0 -0.00000000000E+00 -0.00000000000E+00 -0.45593999997E+02  0.45594000000E+02  0.51100000000E-03 0. -1.
    9900012    2    1    2    0    0  0.63879024609E+01 -0.60307101184E+01 -0.42502335102E+02  0.47787271302E+02  0.20000001177E+02 0.  0.
        -12    1    1    2    0    0 -0.63879024609E+01  0.60307101184E+01  0.42502335102E+02  0.43400728698E+02  0.00000000000E+00 0.  1.
         11    1    3    3    0    0  0.40185555055E+01  0.38654816635E+01 -0.18530739924E+02  0.19351461424E+02  0.51100000000E-03 0. -1.
        -11    1    3    3    0    0  0.51879342764E+01 -0.87797474598E+01 -0.10538546531E+02  0.14664910186E+02  0.51100000000E-03 0.  1.
         12    1    3    3    0    0 -0.28185873210E+01 -0.11164443221E+01 -0.13433048646E+02  0.13770899693E+02  0.00000000000E+00 0. -1.
</event>
<event>
 7    1  0.1427898E-010  0.4778727E+02  0.7816164E-02  0.1312668E+00
        -11   -1    0    0    0    0  0.00000000000E+00  0.00000000000E+00  0.45593999997E+02  0.45594000000E+02  0.51100000000E-03 0.  1.
         11   -1    0    0    0    0 -0.00000000000E+00 -0.00000000000E+00 -0.45593999997E+02  0.45594000000E+02  0.51100000000E-03 0. -1.
    9900012    2    1    2    0    0  0.10303879599E+02  0.11684321715E+02 -0.40508397446E+02  0.47787267606E+02  0.19999984321E+02 0.  0.
        -12    1    1    2    0    0 -0.10303879599E+02 -0.11684321715E+02  0.40508397446E+02  0.43400732394E+02  0.00000000000E+00 0.  1.
         11    1    3    3    0    0  0.58083544541E+01  0.13653733434E+01 -0.12075824047E+02  0.13469474841E+02  0.51100000000E-03 0. -1.
        -11    1    3    3    0    0 -0.36404812903E+01  0.82859304804E+01 -0.21871276124E+02  0.23669864121E+02  0.51100000000E-03 0.  1.
        -12    1    3    3    0    0  0.81360064349E+01  0.20330178916E+01 -0.65612972750E+01  0.10647928643E+02  0.00000000000E+00 0.  1.
</event>
<event>
 7    1  0.1427898E-010  0.4778727E+02  0.7816164E-02  0.1312668E+00
        -11   -1    0    0    0    0  0.00000000000E+00  0.00000000000E+00  0.45593999997E+02  0.45594000000E+02  0.51100000000E-03 0.  1.
         11   -1    0    0    0    0 -0.00000000000E+00 -0.00000000000E+00 -0.45593999997E+02  0.45594000000E+02  0.51100000000E-03 0. -1.
    9900012    2    1    2    0    0 -0.14628892320E+02 -0.52363560428E+01 -0.40524057963E+02  0.47787272023E+02  0.20000004461E+02 0.  0.
        -12    1    1    2    0    0  0.14628892320E+02  0.52363560428E+01  0.40524057963E+02  0.43400727977E+02  0.00000000000E+00 0.  1.
         11    1    3    3    0    0  0.21110272944E+01 -0.64470655125E+01 -0.75664359815E+01  0.10162285357E+02  0.51100000000E-03 0.  1.
        -11    1    3    3    0    0 -0.86302897773E+01 -0.23143929266E+01 -0.12769617024E+02  0.15585295488E+02  0.51100000000E-03 0. -1.
        -12    1    3    3    0    0 -0.81096298376E+01  0.35251023963E+01 -0.20188004958E+02  0.22039691177E+02  0.00000000000E+00 0.  1.
</event>
<event>
 7    1  0.1427898E-010  0.4778727E+02  0.7816164E-02  0.1312668E+00
        -11   -1    0    0    0    0  0.00000000000E+00  0.00000000000E+00  0.45593999997E+02  0.45594000000E+02  0.51100000000E-03 0. -1.
         11   -1    0    0    0    0 -0.00000000000E+00 -0.00000000000E+00 -0.45593999997E+02  0.45594000000E+02  0.51100000000E-03 0.  1.
    9900012    2    1    2    0    0 -0.44140928511E+01  0.18733532820E+02  0.38899791410E+02  0.47787271442E+02  0.20000001812E+02 0.  0.
        -12    1    1    2    0    0  0.44140928511E+01 -0.18733532820E+02 -0.38899791410E+02  0.43400728558E+02  0.00000000000E+00 0.  1.
         11    1    3    3    0    0  0.70289818978E+01  0.32567265219E+01  0.10271285909E+02  0.12865153269E+02  0.51100000000E-03 0.  1.
        -11    1    3    3    0    0 -0.67810004570E+01  0.96306226877E+01  0.21883685577E+02  0.24852093579E+02  0.51100000000E-03 0. -1.
        -12    1    3    3    0    0 -0.46620742920E+01  0.58461836103E+01  0.67448199248E+01  0.10070024594E+02  0.00000000000E+00 0.  1.
</event>
<event>
 7    1  0.1427898E-010  0.4778727E+02  0.7816164E-02  0.1312668E+00
        -11   -1    0    0    0    0  0.00000000000E+00  0.00000000000E+00  0.45593999997E+02  0.45594000000E+02  0.51100000000E-03 0. -1.
         11   -1    0    0    0    0 -0.00000000000E+00 -0.00000000000E+00 -0.45593999997E+02  0.45594000000E+02  0.51100000000E-03 0.  1.
    9900012    2    1    2    0    0 -0.15643445570E+02  0.25498153378E+02  0.31444404185E+02  0.47787265334E+02  0.19999973962E+02 0.  0.
        -12    1    1    2    0    0  0.15643445570E+02 -0.25498153378E+02 -0.31444404185E+02  0.43400734666E+02  0.00000000000E+00 0.  1.
         11    1    3    3    0    0 -0.56937328638E+01  0.44147250669E+01  0.17005229611E+02  0.18468519858E+02  0.51100000000E-03 0. -1.
        -11    1    3    3    0    0  0.16266712320E+00  0.26163288063E+01 -0.13997826935E+01  0.29717047071E+01  0.51100000000E-03 0.  1.
        -12    1    3    3    0    0 -0.10112379830E+02  0.18467099505E+02  0.15838957267E+02  0.26347040769E+02  0.00000000000E+00 0.  1.
</event>
<event>
 7    1  0.1427898E-010  0.4778727E+02  0.7816164E-02  0.1312668E+00
        -11   -1    0    0    0    0  0.00000000000E+00  0.00000000000E+00  0.45593999997E+02  0.45594000000E+02  0.51100000000E-03 0.  1.
         11   -1    0    0    0    0 -0.00000000000E+00 -0.00000000000E+00 -0.45593999997E+02  0.45594000000E+02  0.51100000000E-03 0. -1.
    9900012    2    1    2    0    0 -0.45309071523E+01 -0.17259502301E+02 -0.39562655925E+02  0.47787270938E+02  0.19999999514E+02 0.  0.
        -12    1    1    2    0    0  0.45309071523E+01  0.17259502301E+02  0.39562655925E+02  0.43400729062E+02  0.00000000000E+00 0.  1.
         11    1    3    3    0    0 -0.43461826567E+01 -0.12826197222E+01 -0.25371172075E+02  0.25772675255E+02  0.51100000000E-03 0. -1.
        -11    1    3    3    0    0  0.12180621266E+01 -0.63437436992E+01 -0.28281095606E+01  0.70515929700E+01  0.51100000000E-03 0.  1.
        -12    1    3    3    0    0 -0.14027866221E+01 -0.96331388792E+01 -0.11363374289E+02  0.14963002713E+02  0.00000000000E+00 0.  1.
</event>
<event>
 7    1  0.1427898E-010  0.4778728E+02  0.7816164E-02  0.1312668E+00
        -11   -1    0    0    0    0  0.00000000000E+00  0.00000000000E+00  0.45593999997E+02  0.45594000000E+02  0.51100000000E-03 0.  1.
         11   -1    0    0    0    0 -0.00000000000E+00 -0.00000000000E+00 -0.45593999997E+02  0.45594000000E+02  0.51100000000E-03 0. -1.
    9900012    2    1    2    0    0 -0.69454955114E+01 -0.38818906544E+02 -0.18123893233E+02  0.47787275132E+02  0.20000018636E+02 0.  0.
        -12    1    1    2    0    0  0.69454955114E+01  0.38818906544E+02  0.18123893233E+02  0.43400724868E+02  0.00000000000E+00 0.  1.
         11    1    3    3    0    0 -0.50981455858E+01 -0.24236615344E+02 -0.13684729035E+02  0.28296226264E+02  0.51100000000E-03 0. -1.
        -11    1    3    3    0    0 -0.10398452086E+01 -0.24434259990E+00 -0.50064950344E+01  0.51191770974E+01  0.51100000000E-03 0.  1.
         12    1    3    3    0    0 -0.80750471708E+00 -0.14337948600E+02  0.56733083588E+00  0.14371871771E+02  0.00000000000E+00 0. -1.
</event>
<event>
 7    1  0.1427898E-010  0.4778727E+02  0.7816164E-02  0.1312668E+00
        -11   -1    0    0    0    0  0.00000000000E+00  0.00000000000E+00  0.45593999997E+02  0.45594000000E+02  0.51100000000E-03 0.  1.
         11   -1    0    0    0    0 -0.00000000000E+00 -0.00000000000E+00 -0.45593999997E+02  0.45594000000E+02  0.51100000000E-03 0. -1.
    9900012    2    1    2    0    0 -0.21580007123E+01  0.31835507284E+02 -0.29418813531E+02  0.47787273270E+02  0.20000010148E+02 0.  0.
        -12    1    1    2    0    0  0.21580007123E+01 -0.31835507284E+02  0.29418813531E+02  0.43400726730E+02  0.00000000000E+00 0.  1.
         11    1    3    3    0    0  0.15530407777E+01  0.50507246371E+01 -0.10104263673E+02  0.11402539176E+02  0.51100000000E-03 0. -1.
        -11    1    3    3    0    0  0.32359150835E+00  0.11843564193E+02 -0.27844464562E+00  0.11851255459E+02  0.51100000000E-03 0.  1.
        -12    1    3    3    0    0 -0.40346329983E+01  0.14941218454E+02 -0.19036105212E+02  0.24533478636E+02  0.00000000000E+00 0.  1.
</event>
<event>
 7    1  0.1427898E-010  0.4778727E+02  0.7816164E-02  0.1312668E+00
        -11   -1    0    0    0    0  0.00000000000E+00  0.00000000000E+00  0.45593999997E+02  0.45594000000E+02  0.51100000000E-03 0. -1.
         11   -1    0    0    0    0 -0.00000000000E+00 -0.00000000000E+00 -0.45593999997E+02  0.45594000000E+02  0.51100000000E-03 0.  1.
    9900012    2    1    2    0    0  0.77189788180E+01  0.31996383674E+02  0.28289082498E+02  0.47787269698E+02  0.19999993859E+02 0.  0.
        -12    1    1    2    0    0 -0.77189788180E+01 -0.31996383674E+02 -0.28289082498E+02  0.43400730302E+02  0.00000000000E+00 0.  1.
         11    1    3    3    0    0  0.20236107587E+01  0.18846878387E+01  0.20465911090E-01  0.27654055520E+01  0.51100000000E-03 0. -1.
        -11    1    3    3    0    0 -0.16154161244E+01  0.24906365384E+02  0.25374549390E+02  0.35592195253E+02  0.51100000000E-03 0.  1.
        -12    1    3    3    0    0  0.73107841837E+01  0.52053304511E+01  0.28940671969E+01  0.94296688927E+01  0.00000000000E+00 0.  1.
</event>
<event>
 7    1  0.1427898E-010  0.4778727E+02  0.7816164E-02  0.1312668E+00
        -11   -1    0    0    0    0  0.00000000000E+00  0.00000000000E+00  0.45593999997E+02  0.45594000000E+02  0.51100000000E-03 0. -1.
         11   -1    0    0    0    0 -0.00000000000E+00 -0.00000000000E+00 -0.45593999997E+02  0.45594000000E+02  0.51100000000E-03 0.  1.
    9900012    2    1    2    0    0  0.37920659673E+02  0.18800167524E+02  0.96021136078E+01  0.47787270574E+02  0.19999997855E+02 0.  0.
        -12    1    1    2    0    0 -0.37920659673E+02 -0.18800167524E+02 -0.96021136078E+01  0.43400729426E+02  0.00000000000E+00 0.  1.
         11    1    3    3    0    0  0.23716514940E+02  0.19745713198E+02  0.50067479653E+01  0.31263937629E+02  0.51100000000E-03 0. -1.
        -11    1    3    3    0    0  0.12542053410E+02  0.17176188761E+01  0.30359136826E+01  0.13018067848E+02  0.51100000000E-03 0.  1.
        -12    1    3    3    0    0  0.16620913232E+01 -0.26631645502E+01  0.15594519600E+01  0.35052650975E+01  0.00000000000E+00 0.  1.
</event>
<event>
 7    1  0.1427898E-010  0.4778727E+02  0.7816164E-02  0.1312668E+00
        -11   -1    0    0    0    0  0.00000000000E+00  0.00000000000E+00  0.45593999997E+02  0.45594000000E+02  0.51100000000E-03 0.  1.
         11   -1    0    0    0    0 -0.00000000000E+00 -0.00000000000E+00 -0.45593999997E+02  0.45594000000E+02  0.51100000000E-03 0. -1.
    9900012    2    1    2    0    0 -0.76899954424E+01  0.37626554216E+02 -0.20217058439E+02  0.47787273462E+02  0.20000011025E+02 0.  0.
        -12    1    1    2    0    0  0.76899954424E+01 -0.37626554216E+02  0.20217058439E+02  0.43400726538E+02  0.00000000000E+00 0.  1.
         11    1    3    3    0    0  0.44174156707E+01  0.16459096059E+02 -0.88781703624E+01  0.19215548744E+02  0.51100000000E-03 0. -1.
        -11    1    3    3    0    0 -0.33310440973E+01  0.97071998020E-01 -0.77934434829E+00  0.34223757283E+01  0.51100000000E-03 0.  1.
        -12    1    3    3    0    0 -0.87763670158E+01  0.21070386159E+02 -0.10559543728E+02  0.25149348990E+02  0.00000000000E+00 0.  1.
</event>
<event>
 7    1  0.1427898E-010  0.4778727E+02  0.7816164E-02  0.1312668E+00
        -11   -1    0    0    0    0  0.00000000000E+00  0.00000000000E+00  0.45593999997E+02  0.45594000000E+02  0.51100000000E-03 0.  1.
         11   -1    0    0    0    0 -0.00000000000E+00 -0.00000000000E+00 -0.45593999997E+02  0.45594000000E+02  0.51100000000E-03 0. -1.
    9900012    2    1    2    0    0 -0.10912098556E+02 -0.33827689513E+01 -0.41870114433E+02  0.47787268401E+02  0.19999987948E+02 0.  0.
        -12    1    1    2    0    0  0.10912098556E+02  0.33827689513E+01  0.41870114433E+02  0.43400731599E+02  0.00000000000E+00 0.  1.
         11    1    3    3    0    0 -0.14360299789E+02  0.94606253916E+00 -0.27631092699E+02  0.31154301924E+02  0.51100000000E-03 0. -1.
        -11    1    3    3    0    0  0.66151207697E+00 -0.42380427971E+01 -0.34946927104E+01  0.55327644428E+01  0.51100000000E-03 0.  1.
        -12    1    3    3    0    0  0.27866891562E+01 -0.90788693338E-01 -0.10744329023E+02  0.11100202034E+02  0.00000000000E+00 0.  1.
</event>
<event>
 7    1  0.1427898E-010  0.4778728E+02  0.7816164E-02  0.1312668E+00
        -11   -1    0    0    0    0  0.00000000000E+00  0.00000000000E+00  0.45593999997E+02  0.45594000000E+02  0.51100000000E-03 0. -1.
         11   -1    0    0    0    0 -0.00000000000E+00 -0.00000000000E+00 -0.45593999997E+02  0.45594000000E+02  0.51100000000E-03 0.  1.
    9900012    2    1    2    0    0  0.18599251966E+02  0.37427265770E+02  0.11700012926E+02  0.47787277665E+02  0.20000030186E+02 0.  0.
        -12    1    1    2    0    0 -0.18599251966E+02 -0.37427265770E+02 -0.11700012926E+02  0.43400722335E+02  0.00000000000E+00 0.  1.
         11    1    3    3    0    0  0.75210590364E+01  0.11604747524E+02 -0.49254912018E+00  0.13837597300E+02  0.51100000000E-03 0. -1.
        -11    1    3    3    0    0  0.86855449644E+00  0.52881319768E+01 -0.32823849943E+01  0.62843279855E+01  0.51100000000E-03 0.  1.
         12    1    3    3    0    0  0.10209638434E+02  0.20534386269E+02  0.15474947041E+02  0.27665352380E+02  0.00000000000E+00 0. -1.
</event>
<event>
 7    1  0.1427898E-010  0.4778727E+02  0.7816164E-02  0.1312668E+00
        -11   -1    0    0    0    0  0.00000000000E+00  0.00000000000E+00  0.45593999997E+02  0.45594000000E+02  0.51100000000E-03 0.  1.
         11   -1    0    0    0    0 -0.00000000000E+00 -0.00000000000E+00 -0.45593999997E+02  0.45594000000E+02  0.51100000000E-03 0. -1.
    9900012    2    1    2    0    0 -0.59528343107E+01 -0.34141512961E+02  0.26125542912E+02  0.47787272632E+02  0.20000007240E+02 0.  0.
        -12    1    1    2    0    0  0.59528343107E+01  0.34141512961E+02 -0.26125542912E+02  0.43400727368E+02  0.00000000000E+00 0.  1.
         11    1    3    3    0    0 -0.61049054294E+00 -0.20552664284E+02  0.14149349951E+02  0.24959743833E+02  0.51100000000E-03 0. -1.
        -11    1    3    3    0    0 -0.86785442554E+01 -0.12409190167E+02  0.69026985272E+01  0.16641886258E+02  0.51100000000E-03 0.  1.
        -12    1    3    3    0    0  0.33362004876E+01 -0.11796585099E+01  0.50734944330E+01  0.61856425418E+01  0.00000000000E+00 0.  1.
</event>
<event>
 7    1  0.1637121E-010  0.4778727E+02  0.7816164E-02  0.1312668E+00
        -11   -1    0    0    0    0  0.00000000000E+00  0.00000000000E+00  0.45593999997E+02  0.45594000000E+02  0.51100000000E-03 0.  1.
         11   -1    0    0    0    0 -0.00000000000E+00 -0.00000000000E+00 -0.45593999997E+02  0.45594000000E+02  0.51100000000E-03 0. -1.
    9900012    2    1    2    0    0 -0.69289743763E+01  0.42814486416E+02  0.15913439152E+01  0.47787270646E+02  0.19999998184E+02 0.  0.
        -12    1    1    2    0    0  0.69289743763E+01 -0.42814486416E+02 -0.15913439152E+01  0.43400729354E+02  0.00000000000E+00 0.  1.
         11    1    3    3    0    0 -0.74669043240E+00  0.30668757008E+02  0.27794955908E+01  0.30803503032E+02  0.51100000000E-03 0. -1.
        -11    1    3    3    0    0 -0.50952031598E+01  0.71808282004E+01  0.40442581966E+01  0.96892421533E+01  0.51100000000E-03 0.  1.
        -12    1    3    3    0    0 -0.10870807841E+01  0.49649012074E+01 -0.52324098722E+01  0.72945254610E+01  0.00000000000E+00 0.  1.
</event>
<event>
 7    1  0.1427898E-010  0.4778727E+02  0.7816164E-02  0.1312668E+00
        -11   -1    0    0    0    0  0.00000000000E+00  0.00000000000E+00  0.45593999997E+02  0.45594000000E+02  0.51100000000E-03 0.  1.
         11   -1    0    0    0    0 -0.00000000000E+00 -0.00000000000E+00 -0.45593999997E+02  0.45594000000E+02  0.51100000000E-03 0. -1.
    9900012    2    1    2    0    0 -0.22920504081E+02  0.24411688937E+02 -0.27610568351E+02  0.47787267878E+02  0.19999985562E+02 0.  0.
        -12    1    1    2    0    0  0.22920504081E+02 -0.24411688937E+02  0.27610568351E+02  0.43400732122E+02  0.00000000000E+00 0.  1.
         11    1    3    3    0    0 -0.16815451419E+01  0.13369098067E+02 -0.11697990223E+02  0.17843860364E+02  0.51100000000E-03 0.  1.
        -11    1    3    3    0    0 -0.60878931957E+01  0.15794031387E+01 -0.85686953094E+01  0.10629181408E+02  0.51100000000E-03 0. -1.
        -12    1    3    3    0    0 -0.15151065743E+02  0.94631877315E+01 -0.73438828185E+01  0.19314226105E+02  0.00000000000E+00 0.  1.
</event>
<event>
 7    1  0.1427898E-010  0.4778732E+02  0.7816164E-02  0.1312668E+00
        -11   -1    0    0    0    0  0.00000000000E+00  0.00000000000E+00  0.45593999997E+02  0.45594000000E+02  0.51100000000E-03 0. -1.
         11   -1    0    0    0    0 -0.00000000000E+00 -0.00000000000E+00 -0.45593999997E+02  0.45594000000E+02  0.51100000000E-03 0.  1.
    9900012    2    1    2    0    0  0.29013372178E+02 -0.99318946367E+01  0.30711570134E+02  0.47787322168E+02  0.20000233090E+02 0.  0.
        -12    1    1    2    0    0 -0.29013372178E+02  0.99318946367E+01 -0.30711570134E+02  0.43400677832E+02  0.00000000000E+00 0.  1.
         11    1    3    3    0    0  0.10752225842E+02 -0.16880895406E+01  0.45448144966E+01  0.11794716865E+02  0.51100000000E-03 0. -1.
        -11    1    3    3    0    0  0.18707394724E+02 -0.10928514535E+02  0.24852390839E+02  0.32970295388E+02  0.51100000000E-03 0.  1.
         12    1    3    3    0    0 -0.44624838836E+00  0.26847094391E+01  0.13143647984E+01  0.30223099146E+01  0.00000000000E+00 0. -1.
</event>
<event>
 7    1  0.1427898E-010  0.4778728E+02  0.7816164E-02  0.1312668E+00
        -11   -1    0    0    0    0  0.00000000000E+00  0.00000000000E+00  0.45593999997E+02  0.45594000000E+02  0.51100000000E-03 0.  1.
         11   -1    0    0    0    0 -0.00000000000E+00 -0.00000000000E+00 -0.45593999997E+02  0.45594000000E+02  0.51100000000E-03 0. -1.
    9900012    2    1    2    0    0 -0.29760679025E+01  0.41423136310E+02 -0.12605139436E+02  0.47787277171E+02  0.20000027932E+02 0.  0.
        -12    1    1    2    0    0  0.29760679025E+01 -0.41423136310E+02  0.12605139436E+02  0.43400722829E+02  0.00000000000E+00 0.  1.
         11    1    3    3    0    0  0.57218014144E+00  0.20893099185E+02 -0.34975815598E+00  0.20903858847E+02  0.51100000000E-03 0. -1.
        -11    1    3    3    0    0 -0.51528312195E+01  0.19809248297E+02 -0.13680623802E+02  0.24619452787E+02  0.51100000000E-03 0.  1.
        -12    1    3    3    0    0  0.16045831755E+01  0.72078882875E+00  0.14252425228E+01  0.22639655367E+01  0.00000000000E+00 0.  1.
</event>
<event>
 7    1  0.2187104E-010  0.4778727E+02  0.7816164E-02  0.1312668E+00
        -11   -1    0    0    0    0  0.00000000000E+00  0.00000000000E+00  0.45593999997E+02  0.45594000000E+02  0.51100000000E-03 0.  1.
         11   -1    0    0    0    0 -0.00000000000E+00 -0.00000000000E+00 -0.45593999997E+02  0.45594000000E+02  0.51100000000E-03 0. -1.
    9900012    2    1    2    0    0  0.30359785671E+02 -0.83708583806E+01 -0.29863615191E+02  0.47787269956E+02  0.19999995038E+02 0.  0.
        -12    1    1    2    0    0 -0.30359785671E+02  0.83708583806E+01  0.29863615191E+02  0.43400730044E+02  0.00000000000E+00 0.  1.
         11    1    3    3    0    0  0.12719729984E+02  0.52975761857E+00 -0.44697356922E+01  0.13492616923E+02  0.51100000000E-03 0. -1.
        -11    1    3    3    0    0 -0.15492663382E+01 -0.21650819821E+01 -0.22572388735E+01  0.34904059606E+01  0.51100000000E-03 0.  1.
         12    1    3    3    0    0  0.19189322026E+02 -0.67355340170E+01 -0.23136640625E+02  0.30804247073E+02  0.00000000000E+00 0. -1.
</event>
<event>
 7    1  0.1427898E-010  0.4778726E+02  0.7816164E-02  0.1312668E+00
        -11   -1    0    0    0    0  0.00000000000E+00  0.00000000000E+00  0.45593999997E+02  0.45594000000E+02  0.51100000000E-03 0. -1.
         11   -1    0    0    0    0 -0.00000000000E+00 -0.00000000000E+00 -0.45593999997E+02  0.45594000000E+02  0.51100000000E-03 0.  1.
    9900012    2    1    2    0    0 -0.42153254672E+02 -0.89811047157E+01 -0.51055642683E+01  0.47787263740E+02  0.19999966697E+02 0.  0.
        -12    1    1    2    0    0  0.42153254672E+02  0.89811047157E+01  0.51055642683E+01  0.43400736260E+02  0.00000000000E+00 0.  1.
         11    1    3    3    0    0 -0.27882440227E+01 -0.91317877414E+00 -0.10989795025E+01  0.31330426763E+01  0.51100000000E-03 0. -1.
        -11    1    3    3    0    0 -0.20077270617E+02 -0.13622420246E+02 -0.42889234390E+00  0.24266253887E+02  0.51100000000E-03 0.  1.
         12    1    3    3    0    0 -0.19287740033E+02  0.55544943045E+01 -0.35776924219E+01  0.20387967177E+02  0.00000000000E+00 0. -1.
</event>
<event>
 7    1  0.1427898E-010  0.4778727E+02  0.7816164E-02  0.1312668E+00
        -11   -1    0    0    0    0  0.00000000000E+00  0.00000000000E+00  0.45593999997E+02  0.45594000000E+02  0.51100000000E-03 0. -1.
         11   -1    0    0    0    0 -0.00000000000E+00 -0.00000000000E+00 -0.45593999997E+02  0.45594000000E+02  0.51100000000E-03 0.  1.
    9900012    2    1    2    0    0 -0.74142399444E+01 -0.58172983063E+01  0.42365211294E+02  0.47787273721E+02  0.20000012205E+02 0.  0.
        -12    1    1    2    0    0  0.74142399444E+01  0.58172983063E+01 -0.42365211294E+02  0.43400726279E+02  0.00000000000E+00 0.  1.
         11    1    3    3    0    0 -0.76155871992E+01 -0.18434512840E+01  0.15509816914E+02  0.17376705729E+02  0.51100000000E-03 0. -1.
        -11    1    3    3    0    0 -0.28779083519E+01  0.25641129944E+01  0.16556162866E+01  0.41950086388E+01  0.51100000000E-03 0.  1.
         12    1    3    3    0    0  0.30792556068E+01 -0.65379600166E+01  0.25199778093E+02  0.26215559354E+02  0.00000000000E+00 0. -1.
</event>
<event>
 7    1  0.1427898E-010  0.4778727E+02  0.7816164E-02  0.1312668E+00
        -11   -1    0    0    0    0  0.00000000000E+00  0.00000000000E+00  0.45593999997E+02  0.45594000000E+02  0.51100000000E-03 0.  1.
         11   -1    0    0    0    0 -0.00000000000E+00 -0.00000000000E+00 -0.45593999997E+02  0.45594000000E+02  0.51100000000E-03 0. -1.
    9900012    2    1    2    0    0 -0.12935468525E+02  0.41153663234E+02  0.47616162829E+01  0.47787270362E+02  0.19999996887E+02 0.  0.
        -12    1    1    2    0    0  0.12935468525E+02 -0.41153663234E+02 -0.47616162829E+01  0.43400729638E+02  0.00000000000E+00 0.  1.
         11    1    3    3    0    0  0.48583382621E+00  0.89835540232E+01 -0.40046864129E+01  0.98477302421E+01  0.51100000000E-03 0.  1.
        -11    1    3    3    0    0  0.10849864179E+01  0.40440788131E+01  0.42608963476E+01  0.59738603030E+01  0.51100000000E-03 0. -1.
         12    1    3    3    0    0 -0.14506288769E+02  0.28126030397E+02  0.45054063481E+01  0.31965679817E+02  0.00000000000E+00 0. -1.
</event>
<event>
 7    1  0.1427898E-010  0.4778727E+02  0.7816164E-02  0.1312668E+00
        -11   -1    0    0    0    0  0.00000000000E+00  0.00000000000E+00  0.45593999997E+02  0.45594000000E+02  0.51100000000E-03 0.  1.
         11   -1    0    0    0    0 -0.00000000000E+00 -0.00000000000E+00 -0.45593999997E+02  0.45594000000E+02  0.51100000000E-03 0. -1.
    9900012    2    1    2    0    0 -0.35943494943E+02  0.21717840208E+02 -0.10955544012E+02  0.47787270091E+02  0.19999995653E+02 0.  0.
        -12    1    1    2    0    0  0.35943494943E+02 -0.21717840208E+02  0.10955544012E+02  0.43400729909E+02  0.00000000000E+00 0.  1.
         11    1    3    3    0    0 -0.80660620828E+01  0.92595697748E+00  0.27641201206E+01  0.85766610141E+01  0.51100000000E-03 0. -1.
        -11    1    3    3    0    0 -0.27545576869E+01  0.47784295193E+00  0.18440478522E+01  0.33490946059E+01  0.51100000000E-03 0.  1.
         12    1    3    3    0    0 -0.25122875173E+02  0.20314040279E+02 -0.15563711984E+02  0.35861514471E+02  0.00000000000E+00 0. -1.
</event>
<event>
 7    1  0.1427898E-010  0.4778727E+02  0.7816164E-02  0.1312668E+00
        -11   -1    0    0    0    0  0.00000000000E+00  0.00000000000E+00  0.45593999997E+02  0.45594000000E+02  0.51100000000E-03 0.  1.
         11   -1    0    0    0    0 -0.00000000000E+00 -0.00000000000E+00 -0.45593999997E+02  0.45594000000E+02  0.51100000000E-03 0. -1.
    9900012    2    1    2    0    0 -0.19574762937E+02  0.79960050318E+01 -0.37901402476E+02  0.47787265558E+02  0.19999974984E+02 0.  0.
        -12    1    1    2    0    0  0.19574762937E+02 -0.79960050318E+01  0.37901402476E+02  0.43400734442E+02  0.00000000000E+00 0.  1.
         11    1    3    3    0    0 -0.17297276625E+02 -0.62971588272E+00 -0.20661592624E+02  0.26953547647E+02  0.51100000000E-03 0. -1.
        -11    1    3    3    0    0 -0.46426968916E+01  0.55142344459E+01 -0.14040704506E+02  0.15782990820E+02  0.51100000000E-03 0.  1.
         12    1    3    3    0    0  0.23652105797E+01  0.31114864686E+01 -0.31991053453E+01  0.50507270903E+01  0.00000000000E+00 0. -1.
</event>
<event>
 7    1  0.1427898E-010  0.4778727E+02  0.7816164E-02  0.1312668E+00
        -11   -1    0    0    0    0  0.00000000000E+00  0.00000000000E+00  0.45593999997E+02  0.45594000000E+02  0.51100000000E-03 0.  1.
         11   -1    0    0    0    0 -0.00000000000E+00 -0.00000000000E+00 -0.45593999997E+02  0.45594000000E+02  0.51100000000E-03 0. -1.
    9900012    2    1    2    0    0  0.22265592501E+02  0.36343688517E+02 -0.81855314325E+01  0.47787271558E+02  0.20000002341E+02 0.  0.
        -12    1    1    2    0    0 -0.22265592501E+02 -0.36343688517E+02  0.81855314325E+01  0.43400728442E+02  0.00000000000E+00 0.  1.
         11    1    3    3    0    0  0.34440115217E+01  0.12633534745E+02 -0.29941504738E+01  0.13432511040E+02  0.51100000000E-03 0. -1.
        -11    1    3    3    0    0  0.21549751181E+02  0.20607115297E+02 -0.42644955689E+01  0.30120273896E+02  0.51100000000E-03 0.  1.
        -12    1    3    3    0    0 -0.27281702015E+01  0.31030384749E+01 -0.92688538982E+00  0.42344866219E+01  0.00000000000E+00 0.  1.
</event>
<event>
 7    1  0.1427898E-010  0.4778727E+02  0.7816164E-02  0.1312668E+00
        -11   -1    0    0    0    0  0.00000000000E+00  0.00000000000E+00  0.45593999997E+02  0.45594000000E+02  0.51100000000E-03 0. -1.
         11   -1    0    0    0    0 -0.00000000000E+00 -0.00000000000E+00 -0.45593999997E+02  0.45594000000E+02  0.51100000000E-03 0.  1.
    9900012    2    1    2    0    0 -0.23577130995E+02  0.28763181010E+02  0.22370103657E+02  0.47787271603E+02  0.20000002548E+02 0.  0.
        -12    1    1    2    0    0  0.23577130995E+02 -0.28763181010E+02 -0.22370103657E+02  0.43400728397E+02  0.00000000000E+00 0.  1.
         11    1    3    3    0    0 -0.12457838285E+02  0.10028315358E+02  0.63512411285E+01  0.17207646782E+02  0.51100000000E-03 0. -1.
        -11    1    3    3    0    0  0.16726563197E+01 -0.13637250701E+01  0.76054656400E+00  0.22882212672E+01  0.51100000000E-03 0.  1.
         12    1    3    3    0    0 -0.12791949030E+02  0.20098590722E+02  0.15258315964E+02  0.28291403554E+02  0.00000000000E+00 0. -1.
</event>
<event>
 7    1  0.1427898E-010  0.4778727E+02  0.7816164E-02  0.1312668E+00
        -11   -1    0    0    0    0  0.00000000000E+00  0.00000000000E+00  0.45593999997E+02  0.45594000000E+02  0.51100000000E-03 0.  1.
         11   -1    0    0    0    0 -0.00000000000E+00 -0.00000000000E+00 -0.45593999997E+02  0.45594000000E+02  0.51100000000E-03 0. -1.
    9900012    2    1    2    0    0  0.14252847397E+02 -0.40896512970E+02 -0.28204682933E+01  0.47787268746E+02  0.19999989520E+02 0.  0.
        -12    1    1    2    0    0 -0.14252847397E+02  0.40896512970E+02  0.28204682933E+01  0.43400731254E+02  0.00000000000E+00 0.  1.
         11    1    3    3    0    0  0.46458185609E+01 -0.14363771388E+01 -0.27405395998E+01  0.55818784423E+01  0.51100000000E-03 0. -1.
        -11    1    3    3    0    0 -0.96418653966E+00 -0.12454107521E+02 -0.35784126511E+01  0.12993824964E+02  0.51100000000E-03 0.  1.
         12    1    3    3    0    0  0.10571215375E+02 -0.27006028310E+02  0.34984839577E+01  0.29211565340E+02  0.00000000000E+00 0. -1.
</event>
<event>
 7    1  0.1427898E-010  0.4778727E+02  0.7816164E-02  0.1312668E+00
        -11   -1    0    0    0    0  0.00000000000E+00  0.00000000000E+00  0.45593999997E+02  0.45594000000E+02  0.51100000000E-03 0.  1.
         11   -1    0    0    0    0 -0.00000000000E+00 -0.00000000000E+00 -0.45593999997E+02  0.45594000000E+02  0.51100000000E-03 0. -1.
    9900012    2    1    2    0    0  0.22592786576E+02 -0.30577993528E+02 -0.20932642633E+02  0.47787271653E+02  0.20000002773E+02 0.  0.
        -12    1    1    2    0    0 -0.22592786576E+02  0.30577993528E+02  0.20932642633E+02  0.43400728347E+02  0.00000000000E+00 0.  1.
         11    1    3    3    0    0  0.69252610601E+01 -0.21194637938E+02 -0.98038258645E+01  0.24357481806E+02  0.51100000000E-03 0. -1.
        -11    1    3    3    0    0  0.17013016746E+01  0.17391000847E+01 -0.81241397327E-01  0.24342343598E+01  0.51100000000E-03 0.  1.
        -12    1    3    3    0    0  0.13966223841E+02 -0.11122455674E+02 -0.11047575372E+02  0.20995555487E+02  0.00000000000E+00 0.  1.
</event>
<event>
 7    1  0.1427898E-010  0.4778727E+02  0.7816164E-02  0.1312668E+00
        -11   -1    0    0    0    0  0.00000000000E+00  0.00000000000E+00  0.45593999997E+02  0.45594000000E+02  0.51100000000E-03 0. -1.
         11   -1    0    0    0    0 -0.00000000000E+00 -0.00000000000E+00 -0.45593999997E+02  0.45594000000E+02  0.51100000000E-03 0.  1.
    9900012    2    1    2    0    0  0.22269239014E+02  0.34639614983E+02  0.13704057292E+02  0.47787272832E+02  0.20000008151E+02 0.  0.
        -12    1    1    2    0    0 -0.22269239014E+02 -0.34639614983E+02 -0.13704057292E+02  0.43400727168E+02  0.00000000000E+00 0.  1.
         11    1    3    3    0    0  0.15710329096E+01  0.19498185307E+02  0.28741052410E+01  0.19771389831E+02  0.51100000000E-03 0.  1.
        -11    1    3    3    0    0  0.10362271664E+02  0.70428765890E+01  0.69310338957E+01  0.14318450189E+02  0.51100000000E-03 0. -1.
        -12    1    3    3    0    0  0.10335934440E+02  0.80985530872E+01  0.38989181549E+01  0.13697432812E+02  0.00000000000E+00 0.  1.
</event>
<event>
 7    1  0.1427898E-010  0.4778727E+02  0.7816164E-02  0.1312668E+00
        -11   -1    0    0    0    0  0.00000000000E+00  0.00000000000E+00  0.45593999997E+02  0.45594000000E+02  0.51100000000E-03 0. -1.
         11   -1    0    0    0    0 -0.00000000000E+00 -0.00000000000E+00 -0.45593999997E+02  0.45594000000E+02  0.51100000000E-03 0.  1.
    9900012    2    1    2    0    0 -0.16778238090E+02 -0.31761543840E+02 -0.24358125983E+02  0.47787271413E+02  0.20000001679E+02 0.  0.
        -12    1    1    2    0    0  0.16778238090E+02  0.31761543840E+02  0.24358125983E+02  0.43400728587E+02  0.00000000000E+00 0.  1.
         11    1    3    3    0    0 -0.11334026930E+02 -0.19851040174E+02 -0.63038396788E+01  0.23712071977E+02  0.51100000000E-03 0. -1.
        -11    1    3    3    0    0  0.18350919381E+01 -0.61113737019E+01 -0.53521879255E+01  0.83284072184E+01  0.51100000000E-03 0.  1.
         12    1    3    3    0    0 -0.72793030978E+01 -0.57991299637E+01 -0.12702098379E+02  0.15746792218E+02  0.00000000000E+00 0. -1.
</event>
<event>
 7    1  0.1427898E-010  0.4778728E+02  0.7816164E-02  0.1312668E+00
        -11   -1    0    0    0    0  0.00000000000E+00  0.00000000000E+00  0.45593999997E+02  0.45594000000E+02  0.51100000000E-03 0. -1.
         11   -1    0    0    0    0 -0.00000000000E+00 -0.00000000000E+00 -0.45593999997E+02  0.45594000000E+02  0.51100000000E-03 0.  1.
    9900012    2    1    2    0    0 -0.40048890751E+02 -0.16389109205E+02  0.33325455452E+01  0.47787280988E+02  0.20000045338E+02 0.  0.
        -12    1    1    2    0    0  0.40048890751E+02  0.16389109205E+02 -0.33325455452E+01  0.43400719012E+02  0.00000000000E+00 0.  1.
         11    1    3    3    0    0 -0.29524306239E+02 -0.16340811374E+02  0.39634903585E+01  0.33976698358E+02  0.51100000000E-03 0. -1.
        -11    1    3    3    0    0 -0.49584155633E+01 -0.22811784659E+01 -0.41504494448E+01  0.68568134688E+01  0.51100000000E-03 0.  1.
        -12    1    3    3    0    0 -0.55661689491E+01  0.22328806348E+01  0.35195046315E+01  0.69537691614E+01  0.00000000000E+00 0.  1.
</event>
<event>
 7    1  0.1427898E-010  0.4778727E+02  0.7816164E-02  0.1312668E+00
        -11   -1    0    0    0    0  0.00000000000E+00  0.00000000000E+00  0.45593999997E+02  0.45594000000E+02  0.51100000000E-03 0. -1.
         11   -1    0    0    0    0 -0.00000000000E+00 -0.00000000000E+00 -0.45593999997E+02  0.45594000000E+02  0.51100000000E-03 0.  1.
    9900012    2    1    2    0    0 -0.25355105674E+02 -0.29980103816E+02 -0.18491499933E+02  0.47787267537E+02  0.19999984007E+02 0.  0.
        -12    1    1    2    0    0  0.25355105674E+02  0.29980103816E+02  0.18491499933E+02  0.43400732463E+02  0.00000000000E+00 0.  1.
         11    1    3    3    0    0 -0.11963261623E+02 -0.11053735740E+02 -0.24886233611E+01  0.16477194815E+02  0.51100000000E-03 0. -1.
        -11    1    3    3    0    0  0.11658678069E+01 -0.85468050309E+01 -0.78370518265E+01  0.11654462904E+02  0.51100000000E-03 0.  1.
        -12    1    3    3    0    0 -0.14557711858E+02 -0.10379563046E+02 -0.81658247451E+01  0.19655609818E+02  0.00000000000E+00 0.  1.
</event>
<event>
 7    1  0.1427898E-010  0.4778727E+02  0.7816164E-02  0.1312668E+00
        -11   -1    0    0    0    0  0.00000000000E+00  0.00000000000E+00  0.45593999997E+02  0.45594000000E+02  0.51100000000E-03 0. -1.
         11   -1    0    0    0    0 -0.00000000000E+00 -0.00000000000E+00 -0.45593999997E+02  0.45594000000E+02  0.51100000000E-03 0.  1.
    9900012    2    1    2    0    0  0.40873266590E+02 -0.14511620973E+02  0.15531526715E+01  0.47787270188E+02  0.19999996097E+02 0.  0.
        -12    1    1    2    0    0 -0.40873266590E+02  0.14511620973E+02 -0.15531526715E+01  0.43400729812E+02  0.00000000000E+00 0.  1.
         11    1    3    3    0    0  0.10744525806E+02 -0.27845364677E+01  0.43856632317E+01  0.11934509641E+02  0.51100000000E-03 0. -1.
        -11    1    3    3    0    0  0.43509157690E+01 -0.83480738050E+01 -0.29131128028E+01  0.98542899666E+01  0.51100000000E-03 0.  1.
        -12    1    3    3    0    0  0.25777825015E+02 -0.33790107002E+01  0.80602242623E-01  0.25998470581E+02  0.00000000000E+00 0.  1.
</event>
<event>
 7    1  0.1427898E-010  0.4778727E+02  0.7816164E-02  0.1312668E+00
        -11   -1    0    0    0    0  0.00000000000E+00  0.00000000000E+00  0.45593999997E+02  0.45594000000E+02  0.51100000000E-03 0. -1.
         11   -1    0    0    0    0 -0.00000000000E+00 -0.00000000000E+00 -0.45593999997E+02  0.45594000000E+02  0.51100000000E-03 0.  1.
    9900012    2    1    2    0    0  0.14850003417E+02  0.40780232396E+02  0.27031302832E+00  0.47787273913E+02  0.20000013079E+02 0.  0.
        -12    1    1    2    0    0 -0.14850003417E+02 -0.40780232396E+02 -0.27031302832E+00  0.43400726087E+02  0.00000000000E+00 0.  1.
         11    1    3    3    0    0  0.11599501171E+02  0.34844597040E+02  0.56520623918E+01  0.37156966774E+02  0.51100000000E-03 0. -1.
        -11    1    3    3    0    0 -0.44703128563E+00 -0.10675923394E+01 -0.22250442976E+00  0.11786003800E+01  0.51100000000E-03 0.  1.
        -12    1    3    3    0    0  0.36975335316E+01  0.70032276948E+01 -0.51592449338E+01  0.94517067585E+01  0.00000000000E+00 0.  1.
</event>
<event>
 7    1  0.1427898E-010  0.4778727E+02  0.7816164E-02  0.1312668E+00
        -11   -1    0    0    0    0  0.00000000000E+00  0.00000000000E+00  0.45593999997E+02  0.45594000000E+02  0.51100000000E-03 0. -1.
         11   -1    0    0    0    0 -0.00000000000E+00 -0.00000000000E+00 -0.45593999997E+02  0.45594000000E+02  0.51100000000E-03 0.  1.
    9900012    2    1    2    0    0 -0.21179183959E+02  0.23848494688E+02  0.29433225830E+02  0.47787270573E+02  0.19999997851E+02 0.  0.
        -12    1    1    2    0    0  0.21179183959E+02 -0.23848494688E+02 -0.29433225830E+02  0.43400729427E+02  0.00000000000E+00 0.  1.
         11    1    3    3    0    0  0.25859847434E+01  0.68040508452E+01  0.65184669768E+01  0.97710202633E+01  0.51100000000E-03 0. -1.
        -11    1    3    3    0    0 -0.97040797572E+01  0.28977815602E+01  0.54288803714E+01  0.11490824350E+02  0.51100000000E-03 0.  1.
        -12    1    3    3    0    0 -0.14061088945E+02  0.14146662282E+02  0.17485878482E+02  0.26525425959E+02  0.00000000000E+00 0.  1.
</event>
<event>
 7    1  0.1427898E-010  0.4778727E+02  0.7816164E-02  0.1312668E+00
        -11   -1    0    0    0    0  0.00000000000E+00  0.00000000000E+00  0.45593999997E+02  0.45594000000E+02  0.51100000000E-03 0.  1.
         11   -1    0    0    0    0 -0.00000000000E+00 -0.00000000000E+00 -0.45593999997E+02  0.45594000000E+02  0.51100000000E-03 0. -1.
    9900012    2    1    2    0    0  0.11365254025E+02  0.38320899155E+02 -0.16910449304E+02  0.47787267209E+02  0.19999982513E+02 0.  0.
        -12    1    1    2    0    0 -0.11365254025E+02 -0.38320899155E+02  0.16910449304E+02  0.43400732791E+02  0.00000000000E+00 0.  1.
         11    1    3    3    0    0  0.44881288070E+01  0.38074588896E+01  0.31479193399E+00  0.58939916531E+01  0.51100000000E-03 0. -1.
        -11    1    3    3    0    0 -0.32899264080E+01  0.20861354002E+02 -0.85024904332E+01  0.22766467675E+02  0.51100000000E-03 0.  1.
         12    1    3    3    0    0  0.10167051626E+02  0.13652086264E+02 -0.87227508044E+01  0.19126807881E+02  0.00000000000E+00 0. -1.
</event>
<event>
 7    1  0.1427898E-010  0.4778726E+02  0.7816164E-02  0.1312668E+00
        -11   -1    0    0    0    0  0.00000000000E+00  0.00000000000E+00  0.45593999997E+02  0.45594000000E+02  0.51100000000E-03 0. -1.
         11   -1    0    0    0    0 -0.00000000000E+00 -0.00000000000E+00 -0.45593999997E+02  0.45594000000E+02  0.51100000000E-03 0.  1.
    9900012    2    1    2    0    0 -0.11003106949E+02 -0.19665143664E+02  0.37092293672E+02  0.47787257060E+02  0.19999936241E+02 0.  0.
        -12    1    1    2    0    0  0.11003106949E+02  0.19665143664E+02 -0.37092293672E+02  0.43400742940E+02  0.00000000000E+00 0.  1.
         11    1    3    3    0    0 -0.17675988417E+01 -0.19430432702E+02  0.21339744741E+02  0.28914543512E+02  0.51100000000E-03 0. -1.
        -11    1    3    3    0    0 -0.29772094820E+01  0.94307040663E-01  0.15697235063E+01  0.33670019699E+01  0.51100000000E-03 0.  1.
         12    1    3    3    0    0 -0.62582986248E+01 -0.32901800297E+00  0.14182825425E+02  0.15505711579E+02  0.00000000000E+00 0. -1.
</event>
<event>
 7    1  0.1427898E-010  0.4778727E+02  0.7816164E-02  0.1312668E+00
        -11   -1    0    0    0    0  0.00000000000E+00  0.00000000000E+00  0.45593999997E+02  0.45594000000E+02  0.51100000000E-03 0.  1.
         11   -1    0    0    0    0 -0.00000000000E+00 -0.00000000000E+00 -0.45593999997E+02  0.45594000000E+02  0.51100000000E-03 0. -1.
    9900012    2    1    2    0    0  0.39267406370E+02 -0.91803186191E+01 -0.16044183797E+02  0.47787270897E+02  0.19999999327E+02 0.  0.
        -12    1    1    2    0    0 -0.39267406370E+02  0.91803186191E+01  0.16044183797E+02  0.43400729103E+02  0.00000000000E+00 0.  1.
         11    1    3    3    0    0  0.10955677424E+02  0.26255691821E+01 -0.69862539260E+00  0.11287539991E+02  0.51100000000E-03 0. -1.
        -11    1    3    3    0    0  0.11753264880E+02 -0.93012222588E+01 -0.20728670260E+01  0.15131052469E+02  0.51100000000E-03 0.  1.
         12    1    3    3    0    0  0.16558464065E+02 -0.25046655425E+01 -0.13272691378E+02  0.21368678436E+02  0.00000000000E+00 0. -1.
</event>
<event>
 7    1  0.1427898E-010  0.4778727E+02  0.7816164E-02  0.1312668E+00
        -11   -1    0    0    0    0  0.00000000000E+00  0.00000000000E+00  0.45593999997E+02  0.45594000000E+02  0.51100000000E-03 0.  1.
         11   -1    0    0    0    0 -0.00000000000E+00 -0.00000000000E+00 -0.45593999997E+02  0.45594000000E+02  0.51100000000E-03 0. -1.
    9900012    2    1    2    0    0  0.80007418542E+01 -0.35403692515E+02 -0.23794746110E+02  0.47787271246E+02  0.20000000921E+02 0.  0.
        -12    1    1    2    0    0 -0.80007418542E+01  0.35403692515E+02  0.23794746110E+02  0.43400728754E+02  0.00000000000E+00 0.  1.
         11    1    3    3    0    0  0.45003488234E+01 -0.12631663738E+01 -0.49501766783E+01  0.68083021545E+01  0.51100000000E-03 0. -1.
        -11    1    3    3    0    0 -0.18469289989E+01 -0.14596007059E+00 -0.26630737330E+00  0.18717294001E+01  0.51100000000E-03 0.  1.
         12    1    3    3    0    0  0.53473220297E+01 -0.33994566070E+02 -0.18578262059E+02  0.39107239692E+02  0.00000000000E+00 0. -1.
</event>
<event>
 7    1  0.1427898E-010  0.4778728E+02  0.7816164E-02  0.1312668E+00
        -11   -1    0    0    0    0  0.00000000000E+00  0.00000000000E+00  0.45593999997E+02  0.45594000000E+02  0.51100000000E-03 0.  1.
         11   -1    0    0    0    0 -0.00000000000E+00 -0.00000000000E+00 -0.45593999997E+02  0.45594000000E+02  0.51100000000E-03 0. -1.
    9900012    2    1    2    0    0  0.37549969088E+02  0.18021180361E+02 -0.12200803673E+02  0.47787277306E+02  0.20000028548E+02 0.  0.
        -12    1    1    2    0    0 -0.37549969088E+02 -0.18021180361E+02  0.12200803673E+02  0.43400722694E+02  0.00000000000E+00 0.  1.
         11    1    3    3    0    0  0.19890279415E+02  0.77383708954E+01 -0.47340385659E+01  0.21861306473E+02  0.51100000000E-03 0. -1.
        -11    1    3    3    0    0  0.19944798848E+02  0.10032793368E+02 -0.57433905922E+01  0.23052949478E+02  0.51100000000E-03 0.  1.
        -12    1    3    3    0    0 -0.22851091745E+01  0.25001609698E+00 -0.17233745146E+01  0.28730213549E+01  0.00000000000E+00 0.  1.
</event>
<event>
 7    1  0.1427898E-010  0.4778727E+02  0.7816164E-02  0.1312668E+00
        -11   -1    0    0    0    0  0.00000000000E+00  0.00000000000E+00  0.45593999997E+02  0.45594000000E+02  0.51100000000E-03 0. -1.
         11   -1    0    0    0    0 -0.00000000000E+00 -0.00000000000E+00 -0.45593999997E+02  0.45594000000E+02  0.51100000000E-03 0.  1.
    9900012    2    1    2    0    0  0.43080458430E+02 -0.54707922919E+00  0.52343275685E+01  0.47787269830E+02  0.19999994464E+02 0.  0.
        -12    1    1    2    0    0 -0.43080458430E+02  0.54707922919E+00 -0.52343275685E+01  0.43400730170E+02  0.00000000000E+00 0.  1.
         11    1    3    3    0    0  0.13847386781E+02 -0.47195997648E+01 -0.12396959750E+01  0.14682015835E+02  0.51100000000E-03 0. -1.
        -11    1    3    3    0    0  0.18295281018E+01  0.47126036318E+01  0.11388322164E+01  0.51819634449E+01  0.51100000000E-03 0.  1.
         12    1    3    3    0    0  0.27403543547E+02 -0.54008309619E+00  0.53351913271E+01  0.27923290550E+02  0.00000000000E+00 0. -1.
</event>
<event>
 7    1  0.1427898E-010  0.4778727E+02  0.7816164E-02  0.1312668E+00
        -11   -1    0    0    0    0  0.00000000000E+00  0.00000000000E+00  0.45593999997E+02  0.45594000000E+02  0.51100000000E-03 0.  1.
         11   -1    0    0    0    0 -0.00000000000E+00 -0.00000000000E+00 -0.45593999997E+02  0.45594000000E+02  0.51100000000E-03 0. -1.
    9900012    2    1    2    0    0 -0.35084021058E+02 -0.25425204670E+02 -0.25087036393E+01  0.47787272356E+02  0.20000005978E+02 0.  0.
        -12    1    1    2    0    0  0.35084021058E+02  0.25425204670E+02  0.25087036393E+01  0.43400727644E+02  0.00000000000E+00 0.  1.
         11    1    3    3    0    0 -0.64528751491E+00 -0.31434746840E+01 -0.28209559133E+01  0.42726597795E+01  0.51100000000E-03 0. -1.
        -11    1    3    3    0    0 -0.22666286936E+01 -0.68510585331E+01  0.28146037265E+01  0.77457474175E+01  0.51100000000E-03 0.  1.
         12    1    3    3    0    0 -0.32172104849E+02 -0.15430671453E+02 -0.25023514525E+01  0.35768865159E+02  0.00000000000E+00 0. -1.
</event>
<event>
 7    1  0.1427898E-010  0.4778727E+02  0.7816164E-02  0.1312668E+00
        -11   -1    0    0    0    0  0.00000000000E+00  0.00000000000E+00  0.45593999997E+02  0.45594000000E+02  0.51100000000E-03 0.  1.
         11   -1    0    0    0    0 -0.00000000000E+00 -0.00000000000E+00 -0.45593999997E+02  0.45594000000E+02  0.51100000000E-03 0. -1.
    9900012    2    1    2    0    0  0.91144795632E+01 -0.31180501327E+02 -0.28780650854E+02  0.47787271155E+02  0.20000000502E+02 0.  0.
        -12    1    1    2    0    0 -0.91144795632E+01  0.31180501327E+02  0.28780650854E+02  0.43400728845E+02  0.00000000000E+00 0.  1.
         11    1    3    3    0    0  0.42025896413E+01 -0.55959033229E+01 -0.30123233566E+01  0.76190541381E+01  0.51100000000E-03 0. -1.
        -11    1    3    3    0    0  0.20719641499E+01  0.13831767922E+01  0.35349604282E+00  0.25161822650E+01  0.51100000000E-03 0.  1.
        -12    1    3    3    0    0  0.28399257719E+01 -0.26967774796E+02 -0.26121823540E+02  0.37652034752E+02  0.00000000000E+00 0.  1.
</event>
<event>
 7    1  0.1427898E-010  0.4778727E+02  0.7816164E-02  0.1312668E+00
        -11   -1    0    0    0    0  0.00000000000E+00  0.00000000000E+00  0.45593999997E+02  0.45594000000E+02  0.51100000000E-03 0.  1.
         11   -1    0    0    0    0 -0.00000000000E+00 -0.00000000000E+00 -0.45593999997E+02  0.45594000000E+02  0.51100000000E-03 0. -1.
    9900012    2    1    2    0    0 -0.10887964161E+02 -0.51787241136E+01 -0.41692403332E+02  0.47787269100E+02  0.19999991136E+02 0.  0.
        -12    1    1    2    0    0  0.10887964161E+02  0.51787241136E+01  0.41692403332E+02  0.43400730900E+02  0.00000000000E+00 0.  1.
         11    1    3    3    0    0 -0.90434145178E+01 -0.73984193127E+01 -0.31084540400E+02  0.33207959989E+02  0.51100000000E-03 0. -1.
        -11    1    3    3    0    0 -0.56221415646E+01  0.25260433955E+01 -0.72490738903E+01  0.95151691281E+01  0.51100000000E-03 0.  1.
        -12    1    3    3    0    0  0.37775919219E+01 -0.30634819643E+00 -0.33587890415E+01  0.50641399834E+01  0.00000000000E+00 0.  1.
</event>
<event>
 7    1  0.1427898E-010  0.4778729E+02  0.7816164E-02  0.1312668E+00
        -11   -1    0    0    0    0  0.00000000000E+00  0.00000000000E+00  0.45593999997E+02  0.45594000000E+02  0.51100000000E-03 0. -1.
         11   -1    0    0    0    0 -0.00000000000E+00 -0.00000000000E+00 -0.45593999997E+02  0.45594000000E+02  0.51100000000E-03 0.  1.
    9900012    2    1    2    0    0  0.43283155696E+02 -0.23752093827E+00 -0.31833616178E+01  0.47787288319E+02  0.20000078764E+02 0.  0.
        -12    1    1    2    0    0 -0.43283155696E+02  0.23752093827E+00  0.31833616178E+01  0.43400711681E+02  0.00000000000E+00 0.  1.
         11    1    3    3    0    0  0.36729039788E+02  0.64204285543E+00 -0.47241526306E+01  0.37037173234E+02  0.51100000000E-03 0. -1.
        -11    1    3    3    0    0  0.49018560367E+01  0.25507114413E+01 -0.16667145243E+01  0.57716773149E+01  0.51100000000E-03 0.  1.
        -12    1    3    3    0    0  0.16522598709E+01 -0.34302752350E+01  0.32075055371E+01  0.49784377710E+01  0.00000000000E+00 0.  1.
</event>
<event>
 7    1  0.1427898E-010  0.4778727E+02  0.7816164E-02  0.1312668E+00
        -11   -1    0    0    0    0  0.00000000000E+00  0.00000000000E+00  0.45593999997E+02  0.45594000000E+02  0.51100000000E-03 0.  1.
         11   -1    0    0    0    0 -0.00000000000E+00 -0.00000000000E+00 -0.45593999997E+02  0.45594000000E+02  0.51100000000E-03 0. -1.
    9900012    2    1    2    0    0 -0.77986018234E+01 -0.22783270248E+02 -0.36107172489E+02  0.47787268453E+02  0.19999988187E+02 0.  0.
        -12    1    1    2    0    0  0.77986018234E+01  0.22783270248E+02  0.36107172489E+02  0.43400731547E+02  0.00000000000E+00 0.  1.
         11    1    3    3    0    0 -0.20479599060E+01 -0.11008529144E+02 -0.97222765016E+01  0.14829177803E+02  0.51100000000E-03 0. -1.
        -11    1    3    3    0    0 -0.24810514752E+00 -0.65703765271E+01 -0.24197198781E+02  0.25074605341E+02  0.51100000000E-03 0.  1.
        -12    1    3    3    0    0 -0.55025367698E+01 -0.52043645770E+01 -0.21876972064E+01  0.78834853092E+01  0.00000000000E+00 0.  1.
</event>
<event>
 7    1  0.1427898E-010  0.4778727E+02  0.7816164E-02  0.1312668E+00
        -11   -1    0    0    0    0  0.00000000000E+00  0.00000000000E+00  0.45593999997E+02  0.45594000000E+02  0.51100000000E-03 0. -1.
         11   -1    0    0    0    0 -0.00000000000E+00 -0.00000000000E+00 -0.45593999997E+02  0.45594000000E+02  0.51100000000E-03 0.  1.
    9900012    2    1    2    0    0  0.39222439537E+02 -0.10888633646E+02  0.15055259900E+02  0.47787274700E+02  0.20000016667E+02 0.  0.
        -12    1    1    2    0    0 -0.39222439537E+02  0.10888633646E+02 -0.15055259900E+02  0.43400725300E+02  0.00000000000E+00 0.  1.
         11    1    3    3    0    0  0.22028655615E+02 -0.13566171417E+01  0.17066018670E+01  0.22136272687E+02  0.51100000000E-03 0. -1.
        -11    1    3    3    0    0 -0.10150389399E+01 -0.22391823330E+00  0.20225919018E+01  0.22740540203E+01  0.51100000000E-03 0.  1.
         12    1    3    3    0    0  0.18208822862E+02 -0.93080982711E+01  0.11326066131E+02  0.23376947992E+02  0.00000000000E+00 0. -1.
</event>
<event>
 7    1  0.1427898E-010  0.4778728E+02  0.7816164E-02  0.1312668E+00
        -11   -1    0    0    0    0  0.00000000000E+00  0.00000000000E+00  0.45593999997E+02  0.45594000000E+02  0.51100000000E-03 0.  1.
         11   -1    0    0    0    0 -0.00000000000E+00 -0.00000000000E+00 -0.45593999997E+02  0.45594000000E+02  0.51100000000E-03 0. -1.
    9900012    2    1    2    0    0  0.33194652197E+02 -0.27341710969E+02 -0.58454092486E+01  0.47787275323E+02  0.20000019507E+02 0.  0.
        -12    1    1    2    0    0 -0.33194652197E+02  0.27341710969E+02  0.58454092486E+01  0.43400724677E+02  0.00000000000E+00 0.  1.
         11    1    3    3    0    0  0.24044615833E+02 -0.26073412642E+02 -0.17041272020E+01  0.35508737617E+02  0.51100000000E-03 0. -1.
        -11    1    3    3    0    0  0.46382792115E+01 -0.31453545795E+01 -0.47600310789E+01  0.73528760093E+01  0.51100000000E-03 0.  1.
         12    1    3    3    0    0  0.45117571533E+01  0.18770562529E+01  0.61874903236E+00  0.49256616969E+01  0.00000000000E+00 0. -1.
</event>
<event>
 7    1  0.1427898E-010  0.4778728E+02  0.7816164E-02  0.1312668E+00
        -11   -1    0    0    0    0  0.00000000000E+00  0.00000000000E+00  0.45593999997E+02  0.45594000000E+02  0.51100000000E-03 0. -1.
         11   -1    0    0    0    0 -0.00000000000E+00 -0.00000000000E+00 -0.45593999997E+02  0.45594000000E+02  0.51100000000E-03 0.  1.
    9900012    2    1    2    0    0  0.30409462751E+02 -0.30014890508E+02  0.76153607003E+01  0.47787276554E+02  0.20000025120E+02 0.  0.
        -12    1    1    2    0    0 -0.30409462751E+02  0.30014890508E+02 -0.76153607003E+01  0.43400723446E+02  0.00000000000E+00 0.  1.
         11    1    3    3    0    0  0.12963223625E+02 -0.12403550090E+01  0.48001613156E+01  0.13878947951E+02  0.51100000000E-03 0.  1.
        -11    1    3    3    0    0  0.80488397033E+01 -0.15283921237E+02  0.25819174767E+01  0.17465633887E+02  0.51100000000E-03 0. -1.
        -12    1    3    3    0    0  0.93973994225E+01 -0.13490614262E+02  0.23328190794E+00  0.16442694716E+02  0.00000000000E+00 0.  1.
</event>
<event>
 7    1  0.1427898E-010  0.4778727E+02  0.7816164E-02  0.1312668E+00
        -11   -1    0    0    0    0  0.00000000000E+00  0.00000000000E+00  0.45593999997E+02  0.45594000000E+02  0.51100000000E-03 0.  1.
         11   -1    0    0    0    0 -0.00000000000E+00 -0.00000000000E+00 -0.45593999997E+02  0.45594000000E+02  0.51100000000E-03 0. -1.
    9900012    2    1    2    0    0  0.37969327282E+02 -0.18100068033E+02 -0.10693047566E+02  0.47787267940E+02  0.19999985846E+02 0.  0.
        -12    1    1    2    0    0 -0.37969327282E+02  0.18100068033E+02  0.10693047566E+02  0.43400732060E+02  0.00000000000E+00 0.  1.
         11    1    3    3    0    0  0.26899560676E+02 -0.62562603621E+01 -0.48349114069E+01  0.28037537818E+02  0.51100000000E-03 0. -1.
        -11    1    3    3    0    0  0.11049623780E+02 -0.11108178286E+02 -0.19685832763E+01  0.15791172563E+02  0.51100000000E-03 0.  1.
        -12    1    3    3    0    0  0.20142825480E-01 -0.73562938497E+00 -0.38895528826E+01  0.39585575595E+01  0.00000000000E+00 0.  1.
</event>
<event>
 7    1  0.1427898E-010  0.4778727E+02  0.7816164E-02  0.1312668E+00
        -11   -1    0    0    0    0  0.00000000000E+00  0.00000000000E+00  0.45593999997E+02  0.45594000000E+02  0.51100000000E-03 0.  1.
         11   -1    0    0    0    0 -0.00000000000E+00 -0.00000000000E+00 -0.45593999997E+02  0.45594000000E+02  0.51100000000E-03 0. -1.
    9900012    2    1    2    0    0  0.21873956342E+01  0.35447545858E+02 -0.24946143931E+02  0.47787270697E+02  0.19999998415E+02 0.  0.
        -12    1    1    2    0    0 -0.21873956342E+01 -0.35447545858E+02  0.24946143931E+02  0.43400729303E+02  0.00000000000E+00 0.  1.
         11    1    3    3    0    0 -0.44460313186E+01  0.88969000703E+01 -0.12645590972E+02  0.16088287561E+02  0.51100000000E-03 0. -1.
        -11    1    3    3    0    0  0.53307091335E+01  0.21865861008E+02 -0.14049469507E+02  0.26531489426E+02  0.51100000000E-03 0.  1.
        -12    1    3    3    0    0  0.13027178193E+01  0.46847847803E+01  0.17489165477E+01  0.51674937102E+01  0.00000000000E+00 0.  1.
</event>
<event>
 7    1  0.1427898E-010  0.4778727E+02  0.7816164E-02  0.1312668E+00
        -11   -1    0    0    0    0  0.00000000000E+00  0.00000000000E+00  0.45593999997E+02  0.45594000000E+02  0.51100000000E-03 0.  1.
         11   -1    0    0    0    0 -0.00000000000E+00 -0.00000000000E+00 -0.45593999997E+02  0.45594000000E+02  0.51100000000E-03 0. -1.
    9900012    2    1    2    0    0  0.17551121037E+02  0.34345087555E+02 -0.19899659167E+02  0.47787270469E+02  0.19999997376E+02 0.  0.
        -12    1    1    2    0    0 -0.17551121037E+02 -0.34345087555E+02  0.19899659167E+02  0.43400729531E+02  0.00000000000E+00 0.  1.
         11    1    3    3    0    0  0.16488687525E+01 -0.45496688569E-01 -0.44900566908E+01  0.47834555982E+01  0.51100000000E-03 0. -1.
        -11    1    3    3    0    0  0.16340067905E+02  0.21852465905E+02 -0.13017011548E+02  0.30231947922E+02  0.51100000000E-03 0.  1.
        -12    1    3    3    0    0 -0.43781562040E+00  0.12538118339E+02 -0.23925909286E+01  0.12771866949E+02  0.00000000000E+00 0.  1.
</event>
<event>
 7    1  0.1427898E-010  0.4778727E+02  0.7816164E-02  0.1312668E+00
        -11   -1    0    0    0    0  0.00000000000E+00  0.00000000000E+00  0.45593999997E+02  0.45594000000E+02  0.51100000000E-03 0.  1.
         11   -1    0    0    0    0 -0.00000000000E+00 -0.00000000000E+00 -0.45593999997E+02  0.45594000000E+02  0.51100000000E-03 0. -1.
    9900012    2    1    2    0    0 -0.65251195747E+01 -0.39271513624E+02 -0.17285675803E+02  0.47787267797E+02  0.19999985193E+02 0.  0.
        -12    1    1    2    0    0  0.65251195747E+01  0.39271513624E+02  0.17285675803E+02  0.43400732203E+02  0.00000000000E+00 0.  1.
         11    1    3    3    0    0 -0.61894724480E+01 -0.15443643498E+02 -0.15348426937E+02  0.22636031087E+02  0.51100000000E-03 0. -1.
        -11    1    3    3    0    0  0.26189299962E+01 -0.28240490520E+01  0.91129838638E-02  0.38515101819E+01  0.51100000000E-03 0.  1.
         12    1    3    3    0    0 -0.29545771230E+01 -0.21003821075E+02 -0.19463618493E+01  0.21299726528E+02  0.00000000000E+00 0. -1.
</event>
<event>
 7    1  0.1427898E-010  0.4778726E+02  0.7816164E-02  0.1312668E+00
        -11   -1    0    0    0    0  0.00000000000E+00  0.00000000000E+00  0.45593999997E+02  0.45594000000E+02  0.51100000000E-03 0.  1.
         11   -1    0    0    0    0 -0.00000000000E+00 -0.00000000000E+00 -0.45593999997E+02  0.45594000000E+02  0.51100000000E-03 0. -1.
    9900012    2    1    2    0    0 -0.24664365783E+02  0.15296068281E+02 -0.32269549955E+02  0.47787256935E+02  0.19999935669E+02 0.  0.
        -12    1    1    2    0    0  0.24664365783E+02 -0.15296068281E+02  0.32269549955E+02  0.43400743065E+02  0.00000000000E+00 0.  1.
         11    1    3    3    0    0 -0.94881366991E+01  0.89943773236E+01 -0.45013234315E+01  0.13826983560E+02  0.51100000000E-03 0. -1.
        -11    1    3    3    0    0  0.56966489021E-01  0.40252782102E+01 -0.43116201509E+01  0.58988285648E+01  0.51100000000E-03 0.  1.
        -12    1    3    3    0    0 -0.15233195573E+02  0.22764127469E+01 -0.23456606372E+02  0.28061444811E+02  0.00000000000E+00 0.  1.
</event>
<event>
 7    1  0.1427898E-010  0.4778727E+02  0.7816164E-02  0.1312668E+00
        -11   -1    0    0    0    0  0.00000000000E+00  0.00000000000E+00  0.45593999997E+02  0.45594000000E+02  0.51100000000E-03 0. -1.
         11   -1    0    0    0    0 -0.00000000000E+00 -0.00000000000E+00 -0.45593999997E+02  0.45594000000E+02  0.51100000000E-03 0.  1.
    9900012    2    1    2    0    0  0.41072902289E+02  0.13779929850E+02  0.25988357037E+01  0.47787265949E+02  0.19999976769E+02 0.  0.
        -12    1    1    2    0    0 -0.41072902289E+02 -0.13779929850E+02 -0.25988357037E+01  0.43400734051E+02  0.00000000000E+00 0.  1.
         11    1    3    3    0    0  0.11937508727E+02  0.71513459267E+01  0.48477402540E+01  0.14735889827E+02  0.51100000000E-03 0. -1.
        -11    1    3    3    0    0  0.19338843711E+02 -0.10860659369E+01  0.28534249768E+01  0.19578366879E+02  0.51100000000E-03 0.  1.
        -12    1    3    3    0    0  0.97965498514E+01  0.77146498597E+01 -0.51023295271E+01  0.13473009243E+02  0.00000000000E+00 0.  1.
</event>
<event>
 7    1  0.1427898E-010  0.4778728E+02  0.7816164E-02  0.1312668E+00
        -11   -1    0    0    0    0  0.00000000000E+00  0.00000000000E+00  0.45593999997E+02  0.45594000000E+02  0.51100000000E-03 0.  1.
         11   -1    0    0    0    0 -0.00000000000E+00 -0.00000000000E+00 -0.45593999997E+02  0.45594000000E+02  0.51100000000E-03 0. -1.
    9900012    2    1    2    0    0  0.29994273067E+02 -0.28563740887E+02 -0.12964532444E+02  0.47787276368E+02  0.20000024271E+02 0.  0.
        -12    1    1    2    0    0 -0.29994273067E+02  0.28563740887E+02  0.12964532444E+02  0.43400723632E+02  0.00000000000E+00 0.  1.
         11    1    3    3    0    0  0.10865695506E+02 -0.11731648073E+02 -0.45732197481E+00  0.15997001250E+02  0.51100000000E-03 0.  1.
        -11    1    3    3    0    0  0.15153570832E+02 -0.40953929422E+01 -0.85424055133E+01  0.17871084033E+02  0.51100000000E-03 0. -1.
         12    1    3    3    0    0  0.39750067302E+01 -0.12736699872E+02 -0.39648049556E+01  0.13919191085E+02  0.00000000000E+00 0. -1.
</event>
<event>
 7    1  0.1427898E-010  0.4778727E+02  0.7816164E-02  0.1312668E+00
        -11   -1    0    0    0    0  0.00000000000E+00  0.00000000000E+00  0.45593999997E+02  0.45594000000E+02  0.51100000000E-03 0.  1.
         11   -1    0    0    0    0 -0.00000000000E+00 -0.00000000000E+00 -0.45593999997E+02  0.45594000000E+02  0.51100000000E-03 0. -1.
    9900012    2    1    2    0    0 -0.24034362096E+02  0.16794524934E+02 -0.31998694341E+02  0.47787273409E+02  0.20000010780E+02 0.  0.
        -12    1    1    2    0    0  0.24034362096E+02 -0.16794524934E+02  0.31998694341E+02  0.43400726591E+02  0.00000000000E+00 0.  1.
         11    1    3    3    0    0 -0.12796682152E+02  0.48158711718E+01 -0.25500366290E+02  0.28934691469E+02  0.51100000000E-03 0. -1.
        -11    1    3    3    0    0 -0.39921642424E+00  0.44836901436E+01 -0.20312461021E+01  0.49385030167E+01  0.51100000000E-03 0.  1.
        -12    1    3    3    0    0 -0.10838463521E+02  0.74949636187E+01 -0.44670819483E+01  0.13914078923E+02  0.00000000000E+00 0.  1.
</event>
<event>
 7    1  0.1427898E-010  0.4778727E+02  0.7816164E-02  0.1312668E+00
        -11   -1    0    0    0    0  0.00000000000E+00  0.00000000000E+00  0.45593999997E+02  0.45594000000E+02  0.51100000000E-03 0.  1.
         11   -1    0    0    0    0 -0.00000000000E+00 -0.00000000000E+00 -0.45593999997E+02  0.45594000000E+02  0.51100000000E-03 0. -1.
    9900012    2    1    2    0    0 -0.11487938603E+01 -0.29782659115E+02 -0.31548320599E+02  0.47787273694E+02  0.20000012081E+02 0.  0.
        -12    1    1    2    0    0  0.11487938603E+01  0.29782659115E+02  0.31548320599E+02  0.43400726306E+02  0.00000000000E+00 0.  1.
         11    1    3    3    0    0 -0.83941819116E+01 -0.11880378728E+02 -0.17372161470E+02  0.22658280674E+02  0.51100000000E-03 0. -1.
        -11    1    3    3    0    0  0.31411700537E+01 -0.25301851155E+01 -0.60290278396E+01  0.72538240244E+01  0.51100000000E-03 0.  1.
        -12    1    3    3    0    0  0.41042179977E+01 -0.15372095271E+02 -0.81471312889E+01  0.17875168996E+02  0.00000000000E+00 0.  1.
</event>
<event>
 7    1  0.1427898E-010  0.4778727E+02  0.7816164E-02  0.1312668E+00
        -11   -1    0    0    0    0  0.00000000000E+00  0.00000000000E+00  0.45593999997E+02  0.45594000000E+02  0.51100000000E-03 0.  1.
         11   -1    0    0    0    0 -0.00000000000E+00 -0.00000000000E+00 -0.45593999997E+02  0.45594000000E+02  0.51100000000E-03 0. -1.
    9900012    2    1    2    0    0 -0.31932369808E+02  0.16655402943E+02 -0.24218684380E+02  0.47787270031E+02  0.19999995378E+02 0.  0.
        -12    1    1    2    0    0  0.31932369808E+02 -0.16655402943E+02  0.24218684380E+02  0.43400729969E+02  0.00000000000E+00 0.  1.
         11    1    3    3    0    0 -0.13127437450E+00  0.12482006635E+01 -0.67176115533E+01  0.68338527274E+01  0.51100000000E-03 0. -1.
        -11    1    3    3    0    0 -0.11859173351E+02  0.81912383919E+01 -0.17128956322E+01  0.14514488991E+02  0.51100000000E-03 0.  1.
         12    1    3    3    0    0 -0.19941922082E+02  0.72159638882E+01 -0.15788177195E+02  0.26438928313E+02  0.00000000000E+00 0. -1.
</event>
<event>
 7    1  0.1427898E-010  0.4778727E+02  0.7816164E-02  0.1312668E+00
        -11   -1    0    0    0    0  0.00000000000E+00  0.00000000000E+00  0.45593999997E+02  0.45594000000E+02  0.51100000000E-03 0.  1.
         11   -1    0    0    0    0 -0.00000000000E+00 -0.00000000000E+00 -0.45593999997E+02  0.45594000000E+02  0.51100000000E-03 0. -1.
    9900012    2    1    2    0    0  0.29098065842E+02 -0.11861101676E+02 -0.29937267671E+02  0.47787272306E+02  0.20000005751E+02 0.  0.
        -12    1    1    2    0    0 -0.29098065842E+02  0.11861101676E+02  0.29937267671E+02  0.43400727694E+02  0.00000000000E+00 0.  1.
         11    1    3    3    0    0  0.21292937544E+02 -0.10930874322E+02 -0.29095375480E+02  0.37675112173E+02  0.51100000000E-03 0. -1.
        -11    1    3    3    0    0  0.57562868949E+01  0.13025971046E+01 -0.27708697871E+01  0.65199169988E+01  0.51100000000E-03 0.  1.
        -12    1    3    3    0    0  0.20488414038E+01 -0.22328244595E+01  0.19289775961E+01  0.35922431336E+01  0.00000000000E+00 0.  1.
</event>
<event>
 7    1  0.1427898E-010  0.4778727E+02  0.7816164E-02  0.1312668E+00
        -11   -1    0    0    0    0  0.00000000000E+00  0.00000000000E+00  0.45593999997E+02  0.45594000000E+02  0.51100000000E-03 0.  1.
         11   -1    0    0    0    0 -0.00000000000E+00 -0.00000000000E+00 -0.45593999997E+02  0.45594000000E+02  0.51100000000E-03 0. -1.
    9900012    2    1    2    0    0  0.13539327016E+02 -0.39152479332E+02 -0.12938070219E+02  0.47787266424E+02  0.19999978935E+02 0.  0.
        -12    1    1    2    0    0 -0.13539327016E+02  0.39152479332E+02  0.12938070219E+02  0.43400733576E+02  0.00000000000E+00 0.  1.
         11    1    3    3    0    0  0.65946585460E+01 -0.13720914751E+02 -0.25130040903E+01  0.15429459250E+02  0.51100000000E-03 0. -1.
        -11    1    3    3    0    0 -0.15580448513E+01  0.15968443653E+01 -0.22017302252E+00  0.22418501526E+01  0.51100000000E-03 0.  1.
        -12    1    3    3    0    0  0.85027133218E+01 -0.27028408947E+02 -0.10204893106E+02  0.30115957021E+02  0.00000000000E+00 0.  1.
</event>
<event>
 7    1  0.1427898E-010  0.4778727E+02  0.7816164E-02  0.1312668E+00
        -11   -1    0    0    0    0  0.00000000000E+00  0.00000000000E+00  0.45593999997E+02  0.45594000000E+02  0.51100000000E-03 0.  1.
         11   -1    0    0    0    0 -0.00000000000E+00 -0.00000000000E+00 -0.45593999997E+02  0.45594000000E+02  0.51100000000E-03 0. -1.
    9900012    2    1    2    0    0 -0.10559660292E+01 -0.18131886298E+02 -0.39417544963E+02  0.47787271713E+02  0.20000003047E+02 0.  0.
        -12    1    1    2    0    0  0.10559660292E+01  0.18131886298E+02  0.39417544963E+02  0.43400728287E+02  0.00000000000E+00 0.  1.
         11    1    3    3    0    0  0.96101875587E+00 -0.84091622567E+01 -0.19962724701E+02  0.21682895210E+02  0.51100000000E-03 0. -1.
        -11    1    3    3    0    0 -0.36851884763E+01 -0.12916381549E+02 -0.17314229644E+02  0.21913376619E+02  0.51100000000E-03 0.  1.
        -12    1    3    3    0    0  0.16682036912E+01  0.31936575081E+01 -0.21405906179E+01  0.41909998840E+01  0.00000000000E+00 0.  1.
</event>
<event>
 7    1  0.1427898E-010  0.4778726E+02  0.7816164E-02  0.1312668E+00
        -11   -1    0    0    0    0  0.00000000000E+00  0.00000000000E+00  0.45593999997E+02  0.45594000000E+02  0.51100000000E-03 0.  1.
         11   -1    0    0    0    0 -0.00000000000E+00 -0.00000000000E+00 -0.45593999997E+02  0.45594000000E+02  0.51100000000E-03 0. -1.
    9900012    2    1    2    0    0 -0.23548357195E+02  0.19064190603E+02 -0.31074999873E+02  0.47787261446E+02  0.19999956237E+02 0.  0.
        -12    1    1    2    0    0  0.23548357195E+02 -0.19064190603E+02  0.31074999873E+02  0.43400738554E+02  0.00000000000E+00 0.  1.
         11    1    3    3    0    0 -0.49580152442E+01  0.14219535224E+02 -0.12176153258E+02  0.19365841205E+02  0.51100000000E-03 0. -1.
        -11    1    3    3    0    0 -0.37967092229E+01 -0.10722311571E+01 -0.33765208151E+00  0.39596325293E+01  0.51100000000E-03 0.  1.
        -12    1    3    3    0    0 -0.14793632728E+02  0.59168865360E+01 -0.18561194533E+02  0.24461787712E+02  0.00000000000E+00 0.  1.
</event>
<event>
 7    1  0.1427898E-010  0.4778727E+02  0.7816164E-02  0.1312668E+00
        -11   -1    0    0    0    0  0.00000000000E+00  0.00000000000E+00  0.45593999997E+02  0.45594000000E+02  0.51100000000E-03 0. -1.
         11   -1    0    0    0    0 -0.00000000000E+00 -0.00000000000E+00 -0.45593999997E+02  0.45594000000E+02  0.51100000000E-03 0.  1.
    9900012    2    1    2    0    0  0.27182062095E+02  0.28242868135E+01  0.33716203318E+02  0.47787268878E+02  0.19999990123E+02 0.  0.
        -12    1    1    2    0    0 -0.27182062095E+02 -0.28242868135E+01 -0.33716203318E+02  0.43400731122E+02  0.00000000000E+00 0.  1.
         11    1    3    3    0    0  0.22467994046E+01  0.11990891659E+01 -0.13253498457E+01  0.28709710669E+01  0.51100000000E-03 0. -1.
        -11    1    3    3    0    0  0.73594492312E+01 -0.77766918013E+00  0.21081608185E+02  0.22342794504E+02  0.51100000000E-03 0.  1.
         12    1    3    3    0    0  0.17575813459E+02  0.24028668277E+01  0.13959944979E+02  0.22573503307E+02  0.00000000000E+00 0. -1.
</event>
<event>
 7    1  0.1427898E-010  0.4778727E+02  0.7816164E-02  0.1312668E+00
        -11   -1    0    0    0    0  0.00000000000E+00  0.00000000000E+00  0.45593999997E+02  0.45594000000E+02  0.51100000000E-03 0. -1.
         11   -1    0    0    0    0 -0.00000000000E+00 -0.00000000000E+00 -0.45593999997E+02  0.45594000000E+02  0.51100000000E-03 0.  1.
    9900012    2    1    2    0    0 -0.37791604960E+01  0.26287401094E+02  0.34326571718E+02  0.47787273783E+02  0.20000012484E+02 0.  0.
        -12    1    1    2    0    0  0.37791604960E+01 -0.26287401094E+02 -0.34326571718E+02  0.43400726217E+02  0.00000000000E+00 0.  1.
         11    1    3    3    0    0 -0.39133430875E+01  0.96362684971E+01  0.21963644316E+02  0.24301720033E+02  0.51100000000E-03 0. -1.
        -11    1    3    3    0    0  0.48028490417E+01  0.37471603829E+01  0.24925072106E+01  0.65818813654E+01  0.51100000000E-03 0.  1.
        -12    1    3    3    0    0 -0.46686664502E+01  0.12903972214E+02  0.98704201911E+01  0.16903672384E+02  0.00000000000E+00 0.  1.
</event>
<event>
 7    1  0.1427898E-010  0.4778727E+02  0.7816164E-02  0.1312668E+00
        -11   -1    0    0    0    0  0.00000000000E+00  0.00000000000E+00  0.45593999997E+02  0.45594000000E+02  0.51100000000E-03 0. -1.
         11   -1    0    0    0    0 -0.00000000000E+00 -0.00000000000E+00 -0.45593999997E+02  0.45594000000E+02  0.51100000000E-03 0.  1.
    9900012    2    1    2    0    0 -0.38871792107E+02 -0.84498425926E+01  0.17355321090E+02  0.47787271531E+02  0.20000002220E+02 0.  0.
        -12    1    1    2    0    0  0.38871792107E+02  0.84498425926E+01 -0.17355321090E+02  0.43400728469E+02  0.00000000000E+00 0.  1.
         11    1    3    3    0    0 -0.17982133406E+02 -0.45197039191E+01  0.42053281754E+01  0.19012354685E+02  0.51100000000E-03 0. -1.
        -11    1    3    3    0    0 -0.93761388051E+01  0.50525881860E+01  0.78840190968E+01  0.13251354031E+02  0.51100000000E-03 0.  1.
         12    1    3    3    0    0 -0.11513519897E+02 -0.89827268595E+01  0.52659738175E+01  0.15523562816E+02  0.00000000000E+00 0. -1.
</event>
<event>
 7    1  0.1427898E-010  0.4778727E+02  0.7816164E-02  0.1312668E+00
        -11   -1    0    0    0    0  0.00000000000E+00  0.00000000000E+00  0.45593999997E+02  0.45594000000E+02  0.51100000000E-03 0. -1.
         11   -1    0    0    0    0 -0.00000000000E+00 -0.00000000000E+00 -0.45593999997E+02  0.45594000000E+02  0.51100000000E-03 0.  1.
    9900012    2    1    2    0    0  0.15174598019E+02  0.26570637292E+02  0.30779145120E+02  0.47787274598E+02  0.20000016200E+02 0.  0.
        -12    1    1    2    0    0 -0.15174598019E+02 -0.26570637292E+02 -0.30779145120E+02  0.43400725402E+02  0.00000000000E+00 0.  1.
         11    1    3    3    0    0  0.58095286211E+01  0.10114755762E+02  0.20902743375E+02  0.23937075589E+02  0.51100000000E-03 0. -1.
        -11    1    3    3    0    0  0.68183732089E+01  0.28310600780E+01  0.58409479353E+01  0.94139145644E+01  0.51100000000E-03 0.  1.
        -12    1    3    3    0    0  0.25466961890E+01  0.13624821453E+02  0.40354538096E+01  0.14436284444E+02  0.00000000000E+00 0.  1.
</event>
<event>
 7    1  0.1427898E-010  0.4778727E+02  0.7816164E-02  0.1312668E+00
        -11   -1    0    0    0    0  0.00000000000E+00  0.00000000000E+00  0.45593999997E+02  0.45594000000E+02  0.51100000000E-03 0.  1.
         11   -1    0    0    0    0 -0.00000000000E+00 -0.00000000000E+00 -0.45593999997E+02  0.45594000000E+02  0.51100000000E-03 0. -1.
    9900012    2    1    2    0    0 -0.40485094628E+02 -0.51477274201E+01 -0.14767575414E+02  0.47787271109E+02  0.20000000296E+02 0.  0.
        -12    1    1    2    0    0  0.40485094628E+02  0.51477274201E+01  0.14767575414E+02  0.43400728891E+02  0.00000000000E+00 0.  1.
         11    1    3    3    0    0 -0.29843756361E+02 -0.20272343986E+01 -0.13333459212E+02  0.32749665767E+02  0.51100000000E-03 0. -1.
        -11    1    3    3    0    0 -0.11631891040E+02 -0.45060437918E+01  0.46980343410E+00  0.12483029895E+02  0.51100000000E-03 0.  1.
         12    1    3    3    0    0  0.99055277341E+00  0.13855507704E+01 -0.19039196363E+01  0.25545754473E+01  0.00000000000E+00 0. -1.
</event>
<event>
 7    1  0.1427898E-010  0.4778727E+02  0.7816164E-02  0.1312668E+00
        -11   -1    0    0    0    0  0.00000000000E+00  0.00000000000E+00  0.45593999997E+02  0.45594000000E+02  0.51100000000E-03 0.  1.
         11   -1    0    0    0    0 -0.00000000000E+00 -0.00000000000E+00 -0.45593999997E+02  0.45594000000E+02  0.51100000000E-03 0. -1.
    9900012    2    1    2    0    0 -0.38382893163E+02  0.14647116981E+02 -0.13994240882E+02  0.47787270728E+02  0.19999998559E+02 0.  0.
        -12    1    1    2    0    0  0.38382893163E+02 -0.14647116981E+02  0.13994240882E+02  0.43400729272E+02  0.00000000000E+00 0.  1.
         11    1    3    3    0    0 -0.25705058226E+02  0.15161454166E+02 -0.53974521763E+01  0.30327416657E+02  0.51100000000E-03 0. -1.
        -11    1    3    3    0    0 -0.20612765037E+01  0.21201964382E+01  0.77354826134E+00  0.30565455886E+01  0.51100000000E-03 0.  1.
        -12    1    3    3    0    0 -0.10616558434E+02 -0.26345336231E+01 -0.93703369667E+01  0.14403308483E+02  0.00000000000E+00 0.  1.
</event>
<event>
 7    1  0.1816125E-010  0.4778731E+02  0.7816164E-02  0.1312668E+00
        -11   -1    0    0    0    0  0.00000000000E+00  0.00000000000E+00  0.45593999997E+02  0.45594000000E+02  0.51100000000E-03 0.  1.
         11   -1    0    0    0    0 -0.00000000000E+00 -0.00000000000E+00 -0.45593999997E+02  0.45594000000E+02  0.51100000000E-03 0. -1.
    9900012    2    1    2    0    0 -0.19491137440E+02  0.38673701640E+02 -0.28390949716E+01  0.47787307637E+02  0.20000166841E+02 0.  0.
        -12    1    1    2    0    0  0.19491137440E+02 -0.38673701640E+02  0.28390949716E+01  0.43400692363E+02  0.00000000000E+00 0.  1.
         11    1    3    3    0    0 -0.23582244376E+01  0.11743534203E+02  0.51417842346E+01  0.13034943938E+02  0.51100000000E-03 0. -1.
        -11    1    3    3    0    0 -0.14242980314E+01  0.22514478077E+01 -0.45837316015E+01  0.53017202650E+01  0.51100000000E-03 0.  1.
         12    1    3    3    0    0 -0.15708614971E+02  0.24678719629E+02 -0.33971476047E+01  0.29450643435E+02  0.00000000000E+00 0. -1.
</event>
<event>
 7    1  0.1427898E-010  0.4778727E+02  0.7816164E-02  0.1312668E+00
        -11   -1    0    0    0    0  0.00000000000E+00  0.00000000000E+00  0.45593999997E+02  0.45594000000E+02  0.51100000000E-03 0. -1.
         11   -1    0    0    0    0 -0.00000000000E+00 -0.00000000000E+00 -0.45593999997E+02  0.45594000000E+02  0.51100000000E-03 0.  1.
    9900012    2    1    2    0    0 -0.43073638563E+02 -0.53167999701E+01  0.12847420497E+00  0.47787271819E+02  0.20000003532E+02 0.  0.
        -12    1    1    2    0    0  0.43073638563E+02  0.53167999701E+01 -0.12847420497E+00  0.43400728181E+02  0.00000000000E+00 0.  1.
         11    1    3    3    0    0 -0.93476388923E+01 -0.49254638286E+01  0.20439144873E+01  0.10761790440E+02  0.51100000000E-03 0. -1.
        -11    1    3    3    0    0 -0.29372104617E+02  0.46781236751E+01  0.94308294807E+00  0.29757264264E+02  0.51100000000E-03 0.  1.
        -12    1    3    3    0    0 -0.43538950537E+01 -0.50694598165E+01 -0.28585232304E+01  0.72682171149E+01  0.00000000000E+00 0.  1.
</event>
<event>
 7    1  0.1427898E-010  0.4778727E+02  0.7816164E-02  0.1312668E+00
        -11   -1    0    0    0    0  0.00000000000E+00  0.00000000000E+00  0.45593999997E+02  0.45594000000E+02  0.51100000000E-03 0.  1.
         11   -1    0    0    0    0 -0.00000000000E+00 -0.00000000000E+00 -0.45593999997E+02  0.45594000000E+02  0.51100000000E-03 0. -1.
    9900012    2    1    2    0    0 -0.18276397338E+02 -0.28373311152E+01 -0.39262531443E+02  0.47787268176E+02  0.19999986923E+02 0.  0.
        -12    1    1    2    0    0  0.18276397338E+02  0.28373311152E+01  0.39262531443E+02  0.43400731824E+02  0.00000000000E+00 0.  1.
         11    1    3    3    0    0 -0.65942308642E+01 -0.57403581187E+01 -0.16144251080E+02  0.18359532543E+02  0.51100000000E-03 0. -1.
        -11    1    3    3    0    0 -0.11658640598E+02  0.47609375803E+01 -0.24197947986E+02  0.27278766728E+02  0.51100000000E-03 0.  1.
         12    1    3    3    0    0 -0.23525875740E-01 -0.18579105768E+01  0.10796676223E+01  0.21489689046E+01  0.00000000000E+00 0. -1.
</event>
<event>
 7    1  0.1427898E-010  0.4778727E+02  0.7816164E-02  0.1312668E+00
        -11   -1    0    0    0    0  0.00000000000E+00  0.00000000000E+00  0.45593999997E+02  0.45594000000E+02  0.51100000000E-03 0.  1.
         11   -1    0    0    0    0 -0.00000000000E+00 -0.00000000000E+00 -0.45593999997E+02  0.45594000000E+02  0.51100000000E-03 0. -1.
    9900012    2    1    2    0    0 -0.29600464460E+02 -0.38532602330E+01 -0.31505375060E+02  0.47787265348E+02  0.19999974029E+02 0.  0.
        -12    1    1    2    0    0  0.29600464460E+02  0.38532602330E+01  0.31505375060E+02  0.43400734652E+02  0.00000000000E+00 0.  1.
         11    1    3    3    0    0 -0.16685983157E+01 -0.12192663387E+01 -0.10267722295E+02  0.10473631278E+02  0.51100000000E-03 0. -1.
        -11    1    3    3    0    0 -0.13700933831E+02 -0.74222526924E+01 -0.94433816540E+01  0.18220397367E+02  0.51100000000E-03 0.  1.
        -12    1    3    3    0    0 -0.14230932313E+02  0.47882587982E+01 -0.11794271111E+02  0.19093236704E+02  0.00000000000E+00 0.  1.
</event>
<event>
 7    1  0.1427898E-010  0.4778727E+02  0.7816164E-02  0.1312668E+00
        -11   -1    0    0    0    0  0.00000000000E+00  0.00000000000E+00  0.45593999997E+02  0.45594000000E+02  0.51100000000E-03 0. -1.
         11   -1    0    0    0    0 -0.00000000000E+00 -0.00000000000E+00 -0.45593999997E+02  0.45594000000E+02  0.51100000000E-03 0.  1.
    9900012    2    1    2    0    0  0.34133884456E+02 -0.23253865627E+02  0.13332625588E+02  0.47787271437E+02  0.20000001792E+02 0.  0.
        -12    1    1    2    0    0 -0.34133884456E+02  0.23253865627E+02 -0.13332625588E+02  0.43400728563E+02  0.00000000000E+00 0.  1.
         11    1    3    3    0    0  0.96769478813E+01 -0.12035297398E+02  0.46687588021E+01  0.16133474913E+02  0.51100000000E-03 0. -1.
        -11    1    3    3    0    0  0.72425717062E+01 -0.69170417066E-01  0.84683444817E+01  0.11143270973E+02  0.51100000000E-03 0.  1.
         12    1    3    3    0    0  0.17214364869E+02 -0.11149397812E+02  0.19552230441E+00  0.20510525551E+02  0.00000000000E+00 0. -1.
</event>
<event>
 7    1  0.1427898E-010  0.4778727E+02  0.7816164E-02  0.1312668E+00
        -11   -1    0    0    0    0  0.00000000000E+00  0.00000000000E+00  0.45593999997E+02  0.45594000000E+02  0.51100000000E-03 0.  1.
         11   -1    0    0    0    0 -0.00000000000E+00 -0.00000000000E+00 -0.45593999997E+02  0.45594000000E+02  0.51100000000E-03 0. -1.
    9900012    2    1    2    0    0  0.18884726007E+02 -0.21619316298E+02 -0.32551433529E+02  0.47787267998E+02  0.19999986109E+02 0.  0.
        -12    1    1    2    0    0 -0.18884726007E+02  0.21619316298E+02  0.32551433529E+02  0.43400732002E+02  0.00000000000E+00 0.  1.
         11    1    3    3    0    0  0.43771441382E+01 -0.76986917349E+01 -0.11572283106E+02  0.14572130310E+02  0.51100000000E-03 0. -1.
        -11    1    3    3    0    0 -0.47866775807E+00 -0.47286153236E+00  0.23231308867E+01  0.24186066710E+01  0.51100000000E-03 0.  1.
         12    1    3    3    0    0  0.14986249626E+02 -0.13447763031E+02 -0.23302281310E+02  0.30796531016E+02  0.00000000000E+00 0. -1.
</event>
<event>
 7    1  0.1427898E-010  0.4778727E+02  0.7816164E-02  0.1312668E+00
        -11   -1    0    0    0    0  0.00000000000E+00  0.00000000000E+00  0.45593999997E+02  0.45594000000E+02  0.51100000000E-03 0. -1.
         11   -1    0    0    0    0 -0.00000000000E+00 -0.00000000000E+00 -0.45593999997E+02  0.45594000000E+02  0.51100000000E-03 0.  1.
    9900012    2    1    2    0    0 -0.42624095652E+02 -0.54888103574E+01  0.60566063621E+01  0.47787273625E+02  0.20000011765E+02 0.  0.
        -12    1    1    2    0    0  0.42624095652E+02  0.54888103574E+01 -0.60566063621E+01  0.43400726375E+02  0.00000000000E+00 0.  1.
         11    1    3    3    0    0 -0.35847268953E+02 -0.10373584117E+02  0.37366681471E+01  0.37504674747E+02  0.51100000000E-03 0. -1.
        -11    1    3    3    0    0 -0.57043641638E+01  0.39977755952E+01 -0.65671294082E+00  0.69966600868E+01  0.51100000000E-03 0.  1.
        -12    1    3    3    0    0 -0.10724625353E+01  0.88699816414E+00  0.29766511558E+01  0.32859387907E+01  0.00000000000E+00 0.  1.
</event>
<event>
 7    1  0.1427898E-010  0.4778727E+02  0.7816164E-02  0.1312668E+00
        -11   -1    0    0    0    0  0.00000000000E+00  0.00000000000E+00  0.45593999997E+02  0.45594000000E+02  0.51100000000E-03 0. -1.
         11   -1    0    0    0    0 -0.00000000000E+00 -0.00000000000E+00 -0.45593999997E+02  0.45594000000E+02  0.51100000000E-03 0.  1.
    9900012    2    1    2    0    0 -0.31673745801E+02 -0.20526099509E+02  0.21426078064E+02  0.47787265498E+02  0.19999974711E+02 0.  0.
        -12    1    1    2    0    0  0.31673745801E+02  0.20526099509E+02 -0.21426078064E+02  0.43400734502E+02  0.00000000000E+00 0.  1.
         11    1    3    3    0    0 -0.19098590053E+02 -0.87802198356E+01  0.27591033080E+01  0.21200496544E+02  0.51100000000E-03 0.  1.
        -11    1    3    3    0    0 -0.11851326129E+02 -0.62714775249E+01  0.13096515366E+02  0.18743107436E+02  0.51100000000E-03 0. -1.
        -12    1    3    3    0    0 -0.72382961923E+00 -0.54744021482E+01  0.55704593897E+01  0.78436615181E+01  0.00000000000E+00 0.  1.
</event>
<event>
 7    1  0.1427898E-010  0.4778728E+02  0.7816164E-02  0.1312668E+00
        -11   -1    0    0    0    0  0.00000000000E+00  0.00000000000E+00  0.45593999997E+02  0.45594000000E+02  0.51100000000E-03 0.  1.
         11   -1    0    0    0    0 -0.00000000000E+00 -0.00000000000E+00 -0.45593999997E+02  0.45594000000E+02  0.51100000000E-03 0. -1.
    9900012    2    1    2    0    0 -0.44503107499E+01 -0.30147239609E+02 -0.30902443674E+02  0.47787281724E+02  0.20000048694E+02 0.  0.
        -12    1    1    2    0    0  0.44503107499E+01  0.30147239609E+02  0.30902443674E+02  0.43400718276E+02  0.00000000000E+00 0.  1.
         11    1    3    3    0    0  0.23565571767E+01 -0.90279668593E+01 -0.34189553572E+01  0.99371426142E+01  0.51100000000E-03 0. -1.
        -11    1    3    3    0    0 -0.55215700591E+01 -0.85582995991E+00 -0.44338777728E+01  0.71329834714E+01  0.51100000000E-03 0.  1.
         12    1    3    3    0    0 -0.12852978674E+01 -0.20263442790E+02 -0.23049610544E+02  0.30717155639E+02  0.00000000000E+00 0. -1.
</event>
<event>
 7    1  0.1427898E-010  0.4778727E+02  0.7816164E-02  0.1312668E+00
        -11   -1    0    0    0    0  0.00000000000E+00  0.00000000000E+00  0.45593999997E+02  0.45594000000E+02  0.51100000000E-03 0. -1.
         11   -1    0    0    0    0 -0.00000000000E+00 -0.00000000000E+00 -0.45593999997E+02  0.45594000000E+02  0.51100000000E-03 0.  1.
    9900012    2    1    2    0    0 -0.70549328645E+01  0.25874677158E+02  0.34122606693E+02  0.47787270936E+02  0.19999999505E+02 0.  0.
        -12    1    1    2    0    0  0.70549328645E+01 -0.25874677158E+02 -0.34122606693E+02  0.43400729064E+02  0.00000000000E+00 0.  1.
         11    1    3    3    0    0 -0.96836786951E+01  0.16245064235E+02  0.12004540425E+02  0.22400552140E+02  0.51100000000E-03 0. -1.
        -11    1    3    3    0    0  0.29201990547E+01  0.32441317965E+01  0.31839685126E+01  0.54027409139E+01  0.51100000000E-03 0.  1.
         12    1    3    3    0    0 -0.29145322409E+00  0.63854811266E+01  0.18934097755E+02  0.19983977882E+02  0.00000000000E+00 0. -1.
</event>
<event>
 7    1  0.1427898E-010  0.4778727E+02  0.7816164E-02  0.1312668E+00
        -11   -1    0    0    0    0  0.00000000000E+00  0.00000000000E+00  0.45593999997E+02  0.45594000000E+02  0.51100000000E-03 0. -1.
         11   -1    0    0    0    0 -0.00000000000E+00 -0.00000000000E+00 -0.45593999997E+02  0.45594000000E+02  0.51100000000E-03 0.  1.
    9900012    2    1    2    0    0 -0.34456073124E+02 -0.26160071087E+02 -0.34717358346E+01  0.47787271388E+02  0.20000001565E+02 0.  0.
        -12    1    1    2    0    0  0.34456073124E+02  0.26160071087E+02  0.34717358346E+01  0.43400728612E+02  0.00000000000E+00 0.  1.
         11    1    3    3    0    0 -0.35344939379E+01 -0.73966096152E+01  0.14195196075E+01  0.83197065678E+01  0.51100000000E-03 0. -1.
        -11    1    3    3    0    0 -0.10155341199E+02 -0.30559405495E+01 -0.79453366279E+01  0.13251343400E+02  0.51100000000E-03 0.  1.
        -12    1    3    3    0    0 -0.20766237987E+02 -0.15707520922E+02  0.30540811858E+01  0.26216221420E+02  0.00000000000E+00 0.  1.
</event>
<event>
 7    1  0.1427898E-010  0.4778727E+02  0.7816164E-02  0.1312668E+00
        -11   -1    0    0    0    0  0.00000000000E+00  0.00000000000E+00  0.45593999997E+02  0.45594000000E+02  0.51100000000E-03 0.  1.
         11   -1    0    0    0    0 -0.00000000000E+00 -0.00000000000E+00 -0.45593999997E+02  0.45594000000E+02  0.51100000000E-03 0. -1.
    9900012    2    1    2    0    0  0.16770216558E+02 -0.65499019534E+01 -0.39490275070E+02  0.47787271848E+02  0.20000003666E+02 0.  0.
        -12    1    1    2    0    0 -0.16770216558E+02  0.65499019534E+01  0.39490275070E+02  0.43400728152E+02  0.00000000000E+00 0.  1.
         11    1    3    3    0    0  0.13386307929E+02 -0.10000483637E+02 -0.34000041319E+02  0.37884109108E+02  0.51100000000E-03 0. -1.
        -11    1    3    3    0    0  0.49214743807E+01  0.63421897768E+00 -0.26901627501E+01  0.56444769177E+01  0.51100000000E-03 0.  1.
         12    1    3    3    0    0 -0.15375657511E+01  0.28163627060E+01 -0.28000710003E+01  0.42586858228E+01  0.00000000000E+00 0. -1.
</event>
<event>
 7    1  0.1427898E-010  0.4778727E+02  0.7816164E-02  0.1312668E+00
        -11   -1    0    0    0    0  0.00000000000E+00  0.00000000000E+00  0.45593999997E+02  0.45594000000E+02  0.51100000000E-03 0. -1.
         11   -1    0    0    0    0 -0.00000000000E+00 -0.00000000000E+00 -0.45593999997E+02  0.45594000000E+02  0.51100000000E-03 0.  1.
    9900012    2    1    2    0    0 -0.69257887934E+01 -0.41095763689E+02  0.12115917198E+02  0.47787265062E+02  0.19999972724E+02 0.  0.
        -12    1    1    2    0    0  0.69257887934E+01  0.41095763689E+02 -0.12115917198E+02  0.43400734938E+02  0.00000000000E+00 0.  1.
         11    1    3    3    0    0 -0.49183828360E+00 -0.27446493391E+02  0.36682339813E+01  0.27694906484E+02  0.51100000000E-03 0. -1.
        -11    1    3    3    0    0 -0.78211047894E+01 -0.85215967880E+01  0.19999279380E+01  0.11738270910E+02  0.51100000000E-03 0.  1.
        -12    1    3    3    0    0  0.13871542797E+01 -0.51276735102E+01  0.64477552790E+01  0.83540876678E+01  0.00000000000E+00 0.  1.
</event>
<event>
 7    1  0.1456871E-010  0.4778727E+02  0.7816164E-02  0.1312668E+00
        -11   -1    0    0    0    0  0.00000000000E+00  0.00000000000E+00  0.45593999997E+02  0.45594000000E+02  0.51100000000E-03 0.  1.
         11   -1    0    0    0    0 -0.00000000000E+00 -0.00000000000E+00 -0.45593999997E+02  0.45594000000E+02  0.51100000000E-03 0. -1.
    9900012    2    1    2    0    0 -0.23361224550E+02 -0.23247122532E+02 -0.28239117199E+02  0.47787271219E+02  0.20000000796E+02 0.  0.
        -12    1    1    2    0    0  0.23361224550E+02  0.23247122532E+02  0.28239117199E+02  0.43400728781E+02  0.00000000000E+00 0.  1.
         11    1    3    3    0    0 -0.16776567349E+02 -0.13311602959E+02 -0.25005955996E+02  0.32923393217E+02  0.51100000000E-03 0. -1.
        -11    1    3    3    0    0  0.15388597410E+01 -0.31780728947E+01 -0.23895349484E+01  0.42635799696E+01  0.51100000000E-03 0.  1.
         12    1    3    3    0    0 -0.81235169421E+01 -0.67574466788E+01 -0.84362625473E+00  0.10600298033E+02  0.00000000000E+00 0. -1.
</event>
<event>
 7    1  0.1427898E-010  0.4778727E+02  0.7816164E-02  0.1312668E+00
        -11   -1    0    0    0    0  0.00000000000E+00  0.00000000000E+00  0.45593999997E+02  0.45594000000E+02  0.51100000000E-03 0.  1.
         11   -1    0    0    0    0 -0.00000000000E+00 -0.00000000000E+00 -0.45593999997E+02  0.45594000000E+02  0.51100000000E-03 0. -1.
    9900012    2    1    2    0    0  0.41834631796E+02  0.29200972949E+01  0.11178537898E+02  0.47787273102E+02  0.20000009382E+02 0.  0.
        -12    1    1    2    0    0 -0.41834631796E+02 -0.29200972949E+01 -0.11178537898E+02  0.43400726898E+02  0.00000000000E+00 0.  1.
         11    1    3    3    0    0  0.19215258645E+02  0.35964916786E-04 -0.31348605140E+01  0.19469296738E+02  0.51100000000E-03 0. -1.
        -11    1    3    3    0    0  0.17894146178E+01  0.27273803354E+01  0.37220672696E+01  0.49491810625E+01  0.51100000000E-03 0.  1.
        -12    1    3    3    0    0  0.20829958534E+02  0.19268099458E+00  0.10591331142E+02  0.23368795301E+02  0.00000000000E+00 0.  1.
</event>
<event>
 7    1  0.1427898E-010  0.4778727E+02  0.7816164E-02  0.1312668E+00
        -11   -1    0    0    0    0  0.00000000000E+00  0.00000000000E+00  0.45593999997E+02  0.45594000000E+02  0.51100000000E-03 0.  1.
         11   -1    0    0    0    0 -0.00000000000E+00 -0.00000000000E+00 -0.45593999997E+02  0.45594000000E+02  0.51100000000E-03 0. -1.
    9900012    2    1    2    0    0  0.29525677060E+02  0.17374304393E+02 -0.26645660492E+02  0.47787270951E+02  0.19999999572E+02 0.  0.
        -12    1    1    2    0    0 -0.29525677060E+02 -0.17374304393E+02  0.26645660492E+02  0.43400729049E+02  0.00000000000E+00 0.  1.
         11    1    3    3    0    0  0.15361245836E+01  0.46203408946E+01  0.14064797926E+00  0.48710379627E+01  0.51100000000E-03 0.  1.
        -11    1    3    3    0    0  0.24352646131E+02  0.13623873215E+02 -0.17582872490E+02  0.32982096662E+02  0.51100000000E-03 0. -1.
         12    1    3    3    0    0  0.36369063448E+01 -0.86990971654E+00 -0.92034359815E+01  0.99341363259E+01  0.00000000000E+00 0. -1.
</event>
<event>
 7    1  0.1427898E-010  0.4778727E+02  0.7816164E-02  0.1312668E+00
        -11   -1    0    0    0    0  0.00000000000E+00  0.00000000000E+00  0.45593999997E+02  0.45594000000E+02  0.51100000000E-03 0.  1.
         11   -1    0    0    0    0 -0.00000000000E+00 -0.00000000000E+00 -0.45593999997E+02  0.45594000000E+02  0.51100000000E-03 0. -1.
    9900012    2    1    2    0    0 -0.14696903269E+02 -0.26155977418E+02 -0.31360628766E+02  0.47787272391E+02  0.20000006140E+02 0.  0.
        -12    1    1    2    0    0  0.14696903269E+02  0.26155977418E+02  0.31360628766E+02  0.43400727609E+02  0.00000000000E+00 0.  1.
         11    1    3    3    0    0 -0.29598555630E+01 -0.10761866822E+02 -0.12667503669E+02  0.16883251225E+02  0.51100000000E-03 0. -1.
        -11    1    3    3    0    0  0.19763187449E+00 -0.76664906959E-01  0.22985892886E+01  0.23083433117E+01  0.51100000000E-03 0.  1.
         12    1    3    3    0    0 -0.11934679580E+02 -0.15317445689E+02 -0.20991714386E+02  0.28595677855E+02  0.00000000000E+00 0. -1.
</event>
<event>
 7    1  0.1427898E-010  0.4778728E+02  0.7816164E-02  0.1312668E+00
        -11   -1    0    0    0    0  0.00000000000E+00  0.00000000000E+00  0.45593999997E+02  0.45594000000E+02  0.51100000000E-03 0.  1.
         11   -1    0    0    0    0 -0.00000000000E+00 -0.00000000000E+00 -0.45593999997E+02  0.45594000000E+02  0.51100000000E-03 0. -1.
    9900012    2    1    2    0    0  0.36184364678E+02 -0.42792781231E+00  0.23961027201E+02  0.47787283487E+02  0.20000056731E+02 0.  0.
        -12    1    1    2    0    0 -0.36184364678E+02  0.42792781231E+00 -0.23961027201E+02  0.43400716513E+02  0.00000000000E+00 0.  1.
         11    1    3    3    0    0  0.40970493549E+01  0.46421009346E+00  0.86257179963E+01  0.95605604250E+01  0.51100000000E-03 0. -1.
        -11    1    3    3    0    0  0.12738554331E+02  0.46348208423E+01  0.11449309549E+01  0.13603793509E+02  0.51100000000E-03 0.  1.
         12    1    3    3    0    0  0.19348760992E+02 -0.55269587481E+01  0.14190378249E+02  0.24622929553E+02  0.00000000000E+00 0. -1.
</event>
<event>
 7    1  0.1427898E-010  0.4778727E+02  0.7816164E-02  0.1312668E+00
        -11   -1    0    0    0    0  0.00000000000E+00  0.00000000000E+00  0.45593999997E+02  0.45594000000E+02  0.51100000000E-03 0.  1.
         11   -1    0    0    0    0 -0.00000000000E+00 -0.00000000000E+00 -0.45593999997E+02  0.45594000000E+02  0.51100000000E-03 0. -1.
    9900012    2    1    2    0    0  0.29613176123E+02 -0.23301330969E+02 -0.21534415153E+02  0.47787271193E+02  0.20000000676E+02 0.  0.
        -12    1    1    2    0    0 -0.29613176123E+02  0.23301330969E+02  0.21534415153E+02  0.43400728807E+02  0.00000000000E+00 0.  1.
         11    1    3    3    0    0  0.74068616659E+01 -0.93331192144E+01 -0.75232419779E+01  0.14091411715E+02  0.51100000000E-03 0. -1.
        -11    1    3    3    0    0  0.30921655005E+01 -0.64784255611E+01 -0.10724434643E+02  0.12905230874E+02  0.51100000000E-03 0.  1.
        -12    1    3    3    0    0  0.19114148957E+02 -0.74897861939E+01 -0.32867385322E+01  0.20790628604E+02  0.00000000000E+00 0.  1.
</event>
<event>
 7    1  0.1427898E-010  0.4778727E+02  0.7816164E-02  0.1312668E+00
        -11   -1    0    0    0    0  0.00000000000E+00  0.00000000000E+00  0.45593999997E+02  0.45594000000E+02  0.51100000000E-03 0. -1.
         11   -1    0    0    0    0 -0.00000000000E+00 -0.00000000000E+00 -0.45593999997E+02  0.45594000000E+02  0.51100000000E-03 0.  1.
    9900012    2    1    2    0    0 -0.17250717201E+02  0.38971982875E+02  0.81988220893E+01  0.47787269859E+02  0.19999994594E+02 0.  0.
        -12    1    1    2    0    0  0.17250717201E+02 -0.38971982875E+02 -0.81988220893E+01  0.43400730141E+02  0.00000000000E+00 0.  1.
         11    1    3    3    0    0 -0.20223563388E+02  0.26971720567E+02  0.85849850948E+01  0.34787471822E+02  0.51100000000E-03 0. -1.
        -11    1    3    3    0    0  0.79807220277E-01  0.33837148343E+01 -0.17475125853E+01  0.38091594570E+01  0.51100000000E-03 0.  1.
         12    1    3    3    0    0  0.28930389662E+01  0.86165474733E+01  0.13613495798E+01  0.91906385794E+01  0.00000000000E+00 0. -1.
</event>
<event>
 7    1  0.1427898E-010  0.4778727E+02  0.7816164E-02  0.1312668E+00
        -11   -1    0    0    0    0  0.00000000000E+00  0.00000000000E+00  0.45593999997E+02  0.45594000000E+02  0.51100000000E-03 0. -1.
         11   -1    0    0    0    0 -0.00000000000E+00 -0.00000000000E+00 -0.45593999997E+02  0.45594000000E+02  0.51100000000E-03 0.  1.
    9900012    2    1    2    0    0 -0.34336405234E+01 -0.19446157514E+02  0.38648159536E+02  0.47787272301E+02  0.20000005729E+02 0.  0.
        -12    1    1    2    0    0  0.34336405234E+01  0.19446157514E+02 -0.38648159536E+02  0.43400727699E+02  0.00000000000E+00 0.  1.
         11    1    3    3    0    0 -0.29625796269E+01 -0.51336447897E+01  0.13248940480E+02  0.14514324338E+02  0.51100000000E-03 0. -1.
        -11    1    3    3    0    0  0.38053263413E+01  0.91627490037E+00  0.75054317226E+00  0.39853962879E+01  0.51100000000E-03 0.  1.
         12    1    3    3    0    0 -0.42763872378E+01 -0.15228787625E+02  0.24648675883E+02  0.29287551675E+02  0.00000000000E+00 0. -1.
</event>
<event>
 7    1  0.1427898E-010  0.4778726E+02  0.7816164E-02  0.1312668E+00
        -11   -1    0    0    0    0  0.00000000000E+00  0.00000000000E+00  0.45593999997E+02  0.45594000000E+02  0.51100000000E-03 0.  1.
         11   -1    0    0    0    0 -0.00000000000E+00 -0.00000000000E+00 -0.45593999997E+02  0.45594000000E+02  0.51100000000E-03 0. -1.
    9900012    2    1    2    0    0 -0.75865585219E+01  0.15733453688E+02 -0.39730673297E+02  0.47787264571E+02  0.19999970483E+02 0.  0.
        -12    1    1    2    0    0  0.75865585219E+01 -0.15733453688E+02  0.39730673297E+02  0.43400735429E+02  0.00000000000E+00 0.  1.
         11    1    3    3    0    0  0.18337479467E+01  0.81360678826E+01 -0.90680273129E+01  0.12320200962E+02  0.51100000000E-03 0.  1.
        -11    1    3    3    0    0 -0.81608397554E+01  0.99820985457E+01 -0.30053127553E+02  0.32702172296E+02  0.51100000000E-03 0. -1.
         12    1    3    3    0    0 -0.12594667133E+01 -0.23847127404E+01 -0.60951843157E+00  0.27648913133E+01  0.00000000000E+00 0. -1.
</event>
<event>
 7    1  0.1427898E-010  0.4778727E+02  0.7816164E-02  0.1312668E+00
        -11   -1    0    0    0    0  0.00000000000E+00  0.00000000000E+00  0.45593999997E+02  0.45594000000E+02  0.51100000000E-03 0. -1.
         11   -1    0    0    0    0 -0.00000000000E+00 -0.00000000000E+00 -0.45593999997E+02  0.45594000000E+02  0.51100000000E-03 0.  1.
    9900012    2    1    2    0    0 -0.24642479875E+01  0.26894104008E+02  0.33974369911E+02  0.47787272363E+02  0.20000006012E+02 0.  0.
        -12    1    1    2    0    0  0.24642479875E+01 -0.26894104008E+02 -0.33974369911E+02  0.43400727637E+02  0.00000000000E+00 0.  1.
         11    1    3    3    0    0 -0.46783984583E+01  0.15722686625E+01  0.88842718334E+01  0.10163155374E+02  0.51100000000E-03 0. -1.
        -11    1    3    3    0    0  0.17185175951E+01  0.90833593539E+01  0.21115931156E+01  0.94825917145E+01  0.51100000000E-03 0.  1.
        -12    1    3    3    0    0  0.49563287576E+00  0.16238475992E+02  0.22978504962E+02  0.28141525275E+02  0.00000000000E+00 0.  1.
</event>
<event>
 7    1  0.1427898E-010  0.4778726E+02  0.7816164E-02  0.1312668E+00
        -11   -1    0    0    0    0  0.00000000000E+00  0.00000000000E+00  0.45593999997E+02  0.45594000000E+02  0.51100000000E-03 0.  1.
         11   -1    0    0    0    0 -0.00000000000E+00 -0.00000000000E+00 -0.45593999997E+02  0.45594000000E+02  0.51100000000E-03 0. -1.
    9900012    2    1    2    0    0 -0.13489743597E+02 -0.38757673486E+01 -0.41068599149E+02  0.47787255872E+02  0.19999930821E+02 0.  0.
        -12    1    1    2    0    0  0.13489743597E+02  0.38757673486E+01  0.41068599149E+02  0.43400744128E+02  0.00000000000E+00 0.  1.
         11    1    3    3    0    0  0.32490336875E+01  0.58981353737E+00 -0.84203517498E+01  0.90446903630E+01  0.51100000000E-03 0. -1.
        -11    1    3    3    0    0 -0.97053881095E+01 -0.28287518706E+01 -0.28877827680E+02  0.30596165239E+02  0.51100000000E-03 0.  1.
        -12    1    3    3    0    0 -0.70333891745E+01 -0.16368290154E+01 -0.37704197187E+01  0.81464002701E+01  0.00000000000E+00 0.  1.
</event>
<event>
 7    1  0.1427898E-010  0.4778727E+02  0.7816164E-02  0.1312668E+00
        -11   -1    0    0    0    0  0.00000000000E+00  0.00000000000E+00  0.45593999997E+02  0.45594000000E+02  0.51100000000E-03 0. -1.
         11   -1    0    0    0    0 -0.00000000000E+00 -0.00000000000E+00 -0.45593999997E+02  0.45594000000E+02  0.51100000000E-03 0.  1.
    9900012    2    1    2    0    0  0.18182898759E+02 -0.37610297273E+02  0.11767383699E+02  0.47787267433E+02  0.19999983535E+02 0.  0.
        -12    1    1    2    0    0 -0.18182898759E+02  0.37610297273E+02 -0.11767383699E+02  0.43400732567E+02  0.00000000000E+00 0.  1.
         11    1    3    3    0    0  0.11956097558E+02 -0.13637926081E+02  0.54749388101E+00  0.18145000591E+02  0.51100000000E-03 0. -1.
        -11    1    3    3    0    0  0.14637685959E+01  0.95385357366E+00 -0.30005818182E+00  0.17727070587E+01  0.51100000000E-03 0.  1.
         12    1    3    3    0    0  0.47630326051E+01 -0.24926224765E+02  0.11519948000E+02  0.27869559784E+02  0.00000000000E+00 0. -1.
</event>
<event>
 7    1  0.1427898E-010  0.4778727E+02  0.7816164E-02  0.1312668E+00
        -11   -1    0    0    0    0  0.00000000000E+00  0.00000000000E+00  0.45593999997E+02  0.45594000000E+02  0.51100000000E-03 0. -1.
         11   -1    0    0    0    0 -0.00000000000E+00 -0.00000000000E+00 -0.45593999997E+02  0.45594000000E+02  0.51100000000E-03 0.  1.
    9900012    2    1    2    0    0 -0.29672324121E+02 -0.48347216245E+01  0.31301794353E+02  0.47787266346E+02  0.19999978580E+02 0.  0.
        -12    1    1    2    0    0  0.29672324121E+02  0.48347216245E+01 -0.31301794353E+02  0.43400733654E+02  0.00000000000E+00 0.  1.
         11    1    3    3    0    0  0.11454373982E+01 -0.11107088552E+01 -0.14488349495E-01  0.15955911655E+01  0.51100000000E-03 0. -1.
        -11    1    3    3    0    0 -0.63272981482E+00  0.85688967115E+00 -0.11892203332E+01  0.15965125083E+01  0.51100000000E-03 0.  1.
         12    1    3    3    0    0 -0.30185031705E+02 -0.45809024405E+01  0.32505503036E+02  0.44595162673E+02  0.00000000000E+00 0. -1.
</event>
<event>
 7    1  0.1427898E-010  0.4778727E+02  0.7816164E-02  0.1312668E+00
        -11   -1    0    0    0    0  0.00000000000E+00  0.00000000000E+00  0.45593999997E+02  0.45594000000E+02  0.51100000000E-03 0.  1.
         11   -1    0    0    0    0 -0.00000000000E+00 -0.00000000000E+00 -0.45593999997E+02  0.45594000000E+02  0.51100000000E-03 0. -1.
    9900012    2    1    2    0    0  0.37214954438E+02 -0.18483825961E+02  0.12530697717E+02  0.47787273724E+02  0.20000012219E+02 0.  0.
        -12    1    1    2    0    0 -0.37214954438E+02  0.18483825961E+02 -0.12530697717E+02  0.43400726276E+02  0.00000000000E+00 0.  1.
         11    1    3    3    0    0  0.27181293334E+02 -0.18204458817E+02  0.11004098227E+02  0.34515434318E+02  0.51100000000E-03 0. -1.
        -11    1    3    3    0    0 -0.93281701139E+00 -0.16036217707E+01  0.12220056290E+01  0.22214968779E+01  0.51100000000E-03 0.  1.
        -12    1    3    3    0    0  0.10966478115E+02  0.13242546269E+01  0.30459386165E+00  0.11050342528E+02  0.00000000000E+00 0.  1.
</event>
<event>
 7    1  0.1427898E-010  0.4778724E+02  0.7816164E-02  0.1312668E+00
        -11   -1    0    0    0    0  0.00000000000E+00  0.00000000000E+00  0.45593999997E+02  0.45594000000E+02  0.51100000000E-03 0.  1.
         11   -1    0    0    0    0 -0.00000000000E+00 -0.00000000000E+00 -0.45593999997E+02  0.45594000000E+02  0.51100000000E-03 0. -1.
    9900012    2    1    2    0    0  0.34167667081E+02  0.10914918837E+02 -0.24434833814E+02  0.47787239287E+02  0.19999855205E+02 0.  0.
        -12    1    1    2    0    0 -0.34167667081E+02 -0.10914918837E+02  0.24434833814E+02  0.43400760713E+02  0.00000000000E+00 0.  1.
         11    1    3    3    0    0  0.10592309394E+01 -0.16239936514E+01 -0.34433923395E+01  0.39517434921E+01  0.51100000000E-03 0. -1.
        -11    1    3    3    0    0  0.16297460658E+02  0.97308255146E+01 -0.32937252355E+01  0.19265119135E+02  0.51100000000E-03 0.  1.
        -12    1    3    3    0    0  0.16810975483E+02  0.28080869741E+01 -0.17697716238E+02  0.24570376660E+02  0.00000000000E+00 0.  1.
</event>
<event>
 7    1  0.1427898E-010  0.4778727E+02  0.7816164E-02  0.1312668E+00
        -11   -1    0    0    0    0  0.00000000000E+00  0.00000000000E+00  0.45593999997E+02  0.45594000000E+02  0.51100000000E-03 0.  1.
         11   -1    0    0    0    0 -0.00000000000E+00 -0.00000000000E+00 -0.45593999997E+02  0.45594000000E+02  0.51100000000E-03 0. -1.
    9900012    2    1    2    0    0 -0.20208236732E+02  0.32547677775E+02 -0.20393600769E+02  0.47787272901E+02  0.20000008466E+02 0.  0.
        -12    1    1    2    0    0  0.20208236732E+02 -0.32547677775E+02  0.20393600769E+02  0.43400727099E+02  0.00000000000E+00 0.  1.
         11    1    3    3    0    0 -0.15569668111E+02  0.20753374623E+02 -0.15588900484E+02  0.30267655045E+02  0.51100000000E-03 0. -1.
        -11    1    3    3    0    0 -0.67747155250E+01  0.33122210377E+01 -0.23281198413E-02  0.75410598943E+01  0.51100000000E-03 0.  1.
        -12    1    3    3    0    0  0.21361469042E+01  0.84820821142E+01 -0.48023721650E+01  0.99785579620E+01  0.00000000000E+00 0.  1.
</event>
<event>
 7    1  0.1427898E-010  0.4778732E+02  0.7816164E-02  0.1312668E+00
        -11   -1    0    0    0    0  0.00000000000E+00  0.00000000000E+00  0.45593999997E+02  0.45594000000E+02  0.51100000000E-03 0.  1.
         11   -1    0    0    0    0 -0.00000000000E+00 -0.00000000000E+00 -0.45593999997E+02  0.45594000000E+02  0.51100000000E-03 0. -1.
    9900012    2    1    2    0    0  0.97070601947E+01 -0.35796271242E+02 -0.22539267055E+02  0.47787324754E+02  0.20000244883E+02 0.  0.
        -12    1    1    2    0    0 -0.97070601947E+01  0.35796271242E+02  0.22539267055E+02  0.43400675246E+02  0.00000000000E+00 0.  1.
         11    1    3    3    0    0  0.53413263981E+01 -0.18422109546E+02 -0.42160343525E+01  0.19638707538E+02  0.51100000000E-03 0. -1.
        -11    1    3    3    0    0  0.73615637091E+01 -0.58838026338E+01 -0.92436283630E+01  0.13200621927E+02  0.51100000000E-03 0.  1.
         12    1    3    3    0    0 -0.29958299125E+01 -0.11490359062E+02 -0.90796043393E+01  0.14947995290E+02  0.00000000000E+00 0. -1.
</event>
<event>
 7    1  0.1427898E-010  0.4778726E+02  0.7816164E-02  0.1312668E+00
        -11   -1    0    0    0    0  0.00000000000E+00  0.00000000000E+00  0.45593999997E+02  0.45594000000E+02  0.51100000000E-03 0.  1.
         11   -1    0    0    0    0 -0.00000000000E+00 -0.00000000000E+00 -0.45593999997E+02  0.45594000000E+02  0.51100000000E-03 0. -1.
    9900012    2    1    2    0    0 -0.32500437197E+02  0.68196940499E+01 -0.27943468508E+02  0.47787261789E+02  0.19999957802E+02 0.  0.
        -12    1    1    2    0    0  0.32500437197E+02 -0.68196940499E+01  0.27943468508E+02  0.43400738211E+02  0.00000000000E+00 0.  1.
         11    1    3    3    0    0 -0.12783696484E+02  0.10093508208E+02 -0.20756926080E+02  0.26384688444E+02  0.51100000000E-03 0. -1.
        -11    1    3    3    0    0 -0.62338558823E+01 -0.18015622385E+01 -0.13034418852E+01  0.66185758793E+01  0.51100000000E-03 0.  1.
         12    1    3    3    0    0 -0.13482884831E+02 -0.14722519191E+01 -0.58831005431E+01  0.14783997466E+02  0.00000000000E+00 0. -1.
</event>
<event>
 7    1  0.1427898E-010  0.4778727E+02  0.7816164E-02  0.1312668E+00
        -11   -1    0    0    0    0  0.00000000000E+00  0.00000000000E+00  0.45593999997E+02  0.45594000000E+02  0.51100000000E-03 0. -1.
         11   -1    0    0    0    0 -0.00000000000E+00 -0.00000000000E+00 -0.45593999997E+02  0.45594000000E+02  0.51100000000E-03 0.  1.
    9900012    2    1    2    0    0 -0.68336887093E+01  0.42806808057E+02  0.21216031289E+01  0.47787270545E+02  0.19999997722E+02 0.  0.
        -12    1    1    2    0    0  0.68336887093E+01 -0.42806808057E+02 -0.21216031289E+01  0.43400729455E+02  0.00000000000E+00 0.  1.
         11    1    3    3    0    0  0.10022288766E+01  0.51472995112E+01 -0.45248037905E+01  0.69262547299E+01  0.51100000000E-03 0. -1.
        -11    1    3    3    0    0 -0.26625577705E+01  0.17971720431E+01  0.30834174978E+01  0.44526963697E+01  0.51100000000E-03 0.  1.
         12    1    3    3    0    0 -0.51733598153E+01  0.35862336503E+02  0.35629894216E+01  0.36408319445E+02  0.00000000000E+00 0. -1.
</event>
<event>
 7    1  0.1427898E-010  0.4778727E+02  0.7816164E-02  0.1312668E+00
        -11   -1    0    0    0    0  0.00000000000E+00  0.00000000000E+00  0.45593999997E+02  0.45594000000E+02  0.51100000000E-03 0.  1.
         11   -1    0    0    0    0 -0.00000000000E+00 -0.00000000000E+00 -0.45593999997E+02  0.45594000000E+02  0.51100000000E-03 0. -1.
    9900012    2    1    2    0    0  0.95162887158E+01 -0.40384804955E+01 -0.42151560446E+02  0.47787272775E+02  0.20000007892E+02 0.  0.
        -12    1    1    2    0    0 -0.95162887158E+01  0.40384804955E+01  0.42151560446E+02  0.43400727225E+02  0.00000000000E+00 0.  1.
         11    1    3    3    0    0  0.14184823207E+01 -0.66308767315E+00 -0.20270186023E+02  0.20330573505E+02  0.51100000000E-03 0. -1.
        -11    1    3    3    0    0 -0.18737845842E+01  0.12672138623E+01  0.67561818281E+00  0.23607964400E+01  0.51100000000E-03 0.  1.
        -12    1    3    3    0    0  0.99715909793E+01 -0.46426066847E+01 -0.22556992605E+02  0.25095902831E+02  0.00000000000E+00 0.  1.
</event>
<event>
 7    1  0.1427898E-010  0.4778727E+02  0.7816164E-02  0.1312668E+00
        -11   -1    0    0    0    0  0.00000000000E+00  0.00000000000E+00  0.45593999997E+02  0.45594000000E+02  0.51100000000E-03 0.  1.
         11   -1    0    0    0    0 -0.00000000000E+00 -0.00000000000E+00 -0.45593999997E+02  0.45594000000E+02  0.51100000000E-03 0. -1.
    9900012    2    1    2    0    0 -0.27015907043E+02 -0.33363396000E+02 -0.63755749108E+01  0.47787269806E+02  0.19999994352E+02 0.  0.
        -12    1    1    2    0    0  0.27015907043E+02  0.33363396000E+02  0.63755749108E+01  0.43400730194E+02  0.00000000000E+00 0.  1.
         11    1    3    3    0    0 -0.25149874885E+02 -0.17298495695E+02 -0.36585881726E+01  0.30743120007E+02  0.51100000000E-03 0.  1.
        -11    1    3    3    0    0 -0.34340279441E+01 -0.11046662004E+02 -0.18021872132E+01  0.11707654264E+02  0.51100000000E-03 0. -1.
         12    1    3    3    0    0  0.15679957866E+01 -0.50182383002E+01 -0.91479952503E+00  0.53364955351E+01  0.00000000000E+00 0. -1.
</event>
<event>
 7    1  0.1427898E-010  0.4778728E+02  0.7816164E-02  0.1312668E+00
        -11   -1    0    0    0    0  0.00000000000E+00  0.00000000000E+00  0.45593999997E+02  0.45594000000E+02  0.51100000000E-03 0. -1.
         11   -1    0    0    0    0 -0.00000000000E+00 -0.00000000000E+00 -0.45593999997E+02  0.45594000000E+02  0.51100000000E-03 0.  1.
    9900012    2    1    2    0    0 -0.25732013134E+02 -0.18484487386E+02  0.29661592050E+02  0.47787276310E+02  0.20000024006E+02 0.  0.
        -12    1    1    2    0    0  0.25732013134E+02  0.18484487386E+02 -0.29661592050E+02  0.43400723690E+02  0.00000000000E+00 0.  1.
         11    1    3    3    0    0  0.18900906227E+01 -0.38139986030E+01  0.43511445111E+01  0.60869932416E+01  0.51100000000E-03 0. -1.
        -11    1    3    3    0    0 -0.14763208987E+02 -0.78919642907E+01  0.20328577744E+02  0.26334132097E+02  0.51100000000E-03 0.  1.
        -12    1    3    3    0    0 -0.12858894770E+02 -0.67785244924E+01  0.49818697953E+01  0.15366150971E+02  0.00000000000E+00 0.  1.
</event>
<event>
 7    1  0.1427898E-010  0.4778727E+02  0.7816164E-02  0.1312668E+00
        -11   -1    0    0    0    0  0.00000000000E+00  0.00000000000E+00  0.45593999997E+02  0.45594000000E+02  0.51100000000E-03 0. -1.
         11   -1    0    0    0    0 -0.00000000000E+00 -0.00000000000E+00 -0.45593999997E+02  0.45594000000E+02  0.51100000000E-03 0.  1.
    9900012    2    1    2    0    0 -0.97469432369E+01 -0.40066151047E+02  0.13539719410E+02  0.47787270008E+02  0.19999995272E+02 0.  0.
        -12    1    1    2    0    0  0.97469432369E+01  0.40066151047E+02 -0.13539719410E+02  0.43400729992E+02  0.00000000000E+00 0.  1.
         11    1    3    3    0    0 -0.19715598493E+01 -0.73826626043E+01  0.47557983970E+01  0.90004652114E+01  0.51100000000E-03 0. -1.
        -11    1    3    3    0    0 -0.48006492834E+01 -0.69273962573E+01  0.96914139970E+01  0.12843619349E+02  0.51100000000E-03 0.  1.
         12    1    3    3    0    0 -0.29747341042E+01 -0.25756092185E+02 -0.90749298408E+00  0.25943185448E+02  0.00000000000E+00 0. -1.
</event>
<event>
 7    1  0.1427898E-010  0.4778727E+02  0.7816164E-02  0.1312668E+00
        -11   -1    0    0    0    0  0.00000000000E+00  0.00000000000E+00  0.45593999997E+02  0.45594000000E+02  0.51100000000E-03 0.  1.
         11   -1    0    0    0    0 -0.00000000000E+00 -0.00000000000E+00 -0.45593999997E+02  0.45594000000E+02  0.51100000000E-03 0. -1.
    9900012    2    1    2    0    0  0.35203093351E+02  0.79482213549E+01 -0.24107906727E+02  0.47787272231E+02  0.20000005408E+02 0.  0.
        -12    1    1    2    0    0 -0.35203093351E+02 -0.79482213549E+01  0.24107906727E+02  0.43400727769E+02  0.00000000000E+00 0.  1.
         11    1    3    3    0    0 -0.14361042459E+00 -0.27857888352E+01 -0.22311591547E+01  0.35720183122E+01  0.51100000000E-03 0. -1.
        -11    1    3    3    0    0  0.19878847470E+02  0.34124802212E+01 -0.64517375232E+01  0.21176366906E+02  0.51100000000E-03 0.  1.
        -12    1    3    3    0    0  0.15467856305E+02  0.73215299689E+01 -0.15425010049E+02  0.23038887012E+02  0.00000000000E+00 0.  1.
</event>
<event>
 7    1  0.1427898E-010  0.4778728E+02  0.7816164E-02  0.1312668E+00
        -11   -1    0    0    0    0  0.00000000000E+00  0.00000000000E+00  0.45593999997E+02  0.45594000000E+02  0.51100000000E-03 0. -1.
         11   -1    0    0    0    0 -0.00000000000E+00 -0.00000000000E+00 -0.45593999997E+02  0.45594000000E+02  0.51100000000E-03 0.  1.
    9900012    2    1    2    0    0 -0.31448733774E+02  0.27212335782E+02  0.12413228896E+02  0.47787281961E+02  0.20000049772E+02 0.  0.
        -12    1    1    2    0    0  0.31448733774E+02 -0.27212335782E+02 -0.12413228896E+02  0.43400718039E+02  0.00000000000E+00 0.  1.
         11    1    3    3    0    0 -0.12280393076E+02  0.21643911210E+02  0.69057448837E+01  0.25825496302E+02  0.51100000000E-03 0. -1.
        -11    1    3    3    0    0 -0.13733773958E+02  0.63160053886E+01  0.63788628294E+01  0.16407265538E+02  0.51100000000E-03 0.  1.
        -12    1    3    3    0    0 -0.54345667398E+01 -0.74758081685E+00 -0.87137881687E+00  0.55545201206E+01  0.00000000000E+00 0.  1.
</event>
<event>
 7    1  0.1427898E-010  0.4778728E+02  0.7816164E-02  0.1312668E+00
        -11   -1    0    0    0    0  0.00000000000E+00  0.00000000000E+00  0.45593999997E+02  0.45594000000E+02  0.51100000000E-03 0.  1.
         11   -1    0    0    0    0 -0.00000000000E+00 -0.00000000000E+00 -0.45593999997E+02  0.45594000000E+02  0.51100000000E-03 0. -1.
    9900012    2    1    2    0    0  0.23970572168E+02  0.78499353007E+00 -0.36172061191E+02  0.47787279318E+02  0.20000037723E+02 0.  0.
        -12    1    1    2    0    0 -0.23970572168E+02 -0.78499353007E+00  0.36172061191E+02  0.43400720682E+02  0.00000000000E+00 0.  1.
         11    1    3    3    0    0  0.35844716798E+01 -0.41578252505E+01 -0.16150572055E+02  0.17058045785E+02  0.51100000000E-03 0. -1.
        -11    1    3    3    0    0  0.80875496712E+01  0.67605403133E+01 -0.11809932894E+02  0.15829967790E+02  0.51100000000E-03 0.  1.
        -12    1    3    3    0    0  0.12298550817E+02 -0.18177215327E+01 -0.82115562420E+01  0.14899265743E+02  0.00000000000E+00 0.  1.
</event>
<event>
 7    1  0.1427898E-010  0.4778727E+02  0.7816164E-02  0.1312668E+00
        -11   -1    0    0    0    0  0.00000000000E+00  0.00000000000E+00  0.45593999997E+02  0.45594000000E+02  0.51100000000E-03 0. -1.
         11   -1    0    0    0    0 -0.00000000000E+00 -0.00000000000E+00 -0.45593999997E+02  0.45594000000E+02  0.51100000000E-03 0.  1.
    9900012    2    1    2    0    0  0.50131739671E+01  0.42539710217E+02 -0.69903122196E+01  0.47787270473E+02  0.19999997395E+02 0.  0.
        -12    1    1    2    0    0 -0.50131739671E+01 -0.42539710217E+02  0.69903122196E+01  0.43400729527E+02  0.00000000000E+00 0.  1.
         11    1    3    3    0    0 -0.37407008119E+01  0.81164634289E+01 -0.16987887536E+01  0.90970162497E+01  0.51100000000E-03 0. -1.
        -11    1    3    3    0    0  0.12706507442E+02  0.23889795032E+02 -0.42655680527E+01  0.27392931736E+02  0.51100000000E-03 0.  1.
        -12    1    3    3    0    0 -0.39526326633E+01  0.10533451756E+02 -0.10259554134E+01  0.11297322487E+02  0.00000000000E+00 0.  1.
</event>
<event>
 7    1  0.1427898E-010  0.4778727E+02  0.7816164E-02  0.1312668E+00
        -11   -1    0    0    0    0  0.00000000000E+00  0.00000000000E+00  0.45593999997E+02  0.45594000000E+02  0.51100000000E-03 0.  1.
         11   -1    0    0    0    0 -0.00000000000E+00 -0.00000000000E+00 -0.45593999997E+02  0.45594000000E+02  0.51100000000E-03 0. -1.
    9900012    2    1    2    0    0 -0.34689745148E+02  0.23494516719E+02 -0.11324863688E+02  0.47787271068E+02  0.20000000106E+02 0.  0.
        -12    1    1    2    0    0  0.34689745148E+02 -0.23494516719E+02  0.11324863688E+02  0.43400728932E+02  0.00000000000E+00 0.  1.
         11    1    3    3    0    0 -0.89554741000E+01  0.57538580883E+01 -0.10791975192E+02  0.15158302282E+02  0.51100000000E-03 0.  1.
        -11    1    3    3    0    0 -0.19981057211E+02  0.10715120038E+02 -0.37789874177E+01  0.22985586590E+02  0.51100000000E-03 0. -1.
        -12    1    3    3    0    0 -0.57532138370E+01  0.70255385925E+01  0.32460989218E+01  0.96433821961E+01  0.00000000000E+00 0.  1.
</event>
<event>
 7    1  0.1427898E-010  0.4778727E+02  0.7816164E-02  0.1312668E+00
        -11   -1    0    0    0    0  0.00000000000E+00  0.00000000000E+00  0.45593999997E+02  0.45594000000E+02  0.51100000000E-03 0. -1.
         11   -1    0    0    0    0 -0.00000000000E+00 -0.00000000000E+00 -0.45593999997E+02  0.45594000000E+02  0.51100000000E-03 0.  1.
    9900012    2    1    2    0    0  0.98884990153E+01  0.42122891600E+02  0.33915612991E+01  0.47787273076E+02  0.20000009262E+02 0.  0.
        -12    1    1    2    0    0 -0.98884990153E+01 -0.42122891600E+02 -0.33915612991E+01  0.43400726924E+02  0.00000000000E+00 0.  1.
         11    1    3    3    0    0 -0.14859176800E+01  0.19668464133E+01  0.32554340731E+01  0.40834161471E+01  0.51100000000E-03 0.  1.
        -11    1    3    3    0    0  0.40797663407E+01  0.31517845924E+02  0.33310817213E+01  0.31954893378E+02  0.51100000000E-03 0. -1.
        -12    1    3    3    0    0  0.72946503547E+01  0.86381992624E+01 -0.31949544954E+01  0.11748963551E+02  0.00000000000E+00 0.  1.
</event>
<event>
 7    1  0.1427898E-010  0.4778727E+02  0.7816164E-02  0.1312668E+00
        -11   -1    0    0    0    0  0.00000000000E+00  0.00000000000E+00  0.45593999997E+02  0.45594000000E+02  0.51100000000E-03 0.  1.
         11   -1    0    0    0    0 -0.00000000000E+00 -0.00000000000E+00 -0.45593999997E+02  0.45594000000E+02  0.51100000000E-03 0. -1.
    9900012    2    1    2    0    0 -0.19524841986E+02 -0.38718233132E+02  0.18172541324E+01  0.47787269084E+02  0.19999991063E+02 0.  0.
        -12    1    1    2    0    0  0.19524841986E+02  0.38718233132E+02 -0.18172541324E+01  0.43400730916E+02  0.00000000000E+00 0.  1.
         11    1    3    3    0    0 -0.16948754580E+02 -0.29135984724E+02  0.14205263821E+01  0.33736979461E+02  0.51100000000E-03 0. -1.
        -11    1    3    3    0    0 -0.12644147555E+01 -0.81521812582E+01  0.45822350014E+01  0.94368258334E+01  0.51100000000E-03 0.  1.
         12    1    3    3    0    0 -0.13116726501E+01 -0.14300671497E+01 -0.41855072512E+01  0.46134637902E+01  0.00000000000E+00 0. -1.
</event>
<event>
 7    1  0.1427898E-010  0.4778727E+02  0.7816164E-02  0.1312668E+00
        -11   -1    0    0    0    0  0.00000000000E+00  0.00000000000E+00  0.45593999997E+02  0.45594000000E+02  0.51100000000E-03 0.  1.
         11   -1    0    0    0    0 -0.00000000000E+00 -0.00000000000E+00 -0.45593999997E+02  0.45594000000E+02  0.51100000000E-03 0. -1.
    9900012    2    1    2    0    0  0.35863480181E+02  0.20901322517E+02 -0.12671566572E+02  0.47787273127E+02  0.20000009497E+02 0.  0.
        -12    1    1    2    0    0 -0.35863480181E+02 -0.20901322517E+02  0.12671566572E+02  0.43400726873E+02  0.00000000000E+00 0.  1.
         11    1    3    3    0    0  0.15421181493E+02  0.11446161625E+02 -0.62447485045E+01  0.20194661144E+02  0.51100000000E-03 0. -1.
        -11    1    3    3    0    0  0.14366266911E+02 -0.11369709826E+01 -0.17522276445E+01  0.14517321721E+02  0.51100000000E-03 0.  1.
         12    1    3    3    0    0  0.60760317776E+01  0.10592131875E+02 -0.46745904226E+01  0.13075290262E+02  0.00000000000E+00 0. -1.
</event>
<event>
 7    1  0.1427898E-010  0.4778727E+02  0.7816164E-02  0.1312668E+00
        -11   -1    0    0    0    0  0.00000000000E+00  0.00000000000E+00  0.45593999997E+02  0.45594000000E+02  0.51100000000E-03 0.  1.
         11   -1    0    0    0    0 -0.00000000000E+00 -0.00000000000E+00 -0.45593999997E+02  0.45594000000E+02  0.51100000000E-03 0. -1.
    9900012    2    1    2    0    0  0.67234629074E+01 -0.41811552395E+02 -0.94980263757E+01  0.47787269912E+02  0.19999994836E+02 0.  0.
        -12    1    1    2    0    0 -0.67234629074E+01  0.41811552395E+02  0.94980263757E+01  0.43400730088E+02  0.00000000000E+00 0.  1.
         11    1    3    3    0    0  0.37105618185E+01 -0.16255685126E+02 -0.83634090927E+01  0.18653744392E+02  0.51100000000E-03 0. -1.
        -11    1    3    3    0    0  0.69337570242E+01 -0.76802338242E+01  0.20763098363E+01  0.10553390018E+02  0.51100000000E-03 0.  1.
        -12    1    3    3    0    0 -0.39208559353E+01 -0.17875633445E+02 -0.32109271193E+01  0.18580135503E+02  0.00000000000E+00 0.  1.
</event>
<event>
 7    1  0.1427898E-010  0.4778727E+02  0.7816164E-02  0.1312668E+00
        -11   -1    0    0    0    0  0.00000000000E+00  0.00000000000E+00  0.45593999997E+02  0.45594000000E+02  0.51100000000E-03 0.  1.
         11   -1    0    0    0    0 -0.00000000000E+00 -0.00000000000E+00 -0.45593999997E+02  0.45594000000E+02  0.51100000000E-03 0. -1.
    9900012    2    1    2    0    0  0.27607645493E+02 -0.33082790048E+02 -0.51932932574E+01  0.47787269800E+02  0.19999994327E+02 0.  0.
        -12    1    1    2    0    0 -0.27607645493E+02  0.33082790048E+02  0.51932932574E+01  0.43400730200E+02  0.00000000000E+00 0.  1.
         11    1    3    3    0    0  0.24640522243E+02 -0.31692304645E+02 -0.30119215359E+01  0.40257038909E+02  0.51100000000E-03 0. -1.
        -11    1    3    3    0    0  0.13981303694E+00 -0.29317768292E+01 -0.30110682175E+01  0.42049251044E+01  0.51100000000E-03 0.  1.
        -12    1    3    3    0    0  0.28273102127E+01  0.15412914263E+01  0.82969649607E+00  0.33253057867E+01  0.00000000000E+00 0.  1.
</event>
<event>
 7    1  0.1427898E-010  0.4778727E+02  0.7816164E-02  0.1312668E+00
        -11   -1    0    0    0    0  0.00000000000E+00  0.00000000000E+00  0.45593999997E+02  0.45594000000E+02  0.51100000000E-03 0. -1.
         11   -1    0    0    0    0 -0.00000000000E+00 -0.00000000000E+00 -0.45593999997E+02  0.45594000000E+02  0.51100000000E-03 0.  1.
    9900012    2    1    2    0    0 -0.57263877800E+01 -0.42737455897E+02  0.49337250806E+01  0.47787270781E+02  0.19999998800E+02 0.  0.
        -12    1    1    2    0    0  0.57263877800E+01  0.42737455897E+02 -0.49337250806E+01  0.43400729219E+02  0.00000000000E+00 0.  1.
         11    1    3    3    0    0 -0.65231820026E+01 -0.82438224710E+01 -0.20074506795E+01  0.10702446957E+02  0.51100000000E-03 0. -1.
        -11    1    3    3    0    0 -0.30107266112E+01 -0.44131828665E+01  0.38954932524E+01  0.66117717506E+01  0.51100000000E-03 0.  1.
         12    1    3    3    0    0  0.38075208338E+01 -0.30080450559E+02  0.30456825077E+01  0.30473052074E+02  0.00000000000E+00 0. -1.
</event>
<event>
 7    1  0.1427898E-010  0.4778726E+02  0.7816164E-02  0.1312668E+00
        -11   -1    0    0    0    0  0.00000000000E+00  0.00000000000E+00  0.45593999997E+02  0.45594000000E+02  0.51100000000E-03 0. -1.
         11   -1    0    0    0    0 -0.00000000000E+00 -0.00000000000E+00 -0.45593999997E+02  0.45594000000E+02  0.51100000000E-03 0.  1.
    9900012    2    1    2    0    0  0.58506758257E+01  0.30181269865E+02  0.30634693816E+02  0.47787263561E+02  0.19999965878E+02 0.  0.
        -12    1    1    2    0    0 -0.58506758257E+01 -0.30181269865E+02 -0.30634693816E+02  0.43400736439E+02  0.00000000000E+00 0.  1.
         11    1    3    3    0    0  0.23270639888E+01  0.55628344979E+01  0.11744395963E+02  0.13201938920E+02  0.51100000000E-03 0. -1.
        -11    1    3    3    0    0  0.37599918753E+01  0.57822857987E+01 -0.12486251228E+01  0.70093817786E+01  0.51100000000E-03 0.  1.
         12    1    3    3    0    0 -0.23638003837E+00  0.18836149568E+02  0.20138922976E+02  0.27575942862E+02  0.00000000000E+00 0. -1.
</event>
<event>
 7    1  0.1427898E-010  0.4778727E+02  0.7816164E-02  0.1312668E+00
        -11   -1    0    0    0    0  0.00000000000E+00  0.00000000000E+00  0.45593999997E+02  0.45594000000E+02  0.51100000000E-03 0. -1.
         11   -1    0    0    0    0 -0.00000000000E+00 -0.00000000000E+00 -0.45593999997E+02  0.45594000000E+02  0.51100000000E-03 0.  1.
    9900012    2    1    2    0    0  0.34073079854E+02 -0.21100803173E+02  0.16655471539E+02  0.47787269621E+02  0.19999993509E+02 0.  0.
        -12    1    1    2    0    0 -0.34073079854E+02  0.21100803173E+02 -0.16655471539E+02  0.43400730379E+02  0.00000000000E+00 0.  1.
         11    1    3    3    0    0  0.77935519372E+01 -0.66921477364E+01 -0.71328620089E-01  0.10272749445E+02  0.51100000000E-03 0. -1.
        -11    1    3    3    0    0  0.32866096674E+01  0.31168272257E+01  0.34886600274E+01  0.57172689379E+01  0.51100000000E-03 0.  1.
         12    1    3    3    0    0  0.22992918250E+02 -0.17525482662E+02  0.13238140131E+02  0.31797251238E+02  0.00000000000E+00 0. -1.
</event>
<event>
 7    1  0.1427898E-010  0.4778727E+02  0.7816164E-02  0.1312668E+00
        -11   -1    0    0    0    0  0.00000000000E+00  0.00000000000E+00  0.45593999997E+02  0.45594000000E+02  0.51100000000E-03 0. -1.
         11   -1    0    0    0    0 -0.00000000000E+00 -0.00000000000E+00 -0.45593999997E+02  0.45594000000E+02  0.51100000000E-03 0.  1.
    9900012    2    1    2    0    0  0.18598221930E+02 -0.20941502385E+02  0.33153927563E+02  0.47787270813E+02  0.19999998946E+02 0.  0.
        -12    1    1    2    0    0 -0.18598221930E+02  0.20941502385E+02 -0.33153927563E+02  0.43400729187E+02  0.00000000000E+00 0.  1.
         11    1    3    3    0    0  0.10726137913E+02 -0.16439069717E+02  0.19993057726E+02  0.28018126368E+02  0.51100000000E-03 0. -1.
        -11    1    3    3    0    0 -0.23765582465E+01 -0.54904109125E+00  0.64521951752E+01  0.68978473497E+01  0.51100000000E-03 0.  1.
         12    1    3    3    0    0  0.10248642264E+02 -0.39533915765E+01  0.67086746621E+01  0.12871297096E+02  0.00000000000E+00 0. -1.
</event>
<event>
 7    1  0.1427898E-010  0.4778730E+02  0.7816164E-02  0.1312668E+00
        -11   -1    0    0    0    0  0.00000000000E+00  0.00000000000E+00  0.45593999997E+02  0.45594000000E+02  0.51100000000E-03 0.  1.
         11   -1    0    0    0    0 -0.00000000000E+00 -0.00000000000E+00 -0.45593999997E+02  0.45594000000E+02  0.51100000000E-03 0. -1.
    9900012    2    1    2    0    0 -0.19535009884E+02  0.32903722229E+02 -0.20478023151E+02  0.47787297473E+02  0.20000120496E+02 0.  0.
        -12    1    1    2    0    0  0.19535009884E+02 -0.32903722229E+02  0.20478023151E+02  0.43400702527E+02  0.00000000000E+00 0.  1.
         11    1    3    3    0    0 -0.75084958691E+01  0.16529356184E+02 -0.19248263993E+02  0.26459266677E+02  0.51100000000E-03 0. -1.
        -11    1    3    3    0    0 -0.21113530096E+01  0.80957574363E+01 -0.17862953732E+00  0.83684531887E+01  0.51100000000E-03 0.  1.
        -12    1    3    3    0    0 -0.99151610055E+01  0.82786086089E+01 -0.10511296200E+01  0.12959577607E+02  0.00000000000E+00 0.  1.
</event>
<event>
 7    1  0.1427898E-010  0.4778729E+02  0.7816164E-02  0.1312668E+00
        -11   -1    0    0    0    0  0.00000000000E+00  0.00000000000E+00  0.45593999997E+02  0.45594000000E+02  0.51100000000E-03 0. -1.
         11   -1    0    0    0    0 -0.00000000000E+00 -0.00000000000E+00 -0.45593999997E+02  0.45594000000E+02  0.51100000000E-03 0.  1.
    9900012    2    1    2    0    0  0.26680769807E+02 -0.28389174411E+02  0.19126244961E+02  0.47787286325E+02  0.20000069668E+02 0.  0.
        -12    1    1    2    0    0 -0.26680769807E+02  0.28389174411E+02 -0.19126244961E+02  0.43400713675E+02  0.00000000000E+00 0.  1.
         11    1    3    3    0    0  0.65084300272E+01 -0.12052141937E+02  0.13176836391E+02  0.19006388511E+02  0.51100000000E-03 0. -1.
        -11    1    3    3    0    0  0.12997896324E+02 -0.11565011952E+02  0.90653751385E+01  0.19618252648E+02  0.51100000000E-03 0.  1.
        -12    1    3    3    0    0  0.71744434560E+01 -0.47720205218E+01 -0.31159665693E+01  0.91626451653E+01  0.00000000000E+00 0.  1.
</event>
<event>
 7    1  0.1427898E-010  0.4778726E+02  0.7816164E-02  0.1312668E+00
        -11   -1    0    0    0    0  0.00000000000E+00  0.00000000000E+00  0.45593999997E+02  0.45594000000E+02  0.51100000000E-03 0. -1.
         11   -1    0    0    0    0 -0.00000000000E+00 -0.00000000000E+00 -0.45593999997E+02  0.45594000000E+02  0.51100000000E-03 0.  1.
    9900012    2    1    2    0    0 -0.74452913920E+01 -0.16802259499E+02  0.39317626005E+02  0.47787262646E+02  0.19999961710E+02 0.  0.
        -12    1    1    2    0    0  0.74452913920E+01  0.16802259499E+02 -0.39317626005E+02  0.43400737354E+02  0.00000000000E+00 0.  1.
         11    1    3    3    0    0 -0.46061853758E+01 -0.13332017148E+02  0.26608646516E+02  0.30116103576E+02  0.51100000000E-03 0. -1.
        -11    1    3    3    0    0 -0.44690066985E+01 -0.39187936578E+01  0.12317561552E+01  0.60701061020E+01  0.51100000000E-03 0.  1.
         12    1    3    3    0    0  0.16299006822E+01  0.44855130756E+00  0.11477223334E+02  0.11601052968E+02  0.00000000000E+00 0. -1.
</event>
<event>
 7    1  0.1427898E-010  0.4778727E+02  0.7816164E-02  0.1312668E+00
        -11   -1    0    0    0    0  0.00000000000E+00  0.00000000000E+00  0.45593999997E+02  0.45594000000E+02  0.51100000000E-03 0. -1.
         11   -1    0    0    0    0 -0.00000000000E+00 -0.00000000000E+00 -0.45593999997E+02  0.45594000000E+02  0.51100000000E-03 0.  1.
    9900012    2    1    2    0    0  0.20667203666E+02  0.18484215962E+02  0.33388976892E+02  0.47787270456E+02  0.19999997316E+02 0.  0.
        -12    1    1    2    0    0 -0.20667203666E+02 -0.18484215962E+02 -0.33388976892E+02  0.43400729544E+02  0.00000000000E+00 0.  1.
         11    1    3    3    0    0  0.24301408058E+01 -0.21297535181E+01  0.96039943108E+00  0.33710238373E+01  0.51100000000E-03 0. -1.
        -11    1    3    3    0    0 -0.76873707915E+00 -0.41432840259E+00 -0.46965076049E+00  0.99156281697E+00  0.51100000000E-03 0.  1.
         12    1    3    3    0    0  0.19005799940E+02  0.21028297882E+02  0.32898228221E+02  0.43424683801E+02  0.00000000000E+00 0. -1.
</event>
<event>
 7    1  0.1427898E-010  0.4778721E+02  0.7816164E-02  0.1312668E+00
        -11   -1    0    0    0    0  0.00000000000E+00  0.00000000000E+00  0.45593999997E+02  0.45594000000E+02  0.51100000000E-03 0.  1.
         11   -1    0    0    0    0 -0.00000000000E+00 -0.00000000000E+00 -0.45593999997E+02  0.45594000000E+02  0.51100000000E-03 0. -1.
    9900012    2    1    2    0    0 -0.43155811977E+02 -0.51512685890E+00 -0.45759371160E+01  0.47787208952E+02  0.19999716894E+02 0.  0.
        -12    1    1    2    0    0  0.43155811977E+02  0.51512685890E+00  0.45759371160E+01  0.43400791048E+02  0.00000000000E+00 0.  1.
         11    1    3    3    0    0 -0.13436743306E+02  0.54759130282E+01  0.31861896301E+01  0.14855419845E+02  0.51100000000E-03 0. -1.
        -11    1    3    3    0    0 -0.10765666697E+02 -0.72955545090E+01 -0.30328378399E+01  0.13353756050E+02  0.51100000000E-03 0.  1.
        -12    1    3    3    0    0 -0.18953401975E+02  0.13045146219E+01 -0.47292889063E+01  0.19578033057E+02  0.00000000000E+00 0.  1.
</event>
<event>
 7    1  0.1427898E-010  0.4778727E+02  0.7816164E-02  0.1312668E+00
        -11   -1    0    0    0    0  0.00000000000E+00  0.00000000000E+00  0.45593999997E+02  0.45594000000E+02  0.51100000000E-03 0.  1.
         11   -1    0    0    0    0 -0.00000000000E+00 -0.00000000000E+00 -0.45593999997E+02  0.45594000000E+02  0.51100000000E-03 0. -1.
    9900012    2    1    2    0    0  0.26706339935E+02 -0.22238725504E+02  0.25996802602E+02  0.47787271316E+02  0.20000001238E+02 0.  0.
        -12    1    1    2    0    0 -0.26706339935E+02  0.22238725504E+02 -0.25996802602E+02  0.43400728684E+02  0.00000000000E+00 0.  1.
         11    1    3    3    0    0  0.48327643428E+01 -0.22538265775E+01 -0.19874343197E+01  0.56908031833E+01  0.51100000000E-03 0. -1.
        -11    1    3    3    0    0  0.39676979431E+01 -0.38263565111E+01  0.11876734638E+02  0.13093527295E+02  0.51100000000E-03 0.  1.
        -12    1    3    3    0    0  0.17905877649E+02 -0.16158542416E+02  0.16107502284E+02  0.29002940837E+02  0.00000000000E+00 0.  1.
</event>
<event>
 7    1  0.1427898E-010  0.4778727E+02  0.7816164E-02  0.1312668E+00
        -11   -1    0    0    0    0  0.00000000000E+00  0.00000000000E+00  0.45593999997E+02  0.45594000000E+02  0.51100000000E-03 0. -1.
         11   -1    0    0    0    0 -0.00000000000E+00 -0.00000000000E+00 -0.45593999997E+02  0.45594000000E+02  0.51100000000E-03 0.  1.
    9900012    2    1    2    0    0 -0.81053628277E+01  0.23600575980E+02  0.35509707529E+02  0.47787269338E+02  0.19999992222E+02 0.  0.
        -12    1    1    2    0    0  0.81053628277E+01 -0.23600575980E+02 -0.35509707529E+02  0.43400730662E+02  0.00000000000E+00 0.  1.
         11    1    3    3    0    0 -0.42509720945E+01  0.45186325724E+01  0.17567905159E+02  0.18631159278E+02  0.51100000000E-03 0. -1.
        -11    1    3    3    0    0  0.20739192374E+01  0.99373696388E+00 -0.80799517703E+00  0.24375214099E+01  0.51100000000E-03 0.  1.
        -12    1    3    3    0    0 -0.59283099706E+01  0.18088206444E+02  0.18749797547E+02  0.26718588651E+02  0.00000000000E+00 0.  1.
</event>
<event>
 7    1  0.1427898E-010  0.4778727E+02  0.7816164E-02  0.1312668E+00
        -11   -1    0    0    0    0  0.00000000000E+00  0.00000000000E+00  0.45593999997E+02  0.45594000000E+02  0.51100000000E-03 0.  1.
         11   -1    0    0    0    0 -0.00000000000E+00 -0.00000000000E+00 -0.45593999997E+02  0.45594000000E+02  0.51100000000E-03 0. -1.
    9900012    2    1    2    0    0  0.39157785463E+02  0.56716128492E+01 -0.17836031875E+02  0.47787269733E+02  0.19999994019E+02 0.  0.
        -12    1    1    2    0    0 -0.39157785463E+02 -0.56716128492E+01  0.17836031875E+02  0.43400730267E+02  0.00000000000E+00 0.  1.
         11    1    3    3    0    0  0.19844761158E+02 -0.41341279857E+01 -0.11369011220E+02  0.23241341958E+02  0.51100000000E-03 0. -1.
        -11    1    3    3    0    0  0.94769624846E+00 -0.12480657489E+01 -0.21821562372E+01  0.26865595838E+01  0.51100000000E-03 0.  1.
         12    1    3    3    0    0  0.18365328057E+02  0.11053806584E+02 -0.42848644173E+01  0.21859368191E+02  0.00000000000E+00 0. -1.
</event>
<event>
 7    1  0.1427898E-010  0.4778727E+02  0.7816164E-02  0.1312668E+00
        -11   -1    0    0    0    0  0.00000000000E+00  0.00000000000E+00  0.45593999997E+02  0.45594000000E+02  0.51100000000E-03 0. -1.
         11   -1    0    0    0    0 -0.00000000000E+00 -0.00000000000E+00 -0.45593999997E+02  0.45594000000E+02  0.51100000000E-03 0.  1.
    9900012    2    1    2    0    0 -0.40016365065E+02  0.13818277723E+02  0.95587218813E+01  0.47787269174E+02  0.19999991472E+02 0.  0.
        -12    1    1    2    0    0  0.40016365065E+02 -0.13818277723E+02 -0.95587218813E+01  0.43400730826E+02  0.00000000000E+00 0.  1.
         11    1    3    3    0    0 -0.20631577276E+02  0.95830594500E+01  0.91873357554E+01  0.24533734894E+02  0.51100000000E-03 0.  1.
        -11    1    3    3    0    0 -0.19632799366E+01  0.23068303429E+01 -0.41631544330E+01  0.51485715917E+01  0.51100000000E-03 0. -1.
         12    1    3    3    0    0 -0.17421507852E+02  0.19283879304E+01  0.45345405589E+01  0.18104962688E+02  0.00000000000E+00 0. -1.
</event>
<event>
 7    1  0.1427898E-010  0.4778727E+02  0.7816164E-02  0.1312668E+00
        -11   -1    0    0    0    0  0.00000000000E+00  0.00000000000E+00  0.45593999997E+02  0.45594000000E+02  0.51100000000E-03 0.  1.
         11   -1    0    0    0    0 -0.00000000000E+00 -0.00000000000E+00 -0.45593999997E+02  0.45594000000E+02  0.51100000000E-03 0. -1.
    9900012    2    1    2    0    0 -0.20528190657E+01  0.23368704755E+02 -0.36514557379E+02  0.47787270414E+02  0.19999997125E+02 0.  0.
        -12    1    1    2    0    0  0.20528190657E+01 -0.23368704755E+02  0.36514557379E+02  0.43400729586E+02  0.00000000000E+00 0.  1.
         11    1    3    3    0    0  0.55218187436E+01  0.25526442821E+01 -0.10963142817E+02  0.12537821810E+02  0.51100000000E-03 0. -1.
        -11    1    3    3    0    0  0.20020209421E+01  0.81669716613E+01 -0.84106855560E+01  0.11893155416E+02  0.51100000000E-03 0.  1.
        -12    1    3    3    0    0 -0.95766587514E+01  0.12649088811E+02 -0.17140729006E+02  0.23356293187E+02  0.00000000000E+00 0.  1.
</event>
<event>
 7    1  0.1427898E-010  0.4778727E+02  0.7816164E-02  0.1312668E+00
        -11   -1    0    0    0    0  0.00000000000E+00  0.00000000000E+00  0.45593999997E+02  0.45594000000E+02  0.51100000000E-03 0. -1.
         11   -1    0    0    0    0 -0.00000000000E+00 -0.00000000000E+00 -0.45593999997E+02  0.45594000000E+02  0.51100000000E-03 0.  1.
    9900012    2    1    2    0    0 -0.38836093575E+02 -0.15327041057E+02 -0.11851707634E+02  0.47787270449E+02  0.19999997284E+02 0.  0.
        -12    1    1    2    0    0  0.38836093575E+02  0.15327041057E+02  0.11851707634E+02  0.43400729551E+02  0.00000000000E+00 0.  1.
         11    1    3    3    0    0 -0.20407875138E+02 -0.15831172024E+02 -0.18039239961E+01  0.25891340587E+02  0.51100000000E-03 0. -1.
        -11    1    3    3    0    0 -0.80316076747E+01 -0.21006274912E+01 -0.66974573055E+01  0.10666550160E+02  0.51100000000E-03 0.  1.
        -12    1    3    3    0    0 -0.10396610762E+02  0.26047584583E+01 -0.33503263324E+01  0.11229379702E+02  0.00000000000E+00 0.  1.
</event>
<event>
 7    1  0.1427898E-010  0.4778727E+02  0.7816164E-02  0.1312668E+00
        -11   -1    0    0    0    0  0.00000000000E+00  0.00000000000E+00  0.45593999997E+02  0.45594000000E+02  0.51100000000E-03 0. -1.
         11   -1    0    0    0    0 -0.00000000000E+00 -0.00000000000E+00 -0.45593999997E+02  0.45594000000E+02  0.51100000000E-03 0.  1.
    9900012    2    1    2    0    0 -0.62954591110E+01  0.41668242776E+02 -0.10380157836E+02  0.47787274912E+02  0.20000017635E+02 0.  0.
        -12    1    1    2    0    0  0.62954591110E+01 -0.41668242776E+02  0.10380157836E+02  0.43400725088E+02  0.00000000000E+00 0.  1.
         11    1    3    3    0    0 -0.86563340997E+01  0.13885186780E+02 -0.48350391468E+01  0.17061891330E+02  0.51100000000E-03 0. -1.
        -11    1    3    3    0    0  0.23637592595E+01  0.71010082992E+01 -0.66529845628E+01  0.10013684664E+02  0.51100000000E-03 0.  1.
        -12    1    3    3    0    0 -0.28842707673E-02  0.20682047697E+02  0.11078658738E+01  0.20711698918E+02  0.00000000000E+00 0.  1.
</event>
<event>
 7    1  0.1427898E-010  0.4778727E+02  0.7816164E-02  0.1312668E+00
        -11   -1    0    0    0    0  0.00000000000E+00  0.00000000000E+00  0.45593999997E+02  0.45594000000E+02  0.51100000000E-03 0.  1.
         11   -1    0    0    0    0 -0.00000000000E+00 -0.00000000000E+00 -0.45593999997E+02  0.45594000000E+02  0.51100000000E-03 0. -1.
    9900012    2    1    2    0    0 -0.14631059211E+02  0.35096618738E+02 -0.20923256839E+02  0.47787271697E+02  0.20000002976E+02 0.  0.
        -12    1    1    2    0    0  0.14631059211E+02 -0.35096618738E+02  0.20923256839E+02  0.43400728303E+02  0.00000000000E+00 0.  1.
         11    1    3    3    0    0 -0.27850657910E+01  0.11921529956E+02 -0.85387548460E+00  0.12272268395E+02  0.51100000000E-03 0. -1.
        -11    1    3    3    0    0 -0.30838399923E+01  0.18183063249E+02 -0.16706743942E+02  0.24884717230E+02  0.51100000000E-03 0.  1.
        -12    1    3    3    0    0 -0.87621534273E+01  0.49920255323E+01 -0.33626374129E+01  0.10630286072E+02  0.00000000000E+00 0.  1.
</event>
<event>
 7    1  0.1427898E-010  0.4778727E+02  0.7816164E-02  0.1312668E+00
        -11   -1    0    0    0    0  0.00000000000E+00  0.00000000000E+00  0.45593999997E+02  0.45594000000E+02  0.51100000000E-03 0.  1.
         11   -1    0    0    0    0 -0.00000000000E+00 -0.00000000000E+00 -0.45593999997E+02  0.45594000000E+02  0.51100000000E-03 0. -1.
    9900012    2    1    2    0    0 -0.19690308225E+02 -0.55510971730E+01 -0.38276627928E+02  0.47787272317E+02  0.20000005803E+02 0.  0.
        -12    1    1    2    0    0  0.19690308225E+02  0.55510971730E+01  0.38276627928E+02  0.43400727683E+02  0.00000000000E+00 0.  1.
         11    1    3    3    0    0 -0.42766006691E+01 -0.74945507363E+01 -0.19854500230E+02  0.21648528441E+02  0.51100000000E-03 0. -1.
        -11    1    3    3    0    0 -0.58223240961E+01  0.78162186739E+00 -0.14619876621E+02  0.15755988807E+02  0.51100000000E-03 0.  1.
        -12    1    3    3    0    0 -0.95913834602E+01  0.11618316958E+01 -0.38022510779E+01  0.10382755069E+02  0.00000000000E+00 0.  1.
</event>
<event>
 7    1  0.1427898E-010  0.4778727E+02  0.7816164E-02  0.1312668E+00
        -11   -1    0    0    0    0  0.00000000000E+00  0.00000000000E+00  0.45593999997E+02  0.45594000000E+02  0.51100000000E-03 0.  1.
         11   -1    0    0    0    0 -0.00000000000E+00 -0.00000000000E+00 -0.45593999997E+02  0.45594000000E+02  0.51100000000E-03 0. -1.
    9900012    2    1    2    0    0 -0.26746741018E+02  0.87929363091E+01 -0.33029068362E+02  0.47787271425E+02  0.20000001733E+02 0.  0.
        -12    1    1    2    0    0  0.26746741018E+02 -0.87929363091E+01  0.33029068362E+02  0.43400728575E+02  0.00000000000E+00 0.  1.
         11    1    3    3    0    0 -0.10746176556E+02 -0.12669273062E+01 -0.53532622343E+01  0.12072399603E+02  0.51100000000E-03 0. -1.
        -11    1    3    3    0    0 -0.31615792837E+01  0.70582234966E+01 -0.42281301752E+01  0.88142604644E+01  0.51100000000E-03 0.  1.
        -12    1    3    3    0    0 -0.12838985179E+02  0.30016401187E+01 -0.23447675952E+02  0.26900611357E+02  0.00000000000E+00 0.  1.
</event>
<event>
 7    1  0.1427898E-010  0.4778728E+02  0.7816164E-02  0.1312668E+00
        -11   -1    0    0    0    0  0.00000000000E+00  0.00000000000E+00  0.45593999997E+02  0.45594000000E+02  0.51100000000E-03 0.  1.
         11   -1    0    0    0    0 -0.00000000000E+00 -0.00000000000E+00 -0.45593999997E+02  0.45594000000E+02  0.51100000000E-03 0. -1.
    9900012    2    1    2    0    0 -0.37561541807E+02 -0.17405271784E+02 -0.13031116861E+02  0.47787275174E+02  0.20000018830E+02 0.  0.
        -12    1    1    2    0    0  0.37561541807E+02  0.17405271784E+02  0.13031116861E+02  0.43400724826E+02  0.00000000000E+00 0.  1.
         11    1    3    3    0    0 -0.17767662196E+02 -0.59555702273E+01 -0.42668779965E+01  0.19218867936E+02  0.51100000000E-03 0. -1.
        -11    1    3    3    0    0 -0.47715823361E-01 -0.86730166412E+00  0.30988173420E+01  0.32182538988E+01  0.51100000000E-03 0.  1.
         12    1    3    3    0    0 -0.19746163787E+02 -0.10582399892E+02 -0.11863056206E+02  0.25350153340E+02  0.00000000000E+00 0. -1.
</event>
<event>
 7    1  0.1427898E-010  0.4778727E+02  0.7816164E-02  0.1312668E+00
        -11   -1    0    0    0    0  0.00000000000E+00  0.00000000000E+00  0.45593999997E+02  0.45594000000E+02  0.51100000000E-03 0.  1.
         11   -1    0    0    0    0 -0.00000000000E+00 -0.00000000000E+00 -0.45593999997E+02  0.45594000000E+02  0.51100000000E-03 0. -1.
    9900012    2    1    2    0    0 -0.35444755384E+02 -0.21484646764E+02 -0.12872548670E+02  0.47787271434E+02  0.20000001776E+02 0.  0.
        -12    1    1    2    0    0  0.35444755384E+02  0.21484646764E+02  0.12872548670E+02  0.43400728566E+02  0.00000000000E+00 0.  1.
         11    1    3    3    0    0 -0.33173796112E+01  0.13061262427E+01  0.48200838466E+00  0.35976805848E+01  0.51100000000E-03 0. -1.
        -11    1    3    3    0    0 -0.24800981023E+02 -0.19039404628E+02 -0.36719783386E+01  0.31481280366E+02  0.51100000000E-03 0.  1.
         12    1    3    3    0    0 -0.73263947498E+01 -0.37513683780E+01 -0.96825787159E+01  0.12708310483E+02  0.00000000000E+00 0. -1.
</event>
<event>
 7    1  0.1427898E-010  0.4778727E+02  0.7816164E-02  0.1312668E+00
        -11   -1    0    0    0    0  0.00000000000E+00  0.00000000000E+00  0.45593999997E+02  0.45594000000E+02  0.51100000000E-03 0.  1.
         11   -1    0    0    0    0 -0.00000000000E+00 -0.00000000000E+00 -0.45593999997E+02  0.45594000000E+02  0.51100000000E-03 0. -1.
    9900012    2    1    2    0    0  0.15173451977E+02 -0.14745548476E+02 -0.37894040814E+02  0.47787272195E+02  0.20000005248E+02 0.  0.
        -12    1    1    2    0    0 -0.15173451977E+02  0.14745548476E+02  0.37894040814E+02  0.43400727805E+02  0.00000000000E+00 0.  1.
         11    1    3    3    0    0  0.68585642345E+01 -0.63328127985E+00 -0.15876649936E+01  0.70683540468E+01  0.51100000000E-03 0. -1.
        -11    1    3    3    0    0 -0.71715434506E-01 -0.79130694104E+00 -0.10222531353E+02  0.10253363219E+02  0.51100000000E-03 0.  1.
        -12    1    3    3    0    0  0.83866031774E+01 -0.13320960255E+02 -0.26083844468E+02  0.30465554930E+02  0.00000000000E+00 0.  1.
</event>
<event>
 7    1  0.1427898E-010  0.4778728E+02  0.7816164E-02  0.1312668E+00
        -11   -1    0    0    0    0  0.00000000000E+00  0.00000000000E+00  0.45593999997E+02  0.45594000000E+02  0.51100000000E-03 0.  1.
         11   -1    0    0    0    0 -0.00000000000E+00 -0.00000000000E+00 -0.45593999997E+02  0.45594000000E+02  0.51100000000E-03 0. -1.
    9900012    2    1    2    0    0 -0.11565630463E+02 -0.17243649217E+02 -0.38111883087E+02  0.47787275596E+02  0.20000020753E+02 0.  0.
        -12    1    1    2    0    0  0.11565630463E+02  0.17243649217E+02  0.38111883087E+02  0.43400724404E+02  0.00000000000E+00 0.  1.
         11    1    3    3    0    0 -0.14344034867E+01 -0.18401631293E+01 -0.16851530010E+02  0.17012283140E+02  0.51100000000E-03 0. -1.
        -11    1    3    3    0    0  0.20236788717E+01 -0.69011008754E+01 -0.49636535071E+01  0.87383251180E+01  0.51100000000E-03 0.  1.
        -12    1    3    3    0    0 -0.12154905848E+02 -0.85023852127E+01 -0.16296699570E+02  0.22036667338E+02  0.00000000000E+00 0.  1.
</event>
<event>
 7    1  0.1427898E-010  0.4778727E+02  0.7816164E-02  0.1312668E+00
        -11   -1    0    0    0    0  0.00000000000E+00  0.00000000000E+00  0.45593999997E+02  0.45594000000E+02  0.51100000000E-03 0.  1.
         11   -1    0    0    0    0 -0.00000000000E+00 -0.00000000000E+00 -0.45593999997E+02  0.45594000000E+02  0.51100000000E-03 0. -1.
    9900012    2    1    2    0    0 -0.15801351045E+02 -0.26589363420E+01 -0.40334486610E+02  0.47787269045E+02  0.19999990883E+02 0.  0.
        -12    1    1    2    0    0  0.15801351045E+02  0.26589363420E+01  0.40334486610E+02  0.43400730955E+02  0.00000000000E+00 0.  1.
         11    1    3    3    0    0 -0.33550341136E+01 -0.30281618387E+01 -0.23161101044E+02  0.23597936771E+02  0.51100000000E-03 0. -1.
        -11    1    3    3    0    0 -0.30507274598E+01  0.15476246299E+01 -0.13672093331E+02  0.14093552296E+02  0.51100000000E-03 0.  1.
        -12    1    3    3    0    0 -0.93955894715E+01 -0.11783991333E+01 -0.35012922360E+01  0.10095779978E+02  0.00000000000E+00 0.  1.
</event>
<event>
 7    1  0.1427898E-010  0.4778725E+02  0.7816164E-02  0.1312668E+00
        -11   -1    0    0    0    0  0.00000000000E+00  0.00000000000E+00  0.45593999997E+02  0.45594000000E+02  0.51100000000E-03 0. -1.
         11   -1    0    0    0    0 -0.00000000000E+00 -0.00000000000E+00 -0.45593999997E+02  0.45594000000E+02  0.51100000000E-03 0.  1.
    9900012    2    1    2    0    0 -0.10478226422E+01 -0.35491279380E+02  0.24957884143E+02  0.47787253172E+02  0.19999918513E+02 0.  0.
        -12    1    1    2    0    0  0.10478226422E+01  0.35491279380E+02 -0.24957884143E+02  0.43400746828E+02  0.00000000000E+00 0.  1.
         11    1    3    3    0    0  0.78654322143E-01 -0.16652200866E+02  0.19561753355E+02  0.25689767900E+02  0.51100000000E-03 0. -1.
        -11    1    3    3    0    0  0.48417307595E+00  0.91368904455E+00 -0.82807026328E+00  0.13247459604E+01  0.51100000000E-03 0.  1.
        -12    1    3    3    0    0 -0.16106500403E+01 -0.19752767559E+02  0.62242010508E+01  0.20772739311E+02  0.00000000000E+00 0.  1.
</event>
<event>
 7    1  0.1427898E-010  0.4778726E+02  0.7816164E-02  0.1312668E+00
        -11   -1    0    0    0    0  0.00000000000E+00  0.00000000000E+00  0.45593999997E+02  0.45594000000E+02  0.51100000000E-03 0.  1.
         11   -1    0    0    0    0 -0.00000000000E+00 -0.00000000000E+00 -0.45593999997E+02  0.45594000000E+02  0.51100000000E-03 0. -1.
    9900012    2    1    2    0    0  0.17824981726E+02  0.95519026366E+01 -0.38401240483E+02  0.47787261664E+02  0.19999957231E+02 0.  0.
        -12    1    1    2    0    0 -0.17824981726E+02 -0.95519026366E+01  0.38401240483E+02  0.43400738336E+02  0.00000000000E+00 0.  1.
         11    1    3    3    0    0  0.12192423678E+02  0.13924137527E+02 -0.23135169160E+02  0.29627231618E+02  0.51100000000E-03 0. -1.
        -11    1    3    3    0    0  0.48744460462E+01 -0.13457961464E+01 -0.39355438888E+01  0.64077997384E+01  0.51100000000E-03 0.  1.
         12    1    3    3    0    0  0.75811200160E+00 -0.30264387440E+01 -0.11330527434E+02  0.11752230308E+02  0.00000000000E+00 0. -1.
</event>
<event>
 7    1  0.1427898E-010  0.4778727E+02  0.7816164E-02  0.1312668E+00
        -11   -1    0    0    0    0  0.00000000000E+00  0.00000000000E+00  0.45593999997E+02  0.45594000000E+02  0.51100000000E-03 0.  1.
         11   -1    0    0    0    0 -0.00000000000E+00 -0.00000000000E+00 -0.45593999997E+02  0.45594000000E+02  0.51100000000E-03 0. -1.
    9900012    2    1    2    0    0 -0.26575732615E+02  0.25353603809E+02 -0.23120311931E+02  0.47787267127E+02  0.19999982139E+02 0.  0.
        -12    1    1    2    0    0  0.26575732615E+02 -0.25353603809E+02  0.23120311931E+02  0.43400732873E+02  0.00000000000E+00 0.  1.
         11    1    3    3    0    0 -0.54462990399E+00  0.16842170090E+01 -0.67900148246E+01  0.70169445092E+01  0.51100000000E-03 0. -1.
        -11    1    3    3    0    0 -0.29668617224E+01 -0.74568439468E+00 -0.39016639224E+01  0.49579527348E+01  0.51100000000E-03 0.  1.
        -12    1    3    3    0    0 -0.23064240989E+02  0.24415071195E+02 -0.12428633184E+02  0.35812369883E+02  0.00000000000E+00 0.  1.
</event>
<event>
 7    1  0.1427898E-010  0.4778727E+02  0.7816164E-02  0.1312668E+00
        -11   -1    0    0    0    0  0.00000000000E+00  0.00000000000E+00  0.45593999997E+02  0.45594000000E+02  0.51100000000E-03 0.  1.
         11   -1    0    0    0    0 -0.00000000000E+00 -0.00000000000E+00 -0.45593999997E+02  0.45594000000E+02  0.51100000000E-03 0. -1.
    9900012    2    1    2    0    0  0.21553950616E+02 -0.27717576609E+02 -0.25510516972E+02  0.47787270555E+02  0.19999997766E+02 0.  0.
        -12    1    1    2    0    0 -0.21553950616E+02  0.27717576609E+02  0.25510516972E+02  0.43400729445E+02  0.00000000000E+00 0.  1.
         11    1    3    3    0    0  0.12173839589E+02 -0.23552388056E+02 -0.21933125601E+02  0.34409001037E+02  0.51100000000E-03 0. -1.
        -11    1    3    3    0    0  0.63346067399E+01 -0.64810447361E+01 -0.23955267749E+01  0.93738856517E+01  0.51100000000E-03 0.  1.
         12    1    3    3    0    0  0.30455042876E+01  0.23158561828E+01 -0.11818645959E+01  0.40043838662E+01  0.00000000000E+00 0. -1.
</event>
<event>
 7    1  0.1427898E-010  0.4778726E+02  0.7816164E-02  0.1312668E+00
        -11   -1    0    0    0    0  0.00000000000E+00  0.00000000000E+00  0.45593999997E+02  0.45594000000E+02  0.51100000000E-03 0.  1.
         11   -1    0    0    0    0 -0.00000000000E+00 -0.00000000000E+00 -0.45593999997E+02  0.45594000000E+02  0.51100000000E-03 0. -1.
    9900012    2    1    2    0    0  0.29339612880E+02 -0.14680034364E+02 -0.28413157625E+02  0.47787264763E+02  0.19999971360E+02 0.  0.
        -12    1    1    2    0    0 -0.29339612880E+02  0.14680034364E+02  0.28413157625E+02  0.43400735237E+02  0.00000000000E+00 0.  1.
         11    1    3    3    0    0  0.99093928640E+01 -0.15618117739E+01 -0.65057891836E+01  0.11956613907E+02  0.51100000000E-03 0. -1.
        -11    1    3    3    0    0  0.79391693606E+01  0.11669309886E+01 -0.11011892617E+01  0.80996762972E+01  0.51100000000E-03 0.  1.
         12    1    3    3    0    0  0.11491050656E+02 -0.14285153579E+02 -0.20806179180E+02  0.27730974559E+02  0.00000000000E+00 0. -1.
</event>
<event>
 7    1  0.1427898E-010  0.4778727E+02  0.7816164E-02  0.1312668E+00
        -11   -1    0    0    0    0  0.00000000000E+00  0.00000000000E+00  0.45593999997E+02  0.45594000000E+02  0.51100000000E-03 0.  1.
         11   -1    0    0    0    0 -0.00000000000E+00 -0.00000000000E+00 -0.45593999997E+02  0.45594000000E+02  0.51100000000E-03 0. -1.
    9900012    2    1    2    0    0  0.23422799037E+02  0.34363818680E+02  0.12414668518E+02  0.47787267939E+02  0.19999985843E+02 0.  0.
        -12    1    1    2    0    0 -0.23422799037E+02 -0.34363818680E+02 -0.12414668518E+02  0.43400732061E+02  0.00000000000E+00 0.  1.
         11    1    3    3    0    0  0.48564125912E+00  0.18487347119E+01 -0.22078932408E+01  0.29203527684E+01  0.51100000000E-03 0.  1.
        -11    1    3    3    0    0  0.65812110642E+01  0.14041127883E+01  0.51228260691E+01  0.84573766020E+01  0.51100000000E-03 0. -1.
         12    1    3    3    0    0  0.16355946713E+02  0.31110971180E+02  0.94997356899E+01  0.36409538569E+02  0.00000000000E+00 0. -1.
</event>
<event>
 7    1  0.1427898E-010  0.4778727E+02  0.7816164E-02  0.1312668E+00
        -11   -1    0    0    0    0  0.00000000000E+00  0.00000000000E+00  0.45593999997E+02  0.45594000000E+02  0.51100000000E-03 0.  1.
         11   -1    0    0    0    0 -0.00000000000E+00 -0.00000000000E+00 -0.45593999997E+02  0.45594000000E+02  0.51100000000E-03 0. -1.
    9900012    2    1    2    0    0  0.25149518792E+01 -0.19453062092E+02 -0.38715327661E+02  0.47787271854E+02  0.20000003691E+02 0.  0.
        -12    1    1    2    0    0 -0.25149518792E+01  0.19453062092E+02  0.38715327661E+02  0.43400728146E+02  0.00000000000E+00 0.  1.
         11    1    3    3    0    0  0.62645617118E+01 -0.95571184472E+01 -0.15488705046E+02  0.19247940948E+02  0.51100000000E-03 0. -1.
        -11    1    3    3    0    0 -0.12910080698E+01 -0.24747686516E+00  0.14335145296E+01  0.19449706431E+01  0.51100000000E-03 0.  1.
        -12    1    3    3    0    0 -0.24586017629E+01 -0.96484667792E+01 -0.24660137145E+02  0.26594360263E+02  0.00000000000E+00 0.  1.
</event>
<event>
 7    1  0.1427898E-010  0.4778727E+02  0.7816164E-02  0.1312668E+00
        -11   -1    0    0    0    0  0.00000000000E+00  0.00000000000E+00  0.45593999997E+02  0.45594000000E+02  0.51100000000E-03 0.  1.
         11   -1    0    0    0    0 -0.00000000000E+00 -0.00000000000E+00 -0.45593999997E+02  0.45594000000E+02  0.51100000000E-03 0. -1.
    9900012    2    1    2    0    0  0.18783522542E+02 -0.14204329745E+02 -0.36455996896E+02  0.47787269450E+02  0.19999992732E+02 0.  0.
        -12    1    1    2    0    0 -0.18783522542E+02  0.14204329745E+02  0.36455996896E+02  0.43400730550E+02  0.00000000000E+00 0.  1.
         11    1    3    3    0    0  0.81129544133E+01 -0.76305079288E+01 -0.18632168125E+02  0.21707196269E+02  0.51100000000E-03 0. -1.
        -11    1    3    3    0    0 -0.10361556891E+01 -0.68255957987E+01 -0.40593860658E+01  0.80088071591E+01  0.51100000000E-03 0.  1.
         12    1    3    3    0    0  0.11706723817E+02  0.25177398255E+00 -0.13764442705E+02  0.18071266023E+02  0.00000000000E+00 0. -1.
</event>
<event>
 7    1  0.1427898E-010  0.4778728E+02  0.7816164E-02  0.1312668E+00
        -11   -1    0    0    0    0  0.00000000000E+00  0.00000000000E+00  0.45593999997E+02  0.45594000000E+02  0.51100000000E-03 0. -1.
         11   -1    0    0    0    0 -0.00000000000E+00 -0.00000000000E+00 -0.45593999997E+02  0.45594000000E+02  0.51100000000E-03 0.  1.
    9900012    2    1    2    0    0  0.30988643919E+02 -0.30326131705E+02  0.19111371822E+01  0.47787276948E+02  0.20000026915E+02 0.  0.
        -12    1    1    2    0    0 -0.30988643919E+02  0.30326131705E+02 -0.19111371822E+01  0.43400723052E+02  0.00000000000E+00 0.  1.
         11    1    3    3    0    0  0.11118659176E+02 -0.28619526954E+01  0.52692002850E+00  0.11493171890E+02  0.51100000000E-03 0. -1.
        -11    1    3    3    0    0  0.10441628500E+02 -0.16140095927E+02 -0.55506427859E+01  0.20008496642E+02  0.51100000000E-03 0.  1.
         12    1    3    3    0    0  0.94283562431E+01 -0.11324083082E+02  0.69348599396E+01  0.16285608416E+02  0.00000000000E+00 0. -1.
</event>
<event>
 7    1  0.1427898E-010  0.4778726E+02  0.7816164E-02  0.1312668E+00
        -11   -1    0    0    0    0  0.00000000000E+00  0.00000000000E+00  0.45593999997E+02  0.45594000000E+02  0.51100000000E-03 0.  1.
         11   -1    0    0    0    0 -0.00000000000E+00 -0.00000000000E+00 -0.45593999997E+02  0.45594000000E+02  0.51100000000E-03 0. -1.
    9900012    2    1    2    0    0 -0.31268673946E+02  0.84960889309E+01 -0.28874046346E+02  0.47787262105E+02  0.19999959242E+02 0.  0.
        -12    1    1    2    0    0  0.31268673946E+02 -0.84960889309E+01  0.28874046346E+02  0.43400737895E+02  0.00000000000E+00 0.  1.
         11    1    3    3    0    0 -0.14509061577E+02  0.12728661070E+02 -0.90360882739E+01  0.21311559587E+02  0.51100000000E-03 0. -1.
        -11    1    3    3    0    0 -0.30216248319E+01 -0.18659048798E+01 -0.47905238898E+01  0.59632991745E+01  0.51100000000E-03 0.  1.
        -12    1    3    3    0    0 -0.13737987536E+02 -0.23666672589E+01 -0.15047434182E+02  0.20512403344E+02  0.00000000000E+00 0.  1.
</event>
<event>
 7    1  0.1427898E-010  0.4778727E+02  0.7816164E-02  0.1312668E+00
        -11   -1    0    0    0    0  0.00000000000E+00  0.00000000000E+00  0.45593999997E+02  0.45594000000E+02  0.51100000000E-03 0.  1.
         11   -1    0    0    0    0 -0.00000000000E+00 -0.00000000000E+00 -0.45593999997E+02  0.45594000000E+02  0.51100000000E-03 0. -1.
    9900012    2    1    2    0    0  0.39128449181E+02  0.13387078289E+02 -0.13167155346E+02  0.47787269818E+02  0.19999994406E+02 0.  0.
        -12    1    1    2    0    0 -0.39128449181E+02 -0.13387078289E+02  0.13167155346E+02  0.43400730182E+02  0.00000000000E+00 0.  1.
         11    1    3    3    0    0  0.39301821418E+02  0.11222714860E+02 -0.11744473913E+02  0.42526640631E+02  0.51100000000E-03 0. -1.
        -11    1    3    3    0    0  0.16064540748E+01 -0.45046965573E-02  0.69010514289E+00  0.17484165282E+01  0.51100000000E-03 0.  1.
        -12    1    3    3    0    0 -0.17798263113E+01  0.21688681252E+01 -0.21127865758E+01  0.35122126584E+01  0.00000000000E+00 0.  1.
</event>
<event>
 7    1  0.1427898E-010  0.4778726E+02  0.7816164E-02  0.1312668E+00
        -11   -1    0    0    0    0  0.00000000000E+00  0.00000000000E+00  0.45593999997E+02  0.45594000000E+02  0.51100000000E-03 0.  1.
         11   -1    0    0    0    0 -0.00000000000E+00 -0.00000000000E+00 -0.45593999997E+02  0.45594000000E+02  0.51100000000E-03 0. -1.
    9900012    2    1    2    0    0 -0.62904941562E+01  0.41252028008E+02  0.11929962780E+02  0.47787261026E+02  0.19999954323E+02 0.  0.
        -12    1    1    2    0    0  0.62904941562E+01 -0.41252028008E+02 -0.11929962780E+02  0.43400738974E+02  0.00000000000E+00 0.  1.
         11    1    3    3    0    0 -0.12787064156E+01  0.11180958501E+02  0.11707559504E+02  0.16239331048E+02  0.51100000000E-03 0. -1.
        -11    1    3    3    0    0 -0.57485630789E+01  0.12918119836E+02 -0.18281808457E+01  0.14257140073E+02  0.51100000000E-03 0.  1.
         12    1    3    3    0    0  0.73677533840E+00  0.17152949671E+02  0.20505841216E+01  0.17290789905E+02  0.00000000000E+00 0. -1.
</event>
<event>
 7    1  0.1427898E-010  0.4778727E+02  0.7816164E-02  0.1312668E+00
        -11   -1    0    0    0    0  0.00000000000E+00  0.00000000000E+00  0.45593999997E+02  0.45594000000E+02  0.51100000000E-03 0. -1.
         11   -1    0    0    0    0 -0.00000000000E+00 -0.00000000000E+00 -0.45593999997E+02  0.45594000000E+02  0.51100000000E-03 0.  1.
    9900012    2    1    2    0    0 -0.24258044399E+02  0.34881024892E+02  0.88591538618E+01  0.47787271634E+02  0.20000002686E+02 0.  0.
        -12    1    1    2    0    0  0.24258044399E+02 -0.34881024892E+02 -0.88591538618E+01  0.43400728366E+02  0.00000000000E+00 0.  1.
         11    1    3    3    0    0 -0.87511227755E+01  0.24224305605E+02  0.95608646012E+01  0.27473792313E+02  0.51100000000E-03 0. -1.
        -11    1    3    3    0    0 -0.36706987596E+01  0.58466654975E+01 -0.26400219045E+01  0.73910244717E+01  0.51100000000E-03 0.  1.
         12    1    3    3    0    0 -0.11836222864E+02  0.48100537892E+01  0.19383111652E+01  0.12922454849E+02  0.00000000000E+00 0. -1.
</event>
<event>
 7    1  0.1427898E-010  0.4778722E+02  0.7816164E-02  0.1312668E+00
        -11   -1    0    0    0    0  0.00000000000E+00  0.00000000000E+00  0.45593999997E+02  0.45594000000E+02  0.51100000000E-03 0. -1.
         11   -1    0    0    0    0 -0.00000000000E+00 -0.00000000000E+00 -0.45593999997E+02  0.45594000000E+02  0.51100000000E-03 0.  1.
    9900012    2    1    2    0    0 -0.16437781680E+02  0.34510373027E+02  0.20553854012E+02  0.47787223190E+02  0.19999781810E+02 0.  0.
        -12    1    1    2    0    0  0.16437781680E+02 -0.34510373027E+02 -0.20553854012E+02  0.43400776810E+02  0.00000000000E+00 0.  1.
         11    1    3    3    0    0 -0.73189211447E+00  0.68980165703E+00  0.32508535096E+01  0.34028724918E+01  0.51100000000E-03 0. -1.
        -11    1    3    3    0    0  0.18013419474E+01  0.51250621844E+01  0.77029716609E+01  0.94258616516E+01  0.51100000000E-03 0.  1.
         12    1    3    3    0    0 -0.17507231512E+02  0.28695509185E+02  0.96000288415E+01  0.34958489046E+02  0.00000000000E+00 0. -1.
</event>
<event>
 7    1  0.1427898E-010  0.4778728E+02  0.7816164E-02  0.1312668E+00
        -11   -1    0    0    0    0  0.00000000000E+00  0.00000000000E+00  0.45593999997E+02  0.45594000000E+02  0.51100000000E-03 0.  1.
         11   -1    0    0    0    0 -0.00000000000E+00 -0.00000000000E+00 -0.45593999997E+02  0.45594000000E+02  0.51100000000E-03 0. -1.
    9900012    2    1    2    0    0  0.14995403366E+02 -0.50005703375E+00 -0.40724815606E+02  0.47787276673E+02  0.20000025663E+02 0.  0.
        -12    1    1    2    0    0 -0.14995403366E+02  0.50005703375E+00  0.40724815606E+02  0.43400723327E+02  0.00000000000E+00 0.  1.
         11    1    3    3    0    0  0.16340961327E+00 -0.60807708575E+00 -0.18215463109E+02  0.18226342391E+02  0.51100000000E-03 0. -1.
        -11    1    3    3    0    0  0.74337551653E+01  0.60632089814E+01 -0.10032854579E+02  0.13880972238E+02  0.51100000000E-03 0.  1.
         12    1    3    3    0    0  0.73982385875E+01 -0.59551889294E+01 -0.12476497918E+02  0.15679962043E+02  0.00000000000E+00 0. -1.
</event>
<event>
 7    1  0.1427898E-010  0.4778727E+02  0.7816164E-02  0.1312668E+00
        -11   -1    0    0    0    0  0.00000000000E+00  0.00000000000E+00  0.45593999997E+02  0.45594000000E+02  0.51100000000E-03 0.  1.
         11   -1    0    0    0    0 -0.00000000000E+00 -0.00000000000E+00 -0.45593999997E+02  0.45594000000E+02  0.51100000000E-03 0. -1.
    9900012    2    1    2    0    0  0.30415794051E+02  0.25640597754E+01 -0.30853334961E+02  0.47787271798E+02  0.20000003434E+02 0.  0.
        -12    1    1    2    0    0 -0.30415794051E+02 -0.25640597754E+01  0.30853334961E+02  0.43400728202E+02  0.00000000000E+00 0.  1.
         11    1    3    3    0    0  0.29393217882E+02  0.81945430459E+01 -0.26307893109E+02  0.40289167692E+02  0.51100000000E-03 0. -1.
        -11    1    3    3    0    0 -0.35749148924E+00 -0.10872476464E+01 -0.45745829224E+00  0.12325485628E+01  0.51100000000E-03 0.  1.
         12    1    3    3    0    0  0.13800676577E+01 -0.45432356241E+01 -0.40879835597E+01  0.62655555429E+01  0.00000000000E+00 0. -1.
</event>
<event>
 7    1  0.1427898E-010  0.4778729E+02  0.7816164E-02  0.1312668E+00
        -11   -1    0    0    0    0  0.00000000000E+00  0.00000000000E+00  0.45593999997E+02  0.45594000000E+02  0.51100000000E-03 0. -1.
         11   -1    0    0    0    0 -0.00000000000E+00 -0.00000000000E+00 -0.45593999997E+02  0.45594000000E+02  0.51100000000E-03 0.  1.
    9900012    2    1    2    0    0 -0.41656561044E+02 -0.12161168429E+02  0.67686718934E+00  0.47787294420E+02  0.20000106580E+02 0.  0.
        -12    1    1    2    0    0  0.41656561044E+02  0.12161168429E+02 -0.67686718934E+00  0.43400705580E+02  0.00000000000E+00 0.  1.
         11    1    3    3    0    0 -0.35869145595E+02 -0.12648082346E+02  0.39156549930E+01  0.38234826364E+02  0.51100000000E-03 0. -1.
        -11    1    3    3    0    0 -0.34096584348E+01 -0.28348780512E+01 -0.16000512847E+00  0.44371056005E+01  0.51100000000E-03 0.  1.
        -12    1    3    3    0    0 -0.23777570144E+01  0.33217919681E+01 -0.30787826752E+01  0.51153624563E+01  0.00000000000E+00 0.  1.
</event>
<event>
 7    1  0.1427898E-010  0.4778727E+02  0.7816164E-02  0.1312668E+00
        -11   -1    0    0    0    0  0.00000000000E+00  0.00000000000E+00  0.45593999997E+02  0.45594000000E+02  0.51100000000E-03 0.  1.
         11   -1    0    0    0    0 -0.00000000000E+00 -0.00000000000E+00 -0.45593999997E+02  0.45594000000E+02  0.51100000000E-03 0. -1.
    9900012    2    1    2    0    0 -0.17924755634E+02 -0.34559032614E+02 -0.19183320167E+02  0.47787269910E+02  0.19999994827E+02 0.  0.
        -12    1    1    2    0    0  0.17924755634E+02  0.34559032614E+02  0.19183320167E+02  0.43400730090E+02  0.00000000000E+00 0.  1.
         11    1    3    3    0    0 -0.45927206618E+01 -0.27079035173E+02 -0.12543490815E+02  0.30194476168E+02  0.51100000000E-03 0. -1.
        -11    1    3    3    0    0 -0.21240351731E+01 -0.47421302367E+00 -0.33117055628E+01  0.39628017114E+01  0.51100000000E-03 0.  1.
         12    1    3    3    0    0 -0.11207999799E+02 -0.70057844173E+01 -0.33281237892E+01  0.13629992031E+02  0.00000000000E+00 0. -1.
</event>
<event>
 7    1  0.1427898E-010  0.4778729E+02  0.7816164E-02  0.1312668E+00
        -11   -1    0    0    0    0  0.00000000000E+00  0.00000000000E+00  0.45593999997E+02  0.45594000000E+02  0.51100000000E-03 0.  1.
         11   -1    0    0    0    0 -0.00000000000E+00 -0.00000000000E+00 -0.45593999997E+02  0.45594000000E+02  0.51100000000E-03 0. -1.
    9900012    2    1    2    0    0 -0.30920109938E+02  0.30392521983E+02  0.19655435089E+01  0.47787286269E+02  0.20000069416E+02 0.  0.
        -12    1    1    2    0    0  0.30920109938E+02 -0.30392521983E+02 -0.19655435089E+01  0.43400713731E+02  0.00000000000E+00 0.  1.
         11    1    3    3    0    0 -0.96002772208E+01  0.11168753027E+02  0.11180709622E+01  0.14770120170E+02  0.51100000000E-03 0. -1.
        -11    1    3    3    0    0 -0.12631939324E+02  0.93475706863E+00  0.15265071749E+01  0.12758130203E+02  0.51100000000E-03 0.  1.
        -12    1    3    3    0    0 -0.86878933933E+01  0.18289011888E+02 -0.67903462821E+00  0.20259035897E+02  0.00000000000E+00 0.  1.
</event>
<event>
 7    1  0.1427898E-010  0.4778730E+02  0.7816164E-02  0.1312668E+00
        -11   -1    0    0    0    0  0.00000000000E+00  0.00000000000E+00  0.45593999997E+02  0.45594000000E+02  0.51100000000E-03 0.  1.
         11   -1    0    0    0    0 -0.00000000000E+00 -0.00000000000E+00 -0.45593999997E+02  0.45594000000E+02  0.51100000000E-03 0. -1.
    9900012    2    1    2    0    0 -0.16753789082E+02 -0.11048170318E+02 -0.38482064989E+02  0.47787299064E+02  0.20000127750E+02 0.  0.
        -12    1    1    2    0    0  0.16753789082E+02  0.11048170318E+02  0.38482064989E+02  0.43400700936E+02  0.00000000000E+00 0.  1.
         11    1    3    3    0    0 -0.70253399302E+01 -0.11143662282E+02 -0.11843455990E+02  0.17714515524E+02  0.51100000000E-03 0. -1.
        -11    1    3    3    0    0  0.18993520806E+01 -0.47921320776E+00 -0.18869075230E+01  0.27198536516E+01  0.51100000000E-03 0.  1.
         12    1    3    3    0    0 -0.11627801233E+02  0.57470517135E+00 -0.24751701475E+02  0.27352929888E+02  0.00000000000E+00 0. -1.
</event>
<event>
 7    1  0.1427898E-010  0.4778727E+02  0.7816164E-02  0.1312668E+00
        -11   -1    0    0    0    0  0.00000000000E+00  0.00000000000E+00  0.45593999997E+02  0.45594000000E+02  0.51100000000E-03 0. -1.
         11   -1    0    0    0    0 -0.00000000000E+00 -0.00000000000E+00 -0.45593999997E+02  0.45594000000E+02  0.51100000000E-03 0.  1.
    9900012    2    1    2    0    0 -0.15990595733E+02  0.40072478837E+02  0.47032785495E+01  0.47787267965E+02  0.19999985960E+02 0.  0.
        -12    1    1    2    0    0  0.15990595733E+02 -0.40072478837E+02 -0.47032785495E+01  0.43400732035E+02  0.00000000000E+00 0.  1.
         11    1    3    3    0    0 -0.95065042259E+00 -0.85628751990E+00 -0.86458118951E+00  0.15441714403E+01  0.51100000000E-03 0. -1.
        -11    1    3    3    0    0 -0.19468564591E+01  0.82133323753E+01 -0.45393224865E+01  0.95840767775E+01  0.51100000000E-03 0.  1.
         12    1    3    3    0    0 -0.13093088852E+02  0.32715433982E+02  0.10107182225E+02  0.36659019747E+02  0.00000000000E+00 0. -1.
</event>
<event>
 7    1  0.1427898E-010  0.4778728E+02  0.7816164E-02  0.1312668E+00
        -11   -1    0    0    0    0  0.00000000000E+00  0.00000000000E+00  0.45593999997E+02  0.45594000000E+02  0.51100000000E-03 0. -1.
         11   -1    0    0    0    0 -0.00000000000E+00 -0.00000000000E+00 -0.45593999997E+02  0.45594000000E+02  0.51100000000E-03 0.  1.
    9900012    2    1    2    0    0 -0.24422521463E+02  0.35300761810E+02 -0.64046493548E+01  0.47787275670E+02  0.20000021092E+02 0.  0.
        -12    1    1    2    0    0  0.24422521463E+02 -0.35300761810E+02  0.64046493548E+01  0.43400724330E+02  0.00000000000E+00 0.  1.
         11    1    3    3    0    0 -0.16805855413E+02  0.16000944967E+02  0.18688814415E-01  0.23204899602E+02  0.51100000000E-03 0. -1.
        -11    1    3    3    0    0 -0.80360113394E+01  0.69002559315E+01 -0.59893732188E+01  0.12168138805E+02  0.51100000000E-03 0.  1.
        -12    1    3    3    0    0  0.41934528871E+00  0.12399560911E+02 -0.43396495041E+00  0.12414237264E+02  0.00000000000E+00 0.  1.
</event>
<event>
 7    1  0.1427898E-010  0.4778727E+02  0.7816164E-02  0.1312668E+00
        -11   -1    0    0    0    0  0.00000000000E+00  0.00000000000E+00  0.45593999997E+02  0.45594000000E+02  0.51100000000E-03 0.  1.
         11   -1    0    0    0    0 -0.00000000000E+00 -0.00000000000E+00 -0.45593999997E+02  0.45594000000E+02  0.51100000000E-03 0. -1.
    9900012    2    1    2    0    0 -0.43330856316E+02 -0.24561758087E+01  0.16637861911E+00  0.47787267396E+02  0.19999983366E+02 0.  0.
        -12    1    1    2    0    0  0.43330856316E+02  0.24561758087E+01 -0.16637861911E+00  0.43400732604E+02  0.00000000000E+00 0.  1.
         11    1    3    3    0    0 -0.31265649673E+02 -0.34553715297E+01 -0.25192460210E+01  0.31556727376E+02  0.51100000000E-03 0. -1.
        -11    1    3    3    0    0 -0.11670728028E+02  0.66146240202E+00 -0.17016270900E+01  0.11812661014E+02  0.51100000000E-03 0.  1.
        -12    1    3    3    0    0 -0.39447861508E+00  0.33773331895E+00  0.43872517301E+01  0.44178790065E+01  0.00000000000E+00 0.  1.
</event>
<event>
 7    1  0.1427898E-010  0.4778727E+02  0.7816164E-02  0.1312668E+00
        -11   -1    0    0    0    0  0.00000000000E+00  0.00000000000E+00  0.45593999997E+02  0.45594000000E+02  0.51100000000E-03 0.  1.
         11   -1    0    0    0    0 -0.00000000000E+00 -0.00000000000E+00 -0.45593999997E+02  0.45594000000E+02  0.51100000000E-03 0. -1.
    9900012    2    1    2    0    0 -0.24361610726E+02  0.77120978300E+00 -0.35910172416E+02  0.47787270459E+02  0.19999997332E+02 0.  0.
        -12    1    1    2    0    0  0.24361610726E+02 -0.77120978300E+00  0.35910172416E+02  0.43400729541E+02  0.00000000000E+00 0.  1.
         11    1    3    3    0    0 -0.96977787360E+01 -0.80210335766E+00 -0.15449397751E+02  0.18258536999E+02  0.51100000000E-03 0. -1.
        -11    1    3    3    0    0 -0.55765575779E+01  0.77642723105E+01 -0.57249715081E+01  0.11142585784E+02  0.51100000000E-03 0.  1.
         12    1    3    3    0    0 -0.90872744123E+01 -0.61909591699E+01 -0.14735803157E+02  0.18386147677E+02  0.00000000000E+00 0. -1.
</event>
<event>
 7    1  0.1427898E-010  0.4778727E+02  0.7816164E-02  0.1312668E+00
        -11   -1    0    0    0    0  0.00000000000E+00  0.00000000000E+00  0.45593999997E+02  0.45594000000E+02  0.51100000000E-03 0.  1.
         11   -1    0    0    0    0 -0.00000000000E+00 -0.00000000000E+00 -0.45593999997E+02  0.45594000000E+02  0.51100000000E-03 0. -1.
    9900012    2    1    2    0    0  0.20526564218E+01 -0.29218877303E+02 -0.32026038562E+02  0.47787270338E+02  0.19999996779E+02 0.  0.
        -12    1    1    2    0    0 -0.20526564218E+01  0.29218877303E+02  0.32026038562E+02  0.43400729662E+02  0.00000000000E+00 0.  1.
         11    1    3    3    0    0  0.37247101044E+01 -0.14663967955E+01 -0.17701817146E+01  0.43769085537E+01  0.51100000000E-03 0.  1.
        -11    1    3    3    0    0  0.31902987041E+01 -0.30349395847E+01 -0.51313649676E+00  0.44330771964E+01  0.51100000000E-03 0. -1.
         12    1    3    3    0    0 -0.48623523866E+01 -0.24717540923E+02 -0.29742720350E+02  0.38977284588E+02  0.00000000000E+00 0. -1.
</event>
<event>
 7    1  0.1427898E-010  0.4778727E+02  0.7816164E-02  0.1312668E+00
        -11   -1    0    0    0    0  0.00000000000E+00  0.00000000000E+00  0.45593999997E+02  0.45594000000E+02  0.51100000000E-03 0. -1.
         11   -1    0    0    0    0 -0.00000000000E+00 -0.00000000000E+00 -0.45593999997E+02  0.45594000000E+02  0.51100000000E-03 0.  1.
    9900012    2    1    2    0    0  0.22337482374E+02  0.19067710841E+02  0.31954383722E+02  0.47787270114E+02  0.19999995759E+02 0.  0.
        -12    1    1    2    0    0 -0.22337482374E+02 -0.19067710841E+02 -0.31954383722E+02  0.43400729886E+02  0.00000000000E+00 0.  1.
         11    1    3    3    0    0  0.88147192025E+01  0.27107438478E+01  0.15312682642E+02  0.17875280607E+02  0.51100000000E-03 0. -1.
        -11    1    3    3    0    0  0.73198561402E+01  0.28713526900E+01  0.34796437072E+00  0.78705806423E+01  0.51100000000E-03 0.  1.
         12    1    3    3    0    0  0.62029070311E+01  0.13485614304E+02  0.16293736710E+02  0.22041408865E+02  0.00000000000E+00 0. -1.
</event>
<event>
 7    1  0.1427898E-010  0.4778728E+02  0.7816164E-02  0.1312668E+00
        -11   -1    0    0    0    0  0.00000000000E+00  0.00000000000E+00  0.45593999997E+02  0.45594000000E+02  0.51100000000E-03 0.  1.
         11   -1    0    0    0    0 -0.00000000000E+00 -0.00000000000E+00 -0.45593999997E+02  0.45594000000E+02  0.51100000000E-03 0. -1.
    9900012    2    1    2    0    0 -0.25993550923E+02 -0.16444836813E+02 -0.30619030158E+02  0.47787281628E+02  0.20000048254E+02 0.  0.
        -12    1    1    2    0    0  0.25993550923E+02  0.16444836813E+02  0.30619030158E+02  0.43400718372E+02  0.00000000000E+00 0.  1.
         11    1    3    3    0    0  0.16071026153E+01 -0.56373462872E+00 -0.37148399889E+00  0.17431512185E+01  0.51100000000E-03 0. -1.
        -11    1    3    3    0    0 -0.59931486872E+01 -0.11055455564E+02 -0.10981753334E+02  0.16695503450E+02  0.51100000000E-03 0.  1.
         12    1    3    3    0    0 -0.21607504851E+02 -0.48256466203E+01 -0.19265792826E+02  0.29348626959E+02  0.00000000000E+00 0. -1.
</event>
<event>
 7    1  0.1427898E-010  0.4778727E+02  0.7816164E-02  0.1312668E+00
        -11   -1    0    0    0    0  0.00000000000E+00  0.00000000000E+00  0.45593999997E+02  0.45594000000E+02  0.51100000000E-03 0.  1.
         11   -1    0    0    0    0 -0.00000000000E+00 -0.00000000000E+00 -0.45593999997E+02  0.45594000000E+02  0.51100000000E-03 0. -1.
    9900012    2    1    2    0    0 -0.10498655125E+01  0.24478901099E+02 -0.35823245607E+02  0.47787265647E+02  0.19999975390E+02 0.  0.
        -12    1    1    2    0    0  0.10498655125E+01 -0.24478901099E+02  0.35823245607E+02  0.43400734353E+02  0.00000000000E+00 0.  1.
         11    1    3    3    0    0 -0.24197485853E+01  0.14963253201E+02 -0.64188476894E+01  0.16460733140E+02  0.51100000000E-03 0. -1.
        -11    1    3    3    0    0  0.44533136370E+00 -0.22374783209E+00 -0.51402722256E+01  0.51643762383E+01  0.51100000000E-03 0.  1.
         12    1    3    3    0    0  0.92455170910E+00  0.97393957300E+01 -0.24264125691E+02  0.26162156269E+02  0.00000000000E+00 0. -1.
</event>
<event>
 7    1  0.1427898E-010  0.4778727E+02  0.7816164E-02  0.1312668E+00
        -11   -1    0    0    0    0  0.00000000000E+00  0.00000000000E+00  0.45593999997E+02  0.45594000000E+02  0.51100000000E-03 0.  1.
         11   -1    0    0    0    0 -0.00000000000E+00 -0.00000000000E+00 -0.45593999997E+02  0.45594000000E+02  0.51100000000E-03 0. -1.
    9900012    2    1    2    0    0 -0.70251366196E+01 -0.11174118328E+02 -0.41345009264E+02  0.47787271250E+02  0.20000000940E+02 0.  0.
        -12    1    1    2    0    0  0.70251366196E+01  0.11174118328E+02  0.41345009264E+02  0.43400728750E+02  0.00000000000E+00 0.  1.
         11    1    3    3    0    0 -0.10271018316E+02 -0.11663477376E+00 -0.17786852920E+02  0.20539706862E+02  0.51100000000E-03 0. -1.
        -11    1    3    3    0    0 -0.16282906986E+01 -0.73652383417E+01 -0.13947253955E+02  0.15856353919E+02  0.51100000000E-03 0.  1.
        -12    1    3    3    0    0  0.48741723949E+01 -0.36922452130E+01 -0.96109023882E+01  0.11391210470E+02  0.00000000000E+00 0.  1.
</event>
<event>
 7    1  0.1427898E-010  0.4778727E+02  0.7816164E-02  0.1312668E+00
        -11   -1    0    0    0    0  0.00000000000E+00  0.00000000000E+00  0.45593999997E+02  0.45594000000E+02  0.51100000000E-03 0.  1.
         11   -1    0    0    0    0 -0.00000000000E+00 -0.00000000000E+00 -0.45593999997E+02  0.45594000000E+02  0.51100000000E-03 0. -1.
    9900012    2    1    2    0    0 -0.31271551360E+02  0.10513135942E+02 -0.28199064319E+02  0.47787272123E+02  0.20000004917E+02 0.  0.
        -12    1    1    2    0    0  0.31271551360E+02 -0.10513135942E+02  0.28199064319E+02  0.43400727877E+02  0.00000000000E+00 0.  1.
         11    1    3    3    0    0 -0.10085816353E+02  0.36586267497E+01 -0.20125962051E+02  0.22807095167E+02  0.51100000000E-03 0. -1.
        -11    1    3    3    0    0 -0.43551241478E+01 -0.14417933465E+01 -0.32002219189E+01  0.55935047142E+01  0.51100000000E-03 0.  1.
        -12    1    3    3    0    0 -0.16830610860E+02  0.82963025388E+01 -0.48728803483E+01  0.19386672242E+02  0.00000000000E+00 0.  1.
</event>
<event>
 7    1  0.1427898E-010  0.4778727E+02  0.7816164E-02  0.1312668E+00
        -11   -1    0    0    0    0  0.00000000000E+00  0.00000000000E+00  0.45593999997E+02  0.45594000000E+02  0.51100000000E-03 0. -1.
         11   -1    0    0    0    0 -0.00000000000E+00 -0.00000000000E+00 -0.45593999997E+02  0.45594000000E+02  0.51100000000E-03 0.  1.
    9900012    2    1    2    0    0  0.14955880291E+02  0.38280893209E+02  0.13946972174E+02  0.47787272206E+02  0.20000005298E+02 0.  0.
        -12    1    1    2    0    0 -0.14955880291E+02 -0.38280893209E+02 -0.13946972174E+02  0.43400727794E+02  0.00000000000E+00 0.  1.
         11    1    3    3    0    0  0.43430329082E+01  0.12692794502E+02  0.10273256147E+02  0.16897004446E+02  0.51100000000E-03 0. -1.
        -11    1    3    3    0    0  0.64485571059E+01  0.13377214887E+02  0.85055786517E+01  0.17113697302E+02  0.51100000000E-03 0.  1.
        -12    1    3    3    0    0  0.41642902768E+01  0.12210883820E+02 -0.48318626246E+01  0.13776570458E+02  0.00000000000E+00 0.  1.
</event>
<event>
 7    1  0.1427898E-010  0.4778727E+02  0.7816164E-02  0.1312668E+00
        -11   -1    0    0    0    0  0.00000000000E+00  0.00000000000E+00  0.45593999997E+02  0.45594000000E+02  0.51100000000E-03 0.  1.
         11   -1    0    0    0    0 -0.00000000000E+00 -0.00000000000E+00 -0.45593999997E+02  0.45594000000E+02  0.51100000000E-03 0. -1.
    9900012    2    1    2    0    0  0.18186724963E+02  0.39332511354E+02  0.24124324303E+01  0.47787271383E+02  0.20000001544E+02 0.  0.
        -12    1    1    2    0    0 -0.18186724963E+02 -0.39332511354E+02 -0.24124324303E+01  0.43400728617E+02  0.00000000000E+00 0.  1.
         11    1    3    3    0    0  0.27271598135E+00  0.14332352934E+01 -0.98749978559E+00  0.17617302576E+01  0.51100000000E-03 0. -1.
        -11    1    3    3    0    0 -0.28143941180E+01  0.65334443880E+01 -0.32914906133E+01  0.78384067603E+01  0.51100000000E-03 0.  1.
         12    1    3    3    0    0  0.20728403099E+02  0.31365831672E+02  0.66914228292E+01  0.38187134365E+02  0.00000000000E+00 0. -1.
</event>
<event>
 7    1  0.1427898E-010  0.4778727E+02  0.7816164E-02  0.1312668E+00
        -11   -1    0    0    0    0  0.00000000000E+00  0.00000000000E+00  0.45593999997E+02  0.45594000000E+02  0.51100000000E-03 0.  1.
         11   -1    0    0    0    0 -0.00000000000E+00 -0.00000000000E+00 -0.45593999997E+02  0.45594000000E+02  0.51100000000E-03 0. -1.
    9900012    2    1    2    0    0  0.92469798256E+01 -0.14674224888E+02 -0.39784215342E+02  0.47787270716E+02  0.19999998504E+02 0.  0.
        -12    1    1    2    0    0 -0.92469798256E+01  0.14674224888E+02  0.39784215342E+02  0.43400729284E+02  0.00000000000E+00 0.  1.
         11    1    3    3    0    0  0.35365994094E+01 -0.74654556988E+01 -0.25871208361E+02  0.27158055646E+02  0.51100000000E-03 0. -1.
        -11    1    3    3    0    0  0.84862763177E+01 -0.37727760943E+01 -0.13222859928E+02  0.16158426598E+02  0.51100000000E-03 0.  1.
        -12    1    3    3    0    0 -0.27758959016E+01 -0.34359930950E+01 -0.69014705335E+00  0.44707884719E+01  0.00000000000E+00 0.  1.
</event>
<event>
 7    1  0.1427898E-010  0.4778727E+02  0.7816164E-02  0.1312668E+00
        -11   -1    0    0    0    0  0.00000000000E+00  0.00000000000E+00  0.45593999997E+02  0.45594000000E+02  0.51100000000E-03 0.  1.
         11   -1    0    0    0    0 -0.00000000000E+00 -0.00000000000E+00 -0.45593999997E+02  0.45594000000E+02  0.51100000000E-03 0. -1.
    9900012    2    1    2    0    0  0.50531168269E+01 -0.54789432665E+01 -0.42755941857E+02  0.47787269902E+02  0.19999994792E+02 0.  0.
        -12    1    1    2    0    0 -0.50531168269E+01  0.54789432665E+01  0.42755941857E+02  0.43400730098E+02  0.00000000000E+00 0.  1.
         11    1    3    3    0    0  0.29795309225E+01  0.22234565519E+01 -0.17433927406E+02  0.17825913402E+02  0.51100000000E-03 0. -1.
        -11    1    3    3    0    0 -0.23428832440E+01 -0.66857934187E+00  0.78922711072E+00  0.25610505510E+01  0.51100000000E-03 0.  1.
         12    1    3    3    0    0  0.44164691483E+01 -0.70338204765E+01 -0.26111241561E+02  0.27400305949E+02  0.00000000000E+00 0. -1.
</event>
<event>
 7    1  0.1427898E-010  0.4778725E+02  0.7816164E-02  0.1312668E+00
        -11   -1    0    0    0    0  0.00000000000E+00  0.00000000000E+00  0.45593999997E+02  0.45594000000E+02  0.51100000000E-03 0. -1.
         11   -1    0    0    0    0 -0.00000000000E+00 -0.00000000000E+00 -0.45593999997E+02  0.45594000000E+02  0.51100000000E-03 0.  1.
    9900012    2    1    2    0    0 -0.17284094020E+02  0.36080504672E+02 -0.16825062616E+02  0.47787245911E+02  0.19999885406E+02 0.  0.
        -12    1    1    2    0    0  0.17284094020E+02 -0.36080504672E+02  0.16825062616E+02  0.43400754089E+02  0.00000000000E+00 0.  1.
         11    1    3    3    0    0 -0.41424420016E+00  0.79383176719E+01  0.19165808840E+01  0.81769045649E+01  0.51100000000E-03 0. -1.
        -11    1    3    3    0    0  0.14362975158E+01  0.25503895945E+01  0.11185243305E+00  0.29291549746E+01  0.51100000000E-03 0.  1.
         12    1    3    3    0    0 -0.18306147336E+02  0.25591797405E+02 -0.18853495933E+02  0.36681186371E+02  0.00000000000E+00 0. -1.
</event>
<event>
 7    1  0.1427898E-010  0.4778727E+02  0.7816164E-02  0.1312668E+00
        -11   -1    0    0    0    0  0.00000000000E+00  0.00000000000E+00  0.45593999997E+02  0.45594000000E+02  0.51100000000E-03 0. -1.
         11   -1    0    0    0    0 -0.00000000000E+00 -0.00000000000E+00 -0.45593999997E+02  0.45594000000E+02  0.51100000000E-03 0.  1.
    9900012    2    1    2    0    0 -0.35956914620E+02  0.24241374786E+02 -0.17548012552E+01  0.47787270882E+02  0.19999999261E+02 0.  0.
        -12    1    1    2    0    0  0.35956914620E+02 -0.24241374786E+02  0.17548012552E+01  0.43400729118E+02  0.00000000000E+00 0.  1.
         11    1    3    3    0    0 -0.42517782373E+01 -0.11263012272E+01 -0.26776815118E+01  0.51493835721E+01  0.51100000000E-03 0. -1.
        -11    1    3    3    0    0 -0.24182581579E+02  0.24115489055E+02 -0.25730304552E+01  0.34248716037E+02  0.51100000000E-03 0.  1.
         12    1    3    3    0    0 -0.75225548037E+01  0.12521869583E+01  0.34959107118E+01  0.83891712736E+01  0.00000000000E+00 0. -1.
</event>
<event>
 7    1  0.1427898E-010  0.4778726E+02  0.7816164E-02  0.1312668E+00
        -11   -1    0    0    0    0  0.00000000000E+00  0.00000000000E+00  0.45593999997E+02  0.45594000000E+02  0.51100000000E-03 0.  1.
         11   -1    0    0    0    0 -0.00000000000E+00 -0.00000000000E+00 -0.45593999997E+02  0.45594000000E+02  0.51100000000E-03 0. -1.
    9900012    2    1    2    0    0 -0.36552578638E+02 -0.20193319877E+01 -0.23312126798E+02  0.47787263110E+02  0.19999963824E+02 0.  0.
        -12    1    1    2    0    0  0.36552578638E+02  0.20193319877E+01  0.23312126798E+02  0.43400736890E+02  0.00000000000E+00 0.  1.
         11    1    3    3    0    0 -0.13233808369E+02 -0.55314126847E+01 -0.10721600806E+02  0.17907622241E+02  0.51100000000E-03 0. -1.
        -11    1    3    3    0    0  0.71847172537E+00 -0.22518616112E+01 -0.13863821542E+01  0.27402806562E+01  0.51100000000E-03 0.  1.
         12    1    3    3    0    0 -0.24037241994E+02  0.57639423082E+01 -0.11204143838E+02  0.27139360212E+02  0.00000000000E+00 0. -1.
</event>
<event>
 7    1  0.1427898E-010  0.4778728E+02  0.7816164E-02  0.1312668E+00
        -11   -1    0    0    0    0  0.00000000000E+00  0.00000000000E+00  0.45593999997E+02  0.45594000000E+02  0.51100000000E-03 0.  1.
         11   -1    0    0    0    0 -0.00000000000E+00 -0.00000000000E+00 -0.45593999997E+02  0.45594000000E+02  0.51100000000E-03 0. -1.
    9900012    2    1    2    0    0  0.63841055594E+01 -0.38003168863E+01 -0.42760069816E+02  0.47787276701E+02  0.20000025791E+02 0.  0.
        -12    1    1    2    0    0 -0.63841055594E+01  0.38003168863E+01  0.42760069816E+02  0.43400723299E+02  0.00000000000E+00 0.  1.
         11    1    3    3    0    0  0.31252488078E+01  0.16117119610E+01 -0.11163132352E+01  0.36893022452E+01  0.51100000000E-03 0. -1.
        -11    1    3    3    0    0 -0.19969920221E+01 -0.10594402309E+01 -0.40278564597E+00  0.22962202152E+01  0.51100000000E-03 0.  1.
         12    1    3    3    0    0  0.52558487736E+01 -0.43525886164E+01 -0.41240970934E+02  0.41801754241E+02  0.00000000000E+00 0. -1.
</event>
<event>
 7    1  0.1427898E-010  0.4778727E+02  0.7816164E-02  0.1312668E+00
        -11   -1    0    0    0    0  0.00000000000E+00  0.00000000000E+00  0.45593999997E+02  0.45594000000E+02  0.51100000000E-03 0.  1.
         11   -1    0    0    0    0 -0.00000000000E+00 -0.00000000000E+00 -0.45593999997E+02  0.45594000000E+02  0.51100000000E-03 0. -1.
    9900012    2    1    2    0    0  0.37468591205E+02  0.48163269757E+01 -0.21366594498E+02  0.47787266218E+02  0.19999977993E+02 0.  0.
        -12    1    1    2    0    0 -0.37468591205E+02 -0.48163269757E+01  0.21366594498E+02  0.43400733782E+02  0.00000000000E+00 0.  1.
         11    1    3    3    0    0  0.20664090560E+02  0.55429443923E+00 -0.83479874554E+01  0.22293514209E+02  0.51100000000E-03 0. -1.
        -11    1    3    3    0    0  0.10340057544E+02 -0.12544791179E+01 -0.13417780766E+02  0.16986092806E+02  0.51100000000E-03 0.  1.
        -12    1    3    3    0    0  0.64644431014E+01  0.55165116544E+01  0.39917372337E+00  0.85076592025E+01  0.00000000000E+00 0.  1.
</event>
<event>
 7    1  0.1427898E-010  0.4778727E+02  0.7816164E-02  0.1312668E+00
        -11   -1    0    0    0    0  0.00000000000E+00  0.00000000000E+00  0.45593999997E+02  0.45594000000E+02  0.51100000000E-03 0. -1.
         11   -1    0    0    0    0 -0.00000000000E+00 -0.00000000000E+00 -0.45593999997E+02  0.45594000000E+02  0.51100000000E-03 0.  1.
    9900012    2    1    2    0    0 -0.14516246014E+02  0.97264191522E+01  0.39727804972E+02  0.47787272866E+02  0.20000008304E+02 0.  0.
        -12    1    1    2    0    0  0.14516246014E+02 -0.97264191522E+01 -0.39727804972E+02  0.43400727134E+02  0.00000000000E+00 0.  1.
         11    1    3    3    0    0 -0.16026515268E+01  0.95413657929E+01  0.17730206779E+02  0.20198177784E+02  0.51100000000E-03 0. -1.
        -11    1    3    3    0    0 -0.10919060548E+01 -0.35401123288E+01  0.84531476529E+01  0.92293206487E+01  0.51100000000E-03 0.  1.
        -12    1    3    3    0    0 -0.11821688432E+02  0.37251656882E+01  0.13544450541E+02  0.18359774433E+02  0.00000000000E+00 0.  1.
</event>
<event>
 7    1  0.1427898E-010  0.4778728E+02  0.7816164E-02  0.1312668E+00
        -11   -1    0    0    0    0  0.00000000000E+00  0.00000000000E+00  0.45593999997E+02  0.45594000000E+02  0.51100000000E-03 0. -1.
         11   -1    0    0    0    0 -0.00000000000E+00 -0.00000000000E+00 -0.45593999997E+02  0.45594000000E+02  0.51100000000E-03 0.  1.
    9900012    2    1    2    0    0 -0.13732782731E+02  0.34900518158E+02  0.21840040539E+02  0.47787275812E+02  0.20000021739E+02 0.  0.
        -12    1    1    2    0    0  0.13732782731E+02 -0.34900518158E+02 -0.21840040539E+02  0.43400724188E+02  0.00000000000E+00 0.  1.
         11    1    3    3    0    0  0.19082904721E+01  0.10307898802E+02  0.68956923009E+01  0.12547705878E+02  0.51100000000E-03 0. -1.
        -11    1    3    3    0    0 -0.57918574121E+01  0.20386054209E+02  0.94871122510E+01  0.23219434050E+02  0.51100000000E-03 0.  1.
         12    1    3    3    0    0 -0.98492157914E+01  0.42065651474E+01  0.54572359874E+01  0.12020135884E+02  0.00000000000E+00 0. -1.
</event>
<event>
 7    1  0.1427898E-010  0.4778727E+02  0.7816164E-02  0.1312668E+00
        -11   -1    0    0    0    0  0.00000000000E+00  0.00000000000E+00  0.45593999997E+02  0.45594000000E+02  0.51100000000E-03 0. -1.
         11   -1    0    0    0    0 -0.00000000000E+00 -0.00000000000E+00 -0.45593999997E+02  0.45594000000E+02  0.51100000000E-03 0.  1.
    9900012    2    1    2    0    0  0.14911084107E+02  0.30676191436E+02  0.26837546497E+02  0.47787273598E+02  0.20000011643E+02 0.  0.
        -12    1    1    2    0    0 -0.14911084107E+02 -0.30676191436E+02 -0.26837546497E+02  0.43400726402E+02  0.00000000000E+00 0.  1.
         11    1    3    3    0    0  0.38022950395E+01  0.16075416448E+02  0.19902492618E+02  0.25864757377E+02  0.51100000000E-03 0. -1.
        -11    1    3    3    0    0 -0.10942266674E+01  0.27776387956E+01 -0.10286365024E+01  0.31576419356E+01  0.51100000000E-03 0.  1.
        -12    1    3    3    0    0  0.12203015735E+02  0.11823136192E+02  0.79636903817E+01  0.18764874285E+02  0.00000000000E+00 0.  1.
</event>
<event>
 7    1  0.1427898E-010  0.4778727E+02  0.7816164E-02  0.1312668E+00
        -11   -1    0    0    0    0  0.00000000000E+00  0.00000000000E+00  0.45593999997E+02  0.45594000000E+02  0.51100000000E-03 0.  1.
         11   -1    0    0    0    0 -0.00000000000E+00 -0.00000000000E+00 -0.45593999997E+02  0.45594000000E+02  0.51100000000E-03 0. -1.
    9900012    2    1    2    0    0 -0.11331917828E+01 -0.44586113840E+00 -0.43383640210E+02  0.47787272429E+02  0.20000006315E+02 0.  0.
        -12    1    1    2    0    0  0.11331917828E+01  0.44586113840E+00  0.43383640210E+02  0.43400727571E+02  0.00000000000E+00 0.  1.
         11    1    3    3    0    0  0.19414452824E+00  0.26739120287E+01 -0.11984142445E+02  0.12280357000E+02  0.51100000000E-03 0. -1.
        -11    1    3    3    0    0 -0.75901938858E+01 -0.43323685832E+01 -0.10530641404E+02  0.13684840862E+02  0.51100000000E-03 0.  1.
         12    1    3    3    0    0  0.62628575747E+01  0.12125954161E+01 -0.20868856361E+02  0.21822074568E+02  0.00000000000E+00 0. -1.
</event>
<event>
 7    1  0.1427898E-010  0.4778728E+02  0.7816164E-02  0.1312668E+00
        -11   -1    0    0    0    0  0.00000000000E+00  0.00000000000E+00  0.45593999997E+02  0.45594000000E+02  0.51100000000E-03 0.  1.
         11   -1    0    0    0    0 -0.00000000000E+00 -0.00000000000E+00 -0.45593999997E+02  0.45594000000E+02  0.51100000000E-03 0. -1.
    9900012    2    1    2    0    0  0.25549116214E+02 -0.21962237298E+02 -0.27359194984E+02  0.47787277003E+02  0.20000027169E+02 0.  0.
        -12    1    1    2    0    0 -0.25549116214E+02  0.21962237298E+02  0.27359194984E+02  0.43400722997E+02  0.00000000000E+00 0.  1.
         11    1    3    3    0    0  0.10501275891E+02 -0.69021545616E+01 -0.92561090130E+01  0.15607436922E+02  0.51100000000E-03 0. -1.
        -11    1    3    3    0    0 -0.15326258368E+01 -0.29233645271E+01 -0.92219821175E+01  0.97948944124E+01  0.51100000000E-03 0.  1.
        -12    1    3    3    0    0  0.16580466159E+02 -0.12136718210E+02 -0.88811038537E+01  0.22384945669E+02  0.00000000000E+00 0.  1.
</event>
<event>
 7    1  0.1427898E-010  0.4778726E+02  0.7816164E-02  0.1312668E+00
        -11   -1    0    0    0    0  0.00000000000E+00  0.00000000000E+00  0.45593999997E+02  0.45594000000E+02  0.51100000000E-03 0.  1.
         11   -1    0    0    0    0 -0.00000000000E+00 -0.00000000000E+00 -0.45593999997E+02  0.45594000000E+02  0.51100000000E-03 0. -1.
    9900012    2    1    2    0    0 -0.10668748444E+02 -0.38425193833E+02 -0.17126183368E+02  0.47787264162E+02  0.19999968622E+02 0.  0.
        -12    1    1    2    0    0  0.10668748444E+02  0.38425193833E+02  0.17126183368E+02  0.43400735838E+02  0.00000000000E+00 0.  1.
         11    1    3    3    0    0 -0.86879808107E+01 -0.14556466961E+02 -0.15542393174E+02  0.22998646195E+02  0.51100000000E-03 0. -1.
        -11    1    3    3    0    0  0.20096179046E+01 -0.50311257967E+01 -0.10927946834E+01  0.55267523363E+01  0.51100000000E-03 0.  1.
        -12    1    3    3    0    0 -0.39903855381E+01 -0.18837601075E+02 -0.49099551082E+00  0.19261865632E+02  0.00000000000E+00 0.  1.
</event>
<event>
 7    1  0.1427898E-010  0.4778727E+02  0.7816164E-02  0.1312668E+00
        -11   -1    0    0    0    0  0.00000000000E+00  0.00000000000E+00  0.45593999997E+02  0.45594000000E+02  0.51100000000E-03 0.  1.
         11   -1    0    0    0    0 -0.00000000000E+00 -0.00000000000E+00 -0.45593999997E+02  0.45594000000E+02  0.51100000000E-03 0. -1.
    9900012    2    1    2    0    0  0.26077464894E+02  0.24121997864E+02 -0.24934277550E+02  0.47787272434E+02  0.20000006338E+02 0.  0.
        -12    1    1    2    0    0 -0.26077464894E+02 -0.24121997864E+02  0.24934277550E+02  0.43400727566E+02  0.00000000000E+00 0.  1.
         11    1    3    3    0    0  0.12992068861E+02  0.53497995280E+01 -0.93861316807E+01  0.16897149951E+02  0.51100000000E-03 0. -1.
        -11    1    3    3    0    0  0.13752304425E+02  0.20528182119E+02 -0.13690019323E+02  0.28247986962E+02  0.51100000000E-03 0.  1.
        -12    1    3    3    0    0 -0.66690839146E+00 -0.17559837830E+01 -0.18581265465E+01  0.26421355210E+01  0.00000000000E+00 0.  1.
</event>
<event>
 7    1  0.1427898E-010  0.4778727E+02  0.7816164E-02  0.1312668E+00
        -11   -1    0    0    0    0  0.00000000000E+00  0.00000000000E+00  0.45593999997E+02  0.45594000000E+02  0.51100000000E-03 0.  1.
         11   -1    0    0    0    0 -0.00000000000E+00 -0.00000000000E+00 -0.45593999997E+02  0.45594000000E+02  0.51100000000E-03 0. -1.
    9900012    2    1    2    0    0 -0.59886105202E+01 -0.13523411350E+02 -0.40802908715E+02  0.47787268784E+02  0.19999989691E+02 0.  0.
        -12    1    1    2    0    0  0.59886105202E+01  0.13523411350E+02  0.40802908715E+02  0.43400731216E+02  0.00000000000E+00 0.  1.
         11    1    3    3    0    0 -0.48235427850E+01 -0.56217661172E+01 -0.16449519132E+02  0.18040440661E+02  0.51100000000E-03 0. -1.
        -11    1    3    3    0    0  0.39828142603E+01 -0.91262566471E+01 -0.86983402796E+01  0.13221667584E+02  0.51100000000E-03 0.  1.
        -12    1    3    3    0    0 -0.51478819955E+01  0.12246114143E+01 -0.15655049303E+02  0.16525160539E+02  0.00000000000E+00 0.  1.
</event>
<event>
 7    1  0.1427898E-010  0.4778727E+02  0.7816164E-02  0.1312668E+00
        -11   -1    0    0    0    0  0.00000000000E+00  0.00000000000E+00  0.45593999997E+02  0.45594000000E+02  0.51100000000E-03 0.  1.
         11   -1    0    0    0    0 -0.00000000000E+00 -0.00000000000E+00 -0.45593999997E+02  0.45594000000E+02  0.51100000000E-03 0. -1.
    9900012    2    1    2    0    0  0.40385178167E+01 -0.55315514632E+00 -0.43208882380E+02  0.47787272780E+02  0.20000007911E+02 0.  0.
        -12    1    1    2    0    0 -0.40385178167E+01  0.55315514632E+00  0.43208882380E+02  0.43400727220E+02  0.00000000000E+00 0.  1.
         11    1    3    3    0    0  0.74751254179E-01 -0.25914570239E+01 -0.10225128539E+02  0.10548672483E+02  0.51100000000E-03 0. -1.
        -11    1    3    3    0    0  0.26174317178E+01  0.70025951300E+01 -0.30724085665E+02  0.31620511184E+02  0.51100000000E-03 0.  1.
         12    1    3    3    0    0  0.13463348448E+01 -0.49642932524E+01 -0.22596681759E+01  0.56180891124E+01  0.00000000000E+00 0. -1.
</event>
<event>
 7    1  0.1427898E-010  0.4778727E+02  0.7816164E-02  0.1312668E+00
        -11   -1    0    0    0    0  0.00000000000E+00  0.00000000000E+00  0.45593999997E+02  0.45594000000E+02  0.51100000000E-03 0.  1.
         11   -1    0    0    0    0 -0.00000000000E+00 -0.00000000000E+00 -0.45593999997E+02  0.45594000000E+02  0.51100000000E-03 0. -1.
    9900012    2    1    2    0    0  0.93789551840E+01  0.28666175605E+02 -0.31207510531E+02  0.47787272613E+02  0.20000007152E+02 0.  0.
        -12    1    1    2    0    0 -0.93789551840E+01 -0.28666175605E+02  0.31207510531E+02  0.43400727387E+02  0.00000000000E+00 0.  1.
         11    1    3    3    0    0  0.59874106461E+01  0.20415091585E+02 -0.22542509792E+02  0.30996609470E+02  0.51100000000E-03 0. -1.
        -11    1    3    3    0    0 -0.40755359686E+01  0.26749811610E+01 -0.17252491688E+01  0.51712670206E+01  0.51100000000E-03 0.  1.
         12    1    3    3    0    0  0.74670805065E+01  0.55761028591E+01 -0.69397515704E+01  0.11619396122E+02  0.00000000000E+00 0. -1.
</event>
<event>
 7    1  0.1427898E-010  0.4778728E+02  0.7816164E-02  0.1312668E+00
        -11   -1    0    0    0    0  0.00000000000E+00  0.00000000000E+00  0.45593999997E+02  0.45594000000E+02  0.51100000000E-03 0.  1.
         11   -1    0    0    0    0 -0.00000000000E+00 -0.00000000000E+00 -0.45593999997E+02  0.45594000000E+02  0.51100000000E-03 0. -1.
    9900012    2    1    2    0    0 -0.43075805640E+02 -0.45224610375E+01 -0.27649405119E+01  0.47787279022E+02  0.20000036373E+02 0.  0.
        -12    1    1    2    0    0  0.43075805640E+02  0.45224610375E+01  0.27649405119E+01  0.43400720978E+02  0.00000000000E+00 0.  1.
         11    1    3    3    0    0 -0.99271467001E+01  0.89587294494E+00 -0.83003441728E+00  0.10001989169E+02  0.51100000000E-03 0. -1.
        -11    1    3    3    0    0 -0.20118483347E+02  0.52232656755E+01  0.47008484933E+00  0.20790787780E+02  0.51100000000E-03 0.  1.
         12    1    3    3    0    0 -0.13030175593E+02 -0.10641599658E+02 -0.24049909439E+01  0.16994502073E+02  0.00000000000E+00 0. -1.
</event>
<event>
 7    1  0.1583877E-010  0.4778728E+02  0.7816164E-02  0.1312668E+00
        -11   -1    0    0    0    0  0.00000000000E+00  0.00000000000E+00  0.45593999997E+02  0.45594000000E+02  0.51100000000E-03 0.  1.
         11   -1    0    0    0    0 -0.00000000000E+00 -0.00000000000E+00 -0.45593999997E+02  0.45594000000E+02  0.51100000000E-03 0. -1.
    9900012    2    1    2    0    0 -0.15159709747E+02 -0.38142027174E+02 -0.14106440808E+02  0.47787277555E+02  0.20000029682E+02 0.  0.
        -12    1    1    2    0    0  0.15159709747E+02  0.38142027174E+02  0.14106440808E+02  0.43400722445E+02  0.00000000000E+00 0.  1.
         11    1    3    3    0    0 -0.11227905411E+02 -0.17669415863E+02 -0.34910674809E+01  0.21224082296E+02  0.51100000000E-03 0. -1.
        -11    1    3    3    0    0  0.32367849682E+01 -0.66394479459E+01  0.53226423913E+00  0.74055621960E+01  0.51100000000E-03 0.  1.
         12    1    3    3    0    0 -0.71685893037E+01 -0.13833163365E+02 -0.11147637566E+02  0.19157633063E+02  0.00000000000E+00 0. -1.
</event>
<event>
 7    1  0.1427898E-010  0.4778727E+02  0.7816164E-02  0.1312668E+00
        -11   -1    0    0    0    0  0.00000000000E+00  0.00000000000E+00  0.45593999997E+02  0.45594000000E+02  0.51100000000E-03 0.  1.
         11   -1    0    0    0    0 -0.00000000000E+00 -0.00000000000E+00 -0.45593999997E+02  0.45594000000E+02  0.51100000000E-03 0. -1.
    9900012    2    1    2    0    0  0.37617390436E+02  0.12862807922E+02 -0.17409859688E+02  0.47787272988E+02  0.20000008860E+02 0.  0.
        -12    1    1    2    0    0 -0.37617390436E+02 -0.12862807922E+02  0.17409859688E+02  0.43400727012E+02  0.00000000000E+00 0.  1.
         11    1    3    3    0    0  0.18190281601E+02  0.11952198382E+02 -0.56451430488E+01  0.22485751737E+02  0.51100000000E-03 0. -1.
        -11    1    3    3    0    0  0.58523795261E+01 -0.13898198825E+01  0.14824951787E+01  0.61951382260E+01  0.51100000000E-03 0.  1.
         12    1    3    3    0    0  0.13574729309E+02  0.23004294231E+01 -0.13247211818E+02  0.19106383025E+02  0.00000000000E+00 0. -1.
</event>
<event>
 7    1  0.1427898E-010  0.4778729E+02  0.7816164E-02  0.1312668E+00
        -11   -1    0    0    0    0  0.00000000000E+00  0.00000000000E+00  0.45593999997E+02  0.45594000000E+02  0.51100000000E-03 0.  1.
         11   -1    0    0    0    0 -0.00000000000E+00 -0.00000000000E+00 -0.45593999997E+02  0.45594000000E+02  0.51100000000E-03 0. -1.
    9900012    2    1    2    0    0  0.21401063643E+02 -0.12228376224E+02 -0.35722301174E+02  0.47787291350E+02  0.20000092582E+02 0.  0.
        -12    1    1    2    0    0 -0.21401063643E+02  0.12228376224E+02  0.35722301174E+02  0.43400708650E+02  0.00000000000E+00 0.  1.
         11    1    3    3    0    0  0.75767287274E+01 -0.10931567243E+01 -0.42986587106E+01  0.87795373913E+01  0.51100000000E-03 0.  1.
        -11    1    3    3    0    0  0.43539337502E+01 -0.24497262418E+01 -0.23244732861E+02  0.23775523208E+02  0.51100000000E-03 0. -1.
         12    1    3    3    0    0  0.94704011658E+01 -0.86854932576E+01 -0.81789096021E+01  0.15232230751E+02  0.00000000000E+00 0. -1.
</event>
<event>
 7    1  0.1427898E-010  0.4778727E+02  0.7816164E-02  0.1312668E+00
        -11   -1    0    0    0    0  0.00000000000E+00  0.00000000000E+00  0.45593999997E+02  0.45594000000E+02  0.51100000000E-03 0.  1.
         11   -1    0    0    0    0 -0.00000000000E+00 -0.00000000000E+00 -0.45593999997E+02  0.45594000000E+02  0.51100000000E-03 0. -1.
    9900012    2    1    2    0    0 -0.29037044196E+02 -0.28997199860E+02 -0.14129248263E+02  0.47787271989E+02  0.20000004307E+02 0.  0.
        -12    1    1    2    0    0  0.29037044196E+02  0.28997199860E+02  0.14129248263E+02  0.43400728011E+02  0.00000000000E+00 0.  1.
         11    1    3    3    0    0 -0.11268547796E+02 -0.15319909747E+02 -0.85752957434E+01  0.20861819227E+02  0.51100000000E-03 0. -1.
        -11    1    3    3    0    0 -0.11746222453E+02 -0.15894435204E+02 -0.28770551145E+01  0.19972086991E+02  0.51100000000E-03 0.  1.
        -12    1    3    3    0    0 -0.60222739465E+01  0.22171450904E+01 -0.26768974056E+01  0.69533657719E+01  0.00000000000E+00 0.  1.
</event>
<event>
 7    1  0.1427898E-010  0.4778728E+02  0.7816164E-02  0.1312668E+00
        -11   -1    0    0    0    0  0.00000000000E+00  0.00000000000E+00  0.45593999997E+02  0.45594000000E+02  0.51100000000E-03 0.  1.
         11   -1    0    0    0    0 -0.00000000000E+00 -0.00000000000E+00 -0.45593999997E+02  0.45594000000E+02  0.51100000000E-03 0. -1.
    9900012    2    1    2    0    0  0.80634243306E+01  0.12407562672E+02 -0.40800201706E+02  0.47787275552E+02  0.20000020551E+02 0.  0.
        -12    1    1    2    0    0 -0.80634243306E+01 -0.12407562672E+02  0.40800201706E+02  0.43400724448E+02  0.00000000000E+00 0.  1.
         11    1    3    3    0    0  0.66044397997E+01  0.36782837708E+01 -0.11128271089E+02  0.13453133994E+02  0.51100000000E-03 0. -1.
        -11    1    3    3    0    0 -0.39553328153E+01  0.39153796284E+01 -0.23040919103E+01  0.60235948657E+01  0.51100000000E-03 0.  1.
         12    1    3    3    0    0  0.54143173462E+01  0.48138992728E+01 -0.27367838707E+02  0.28310546692E+02  0.00000000000E+00 0. -1.
</event>
<event>
 7    1  0.1427898E-010  0.4778727E+02  0.7816164E-02  0.1312668E+00
        -11   -1    0    0    0    0  0.00000000000E+00  0.00000000000E+00  0.45593999997E+02  0.45594000000E+02  0.51100000000E-03 0. -1.
         11   -1    0    0    0    0 -0.00000000000E+00 -0.00000000000E+00 -0.45593999997E+02  0.45594000000E+02  0.51100000000E-03 0.  1.
    9900012    2    1    2    0    0 -0.34995702346E+02 -0.15050382016E+02  0.20794466148E+02  0.47787274154E+02  0.20000014179E+02 0.  0.
        -12    1    1    2    0    0  0.34995702346E+02  0.15050382016E+02 -0.20794466148E+02  0.43400725846E+02  0.00000000000E+00 0.  1.
         11    1    3    3    0    0 -0.19137602774E+02 -0.59797294375E+01  0.95146940457E+01  0.22193116211E+02  0.51100000000E-03 0. -1.
        -11    1    3    3    0    0 -0.81033940578E+01 -0.68170311157E+01  0.13558032057E+02  0.17203404954E+02  0.51100000000E-03 0.  1.
        -12    1    3    3    0    0 -0.77547055144E+01 -0.22536214630E+01 -0.22782599550E+01  0.83907529898E+01  0.00000000000E+00 0.  1.
</event>
<event>
 7    1  0.1427898E-010  0.4778727E+02  0.7816164E-02  0.1312668E+00
        -11   -1    0    0    0    0  0.00000000000E+00  0.00000000000E+00  0.45593999997E+02  0.45594000000E+02  0.51100000000E-03 0.  1.
         11   -1    0    0    0    0 -0.00000000000E+00 -0.00000000000E+00 -0.45593999997E+02  0.45594000000E+02  0.51100000000E-03 0. -1.
    9900012    2    1    2    0    0 -0.41493632366E+02  0.43909553841E+01  0.11942417896E+02  0.47787270037E+02  0.19999995409E+02 0.  0.
        -12    1    1    2    0    0  0.41493632366E+02 -0.43909553841E+01 -0.11942417896E+02  0.43400729963E+02  0.00000000000E+00 0.  1.
         11    1    3    3    0    0 -0.16715277373E+02 -0.35910564622E+01 -0.25419933611E+01  0.17284614970E+02  0.51100000000E-03 0. -1.
        -11    1    3    3    0    0 -0.16050744949E+02  0.18061517076E+01  0.86236580980E+01  0.18309999362E+02  0.51100000000E-03 0.  1.
        -12    1    3    3    0    0 -0.87276100441E+01  0.61758601388E+01  0.58607531595E+01  0.12192655705E+02  0.00000000000E+00 0.  1.
</event>
<event>
 7    1  0.1427898E-010  0.4778727E+02  0.7816164E-02  0.1312668E+00
        -11   -1    0    0    0    0  0.00000000000E+00  0.00000000000E+00  0.45593999997E+02  0.45594000000E+02  0.51100000000E-03 0.  1.
         11   -1    0    0    0    0 -0.00000000000E+00 -0.00000000000E+00 -0.45593999997E+02  0.45594000000E+02  0.51100000000E-03 0. -1.
    9900012    2    1    2    0    0 -0.12184794107E+01 -0.34365588927E+02 -0.26479134820E+02  0.47787274485E+02  0.20000015688E+02 0.  0.
        -12    1    1    2    0    0  0.12184794107E+01  0.34365588927E+02  0.26479134820E+02  0.43400725515E+02  0.00000000000E+00 0.  1.
         11    1    3    3    0    0 -0.30275555418E+01 -0.32733287270E+02 -0.20028854086E+02  0.38494014915E+02  0.51100000000E-03 0. -1.
        -11    1    3    3    0    0  0.11654279194E+01 -0.10928768528E+01  0.94114378562E+00  0.18542798972E+01  0.51100000000E-03 0.  1.
         12    1    3    3    0    0  0.64364821170E+00 -0.53942480453E+00 -0.73914245196E+01  0.74389796726E+01  0.00000000000E+00 0. -1.
</event>
<event>
 7    1  0.1427898E-010  0.4778728E+02  0.7816164E-02  0.1312668E+00
        -11   -1    0    0    0    0  0.00000000000E+00  0.00000000000E+00  0.45593999997E+02  0.45594000000E+02  0.51100000000E-03 0.  1.
         11   -1    0    0    0    0 -0.00000000000E+00 -0.00000000000E+00 -0.45593999997E+02  0.45594000000E+02  0.51100000000E-03 0. -1.
    9900012    2    1    2    0    0  0.68872379804E+01 -0.25042524377E+02 -0.34771542727E+02  0.47787282751E+02  0.20000053373E+02 0.  0.
        -12    1    1    2    0    0 -0.68872379804E+01  0.25042524377E+02  0.34771542727E+02  0.43400717249E+02  0.00000000000E+00 0.  1.
         11    1    3    3    0    0  0.30337281527E+01 -0.10726459059E+02 -0.23291783217E+02  0.25821843392E+02  0.51100000000E-03 0. -1.
        -11    1    3    3    0    0  0.39352608934E+01 -0.15600999464E+02 -0.12457590201E+02  0.20348685866E+02  0.51100000000E-03 0.  1.
        -12    1    3    3    0    0 -0.81751065758E-01  0.12849341462E+01  0.97783069135E+00  0.16167534932E+01  0.00000000000E+00 0.  1.
</event>
<event>
 7    1  0.1427898E-010  0.4778727E+02  0.7816164E-02  0.1312668E+00
        -11   -1    0    0    0    0  0.00000000000E+00  0.00000000000E+00  0.45593999997E+02  0.45594000000E+02  0.51100000000E-03 0.  1.
         11   -1    0    0    0    0 -0.00000000000E+00 -0.00000000000E+00 -0.45593999997E+02  0.45594000000E+02  0.51100000000E-03 0. -1.
    9900012    2    1    2    0    0 -0.20135480670E+02  0.22140148064E+02 -0.31432456156E+02  0.47787273760E+02  0.20000012382E+02 0.  0.
        -12    1    1    2    0    0  0.20135480670E+02 -0.22140148064E+02  0.31432456156E+02  0.43400726240E+02  0.00000000000E+00 0.  1.
         11    1    3    3    0    0  0.79144035410E-01  0.28049972143E+01  0.10113104162E+01  0.29827876508E+01  0.51100000000E-03 0.  1.
        -11    1    3    3    0    0 -0.93774919995E+01  0.50986443116E+01 -0.44130232637E+01  0.11550251279E+02  0.51100000000E-03 0. -1.
        -12    1    3    3    0    0 -0.10837132706E+02  0.14236506538E+02 -0.28030743309E+02  0.33254234830E+02  0.00000000000E+00 0.  1.
</event>
<event>
 7    1  0.1427898E-010  0.4778727E+02  0.7816164E-02  0.1312668E+00
        -11   -1    0    0    0    0  0.00000000000E+00  0.00000000000E+00  0.45593999997E+02  0.45594000000E+02  0.51100000000E-03 0. -1.
         11   -1    0    0    0    0 -0.00000000000E+00 -0.00000000000E+00 -0.45593999997E+02  0.45594000000E+02  0.51100000000E-03 0.  1.
    9900012    2    1    2    0    0  0.37472362877E+01 -0.11901955985E+02  0.41568318211E+02  0.47787269419E+02  0.19999992590E+02 0.  0.
        -12    1    1    2    0    0 -0.37472362877E+01  0.11901955985E+02 -0.41568318211E+02  0.43400730581E+02  0.00000000000E+00 0.  1.
         11    1    3    3    0    0 -0.27346080516E+01 -0.84966014847E+01  0.25470490466E+02  0.26989186776E+02  0.51100000000E-03 0. -1.
        -11    1    3    3    0    0  0.41073779551E-01  0.31167087832E+01  0.79303944111E+01  0.85209574856E+01  0.51100000000E-03 0.  1.
         12    1    3    3    0    0  0.64407705598E+01 -0.65220632837E+01  0.81674333341E+01  0.12277125158E+02  0.00000000000E+00 0. -1.
</event>
<event>
 7    1  0.1427898E-010  0.4778727E+02  0.7816164E-02  0.1312668E+00
        -11   -1    0    0    0    0  0.00000000000E+00  0.00000000000E+00  0.45593999997E+02  0.45594000000E+02  0.51100000000E-03 0.  1.
         11   -1    0    0    0    0 -0.00000000000E+00 -0.00000000000E+00 -0.45593999997E+02  0.45594000000E+02  0.51100000000E-03 0. -1.
    9900012    2    1    2    0    0  0.32611415002E+02  0.43738822347E+01  0.28301733882E+02  0.47787269879E+02  0.19999994688E+02 0.  0.
        -12    1    1    2    0    0 -0.32611415002E+02 -0.43738822347E+01 -0.28301733882E+02  0.43400730121E+02  0.00000000000E+00 0.  1.
         11    1    3    3    0    0  0.58906425803E+01 -0.57341937246E+01  0.10798167583E+02  0.13571332694E+02  0.51100000000E-03 0.  1.
        -11    1    3    3    0    0  0.16765945563E+02  0.28603335220E+01  0.11374836362E+02  0.20461313277E+02  0.51100000000E-03 0. -1.
        -12    1    3    3    0    0  0.99548268585E+01  0.72477424373E+01  0.61287299372E+01  0.13754623908E+02  0.00000000000E+00 0.  1.
</event>
<event>
 7    1  0.1427898E-010  0.4778727E+02  0.7816164E-02  0.1312668E+00
        -11   -1    0    0    0    0  0.00000000000E+00  0.00000000000E+00  0.45593999997E+02  0.45594000000E+02  0.51100000000E-03 0.  1.
         11   -1    0    0    0    0 -0.00000000000E+00 -0.00000000000E+00 -0.45593999997E+02  0.45594000000E+02  0.51100000000E-03 0. -1.
    9900012    2    1    2    0    0 -0.39176486870E+02 -0.18286073370E+02 -0.38007490003E+01  0.47787270793E+02  0.19999998852E+02 0.  0.
        -12    1    1    2    0    0  0.39176486870E+02  0.18286073370E+02  0.38007490003E+01  0.43400729207E+02  0.00000000000E+00 0.  1.
         11    1    3    3    0    0 -0.10308884850E+02 -0.10751149172E+02 -0.80995624096E+01  0.16954740543E+02  0.51100000000E-03 0. -1.
        -11    1    3    3    0    0 -0.91058677868E+01  0.47780431905E+00  0.23682530007E+01  0.94209207434E+01  0.51100000000E-03 0.  1.
        -12    1    3    3    0    0 -0.19761734233E+02 -0.80127285169E+01  0.19305604087E+01  0.21411609507E+02  0.00000000000E+00 0.  1.
</event>
<event>
 7    1  0.1427898E-010  0.4778727E+02  0.7816164E-02  0.1312668E+00
        -11   -1    0    0    0    0  0.00000000000E+00  0.00000000000E+00  0.45593999997E+02  0.45594000000E+02  0.51100000000E-03 0.  1.
         11   -1    0    0    0    0 -0.00000000000E+00 -0.00000000000E+00 -0.45593999997E+02  0.45594000000E+02  0.51100000000E-03 0. -1.
    9900012    2    1    2    0    0 -0.38071858051E+02 -0.19923448798E+02 -0.61002666773E+01  0.47787269119E+02  0.19999991221E+02 0.  0.
        -12    1    1    2    0    0  0.38071858051E+02  0.19923448798E+02  0.61002666773E+01  0.43400730881E+02  0.00000000000E+00 0.  1.
         11    1    3    3    0    0 -0.23487077888E+01 -0.20968840701E+00  0.45795486542E+01  0.51509866670E+01  0.51100000000E-03 0. -1.
        -11    1    3    3    0    0 -0.99040531773E+01 -0.87191682083E+01 -0.40248550983E+01  0.13795420342E+02  0.51100000000E-03 0.  1.
         12    1    3    3    0    0 -0.25819097085E+02 -0.10994592183E+02 -0.66549602333E+01  0.28840862110E+02  0.00000000000E+00 0. -1.
</event>
<event>
 7    1  0.1427898E-010  0.4778728E+02  0.7816164E-02  0.1312668E+00
        -11   -1    0    0    0    0  0.00000000000E+00  0.00000000000E+00  0.45593999997E+02  0.45594000000E+02  0.51100000000E-03 0. -1.
         11   -1    0    0    0    0 -0.00000000000E+00 -0.00000000000E+00 -0.45593999997E+02  0.45594000000E+02  0.51100000000E-03 0.  1.
    9900012    2    1    2    0    0  0.35838501785E+02 -0.14084129840E+02  0.20021528540E+02  0.47787279630E+02  0.20000039146E+02 0.  0.
        -12    1    1    2    0    0 -0.35838501785E+02  0.14084129840E+02 -0.20021528540E+02  0.43400720370E+02  0.00000000000E+00 0.  1.
         11    1    3    3    0    0  0.12659121778E+02 -0.32146135196E+01  0.72416228239E+01  0.14934128889E+02  0.51100000000E-03 0. -1.
        -11    1    3    3    0    0 -0.98019544610E+00 -0.54052218636E+01  0.21623203796E+01  0.59036290697E+01  0.51100000000E-03 0.  1.
        -12    1    3    3    0    0  0.24159575452E+02 -0.54642944571E+01  0.10617585337E+02  0.26949521672E+02  0.00000000000E+00 0.  1.
</event>
<event>
 7    1  0.1427898E-010  0.4778728E+02  0.7816164E-02  0.1312668E+00
        -11   -1    0    0    0    0  0.00000000000E+00  0.00000000000E+00  0.45593999997E+02  0.45594000000E+02  0.51100000000E-03 0.  1.
         11   -1    0    0    0    0 -0.00000000000E+00 -0.00000000000E+00 -0.45593999997E+02  0.45594000000E+02  0.51100000000E-03 0. -1.
    9900012    2    1    2    0    0  0.87847444784E+01  0.23527234730E+02 -0.35396612084E+02  0.47787278155E+02  0.20000032421E+02 0.  0.
        -12    1    1    2    0    0 -0.87847444784E+01 -0.23527234730E+02  0.35396612084E+02  0.43400721845E+02  0.00000000000E+00 0.  1.
         11    1    3    3    0    0  0.37945130598E+01  0.16743044809E+02 -0.34916203324E+02  0.38908471233E+02  0.51100000000E-03 0. -1.
        -11    1    3    3    0    0  0.27859953550E+00  0.98794984297E+00  0.79845439488E+00  0.13004584866E+01  0.51100000000E-03 0.  1.
         12    1    3    3    0    0  0.47116318830E+01  0.57962400781E+01 -0.12788631550E+01  0.75783484357E+01  0.00000000000E+00 0. -1.
</event>
<event>
 7    1  0.1427898E-010  0.4778727E+02  0.7816164E-02  0.1312668E+00
        -11   -1    0    0    0    0  0.00000000000E+00  0.00000000000E+00  0.45593999997E+02  0.45594000000E+02  0.51100000000E-03 0.  1.
         11   -1    0    0    0    0 -0.00000000000E+00 -0.00000000000E+00 -0.45593999997E+02  0.45594000000E+02  0.51100000000E-03 0. -1.
    9900012    2    1    2    0    0  0.90947068603E+01  0.35541161506E+00 -0.42435632803E+02  0.47787274872E+02  0.20000017450E+02 0.  0.
        -12    1    1    2    0    0 -0.90947068603E+01 -0.35541161506E+00  0.42435632803E+02  0.43400725128E+02  0.00000000000E+00 0.  1.
         11    1    3    3    0    0  0.79468788558E+01  0.45090790469E+01 -0.60777768441E+01  0.10973789183E+02  0.51100000000E-03 0.  1.
        -11    1    3    3    0    0  0.14814585994E+01 -0.29450286865E+01 -0.12650296801E+02  0.13072793235E+02  0.51100000000E-03 0. -1.
        -12    1    3    3    0    0 -0.33363059491E+00 -0.12086387453E+01 -0.23707559158E+02  0.23740692454E+02  0.00000000000E+00 0.  1.
</event>
<event>
 7    1  0.1427898E-010  0.4778726E+02  0.7816164E-02  0.1312668E+00
        -11   -1    0    0    0    0  0.00000000000E+00  0.00000000000E+00  0.45593999997E+02  0.45594000000E+02  0.51100000000E-03 0.  1.
         11   -1    0    0    0    0 -0.00000000000E+00 -0.00000000000E+00 -0.45593999997E+02  0.45594000000E+02  0.51100000000E-03 0. -1.
    9900012    2    1    2    0    0  0.13369022391E+02  0.16058642918E+02 -0.38039626932E+02  0.47787262804E+02  0.19999962428E+02 0.  0.
        -12    1    1    2    0    0 -0.13369022391E+02 -0.16058642918E+02  0.38039626932E+02  0.43400737196E+02  0.00000000000E+00 0.  1.
         11    1    3    3    0    0 -0.20837738452E+00  0.76493403387E-02 -0.22346546148E+01  0.22443620820E+01  0.51100000000E-03 0. -1.
        -11    1    3    3    0    0  0.50682240580E+01 -0.35857844002E+01 -0.47004607252E+01  0.77871096150E+01  0.51100000000E-03 0.  1.
         12    1    3    3    0    0  0.85091757179E+01  0.19636777978E+02 -0.31104511592E+02  0.37755791107E+02  0.00000000000E+00 0. -1.
</event>
<event>
 7    1  0.1427898E-010  0.4778727E+02  0.7816164E-02  0.1312668E+00
        -11   -1    0    0    0    0  0.00000000000E+00  0.00000000000E+00  0.45593999997E+02  0.45594000000E+02  0.51100000000E-03 0.  1.
         11   -1    0    0    0    0 -0.00000000000E+00 -0.00000000000E+00 -0.45593999997E+02  0.45594000000E+02  0.51100000000E-03 0. -1.
    9900012    2    1    2    0    0 -0.89788407048E+01  0.65397780742E+01 -0.41955155667E+02  0.47787269998E+02  0.19999995229E+02 0.  0.
        -12    1    1    2    0    0  0.89788407048E+01 -0.65397780742E+01  0.41955155667E+02  0.43400730002E+02  0.00000000000E+00 0.  1.
         11    1    3    3    0    0  0.24487081377E+01 -0.38602328969E+00 -0.19038476575E+02  0.19199186860E+02  0.51100000000E-03 0.  1.
        -11    1    3    3    0    0 -0.73435275158E+01  0.84123171309E+01 -0.21109738906E+02  0.23881280385E+02  0.51100000000E-03 0. -1.
        -12    1    3    3    0    0 -0.40840213267E+01 -0.14865157670E+01 -0.18069401860E+01  0.47068027533E+01  0.00000000000E+00 0.  1.
</event>
<event>
 7    1  0.1427898E-010  0.4778728E+02  0.7816164E-02  0.1312668E+00
        -11   -1    0    0    0    0  0.00000000000E+00  0.00000000000E+00  0.45593999997E+02  0.45594000000E+02  0.51100000000E-03 0.  1.
         11   -1    0    0    0    0 -0.00000000000E+00 -0.00000000000E+00 -0.45593999997E+02  0.45594000000E+02  0.51100000000E-03 0. -1.
    9900012    2    1    2    0    0  0.36031125634E+02 -0.19358345382E+02 -0.14513273076E+02  0.47787278280E+02  0.20000032990E+02 0.  0.
        -12    1    1    2    0    0 -0.36031125634E+02  0.19358345382E+02  0.14513273076E+02  0.43400721720E+02  0.00000000000E+00 0.  1.
         11    1    3    3    0    0  0.19229755603E+02 -0.11342784467E+02 -0.14810656632E+01  0.22374892531E+02  0.51100000000E-03 0. -1.
        -11    1    3    3    0    0  0.14280256839E+02 -0.94878762335E+00 -0.86929822172E+01  0.16744965614E+02  0.51100000000E-03 0.  1.
        -12    1    3    3    0    0  0.25211131928E+01 -0.70667732920E+01 -0.43392251958E+01  0.86674201347E+01  0.00000000000E+00 0.  1.
</event>
<event>
 7    1  0.1427898E-010  0.4778727E+02  0.7816164E-02  0.1312668E+00
        -11   -1    0    0    0    0  0.00000000000E+00  0.00000000000E+00  0.45593999997E+02  0.45594000000E+02  0.51100000000E-03 0.  1.
         11   -1    0    0    0    0 -0.00000000000E+00 -0.00000000000E+00 -0.45593999997E+02  0.45594000000E+02  0.51100000000E-03 0. -1.
    9900012    2    1    2    0    0 -0.40330573933E+02  0.15681751398E+02 -0.33392752417E+01  0.47787270976E+02  0.19999999690E+02 0.  0.
        -12    1    1    2    0    0  0.40330573933E+02 -0.15681751398E+02  0.33392752417E+01  0.43400729024E+02  0.00000000000E+00 0.  1.
         11    1    3    3    0    0 -0.67887089179E+01  0.45588028114E+01 -0.57628554764E+01  0.10003986973E+02  0.51100000000E-03 0. -1.
        -11    1    3    3    0    0 -0.30776685332E+02  0.81779657498E+01 -0.18553687924E+01  0.31898681437E+02  0.51100000000E-03 0.  1.
        -12    1    3    3    0    0 -0.27651796827E+01  0.29449828370E+01  0.42789490271E+01  0.58846025664E+01  0.00000000000E+00 0.  1.
</event>
<event>
 7    1  0.1427898E-010  0.4778727E+02  0.7816164E-02  0.1312668E+00
        -11   -1    0    0    0    0  0.00000000000E+00  0.00000000000E+00  0.45593999997E+02  0.45594000000E+02  0.51100000000E-03 0.  1.
         11   -1    0    0    0    0 -0.00000000000E+00 -0.00000000000E+00 -0.45593999997E+02  0.45594000000E+02  0.51100000000E-03 0. -1.
    9900012    2    1    2    0    0 -0.43293726683E+01  0.29887770438E+02 -0.31170519986E+02  0.47787267222E+02  0.19999982573E+02 0.  0.
        -12    1    1    2    0    0  0.43293726683E+01 -0.29887770438E+02  0.31170519986E+02  0.43400732778E+02  0.00000000000E+00 0.  1.
         11    1    3    3    0    0 -0.72004134481E+01  0.14876112514E+02 -0.26510457914E+02  0.31240183361E+02  0.51100000000E-03 0. -1.
        -11    1    3    3    0    0  0.61016474723E+00  0.12652817603E+01  0.76197295537E+00  0.15980744656E+01  0.51100000000E-03 0.  1.
         12    1    3    3    0    0  0.22608760326E+01  0.13746376164E+02 -0.54220350267E+01  0.14949009396E+02  0.00000000000E+00 0. -1.
</event>
<event>
 7    1  0.1427898E-010  0.4778723E+02  0.7816164E-02  0.1312668E+00
        -11   -1    0    0    0    0  0.00000000000E+00  0.00000000000E+00  0.45593999997E+02  0.45594000000E+02  0.51100000000E-03 0.  1.
         11   -1    0    0    0    0 -0.00000000000E+00 -0.00000000000E+00 -0.45593999997E+02  0.45594000000E+02  0.51100000000E-03 0. -1.
    9900012    2    1    2    0    0 -0.36779259785E+02 -0.18612624684E+02 -0.13582455582E+02  0.47787229873E+02  0.19999812284E+02 0.  0.
        -12    1    1    2    0    0  0.36779259785E+02  0.18612624684E+02  0.13582455582E+02  0.43400770127E+02  0.00000000000E+00 0.  1.
         11    1    3    3    0    0 -0.12501261079E+02 -0.10340640909E+02 -0.23251278448E+01  0.16389527227E+02  0.51100000000E-03 0. -1.
        -11    1    3    3    0    0 -0.10776346097E+02 -0.45738028733E+01 -0.12761953599E+02  0.17318105204E+02  0.51100000000E-03 0.  1.
         12    1    3    3    0    0 -0.13501652608E+02 -0.36981809023E+01  0.15046258625E+01  0.14079597442E+02  0.00000000000E+00 0. -1.
</event>
<event>
 7    1  0.1427898E-010  0.4778727E+02  0.7816164E-02  0.1312668E+00
        -11   -1    0    0    0    0  0.00000000000E+00  0.00000000000E+00  0.45593999997E+02  0.45594000000E+02  0.51100000000E-03 0. -1.
         11   -1    0    0    0    0 -0.00000000000E+00 -0.00000000000E+00 -0.45593999997E+02  0.45594000000E+02  0.51100000000E-03 0.  1.
    9900012    2    1    2    0    0 -0.25424624109E+02  0.35031760215E+02  0.31603061564E+01  0.47787271091E+02  0.20000000211E+02 0.  0.
        -12    1    1    2    0    0  0.25424624109E+02 -0.35031760215E+02 -0.31603061564E+01  0.43400728909E+02  0.00000000000E+00 0.  1.
         11    1    3    3    0    0 -0.10470049784E+01  0.14849607899E+02 -0.36296856315E+01  0.15322587648E+02  0.51100000000E-03 0. -1.
        -11    1    3    3    0    0 -0.79915433047E+01  0.79527260206E+01  0.30409612917E+01  0.11677245454E+02  0.51100000000E-03 0.  1.
         12    1    3    3    0    0 -0.16386075826E+02  0.12229426296E+02  0.37490304962E+01  0.20787437989E+02  0.00000000000E+00 0. -1.
</event>
<event>
 7    1  0.1427898E-010  0.4778727E+02  0.7816164E-02  0.1312668E+00
        -11   -1    0    0    0    0  0.00000000000E+00  0.00000000000E+00  0.45593999997E+02  0.45594000000E+02  0.51100000000E-03 0.  1.
         11   -1    0    0    0    0 -0.00000000000E+00 -0.00000000000E+00 -0.45593999997E+02  0.45594000000E+02  0.51100000000E-03 0. -1.
    9900012    2    1    2    0    0  0.27161593171E+02 -0.57854645776E+01 -0.33352653523E+02  0.47787271423E+02  0.20000001727E+02 0.  0.
        -12    1    1    2    0    0 -0.27161593171E+02  0.57854645776E+01  0.33352653523E+02  0.43400728577E+02  0.00000000000E+00 0.  1.
         11    1    3    3    0    0  0.17204950271E+02 -0.52885955450E+01 -0.22363560765E+02  0.28707288396E+02  0.51100000000E-03 0. -1.
        -11    1    3    3    0    0  0.42156117683E+01 -0.50038755450E+01 -0.96505242835E+01  0.11659449912E+02  0.51100000000E-03 0.  1.
        -12    1    3    3    0    0  0.57410311313E+01  0.45070065124E+01 -0.13385684743E+01  0.74205331151E+01  0.00000000000E+00 0.  1.
</event>
<event>
 7    1  0.1427898E-010  0.4778727E+02  0.7816164E-02  0.1312668E+00
        -11   -1    0    0    0    0  0.00000000000E+00  0.00000000000E+00  0.45593999997E+02  0.45594000000E+02  0.51100000000E-03 0.  1.
         11   -1    0    0    0    0 -0.00000000000E+00 -0.00000000000E+00 -0.45593999997E+02  0.45594000000E+02  0.51100000000E-03 0. -1.
    9900012    2    1    2    0    0  0.20436179055E+02 -0.37272738512E+02  0.87594958087E+01  0.47787271696E+02  0.20000002970E+02 0.  0.
        -12    1    1    2    0    0 -0.20436179055E+02  0.37272738512E+02 -0.87594958087E+01  0.43400728304E+02  0.00000000000E+00 0.  1.
         11    1    3    3    0    0  0.31679361749E+01 -0.79730838783E+01 -0.54748848773E+01  0.10177438323E+02  0.51100000000E-03 0. -1.
        -11    1    3    3    0    0  0.14730409743E+02 -0.20989476065E+02  0.78161824664E+01  0.26807383037E+02  0.51100000000E-03 0.  1.
        -12    1    3    3    0    0  0.25378331367E+01 -0.83101785687E+01  0.64181982196E+01  0.10802450336E+02  0.00000000000E+00 0.  1.
</event>
<event>
 7    1  0.1427898E-010  0.4778727E+02  0.7816164E-02  0.1312668E+00
        -11   -1    0    0    0    0  0.00000000000E+00  0.00000000000E+00  0.45593999997E+02  0.45594000000E+02  0.51100000000E-03 0.  1.
         11   -1    0    0    0    0 -0.00000000000E+00 -0.00000000000E+00 -0.45593999997E+02  0.45594000000E+02  0.51100000000E-03 0. -1.
    9900012    2    1    2    0    0 -0.15481273656E+02 -0.39545836774E+02 -0.89487652451E+01  0.47787269135E+02  0.19999991296E+02 0.  0.
        -12    1    1    2    0    0  0.15481273656E+02  0.39545836774E+02  0.89487652451E+01  0.43400730865E+02  0.00000000000E+00 0.  1.
         11    1    3    3    0    0 -0.75803686544E+01 -0.16189029691E+02 -0.67584853904E+01  0.19110829294E+02  0.51100000000E-03 0. -1.
        -11    1    3    3    0    0 -0.12200335488E+01 -0.19985718742E+02 -0.50756700378E+01  0.20656230587E+02  0.51100000000E-03 0.  1.
        -12    1    3    3    0    0 -0.66808714525E+01 -0.33710883416E+01  0.28853901831E+01  0.80202092542E+01  0.00000000000E+00 0.  1.
</event>
<event>
 7    1  0.1427898E-010  0.4778727E+02  0.7816164E-02  0.1312668E+00
        -11   -1    0    0    0    0  0.00000000000E+00  0.00000000000E+00  0.45593999997E+02  0.45594000000E+02  0.51100000000E-03 0. -1.
         11   -1    0    0    0    0 -0.00000000000E+00 -0.00000000000E+00 -0.45593999997E+02  0.45594000000E+02  0.51100000000E-03 0.  1.
    9900012    2    1    2    0    0  0.10329843893E+02 -0.13636796614E+02  0.39886782325E+02  0.47787270732E+02  0.19999998576E+02 0.  0.
        -12    1    1    2    0    0 -0.10329843893E+02  0.13636796614E+02 -0.39886782325E+02  0.43400729268E+02  0.00000000000E+00 0.  1.
         11    1    3    3    0    0  0.79472155498E+01 -0.44159588769E+01  0.42052617102E+01  0.10017143011E+02  0.51100000000E-03 0. -1.
        -11    1    3    3    0    0  0.38535713609E+01 -0.20569078947E+01  0.19937537297E+02  0.20410445268E+02  0.51100000000E-03 0.  1.
        -12    1    3    3    0    0 -0.14709430178E+01 -0.71639298423E+01  0.15743983318E+02  0.17359682453E+02  0.00000000000E+00 0.  1.
</event>
<event>
 7    1  0.1427898E-010  0.4778727E+02  0.7816164E-02  0.1312668E+00
        -11   -1    0    0    0    0  0.00000000000E+00  0.00000000000E+00  0.45593999997E+02  0.45594000000E+02  0.51100000000E-03 0.  1.
         11   -1    0    0    0    0 -0.00000000000E+00 -0.00000000000E+00 -0.45593999997E+02  0.45594000000E+02  0.51100000000E-03 0. -1.
    9900012    2    1    2    0    0 -0.35000931910E+02 -0.12573201206E+02 -0.22371241114E+02  0.47787273599E+02  0.20000011649E+02 0.  0.
        -12    1    1    2    0    0  0.35000931910E+02  0.12573201206E+02  0.22371241114E+02  0.43400726401E+02  0.00000000000E+00 0.  1.
         11    1    3    3    0    0 -0.40359740847E+01 -0.49693730586E+01 -0.40957541946E+01  0.75999314531E+01  0.51100000000E-03 0. -1.
        -11    1    3    3    0    0 -0.87218030299E+01 -0.61016465060E+01  0.10332303913E+01  0.10694274332E+02  0.51100000000E-03 0.  1.
         12    1    3    3    0    0 -0.22243154795E+02 -0.15021816411E+01 -0.19308717311E+02  0.29493067815E+02  0.00000000000E+00 0. -1.
</event>
<event>
 7    1  0.1489547E-010  0.4778727E+02  0.7816164E-02  0.1312668E+00
        -11   -1    0    0    0    0  0.00000000000E+00  0.00000000000E+00  0.45593999997E+02  0.45594000000E+02  0.51100000000E-03 0.  1.
         11   -1    0    0    0    0 -0.00000000000E+00 -0.00000000000E+00 -0.45593999997E+02  0.45594000000E+02  0.51100000000E-03 0. -1.
    9900012    2    1    2    0    0 -0.13902156039E+02 -0.40822426409E+02 -0.48870168492E+01  0.47787269889E+02  0.19999994732E+02 0.  0.
        -12    1    1    2    0    0  0.13902156039E+02  0.40822426409E+02  0.48870168492E+01  0.43400730111E+02  0.00000000000E+00 0.  1.
         11    1    3    3    0    0  0.23602078181E+00 -0.75567509762E+01 -0.63623938432E+01  0.98813079500E+01  0.51100000000E-03 0. -1.
        -11    1    3    3    0    0 -0.88180157897E+01 -0.78967501889E+01  0.18601702255E+01  0.11982332809E+02  0.51100000000E-03 0.  1.
         12    1    3    3    0    0 -0.53201610311E+01 -0.25368925244E+02 -0.38479323153E+00  0.25923629130E+02  0.00000000000E+00 0. -1.
</event>
<event>
 7    1  0.1427898E-010  0.4778728E+02  0.7816164E-02  0.1312668E+00
        -11   -1    0    0    0    0  0.00000000000E+00  0.00000000000E+00  0.45593999997E+02  0.45594000000E+02  0.51100000000E-03 0.  1.
         11   -1    0    0    0    0 -0.00000000000E+00 -0.00000000000E+00 -0.45593999997E+02  0.45594000000E+02  0.51100000000E-03 0. -1.
    9900012    2    1    2    0    0  0.23129476366E+02 -0.28174794349E+02 -0.23554849476E+02  0.47787278262E+02  0.20000032905E+02 0.  0.
        -12    1    1    2    0    0 -0.23129476366E+02  0.28174794349E+02  0.23554849476E+02  0.43400721738E+02  0.00000000000E+00 0.  1.
         11    1    3    3    0    0  0.12752494628E+02 -0.22809731692E+02 -0.85905807589E+01  0.27508327051E+02  0.51100000000E-03 0. -1.
        -11    1    3    3    0    0  0.95502971249E+01 -0.61930929866E+01 -0.99133305032E+01  0.15094260427E+02  0.51100000000E-03 0.  1.
        -12    1    3    3    0    0  0.82668461273E+00  0.82803032965E+00 -0.50509382144E+01  0.51846907836E+01  0.00000000000E+00 0.  1.
</event>
<event>
 7    1  0.1427898E-010  0.4778726E+02  0.7816164E-02  0.1312668E+00
        -11   -1    0    0    0    0  0.00000000000E+00  0.00000000000E+00  0.45593999997E+02  0.45594000000E+02  0.51100000000E-03 0.  1.
         11   -1    0    0    0    0 -0.00000000000E+00 -0.00000000000E+00 -0.45593999997E+02  0.45594000000E+02  0.51100000000E-03 0. -1.
    9900012    2    1    2    0    0  0.38801161723E+02 -0.85754901570E+01 -0.17451508336E+02  0.47787258927E+02  0.19999944750E+02 0.  0.
        -12    1    1    2    0    0 -0.38801161723E+02  0.85754901570E+01  0.17451508336E+02  0.43400741073E+02  0.00000000000E+00 0.  1.
         11    1    3    3    0    0  0.14428614958E+02 -0.40727189505E+01 -0.24371533304E+01  0.15189196354E+02  0.51100000000E-03 0. -1.
        -11    1    3    3    0    0 -0.56022583434E-01  0.32817158075E+01 -0.20237250662E+01  0.38559383522E+01  0.51100000000E-03 0.  1.
        -12    1    3    3    0    0  0.24428569349E+02 -0.77844870140E+01 -0.12990629940E+02  0.28742124221E+02  0.00000000000E+00 0.  1.
</event>
<event>
 7    1  0.1427898E-010  0.4778727E+02  0.7816164E-02  0.1312668E+00
        -11   -1    0    0    0    0  0.00000000000E+00  0.00000000000E+00  0.45593999997E+02  0.45594000000E+02  0.51100000000E-03 0. -1.
         11   -1    0    0    0    0 -0.00000000000E+00 -0.00000000000E+00 -0.45593999997E+02  0.45594000000E+02  0.51100000000E-03 0.  1.
    9900012    2    1    2    0    0  0.17503258899E+02 -0.39349821729E+02 -0.53712968335E+01  0.47787269915E+02  0.19999994852E+02 0.  0.
        -12    1    1    2    0    0 -0.17503258899E+02  0.39349821729E+02  0.53712968335E+01  0.43400730085E+02  0.00000000000E+00 0.  1.
         11    1    3    3    0    0  0.14507671949E+02 -0.28607073082E+02 -0.19249697194E+01  0.32133202211E+02  0.51100000000E-03 0. -1.
        -11    1    3    3    0    0 -0.10129599890E+01 -0.77338391434E+01  0.21998199934E+01  0.81041695503E+01  0.51100000000E-03 0.  1.
         12    1    3    3    0    0  0.40085469391E+01 -0.30089095042E+01 -0.56461471076E+01  0.75498981535E+01  0.00000000000E+00 0. -1.
</event>
<event>
 7    1  0.1427898E-010  0.4778727E+02  0.7816164E-02  0.1312668E+00
        -11   -1    0    0    0    0  0.00000000000E+00  0.00000000000E+00  0.45593999997E+02  0.45594000000E+02  0.51100000000E-03 0. -1.
         11   -1    0    0    0    0 -0.00000000000E+00 -0.00000000000E+00 -0.45593999997E+02  0.45594000000E+02  0.51100000000E-03 0.  1.
    9900012    2    1    2    0    0  0.19212251760E+02 -0.38483600071E+02 -0.57900863305E+01  0.47787271990E+02  0.20000004312E+02 0.  0.
        -12    1    1    2    0    0 -0.19212251760E+02  0.38483600071E+02  0.57900863305E+01  0.43400728010E+02  0.00000000000E+00 0.  1.
         11    1    3    3    0    0  0.12259055474E+01 -0.12593623076E+01  0.18184156775E+01  0.25289273754E+01  0.51100000000E-03 0. -1.
        -11    1    3    3    0    0  0.19062466219E+02 -0.37199875767E+02 -0.96961978635E+01  0.42909493457E+02  0.51100000000E-03 0.  1.
        -12    1    3    3    0    0 -0.10761200069E+01 -0.24361995696E-01  0.20876958555E+01  0.23488511577E+01  0.00000000000E+00 0.  1.
</event>
<event>
 7    1  0.1427898E-010  0.4778727E+02  0.7816164E-02  0.1312668E+00
        -11   -1    0    0    0    0  0.00000000000E+00  0.00000000000E+00  0.45593999997E+02  0.45594000000E+02  0.51100000000E-03 0. -1.
         11   -1    0    0    0    0 -0.00000000000E+00 -0.00000000000E+00 -0.45593999997E+02  0.45594000000E+02  0.51100000000E-03 0.  1.
    9900012    2    1    2    0    0 -0.28725282383E+02 -0.12747485777E+02  0.29932977713E+02  0.47787269633E+02  0.19999993565E+02 0.  0.
        -12    1    1    2    0    0  0.28725282383E+02  0.12747485777E+02 -0.29932977713E+02  0.43400730367E+02  0.00000000000E+00 0.  1.
         11    1    3    3    0    0 -0.17409099126E+01 -0.53873751226E+01  0.13242831444E+02  0.14402331859E+02  0.51100000000E-03 0. -1.
        -11    1    3    3    0    0 -0.86935269033E+01 -0.24959308288E+01  0.16137472266E+01  0.91875601273E+01  0.51100000000E-03 0.  1.
         12    1    3    3    0    0 -0.18290845567E+02 -0.48641798260E+01  0.15076399042E+02  0.24197377647E+02  0.00000000000E+00 0. -1.
</event>
<event>
 7    1  0.1427898E-010  0.4778727E+02  0.7816164E-02  0.1312668E+00
        -11   -1    0    0    0    0  0.00000000000E+00  0.00000000000E+00  0.45593999997E+02  0.45594000000E+02  0.51100000000E-03 0. -1.
         11   -1    0    0    0    0 -0.00000000000E+00 -0.00000000000E+00 -0.45593999997E+02  0.45594000000E+02  0.51100000000E-03 0.  1.
    9900012    2    1    2    0    0 -0.16259137483E+02 -0.40207499270E+02  0.16188995323E+01  0.47787269765E+02  0.19999994166E+02 0.  0.
        -12    1    1    2    0    0  0.16259137483E+02  0.40207499270E+02 -0.16188995323E+01  0.43400730235E+02  0.00000000000E+00 0.  1.
         11    1    3    3    0    0 -0.11175549474E+02 -0.16055691868E+02  0.72738447677E+01  0.20870720289E+02  0.51100000000E-03 0. -1.
        -11    1    3    3    0    0 -0.38827856243E+01 -0.45685035803E+01 -0.40408254219E+01  0.72301811539E+01  0.51100000000E-03 0.  1.
        -12    1    3    3    0    0 -0.12008023849E+01 -0.19583303822E+02 -0.16141198134E+01  0.19686368322E+02  0.00000000000E+00 0.  1.
</event>
<event>
 7    1  0.1427898E-010  0.4778727E+02  0.7816164E-02  0.1312668E+00
        -11   -1    0    0    0    0  0.00000000000E+00  0.00000000000E+00  0.45593999997E+02  0.45594000000E+02  0.51100000000E-03 0. -1.
         11   -1    0    0    0    0 -0.00000000000E+00 -0.00000000000E+00 -0.45593999997E+02  0.45594000000E+02  0.51100000000E-03 0.  1.
    9900012    2    1    2    0    0  0.15929661628E+02  0.13527678286E+02  0.38037757490E+02  0.47787271962E+02  0.20000004183E+02 0.  0.
        -12    1    1    2    0    0 -0.15929661628E+02 -0.13527678286E+02 -0.38037757490E+02  0.43400728038E+02  0.00000000000E+00 0.  1.
         11    1    3    3    0    0  0.98503177036E+01  0.13942939514E+02  0.13351686843E+02  0.21672606280E+02  0.51100000000E-03 0. -1.
        -11    1    3    3    0    0 -0.10213624804E+01 -0.63550009997E+00  0.60933071504E+01  0.62109124920E+01  0.51100000000E-03 0.  1.
         12    1    3    3    0    0  0.71007064051E+01  0.22023887135E+00  0.18592763496E+02  0.19903753190E+02  0.00000000000E+00 0. -1.
</event>
<event>
 7    1  0.1427898E-010  0.4778727E+02  0.7816164E-02  0.1312668E+00
        -11   -1    0    0    0    0  0.00000000000E+00  0.00000000000E+00  0.45593999997E+02  0.45594000000E+02  0.51100000000E-03 0.  1.
         11   -1    0    0    0    0 -0.00000000000E+00 -0.00000000000E+00 -0.45593999997E+02  0.45594000000E+02  0.51100000000E-03 0. -1.
    9900012    2    1    2    0    0  0.84925368483E+01  0.51527127513E+01 -0.42248663988E+02  0.47787271440E+02  0.20000001802E+02 0.  0.
        -12    1    1    2    0    0 -0.84925368483E+01 -0.51527127513E+01  0.42248663988E+02  0.43400728560E+02  0.00000000000E+00 0.  1.
         11    1    3    3    0    0  0.44402777713E+00  0.30640954098E+01 -0.26738231779E+01  0.40908644557E+01  0.51100000000E-03 0. -1.
        -11    1    3    3    0    0  0.24956726244E+01 -0.16623727995E+01  0.52177500759E+00  0.30437008053E+01  0.51100000000E-03 0.  1.
         12    1    3    3    0    0  0.55528364468E+01  0.37509901411E+01 -0.40096615817E+02  0.40652706179E+02  0.00000000000E+00 0. -1.
</event>
<event>
 7    1  0.1427898E-010  0.4778727E+02  0.7816164E-02  0.1312668E+00
        -11   -1    0    0    0    0  0.00000000000E+00  0.00000000000E+00  0.45593999997E+02  0.45594000000E+02  0.51100000000E-03 0. -1.
         11   -1    0    0    0    0 -0.00000000000E+00 -0.00000000000E+00 -0.45593999997E+02  0.45594000000E+02  0.51100000000E-03 0.  1.
    9900012    2    1    2    0    0  0.12215281977E+02  0.18351907473E+02  0.37384726122E+02  0.47787269950E+02  0.19999995011E+02 0.  0.
        -12    1    1    2    0    0 -0.12215281977E+02 -0.18351907473E+02 -0.37384726122E+02  0.43400730050E+02  0.00000000000E+00 0.  1.
         11    1    3    3    0    0  0.11143184107E+02  0.10000299945E+02  0.18698054473E+02  0.23953993244E+02  0.51100000000E-03 0. -1.
        -11    1    3    3    0    0  0.12074825131E+01 -0.29811227622E+01  0.25020877855E+01  0.40749908577E+01  0.51100000000E-03 0.  1.
        -12    1    3    3    0    0 -0.13538464324E+00  0.11332730290E+02  0.16184583863E+02  0.19758285848E+02  0.00000000000E+00 0.  1.
</event>
<event>
 7    1  0.1427898E-010  0.4778727E+02  0.7816164E-02  0.1312668E+00
        -11   -1    0    0    0    0  0.00000000000E+00  0.00000000000E+00  0.45593999997E+02  0.45594000000E+02  0.51100000000E-03 0.  1.
         11   -1    0    0    0    0 -0.00000000000E+00 -0.00000000000E+00 -0.45593999997E+02  0.45594000000E+02  0.51100000000E-03 0. -1.
    9900012    2    1    2    0    0  0.21514392116E+02 -0.77819076887E+01 -0.36880839098E+02  0.47787269039E+02  0.19999990855E+02 0.  0.
        -12    1    1    2    0    0 -0.21514392116E+02  0.77819076887E+01  0.36880839098E+02  0.43400730961E+02  0.00000000000E+00 0.  1.
         11    1    3    3    0    0  0.42006471683E+01 -0.45358398742E+01 -0.15462735565E+02  0.16652791701E+02  0.51100000000E-03 0. -1.
        -11    1    3    3    0    0  0.18080308650E+02 -0.13101433254E+01 -0.12606627345E+02  0.22080332644E+02  0.51100000000E-03 0.  1.
         12    1    3    3    0    0 -0.76656370156E+00 -0.19359244892E+01 -0.88114761875E+01  0.90541446940E+01  0.00000000000E+00 0. -1.
</event>
<event>
 7    1  0.1427898E-010  0.4778726E+02  0.7816164E-02  0.1312668E+00
        -11   -1    0    0    0    0  0.00000000000E+00  0.00000000000E+00  0.45593999997E+02  0.45594000000E+02  0.51100000000E-03 0.  1.
         11   -1    0    0    0    0 -0.00000000000E+00 -0.00000000000E+00 -0.45593999997E+02  0.45594000000E+02  0.51100000000E-03 0. -1.
    9900012    2    1    2    0    0  0.82289165882E+00 -0.28394118624E+02 -0.32813428298E+02  0.47787260377E+02  0.19999951365E+02 0.  0.
        -12    1    1    2    0    0 -0.82289165882E+00  0.28394118624E+02  0.32813428298E+02  0.43400739623E+02  0.00000000000E+00 0.  1.
         11    1    3    3    0    0 -0.25278858564E+01 -0.79084654105E+01 -0.89845426822E+01  0.12233398527E+02  0.51100000000E-03 0. -1.
        -11    1    3    3    0    0  0.12697001066E+01  0.24183453272E+01 -0.46665915044E+00  0.27709751905E+01  0.51100000000E-03 0.  1.
        -12    1    3    3    0    0  0.20810774086E+01 -0.22903998541E+02 -0.23362226466E+02  0.32782886660E+02  0.00000000000E+00 0.  1.
</event>
<event>
 7    1  0.1427898E-010  0.4778727E+02  0.7816164E-02  0.1312668E+00
        -11   -1    0    0    0    0  0.00000000000E+00  0.00000000000E+00  0.45593999997E+02  0.45594000000E+02  0.51100000000E-03 0.  1.
         11   -1    0    0    0    0 -0.00000000000E+00 -0.00000000000E+00 -0.45593999997E+02  0.45594000000E+02  0.51100000000E-03 0. -1.
    9900012    2    1    2    0    0  0.19412088665E+02 -0.78068523848E+01 -0.38024294697E+02  0.47787272843E+02  0.20000008201E+02 0.  0.
        -12    1    1    2    0    0 -0.19412088665E+02  0.78068523848E+01  0.38024294697E+02  0.43400727157E+02  0.00000000000E+00 0.  1.
         11    1    3    3    0    0  0.43908026782E+01 -0.86707489033E+00 -0.20068614186E+01  0.49049424093E+01  0.51100000000E-03 0. -1.
        -11    1    3    3    0    0  0.11140722026E+02 -0.15186641823E+01 -0.34158059739E+02  0.35961021587E+02  0.51100000000E-03 0.  1.
        -12    1    3    3    0    0  0.38805639609E+01 -0.54211133122E+01 -0.18593735400E+01  0.69213088473E+01  0.00000000000E+00 0.  1.
</event>
<event>
 7    1  0.1427898E-010  0.4778728E+02  0.7816164E-02  0.1312668E+00
        -11   -1    0    0    0    0  0.00000000000E+00  0.00000000000E+00  0.45593999997E+02  0.45594000000E+02  0.51100000000E-03 0.  1.
         11   -1    0    0    0    0 -0.00000000000E+00 -0.00000000000E+00 -0.45593999997E+02  0.45594000000E+02  0.51100000000E-03 0. -1.
    9900012    2    1    2    0    0  0.24638153087E+02 -0.33379952093E+02 -0.12742160080E+02  0.47787280734E+02  0.20000044181E+02 0.  0.
        -12    1    1    2    0    0 -0.24638153087E+02  0.33379952093E+02  0.12742160080E+02  0.43400719266E+02  0.00000000000E+00 0.  1.
         11    1    3    3    0    0 -0.87182725232E+00 -0.80902812468E+01  0.17922009368E+01  0.83321496547E+01  0.51100000000E-03 0.  1.
        -11    1    3    3    0    0  0.76170210951E+01 -0.68375102816E+01 -0.78441378656E+01  0.12895776686E+02  0.51100000000E-03 0. -1.
        -12    1    3    3    0    0  0.17892959244E+02 -0.18452160565E+02 -0.66902231509E+01  0.26559354394E+02  0.00000000000E+00 0.  1.
</event>
<event>
 7    1  0.1427898E-010  0.4778727E+02  0.7816164E-02  0.1312668E+00
        -11   -1    0    0    0    0  0.00000000000E+00  0.00000000000E+00  0.45593999997E+02  0.45594000000E+02  0.51100000000E-03 0.  1.
         11   -1    0    0    0    0 -0.00000000000E+00 -0.00000000000E+00 -0.45593999997E+02  0.45594000000E+02  0.51100000000E-03 0. -1.
    9900012    2    1    2    0    0 -0.40590135982E+02  0.22243936752E+01  0.15202512017E+02  0.47787269155E+02  0.19999991386E+02 0.  0.
        -12    1    1    2    0    0  0.40590135982E+02 -0.22243936752E+01 -0.15202512017E+02  0.43400730845E+02  0.00000000000E+00 0.  1.
         11    1    3    3    0    0 -0.34966531928E+01  0.10406280805E+01 -0.30581133857E+01  0.47604146976E+01  0.51100000000E-03 0. -1.
        -11    1    3    3    0    0 -0.54142120218E+01  0.68078571082E+00 -0.15340108337E+01  0.56683640056E+01  0.51100000000E-03 0.  1.
        -12    1    3    3    0    0 -0.31679270767E+02  0.50297988385E+00  0.19794636237E+02  0.37358490452E+02  0.00000000000E+00 0.  1.
</event>
<event>
 7    1  0.1427898E-010  0.4778728E+02  0.7816164E-02  0.1312668E+00
        -11   -1    0    0    0    0  0.00000000000E+00  0.00000000000E+00  0.45593999997E+02  0.45594000000E+02  0.51100000000E-03 0. -1.
         11   -1    0    0    0    0 -0.00000000000E+00 -0.00000000000E+00 -0.45593999997E+02  0.45594000000E+02  0.51100000000E-03 0.  1.
    9900012    2    1    2    0    0  0.22273641313E+02 -0.22264435004E+02  0.29863062743E+02  0.47787277889E+02  0.20000031206E+02 0.  0.
        -12    1    1    2    0    0 -0.22273641313E+02  0.22264435004E+02 -0.29863062743E+02  0.43400722111E+02  0.00000000000E+00 0.  1.
         11    1    3    3    0    0  0.13545563010E+02 -0.21640637972E+02  0.22825545957E+02  0.34246241218E+02  0.51100000000E-03 0.  1.
        -11    1    3    3    0    0  0.66335864868E+01 -0.38888804512E+01  0.46640784879E+01  0.89934136591E+01  0.51100000000E-03 0. -1.
        -12    1    3    3    0    0  0.20944918162E+01  0.32650834190E+01  0.23734382987E+01  0.45476230120E+01  0.00000000000E+00 0.  1.
</event>
<event>
 7    1  0.1427898E-010  0.4778727E+02  0.7816164E-02  0.1312668E+00
        -11   -1    0    0    0    0  0.00000000000E+00  0.00000000000E+00  0.45593999997E+02  0.45594000000E+02  0.51100000000E-03 0.  1.
         11   -1    0    0    0    0 -0.00000000000E+00 -0.00000000000E+00 -0.45593999997E+02  0.45594000000E+02  0.51100000000E-03 0. -1.
    9900012    2    1    2    0    0  0.40985484820E+02  0.57736150827E+01 -0.13056741720E+02  0.47787273032E+02  0.20000009061E+02 0.  0.
        -12    1    1    2    0    0 -0.40985484820E+02 -0.57736150827E+01  0.13056741720E+02  0.43400726968E+02  0.00000000000E+00 0.  1.
         11    1    3    3    0    0  0.23975680926E+02  0.62174685800E+01 -0.14695089657E+02  0.28799927981E+02  0.51100000000E-03 0. -1.
        -11    1    3    3    0    0  0.16533939411E+01  0.53162519535E+00 -0.25084492645E+01  0.30510088244E+01  0.51100000000E-03 0.  1.
        -12    1    3    3    0    0  0.15356409952E+02 -0.97547869268E+00  0.41467972011E+01  0.15936336226E+02  0.00000000000E+00 0.  1.
</event>
<event>
 7    1  0.1427898E-010  0.4778727E+02  0.7816164E-02  0.1312668E+00
        -11   -1    0    0    0    0  0.00000000000E+00  0.00000000000E+00  0.45593999997E+02  0.45594000000E+02  0.51100000000E-03 0.  1.
         11   -1    0    0    0    0 -0.00000000000E+00 -0.00000000000E+00 -0.45593999997E+02  0.45594000000E+02  0.51100000000E-03 0. -1.
    9900012    2    1    2    0    0 -0.14125488519E+02  0.25141088547E+02 -0.32434851710E+02  0.47787269998E+02  0.19999995231E+02 0.  0.
        -12    1    1    2    0    0  0.14125488519E+02 -0.25141088547E+02  0.32434851710E+02  0.43400730002E+02  0.00000000000E+00 0.  1.
         11    1    3    3    0    0 -0.11456293439E+02  0.22268518087E+02 -0.18330246846E+02  0.31034360101E+02  0.51100000000E-03 0. -1.
        -11    1    3    3    0    0  0.13824673637E+01  0.44409430943E+01 -0.81165814289E+01  0.93547894648E+01  0.51100000000E-03 0.  1.
         12    1    3    3    0    0 -0.40516624438E+01 -0.15683726347E+01 -0.59880234353E+01  0.73981204331E+01  0.00000000000E+00 0. -1.
</event>
<event>
 7    1  0.1427898E-010  0.4778727E+02  0.7816164E-02  0.1312668E+00
        -11   -1    0    0    0    0  0.00000000000E+00  0.00000000000E+00  0.45593999997E+02  0.45594000000E+02  0.51100000000E-03 0. -1.
         11   -1    0    0    0    0 -0.00000000000E+00 -0.00000000000E+00 -0.45593999997E+02  0.45594000000E+02  0.51100000000E-03 0.  1.
    9900012    2    1    2    0    0  0.31002372695E+01 -0.35562314639E+02  0.24684684469E+02  0.47787270272E+02  0.19999996477E+02 0.  0.
        -12    1    1    2    0    0 -0.31002372695E+01  0.35562314639E+02 -0.24684684469E+02  0.43400729728E+02  0.00000000000E+00 0.  1.
         11    1    3    3    0    0  0.18639900784E+01 -0.17907258835E+02  0.88859222495E+00  0.18025925063E+02  0.51100000000E-03 0. -1.
        -11    1    3    3    0    0  0.14445452401E+01 -0.73023779082E+01  0.86210002652E+01  0.11390043016E+02  0.51100000000E-03 0.  1.
         12    1    3    3    0    0 -0.20829804906E+00 -0.10352677896E+02  0.15175091979E+02  0.18371302193E+02  0.00000000000E+00 0. -1.
</event>
<event>
 7    1  0.1427898E-010  0.4778727E+02  0.7816164E-02  0.1312668E+00
        -11   -1    0    0    0    0  0.00000000000E+00  0.00000000000E+00  0.45593999997E+02  0.45594000000E+02  0.51100000000E-03 0.  1.
         11   -1    0    0    0    0 -0.00000000000E+00 -0.00000000000E+00 -0.45593999997E+02  0.45594000000E+02  0.51100000000E-03 0. -1.
    9900012    2    1    2    0    0  0.34366300402E+02 -0.91884382286E+01 -0.24862690355E+02  0.47787269913E+02  0.19999994841E+02 0.  0.
        -12    1    1    2    0    0 -0.34366300402E+02  0.91884382286E+01  0.24862690355E+02  0.43400730087E+02  0.00000000000E+00 0.  1.
         11    1    3    3    0    0  0.18286870736E+02 -0.10930553213E+02 -0.13846287569E+02  0.25408784201E+02  0.51100000000E-03 0. -1.
        -11    1    3    3    0    0  0.18728933171E+01 -0.76081718097E+00  0.20760330336E+01  0.28976689904E+01  0.51100000000E-03 0.  1.
         12    1    3    3    0    0  0.14206536349E+02  0.25029321650E+01 -0.13092435819E+02  0.19480816721E+02  0.00000000000E+00 0. -1.
</event>
<event>
 7    1  0.1589183E-010  0.4778727E+02  0.7816164E-02  0.1312668E+00
        -11   -1    0    0    0    0  0.00000000000E+00  0.00000000000E+00  0.45593999997E+02  0.45594000000E+02  0.51100000000E-03 0. -1.
         11   -1    0    0    0    0 -0.00000000000E+00 -0.00000000000E+00 -0.45593999997E+02  0.45594000000E+02  0.51100000000E-03 0.  1.
    9900012    2    1    2    0    0  0.40364520476E+02  0.69744213779E+01  0.14341771087E+02  0.47787268846E+02  0.19999989974E+02 0.  0.
        -12    1    1    2    0    0 -0.40364520476E+02 -0.69744213779E+01 -0.14341771087E+02  0.43400731154E+02  0.00000000000E+00 0.  1.
         11    1    3    3    0    0  0.39879430047E+02  0.64452193580E+01  0.15612247696E+02  0.43308799012E+02  0.51100000000E-03 0. -1.
        -11    1    3    3    0    0 -0.52453179116E+00 -0.26509686901E+00  0.13982007939E+01  0.15166989389E+01  0.51100000000E-03 0.  1.
         12    1    3    3    0    0  0.10096222204E+01  0.79429888884E+00 -0.26686774031E+01  0.29617708950E+01  0.00000000000E+00 0. -1.
</event>
<event>
 7    1  0.1427898E-010  0.4778728E+02  0.7816164E-02  0.1312668E+00
        -11   -1    0    0    0    0  0.00000000000E+00  0.00000000000E+00  0.45593999997E+02  0.45594000000E+02  0.51100000000E-03 0.  1.
         11   -1    0    0    0    0 -0.00000000000E+00 -0.00000000000E+00 -0.45593999997E+02  0.45594000000E+02  0.51100000000E-03 0. -1.
    9900012    2    1    2    0    0  0.13094489025E+02 -0.36683945728E+02 -0.19142763897E+02  0.47787275045E+02  0.20000018240E+02 0.  0.
        -12    1    1    2    0    0 -0.13094489025E+02  0.36683945728E+02  0.19142763897E+02  0.43400724955E+02  0.00000000000E+00 0.  1.
         11    1    3    3    0    0  0.47008525374E+01 -0.17693668409E+02 -0.15661250127E+02  0.24092294871E+02  0.51100000000E-03 0. -1.
        -11    1    3    3    0    0 -0.25861546811E+01 -0.50599401455E+01 -0.44768617734E+00  0.57001415320E+01  0.51100000000E-03 0.  1.
        -12    1    3    3    0    0  0.10979791169E+02 -0.13930337173E+02 -0.30338275926E+01  0.17994838642E+02  0.00000000000E+00 0.  1.
</event>
<event>
 7    1  0.1427898E-010  0.4778727E+02  0.7816164E-02  0.1312668E+00
        -11   -1    0    0    0    0  0.00000000000E+00  0.00000000000E+00  0.45593999997E+02  0.45594000000E+02  0.51100000000E-03 0. -1.
         11   -1    0    0    0    0 -0.00000000000E+00 -0.00000000000E+00 -0.45593999997E+02  0.45594000000E+02  0.51100000000E-03 0.  1.
    9900012    2    1    2    0    0  0.39776298238E+02 -0.58362485657E+01  0.16352596946E+02  0.47787272752E+02  0.20000007785E+02 0.  0.
        -12    1    1    2    0    0 -0.39776298238E+02  0.58362485657E+01 -0.16352596946E+02  0.43400727248E+02  0.00000000000E+00 0.  1.
         11    1    3    3    0    0  0.12728983421E+02 -0.31115390055E+01  0.83490332805E+01  0.15537536835E+02  0.51100000000E-03 0. -1.
        -11    1    3    3    0    0  0.22776062569E+02  0.31934181038E+01  0.25520121718E+01  0.23140002414E+02  0.51100000000E-03 0.  1.
        -12    1    3    3    0    0  0.42712522471E+01 -0.59181276639E+01  0.54515514934E+01  0.91097335027E+01  0.00000000000E+00 0.  1.
</event>
<event>
 7    1  0.1427898E-010  0.4778726E+02  0.7816164E-02  0.1312668E+00
        -11   -1    0    0    0    0  0.00000000000E+00  0.00000000000E+00  0.45593999997E+02  0.45594000000E+02  0.51100000000E-03 0.  1.
         11   -1    0    0    0    0 -0.00000000000E+00 -0.00000000000E+00 -0.45593999997E+02  0.45594000000E+02  0.51100000000E-03 0. -1.
    9900012    2    1    2    0    0  0.20296050930E+01  0.21221310083E+02 -0.37804242847E+02  0.47787261807E+02  0.19999957885E+02 0.  0.
        -12    1    1    2    0    0 -0.20296050930E+01 -0.21221310083E+02  0.37804242847E+02  0.43400738193E+02  0.00000000000E+00 0.  1.
         11    1    3    3    0    0 -0.23741567670E+01  0.54871344091E+01 -0.24918242288E+01  0.64772256890E+01  0.51100000000E-03 0. -1.
        -11    1    3    3    0    0 -0.26588650686E-01  0.13999752064E+02 -0.15294153542E+02  0.20734148105E+02  0.51100000000E-03 0.  1.
         12    1    3    3    0    0  0.44303505107E+01  0.17344236098E+01 -0.20018265076E+02  0.20575888014E+02  0.00000000000E+00 0. -1.
</event>
<event>
 7    1  0.1427898E-010  0.4778730E+02  0.7816164E-02  0.1312668E+00
        -11   -1    0    0    0    0  0.00000000000E+00  0.00000000000E+00  0.45593999997E+02  0.45594000000E+02  0.51100000000E-03 0.  1.
         11   -1    0    0    0    0 -0.00000000000E+00 -0.00000000000E+00 -0.45593999997E+02  0.45594000000E+02  0.51100000000E-03 0. -1.
    9900012    2    1    2    0    0  0.42638694758E+02  0.75995865907E+01  0.27944154726E+01  0.47787299949E+02  0.20000131788E+02 0.  0.
        -12    1    1    2    0    0 -0.42638694758E+02 -0.75995865907E+01 -0.27944154726E+01  0.43400700051E+02  0.00000000000E+00 0.  1.
         11    1    3    3    0    0  0.24945324703E+02  0.47484345139E+01  0.45784939997E+01  0.25802702619E+02  0.51100000000E-03 0. -1.
        -11    1    3    3    0    0  0.71747685542E+01  0.59237384446E+01  0.33426932472E+01  0.98864341080E+01  0.51100000000E-03 0.  1.
         12    1    3    3    0    0  0.10518601501E+02 -0.30725863678E+01 -0.51267717742E+01  0.12098163222E+02  0.00000000000E+00 0. -1.
</event>
<event>
 7    1  0.1427898E-010  0.4778731E+02  0.7816164E-02  0.1312668E+00
        -11   -1    0    0    0    0  0.00000000000E+00  0.00000000000E+00  0.45593999997E+02  0.45594000000E+02  0.51100000000E-03 0.  1.
         11   -1    0    0    0    0 -0.00000000000E+00 -0.00000000000E+00 -0.45593999997E+02  0.45594000000E+02  0.51100000000E-03 0. -1.
    9900012    2    1    2    0    0  0.12791106542E+01 -0.43345216451E+02  0.17820133792E+01  0.47787314695E+02  0.20000199020E+02 0.  0.
        -12    1    1    2    0    0 -0.12791106542E+01  0.43345216451E+02 -0.17820133792E+01  0.43400685305E+02  0.00000000000E+00 0.  1.
         11    1    3    3    0    0  0.33889573637E+01 -0.22246042784E+02 -0.26823703972E+01  0.22662007033E+02  0.51100000000E-03 0. -1.
        -11    1    3    3    0    0 -0.31854346450E+01 -0.21364269172E+02  0.67122407869E+01  0.22619309622E+02  0.51100000000E-03 0.  1.
         12    1    3    3    0    0  0.10755879355E+01  0.26509550559E+00 -0.22478570105E+01  0.25059980395E+01  0.00000000000E+00 0. -1.
</event>
<event>
 7    1  0.1427898E-010  0.4778727E+02  0.7816164E-02  0.1312668E+00
        -11   -1    0    0    0    0  0.00000000000E+00  0.00000000000E+00  0.45593999997E+02  0.45594000000E+02  0.51100000000E-03 0. -1.
         11   -1    0    0    0    0 -0.00000000000E+00 -0.00000000000E+00 -0.45593999997E+02  0.45594000000E+02  0.51100000000E-03 0.  1.
    9900012    2    1    2    0    0  0.16958560584E+02  0.39852314545E+02  0.27970352184E+01  0.47787272383E+02  0.20000006103E+02 0.  0.
        -12    1    1    2    0    0 -0.16958560584E+02 -0.39852314545E+02 -0.27970352184E+01  0.43400727617E+02  0.00000000000E+00 0.  1.
         11    1    3    3    0    0  0.98343651628E+01  0.24737501155E+02  0.21987467290E+01  0.26711293285E+02  0.51100000000E-03 0. -1.
        -11    1    3    3    0    0  0.10525519136E+02  0.82209811987E+01 -0.11143578204E+00  0.13356028719E+02  0.51100000000E-03 0.  1.
        -12    1    3    3    0    0 -0.34013237151E+01  0.68938321918E+01  0.70972427144E+00  0.77199503784E+01  0.00000000000E+00 0.  1.
</event>
<event>
 7    1  0.1427898E-010  0.4778727E+02  0.7816164E-02  0.1312668E+00
        -11   -1    0    0    0    0  0.00000000000E+00  0.00000000000E+00  0.45593999997E+02  0.45594000000E+02  0.51100000000E-03 0. -1.
         11   -1    0    0    0    0 -0.00000000000E+00 -0.00000000000E+00 -0.45593999997E+02  0.45594000000E+02  0.51100000000E-03 0.  1.
    9900012    2    1    2    0    0  0.39427098284E+02  0.11635876818E+02  0.13918825931E+02  0.47787269318E+02  0.19999992129E+02 0.  0.
        -12    1    1    2    0    0 -0.39427098284E+02 -0.11635876818E+02 -0.13918825931E+02  0.43400730682E+02  0.00000000000E+00 0.  1.
         11    1    3    3    0    0  0.16927928876E+02  0.30030661795E+01  0.32720694177E+01  0.17500846295E+02  0.51100000000E-03 0. -1.
        -11    1    3    3    0    0  0.11699696522E+02  0.82820514415E+01  0.12859217245E+02  0.19257069954E+02  0.51100000000E-03 0.  1.
        -12    1    3    3    0    0  0.10799472886E+02  0.35075919657E+00 -0.22124607318E+01  0.11029353069E+02  0.00000000000E+00 0.  1.
</event>
<event>
 7    1  0.1427898E-010  0.4778727E+02  0.7816164E-02  0.1312668E+00
        -11   -1    0    0    0    0  0.00000000000E+00  0.00000000000E+00  0.45593999997E+02  0.45594000000E+02  0.51100000000E-03 0.  1.
         11   -1    0    0    0    0 -0.00000000000E+00 -0.00000000000E+00 -0.45593999997E+02  0.45594000000E+02  0.51100000000E-03 0. -1.
    9900012    2    1    2    0    0  0.50856101422E+01  0.15684257810E+02 -0.40146779461E+02  0.47787271035E+02  0.19999999957E+02 0.  0.
        -12    1    1    2    0    0 -0.50856101422E+01 -0.15684257810E+02  0.40146779461E+02  0.43400728965E+02  0.00000000000E+00 0.  1.
         11    1    3    3    0    0  0.51628064538E+01  0.53002405611E+01 -0.20415903463E+02  0.21715345610E+02  0.51100000000E-03 0. -1.
        -11    1    3    3    0    0 -0.20471319659E+01  0.34803914607E+01 -0.18314537432E+02  0.18754363642E+02  0.51100000000E-03 0.  1.
         12    1    3    3    0    0  0.19699356543E+01  0.69036257885E+01 -0.14163385659E+01  0.73175617826E+01  0.00000000000E+00 0. -1.
</event>
<event>
 7    1  0.1427898E-010  0.4778727E+02  0.7816164E-02  0.1312668E+00
        -11   -1    0    0    0    0  0.00000000000E+00  0.00000000000E+00  0.45593999997E+02  0.45594000000E+02  0.51100000000E-03 0. -1.
         11   -1    0    0    0    0 -0.00000000000E+00 -0.00000000000E+00 -0.45593999997E+02  0.45594000000E+02  0.51100000000E-03 0.  1.
    9900012    2    1    2    0    0  0.36944118985E+02 -0.67029146329E+01  0.21767554091E+02  0.47787269553E+02  0.19999993201E+02 0.  0.
        -12    1    1    2    0    0 -0.36944118985E+02  0.67029146329E+01 -0.21767554091E+02  0.43400730447E+02  0.00000000000E+00 0.  1.
         11    1    3    3    0    0  0.14208667288E+01 -0.34550214007E+01  0.48707512292E+01  0.61384243042E+01  0.51100000000E-03 0. -1.
        -11    1    3    3    0    0  0.17408538531E+02  0.32378162352E+01  0.13127104426E+02  0.22042267094E+02  0.51100000000E-03 0.  1.
         12    1    3    3    0    0  0.18114713726E+02 -0.64857094674E+01  0.37696984360E+01  0.19606578155E+02  0.00000000000E+00 0. -1.
</event>
<event>
 7    1  0.1427898E-010  0.4778728E+02  0.7816164E-02  0.1312668E+00
        -11   -1    0    0    0    0  0.00000000000E+00  0.00000000000E+00  0.45593999997E+02  0.45594000000E+02  0.51100000000E-03 0.  1.
         11   -1    0    0    0    0 -0.00000000000E+00 -0.00000000000E+00 -0.45593999997E+02  0.45594000000E+02  0.51100000000E-03 0. -1.
    9900012    2    1    2    0    0 -0.40325353615E+01  0.32949359373E+02 -0.27958911341E+02  0.47787281712E+02  0.20000048638E+02 0.  0.
        -12    1    1    2    0    0  0.40325353615E+01 -0.32949359373E+02  0.27958911341E+02  0.43400718288E+02  0.00000000000E+00 0.  1.
         11    1    3    3    0    0 -0.15417617755E+01  0.14826780684E+02 -0.16477378218E+02  0.22219686047E+02  0.51100000000E-03 0. -1.
        -11    1    3    3    0    0 -0.31171599427E+01  0.12990150782E+02 -0.14390169710E+02  0.19635113649E+02  0.51100000000E-03 0.  1.
        -12    1    3    3    0    0  0.62638635676E+00  0.51324279062E+01  0.29086365867E+01  0.59324820163E+01  0.00000000000E+00 0.  1.
</event>
<event>
 7    1  0.1427898E-010  0.4778727E+02  0.7816164E-02  0.1312668E+00
        -11   -1    0    0    0    0  0.00000000000E+00  0.00000000000E+00  0.45593999997E+02  0.45594000000E+02  0.51100000000E-03 0. -1.
         11   -1    0    0    0    0 -0.00000000000E+00 -0.00000000000E+00 -0.45593999997E+02  0.45594000000E+02  0.51100000000E-03 0.  1.
    9900012    2    1    2    0    0 -0.35325612396E+02  0.77911126207E+01  0.23979639736E+02  0.47787269029E+02  0.19999990809E+02 0.  0.
        -12    1    1    2    0    0  0.35325612396E+02 -0.77911126207E+01 -0.23979639736E+02  0.43400730971E+02  0.00000000000E+00 0.  1.
         11    1    3    3    0    0 -0.84303176549E+01 -0.25326662324E+01  0.11872972660E+02  0.14780126320E+02  0.51100000000E-03 0. -1.
        -11    1    3    3    0    0 -0.60688124963E+01  0.35410074715E-01 -0.12719797428E+01  0.62007799281E+01  0.51100000000E-03 0.  1.
         12    1    3    3    0    0 -0.20826482245E+02  0.10288368778E+02  0.13378646819E+02  0.26806362780E+02  0.00000000000E+00 0. -1.
</event>
<event>
 7    1  0.1427898E-010  0.4778727E+02  0.7816164E-02  0.1312668E+00
        -11   -1    0    0    0    0  0.00000000000E+00  0.00000000000E+00  0.45593999997E+02  0.45594000000E+02  0.51100000000E-03 0.  1.
         11   -1    0    0    0    0 -0.00000000000E+00 -0.00000000000E+00 -0.45593999997E+02  0.45594000000E+02  0.51100000000E-03 0. -1.
    9900012    2    1    2    0    0  0.28560299246E+02 -0.72289816635E+01 -0.31869643295E+02  0.47787273823E+02  0.20000012670E+02 0.  0.
        -12    1    1    2    0    0 -0.28560299246E+02  0.72289816635E+01  0.31869643295E+02  0.43400726177E+02  0.00000000000E+00 0.  1.
         11    1    3    3    0    0  0.19426888415E+02  0.16771772278E+00 -0.24808090167E+02  0.31509894648E+02  0.51100000000E-03 0. -1.
        -11    1    3    3    0    0  0.90017835314E+01 -0.79520417294E+01 -0.85101644387E+01  0.14720393115E+02  0.51100000000E-03 0.  1.
        -12    1    3    3    0    0  0.13162729945E+00  0.55534234308E+00  0.14486113106E+01  0.15569860607E+01  0.00000000000E+00 0.  1.
</event>
<event>
 7    1  0.1427898E-010  0.4778727E+02  0.7816164E-02  0.1312668E+00
        -11   -1    0    0    0    0  0.00000000000E+00  0.00000000000E+00  0.45593999997E+02  0.45594000000E+02  0.51100000000E-03 0.  1.
         11   -1    0    0    0    0 -0.00000000000E+00 -0.00000000000E+00 -0.45593999997E+02  0.45594000000E+02  0.51100000000E-03 0. -1.
    9900012    2    1    2    0    0 -0.13559070460E+02 -0.41041101902E+02 -0.39246443898E+01  0.47787271082E+02  0.20000000171E+02 0.  0.
        -12    1    1    2    0    0  0.13559070460E+02  0.41041101902E+02  0.39246443898E+01  0.43400728918E+02  0.00000000000E+00 0.  1.
         11    1    3    3    0    0  0.16304208269E+01 -0.26878128120E+01 -0.21306832689E+01  0.37976863007E+01  0.51100000000E-03 0.  1.
        -11    1    3    3    0    0 -0.15854010866E+02 -0.31422169797E+02  0.33185502521E+01  0.35351311027E+02  0.51100000000E-03 0. -1.
         12    1    3    3    0    0  0.66451957849E+00 -0.69311192925E+01 -0.51125113730E+01  0.86382737544E+01  0.00000000000E+00 0. -1.
</event>
<event>
 7    1  0.1427898E-010  0.4778725E+02  0.7816164E-02  0.1312668E+00
        -11   -1    0    0    0    0  0.00000000000E+00  0.00000000000E+00  0.45593999997E+02  0.45594000000E+02  0.51100000000E-03 0. -1.
         11   -1    0    0    0    0 -0.00000000000E+00 -0.00000000000E+00 -0.45593999997E+02  0.45594000000E+02  0.51100000000E-03 0.  1.
    9900012    2    1    2    0    0  0.30141046643E+02 -0.19265354750E+02 -0.24576174057E+02  0.47787252107E+02  0.19999913657E+02 0.  0.
        -12    1    1    2    0    0 -0.30141046643E+02  0.19265354750E+02  0.24576174057E+02  0.43400747893E+02  0.00000000000E+00 0.  1.
         11    1    3    3    0    0  0.22288418549E+02 -0.59821405068E+01 -0.74295252765E+01  0.24243709546E+02  0.51100000000E-03 0. -1.
        -11    1    3    3    0    0  0.91372938378E+00 -0.55201235419E+01 -0.46317042412E+01  0.72635631576E+01  0.51100000000E-03 0.  1.
        -12    1    3    3    0    0  0.69388987095E+01 -0.77630907017E+01 -0.12514944539E+02  0.16279979403E+02  0.00000000000E+00 0.  1.
</event>
<event>
 7    1  0.1427898E-010  0.4778728E+02  0.7816164E-02  0.1312668E+00
        -11   -1    0    0    0    0  0.00000000000E+00  0.00000000000E+00  0.45593999997E+02  0.45594000000E+02  0.51100000000E-03 0.  1.
         11   -1    0    0    0    0 -0.00000000000E+00 -0.00000000000E+00 -0.45593999997E+02  0.45594000000E+02  0.51100000000E-03 0. -1.
    9900012    2    1    2    0    0  0.21229208486E+02 -0.33419545094E+02  0.17778570567E+02  0.47787275828E+02  0.20000021811E+02 0.  0.
        -12    1    1    2    0    0 -0.21229208486E+02  0.33419545094E+02 -0.17778570567E+02  0.43400724172E+02  0.00000000000E+00 0.  1.
         11    1    3    3    0    0  0.30651680783E+01 -0.48118165621E+01  0.28407485880E+01  0.63732791228E+01  0.51100000000E-03 0.  1.
        -11    1    3    3    0    0  0.13748432659E+02 -0.14052169600E+02 -0.60273357057E+00  0.19668405097E+02  0.51100000000E-03 0. -1.
        -12    1    3    3    0    0  0.44156077486E+01 -0.14555558932E+02  0.15540555549E+02  0.21745591609E+02  0.00000000000E+00 0.  1.
</event>
<event>
 7    1  0.1427898E-010  0.4778727E+02  0.7816164E-02  0.1312668E+00
        -11   -1    0    0    0    0  0.00000000000E+00  0.00000000000E+00  0.45593999997E+02  0.45594000000E+02  0.51100000000E-03 0.  1.
         11   -1    0    0    0    0 -0.00000000000E+00 -0.00000000000E+00 -0.45593999997E+02  0.45594000000E+02  0.51100000000E-03 0. -1.
    9900012    2    1    2    0    0 -0.10656865495E+02 -0.15641296082E+02 -0.39056424266E+02  0.47787271875E+02  0.20000003789E+02 0.  0.
        -12    1    1    2    0    0  0.10656865495E+02  0.15641296082E+02  0.39056424266E+02  0.43400728125E+02  0.00000000000E+00 0.  1.
         11    1    3    3    0    0  0.14484319718E+01 -0.19709433931E+01 -0.10611501412E+02  0.10889744511E+02  0.51100000000E-03 0.  1.
        -11    1    3    3    0    0 -0.14110891657E+02 -0.57162937437E+01 -0.19850696349E+02  0.25016862779E+02  0.51100000000E-03 0. -1.
         12    1    3    3    0    0  0.20055941903E+01 -0.79540589452E+01 -0.85942265052E+01  0.11880664585E+02  0.00000000000E+00 0. -1.
</event>
<event>
 7    1  0.1427898E-010  0.4778728E+02  0.7816164E-02  0.1312668E+00
        -11   -1    0    0    0    0  0.00000000000E+00  0.00000000000E+00  0.45593999997E+02  0.45594000000E+02  0.51100000000E-03 0. -1.
         11   -1    0    0    0    0 -0.00000000000E+00 -0.00000000000E+00 -0.45593999997E+02  0.45594000000E+02  0.51100000000E-03 0.  1.
    9900012    2    1    2    0    0  0.21012343157E+02 -0.33004490601E+02 -0.18783179996E+02  0.47787276325E+02  0.20000024076E+02 0.  0.
        -12    1    1    2    0    0 -0.21012343157E+02  0.33004490601E+02  0.18783179996E+02  0.43400723675E+02  0.00000000000E+00 0.  1.
         11    1    3    3    0    0  0.16340625284E+02 -0.16047431726E+02 -0.75280009156E+01  0.24108232986E+02  0.51100000000E-03 0. -1.
        -11    1    3    3    0    0  0.59430831763E+01 -0.10561620350E+02 -0.12074297574E+02  0.17107212637E+02  0.51100000000E-03 0.  1.
        -12    1    3    3    0    0 -0.12713653030E+01 -0.63954385251E+01  0.81911849379E+00  0.65718307014E+01  0.00000000000E+00 0.  1.
</event>
<event>
 7    1  0.1427898E-010  0.4778727E+02  0.7816164E-02  0.1312668E+00
        -11   -1    0    0    0    0  0.00000000000E+00  0.00000000000E+00  0.45593999997E+02  0.45594000000E+02  0.51100000000E-03 0. -1.
         11   -1    0    0    0    0 -0.00000000000E+00 -0.00000000000E+00 -0.45593999997E+02  0.45594000000E+02  0.51100000000E-03 0.  1.
    9900012    2    1    2    0    0 -0.15323935801E+02  0.35812102202E+02  0.19138804839E+02  0.47787268172E+02  0.19999986903E+02 0.  0.
        -12    1    1    2    0    0  0.15323935801E+02 -0.35812102202E+02 -0.19138804839E+02  0.43400731828E+02  0.00000000000E+00 0.  1.
         11    1    3    3    0    0 -0.92255212699E+01  0.17635780629E+02  0.80354925524E+01  0.21463926526E+02  0.51100000000E-03 0. -1.
        -11    1    3    3    0    0  0.40812606037E+00  0.68129317951E+01  0.11330134633E+02  0.13227038882E+02  0.51100000000E-03 0.  1.
        -12    1    3    3    0    0 -0.65065405911E+01  0.11363389778E+02 -0.22682234616E+00  0.13096302764E+02  0.00000000000E+00 0.  1.
</event>
<event>
 7    1  0.1427898E-010  0.4778727E+02  0.7816164E-02  0.1312668E+00
        -11   -1    0    0    0    0  0.00000000000E+00  0.00000000000E+00  0.45593999997E+02  0.45594000000E+02  0.51100000000E-03 0.  1.
         11   -1    0    0    0    0 -0.00000000000E+00 -0.00000000000E+00 -0.45593999997E+02  0.45594000000E+02  0.51100000000E-03 0. -1.
    9900012    2    1    2    0    0  0.33502106811E+02  0.11009492147E+02 -0.25298676661E+02  0.47787272830E+02  0.20000008142E+02 0.  0.
        -12    1    1    2    0    0 -0.33502106811E+02 -0.11009492147E+02  0.25298676661E+02  0.43400727170E+02  0.00000000000E+00 0.  1.
         11    1    3    3    0    0  0.63015446702E+01  0.12763525341E+01 -0.59648243060E+01  0.87702719618E+01  0.51100000000E-03 0. -1.
        -11    1    3    3    0    0  0.28773653375E+02  0.11510880035E+02 -0.15870034164E+02  0.34817832677E+02  0.51100000000E-03 0.  1.
        -12    1    3    3    0    0 -0.15730912344E+01 -0.17777404220E+01 -0.34638181907E+01  0.41991681912E+01  0.00000000000E+00 0.  1.
</event>
<event>
 7    1  0.1427898E-010  0.4778727E+02  0.7816164E-02  0.1312668E+00
        -11   -1    0    0    0    0  0.00000000000E+00  0.00000000000E+00  0.45593999997E+02  0.45594000000E+02  0.51100000000E-03 0.  1.
         11   -1    0    0    0    0 -0.00000000000E+00 -0.00000000000E+00 -0.45593999997E+02  0.45594000000E+02  0.51100000000E-03 0. -1.
    9900012    2    1    2    0    0 -0.34665273347E+02 -0.15617909016E+02  0.20928995386E+02  0.47787272977E+02  0.20000008813E+02 0.  0.
        -12    1    1    2    0    0  0.34665273347E+02  0.15617909016E+02 -0.20928995386E+02  0.43400727023E+02  0.00000000000E+00 0.  1.
         11    1    3    3    0    0 -0.26976346705E+02 -0.17639626798E+02  0.13642765466E+02  0.35000068070E+02  0.51100000000E-03 0.  1.
        -11    1    3    3    0    0 -0.51834381333E+01  0.94436498428E+00  0.28835022156E+00  0.52766468725E+01  0.51100000000E-03 0. -1.
        -12    1    3    3    0    0 -0.25054885082E+01  0.10773527973E+01  0.69978796984E+01  0.75105580344E+01  0.00000000000E+00 0.  1.
</event>
<event>
 7    1  0.1427898E-010  0.4778727E+02  0.7816164E-02  0.1312668E+00
        -11   -1    0    0    0    0  0.00000000000E+00  0.00000000000E+00  0.45593999997E+02  0.45594000000E+02  0.51100000000E-03 0. -1.
         11   -1    0    0    0    0 -0.00000000000E+00 -0.00000000000E+00 -0.45593999997E+02  0.45594000000E+02  0.51100000000E-03 0.  1.
    9900012    2    1    2    0    0 -0.98238803546E+01  0.29130404684E+02  0.30635506135E+02  0.47787270301E+02  0.19999996609E+02 0.  0.
        -12    1    1    2    0    0  0.98238803546E+01 -0.29130404684E+02 -0.30635506135E+02  0.43400729699E+02  0.00000000000E+00 0.  1.
         11    1    3    3    0    0 -0.23701427071E+01  0.17665569375E+02  0.86153264685E+01  0.19796812072E+02  0.51100000000E-03 0. -1.
        -11    1    3    3    0    0  0.22142762418E+01 -0.85978352875E-01  0.27518156232E+01  0.35331149199E+01  0.51100000000E-03 0.  1.
         12    1    3    3    0    0 -0.96680138893E+01  0.11550813662E+02  0.19268364043E+02  0.24457343309E+02  0.00000000000E+00 0. -1.
</event>
<event>
 7    1  0.1427898E-010  0.4778727E+02  0.7816164E-02  0.1312668E+00
        -11   -1    0    0    0    0  0.00000000000E+00  0.00000000000E+00  0.45593999997E+02  0.45594000000E+02  0.51100000000E-03 0.  1.
         11   -1    0    0    0    0 -0.00000000000E+00 -0.00000000000E+00 -0.45593999997E+02  0.45594000000E+02  0.51100000000E-03 0. -1.
    9900012    2    1    2    0    0  0.13944269881E+02 -0.25487571876E+02 -0.32242272796E+02  0.47787272613E+02  0.20000007152E+02 0.  0.
        -12    1    1    2    0    0 -0.13944269881E+02  0.25487571876E+02  0.32242272796E+02  0.43400727387E+02  0.00000000000E+00 0.  1.
         11    1    3    3    0    0  0.72700402806E+01 -0.21062664295E+02 -0.21886749555E+02  0.31233301447E+02  0.51100000000E-03 0. -1.
        -11    1    3    3    0    0  0.31889410440E+01 -0.63416458582E+01 -0.21198523761E+01  0.74080761018E+01  0.51100000000E-03 0.  1.
         12    1    3    3    0    0  0.34852885565E+01  0.19167382773E+01 -0.82356708646E+01  0.91458950648E+01  0.00000000000E+00 0. -1.
</event>
<event>
 7    1  0.1427898E-010  0.4778728E+02  0.7816164E-02  0.1312668E+00
        -11   -1    0    0    0    0  0.00000000000E+00  0.00000000000E+00  0.45593999997E+02  0.45594000000E+02  0.51100000000E-03 0.  1.
         11   -1    0    0    0    0 -0.00000000000E+00 -0.00000000000E+00 -0.45593999997E+02  0.45594000000E+02  0.51100000000E-03 0. -1.
    9900012    2    1    2    0    0 -0.57813406929E+01  0.67709442159E+01 -0.42477680356E+02  0.47787275188E+02  0.20000018891E+02 0.  0.
        -12    1    1    2    0    0  0.57813406929E+01 -0.67709442159E+01  0.42477680356E+02  0.43400724812E+02  0.00000000000E+00 0.  1.
         11    1    3    3    0    0 -0.43002600468E+00 -0.33433163321E+01 -0.19572722289E+02  0.19860869682E+02  0.51100000000E-03 0. -1.
        -11    1    3    3    0    0 -0.88134604700E+01  0.67291681087E+01 -0.16889242674E+02  0.20204091349E+02  0.51100000000E-03 0.  1.
         12    1    3    3    0    0  0.34621457817E+01  0.33850924393E+01 -0.60157153934E+01  0.77223141565E+01  0.00000000000E+00 0. -1.
</event>
<event>
 7    1  0.1427898E-010  0.4778730E+02  0.7816164E-02  0.1312668E+00
        -11   -1    0    0    0    0  0.00000000000E+00  0.00000000000E+00  0.45593999997E+02  0.45594000000E+02  0.51100000000E-03 0.  1.
         11   -1    0    0    0    0 -0.00000000000E+00 -0.00000000000E+00 -0.45593999997E+02  0.45594000000E+02  0.51100000000E-03 0. -1.
    9900012    2    1    2    0    0  0.35139113629E+02  0.62507422374E+01 -0.24693967390E+02  0.47787295966E+02  0.20000113627E+02 0.  0.
        -12    1    1    2    0    0 -0.35139113629E+02 -0.62507422374E+01  0.24693967390E+02  0.43400704034E+02  0.00000000000E+00 0.  1.
         11    1    3    3    0    0  0.12906097568E+02  0.85060551881E+01 -0.12068371165E+02  0.19610352168E+02  0.51100000000E-03 0. -1.
        -11    1    3    3    0    0  0.12033883368E+02  0.63035165259E+00 -0.48465197947E+00  0.12060123545E+02  0.51100000000E-03 0.  1.
         12    1    3    3    0    0  0.10199132693E+02 -0.28856646034E+01 -0.12140944246E+02  0.16116820253E+02  0.00000000000E+00 0. -1.
</event>
<event>
 7    1  0.1427898E-010  0.4778727E+02  0.7816164E-02  0.1312668E+00
        -11   -1    0    0    0    0  0.00000000000E+00  0.00000000000E+00  0.45593999997E+02  0.45594000000E+02  0.51100000000E-03 0. -1.
         11   -1    0    0    0    0 -0.00000000000E+00 -0.00000000000E+00 -0.45593999997E+02  0.45594000000E+02  0.51100000000E-03 0.  1.
    9900012    2    1    2    0    0 -0.20731053359E+02  0.33818854062E+02  0.17610562991E+02  0.47787269680E+02  0.19999993779E+02 0.  0.
        -12    1    1    2    0    0  0.20731053359E+02 -0.33818854062E+02 -0.17610562991E+02  0.43400730320E+02  0.00000000000E+00 0.  1.
         11    1    3    3    0    0 -0.97650868509E+01  0.10848374184E+02 -0.10622814306E-01  0.14596035651E+02  0.51100000000E-03 0. -1.
        -11    1    3    3    0    0  0.13966132941E+01 -0.34535438929E+00  0.21899931987E+01  0.26202802940E+01  0.51100000000E-03 0.  1.
         12    1    3    3    0    0 -0.12362579802E+02  0.23315834268E+02  0.15431192606E+02  0.30570953734E+02  0.00000000000E+00 0. -1.
</event>
<event>
 7    1  0.1427898E-010  0.4778727E+02  0.7816164E-02  0.1312668E+00
        -11   -1    0    0    0    0  0.00000000000E+00  0.00000000000E+00  0.45593999997E+02  0.45594000000E+02  0.51100000000E-03 0.  1.
         11   -1    0    0    0    0 -0.00000000000E+00 -0.00000000000E+00 -0.45593999997E+02  0.45594000000E+02  0.51100000000E-03 0. -1.
    9900012    2    1    2    0    0  0.27034872236E+02 -0.12906397007E+02 -0.31403248327E+02  0.47787269522E+02  0.19999993060E+02 0.  0.
        -12    1    1    2    0    0 -0.27034872236E+02  0.12906397007E+02  0.31403248327E+02  0.43400730478E+02  0.00000000000E+00 0.  1.
         11    1    3    3    0    0  0.45691740336E+01  0.21550684055E+01 -0.27648305895E+01  0.57589894627E+01  0.51100000000E-03 0.  1.
        -11    1    3    3    0    0  0.68485391525E+01 -0.13141055231E+02 -0.16329991739E+02  0.22051268706E+02  0.51100000000E-03 0. -1.
         12    1    3    3    0    0  0.15617159050E+02 -0.19204101819E+01 -0.12308425998E+02  0.19977011353E+02  0.00000000000E+00 0. -1.
</event>
<event>
 7    1  0.1427898E-010  0.4778727E+02  0.7816164E-02  0.1312668E+00
        -11   -1    0    0    0    0  0.00000000000E+00  0.00000000000E+00  0.45593999997E+02  0.45594000000E+02  0.51100000000E-03 0.  1.
         11   -1    0    0    0    0 -0.00000000000E+00 -0.00000000000E+00 -0.45593999997E+02  0.45594000000E+02  0.51100000000E-03 0. -1.
    9900012    2    1    2    0    0  0.11561946892E+02 -0.17504858522E+02 -0.37993743794E+02  0.47787271258E+02  0.20000000975E+02 0.  0.
        -12    1    1    2    0    0 -0.11561946892E+02  0.17504858522E+02  0.37993743794E+02  0.43400728742E+02  0.00000000000E+00 0.  1.
         11    1    3    3    0    0  0.14491124107E+01 -0.12166124158E+02 -0.32001455766E+02  0.34266713808E+02  0.51100000000E-03 0. -1.
        -11    1    3    3    0    0  0.55643507594E+01 -0.10272244442E+01 -0.40529981576E+01  0.69601712450E+01  0.51100000000E-03 0.  1.
         12    1    3    3    0    0  0.45484837221E+01 -0.43115099200E+01 -0.19392898703E+01  0.65603862052E+01  0.00000000000E+00 0. -1.
</event>
<event>
 7    1  0.1427898E-010  0.4778727E+02  0.7816164E-02  0.1312668E+00
        -11   -1    0    0    0    0  0.00000000000E+00  0.00000000000E+00  0.45593999997E+02  0.45594000000E+02  0.51100000000E-03 0.  1.
         11   -1    0    0    0    0 -0.00000000000E+00 -0.00000000000E+00 -0.45593999997E+02  0.45594000000E+02  0.51100000000E-03 0. -1.
    9900012    2    1    2    0    0 -0.28850024818E+02 -0.54934004152E+01 -0.31955000590E+02  0.47787269098E+02  0.19999991124E+02 0.  0.
        -12    1    1    2    0    0  0.28850024818E+02  0.54934004152E+01  0.31955000590E+02  0.43400730902E+02  0.00000000000E+00 0.  1.
         11    1    3    3    0    0 -0.30780743909E+01  0.37847355826E+01 -0.32476986751E+01  0.58605726965E+01  0.51100000000E-03 0. -1.
        -11    1    3    3    0    0 -0.24584697729E+02 -0.37091023102E+01 -0.23382913966E+02  0.34131004500E+02  0.51100000000E-03 0.  1.
        -12    1    3    3    0    0 -0.11872526980E+01 -0.55690336876E+01 -0.53243879496E+01  0.77956919013E+01  0.00000000000E+00 0.  1.
</event>
<event>
 7    1  0.1427898E-010  0.4778728E+02  0.7816164E-02  0.1312668E+00
        -11   -1    0    0    0    0  0.00000000000E+00  0.00000000000E+00  0.45593999997E+02  0.45594000000E+02  0.51100000000E-03 0.  1.
         11   -1    0    0    0    0 -0.00000000000E+00 -0.00000000000E+00 -0.45593999997E+02  0.45594000000E+02  0.51100000000E-03 0. -1.
    9900012    2    1    2    0    0  0.35201476889E+02  0.20016602650E+02 -0.15614559113E+02  0.47787276353E+02  0.20000024203E+02 0.  0.
        -12    1    1    2    0    0 -0.35201476889E+02 -0.20016602650E+02  0.15614559113E+02  0.43400723647E+02  0.00000000000E+00 0.  1.
         11    1    3    3    0    0  0.16469272043E+02 -0.73786849153E+00 -0.36054173970E+01  0.16875437962E+02  0.51100000000E-03 0. -1.
        -11    1    3    3    0    0  0.11467275643E+02  0.89491551545E+01 -0.50196965819E+01  0.15387759508E+02  0.51100000000E-03 0.  1.
         12    1    3    3    0    0  0.72649292034E+01  0.11805315987E+02 -0.69894451337E+01  0.15524078883E+02  0.00000000000E+00 0. -1.
</event>
<event>
 7    1  0.1427898E-010  0.4778727E+02  0.7816164E-02  0.1312668E+00
        -11   -1    0    0    0    0  0.00000000000E+00  0.00000000000E+00  0.45593999997E+02  0.45594000000E+02  0.51100000000E-03 0.  1.
         11   -1    0    0    0    0 -0.00000000000E+00 -0.00000000000E+00 -0.45593999997E+02  0.45594000000E+02  0.51100000000E-03 0. -1.
    9900012    2    1    2    0    0  0.24075418073E+02  0.13220472756E+02 -0.33603820468E+02  0.47787269530E+02  0.19999993094E+02 0.  0.
        -12    1    1    2    0    0 -0.24075418073E+02 -0.13220472756E+02  0.33603820468E+02  0.43400730470E+02  0.00000000000E+00 0.  1.
         11    1    3    3    0    0  0.72754723171E+01  0.12711746528E+02 -0.15779851829E+02  0.21529624270E+02  0.51100000000E-03 0. -1.
        -11    1    3    3    0    0  0.13752494725E+02  0.36021901517E+01 -0.10246797991E+02  0.17524376005E+02  0.51100000000E-03 0.  1.
        -12    1    3    3    0    0  0.30474510309E+01 -0.30934639231E+01 -0.75771706484E+01  0.87332692541E+01  0.00000000000E+00 0.  1.
</event>
<event>
 7    1  0.1427898E-010  0.4778727E+02  0.7816164E-02  0.1312668E+00
        -11   -1    0    0    0    0  0.00000000000E+00  0.00000000000E+00  0.45593999997E+02  0.45594000000E+02  0.51100000000E-03 0.  1.
         11   -1    0    0    0    0 -0.00000000000E+00 -0.00000000000E+00 -0.45593999997E+02  0.45594000000E+02  0.51100000000E-03 0. -1.
    9900012    2    1    2    0    0 -0.42606002568E+02 -0.24027493870E+00 -0.82640167594E+01  0.47787272357E+02  0.20000005987E+02 0.  0.
        -12    1    1    2    0    0  0.42606002568E+02  0.24027493870E+00  0.82640167594E+01  0.43400727643E+02  0.00000000000E+00 0.  1.
         11    1    3    3    0    0 -0.65030508436E+01 -0.45163371090E+01 -0.34315661037E+01  0.86291724599E+01  0.51100000000E-03 0. -1.
        -11    1    3    3    0    0 -0.10554729440E+02  0.75220606749E+01 -0.32155856086E+01  0.13353789777E+02  0.51100000000E-03 0.  1.
         12    1    3    3    0    0 -0.25548222285E+02 -0.32459985045E+01 -0.16168650471E+01  0.25804310121E+02  0.00000000000E+00 0. -1.
</event>
<event>
 7    1  0.1427898E-010  0.4778726E+02  0.7816164E-02  0.1312668E+00
        -11   -1    0    0    0    0  0.00000000000E+00  0.00000000000E+00  0.45593999997E+02  0.45594000000E+02  0.51100000000E-03 0.  1.
         11   -1    0    0    0    0 -0.00000000000E+00 -0.00000000000E+00 -0.45593999997E+02  0.45594000000E+02  0.51100000000E-03 0. -1.
    9900012    2    1    2    0    0  0.31753072401E+02 -0.29572422963E+02  0.91555596517E+00  0.47787262108E+02  0.19999959256E+02 0.  0.
        -12    1    1    2    0    0 -0.31753072401E+02  0.29572422963E+02 -0.91555596517E+00  0.43400737892E+02  0.00000000000E+00 0.  1.
         11    1    3    3    0    0  0.21949306618E+02 -0.16019083375E+02  0.86435629149E+01  0.28514807965E+02  0.51100000000E-03 0. -1.
        -11    1    3    3    0    0  0.26827308390E+01 -0.70970018739E+01 -0.12709023581E+01  0.76928326004E+01  0.51100000000E-03 0.  1.
        -12    1    3    3    0    0  0.71210349442E+01 -0.64563377149E+01 -0.64571045917E+01  0.11579621543E+02  0.00000000000E+00 0.  1.
</event>
<event>
 7    1  0.1427898E-010  0.4778727E+02  0.7816164E-02  0.1312668E+00
        -11   -1    0    0    0    0  0.00000000000E+00  0.00000000000E+00  0.45593999997E+02  0.45594000000E+02  0.51100000000E-03 0.  1.
         11   -1    0    0    0    0 -0.00000000000E+00 -0.00000000000E+00 -0.45593999997E+02  0.45594000000E+02  0.51100000000E-03 0. -1.
    9900012    2    1    2    0    0 -0.13402334804E+02 -0.13979085550E+02 -0.38840517257E+02  0.47787271990E+02  0.20000004311E+02 0.  0.
        -12    1    1    2    0    0  0.13402334804E+02  0.13979085550E+02  0.38840517257E+02  0.43400728010E+02  0.00000000000E+00 0.  1.
         11    1    3    3    0    0 -0.76829232697E+01 -0.39536703460E+01 -0.28197265292E+02  0.29491432475E+02  0.51100000000E-03 0. -1.
        -11    1    3    3    0    0 -0.36407027227E+01 -0.20782514813E+00  0.28671123445E-01  0.36467423684E+01  0.51100000000E-03 0.  1.
        -12    1    3    3    0    0 -0.20787088120E+01 -0.98175900555E+01 -0.10671923088E+02  0.14649097147E+02  0.00000000000E+00 0.  1.
</event>
<event>
 7    1  0.1427898E-010  0.4778727E+02  0.7816164E-02  0.1312668E+00
        -11   -1    0    0    0    0  0.00000000000E+00  0.00000000000E+00  0.45593999997E+02  0.45594000000E+02  0.51100000000E-03 0.  1.
         11   -1    0    0    0    0 -0.00000000000E+00 -0.00000000000E+00 -0.45593999997E+02  0.45594000000E+02  0.51100000000E-03 0. -1.
    9900012    2    1    2    0    0 -0.27806578124E+02 -0.17262673992E+01 -0.33278182898E+02  0.47787271399E+02  0.20000001615E+02 0.  0.
        -12    1    1    2    0    0  0.27806578124E+02  0.17262673992E+01  0.33278182898E+02  0.43400728601E+02  0.00000000000E+00 0.  1.
         11    1    3    3    0    0 -0.13472131319E+02  0.18604190828E+01 -0.17289708578E+02  0.21997579513E+02  0.51100000000E-03 0. -1.
        -11    1    3    3    0    0 -0.29660673980E+00 -0.58329807749E+01 -0.62705491615E+01  0.85692139269E+01  0.51100000000E-03 0.  1.
         12    1    3    3    0    0 -0.14037840065E+02  0.22462942928E+01 -0.97179251592E+01  0.17220477959E+02  0.00000000000E+00 0. -1.
</event>
<event>
 7    1  0.1427898E-010  0.4778728E+02  0.7816164E-02  0.1312668E+00
        -11   -1    0    0    0    0  0.00000000000E+00  0.00000000000E+00  0.45593999997E+02  0.45594000000E+02  0.51100000000E-03 0. -1.
         11   -1    0    0    0    0 -0.00000000000E+00 -0.00000000000E+00 -0.45593999997E+02  0.45594000000E+02  0.51100000000E-03 0.  1.
    9900012    2    1    2    0    0 -0.27347322353E+01  0.19242009839E+02  0.38805779561E+02  0.47787283067E+02  0.20000054813E+02 0.  0.
        -12    1    1    2    0    0  0.27347322353E+01 -0.19242009839E+02 -0.38805779561E+02  0.43400716933E+02  0.00000000000E+00 0.  1.
         11    1    3    3    0    0 -0.91030429362E+01  0.98162615906E+01  0.24740162560E+02  0.28130055565E+02  0.51100000000E-03 0. -1.
        -11    1    3    3    0    0  0.26885180831E+01  0.84309893342E+01  0.12951235282E+02  0.15685796321E+02  0.51100000000E-03 0.  1.
         12    1    3    3    0    0  0.36797926177E+01  0.99475891379E+00  0.11143817182E+01  0.39714311803E+01  0.00000000000E+00 0. -1.
</event>
<event>
 7    1  0.1427898E-010  0.4778726E+02  0.7816164E-02  0.1312668E+00
        -11   -1    0    0    0    0  0.00000000000E+00  0.00000000000E+00  0.45593999997E+02  0.45594000000E+02  0.51100000000E-03 0.  1.
         11   -1    0    0    0    0 -0.00000000000E+00 -0.00000000000E+00 -0.45593999997E+02  0.45594000000E+02  0.51100000000E-03 0. -1.
    9900012    2    1    2    0    0 -0.35951430105E+02 -0.16783718551E+02 -0.17590498292E+02  0.47787260777E+02  0.19999953184E+02 0.  0.
        -12    1    1    2    0    0  0.35951430105E+02  0.16783718551E+02  0.17590498292E+02  0.43400739223E+02  0.00000000000E+00 0.  1.
         11    1    3    3    0    0 -0.22361244306E+02 -0.41404612017E+00 -0.48762043858E+01  0.22890479474E+02  0.51100000000E-03 0. -1.
        -11    1    3    3    0    0 -0.54552479484E+01 -0.52634376734E+01 -0.54032488966E+01  0.93090603833E+01  0.51100000000E-03 0.  1.
        -12    1    3    3    0    0 -0.81349378511E+01 -0.11106234757E+02 -0.73110450094E+01  0.15587720919E+02  0.00000000000E+00 0.  1.
</event>
<event>
 7    1  0.1427898E-010  0.4778727E+02  0.7816164E-02  0.1312668E+00
        -11   -1    0    0    0    0  0.00000000000E+00  0.00000000000E+00  0.45593999997E+02  0.45594000000E+02  0.51100000000E-03 0. -1.
         11   -1    0    0    0    0 -0.00000000000E+00 -0.00000000000E+00 -0.45593999997E+02  0.45594000000E+02  0.51100000000E-03 0.  1.
    9900012    2    1    2    0    0  0.65445301352E+01  0.35116757976E+02  0.24649653865E+02  0.47787274187E+02  0.20000014327E+02 0.  0.
        -12    1    1    2    0    0 -0.65445301352E+01 -0.35116757976E+02 -0.24649653865E+02  0.43400725813E+02  0.00000000000E+00 0.  1.
         11    1    3    3    0    0 -0.16320507643E+01  0.10323038756E+01  0.46533922181E+01  0.50381842349E+01  0.51100000000E-03 0. -1.
        -11    1    3    3    0    0  0.14671028249E+01 -0.11690804811E+01  0.13198432529E+01  0.22937145296E+01  0.51100000000E-03 0.  1.
         12    1    3    3    0    0  0.67094780746E+01  0.35253534582E+02  0.18676418394E+02  0.40455375422E+02  0.00000000000E+00 0. -1.
</event>
<event>
 7    1  0.1427898E-010  0.4778727E+02  0.7816164E-02  0.1312668E+00
        -11   -1    0    0    0    0  0.00000000000E+00  0.00000000000E+00  0.45593999997E+02  0.45594000000E+02  0.51100000000E-03 0.  1.
         11   -1    0    0    0    0 -0.00000000000E+00 -0.00000000000E+00 -0.45593999997E+02  0.45594000000E+02  0.51100000000E-03 0. -1.
    9900012    2    1    2    0    0  0.31311497534E+02 -0.24419900716E+02 -0.17518041163E+02  0.47787271953E+02  0.20000004145E+02 0.  0.
        -12    1    1    2    0    0 -0.31311497534E+02  0.24419900716E+02  0.17518041163E+02  0.43400728047E+02  0.00000000000E+00 0.  1.
         11    1    3    3    0    0  0.39546143110E+01 -0.78395602096E+01 -0.21056207502E+01  0.90294693993E+01  0.51100000000E-03 0. -1.
        -11    1    3    3    0    0  0.77581888438E+01  0.12872614606E+01 -0.80052868385E+01  0.11221905089E+02  0.51100000000E-03 0.  1.
        -12    1    3    3    0    0  0.19598694379E+02 -0.17867601967E+02 -0.74071335740E+01  0.27535897465E+02  0.00000000000E+00 0.  1.
</event>
<event>
 7    1  0.1427898E-010  0.4778727E+02  0.7816164E-02  0.1312668E+00
        -11   -1    0    0    0    0  0.00000000000E+00  0.00000000000E+00  0.45593999997E+02  0.45594000000E+02  0.51100000000E-03 0. -1.
         11   -1    0    0    0    0 -0.00000000000E+00 -0.00000000000E+00 -0.45593999997E+02  0.45594000000E+02  0.51100000000E-03 0.  1.
    9900012    2    1    2    0    0 -0.28340973096E+02 -0.31783435350E+02  0.83800740523E+01  0.47787272359E+02  0.20000005994E+02 0.  0.
        -12    1    1    2    0    0  0.28340973096E+02  0.31783435350E+02 -0.83800740523E+01  0.43400727641E+02  0.00000000000E+00 0.  1.
         11    1    3    3    0    0 -0.93354225706E+01 -0.55427991220E+01 -0.40310564154E+01  0.11581111897E+02  0.51100000000E-03 0. -1.
        -11    1    3    3    0    0 -0.16289320705E+02 -0.14084492531E+02  0.84958718379E+01  0.23149400369E+02  0.51100000000E-03 0.  1.
        -12    1    3    3    0    0 -0.27162298203E+01 -0.12156143696E+02  0.39152586297E+01  0.13056760094E+02  0.00000000000E+00 0.  1.
</event>
<event>
 7    1  0.1427898E-010  0.4778727E+02  0.7816164E-02  0.1312668E+00
        -11   -1    0    0    0    0  0.00000000000E+00  0.00000000000E+00  0.45593999997E+02  0.45594000000E+02  0.51100000000E-03 0.  1.
         11   -1    0    0    0    0 -0.00000000000E+00 -0.00000000000E+00 -0.45593999997E+02  0.45594000000E+02  0.51100000000E-03 0. -1.
    9900012    2    1    2    0    0  0.41135024452E+02  0.98175650750E+01 -0.97544205466E+01  0.47787267968E+02  0.19999985975E+02 0.  0.
        -12    1    1    2    0    0 -0.41135024452E+02 -0.98175650750E+01  0.97544205466E+01  0.43400732032E+02  0.00000000000E+00 0.  1.
         11    1    3    3    0    0  0.21702196526E+01  0.15094886080E+01 -0.52078187850E+01  0.58403583757E+01  0.51100000000E-03 0. -1.
        -11    1    3    3    0    0  0.24782825640E+02  0.25441748161E+00 -0.62181621733E+01  0.25552274185E+02  0.51100000000E-03 0.  1.
         12    1    3    3    0    0  0.14181979160E+02  0.80536589854E+01  0.16715604117E+01  0.16394635407E+02  0.00000000000E+00 0. -1.
</event>
<event>
 7    1  0.1427898E-010  0.4778729E+02  0.7816164E-02  0.1312668E+00
        -11   -1    0    0    0    0  0.00000000000E+00  0.00000000000E+00  0.45593999997E+02  0.45594000000E+02  0.51100000000E-03 0.  1.
         11   -1    0    0    0    0 -0.00000000000E+00 -0.00000000000E+00 -0.45593999997E+02  0.45594000000E+02  0.51100000000E-03 0. -1.
    9900012    2    1    2    0    0 -0.23630378527E+02  0.16041064451E+02 -0.32678908390E+02  0.47787290425E+02  0.20000088365E+02 0.  0.
        -12    1    1    2    0    0  0.23630378527E+02 -0.16041064451E+02  0.32678908390E+02  0.43400709575E+02  0.00000000000E+00 0.  1.
         11    1    3    3    0    0 -0.16924316256E+02  0.12076054222E+02 -0.25074810096E+02  0.32573143354E+02  0.51100000000E-03 0. -1.
        -11    1    3    3    0    0  0.84076750237E+00  0.10823265066E+01 -0.69779576107E+01  0.71112736790E+01  0.51100000000E-03 0.  1.
        -12    1    3    3    0    0 -0.75468297729E+01  0.28826837219E+01 -0.62614068327E+00  0.81028733927E+01  0.00000000000E+00 0.  1.
</event>
<event>
 7    1  0.1427898E-010  0.4778727E+02  0.7816164E-02  0.1312668E+00
        -11   -1    0    0    0    0  0.00000000000E+00  0.00000000000E+00  0.45593999997E+02  0.45594000000E+02  0.51100000000E-03 0.  1.
         11   -1    0    0    0    0 -0.00000000000E+00 -0.00000000000E+00 -0.45593999997E+02  0.45594000000E+02  0.51100000000E-03 0. -1.
    9900012    2    1    2    0    0 -0.26863700636E+02 -0.78557059218E+01 -0.33170061766E+02  0.47787268152E+02  0.19999986811E+02 0.  0.
        -12    1    1    2    0    0  0.26863700636E+02  0.78557059218E+01  0.33170061766E+02  0.43400731848E+02  0.00000000000E+00 0.  1.
         11    1    3    3    0    0 -0.22146593075E+01 -0.49964900256E+01 -0.10886608507E+02  0.12181456131E+02  0.51100000000E-03 0. -1.
        -11    1    3    3    0    0 -0.87785154839E+00 -0.26994375916E+01 -0.64409245171E+01  0.70386856407E+01  0.51100000000E-03 0.  1.
         12    1    3    3    0    0 -0.23771189780E+02 -0.15977830459E+00 -0.15842528743E+02  0.28567126380E+02  0.00000000000E+00 0. -1.
</event>
<event>
 7    1  0.1427898E-010  0.4778727E+02  0.7816164E-02  0.1312668E+00
        -11   -1    0    0    0    0  0.00000000000E+00  0.00000000000E+00  0.45593999997E+02  0.45594000000E+02  0.51100000000E-03 0. -1.
         11   -1    0    0    0    0 -0.00000000000E+00 -0.00000000000E+00 -0.45593999997E+02  0.45594000000E+02  0.51100000000E-03 0.  1.
    9900012    2    1    2    0    0 -0.31393934039E+02 -0.12878107671E+02  0.27059162706E+02  0.47787273762E+02  0.20000012390E+02 0.  0.
        -12    1    1    2    0    0  0.31393934039E+02  0.12878107671E+02 -0.27059162706E+02  0.43400726238E+02  0.00000000000E+00 0.  1.
         11    1    3    3    0    0 -0.15314688775E+02 -0.10908251605E+02  0.21312452088E+02  0.28420947549E+02  0.51100000000E-03 0. -1.
        -11    1    3    3    0    0  0.34256927155E+00 -0.20182605120E+01  0.32611269495E+00  0.20729396882E+01  0.51100000000E-03 0.  1.
        -12    1    3    3    0    0 -0.16421814536E+02  0.48404445683E-01  0.54205979236E+01  0.17293386524E+02  0.00000000000E+00 0.  1.
</event>
<event>
 7    1  0.1427898E-010  0.4778727E+02  0.7816164E-02  0.1312668E+00
        -11   -1    0    0    0    0  0.00000000000E+00  0.00000000000E+00  0.45593999997E+02  0.45594000000E+02  0.51100000000E-03 0.  1.
         11   -1    0    0    0    0 -0.00000000000E+00 -0.00000000000E+00 -0.45593999997E+02  0.45594000000E+02  0.51100000000E-03 0. -1.
    9900012    2    1    2    0    0  0.36602618907E+02  0.15888358457E+02 -0.17071367610E+02  0.47787271465E+02  0.20000001919E+02 0.  0.
        -12    1    1    2    0    0 -0.36602618907E+02 -0.15888358457E+02  0.17071367610E+02  0.43400728535E+02  0.00000000000E+00 0.  1.
         11    1    3    3    0    0  0.79488708903E+01  0.69381296407E+01 -0.99480274006E+00  0.10597727308E+02  0.51100000000E-03 0.  1.
        -11    1    3    3    0    0  0.12401408552E+02  0.70948828777E+01 -0.47850478748E-01  0.14287567569E+02  0.51100000000E-03 0. -1.
        -12    1    3    3    0    0  0.16252339465E+02  0.18553459383E+01 -0.16028714391E+02  0.22901976588E+02  0.00000000000E+00 0.  1.
</event>
<event>
 7    1  0.1427898E-010  0.4778727E+02  0.7816164E-02  0.1312668E+00
        -11   -1    0    0    0    0  0.00000000000E+00  0.00000000000E+00  0.45593999997E+02  0.45594000000E+02  0.51100000000E-03 0. -1.
         11   -1    0    0    0    0 -0.00000000000E+00 -0.00000000000E+00 -0.45593999997E+02  0.45594000000E+02  0.51100000000E-03 0.  1.
    9900012    2    1    2    0    0  0.39777459164E+02 -0.31842063137E+01  0.17065695054E+02  0.47787269879E+02  0.19999994684E+02 0.  0.
        -12    1    1    2    0    0 -0.39777459164E+02  0.31842063137E+01 -0.17065695054E+02  0.43400730121E+02  0.00000000000E+00 0.  1.
         11    1    3    3    0    0  0.88463819509E+01  0.19462548025E+01  0.85297450524E-01  0.90583473821E+01  0.51100000000E-03 0. -1.
        -11    1    3    3    0    0  0.23513549309E+02 -0.98212412797E+01  0.94940730694E+01  0.27193403705E+02  0.51100000000E-03 0.  1.
         12    1    3    3    0    0  0.74175279044E+01  0.46907801635E+01  0.74863245340E+01  0.11535518791E+02  0.00000000000E+00 0. -1.
</event>
<event>
 7    1  0.1427898E-010  0.4778727E+02  0.7816164E-02  0.1312668E+00
        -11   -1    0    0    0    0  0.00000000000E+00  0.00000000000E+00  0.45593999997E+02  0.45594000000E+02  0.51100000000E-03 0.  1.
         11   -1    0    0    0    0 -0.00000000000E+00 -0.00000000000E+00 -0.45593999997E+02  0.45594000000E+02  0.51100000000E-03 0. -1.
    9900012    2    1    2    0    0  0.22891045004E+02 -0.22493205850E+02 -0.29217782397E+02  0.47787273520E+02  0.20000011288E+02 0.  0.
        -12    1    1    2    0    0 -0.22891045004E+02  0.22493205850E+02  0.29217782397E+02  0.43400726480E+02  0.00000000000E+00 0.  1.
         11    1    3    3    0    0  0.10781097229E+02 -0.12064016024E+02 -0.20477540371E+02  0.26097934784E+02  0.51100000000E-03 0. -1.
        -11    1    3    3    0    0  0.92292488476E+01 -0.51956259435E+01 -0.11029916910E+02  0.15291586920E+02  0.51100000000E-03 0.  1.
        -12    1    3    3    0    0  0.28806989276E+01 -0.52335638830E+01  0.22896748839E+01  0.63977518163E+01  0.00000000000E+00 0.  1.
</event>
<event>
 7    1  0.1427898E-010  0.4778727E+02  0.7816164E-02  0.1312668E+00
        -11   -1    0    0    0    0  0.00000000000E+00  0.00000000000E+00  0.45593999997E+02  0.45594000000E+02  0.51100000000E-03 0. -1.
         11   -1    0    0    0    0 -0.00000000000E+00 -0.00000000000E+00 -0.45593999997E+02  0.45594000000E+02  0.51100000000E-03 0.  1.
    9900012    2    1    2    0    0 -0.12915478653E+02 -0.30547042941E+02 -0.27994502676E+02  0.47787267272E+02  0.19999982800E+02 0.  0.
        -12    1    1    2    0    0  0.12915478653E+02  0.30547042941E+02  0.27994502676E+02  0.43400732728E+02  0.00000000000E+00 0.  1.
         11    1    3    3    0    0 -0.20527493850E+00 -0.16977871979E+02 -0.13232254130E+02  0.21526328631E+02  0.51100000000E-03 0. -1.
        -11    1    3    3    0    0  0.41882021094E+00 -0.69949850573E+01 -0.54041711994E+01  0.88493103084E+01  0.51100000000E-03 0.  1.
         12    1    3    3    0    0 -0.13129023926E+02 -0.65741859045E+01 -0.93580773465E+01  0.17411628332E+02  0.00000000000E+00 0. -1.
</event>
<event>
 7    1  0.1427898E-010  0.4778727E+02  0.7816164E-02  0.1312668E+00
        -11   -1    0    0    0    0  0.00000000000E+00  0.00000000000E+00  0.45593999997E+02  0.45594000000E+02  0.51100000000E-03 0.  1.
         11   -1    0    0    0    0 -0.00000000000E+00 -0.00000000000E+00 -0.45593999997E+02  0.45594000000E+02  0.51100000000E-03 0. -1.
    9900012    2    1    2    0    0 -0.36014349726E+02 -0.97481706365E+01 -0.22171225710E+02  0.47787268826E+02  0.19999989886E+02 0.  0.
        -12    1    1    2    0    0  0.36014349726E+02  0.97481706365E+01  0.22171225710E+02  0.43400731174E+02  0.00000000000E+00 0.  1.
         11    1    3    3    0    0 -0.60322448194E+01  0.43175387035E+00 -0.10569991228E+02  0.12177811945E+02  0.51100000000E-03 0. -1.
        -11    1    3    3    0    0 -0.20481655353E+02 -0.10003296682E+02 -0.12617579271E+02  0.26053165977E+02  0.51100000000E-03 0.  1.
        -12    1    3    3    0    0 -0.95004495535E+01 -0.17662782491E+00  0.10163447888E+01  0.95562909037E+01  0.00000000000E+00 0.  1.
</event>
<event>
 7    1  0.1427898E-010  0.4778728E+02  0.7816164E-02  0.1312668E+00
        -11   -1    0    0    0    0  0.00000000000E+00  0.00000000000E+00  0.45593999997E+02  0.45594000000E+02  0.51100000000E-03 0.  1.
         11   -1    0    0    0    0 -0.00000000000E+00 -0.00000000000E+00 -0.45593999997E+02  0.45594000000E+02  0.51100000000E-03 0. -1.
    9900012    2    1    2    0    0 -0.36753903468E+02  0.22734580368E+02  0.39890003005E+01  0.47787277794E+02  0.20000030772E+02 0.  0.
        -12    1    1    2    0    0  0.36753903468E+02 -0.22734580368E+02 -0.39890003005E+01  0.43400722206E+02  0.00000000000E+00 0.  1.
         11    1    3    3    0    0 -0.69186801491E+01  0.13655204638E+02  0.43844384286E+01  0.15923443387E+02  0.51100000000E-03 0.  1.
        -11    1    3    3    0    0 -0.14808465164E+02  0.70669110685E+01  0.19456137637E+01  0.16523234724E+02  0.51100000000E-03 0. -1.
        -12    1    3    3    0    0 -0.15026758155E+02  0.20124646616E+01 -0.23410518919E+01  0.15340599683E+02  0.00000000000E+00 0.  1.
</event>
<event>
 7    1  0.1427898E-010  0.4778727E+02  0.7816164E-02  0.1312668E+00
        -11   -1    0    0    0    0  0.00000000000E+00  0.00000000000E+00  0.45593999997E+02  0.45594000000E+02  0.51100000000E-03 0. -1.
         11   -1    0    0    0    0 -0.00000000000E+00 -0.00000000000E+00 -0.45593999997E+02  0.45594000000E+02  0.51100000000E-03 0.  1.
    9900012    2    1    2    0    0 -0.27990255424E+02 -0.25931544952E+01  0.33067271303E+02  0.47787270970E+02  0.19999999659E+02 0.  0.
        -12    1    1    2    0    0  0.27990255424E+02  0.25931544952E+01 -0.33067271303E+02  0.43400729030E+02  0.00000000000E+00 0.  1.
         11    1    3    3    0    0 -0.27087511680E+01 -0.36835814933E+01  0.60550982005E+01  0.75875107899E+01  0.51100000000E-03 0. -1.
        -11    1    3    3    0    0  0.19693790541E+01 -0.27487817057E+00  0.29126608478E+00  0.20096885482E+01  0.51100000000E-03 0.  1.
         12    1    3    3    0    0 -0.27250883310E+02  0.13653051686E+01  0.26720907018E+02  0.38190071632E+02  0.00000000000E+00 0. -1.
</event>
<event>
 7    1  0.1427898E-010  0.4778727E+02  0.7816164E-02  0.1312668E+00
        -11   -1    0    0    0    0  0.00000000000E+00  0.00000000000E+00  0.45593999997E+02  0.45594000000E+02  0.51100000000E-03 0. -1.
         11   -1    0    0    0    0 -0.00000000000E+00 -0.00000000000E+00 -0.45593999997E+02  0.45594000000E+02  0.51100000000E-03 0.  1.
    9900012    2    1    2    0    0 -0.29938992160E+02 -0.23730855447E+02  0.20594336380E+02  0.47787269099E+02  0.19999991129E+02 0.  0.
        -12    1    1    2    0    0  0.29938992160E+02  0.23730855447E+02 -0.20594336380E+02  0.43400730901E+02  0.00000000000E+00 0.  1.
         11    1    3    3    0    0 -0.17195478910E+02 -0.93006886914E+01  0.24962647051E+01  0.19708339424E+02  0.51100000000E-03 0. -1.
        -11    1    3    3    0    0 -0.11969934270E+02 -0.68713435949E+01  0.12724347800E+02  0.18772419035E+02  0.51100000000E-03 0.  1.
        -12    1    3    3    0    0 -0.77357897961E+00 -0.75588231609E+01  0.53737238744E+01  0.93065106400E+01  0.00000000000E+00 0.  1.
</event>
<event>
 7    1  0.1427898E-010  0.4778727E+02  0.7816164E-02  0.1312668E+00
        -11   -1    0    0    0    0  0.00000000000E+00  0.00000000000E+00  0.45593999997E+02  0.45594000000E+02  0.51100000000E-03 0.  1.
         11   -1    0    0    0    0 -0.00000000000E+00 -0.00000000000E+00 -0.45593999997E+02  0.45594000000E+02  0.51100000000E-03 0. -1.
    9900012    2    1    2    0    0  0.41062173688E+02  0.11920934891E+02 -0.74439550412E+01  0.47787271166E+02  0.20000000555E+02 0.  0.
        -12    1    1    2    0    0 -0.41062173688E+02 -0.11920934891E+02  0.74439550412E+01  0.43400728834E+02  0.00000000000E+00 0.  1.
         11    1    3    3    0    0  0.32956982478E+02  0.84156599631E+01 -0.11821848755E+02  0.36010305954E+02  0.51100000000E-03 0. -1.
        -11    1    3    3    0    0  0.80060324961E+01  0.60638342026E+00  0.33464242133E+01  0.86984373573E+01  0.51100000000E-03 0.  1.
        -12    1    3    3    0    0  0.99158713545E-01  0.28988915075E+01  0.10314695001E+01  0.30785278547E+01  0.00000000000E+00 0.  1.
</event>
<event>
 7    1  0.1427898E-010  0.4778727E+02  0.7816164E-02  0.1312668E+00
        -11   -1    0    0    0    0  0.00000000000E+00  0.00000000000E+00  0.45593999997E+02  0.45594000000E+02  0.51100000000E-03 0.  1.
         11   -1    0    0    0    0 -0.00000000000E+00 -0.00000000000E+00 -0.45593999997E+02  0.45594000000E+02  0.51100000000E-03 0. -1.
    9900012    2    1    2    0    0  0.33956486879E+02 -0.16703301165E+02 -0.21250415171E+02  0.47787269408E+02  0.19999992540E+02 0.  0.
        -12    1    1    2    0    0 -0.33956486879E+02  0.16703301165E+02  0.21250415171E+02  0.43400730592E+02  0.00000000000E+00 0.  1.
         11    1    3    3    0    0  0.30217901771E+02 -0.71401731569E+01 -0.11298178729E+02  0.33041678271E+02  0.51100000000E-03 0. -1.
        -11    1    3    3    0    0  0.29020427429E+01 -0.35687485787E+01 -0.58145409047E+01  0.74139533781E+01  0.51100000000E-03 0.  1.
         12    1    3    3    0    0  0.83654236572E+00 -0.59943794289E+01 -0.41376955370E+01  0.73316377587E+01  0.00000000000E+00 0. -1.
</event>
<event>
 7    1  0.1427898E-010  0.4778729E+02  0.7816164E-02  0.1312668E+00
        -11   -1    0    0    0    0  0.00000000000E+00  0.00000000000E+00  0.45593999997E+02  0.45594000000E+02  0.51100000000E-03 0. -1.
         11   -1    0    0    0    0 -0.00000000000E+00 -0.00000000000E+00 -0.45593999997E+02  0.45594000000E+02  0.51100000000E-03 0.  1.
    9900012    2    1    2    0    0  0.32365340988E+02  0.27713591289E+02 -0.82500595519E+01  0.47787286619E+02  0.20000071009E+02 0.  0.
        -12    1    1    2    0    0 -0.32365340988E+02 -0.27713591289E+02  0.82500595519E+01  0.43400713381E+02  0.00000000000E+00 0.  1.
         11    1    3    3    0    0  0.13201213776E+02  0.13655262684E+02  0.12195265843E+01  0.19032222400E+02  0.51100000000E-03 0. -1.
        -11    1    3    3    0    0  0.10322139826E+02  0.13083075922E+02 -0.10656445215E+02  0.19780628682E+02  0.51100000000E-03 0.  1.
         12    1    3    3    0    0  0.88419873857E+01  0.97525268248E+00  0.11868590791E+01  0.89744355364E+01  0.00000000000E+00 0. -1.
</event>
<event>
 7    1  0.1427898E-010  0.4778727E+02  0.7816164E-02  0.1312668E+00
        -11   -1    0    0    0    0  0.00000000000E+00  0.00000000000E+00  0.45593999997E+02  0.45594000000E+02  0.51100000000E-03 0.  1.
         11   -1    0    0    0    0 -0.00000000000E+00 -0.00000000000E+00 -0.45593999997E+02  0.45594000000E+02  0.51100000000E-03 0. -1.
    9900012    2    1    2    0    0 -0.19851857591E+02  0.24831855478E+02 -0.29544980793E+02  0.47787272053E+02  0.20000004598E+02 0.  0.
        -12    1    1    2    0    0  0.19851857591E+02 -0.24831855478E+02  0.29544980793E+02  0.43400727947E+02  0.00000000000E+00 0.  1.
         11    1    3    3    0    0 -0.17109570349E+02  0.11302835583E+02 -0.14554294884E+02  0.25145953742E+02  0.51100000000E-03 0. -1.
        -11    1    3    3    0    0 -0.28572175357E+01  0.87552338853E+01 -0.15297993155E+02  0.17856270811E+02  0.51100000000E-03 0.  1.
        -12    1    3    3    0    0  0.11493029331E+00  0.47737860094E+01  0.30730724651E+00  0.47850475003E+01  0.00000000000E+00 0.  1.
</event>
<event>
 7    1  0.1427898E-010  0.4778723E+02  0.7816164E-02  0.1312668E+00
        -11   -1    0    0    0    0  0.00000000000E+00  0.00000000000E+00  0.45593999997E+02  0.45594000000E+02  0.51100000000E-03 0.  1.
         11   -1    0    0    0    0 -0.00000000000E+00 -0.00000000000E+00 -0.45593999997E+02  0.45594000000E+02  0.51100000000E-03 0. -1.
    9900012    2    1    2    0    0 -0.38092041811E+02 -0.16898593788E+02 -0.12126849626E+02  0.47787232689E+02  0.19999825121E+02 0.  0.
        -12    1    1    2    0    0  0.38092041811E+02  0.16898593788E+02  0.12126849626E+02  0.43400767311E+02  0.00000000000E+00 0.  1.
         11    1    3    3    0    0 -0.14946865675E+02 -0.71375844128E+01 -0.87593391056E+01  0.18737126956E+02  0.51100000000E-03 0. -1.
        -11    1    3    3    0    0 -0.64361191049E+01  0.34712079125E+01  0.71957970434E+00  0.73478370094E+01  0.51100000000E-03 0.  1.
         12    1    3    3    0    0 -0.16709057031E+02 -0.13232217288E+02 -0.40870902250E+01  0.21702268723E+02  0.00000000000E+00 0. -1.
</event>
<event>
 7    1  0.1427898E-010  0.4778722E+02  0.7816164E-02  0.1312668E+00
        -11   -1    0    0    0    0  0.00000000000E+00  0.00000000000E+00  0.45593999997E+02  0.45594000000E+02  0.51100000000E-03 0. -1.
         11   -1    0    0    0    0 -0.00000000000E+00 -0.00000000000E+00 -0.45593999997E+02  0.45594000000E+02  0.51100000000E-03 0.  1.
    9900012    2    1    2    0    0  0.24095498436E+02  0.27291380329E+02  0.23626572253E+02  0.47787223492E+02  0.19999783187E+02 0.  0.
        -12    1    1    2    0    0 -0.24095498436E+02 -0.27291380329E+02 -0.23626572253E+02  0.43400776508E+02  0.00000000000E+00 0.  1.
         11    1    3    3    0    0  0.10276397075E+02  0.42505351744E+01  0.91150168304E+01  0.14378974866E+02  0.51100000000E-03 0. -1.
        -11    1    3    3    0    0  0.84011665560E+01  0.25408550271E+01  0.55765946618E+01  0.10398747619E+02  0.51100000000E-03 0.  1.
         12    1    3    3    0    0  0.54179348043E+01  0.20499990127E+02  0.89349607608E+01  0.23009501006E+02  0.00000000000E+00 0. -1.
</event>
<event>
 7    1  0.1427898E-010  0.4778727E+02  0.7816164E-02  0.1312668E+00
        -11   -1    0    0    0    0  0.00000000000E+00  0.00000000000E+00  0.45593999997E+02  0.45594000000E+02  0.51100000000E-03 0.  1.
         11   -1    0    0    0    0 -0.00000000000E+00 -0.00000000000E+00 -0.45593999997E+02  0.45594000000E+02  0.51100000000E-03 0. -1.
    9900012    2    1    2    0    0 -0.10179400173E+02  0.24167827028E+02 -0.34582063689E+02  0.47787272124E+02  0.20000004924E+02 0.  0.
        -12    1    1    2    0    0  0.10179400173E+02 -0.24167827028E+02  0.34582063689E+02  0.43400727876E+02  0.00000000000E+00 0.  1.
         11    1    3    3    0    0 -0.36663702874E+00 -0.44562399256E+00 -0.19402282008E+01  0.20242255768E+01  0.51100000000E-03 0. -1.
        -11    1    3    3    0    0 -0.12514187435E+02  0.10958230176E+02 -0.10699702060E+02  0.19778051476E+02  0.51100000000E-03 0.  1.
         12    1    3    3    0    0  0.27014242901E+01  0.13655220845E+02 -0.21942133428E+02  0.25984995072E+02  0.00000000000E+00 0. -1.
</event>
<event>
 7    1  0.1427898E-010  0.4778726E+02  0.7816164E-02  0.1312668E+00
        -11   -1    0    0    0    0  0.00000000000E+00  0.00000000000E+00  0.45593999997E+02  0.45594000000E+02  0.51100000000E-03 0. -1.
         11   -1    0    0    0    0 -0.00000000000E+00 -0.00000000000E+00 -0.45593999997E+02  0.45594000000E+02  0.51100000000E-03 0.  1.
    9900012    2    1    2    0    0 -0.39094684530E+02 -0.87890932227E+00 -0.18827032860E+02  0.47787262605E+02  0.19999961520E+02 0.  0.
        -12    1    1    2    0    0  0.39094684530E+02  0.87890932227E+00  0.18827032860E+02  0.43400737395E+02  0.00000000000E+00 0.  1.
         11    1    3    3    0    0 -0.11958801655E+02  0.53938034623E+01 -0.12618409609E+02  0.18202480989E+02  0.51100000000E-03 0. -1.
        -11    1    3    3    0    0 -0.10912986633E+02  0.94993807486E+00 -0.63528958486E+00  0.10972659328E+02  0.51100000000E-03 0.  1.
         12    1    3    3    0    0 -0.16222896242E+02 -0.72226508594E+01 -0.55733336662E+01  0.18612122289E+02  0.00000000000E+00 0. -1.
</event>
<event>
 7    1  0.1427898E-010  0.4778730E+02  0.7816164E-02  0.1312668E+00
        -11   -1    0    0    0    0  0.00000000000E+00  0.00000000000E+00  0.45593999997E+02  0.45594000000E+02  0.51100000000E-03 0.  1.
         11   -1    0    0    0    0 -0.00000000000E+00 -0.00000000000E+00 -0.45593999997E+02  0.45594000000E+02  0.51100000000E-03 0. -1.
    9900012    2    1    2    0    0 -0.99637185011E+01 -0.19949498467E+02 -0.37233895290E+02  0.47787295698E+02  0.20000112404E+02 0.  0.
        -12    1    1    2    0    0  0.99637185011E+01  0.19949498467E+02  0.37233895290E+02  0.43400704302E+02  0.00000000000E+00 0.  1.
         11    1    3    3    0    0 -0.18362688911E+01  0.18977802443E+01 -0.14485809420E+02  0.14724541694E+02  0.51100000000E-03 0. -1.
        -11    1    3    3    0    0 -0.71971967801E+00 -0.47989111801E+01 -0.21208866733E+01  0.52958196223E+01  0.51100000000E-03 0.  1.
        -12    1    3    3    0    0 -0.74077299320E+01 -0.17048367531E+02 -0.20627199197E+02  0.27766934381E+02  0.00000000000E+00 0.  1.
</event>
<event>
 7    1  0.1427898E-010  0.4778727E+02  0.7816164E-02  0.1312668E+00
        -11   -1    0    0    0    0  0.00000000000E+00  0.00000000000E+00  0.45593999997E+02  0.45594000000E+02  0.51100000000E-03 0.  1.
         11   -1    0    0    0    0 -0.00000000000E+00 -0.00000000000E+00 -0.45593999997E+02  0.45594000000E+02  0.51100000000E-03 0. -1.
    9900012    2    1    2    0    0 -0.80531824927E+01  0.54219561958E+01 -0.42300965445E+02  0.47787273798E+02  0.20000012555E+02 0.  0.
        -12    1    1    2    0    0  0.80531824927E+01 -0.54219561958E+01  0.42300965445E+02  0.43400726202E+02  0.00000000000E+00 0.  1.
         11    1    3    3    0    0 -0.47397488393E+01 -0.18754021769E+01 -0.14207641807E+02  0.15094351207E+02  0.51100000000E-03 0. -1.
        -11    1    3    3    0    0  0.97239830705E+00  0.21296351242E+01  0.12065177169E+01  0.26337405894E+01  0.51100000000E-03 0.  1.
        -12    1    3    3    0    0 -0.42858319605E+01  0.51677232485E+01 -0.29299841356E+02  0.30059182002E+02  0.00000000000E+00 0.  1.
</event>
<event>
 7    1  0.1427898E-010  0.4778727E+02  0.7816164E-02  0.1312668E+00
        -11   -1    0    0    0    0  0.00000000000E+00  0.00000000000E+00  0.45593999997E+02  0.45594000000E+02  0.51100000000E-03 0.  1.
         11   -1    0    0    0    0 -0.00000000000E+00 -0.00000000000E+00 -0.45593999997E+02  0.45594000000E+02  0.51100000000E-03 0. -1.
    9900012    2    1    2    0    0 -0.17927503955E+02  0.38137498767E+02  0.10380708151E+02  0.47787270606E+02  0.19999998000E+02 0.  0.
        -12    1    1    2    0    0  0.17927503955E+02 -0.38137498767E+02 -0.10380708151E+02  0.43400729394E+02  0.00000000000E+00 0.  1.
         11    1    3    3    0    0 -0.17199098079E+02  0.24040012166E+02  0.65123246388E+00  0.29566116817E+02  0.51100000000E-03 0. -1.
        -11    1    3    3    0    0 -0.21337110193E+01  0.11109127011E+02  0.48014654561E+01  0.12288999001E+02  0.51100000000E-03 0.  1.
        -12    1    3    3    0    0  0.14053051430E+01  0.29883595900E+01  0.49280102315E+01  0.59321547878E+01  0.00000000000E+00 0.  1.
</event>
<event>
 7    1  0.1427898E-010  0.4778727E+02  0.7816164E-02  0.1312668E+00
        -11   -1    0    0    0    0  0.00000000000E+00  0.00000000000E+00  0.45593999997E+02  0.45594000000E+02  0.51100000000E-03 0. -1.
         11   -1    0    0    0    0 -0.00000000000E+00 -0.00000000000E+00 -0.45593999997E+02  0.45594000000E+02  0.51100000000E-03 0.  1.
    9900012    2    1    2    0    0 -0.26273198440E+02  0.52384777389E+00  0.34540814562E+02  0.47787271396E+02  0.20000001603E+02 0.  0.
        -12    1    1    2    0    0  0.26273198440E+02 -0.52384777389E+00 -0.34540814562E+02  0.43400728604E+02  0.00000000000E+00 0.  1.
         11    1    3    3    0    0 -0.15313417401E+02 -0.27040626725E+01  0.31361456103E+02  0.35005051587E+02  0.51100000000E-03 0. -1.
        -11    1    3    3    0    0 -0.18482300288E+01  0.26682725668E+01  0.10084998132E+01  0.33989270166E+01  0.51100000000E-03 0.  1.
        -12    1    3    3    0    0 -0.91115510103E+01  0.55963787962E+00  0.21708586457E+01  0.93832927925E+01  0.00000000000E+00 0.  1.
</event>
<event>
 7    1  0.1427898E-010  0.4778726E+02  0.7816164E-02  0.1312668E+00
        -11   -1    0    0    0    0  0.00000000000E+00  0.00000000000E+00  0.45593999997E+02  0.45594000000E+02  0.51100000000E-03 0. -1.
         11   -1    0    0    0    0 -0.00000000000E+00 -0.00000000000E+00 -0.45593999997E+02  0.45594000000E+02  0.51100000000E-03 0.  1.
    9900012    2    1    2    0    0 -0.35360979948E+01 -0.42909842218E+02  0.54649110667E+01  0.47787264970E+02  0.19999972303E+02 0.  0.
        -12    1    1    2    0    0  0.35360979948E+01  0.42909842218E+02 -0.54649110667E+01  0.43400735030E+02  0.00000000000E+00 0.  1.
         11    1    3    3    0    0  0.31144425666E+01 -0.39159524178E+01 -0.18262629881E+01  0.53263188604E+01  0.51100000000E-03 0. -1.
        -11    1    3    3    0    0 -0.84157670550E+01 -0.12157607105E+02  0.43121591901E+01  0.15402183702E+02  0.51100000000E-03 0.  1.
         12    1    3    3    0    0  0.17652264935E+01 -0.26836282695E+02  0.29790148647E+01  0.27058762408E+02  0.00000000000E+00 0. -1.
</event>
<event>
 7    1  0.1427898E-010  0.4778727E+02  0.7816164E-02  0.1312668E+00
        -11   -1    0    0    0    0  0.00000000000E+00  0.00000000000E+00  0.45593999997E+02  0.45594000000E+02  0.51100000000E-03 0.  1.
         11   -1    0    0    0    0 -0.00000000000E+00 -0.00000000000E+00 -0.45593999997E+02  0.45594000000E+02  0.51100000000E-03 0. -1.
    9900012    2    1    2    0    0  0.38295682548E+02 -0.19226354853E+02  0.68855713469E+01  0.47787272868E+02  0.20000008315E+02 0.  0.
        -12    1    1    2    0    0 -0.38295682548E+02  0.19226354853E+02 -0.68855713469E+01  0.43400727132E+02  0.00000000000E+00 0.  1.
         11    1    3    3    0    0  0.95360169210E+01 -0.10678594125E+01  0.37281929312E+00  0.96028608721E+01  0.51100000000E-03 0. -1.
        -11    1    3    3    0    0  0.98381307312E+01 -0.11487440764E+02  0.95580585142E+01  0.17891522977E+02  0.51100000000E-03 0.  1.
        -12    1    3    3    0    0  0.18921534896E+02 -0.66710546766E+01 -0.30453064604E+01  0.20292889020E+02  0.00000000000E+00 0.  1.
</event>
<event>
 7    1  0.1427898E-010  0.4778727E+02  0.7816164E-02  0.1312668E+00
        -11   -1    0    0    0    0  0.00000000000E+00  0.00000000000E+00  0.45593999997E+02  0.45594000000E+02  0.51100000000E-03 0.  1.
         11   -1    0    0    0    0 -0.00000000000E+00 -0.00000000000E+00 -0.45593999997E+02  0.45594000000E+02  0.51100000000E-03 0. -1.
    9900012    2    1    2    0    0  0.23584129742E+02 -0.25330555341E+02 -0.26187307730E+02  0.47787270793E+02  0.19999998853E+02 0.  0.
        -12    1    1    2    0    0 -0.23584129742E+02  0.25330555341E+02  0.26187307730E+02  0.43400729207E+02  0.00000000000E+00 0.  1.
         11    1    3    3    0    0 -0.89654836233E+00  0.24499071514E+01 -0.27029914059E+01  0.37565951097E+01  0.51100000000E-03 0.  1.
        -11    1    3    3    0    0  0.52460777303E+01 -0.45701814819E+01 -0.29521030001E+01  0.75579628680E+01  0.51100000000E-03 0. -1.
        -12    1    3    3    0    0  0.19234600374E+02 -0.23210281010E+02 -0.20532213324E+02  0.36472712815E+02  0.00000000000E+00 0.  1.
</event>
<event>
 7    1  0.1427898E-010  0.4778726E+02  0.7816164E-02  0.1312668E+00
        -11   -1    0    0    0    0  0.00000000000E+00  0.00000000000E+00  0.45593999997E+02  0.45594000000E+02  0.51100000000E-03 0. -1.
         11   -1    0    0    0    0 -0.00000000000E+00 -0.00000000000E+00 -0.45593999997E+02  0.45594000000E+02  0.51100000000E-03 0.  1.
    9900012    2    1    2    0    0 -0.40395971122E+02  0.15856065158E+02 -0.61217385835E+00  0.47787262195E+02  0.19999959650E+02 0.  0.
        -12    1    1    2    0    0  0.40395971122E+02 -0.15856065158E+02  0.61217385835E+00  0.43400737805E+02  0.00000000000E+00 0.  1.
         11    1    3    3    0    0 -0.20895836142E+02  0.85015810925E+01 -0.49959338414E+01  0.23105674722E+02  0.51100000000E-03 0. -1.
        -11    1    3    3    0    0 -0.33904094318E+01 -0.13913904729E+01 -0.31795870408E+01  0.48518674317E+01  0.51100000000E-03 0.  1.
        -12    1    3    3    0    0 -0.16109725548E+02  0.87458745388E+01  0.75633470239E+01  0.19829720041E+02  0.00000000000E+00 0.  1.
</event>
<event>
 7    1  0.1427898E-010  0.4778727E+02  0.7816164E-02  0.1312668E+00
        -11   -1    0    0    0    0  0.00000000000E+00  0.00000000000E+00  0.45593999997E+02  0.45594000000E+02  0.51100000000E-03 0.  1.
         11   -1    0    0    0    0 -0.00000000000E+00 -0.00000000000E+00 -0.45593999997E+02  0.45594000000E+02  0.51100000000E-03 0. -1.
    9900012    2    1    2    0    0  0.14221817586E+02 -0.38822544660E+02 -0.13197482459E+02  0.47787267143E+02  0.19999982210E+02 0.  0.
        -12    1    1    2    0    0 -0.14221817586E+02  0.38822544660E+02  0.13197482459E+02  0.43400732857E+02  0.00000000000E+00 0.  1.
         11    1    3    3    0    0  0.14855357894E+02 -0.25133702853E+02 -0.33882426503E+01  0.29391578144E+02  0.51100000000E-03 0. -1.
        -11    1    3    3    0    0  0.27553594279E+01 -0.49547959693E+01 -0.60775615380E+01  0.83113634972E+01  0.51100000000E-03 0.  1.
         12    1    3    3    0    0 -0.33888997358E+01 -0.87340458372E+01 -0.37316782703E+01  0.10084325501E+02  0.00000000000E+00 0. -1.
</event>
<event>
 7    1  0.1427898E-010  0.4778728E+02  0.7816164E-02  0.1312668E+00
        -11   -1    0    0    0    0  0.00000000000E+00  0.00000000000E+00  0.45593999997E+02  0.45594000000E+02  0.51100000000E-03 0. -1.
         11   -1    0    0    0    0 -0.00000000000E+00 -0.00000000000E+00 -0.45593999997E+02  0.45594000000E+02  0.51100000000E-03 0.  1.
    9900012    2    1    2    0    0 -0.34784539815E+02 -0.13777014249E+02  0.21996640323E+02  0.47787279761E+02  0.20000039741E+02 0.  0.
        -12    1    1    2    0    0  0.34784539815E+02  0.13777014249E+02 -0.21996640323E+02  0.43400720239E+02  0.00000000000E+00 0.  1.
         11    1    3    3    0    0 -0.18447008236E+02 -0.91835898851E+01  0.73800654031E+01  0.21888257163E+02  0.51100000000E-03 0. -1.
        -11    1    3    3    0    0 -0.14422603006E+02  0.18162880181E+01  0.85276227432E+01  0.16853211253E+02  0.51100000000E-03 0.  1.
        -12    1    3    3    0    0 -0.19149285734E+01 -0.64097123822E+01  0.60889521771E+01  0.90458113444E+01  0.00000000000E+00 0.  1.
</event>
<event>
 7    1  0.1427898E-010  0.4778727E+02  0.7816164E-02  0.1312668E+00
        -11   -1    0    0    0    0  0.00000000000E+00  0.00000000000E+00  0.45593999997E+02  0.45594000000E+02  0.51100000000E-03 0.  1.
         11   -1    0    0    0    0 -0.00000000000E+00 -0.00000000000E+00 -0.45593999997E+02  0.45594000000E+02  0.51100000000E-03 0. -1.
    9900012    2    1    2    0    0 -0.15933171197E+02 -0.30256311203E+01 -0.40256713593E+02  0.47787269852E+02  0.19999994562E+02 0.  0.
        -12    1    1    2    0    0  0.15933171197E+02  0.30256311203E+01  0.40256713593E+02  0.43400730148E+02  0.00000000000E+00 0.  1.
         11    1    3    3    0    0 -0.47226473976E+01 -0.33697937402E+01 -0.19370157862E+01  0.61164482104E+01  0.51100000000E-03 0.  1.
        -11    1    3    3    0    0 -0.76711805253E+01 -0.41814109042E+01 -0.12700850103E+02  0.15415667400E+02  0.51100000000E-03 0. -1.
         12    1    3    3    0    0 -0.35393432743E+01  0.45255735241E+01 -0.25618847704E+02  0.26255154241E+02  0.00000000000E+00 0. -1.
</event>
<event>
 7    1  0.1427898E-010  0.4778726E+02  0.7816164E-02  0.1312668E+00
        -11   -1    0    0    0    0  0.00000000000E+00  0.00000000000E+00  0.45593999997E+02  0.45594000000E+02  0.51100000000E-03 0.  1.
         11   -1    0    0    0    0 -0.00000000000E+00 -0.00000000000E+00 -0.45593999997E+02  0.45594000000E+02  0.51100000000E-03 0. -1.
    9900012    2    1    2    0    0 -0.36743951622E+02  0.20209111807E+02 -0.11184711025E+02  0.47787263353E+02  0.19999964932E+02 0.  0.
        -12    1    1    2    0    0  0.36743951622E+02 -0.20209111807E+02  0.11184711025E+02  0.43400736647E+02  0.00000000000E+00 0.  1.
         11    1    3    3    0    0 -0.36760813515E+02  0.17506584347E+02 -0.62773530946E+01  0.41197609978E+02  0.51100000000E-03 0. -1.
        -11    1    3    3    0    0 -0.11346714031E+01  0.29003204014E+01 -0.28393753178E+01  0.42144264236E+01  0.51100000000E-03 0.  1.
        -12    1    3    3    0    0  0.11515332968E+01 -0.19779294152E+00 -0.20679826129E+01  0.23752269510E+01  0.00000000000E+00 0.  1.
</event>
<event>
 7    1  0.1427898E-010  0.4778727E+02  0.7816164E-02  0.1312668E+00
        -11   -1    0    0    0    0  0.00000000000E+00  0.00000000000E+00  0.45593999997E+02  0.45594000000E+02  0.51100000000E-03 0.  1.
         11   -1    0    0    0    0 -0.00000000000E+00 -0.00000000000E+00 -0.45593999997E+02  0.45594000000E+02  0.51100000000E-03 0. -1.
    9900012    2    1    2    0    0 -0.34234609835E+02  0.26295287052E+02 -0.44913915342E+01  0.47787271554E+02  0.20000002324E+02 0.  0.
        -12    1    1    2    0    0  0.34234609835E+02 -0.26295287052E+02  0.44913915342E+01  0.43400728446E+02  0.00000000000E+00 0.  1.
         11    1    3    3    0    0 -0.15752302559E+02  0.13000643932E+02 -0.36903483859E+01  0.20755010239E+02  0.51100000000E-03 0. -1.
        -11    1    3    3    0    0 -0.15279255535E+02  0.47752200361E+01  0.43307743670E+01  0.16583545549E+02  0.51100000000E-03 0.  1.
         12    1    3    3    0    0 -0.32030517406E+01  0.85194230845E+01 -0.51318175154E+01  0.10448715766E+02  0.00000000000E+00 0. -1.
</event>
<event>
 7    1  0.1427898E-010  0.4778727E+02  0.7816164E-02  0.1312668E+00
        -11   -1    0    0    0    0  0.00000000000E+00  0.00000000000E+00  0.45593999997E+02  0.45594000000E+02  0.51100000000E-03 0. -1.
         11   -1    0    0    0    0 -0.00000000000E+00 -0.00000000000E+00 -0.45593999997E+02  0.45594000000E+02  0.51100000000E-03 0.  1.
    9900012    2    1    2    0    0  0.37416289896E+02  0.72964975693E+00  0.21979818083E+02  0.47787267964E+02  0.19999985953E+02 0.  0.
        -12    1    1    2    0    0 -0.37416289896E+02 -0.72964975693E+00 -0.21979818083E+02  0.43400732036E+02  0.00000000000E+00 0.  1.
         11    1    3    3    0    0  0.10100771722E+02  0.46864671160E+01  0.52156840090E+01  0.12296012498E+02  0.51100000000E-03 0. -1.
        -11    1    3    3    0    0  0.22407629304E+01  0.38488258518E+01  0.50565474231E+01  0.67381860356E+01  0.51100000000E-03 0.  1.
         12    1    3    3    0    0  0.25074755243E+02 -0.78056432109E+01  0.11707586651E+02  0.28753069430E+02  0.00000000000E+00 0. -1.
</event>
<event>
 7    1  0.1427898E-010  0.4778727E+02  0.7816164E-02  0.1312668E+00
        -11   -1    0    0    0    0  0.00000000000E+00  0.00000000000E+00  0.45593999997E+02  0.45594000000E+02  0.51100000000E-03 0. -1.
         11   -1    0    0    0    0 -0.00000000000E+00 -0.00000000000E+00 -0.45593999997E+02  0.45594000000E+02  0.51100000000E-03 0.  1.
    9900012    2    1    2    0    0 -0.34245055957E+02  0.22763724969E+02  0.13882078540E+02  0.47787272626E+02  0.20000007213E+02 0.  0.
        -12    1    1    2    0    0  0.34245055957E+02 -0.22763724969E+02 -0.13882078540E+02  0.43400727374E+02  0.00000000000E+00 0.  1.
         11    1    3    3    0    0 -0.16366344754E+02  0.80791507538E+01  0.11523084224E+02  0.21584980608E+02  0.51100000000E-03 0. -1.
        -11    1    3    3    0    0 -0.18320343535E+02  0.13984411249E+02 -0.67476022475E+00  0.23057624484E+02  0.51100000000E-03 0.  1.
         12    1    3    3    0    0  0.44163233190E+00  0.70016296639E+00  0.30337545404E+01  0.31446675353E+01  0.00000000000E+00 0. -1.
</event>
<event>
 7    1  0.1427898E-010  0.4778727E+02  0.7816164E-02  0.1312668E+00
        -11   -1    0    0    0    0  0.00000000000E+00  0.00000000000E+00  0.45593999997E+02  0.45594000000E+02  0.51100000000E-03 0.  1.
         11   -1    0    0    0    0 -0.00000000000E+00 -0.00000000000E+00 -0.45593999997E+02  0.45594000000E+02  0.51100000000E-03 0. -1.
    9900012    2    1    2    0    0 -0.15614725630E+02 -0.18882875601E+02 -0.35822354563E+02  0.47787265745E+02  0.19999975837E+02 0.  0.
        -12    1    1    2    0    0  0.15614725630E+02  0.18882875601E+02  0.35822354563E+02  0.43400734255E+02  0.00000000000E+00 0.  1.
         11    1    3    3    0    0 -0.43062584979E+01  0.14764114481E+01 -0.16406238936E+02  0.17026107286E+02  0.51100000000E-03 0. -1.
        -11    1    3    3    0    0 -0.22854305775E+01 -0.90050725879E+01 -0.87070283463E+01  0.12732904937E+02  0.51100000000E-03 0.  1.
        -12    1    3    3    0    0 -0.90230365548E+01 -0.11354214461E+02 -0.10709087280E+02  0.18028253522E+02  0.00000000000E+00 0.  1.
</event>
<event>
 7    1  0.1427898E-010  0.4778726E+02  0.7816164E-02  0.1312668E+00
        -11   -1    0    0    0    0  0.00000000000E+00  0.00000000000E+00  0.45593999997E+02  0.45594000000E+02  0.51100000000E-03 0.  1.
         11   -1    0    0    0    0 -0.00000000000E+00 -0.00000000000E+00 -0.45593999997E+02  0.45594000000E+02  0.51100000000E-03 0. -1.
    9900012    2    1    2    0    0  0.21673713482E+01 -0.31058888280E+02  0.30236932830E+02  0.47787260989E+02  0.19999954152E+02 0.  0.
        -12    1    1    2    0    0 -0.21673713482E+01  0.31058888280E+02 -0.30236932830E+02  0.43400739011E+02  0.00000000000E+00 0.  1.
         11    1    3    3    0    0 -0.15781545437E+00 -0.20257420792E+02  0.13808838442E+02  0.24516770225E+02  0.51100000000E-03 0. -1.
        -11    1    3    3    0    0 -0.40943075194E+01 -0.64431237781E+01  0.12313321535E+02  0.14487756402E+02  0.51100000000E-03 0.  1.
        -12    1    3    3    0    0  0.64194943219E+01 -0.43583437102E+01  0.41147728528E+01  0.87827343621E+01  0.00000000000E+00 0.  1.
</event>
<event>
 7    1  0.1427898E-010  0.4778728E+02  0.7816164E-02  0.1312668E+00
        -11   -1    0    0    0    0  0.00000000000E+00  0.00000000000E+00  0.45593999997E+02  0.45594000000E+02  0.51100000000E-03 0. -1.
         11   -1    0    0    0    0 -0.00000000000E+00 -0.00000000000E+00 -0.45593999997E+02  0.45594000000E+02  0.51100000000E-03 0.  1.
    9900012    2    1    2    0    0 -0.20080982962E+02 -0.90675616996E+01  0.37391927528E+02  0.47787276548E+02  0.20000025095E+02 0.  0.
        -12    1    1    2    0    0  0.20080982962E+02  0.90675616996E+01 -0.37391927528E+02  0.43400723452E+02  0.00000000000E+00 0.  1.
         11    1    3    3    0    0 -0.32649298265E+01 -0.61642013397E+01  0.81485444909E+01  0.10726412378E+02  0.51100000000E-03 0. -1.
        -11    1    3    3    0    0 -0.86867685723E+01  0.46058354230E+01  0.65540659031E+01  0.11816490524E+02  0.51100000000E-03 0.  1.
         12    1    3    3    0    0 -0.81292845629E+01 -0.75091957829E+01  0.22689317134E+02  0.25244373647E+02  0.00000000000E+00 0. -1.
</event>
<event>
 7    1  0.1427898E-010  0.4778727E+02  0.7816164E-02  0.1312668E+00
        -11   -1    0    0    0    0  0.00000000000E+00  0.00000000000E+00  0.45593999997E+02  0.45594000000E+02  0.51100000000E-03 0.  1.
         11   -1    0    0    0    0 -0.00000000000E+00 -0.00000000000E+00 -0.45593999997E+02  0.45594000000E+02  0.51100000000E-03 0. -1.
    9900012    2    1    2    0    0  0.10634986996E+02 -0.34673183624E+02 -0.23838846232E+02  0.47787271887E+02  0.20000003843E+02 0.  0.
        -12    1    1    2    0    0 -0.10634986996E+02  0.34673183624E+02  0.23838846232E+02  0.43400728113E+02  0.00000000000E+00 0.  1.
         11    1    3    3    0    0 -0.36038654942E+01 -0.53684274908E+01 -0.25960222665E+01  0.69675815096E+01  0.51100000000E-03 0. -1.
        -11    1    3    3    0    0  0.11414737714E+02 -0.12276464711E+02 -0.60398071007E+01  0.17818167497E+02  0.51100000000E-03 0.  1.
         12    1    3    3    0    0  0.28241147769E+01 -0.17028291423E+02 -0.15203016865E+02  0.23001522881E+02  0.00000000000E+00 0. -1.
</event>
<event>
 7    1  0.1427898E-010  0.4778727E+02  0.7816164E-02  0.1312668E+00
        -11   -1    0    0    0    0  0.00000000000E+00  0.00000000000E+00  0.45593999997E+02  0.45594000000E+02  0.51100000000E-03 0.  1.
         11   -1    0    0    0    0 -0.00000000000E+00 -0.00000000000E+00 -0.45593999997E+02  0.45594000000E+02  0.51100000000E-03 0. -1.
    9900012    2    1    2    0    0  0.12638703889E+01 -0.18449907848E+02 -0.39263558462E+02  0.47787268542E+02  0.19999988593E+02 0.  0.
        -12    1    1    2    0    0 -0.12638703889E+01  0.18449907848E+02  0.39263558462E+02  0.43400731458E+02  0.00000000000E+00 0.  1.
         11    1    3    3    0    0 -0.39740700681E+01 -0.38220979460E+01 -0.19296655644E+01  0.58416842663E+01  0.51100000000E-03 0. -1.
        -11    1    3    3    0    0 -0.13620276019E+01 -0.59893130793E+01 -0.23833615639E+02  0.24612359193E+02  0.51100000000E-03 0.  1.
        -12    1    3    3    0    0  0.65999680589E+01 -0.86384968224E+01 -0.13500277258E+02  0.17333225083E+02  0.00000000000E+00 0.  1.
</event>
<event>
 7    1  0.1427898E-010  0.4778727E+02  0.7816164E-02  0.1312668E+00
        -11   -1    0    0    0    0  0.00000000000E+00  0.00000000000E+00  0.45593999997E+02  0.45594000000E+02  0.51100000000E-03 0.  1.
         11   -1    0    0    0    0 -0.00000000000E+00 -0.00000000000E+00 -0.45593999997E+02  0.45594000000E+02  0.51100000000E-03 0. -1.
    9900012    2    1    2    0    0 -0.21000291073E+02 -0.10279995656E+02 -0.36564092831E+02  0.47787269356E+02  0.19999992303E+02 0.  0.
        -12    1    1    2    0    0  0.21000291073E+02  0.10279995656E+02  0.36564092831E+02  0.43400730644E+02  0.00000000000E+00 0.  1.
         11    1    3    3    0    0 -0.59204055439E+01 -0.73643291278E+01 -0.16403508108E+02  0.18930388898E+02  0.51100000000E-03 0. -1.
        -11    1    3    3    0    0 -0.66458975272E+01 -0.48859830284E+01 -0.16385206418E+01  0.84098474570E+01  0.51100000000E-03 0.  1.
         12    1    3    3    0    0 -0.84339880019E+01  0.19703165000E+01 -0.18522064082E+02  0.20447033002E+02  0.00000000000E+00 0. -1.
</event>
<event>
 7    1  0.1427898E-010  0.4778727E+02  0.7816164E-02  0.1312668E+00
        -11   -1    0    0    0    0  0.00000000000E+00  0.00000000000E+00  0.45593999997E+02  0.45594000000E+02  0.51100000000E-03 0.  1.
         11   -1    0    0    0    0 -0.00000000000E+00 -0.00000000000E+00 -0.45593999997E+02  0.45594000000E+02  0.51100000000E-03 0. -1.
    9900012    2    1    2    0    0 -0.37061275186E+01 -0.11296414051E+02 -0.41740613454E+02  0.47787272320E+02  0.20000005818E+02 0.  0.
        -12    1    1    2    0    0  0.37061275186E+01  0.11296414051E+02  0.41740613454E+02  0.43400727680E+02  0.00000000000E+00 0.  1.
         11    1    3    3    0    0 -0.25859919090E+01 -0.33402750565E+01 -0.20835724994E+02  0.21259638470E+02  0.51100000000E-03 0. -1.
        -11    1    3    3    0    0 -0.76902738666E+01 -0.44066125701E+01 -0.11353574051E+02  0.14403547844E+02  0.51100000000E-03 0.  1.
         12    1    3    3    0    0  0.65701382569E+01 -0.35495264241E+01 -0.95513144088E+01  0.12124086006E+02  0.00000000000E+00 0. -1.
</event>
<event>
 7    1  0.1427898E-010  0.4778727E+02  0.7816164E-02  0.1312668E+00
        -11   -1    0    0    0    0  0.00000000000E+00  0.00000000000E+00  0.45593999997E+02  0.45594000000E+02  0.51100000000E-03 0.  1.
         11   -1    0    0    0    0 -0.00000000000E+00 -0.00000000000E+00 -0.45593999997E+02  0.45594000000E+02  0.51100000000E-03 0. -1.
    9900012    2    1    2    0    0 -0.31797868366E+02  0.11839233150E+02 -0.27061997795E+02  0.47787267300E+02  0.19999982930E+02 0.  0.
        -12    1    1    2    0    0  0.31797868366E+02 -0.11839233150E+02  0.27061997795E+02  0.43400732700E+02  0.00000000000E+00 0.  1.
         11    1    3    3    0    0 -0.20686750084E+02  0.90133860656E+01 -0.15817737606E+02  0.27556915296E+02  0.51100000000E-03 0. -1.
        -11    1    3    3    0    0 -0.62202336302E+01  0.30857592992E+01  0.10257574233E+01  0.70189312163E+01  0.51100000000E-03 0.  1.
        -12    1    3    3    0    0 -0.48908846517E+01 -0.25991221432E+00 -0.12270017612E+02  0.13211420788E+02  0.00000000000E+00 0.  1.
</event>
<event>
 7    1  0.1427898E-010  0.4778727E+02  0.7816164E-02  0.1312668E+00
        -11   -1    0    0    0    0  0.00000000000E+00  0.00000000000E+00  0.45593999997E+02  0.45594000000E+02  0.51100000000E-03 0.  1.
         11   -1    0    0    0    0 -0.00000000000E+00 -0.00000000000E+00 -0.45593999997E+02  0.45594000000E+02  0.51100000000E-03 0. -1.
    9900012    2    1    2    0    0 -0.25818654494E+02 -0.23150491997E+02 -0.26097408912E+02  0.47787274758E+02  0.20000016932E+02 0.  0.
        -12    1    1    2    0    0  0.25818654494E+02  0.23150491997E+02  0.26097408912E+02  0.43400725242E+02  0.00000000000E+00 0.  1.
         11    1    3    3    0    0 -0.57098831849E+01 -0.47478055553E+01 -0.45337563586E+00  0.74397562665E+01  0.51100000000E-03 0. -1.
        -11    1    3    3    0    0 -0.77684408086E+01 -0.15765109627E+02 -0.99043994445E+01  0.20173856418E+02  0.51100000000E-03 0.  1.
        -12    1    3    3    0    0 -0.12340330501E+02 -0.26375768151E+01 -0.15739633832E+02  0.20173662074E+02  0.00000000000E+00 0.  1.
</event>
<event>
 7    1  0.1427898E-010  0.4778727E+02  0.7816164E-02  0.1312668E+00
        -11   -1    0    0    0    0  0.00000000000E+00  0.00000000000E+00  0.45593999997E+02  0.45594000000E+02  0.51100000000E-03 0.  1.
         11   -1    0    0    0    0 -0.00000000000E+00 -0.00000000000E+00 -0.45593999997E+02  0.45594000000E+02  0.51100000000E-03 0. -1.
    9900012    2    1    2    0    0 -0.11746452876E+02 -0.28261008101E+02 -0.30772707057E+02  0.47787271507E+02  0.20000002110E+02 0.  0.
        -12    1    1    2    0    0  0.11746452876E+02  0.28261008101E+02  0.30772707057E+02  0.43400728493E+02  0.00000000000E+00 0.  1.
         11    1    3    3    0    0 -0.82861933450E+01 -0.14360468967E+01 -0.29264103826E+01  0.89043309029E+01  0.51100000000E-03 0. -1.
        -11    1    3    3    0    0 -0.10821464164E+00 -0.73316920447E+01 -0.83002383500E+01  0.11075169325E+02  0.51100000000E-03 0.  1.
         12    1    3    3    0    0 -0.33520448890E+01 -0.19493269160E+02 -0.19546058325E+02  0.27807771279E+02  0.00000000000E+00 0. -1.
</event>
<event>
 7    1  0.1427898E-010  0.4778727E+02  0.7816164E-02  0.1312668E+00
        -11   -1    0    0    0    0  0.00000000000E+00  0.00000000000E+00  0.45593999997E+02  0.45594000000E+02  0.51100000000E-03 0.  1.
         11   -1    0    0    0    0 -0.00000000000E+00 -0.00000000000E+00 -0.45593999997E+02  0.45594000000E+02  0.51100000000E-03 0. -1.
    9900012    2    1    2    0    0 -0.36932815445E+02 -0.19673652836E+02 -0.11512502016E+02  0.47787272181E+02  0.20000005182E+02 0.  0.
        -12    1    1    2    0    0  0.36932815445E+02  0.19673652836E+02  0.11512502016E+02  0.43400727819E+02  0.00000000000E+00 0.  1.
         11    1    3    3    0    0 -0.13017136623E+02 -0.12618214718E+02 -0.82287434561E+00  0.18147790802E+02  0.51100000000E-03 0. -1.
        -11    1    3    3    0    0 -0.24649371911E+02 -0.79571536970E+01 -0.86795198707E+01  0.27317428430E+02  0.51100000000E-03 0.  1.
         12    1    3    3    0    0  0.73369308922E+00  0.90171557969E+00 -0.20101077994E+01  0.23220529497E+01  0.00000000000E+00 0. -1.
</event>
<event>
 7    1  0.1427898E-010  0.4778726E+02  0.7816164E-02  0.1312668E+00
        -11   -1    0    0    0    0  0.00000000000E+00  0.00000000000E+00  0.45593999997E+02  0.45594000000E+02  0.51100000000E-03 0.  1.
         11   -1    0    0    0    0 -0.00000000000E+00 -0.00000000000E+00 -0.45593999997E+02  0.45594000000E+02  0.51100000000E-03 0. -1.
    9900012    2    1    2    0    0 -0.34748767145E+02  0.21593142480E+02 -0.14487350179E+02  0.47787263423E+02  0.19999965250E+02 0.  0.
        -12    1    1    2    0    0  0.34748767145E+02 -0.21593142480E+02  0.14487350179E+02  0.43400736577E+02  0.00000000000E+00 0.  1.
         11    1    3    3    0    0 -0.11710678667E+02  0.40658583380E+01 -0.92313024330E+01  0.15456006720E+02  0.51100000000E-03 0. -1.
        -11    1    3    3    0    0 -0.23976389042E+01  0.47297815184E+00  0.34045219725E+01  0.41908412961E+01  0.51100000000E-03 0.  1.
        -12    1    3    3    0    0 -0.20640449573E+02  0.17054305990E+02 -0.86605697181E+01  0.28140415406E+02  0.00000000000E+00 0.  1.
</event>
<event>
 7    1  0.1427898E-010  0.4778726E+02  0.7816164E-02  0.1312668E+00
        -11   -1    0    0    0    0  0.00000000000E+00  0.00000000000E+00  0.45593999997E+02  0.45594000000E+02  0.51100000000E-03 0.  1.
         11   -1    0    0    0    0 -0.00000000000E+00 -0.00000000000E+00 -0.45593999997E+02  0.45594000000E+02  0.51100000000E-03 0. -1.
    9900012    2    1    2    0    0 -0.19674117850E+02  0.79551650356E+01 -0.37858532554E+02  0.47787262091E+02  0.19999959178E+02 0.  0.
        -12    1    1    2    0    0  0.19674117850E+02 -0.79551650356E+01  0.37858532554E+02  0.43400737909E+02  0.00000000000E+00 0.  1.
         11    1    3    3    0    0 -0.56532314737E+01 -0.15172498922E+01 -0.17302436560E+02  0.18265688723E+02  0.51100000000E-03 0. -1.
        -11    1    3    3    0    0 -0.78669802661E+01  0.16646519086E+01 -0.17271428833E+02  0.19051579952E+02  0.51100000000E-03 0.  1.
        -12    1    3    3    0    0 -0.61539061102E+01  0.78077630192E+01 -0.32846671607E+01  0.10469993416E+02  0.00000000000E+00 0.  1.
</event>
<event>
 7    1  0.1427898E-010  0.4778728E+02  0.7816164E-02  0.1312668E+00
        -11   -1    0    0    0    0  0.00000000000E+00  0.00000000000E+00  0.45593999997E+02  0.45594000000E+02  0.51100000000E-03 0.  1.
         11   -1    0    0    0    0 -0.00000000000E+00 -0.00000000000E+00 -0.45593999997E+02  0.45594000000E+02  0.51100000000E-03 0. -1.
    9900012    2    1    2    0    0  0.26844936518E+02  0.12176813209E+02 -0.31854316796E+02  0.47787275408E+02  0.20000019895E+02 0.  0.
        -12    1    1    2    0    0 -0.26844936518E+02 -0.12176813209E+02  0.31854316796E+02  0.43400724592E+02  0.00000000000E+00 0.  1.
         11    1    3    3    0    0  0.33486524573E+00  0.25793757865E+01 -0.88942980649E+01  0.92668145827E+01  0.51100000000E-03 0.  1.
        -11    1    3    3    0    0  0.15881192100E+02  0.45702872278E+00 -0.17055875199E+02  0.23309311805E+02  0.51100000000E-03 0. -1.
        -12    1    3    3    0    0  0.10628879172E+02  0.91404087000E+01 -0.59041435318E+01  0.15211149020E+02  0.00000000000E+00 0.  1.
</event>
<event>
 7    1  0.1427898E-010  0.4778725E+02  0.7816164E-02  0.1312668E+00
        -11   -1    0    0    0    0  0.00000000000E+00  0.00000000000E+00  0.45593999997E+02  0.45594000000E+02  0.51100000000E-03 0.  1.
         11   -1    0    0    0    0 -0.00000000000E+00 -0.00000000000E+00 -0.45593999997E+02  0.45594000000E+02  0.51100000000E-03 0. -1.
    9900012    2    1    2    0    0  0.30186548567E+02  0.25435607072E+02 -0.18039605814E+02  0.47787248861E+02  0.19999898856E+02 0.  0.
        -12    1    1    2    0    0 -0.30186548567E+02 -0.25435607072E+02  0.18039605814E+02  0.43400751139E+02  0.00000000000E+00 0.  1.
         11    1    3    3    0    0  0.16298832881E+02  0.15874292590E+02 -0.15301244420E+02  0.27418482809E+02  0.51100000000E-03 0. -1.
        -11    1    3    3    0    0  0.13817116641E+02  0.11437859333E+02 -0.12644589479E+01  0.17981551520E+02  0.51100000000E-03 0.  1.
        -12    1    3    3    0    0  0.70599045870E-01 -0.18765448502E+01 -0.14739024464E+01  0.23872145319E+01  0.00000000000E+00 0.  1.
</event>
<event>
 7    1  0.1427898E-010  0.4778727E+02  0.7816164E-02  0.1312668E+00
        -11   -1    0    0    0    0  0.00000000000E+00  0.00000000000E+00  0.45593999997E+02  0.45594000000E+02  0.51100000000E-03 0.  1.
         11   -1    0    0    0    0 -0.00000000000E+00 -0.00000000000E+00 -0.45593999997E+02  0.45594000000E+02  0.51100000000E-03 0. -1.
    9900012    2    1    2    0    0  0.29551874551E+02  0.47121663794E+01 -0.31434147644E+02  0.47787269136E+02  0.19999991298E+02 0.  0.
        -12    1    1    2    0    0 -0.29551874551E+02 -0.47121663794E+01  0.31434147644E+02  0.43400730864E+02  0.00000000000E+00 0.  1.
         11    1    3    3    0    0  0.91875086853E+01  0.71699698382E+00 -0.11373369974E+02  0.14638235732E+02  0.51100000000E-03 0. -1.
        -11    1    3    3    0    0  0.10944819777E+02 -0.72639871461E+00 -0.55936077821E+00  0.10983151632E+02  0.51100000000E-03 0.  1.
        -12    1    3    3    0    0  0.94195460893E+01  0.47215681102E+01 -0.19501416891E+02  0.22165881771E+02  0.00000000000E+00 0.  1.
</event>
<event>
 7    1  0.1427898E-010  0.4778727E+02  0.7816164E-02  0.1312668E+00
        -11   -1    0    0    0    0  0.00000000000E+00  0.00000000000E+00  0.45593999997E+02  0.45594000000E+02  0.51100000000E-03 0.  1.
         11   -1    0    0    0    0 -0.00000000000E+00 -0.00000000000E+00 -0.45593999997E+02  0.45594000000E+02  0.51100000000E-03 0. -1.
    9900012    2    1    2    0    0 -0.34853430233E+02 -0.28678513736E+01 -0.25702859748E+02  0.47787272244E+02  0.20000005468E+02 0.  0.
        -12    1    1    2    0    0  0.34853430233E+02  0.28678513736E+01  0.25702859748E+02  0.43400727756E+02  0.00000000000E+00 0.  1.
         11    1    3    3    0    0 -0.15437316906E+02 -0.55462126979E+01 -0.11185583959E+02  0.19854181355E+02  0.51100000000E-03 0. -1.
        -11    1    3    3    0    0 -0.19313873693E+01  0.13327909178E+01 -0.93663474527E+01  0.96558300351E+01  0.51100000000E-03 0.  1.
         12    1    3    3    0    0 -0.17484725958E+02  0.13455704066E+01 -0.51509283370E+01  0.18277260853E+02  0.00000000000E+00 0. -1.
</event>
<event>
 7    1  0.1427898E-010  0.4778726E+02  0.7816164E-02  0.1312668E+00
        -11   -1    0    0    0    0  0.00000000000E+00  0.00000000000E+00  0.45593999997E+02  0.45594000000E+02  0.51100000000E-03 0.  1.
         11   -1    0    0    0    0 -0.00000000000E+00 -0.00000000000E+00 -0.45593999997E+02  0.45594000000E+02  0.51100000000E-03 0. -1.
    9900012    2    1    2    0    0  0.22069962179E+02 -0.35174242874E+02  0.12621967280E+02  0.47787255187E+02  0.19999927700E+02 0.  0.
        -12    1    1    2    0    0 -0.22069962179E+02  0.35174242874E+02 -0.12621967280E+02  0.43400744813E+02  0.00000000000E+00 0.  1.
         11    1    3    3    0    0  0.34208792536E+01 -0.11846948444E+02  0.62344589858E+01  0.13817419492E+02  0.51100000000E-03 0. -1.
        -11    1    3    3    0    0 -0.20815062874E+01 -0.40005078428E+01  0.30218409158E+01  0.54284670218E+01  0.51100000000E-03 0.  1.
         12    1    3    3    0    0  0.20730589212E+02 -0.19326786586E+02  0.33656673785E+01  0.28541368673E+02  0.00000000000E+00 0. -1.
</event>
<event>
 7    1  0.1427898E-010  0.4778727E+02  0.7816164E-02  0.1312668E+00
        -11   -1    0    0    0    0  0.00000000000E+00  0.00000000000E+00  0.45593999997E+02  0.45594000000E+02  0.51100000000E-03 0.  1.
         11   -1    0    0    0    0 -0.00000000000E+00 -0.00000000000E+00 -0.45593999997E+02  0.45594000000E+02  0.51100000000E-03 0. -1.
    9900012    2    1    2    0    0  0.15565182088E+02 -0.13309785653E+02 -0.38264837658E+02  0.47787273180E+02  0.20000009737E+02 0.  0.
        -12    1    1    2    0    0 -0.15565182088E+02  0.13309785653E+02  0.38264837658E+02  0.43400726820E+02  0.00000000000E+00 0.  1.
         11    1    3    3    0    0  0.95892541541E+01 -0.48075176734E+01 -0.14650853581E+02  0.18158015649E+02  0.51100000000E-03 0. -1.
        -11    1    3    3    0    0  0.67427798367E+01 -0.89116305850E+01 -0.74248542746E+01  0.13416806657E+02  0.51100000000E-03 0.  1.
        -12    1    3    3    0    0 -0.76685190311E+00  0.40936260540E+00 -0.16189129802E+02  0.16212450874E+02  0.00000000000E+00 0.  1.
</event>
<event>
 7    1  0.1427898E-010  0.4778727E+02  0.7816164E-02  0.1312668E+00
        -11   -1    0    0    0    0  0.00000000000E+00  0.00000000000E+00  0.45593999997E+02  0.45594000000E+02  0.51100000000E-03 0.  1.
         11   -1    0    0    0    0 -0.00000000000E+00 -0.00000000000E+00 -0.45593999997E+02  0.45594000000E+02  0.51100000000E-03 0. -1.
    9900012    2    1    2    0    0 -0.21060018144E+02  0.31476899659E+02 -0.21196784445E+02  0.47787271352E+02  0.20000001402E+02 0.  0.
        -12    1    1    2    0    0  0.21060018144E+02 -0.31476899659E+02  0.21196784445E+02  0.43400728648E+02  0.00000000000E+00 0.  1.
         11    1    3    3    0    0 -0.16688662701E+02  0.23461712417E+02 -0.12948944395E+02  0.31569583043E+02  0.51100000000E-03 0. -1.
        -11    1    3    3    0    0 -0.48249281257E+01  0.13984884940E+01  0.70833203021E+00  0.50732076649E+01  0.51100000000E-03 0.  1.
        -12    1    3    3    0    0  0.45357268270E+00  0.66166987480E+01 -0.89561720801E+01  0.11144480644E+02  0.00000000000E+00 0.  1.
</event>
<event>
 7    1  0.1427898E-010  0.4778728E+02  0.7816164E-02  0.1312668E+00
        -11   -1    0    0    0    0  0.00000000000E+00  0.00000000000E+00  0.45593999997E+02  0.45594000000E+02  0.51100000000E-03 0. -1.
         11   -1    0    0    0    0 -0.00000000000E+00 -0.00000000000E+00 -0.45593999997E+02  0.45594000000E+02  0.51100000000E-03 0.  1.
    9900012    2    1    2    0    0 -0.28167533850E+02 -0.33016722184E+02  0.32916609006E+00  0.47787282756E+02  0.20000053396E+02 0.  0.
        -12    1    1    2    0    0  0.28167533850E+02  0.33016722184E+02 -0.32916609006E+00  0.43400717244E+02  0.00000000000E+00 0.  1.
         11    1    3    3    0    0 -0.97792366900E+01 -0.16340051487E+02 -0.35522890017E+01  0.19371357987E+02  0.51100000000E-03 0. -1.
        -11    1    3    3    0    0 -0.41984145483E+01 -0.12211164386E+02  0.40693848036E+01  0.13538800291E+02  0.51100000000E-03 0.  1.
        -12    1    3    3    0    0 -0.14189882612E+02 -0.44655063116E+01 -0.18792971186E+00  0.14877124478E+02  0.00000000000E+00 0.  1.
</event>
<event>
 7    1  0.1427898E-010  0.4778727E+02  0.7816164E-02  0.1312668E+00
        -11   -1    0    0    0    0  0.00000000000E+00  0.00000000000E+00  0.45593999997E+02  0.45594000000E+02  0.51100000000E-03 0.  1.
         11   -1    0    0    0    0 -0.00000000000E+00 -0.00000000000E+00 -0.45593999997E+02  0.45594000000E+02  0.51100000000E-03 0. -1.
    9900012    2    1    2    0    0  0.19061677131E+01 -0.17811933031E+02 -0.39531315500E+02  0.47787270296E+02  0.19999996586E+02 0.  0.
        -12    1    1    2    0    0 -0.19061677131E+01  0.17811933031E+02  0.39531315500E+02  0.43400729704E+02  0.00000000000E+00 0.  1.
         11    1    3    3    0    0  0.73312187225E+00  0.68765324981E+00  0.30716114729E+00  0.10510389636E+01  0.51100000000E-03 0. -1.
        -11    1    3    3    0    0 -0.65140167610E+01 -0.30836637466E+01 -0.12132357054E+02  0.14111537280E+02  0.51100000000E-03 0.  1.
         12    1    3    3    0    0  0.76870626018E+01 -0.15415922535E+02 -0.27706119594E+02  0.32624694052E+02  0.00000000000E+00 0. -1.
</event>
<event>
 7    1  0.1427898E-010  0.4778725E+02  0.7816164E-02  0.1312668E+00
        -11   -1    0    0    0    0  0.00000000000E+00  0.00000000000E+00  0.45593999997E+02  0.45594000000E+02  0.51100000000E-03 0.  1.
         11   -1    0    0    0    0 -0.00000000000E+00 -0.00000000000E+00 -0.45593999997E+02  0.45594000000E+02  0.51100000000E-03 0. -1.
    9900012    2    1    2    0    0 -0.10592895976E+02  0.19838026896E+02 -0.37119643470E+02  0.47787254757E+02  0.19999925740E+02 0.  0.
        -12    1    1    2    0    0  0.10592895976E+02 -0.19838026896E+02  0.37119643470E+02  0.43400745243E+02  0.00000000000E+00 0.  1.
         11    1    3    3    0    0 -0.87303419710E+01  0.20665874965E+02 -0.28954887901E+02  0.36628988419E+02  0.51100000000E-03 0. -1.
        -11    1    3    3    0    0  0.11846029788E+01  0.14818623831E+01  0.25190124738E+00  0.19138063746E+01  0.51100000000E-03 0.  1.
         12    1    3    3    0    0 -0.30471569836E+01 -0.23097104518E+01 -0.84166568164E+01  0.92444599636E+01  0.00000000000E+00 0. -1.
</event>
<event>
 7    1  0.1427898E-010  0.4778726E+02  0.7816164E-02  0.1312668E+00
        -11   -1    0    0    0    0  0.00000000000E+00  0.00000000000E+00  0.45593999997E+02  0.45594000000E+02  0.51100000000E-03 0.  1.
         11   -1    0    0    0    0 -0.00000000000E+00 -0.00000000000E+00 -0.45593999997E+02  0.45594000000E+02  0.51100000000E-03 0. -1.
    9900012    2    1    2    0    0  0.41265336088E+02 -0.26248624937E+01  0.13187353264E+02  0.47787260931E+02  0.19999953890E+02 0.  0.
        -12    1    1    2    0    0 -0.41265336088E+02  0.26248624937E+01 -0.13187353264E+02  0.43400739069E+02  0.00000000000E+00 0.  1.
         11    1    3    3    0    0  0.14706408625E+02  0.54552017392E+01  0.37285935176E+01  0.16122657676E+02  0.51100000000E-03 0. -1.
        -11    1    3    3    0    0  0.44798750806E+01 -0.26593978763E+01 -0.27159749251E+01  0.58752189625E+01  0.51100000000E-03 0.  1.
         12    1    3    3    0    0  0.22079052382E+02 -0.54206663566E+01  0.12174734672E+02  0.25789384292E+02  0.00000000000E+00 0. -1.
</event>
<event>
 7    1  0.1427898E-010  0.4778727E+02  0.7816164E-02  0.1312668E+00
        -11   -1    0    0    0    0  0.00000000000E+00  0.00000000000E+00  0.45593999997E+02  0.45594000000E+02  0.51100000000E-03 0.  1.
         11   -1    0    0    0    0 -0.00000000000E+00 -0.00000000000E+00 -0.45593999997E+02  0.45594000000E+02  0.51100000000E-03 0. -1.
    9900012    2    1    2    0    0 -0.35646860370E+02  0.23429598765E+02 -0.79986682301E+01  0.47787269062E+02  0.19999990960E+02 0.  0.
        -12    1    1    2    0    0  0.35646860370E+02 -0.23429598765E+02  0.79986682301E+01  0.43400730938E+02  0.00000000000E+00 0.  1.
         11    1    3    3    0    0 -0.15525710602E+02  0.14453384168E+01 -0.62972990485E+01  0.16816440420E+02  0.51100000000E-03 0. -1.
        -11    1    3    3    0    0 -0.23353358375E+01  0.39185558320E+01  0.26094723260E+01  0.52553039269E+01  0.51100000000E-03 0.  1.
         12    1    3    3    0    0 -0.17785813930E+02  0.18065704517E+02 -0.43108415076E+01  0.25715524714E+02  0.00000000000E+00 0. -1.
</event>
<event>
 7    1  0.1498282E-010  0.4778727E+02  0.7816164E-02  0.1312668E+00
        -11   -1    0    0    0    0  0.00000000000E+00  0.00000000000E+00  0.45593999997E+02  0.45594000000E+02  0.51100000000E-03 0. -1.
         11   -1    0    0    0    0 -0.00000000000E+00 -0.00000000000E+00 -0.45593999997E+02  0.45594000000E+02  0.51100000000E-03 0.  1.
    9900012    2    1    2    0    0 -0.27116271800E+02 -0.32448553710E+02  0.97684509139E+01  0.47787268814E+02  0.19999989830E+02 0.  0.
        -12    1    1    2    0    0  0.27116271800E+02  0.32448553710E+02 -0.97684509139E+01  0.43400731186E+02  0.00000000000E+00 0.  1.
         11    1    3    3    0    0 -0.10342928613E+02 -0.13364018633E+02 -0.11120210577E+01  0.16935458582E+02  0.51100000000E-03 0. -1.
        -11    1    3    3    0    0 -0.69015212734E+01  0.10855224370E+00  0.48701016401E+01  0.84475244730E+01  0.51100000000E-03 0.  1.
         12    1    3    3    0    0 -0.98718219138E+01 -0.19193087321E+02  0.60103703315E+01  0.22404285758E+02  0.00000000000E+00 0. -1.
</event>
<event>
 7    1  0.1598896E-010  0.4778727E+02  0.7816164E-02  0.1312668E+00
        -11   -1    0    0    0    0  0.00000000000E+00  0.00000000000E+00  0.45593999997E+02  0.45594000000E+02  0.51100000000E-03 0. -1.
         11   -1    0    0    0    0 -0.00000000000E+00 -0.00000000000E+00 -0.45593999997E+02  0.45594000000E+02  0.51100000000E-03 0.  1.
    9900012    2    1    2    0    0  0.29058863480E+02  0.98591091545E+01  0.30692087117E+02  0.47787265079E+02  0.19999972799E+02 0.  0.
        -12    1    1    2    0    0 -0.29058863480E+02 -0.98591091545E+01 -0.30692087117E+02  0.43400734921E+02  0.00000000000E+00 0.  1.
         11    1    3    3    0    0  0.24988743301E+02  0.25797125326E+01  0.28506255067E+02  0.37996036460E+02  0.51100000000E-03 0. -1.
        -11    1    3    3    0    0  0.16856975897E+01  0.40508858253E+01  0.34518722850E+01  0.55827121426E+01  0.51100000000E-03 0.  1.
         12    1    3    3    0    0  0.23844225900E+01  0.32285107967E+01 -0.12660402344E+01  0.42085164758E+01  0.00000000000E+00 0. -1.
</event>
<event>
 7    1  0.1427898E-010  0.4778727E+02  0.7816164E-02  0.1312668E+00
        -11   -1    0    0    0    0  0.00000000000E+00  0.00000000000E+00  0.45593999997E+02  0.45594000000E+02  0.51100000000E-03 0. -1.
         11   -1    0    0    0    0 -0.00000000000E+00 -0.00000000000E+00 -0.45593999997E+02  0.45594000000E+02  0.51100000000E-03 0.  1.
    9900012    2    1    2    0    0 -0.23814400508E+02  0.19000021316E+02  0.30911110061E+02  0.47787271818E+02  0.20000003525E+02 0.  0.
        -12    1    1    2    0    0  0.23814400508E+02 -0.19000021316E+02 -0.30911110061E+02  0.43400728182E+02  0.00000000000E+00 0.  1.
         11    1    3    3    0    0 -0.55399145578E+01  0.51080352261E+01  0.11423728694E+02  0.13685183767E+02  0.51100000000E-03 0. -1.
        -11    1    3    3    0    0 -0.16101220234E+02  0.10082933127E+02  0.60047208386E+01  0.19924143798E+02  0.51100000000E-03 0.  1.
        -12    1    3    3    0    0 -0.21732657168E+01  0.38090529633E+01  0.13482660528E+02  0.14177944253E+02  0.00000000000E+00 0.  1.
</event>
<event>
 7    1  0.1427898E-010  0.4778728E+02  0.7816164E-02  0.1312668E+00
        -11   -1    0    0    0    0  0.00000000000E+00  0.00000000000E+00  0.45593999997E+02  0.45594000000E+02  0.51100000000E-03 0. -1.
         11   -1    0    0    0    0 -0.00000000000E+00 -0.00000000000E+00 -0.45593999997E+02  0.45594000000E+02  0.51100000000E-03 0.  1.
    9900012    2    1    2    0    0  0.41144272371E+02  0.46673345446E+01 -0.12999524811E+02  0.47787276434E+02  0.20000024574E+02 0.  0.
        -12    1    1    2    0    0 -0.41144272371E+02 -0.46673345446E+01  0.12999524811E+02  0.43400723566E+02  0.00000000000E+00 0.  1.
         11    1    3    3    0    0  0.13324128259E+02  0.80893246853E+01 -0.24592827239E+00  0.15589421051E+02  0.51100000000E-03 0. -1.
        -11    1    3    3    0    0  0.94152170967E+01 -0.32275675069E+01 -0.26795995246E+00  0.99566715215E+01  0.51100000000E-03 0.  1.
        -12    1    3    3    0    0  0.18404927016E+02 -0.19442263371E+00 -0.12485636587E+02  0.22241183862E+02  0.00000000000E+00 0.  1.
</event>
<event>
 7    1  0.1427898E-010  0.4778727E+02  0.7816164E-02  0.1312668E+00
        -11   -1    0    0    0    0  0.00000000000E+00  0.00000000000E+00  0.45593999997E+02  0.45594000000E+02  0.51100000000E-03 0. -1.
         11   -1    0    0    0    0 -0.00000000000E+00 -0.00000000000E+00 -0.45593999997E+02  0.45594000000E+02  0.51100000000E-03 0.  1.
    9900012    2    1    2    0    0 -0.71406140907E+01 -0.40395963829E+02 -0.14170422624E+02  0.47787272580E+02  0.20000007002E+02 0.  0.
        -12    1    1    2    0    0  0.71406140907E+01  0.40395963829E+02  0.14170422624E+02  0.43400727420E+02  0.00000000000E+00 0.  1.
         11    1    3    3    0    0 -0.12060510419E+01 -0.86232369731E+01  0.32713893138E+01  0.93014387766E+01  0.51100000000E-03 0. -1.
        -11    1    3    3    0    0 -0.66075033367E+01 -0.74214679740E+01 -0.54634904063E+01  0.11339621463E+02  0.51100000000E-03 0.  1.
         12    1    3    3    0    0  0.67294028799E+00 -0.24351258882E+02 -0.11978321531E+02  0.27146212341E+02  0.00000000000E+00 0. -1.
</event>
<event>
 7    1  0.1427898E-010  0.4778727E+02  0.7816164E-02  0.1312668E+00
        -11   -1    0    0    0    0  0.00000000000E+00  0.00000000000E+00  0.45593999997E+02  0.45594000000E+02  0.51100000000E-03 0.  1.
         11   -1    0    0    0    0 -0.00000000000E+00 -0.00000000000E+00 -0.45593999997E+02  0.45594000000E+02  0.51100000000E-03 0. -1.
    9900012    2    1    2    0    0  0.38636735302E+02  0.19741448136E+02  0.10492584544E+01  0.47787273824E+02  0.20000012675E+02 0.  0.
        -12    1    1    2    0    0 -0.38636735302E+02 -0.19741448136E+02 -0.10492584544E+01  0.43400726176E+02  0.00000000000E+00 0.  1.
         11    1    3    3    0    0  0.27283598912E+02  0.18530080805E+02  0.12692217367E+00  0.32981430741E+02  0.51100000000E-03 0. -1.
        -11    1    3    3    0    0  0.12747189648E+02 -0.20623769007E-01  0.15529309595E+01  0.12841451012E+02  0.51100000000E-03 0.  1.
        -12    1    3    3    0    0 -0.13940532591E+01  0.12319910999E+01 -0.63059467871E+00  0.19643920709E+01  0.00000000000E+00 0.  1.
</event>
<event>
 7    1  0.1427898E-010  0.4778727E+02  0.7816164E-02  0.1312668E+00
        -11   -1    0    0    0    0  0.00000000000E+00  0.00000000000E+00  0.45593999997E+02  0.45594000000E+02  0.51100000000E-03 0. -1.
         11   -1    0    0    0    0 -0.00000000000E+00 -0.00000000000E+00 -0.45593999997E+02  0.45594000000E+02  0.51100000000E-03 0.  1.
    9900012    2    1    2    0    0 -0.34704888134E+02  0.16373260275E+02  0.20275852246E+02  0.47787273085E+02  0.20000009304E+02 0.  0.
        -12    1    1    2    0    0  0.34704888134E+02 -0.16373260275E+02 -0.20275852246E+02  0.43400726915E+02  0.00000000000E+00 0.  1.
         11    1    3    3    0    0 -0.55983254212E+01  0.78739292413E+01  0.49867125477E+01  0.10872318590E+02  0.51100000000E-03 0.  1.
        -11    1    3    3    0    0 -0.20491659367E+02  0.12436888909E+01  0.15379731943E+02  0.25651335648E+02  0.51100000000E-03 0. -1.
         12    1    3    3    0    0 -0.86149033466E+01  0.72556421429E+01 -0.90592244458E-01  0.11263618847E+02  0.00000000000E+00 0. -1.
</event>
<event>
 7    1  0.1427898E-010  0.4778728E+02  0.7816164E-02  0.1312668E+00
        -11   -1    0    0    0    0  0.00000000000E+00  0.00000000000E+00  0.45593999997E+02  0.45594000000E+02  0.51100000000E-03 0.  1.
         11   -1    0    0    0    0 -0.00000000000E+00 -0.00000000000E+00 -0.45593999997E+02  0.45594000000E+02  0.51100000000E-03 0. -1.
    9900012    2    1    2    0    0 -0.16399147649E+01  0.27623648642E+02 -0.33434526601E+02  0.47787275884E+02  0.20000022064E+02 0.  0.
        -12    1    1    2    0    0  0.16399147649E+01 -0.27623648642E+02  0.33434526601E+02  0.43400724116E+02  0.00000000000E+00 0.  1.
         11    1    3    3    0    0 -0.13115190617E+01  0.19849112563E+02 -0.17036722895E+02  0.26190786148E+02  0.51100000000E-03 0. -1.
        -11    1    3    3    0    0  0.53372606385E+01  0.30939026277E+01 -0.45935305381E+01  0.76914958010E+01  0.51100000000E-03 0.  1.
        -12    1    3    3    0    0 -0.56656563417E+01  0.46806334516E+01 -0.11804273168E+02  0.13904993935E+02  0.00000000000E+00 0.  1.
</event>
<event>
 7    1  0.1427898E-010  0.4778727E+02  0.7816164E-02  0.1312668E+00
        -11   -1    0    0    0    0  0.00000000000E+00  0.00000000000E+00  0.45593999997E+02  0.45594000000E+02  0.51100000000E-03 0.  1.
         11   -1    0    0    0    0 -0.00000000000E+00 -0.00000000000E+00 -0.45593999997E+02  0.45594000000E+02  0.51100000000E-03 0. -1.
    9900012    2    1    2    0    0  0.14311049591E+02  0.90478247184E+00 -0.40963383259E+02  0.47787267982E+02  0.19999986035E+02 0.  0.
        -12    1    1    2    0    0 -0.14311049591E+02 -0.90478247184E+00  0.40963383259E+02  0.43400732018E+02  0.00000000000E+00 0.  1.
         11    1    3    3    0    0  0.52328900160E+01  0.21367184307E+01 -0.33594950706E+02  0.34067131033E+02  0.51100000000E-03 0. -1.
        -11    1    3    3    0    0 -0.23735328476E+00 -0.12030849785E+01  0.68622341675E+00  0.14052234293E+01  0.51100000000E-03 0.  1.
        -12    1    3    3    0    0  0.93155128594E+01 -0.28850980305E-01 -0.80546559693E+01  0.12314913520E+02  0.00000000000E+00 0.  1.
</event>
<event>
 7    1  0.1427898E-010  0.4778728E+02  0.7816164E-02  0.1312668E+00
        -11   -1    0    0    0    0  0.00000000000E+00  0.00000000000E+00  0.45593999997E+02  0.45594000000E+02  0.51100000000E-03 0.  1.
         11   -1    0    0    0    0 -0.00000000000E+00 -0.00000000000E+00 -0.45593999997E+02  0.45594000000E+02  0.51100000000E-03 0. -1.
    9900012    2    1    2    0    0 -0.16765913368E+02  0.38421716794E+02 -0.11238253908E+02  0.47787279690E+02  0.20000039420E+02 0.  0.
        -12    1    1    2    0    0  0.16765913368E+02 -0.38421716794E+02  0.11238253908E+02  0.43400720310E+02  0.00000000000E+00 0.  1.
         11    1    3    3    0    0 -0.28678405511E+01  0.63587737659E+01 -0.74297737156E+01  0.10191175151E+02  0.51100000000E-03 0. -1.
        -11    1    3    3    0    0 -0.11575981115E+02  0.11664840933E+02 -0.45525140774E+01  0.17052777998E+02  0.51100000000E-03 0.  1.
        -12    1    3    3    0    0 -0.23220917026E+01  0.20398102096E+02  0.74403388473E+00  0.20543326542E+02  0.00000000000E+00 0.  1.
</event>
<event>
 7    1  0.1427898E-010  0.4778727E+02  0.7816164E-02  0.1312668E+00
        -11   -1    0    0    0    0  0.00000000000E+00  0.00000000000E+00  0.45593999997E+02  0.45594000000E+02  0.51100000000E-03 0.  1.
         11   -1    0    0    0    0 -0.00000000000E+00 -0.00000000000E+00 -0.45593999997E+02  0.45594000000E+02  0.51100000000E-03 0. -1.
    9900012    2    1    2    0    0 -0.16880085206E+02  0.12923477894E+01 -0.39962683742E+02  0.47787268079E+02  0.19999986481E+02 0.  0.
        -12    1    1    2    0    0  0.16880085206E+02 -0.12923477894E+01  0.39962683742E+02  0.43400731921E+02  0.00000000000E+00 0.  1.
         11    1    3    3    0    0 -0.39769380022E+01 -0.38048093199E+01 -0.84223965087E+01  0.10061280885E+02  0.51100000000E-03 0. -1.
        -11    1    3    3    0    0 -0.63620218618E+01 -0.25055476920E+01 -0.29852864492E+01  0.74608998688E+01  0.51100000000E-03 0.  1.
        -12    1    3    3    0    0 -0.65411253424E+01  0.76027048013E+01 -0.28555000784E+02  0.30265087326E+02  0.00000000000E+00 0.  1.
</event>
<event>
 7    1  0.1427898E-010  0.4778727E+02  0.7816164E-02  0.1312668E+00
        -11   -1    0    0    0    0  0.00000000000E+00  0.00000000000E+00  0.45593999997E+02  0.45594000000E+02  0.51100000000E-03 0.  1.
         11   -1    0    0    0    0 -0.00000000000E+00 -0.00000000000E+00 -0.45593999997E+02  0.45594000000E+02  0.51100000000E-03 0. -1.
    9900012    2    1    2    0    0  0.73394397282E+01  0.25317057311E+02 -0.34479015901E+02  0.47787270699E+02  0.19999998423E+02 0.  0.
        -12    1    1    2    0    0 -0.73394397282E+01 -0.25317057311E+02  0.34479015901E+02  0.43400729301E+02  0.00000000000E+00 0.  1.
         11    1    3    3    0    0  0.35369027990E+01  0.47716467299E+01 -0.20760726076E+02  0.21593657434E+02  0.51100000000E-03 0. -1.
        -11    1    3    3    0    0  0.86880188216E+00  0.22770807790E+01  0.91568310415E+00  0.26035340199E+01  0.51100000000E-03 0.  1.
         12    1    3    3    0    0  0.29337350471E+01  0.18268329802E+02 -0.14633972929E+02  0.23590079245E+02  0.00000000000E+00 0. -1.
</event>
<event>
 7    1  0.1427898E-010  0.4778727E+02  0.7816164E-02  0.1312668E+00
        -11   -1    0    0    0    0  0.00000000000E+00  0.00000000000E+00  0.45593999997E+02  0.45594000000E+02  0.51100000000E-03 0. -1.
         11   -1    0    0    0    0 -0.00000000000E+00 -0.00000000000E+00 -0.45593999997E+02  0.45594000000E+02  0.51100000000E-03 0.  1.
    9900012    2    1    2    0    0 -0.48260957560E+01  0.19459418788E+02  0.38492377922E+02  0.47787270307E+02  0.19999996636E+02 0.  0.
        -12    1    1    2    0    0  0.48260957560E+01 -0.19459418788E+02 -0.38492377922E+02  0.43400729693E+02  0.00000000000E+00 0.  1.
         11    1    3    3    0    0  0.43469607459E+01  0.44571539766E+01  0.10116290456E+02  0.11878620381E+02  0.51100000000E-03 0. -1.
        -11    1    3    3    0    0 -0.47815057690E+01  0.37808562823E+01  0.12444760235E+01  0.62214461727E+01  0.51100000000E-03 0.  1.
        -12    1    3    3    0    0 -0.43915507329E+01  0.11221408530E+02  0.27131611442E+02  0.29687203753E+02  0.00000000000E+00 0.  1.
</event>
<event>
 7    1  0.1427898E-010  0.4778727E+02  0.7816164E-02  0.1312668E+00
        -11   -1    0    0    0    0  0.00000000000E+00  0.00000000000E+00  0.45593999997E+02  0.45594000000E+02  0.51100000000E-03 0. -1.
         11   -1    0    0    0    0 -0.00000000000E+00 -0.00000000000E+00 -0.45593999997E+02  0.45594000000E+02  0.51100000000E-03 0.  1.
    9900012    2    1    2    0    0 -0.26266250378E+02 -0.31261586564E+02 -0.14711240919E+02  0.47787270596E+02  0.19999997956E+02 0.  0.
        -12    1    1    2    0    0  0.26266250378E+02  0.31261586564E+02  0.14711240919E+02  0.43400729404E+02  0.00000000000E+00 0.  1.
         11    1    3    3    0    0 -0.10043745894E+01 -0.31037876587E+01  0.42630934436E+01  0.53680752711E+01  0.51100000000E-03 0. -1.
        -11    1    3    3    0    0 -0.18850020594E+01 -0.33854824092E+01 -0.21045520838E+01  0.44095196611E+01  0.51100000000E-03 0.  1.
         12    1    3    3    0    0 -0.23376873729E+02 -0.24772316496E+02 -0.16869782279E+02  0.38009675664E+02  0.00000000000E+00 0. -1.
</event>
<event>
 7    1  0.1427898E-010  0.4778727E+02  0.7816164E-02  0.1312668E+00
        -11   -1    0    0    0    0  0.00000000000E+00  0.00000000000E+00  0.45593999997E+02  0.45594000000E+02  0.51100000000E-03 0.  1.
         11   -1    0    0    0    0 -0.00000000000E+00 -0.00000000000E+00 -0.45593999997E+02  0.45594000000E+02  0.51100000000E-03 0. -1.
    9900012    2    1    2    0    0  0.80927127967E+01 -0.14144103941E+02 -0.40225308107E+02  0.47787273174E+02  0.20000009709E+02 0.  0.
        -12    1    1    2    0    0 -0.80927127967E+01  0.14144103941E+02  0.40225308107E+02  0.43400726826E+02  0.00000000000E+00 0.  1.
         11    1    3    3    0    0  0.21865425100E+01 -0.37535539067E+01 -0.30598644297E+01  0.53134645635E+01  0.51100000000E-03 0. -1.
        -11    1    3    3    0    0  0.18826692394E+00 -0.16830627639E+01 -0.29479759915E+02  0.29528365847E+02  0.51100000000E-03 0.  1.
        -12    1    3    3    0    0  0.57179033627E+01 -0.87074872704E+01 -0.76856837625E+01  0.12945442763E+02  0.00000000000E+00 0.  1.
</event>
<event>
 7    1  0.1427898E-010  0.4778728E+02  0.7816164E-02  0.1312668E+00
        -11   -1    0    0    0    0  0.00000000000E+00  0.00000000000E+00  0.45593999997E+02  0.45594000000E+02  0.51100000000E-03 0.  1.
         11   -1    0    0    0    0 -0.00000000000E+00 -0.00000000000E+00 -0.45593999997E+02  0.45594000000E+02  0.51100000000E-03 0. -1.
    9900012    2    1    2    0    0 -0.16277585564E+02  0.54348580663E+01 -0.39863835850E+02  0.47787275552E+02  0.20000020550E+02 0.  0.
        -12    1    1    2    0    0  0.16277585564E+02 -0.54348580663E+01  0.39863835850E+02  0.43400724448E+02  0.00000000000E+00 0.  1.
         11    1    3    3    0    0 -0.10276087685E+02 -0.24123183647E+01 -0.61220646288E+01  0.12202333120E+02  0.51100000000E-03 0.  1.
        -11    1    3    3    0    0 -0.50658556214E+01  0.61117074276E+01 -0.17407274626E+02  0.19131886238E+02  0.51100000000E-03 0. -1.
        -12    1    3    3    0    0 -0.93564225815E+00  0.17354690033E+01 -0.16334496594E+02  0.16453056193E+02  0.00000000000E+00 0.  1.
</event>
<event>
 7    1  0.1427898E-010  0.4778727E+02  0.7816164E-02  0.1312668E+00
        -11   -1    0    0    0    0  0.00000000000E+00  0.00000000000E+00  0.45593999997E+02  0.45594000000E+02  0.51100000000E-03 0. -1.
         11   -1    0    0    0    0 -0.00000000000E+00 -0.00000000000E+00 -0.45593999997E+02  0.45594000000E+02  0.51100000000E-03 0.  1.
    9900012    2    1    2    0    0 -0.15762787805E+02  0.38971195779E+02  0.10789056549E+02  0.47787270501E+02  0.19999997522E+02 0.  0.
        -12    1    1    2    0    0  0.15762787805E+02 -0.38971195779E+02 -0.10789056549E+02  0.43400729499E+02  0.00000000000E+00 0.  1.
         11    1    3    3    0    0  0.51642743813E+00  0.70647169174E+01 -0.13670268823E+01  0.72142695527E+01  0.51100000000E-03 0. -1.
        -11    1    3    3    0    0 -0.99579728084E+01  0.12413927001E+02 -0.14423805342E+01  0.15979589103E+02  0.51100000000E-03 0.  1.
         12    1    3    3    0    0 -0.63212424351E+01  0.19492551861E+02  0.13598463965E+02  0.24593411845E+02  0.00000000000E+00 0. -1.
</event>
<event>
 7    1  0.1427898E-010  0.4778727E+02  0.7816164E-02  0.1312668E+00
        -11   -1    0    0    0    0  0.00000000000E+00  0.00000000000E+00  0.45593999997E+02  0.45594000000E+02  0.51100000000E-03 0.  1.
         11   -1    0    0    0    0 -0.00000000000E+00 -0.00000000000E+00 -0.45593999997E+02  0.45594000000E+02  0.51100000000E-03 0. -1.
    9900012    2    1    2    0    0 -0.26222529871E+02 -0.29979724887E+02 -0.17240019336E+02  0.47787271391E+02  0.20000001580E+02 0.  0.
        -12    1    1    2    0    0  0.26222529871E+02  0.29979724887E+02  0.17240019336E+02  0.43400728609E+02  0.00000000000E+00 0.  1.
         11    1    3    3    0    0 -0.54032457799E+01 -0.50358049341E+01 -0.10102375562E+02  0.12514487147E+02  0.51100000000E-03 0. -1.
        -11    1    3    3    0    0  0.95248770509E+00 -0.30111306347E+01 -0.24890155118E+01  0.40211116630E+01  0.51100000000E-03 0.  1.
         12    1    3    3    0    0 -0.21771771796E+02 -0.21932789318E+02 -0.46486282622E+01  0.31251672581E+02  0.00000000000E+00 0. -1.
</event>
<event>
 7    1  0.1427898E-010  0.4778727E+02  0.7816164E-02  0.1312668E+00
        -11   -1    0    0    0    0  0.00000000000E+00  0.00000000000E+00  0.45593999997E+02  0.45594000000E+02  0.51100000000E-03 0.  1.
         11   -1    0    0    0    0 -0.00000000000E+00 -0.00000000000E+00 -0.45593999997E+02  0.45594000000E+02  0.51100000000E-03 0. -1.
    9900012    2    1    2    0    0  0.27437548016E+02 -0.19762144092E+02 -0.27207750888E+02  0.47787273179E+02  0.20000009731E+02 0.  0.
        -12    1    1    2    0    0 -0.27437548016E+02  0.19762144092E+02  0.27207750888E+02  0.43400726821E+02  0.00000000000E+00 0.  1.
         11    1    3    3    0    0  0.68678937503E+01 -0.80426501096E+00 -0.79340195338E+01  0.10524422692E+02  0.51100000000E-03 0. -1.
        -11    1    3    3    0    0  0.33519278988E+01  0.21241317804E+01 -0.10244623907E+00  0.39696160963E+01  0.51100000000E-03 0.  1.
        -12    1    3    3    0    0  0.17217726366E+02 -0.21082010862E+02 -0.19171285115E+02  0.33293234390E+02  0.00000000000E+00 0.  1.
</event>
<event>
 7    1  0.1427898E-010  0.4778722E+02  0.7816164E-02  0.1312668E+00
        -11   -1    0    0    0    0  0.00000000000E+00  0.00000000000E+00  0.45593999997E+02  0.45594000000E+02  0.51100000000E-03 0. -1.
         11   -1    0    0    0    0 -0.00000000000E+00 -0.00000000000E+00 -0.45593999997E+02  0.45594000000E+02  0.51100000000E-03 0.  1.
    9900012    2    1    2    0    0  0.41022410597E+01 -0.24957730831E+02  0.35269120501E+02  0.47787221541E+02  0.19999774292E+02 0.  0.
        -12    1    1    2    0    0 -0.41022410597E+01  0.24957730831E+02 -0.35269120501E+02  0.43400778459E+02  0.00000000000E+00 0.  1.
         11    1    3    3    0    0  0.93447155271E+01 -0.14402083646E+02  0.29100853127E+02  0.33787621618E+02  0.51100000000E-03 0. -1.
        -11    1    3    3    0    0 -0.25124661364E+01 -0.13398787580E+01  0.22117580478E+01  0.36055006720E+01  0.51100000000E-03 0.  1.
         12    1    3    3    0    0 -0.27300083309E+01 -0.92157684268E+01  0.39565093263E+01  0.10394099251E+02  0.00000000000E+00 0. -1.
</event>
<event>
 7    1  0.1427898E-010  0.4778726E+02  0.7816164E-02  0.1312668E+00
        -11   -1    0    0    0    0  0.00000000000E+00  0.00000000000E+00  0.45593999997E+02  0.45594000000E+02  0.51100000000E-03 0. -1.
         11   -1    0    0    0    0 -0.00000000000E+00 -0.00000000000E+00 -0.45593999997E+02  0.45594000000E+02  0.51100000000E-03 0.  1.
    9900012    2    1    2    0    0 -0.23261340881E+02 -0.34691530709E+02  0.11791164502E+02  0.47787264489E+02  0.19999970113E+02 0.  0.
        -12    1    1    2    0    0  0.23261340881E+02  0.34691530709E+02 -0.11791164502E+02  0.43400735511E+02  0.00000000000E+00 0.  1.
         11    1    3    3    0    0 -0.13988812895E+02 -0.27371977997E+02  0.60433197941E+01  0.31327843527E+02  0.51100000000E-03 0. -1.
        -11    1    3    3    0    0 -0.10593317440E+02 -0.75823814937E+01  0.68506789653E+01  0.14718786840E+02  0.51100000000E-03 0.  1.
        -12    1    3    3    0    0  0.13207894531E+01  0.26282878164E+00 -0.11028342571E+01  0.17406341220E+01  0.00000000000E+00 0.  1.
</event>
<event>
 7    1  0.1427898E-010  0.4778727E+02  0.7816164E-02  0.1312668E+00
        -11   -1    0    0    0    0  0.00000000000E+00  0.00000000000E+00  0.45593999997E+02  0.45594000000E+02  0.51100000000E-03 0.  1.
         11   -1    0    0    0    0 -0.00000000000E+00 -0.00000000000E+00 -0.45593999997E+02  0.45594000000E+02  0.51100000000E-03 0. -1.
    9900012    2    1    2    0    0 -0.12177655213E+02  0.32616190801E+02 -0.25913551842E+02  0.47787270076E+02  0.19999995586E+02 0.  0.
        -12    1    1    2    0    0  0.12177655213E+02 -0.32616190801E+02  0.25913551842E+02  0.43400729924E+02  0.00000000000E+00 0.  1.
         11    1    3    3    0    0 -0.65077257610E+01  0.62127156314E+01 -0.72336898693E+01  0.11544461853E+02  0.51100000000E-03 0. -1.
        -11    1    3    3    0    0 -0.10983639289E+02  0.16697663518E+02 -0.12379622287E+02  0.23509728778E+02  0.51100000000E-03 0.  1.
        -12    1    3    3    0    0  0.53137098370E+01  0.97058116514E+01 -0.63002396854E+01  0.12733079444E+02  0.00000000000E+00 0.  1.
</event>
<event>
 7    1  0.1427898E-010  0.4778727E+02  0.7816164E-02  0.1312668E+00
        -11   -1    0    0    0    0  0.00000000000E+00  0.00000000000E+00  0.45593999997E+02  0.45594000000E+02  0.51100000000E-03 0.  1.
         11   -1    0    0    0    0 -0.00000000000E+00 -0.00000000000E+00 -0.45593999997E+02  0.45594000000E+02  0.51100000000E-03 0. -1.
    9900012    2    1    2    0    0  0.10048567141E+02  0.34515400390E+02 -0.24317417908E+02  0.47787269829E+02  0.19999994460E+02 0.  0.
        -12    1    1    2    0    0 -0.10048567141E+02 -0.34515400390E+02  0.24317417908E+02  0.43400730171E+02  0.00000000000E+00 0.  1.
         11    1    3    3    0    0  0.82235712441E+01  0.14593500094E+02 -0.15416627153E+02  0.22765538914E+02  0.51100000000E-03 0. -1.
        -11    1    3    3    0    0  0.47602659732E+01  0.10881285737E+02 -0.99029551472E+01  0.15463862142E+02  0.51100000000E-03 0.  1.
        -12    1    3    3    0    0 -0.29352700768E+01  0.90406145588E+01  0.10021643927E+01  0.95578687737E+01  0.00000000000E+00 0.  1.
</event>
<event>
 7    1  0.1427898E-010  0.4778727E+02  0.7816164E-02  0.1312668E+00
        -11   -1    0    0    0    0  0.00000000000E+00  0.00000000000E+00  0.45593999997E+02  0.45594000000E+02  0.51100000000E-03 0.  1.
         11   -1    0    0    0    0 -0.00000000000E+00 -0.00000000000E+00 -0.45593999997E+02  0.45594000000E+02  0.51100000000E-03 0. -1.
    9900012    2    1    2    0    0  0.28217522983E+02  0.29767224133E+02 -0.14188277576E+02  0.47787268941E+02  0.19999990411E+02 0.  0.
        -12    1    1    2    0    0 -0.28217522983E+02 -0.29767224133E+02  0.14188277576E+02  0.43400731059E+02  0.00000000000E+00 0.  1.
         11    1    3    3    0    0  0.15003955754E+02  0.60701003315E+01 -0.60718530929E+01  0.17286763912E+02  0.51100000000E-03 0. -1.
        -11    1    3    3    0    0  0.63967430891E+01  0.13723962692E+02 -0.10179665004E+02  0.18245302244E+02  0.51100000000E-03 0.  1.
        -12    1    3    3    0    0  0.68168241400E+01  0.99731611091E+01  0.20632405209E+01  0.12255202785E+02  0.00000000000E+00 0.  1.
</event>
<event>
 7    1  0.1427898E-010  0.4778727E+02  0.7816164E-02  0.1312668E+00
        -11   -1    0    0    0    0  0.00000000000E+00  0.00000000000E+00  0.45593999997E+02  0.45594000000E+02  0.51100000000E-03 0.  1.
         11   -1    0    0    0    0 -0.00000000000E+00 -0.00000000000E+00 -0.45593999997E+02  0.45594000000E+02  0.51100000000E-03 0. -1.
    9900012    2    1    2    0    0  0.69767535435E+01  0.39866903482E+02 -0.15670944451E+02  0.47787267481E+02  0.19999983751E+02 0.  0.
        -12    1    1    2    0    0 -0.69767535435E+01 -0.39866903482E+02  0.15670944451E+02  0.43400732519E+02  0.00000000000E+00 0.  1.
         11    1    3    3    0    0  0.11452681793E+02  0.19474302150E+02 -0.86361059020E+01  0.24186663472E+02  0.51100000000E-03 0. -1.
        -11    1    3    3    0    0 -0.35968632274E+00  0.97916206630E+01  0.73794605255E+00  0.98259744604E+01  0.51100000000E-03 0.  1.
         12    1    3    3    0    0 -0.41162419268E+01  0.10600980668E+02 -0.77727846015E+01  0.13774629548E+02  0.00000000000E+00 0. -1.
</event>
<event>
 7    1  0.1427898E-010  0.4778727E+02  0.7816164E-02  0.1312668E+00
        -11   -1    0    0    0    0  0.00000000000E+00  0.00000000000E+00  0.45593999997E+02  0.45594000000E+02  0.51100000000E-03 0.  1.
         11   -1    0    0    0    0 -0.00000000000E+00 -0.00000000000E+00 -0.45593999997E+02  0.45594000000E+02  0.51100000000E-03 0. -1.
    9900012    2    1    2    0    0  0.22195324390E+02  0.18040694207E+02 -0.32642371828E+02  0.47787268315E+02  0.19999987558E+02 0.  0.
        -12    1    1    2    0    0 -0.22195324390E+02 -0.18040694207E+02  0.32642371828E+02  0.43400731685E+02  0.00000000000E+00 0.  1.
         11    1    3    3    0    0  0.16467486862E+02  0.89085759481E+01 -0.15589987922E+02  0.24363673217E+02  0.51100000000E-03 0. -1.
        -11    1    3    3    0    0  0.54047145569E+01  0.35595835441E+00 -0.15962907374E+01  0.56467504081E+01  0.51100000000E-03 0.  1.
         12    1    3    3    0    0  0.32312297103E+00  0.87761599041E+01 -0.15456093168E+02  0.17776844690E+02  0.00000000000E+00 0. -1.
</event>
<event>
 7    1  0.1427898E-010  0.4778727E+02  0.7816164E-02  0.1312668E+00
        -11   -1    0    0    0    0  0.00000000000E+00  0.00000000000E+00  0.45593999997E+02  0.45594000000E+02  0.51100000000E-03 0.  1.
         11   -1    0    0    0    0 -0.00000000000E+00 -0.00000000000E+00 -0.45593999997E+02  0.45594000000E+02  0.51100000000E-03 0. -1.
    9900012    2    1    2    0    0  0.23088290474E+02 -0.36089715741E+02  0.69344456597E+01  0.47787271021E+02  0.19999999895E+02 0.  0.
        -12    1    1    2    0    0 -0.23088290474E+02  0.36089715741E+02 -0.69344456597E+01  0.43400728979E+02  0.00000000000E+00 0.  1.
         11    1    3    3    0    0  0.11766405445E+02 -0.29822136522E+02  0.52120949972E+01  0.32480364197E+02  0.51100000000E-03 0. -1.
        -11    1    3    3    0    0  0.10380585632E+02 -0.57254743364E+01  0.42197707937E+01  0.12583484424E+02  0.51100000000E-03 0.  1.
        -12    1    3    3    0    0  0.94129939793E+00 -0.54210488187E+00 -0.24974201312E+01  0.27234224004E+01  0.00000000000E+00 0.  1.
</event>
<event>
 7    1  0.1427898E-010  0.4778727E+02  0.7816164E-02  0.1312668E+00
        -11   -1    0    0    0    0  0.00000000000E+00  0.00000000000E+00  0.45593999997E+02  0.45594000000E+02  0.51100000000E-03 0.  1.
         11   -1    0    0    0    0 -0.00000000000E+00 -0.00000000000E+00 -0.45593999997E+02  0.45594000000E+02  0.51100000000E-03 0. -1.
    9900012    2    1    2    0    0 -0.30086977059E+02  0.30888909156E+02  0.49266793977E+01  0.47787273424E+02  0.20000010851E+02 0.  0.
        -12    1    1    2    0    0  0.30086977059E+02 -0.30888909156E+02 -0.49266793977E+01  0.43400726576E+02  0.00000000000E+00 0.  1.
         11    1    3    3    0    0 -0.42358187811E+01  0.74556975285E+00  0.22148073828E+01  0.48377067921E+01  0.51100000000E-03 0. -1.
        -11    1    3    3    0    0 -0.75921732300E+01  0.17294705632E+02  0.71323230275E+01  0.20189550993E+02  0.51100000000E-03 0.  1.
         12    1    3    3    0    0 -0.18258985048E+02  0.12848633771E+02 -0.44204510126E+01  0.22760015640E+02  0.00000000000E+00 0. -1.
</event>
<event>
 7    1  0.1427898E-010  0.4778727E+02  0.7816164E-02  0.1312668E+00
        -11   -1    0    0    0    0  0.00000000000E+00  0.00000000000E+00  0.45593999997E+02  0.45594000000E+02  0.51100000000E-03 0.  1.
         11   -1    0    0    0    0 -0.00000000000E+00 -0.00000000000E+00 -0.45593999997E+02  0.45594000000E+02  0.51100000000E-03 0. -1.
    9900012    2    1    2    0    0  0.37678789883E+02  0.86374593088E+00 -0.21521755917E+02  0.47787271413E+02  0.20000001681E+02 0.  0.
        -12    1    1    2    0    0 -0.37678789883E+02 -0.86374593088E+00  0.21521755917E+02  0.43400728587E+02  0.00000000000E+00 0.  1.
         11    1    3    3    0    0  0.96786060759E+01  0.81347231860E+01 -0.10803122144E+02  0.16629990535E+02  0.51100000000E-03 0. -1.
        -11    1    3    3    0    0  0.14035125785E+02 -0.48628492328E+01 -0.35313521302E+01  0.15267694869E+02  0.51100000000E-03 0.  1.
        -12    1    3    3    0    0  0.13965058022E+02 -0.24081280223E+01 -0.71872816431E+01  0.15889586009E+02  0.00000000000E+00 0.  1.
</event>
<event>
 7    1  0.1624761E-010  0.4778727E+02  0.7816164E-02  0.1312668E+00
        -11   -1    0    0    0    0  0.00000000000E+00  0.00000000000E+00  0.45593999997E+02  0.45594000000E+02  0.51100000000E-03 0. -1.
         11   -1    0    0    0    0 -0.00000000000E+00 -0.00000000000E+00 -0.45593999997E+02  0.45594000000E+02  0.51100000000E-03 0.  1.
    9900012    2    1    2    0    0  0.42472095196E+02  0.88771050534E+01  0.97023849950E+00  0.47787271582E+02  0.20000002449E+02 0.  0.
        -12    1    1    2    0    0 -0.42472095196E+02 -0.88771050534E+01 -0.97023849950E+00  0.43400728418E+02  0.00000000000E+00 0.  1.
         11    1    3    3    0    0  0.28512414005E+02  0.91863423026E+01  0.65222712440E+00  0.29962844287E+02  0.51100000000E-03 0. -1.
        -11    1    3    3    0    0  0.23726992620E+01  0.28534966738E+01  0.38075481708E+01  0.53169134269E+01  0.51100000000E-03 0.  1.
        -12    1    3    3    0    0  0.11586981930E+02 -0.31627339230E+01 -0.34895367957E+01  0.12507513868E+02  0.00000000000E+00 0.  1.
</event>
<event>
 7    1  0.1427898E-010  0.4778728E+02  0.7816164E-02  0.1312668E+00
        -11   -1    0    0    0    0  0.00000000000E+00  0.00000000000E+00  0.45593999997E+02  0.45594000000E+02  0.51100000000E-03 0.  1.
         11   -1    0    0    0    0 -0.00000000000E+00 -0.00000000000E+00 -0.45593999997E+02  0.45594000000E+02  0.51100000000E-03 0. -1.
    9900012    2    1    2    0    0  0.24825144714E+02  0.16027121722E+02 -0.31787834774E+02  0.47787275578E+02  0.20000020669E+02 0.  0.
        -12    1    1    2    0    0 -0.24825144714E+02 -0.16027121722E+02  0.31787834774E+02  0.43400724422E+02  0.00000000000E+00 0.  1.
         11    1    3    3    0    0  0.48886802634E+01 -0.13685501171E+01 -0.32554025090E+01  0.60307354359E+01  0.51100000000E-03 0. -1.
        -11    1    3    3    0    0  0.26669191157E+01  0.76420167424E+01 -0.16963241503E+02  0.18795330272E+02  0.51100000000E-03 0.  1.
         12    1    3    3    0    0  0.17269545335E+02  0.97536550969E+01 -0.11569190762E+02  0.22961209870E+02  0.00000000000E+00 0. -1.
</event>
<event>
 7    1  0.1478546E-010  0.4778728E+02  0.7816164E-02  0.1312668E+00
        -11   -1    0    0    0    0  0.00000000000E+00  0.00000000000E+00  0.45593999997E+02  0.45594000000E+02  0.51100000000E-03 0.  1.
         11   -1    0    0    0    0 -0.00000000000E+00 -0.00000000000E+00 -0.45593999997E+02  0.45594000000E+02  0.51100000000E-03 0. -1.
    9900012    2    1    2    0    0  0.72377569660E+01 -0.40875025213E+02 -0.12667668047E+02  0.47787278511E+02  0.20000034042E+02 0.  0.
        -12    1    1    2    0    0 -0.72377569660E+01  0.40875025213E+02  0.12667668047E+02  0.43400721489E+02  0.00000000000E+00 0.  1.
         11    1    3    3    0    0  0.80984290839E+01 -0.21832825003E+02 -0.10403935869E+02  0.25504875672E+02  0.51100000000E-03 0. -1.
        -11    1    3    3    0    0 -0.25107798428E+01 -0.19871367263E+02 -0.30773700557E+01  0.20264388938E+02  0.51100000000E-03 0.  1.
        -12    1    3    3    0    0  0.16501077249E+01  0.82916705337E+00  0.81363787752E+00  0.20180139003E+01  0.00000000000E+00 0.  1.
</event>
<event>
 7    1  0.1427898E-010  0.4778727E+02  0.7816164E-02  0.1312668E+00
        -11   -1    0    0    0    0  0.00000000000E+00  0.00000000000E+00  0.45593999997E+02  0.45594000000E+02  0.51100000000E-03 0. -1.
         11   -1    0    0    0    0 -0.00000000000E+00 -0.00000000000E+00 -0.45593999997E+02  0.45594000000E+02  0.51100000000E-03 0.  1.
    9900012    2    1    2    0    0 -0.24323271616E+02  0.35608763721E+02 -0.49007703454E+01  0.47787272520E+02  0.20000006729E+02 0.  0.
        -12    1    1    2    0    0  0.24323271616E+02 -0.35608763721E+02  0.49007703454E+01  0.43400727480E+02  0.00000000000E+00 0.  1.
         11    1    3    3    0    0 -0.67338634889E+01  0.63511690337E+01  0.77017823891E+00  0.92884573726E+01  0.51100000000E-03 0. -1.
        -11    1    3    3    0    0 -0.25741341669E+01  0.18840082657E+02 -0.67857745035E+01  0.20189641332E+02  0.51100000000E-03 0.  1.
        -12    1    3    3    0    0 -0.15015273960E+02  0.10417512030E+02  0.11148259192E+01  0.18309173815E+02  0.00000000000E+00 0.  1.
</event>
<event>
 7    1  0.1427898E-010  0.4778724E+02  0.7816164E-02  0.1312668E+00
        -11   -1    0    0    0    0  0.00000000000E+00  0.00000000000E+00  0.45593999997E+02  0.45594000000E+02  0.51100000000E-03 0.  1.
         11   -1    0    0    0    0 -0.00000000000E+00 -0.00000000000E+00 -0.45593999997E+02  0.45594000000E+02  0.51100000000E-03 0. -1.
    9900012    2    1    2    0    0 -0.74904787278E+01 -0.18210282569E+02 -0.38676921053E+02  0.47787240964E+02  0.19999862849E+02 0.  0.
        -12    1    1    2    0    0  0.74904787278E+01  0.18210282569E+02  0.38676921053E+02  0.43400759036E+02  0.00000000000E+00 0.  1.
         11    1    3    3    0    0  0.13617194959E+01  0.17951324025E+01 -0.10126642581E+01  0.24702772089E+01  0.51100000000E-03 0. -1.
        -11    1    3    3    0    0 -0.78304211303E+00 -0.14484527177E+02 -0.16287860951E+02  0.21810756454E+02  0.51100000000E-03 0.  1.
         12    1    3    3    0    0 -0.80691561107E+01 -0.55208877946E+01 -0.21376395844E+02  0.23506207300E+02  0.00000000000E+00 0. -1.
</event>
<event>
 7    1  0.1427898E-010  0.4778727E+02  0.7816164E-02  0.1312668E+00
        -11   -1    0    0    0    0  0.00000000000E+00  0.00000000000E+00  0.45593999997E+02  0.45594000000E+02  0.51100000000E-03 0. -1.
         11   -1    0    0    0    0 -0.00000000000E+00 -0.00000000000E+00 -0.45593999997E+02  0.45594000000E+02  0.51100000000E-03 0.  1.
    9900012    2    1    2    0    0 -0.37482810919E+02  0.37634547327E+01  0.21552225326E+02  0.47787272789E+02  0.20000007955E+02 0.  0.
        -12    1    1    2    0    0  0.37482810919E+02 -0.37634547327E+01 -0.21552225326E+02  0.43400727211E+02  0.00000000000E+00 0.  1.
         11    1    3    3    0    0 -0.26824744658E+02  0.31919991836E+01  0.12400801290E+02  0.29724327708E+02  0.51100000000E-03 0. -1.
        -11    1    3    3    0    0 -0.49356761177E+01 -0.52949855236E+01  0.30941904359E+01  0.78722160253E+01  0.51100000000E-03 0.  1.
         12    1    3    3    0    0 -0.57223901428E+01  0.58664410727E+01  0.60572336001E+01  0.10190729056E+02  0.00000000000E+00 0. -1.
</event>
<event>
 7    1  0.1427898E-010  0.4778728E+02  0.7816164E-02  0.1312668E+00
        -11   -1    0    0    0    0  0.00000000000E+00  0.00000000000E+00  0.45593999997E+02  0.45594000000E+02  0.51100000000E-03 0.  1.
         11   -1    0    0    0    0 -0.00000000000E+00 -0.00000000000E+00 -0.45593999997E+02  0.45594000000E+02  0.51100000000E-03 0. -1.
    9900012    2    1    2    0    0  0.35083327280E+01 -0.16934031964E+02 -0.39806441746E+02  0.47787278329E+02  0.20000033212E+02 0.  0.
        -12    1    1    2    0    0 -0.35083327280E+01  0.16934031964E+02  0.39806441746E+02  0.43400721671E+02  0.00000000000E+00 0.  1.
         11    1    3    3    0    0  0.33937484939E+01 -0.46591589291E+01 -0.54263454752E+01  0.79164711989E+01  0.51100000000E-03 0.  1.
        -11    1    3    3    0    0 -0.69631812965E+01 -0.12772227704E+01 -0.13189729885E+02  0.14969507891E+02  0.51100000000E-03 0. -1.
         12    1    3    3    0    0  0.70777655306E+01 -0.10997650265E+02 -0.21190366386E+02  0.24901299239E+02  0.00000000000E+00 0. -1.
</event>
<event>
 7    1  0.1427898E-010  0.4778728E+02  0.7816164E-02  0.1312668E+00
        -11   -1    0    0    0    0  0.00000000000E+00  0.00000000000E+00  0.45593999997E+02  0.45594000000E+02  0.51100000000E-03 0. -1.
         11   -1    0    0    0    0 -0.00000000000E+00 -0.00000000000E+00 -0.45593999997E+02  0.45594000000E+02  0.51100000000E-03 0.  1.
    9900012    2    1    2    0    0 -0.34331748562E+01 -0.19313415408E+02  0.38714700757E+02  0.47787276976E+02  0.20000027044E+02 0.  0.
        -12    1    1    2    0    0  0.34331748562E+01  0.19313415408E+02 -0.38714700757E+02  0.43400723024E+02  0.00000000000E+00 0.  1.
         11    1    3    3    0    0  0.47835608713E+01 -0.97087436434E+01  0.64201451462E+01  0.12584133729E+02  0.51100000000E-03 0. -1.
        -11    1    3    3    0    0 -0.53863035837E+01 -0.53565045391E+01  0.11436075168E+02  0.13729101306E+02  0.51100000000E-03 0.  1.
         12    1    3    3    0    0 -0.28304321439E+01 -0.42481672253E+01  0.20858480443E+02  0.21474041941E+02  0.00000000000E+00 0. -1.
</event>
<event>
 7    1  0.1427898E-010  0.4778727E+02  0.7816164E-02  0.1312668E+00
        -11   -1    0    0    0    0  0.00000000000E+00  0.00000000000E+00  0.45593999997E+02  0.45594000000E+02  0.51100000000E-03 0. -1.
         11   -1    0    0    0    0 -0.00000000000E+00 -0.00000000000E+00 -0.45593999997E+02  0.45594000000E+02  0.51100000000E-03 0.  1.
    9900012    2    1    2    0    0  0.16678266506E+02  0.44240478507E+00  0.40065731148E+02  0.47787272954E+02  0.20000008709E+02 0.  0.
        -12    1    1    2    0    0 -0.16678266506E+02 -0.44240478507E+00 -0.40065731148E+02  0.43400727046E+02  0.00000000000E+00 0.  1.
         11    1    3    3    0    0  0.12421377577E+02 -0.25344391074E+01  0.95313778687E+01  0.15860679898E+02  0.51100000000E-03 0.  1.
        -11    1    3    3    0    0  0.35832098738E+01  0.46384909863E+00  0.45394857163E+01  0.58018514128E+01  0.51100000000E-03 0. -1.
         12    1    3    3    0    0  0.67367905518E+00  0.25129947938E+01  0.25994867563E+02  0.26124741643E+02  0.00000000000E+00 0. -1.
</event>
<event>
 7    1  0.1427898E-010  0.4778727E+02  0.7816164E-02  0.1312668E+00
        -11   -1    0    0    0    0  0.00000000000E+00  0.00000000000E+00  0.45593999997E+02  0.45594000000E+02  0.51100000000E-03 0.  1.
         11   -1    0    0    0    0 -0.00000000000E+00 -0.00000000000E+00 -0.45593999997E+02  0.45594000000E+02  0.51100000000E-03 0. -1.
    9900012    2    1    2    0    0 -0.16810397890E+02 -0.27595910653E+02 -0.28974119066E+02  0.47787270310E+02  0.19999996651E+02 0.  0.
        -12    1    1    2    0    0  0.16810397890E+02  0.27595910653E+02  0.28974119066E+02  0.43400729690E+02  0.00000000000E+00 0.  1.
         11    1    3    3    0    0 -0.13789560656E+02 -0.11430732577E+02 -0.22271849384E+02  0.28580568672E+02  0.51100000000E-03 0. -1.
        -11    1    3    3    0    0  0.23006745271E+00 -0.75073462576E-01  0.10324754311E+01  0.10604587849E+01  0.51100000000E-03 0.  1.
        -12    1    3    3    0    0 -0.32509046868E+01 -0.16090104613E+02 -0.77347451128E+01  0.18146242853E+02  0.00000000000E+00 0.  1.
</event>
<event>
 7    1  0.1427898E-010  0.4778727E+02  0.7816164E-02  0.1312668E+00
        -11   -1    0    0    0    0  0.00000000000E+00  0.00000000000E+00  0.45593999997E+02  0.45594000000E+02  0.51100000000E-03 0.  1.
         11   -1    0    0    0    0 -0.00000000000E+00 -0.00000000000E+00 -0.45593999997E+02  0.45594000000E+02  0.51100000000E-03 0. -1.
    9900012    2    1    2    0    0 -0.75672959859E+01 -0.32516231556E+02 -0.27731821971E+02  0.47787271516E+02  0.20000002149E+02 0.  0.
        -12    1    1    2    0    0  0.75672959859E+01  0.32516231556E+02  0.27731821971E+02  0.43400728484E+02  0.00000000000E+00 0.  1.
         11    1    3    3    0    0 -0.84491869223E+01 -0.22499417708E+02 -0.22757029536E+02  0.33098262045E+02  0.51100000000E-03 0. -1.
        -11    1    3    3    0    0 -0.13491141726E+01 -0.10584700147E+02 -0.59174776278E+01  0.12201333041E+02  0.51100000000E-03 0.  1.
        -12    1    3    3    0    0  0.22310051091E+01  0.56788629855E+00  0.94268519278E+00  0.24876764294E+01  0.00000000000E+00 0.  1.
</event>
<event>
 7    1  0.1427898E-010  0.4778727E+02  0.7816164E-02  0.1312668E+00
        -11   -1    0    0    0    0  0.00000000000E+00  0.00000000000E+00  0.45593999997E+02  0.45594000000E+02  0.51100000000E-03 0. -1.
         11   -1    0    0    0    0 -0.00000000000E+00 -0.00000000000E+00 -0.45593999997E+02  0.45594000000E+02  0.51100000000E-03 0.  1.
    9900012    2    1    2    0    0 -0.18762239215E+02 -0.23037793714E+02  0.31636399130E+02  0.47787270634E+02  0.19999998127E+02 0.  0.
        -12    1    1    2    0    0  0.18762239215E+02  0.23037793714E+02 -0.31636399130E+02  0.43400729366E+02  0.00000000000E+00 0.  1.
         11    1    3    3    0    0 -0.18903797646E+02 -0.15004341918E+02  0.14933186942E+02  0.28381048507E+02  0.51100000000E-03 0.  1.
        -11    1    3    3    0    0 -0.22638681200E+01 -0.65700205328E+01  0.10465994096E+02  0.12562933628E+02  0.51100000000E-03 0. -1.
         12    1    3    3    0    0  0.24054265504E+01 -0.14634312633E+01  0.62372180916E+01  0.68432884985E+01  0.00000000000E+00 0. -1.
</event>
<event>
 7    1  0.1427898E-010  0.4778727E+02  0.7816164E-02  0.1312668E+00
        -11   -1    0    0    0    0  0.00000000000E+00  0.00000000000E+00  0.45593999997E+02  0.45594000000E+02  0.51100000000E-03 0.  1.
         11   -1    0    0    0    0 -0.00000000000E+00 -0.00000000000E+00 -0.45593999997E+02  0.45594000000E+02  0.51100000000E-03 0. -1.
    9900012    2    1    2    0    0 -0.62153877089E+01 -0.13545411434E+02 -0.40761672442E+02  0.47787272407E+02  0.20000006214E+02 0.  0.
        -12    1    1    2    0    0  0.62153877089E+01  0.13545411434E+02  0.40761672442E+02  0.43400727593E+02  0.00000000000E+00 0.  1.
         11    1    3    3    0    0 -0.30967323641E+01 -0.68035973399E+01 -0.10764942265E+02  0.13105825816E+02  0.51100000000E-03 0. -1.
        -11    1    3    3    0    0 -0.62529889676E+01 -0.10010517661E+02 -0.15427893891E+02  0.19424990220E+02  0.51100000000E-03 0.  1.
        -12    1    3    3    0    0  0.31343336228E+01  0.32687035672E+01 -0.14568836286E+02  0.15256456371E+02  0.00000000000E+00 0.  1.
</event>
<event>
 7    1  0.1427898E-010  0.4778728E+02  0.7816164E-02  0.1312668E+00
        -11   -1    0    0    0    0  0.00000000000E+00  0.00000000000E+00  0.45593999997E+02  0.45594000000E+02  0.51100000000E-03 0. -1.
         11   -1    0    0    0    0 -0.00000000000E+00 -0.00000000000E+00 -0.45593999997E+02  0.45594000000E+02  0.51100000000E-03 0.  1.
    9900012    2    1    2    0    0  0.32054107492E+02  0.67707077408E+01  0.28466019588E+02  0.47787279250E+02  0.20000037413E+02 0.  0.
        -12    1    1    2    0    0 -0.32054107492E+02 -0.67707077408E+01 -0.28466019588E+02  0.43400720750E+02  0.00000000000E+00 0.  1.
         11    1    3    3    0    0  0.46274440841E+00  0.28638649975E+01  0.12753682403E+01  0.31689776776E+01  0.51100000000E-03 0. -1.
        -11    1    3    3    0    0  0.50620240962E+01  0.17990901860E+01  0.13836396353E+02  0.14842731479E+02  0.51100000000E-03 0.  1.
         12    1    3    3    0    0  0.26529338987E+02  0.21077525573E+01  0.13354254994E+02  0.29775570094E+02  0.00000000000E+00 0. -1.
</event>
<event>
 7    1  0.1427898E-010  0.4778727E+02  0.7816164E-02  0.1312668E+00
        -11   -1    0    0    0    0  0.00000000000E+00  0.00000000000E+00  0.45593999997E+02  0.45594000000E+02  0.51100000000E-03 0.  1.
         11   -1    0    0    0    0 -0.00000000000E+00 -0.00000000000E+00 -0.45593999997E+02  0.45594000000E+02  0.51100000000E-03 0. -1.
    9900012    2    1    2    0    0 -0.67042544276E+01  0.19971122424E+01 -0.42833256963E+02  0.47787269743E+02  0.19999994068E+02 0.  0.
        -12    1    1    2    0    0  0.67042544276E+01 -0.19971122424E+01  0.42833256963E+02  0.43400730257E+02  0.00000000000E+00 0.  1.
         11    1    3    3    0    0 -0.94275816549E+01 -0.54271034650E+01 -0.21981320045E+02  0.24525724843E+02  0.51100000000E-03 0. -1.
        -11    1    3    3    0    0 -0.16385220202E+01  0.40368833754E+01 -0.59912890559E+01  0.74078827346E+01  0.51100000000E-03 0.  1.
        -12    1    3    3    0    0  0.43618492474E+01  0.33873323320E+01 -0.14860647862E+02  0.15853662166E+02  0.00000000000E+00 0.  1.
</event>
<event>
 7    1  0.1427898E-010  0.4778727E+02  0.7816164E-02  0.1312668E+00
        -11   -1    0    0    0    0  0.00000000000E+00  0.00000000000E+00  0.45593999997E+02  0.45594000000E+02  0.51100000000E-03 0.  1.
         11   -1    0    0    0    0 -0.00000000000E+00 -0.00000000000E+00 -0.45593999997E+02  0.45594000000E+02  0.51100000000E-03 0. -1.
    9900012    2    1    2    0    0 -0.34029464204E+02 -0.20492576196E+02 -0.17483513839E+02  0.47787269945E+02  0.19999994989E+02 0.  0.
        -12    1    1    2    0    0  0.34029464204E+02  0.20492576196E+02  0.17483513839E+02  0.43400730055E+02  0.00000000000E+00 0.  1.
         11    1    3    3    0    0 -0.14649834969E+02 -0.54420028904E+01 -0.65511668158E+01  0.16945525869E+02  0.51100000000E-03 0. -1.
        -11    1    3    3    0    0 -0.12449212927E+02 -0.16700061861E+02 -0.46478140088E+01  0.21341910504E+02  0.51100000000E-03 0.  1.
        -12    1    3    3    0    0 -0.69304163082E+01  0.16494885550E+01 -0.62845330141E+01  0.94998335724E+01  0.00000000000E+00 0.  1.
</event>
<event>
 7    1  0.1427898E-010  0.4778728E+02  0.7816164E-02  0.1312668E+00
        -11   -1    0    0    0    0  0.00000000000E+00  0.00000000000E+00  0.45593999997E+02  0.45594000000E+02  0.51100000000E-03 0.  1.
         11   -1    0    0    0    0 -0.00000000000E+00 -0.00000000000E+00 -0.45593999997E+02  0.45594000000E+02  0.51100000000E-03 0. -1.
    9900012    2    1    2    0    0  0.32834681741E+02 -0.57093671988E+01 -0.27801252295E+02  0.47787276181E+02  0.20000023419E+02 0.  0.
        -12    1    1    2    0    0 -0.32834681741E+02  0.57093671988E+01  0.27801252295E+02  0.43400723819E+02  0.00000000000E+00 0.  1.
         11    1    3    3    0    0 -0.15732555268E+01 -0.32209344818E+01 -0.19534931551E+01  0.40823629992E+01  0.51100000000E-03 0. -1.
        -11    1    3    3    0    0  0.16396481736E+02 -0.54116091498E+00 -0.79186795343E+01  0.18216557147E+02  0.51100000000E-03 0.  1.
        -12    1    3    3    0    0  0.18011455532E+02 -0.19472718019E+01 -0.17929079606E+02  0.25488356035E+02  0.00000000000E+00 0.  1.
</event>
<event>
 7    1  0.1427898E-010  0.4778728E+02  0.7816164E-02  0.1312668E+00
        -11   -1    0    0    0    0  0.00000000000E+00  0.00000000000E+00  0.45593999997E+02  0.45594000000E+02  0.51100000000E-03 0.  1.
         11   -1    0    0    0    0 -0.00000000000E+00 -0.00000000000E+00 -0.45593999997E+02  0.45594000000E+02  0.51100000000E-03 0. -1.
    9900012    2    1    2    0    0  0.14717785755E+02 -0.31279822023E+02 -0.26240847753E+02  0.47787279106E+02  0.20000036756E+02 0.  0.
        -12    1    1    2    0    0 -0.14717785755E+02  0.31279822023E+02  0.26240847753E+02  0.43400720894E+02  0.00000000000E+00 0.  1.
         11    1    3    3    0    0  0.37221233899E+01 -0.85901009853E+01 -0.16401364186E+02  0.18885147203E+02  0.51100000000E-03 0. -1.
        -11    1    3    3    0    0  0.12941196319E+01  0.92045994493E+00 -0.10576362250E+01  0.19080321741E+01  0.51100000000E-03 0.  1.
        -12    1    3    3    0    0  0.97015427331E+01 -0.23610180983E+02 -0.87818473425E+01  0.26994099729E+02  0.00000000000E+00 0.  1.
</event>
<event>
 7    1  0.1427898E-010  0.4778728E+02  0.7816164E-02  0.1312668E+00
        -11   -1    0    0    0    0  0.00000000000E+00  0.00000000000E+00  0.45593999997E+02  0.45594000000E+02  0.51100000000E-03 0.  1.
         11   -1    0    0    0    0 -0.00000000000E+00 -0.00000000000E+00 -0.45593999997E+02  0.45594000000E+02  0.51100000000E-03 0. -1.
    9900012    2    1    2    0    0  0.20776977402E+02  0.17974288661E+02 -0.33598585741E+02  0.47787276427E+02  0.20000024541E+02 0.  0.
        -12    1    1    2    0    0 -0.20776977402E+02 -0.17974288661E+02  0.33598585741E+02  0.43400723573E+02  0.00000000000E+00 0.  1.
         11    1    3    3    0    0  0.13250925098E+02  0.84316930485E+01 -0.10788305929E+02  0.19054343565E+02  0.51100000000E-03 0. -1.
        -11    1    3    3    0    0  0.58210814264E+01 -0.97681023153E+00 -0.12874051338E+02  0.14162639066E+02  0.51100000000E-03 0.  1.
        -12    1    3    3    0    0  0.17049708779E+01  0.10519405844E+02 -0.99362284741E+01  0.14570293796E+02  0.00000000000E+00 0.  1.
</event>
<event>
 7    1  0.1427898E-010  0.4778727E+02  0.7816164E-02  0.1312668E+00
        -11   -1    0    0    0    0  0.00000000000E+00  0.00000000000E+00  0.45593999997E+02  0.45594000000E+02  0.51100000000E-03 0. -1.
         11   -1    0    0    0    0 -0.00000000000E+00 -0.00000000000E+00 -0.45593999997E+02  0.45594000000E+02  0.51100000000E-03 0.  1.
    9900012    2    1    2    0    0  0.23071700936E+01 -0.28221106745E+02  0.32891786234E+02  0.47787268423E+02  0.19999988049E+02 0.  0.
        -12    1    1    2    0    0 -0.23071700936E+01  0.28221106745E+02 -0.32891786234E+02  0.43400731577E+02  0.00000000000E+00 0.  1.
         11    1    3    3    0    0 -0.42592872630E+01 -0.17313036036E+02  0.25037074166E+02  0.30736587771E+02  0.51100000000E-03 0. -1.
        -11    1    3    3    0    0 -0.18643980331E+00 -0.50458332793E+01 -0.14625212070E+00  0.50513941864E+01  0.51100000000E-03 0.  1.
        -12    1    3    3    0    0  0.67528971599E+01 -0.58622374298E+01  0.80009641883E+01  0.11999286465E+02  0.00000000000E+00 0.  1.
</event>
<event>
 7    1  0.1427898E-010  0.4778727E+02  0.7816164E-02  0.1312668E+00
        -11   -1    0    0    0    0  0.00000000000E+00  0.00000000000E+00  0.45593999997E+02  0.45594000000E+02  0.51100000000E-03 0.  1.
         11   -1    0    0    0    0 -0.00000000000E+00 -0.00000000000E+00 -0.45593999997E+02  0.45594000000E+02  0.51100000000E-03 0. -1.
    9900012    2    1    2    0    0  0.38414076405E+02  0.27635664913E+01 -0.20008615820E+02  0.47787271056E+02  0.20000000054E+02 0.  0.
        -12    1    1    2    0    0 -0.38414076405E+02 -0.27635664913E+01  0.20008615820E+02  0.43400728944E+02  0.00000000000E+00 0.  1.
         11    1    3    3    0    0  0.17361516058E+02  0.76896047889E+01 -0.15313708213E+02  0.24393891062E+02  0.51100000000E-03 0. -1.
        -11    1    3    3    0    0  0.64481480741E+01 -0.44415537284E+01  0.59620919543E+00  0.78524823320E+01  0.51100000000E-03 0.  1.
         12    1    3    3    0    0  0.14604412273E+02 -0.48448456918E+00 -0.52911168025E+01  0.15540897662E+02  0.00000000000E+00 0. -1.
</event>
<event>
 7    1  0.1427898E-010  0.4778727E+02  0.7816164E-02  0.1312668E+00
        -11   -1    0    0    0    0  0.00000000000E+00  0.00000000000E+00  0.45593999997E+02  0.45594000000E+02  0.51100000000E-03 0. -1.
         11   -1    0    0    0    0 -0.00000000000E+00 -0.00000000000E+00 -0.45593999997E+02  0.45594000000E+02  0.51100000000E-03 0.  1.
    9900012    2    1    2    0    0 -0.37318854234E+02 -0.88314135501E+01 -0.20320734519E+02  0.47787274223E+02  0.20000014490E+02 0.  0.
        -12    1    1    2    0    0  0.37318854234E+02  0.88314135501E+01  0.20320734519E+02  0.43400725777E+02  0.00000000000E+00 0.  1.
         11    1    3    3    0    0  0.10346899988E+01  0.78699155546E+00 -0.21348770560E+01  0.24995278369E+01  0.51100000000E-03 0. -1.
        -11    1    3    3    0    0 -0.67305404546E+01  0.21630079302E+01 -0.64184684966E+01  0.95485871322E+01  0.51100000000E-03 0.  1.
         12    1    3    3    0    0 -0.31623003778E+02 -0.11781413036E+02 -0.11767388966E+02  0.35739159254E+02  0.00000000000E+00 0. -1.
</event>
<event>
 7    1  0.1427898E-010  0.4778727E+02  0.7816164E-02  0.1312668E+00
        -11   -1    0    0    0    0  0.00000000000E+00  0.00000000000E+00  0.45593999997E+02  0.45594000000E+02  0.51100000000E-03 0.  1.
         11   -1    0    0    0    0 -0.00000000000E+00 -0.00000000000E+00 -0.45593999997E+02  0.45594000000E+02  0.51100000000E-03 0. -1.
    9900012    2    1    2    0    0  0.29716154634E+02  0.15596824021E+02 -0.27519315603E+02  0.47787268473E+02  0.19999988277E+02 0.  0.
        -12    1    1    2    0    0 -0.29716154634E+02 -0.15596824021E+02  0.27519315603E+02  0.43400731527E+02  0.00000000000E+00 0.  1.
         11    1    3    3    0    0  0.52647217715E+01  0.11970609132E+02 -0.71863535752E+01  0.14921677396E+02  0.51100000000E-03 0. -1.
        -11    1    3    3    0    0  0.12495871206E+02  0.21489868280E+01 -0.56715988850E+01  0.13889995527E+02  0.51100000000E-03 0.  1.
        -12    1    3    3    0    0  0.11955561657E+02  0.14772280609E+01 -0.14661363143E+02  0.18975595550E+02  0.00000000000E+00 0.  1.
</event>
<event>
 7    1  0.1427898E-010  0.4778728E+02  0.7816164E-02  0.1312668E+00
        -11   -1    0    0    0    0  0.00000000000E+00  0.00000000000E+00  0.45593999997E+02  0.45594000000E+02  0.51100000000E-03 0.  1.
         11   -1    0    0    0    0 -0.00000000000E+00 -0.00000000000E+00 -0.45593999997E+02  0.45594000000E+02  0.51100000000E-03 0. -1.
    9900012    2    1    2    0    0  0.62553068032E+01  0.21450393171E+02 -0.37207185410E+02  0.47787275622E+02  0.20000020871E+02 0.  0.
        -12    1    1    2    0    0 -0.62553068032E+01 -0.21450393171E+02  0.37207185410E+02  0.43400724378E+02  0.00000000000E+00 0.  1.
         11    1    3    3    0    0  0.51466333712E+01  0.55143647734E+01 -0.26646222063E+02  0.27693270020E+02  0.51100000000E-03 0.  1.
        -11    1    3    3    0    0  0.22395551968E+01  0.10200081036E+02 -0.95688775936E+01  0.14164062951E+02  0.51100000000E-03 0. -1.
        -12    1    3    3    0    0 -0.11308817649E+01  0.57359473621E+01 -0.99208575392E+00  0.59299426515E+01  0.00000000000E+00 0.  1.
</event>
<event>
 7    1  0.1427898E-010  0.4778727E+02  0.7816164E-02  0.1312668E+00
        -11   -1    0    0    0    0  0.00000000000E+00  0.00000000000E+00  0.45593999997E+02  0.45594000000E+02  0.51100000000E-03 0. -1.
         11   -1    0    0    0    0 -0.00000000000E+00 -0.00000000000E+00 -0.45593999997E+02  0.45594000000E+02  0.51100000000E-03 0.  1.
    9900012    2    1    2    0    0  0.37734319520E+02 -0.18566350665E+02  0.10725423435E+02  0.47787274724E+02  0.20000016776E+02 0.  0.
        -12    1    1    2    0    0 -0.37734319520E+02  0.18566350665E+02 -0.10725423435E+02  0.43400725276E+02  0.00000000000E+00 0.  1.
         11    1    3    3    0    0  0.31319351313E+01 -0.43858132314E+01 -0.32421235032E+01  0.62893354528E+01  0.51100000000E-03 0. -1.
        -11    1    3    3    0    0  0.15041660136E+02 -0.48585097331E+00  0.36484369140E+01  0.15485434543E+02  0.51100000000E-03 0.  1.
         12    1    3    3    0    0  0.19560724253E+02 -0.13694686460E+02  0.10319110024E+02  0.26012504728E+02  0.00000000000E+00 0. -1.
</event>
<event>
 7    1  0.1427898E-010  0.4778725E+02  0.7816164E-02  0.1312668E+00
        -11   -1    0    0    0    0  0.00000000000E+00  0.00000000000E+00  0.45593999997E+02  0.45594000000E+02  0.51100000000E-03 0.  1.
         11   -1    0    0    0    0 -0.00000000000E+00 -0.00000000000E+00 -0.45593999997E+02  0.45594000000E+02  0.51100000000E-03 0. -1.
    9900012    2    1    2    0    0  0.39065524932E+02 -0.11175884543E+02 -0.15251537226E+02  0.47787250913E+02  0.19999908213E+02 0.  0.
        -12    1    1    2    0    0 -0.39065524932E+02  0.11175884543E+02  0.15251537226E+02  0.43400749087E+02  0.00000000000E+00 0.  1.
         11    1    3    3    0    0  0.59477112464E+01 -0.54166978856E+01  0.63956889954E+00  0.80700020875E+01  0.51100000000E-03 0.  1.
        -11    1    3    3    0    0  0.18972067201E+02  0.24578291409E+01 -0.41358147517E+01  0.19572562987E+02  0.51100000000E-03 0. -1.
         12    1    3    3    0    0  0.14145746485E+02 -0.82170157978E+01 -0.11755291374E+02  0.20144685838E+02  0.00000000000E+00 0. -1.
</event>
<event>
 7    1  0.1427898E-010  0.4778727E+02  0.7816164E-02  0.1312668E+00
        -11   -1    0    0    0    0  0.00000000000E+00  0.00000000000E+00  0.45593999997E+02  0.45594000000E+02  0.51100000000E-03 0. -1.
         11   -1    0    0    0    0 -0.00000000000E+00 -0.00000000000E+00 -0.45593999997E+02  0.45594000000E+02  0.51100000000E-03 0.  1.
    9900012    2    1    2    0    0  0.18322432041E+02 -0.22250621800E+02  0.32447207772E+02  0.47787274447E+02  0.20000015512E+02 0.  0.
        -12    1    1    2    0    0 -0.18322432041E+02  0.22250621800E+02 -0.32447207772E+02  0.43400725553E+02  0.00000000000E+00 0.  1.
         11    1    3    3    0    0  0.75078718528E+01 -0.12484668873E+02  0.11481892096E+02  0.18549095476E+02  0.51100000000E-03 0. -1.
        -11    1    3    3    0    0 -0.34334023914E+01 -0.31904605674E+01  0.47315461651E+01  0.66599414402E+01  0.51100000000E-03 0.  1.
         12    1    3    3    0    0  0.14247962579E+02 -0.65754923593E+01  0.16233769512E+02  0.22578237530E+02  0.00000000000E+00 0. -1.
</event>
<event>
 7    1  0.1427898E-010  0.4778727E+02  0.7816164E-02  0.1312668E+00
        -11   -1    0    0    0    0  0.00000000000E+00  0.00000000000E+00  0.45593999997E+02  0.45594000000E+02  0.51100000000E-03 0.  1.
         11   -1    0    0    0    0 -0.00000000000E+00 -0.00000000000E+00 -0.45593999997E+02  0.45594000000E+02  0.51100000000E-03 0. -1.
    9900012    2    1    2    0    0 -0.33158238713E+02 -0.89054286289E+01 -0.26548967736E+02  0.47787272570E+02  0.20000006954E+02 0.  0.
        -12    1    1    2    0    0  0.33158238713E+02  0.89054286289E+01  0.26548967736E+02  0.43400727430E+02  0.00000000000E+00 0.  1.
         11    1    3    3    0    0 -0.49379338786E+01  0.26600949452E+01 -0.11782731888E+01  0.57312846793E+01  0.51100000000E-03 0.  1.
        -11    1    3    3    0    0 -0.26439232472E+02 -0.57039304161E+01 -0.22938348510E+02  0.35464569200E+02  0.51100000000E-03 0. -1.
         12    1    3    3    0    0 -0.17810723625E+01 -0.58615931579E+01 -0.24323460373E+01  0.65914186905E+01  0.00000000000E+00 0. -1.
</event>
<event>
 7    1  0.1427898E-010  0.4778731E+02  0.7816164E-02  0.1312668E+00
        -11   -1    0    0    0    0  0.00000000000E+00  0.00000000000E+00  0.45593999997E+02  0.45594000000E+02  0.51100000000E-03 0. -1.
         11   -1    0    0    0    0 -0.00000000000E+00 -0.00000000000E+00 -0.45593999997E+02  0.45594000000E+02  0.51100000000E-03 0.  1.
    9900012    2    1    2    0    0 -0.13561945190E+02  0.20690037579E+02  0.35659724192E+02  0.47787309432E+02  0.20000175023E+02 0.  0.
        -12    1    1    2    0    0  0.13561945190E+02 -0.20690037579E+02 -0.35659724192E+02  0.43400690568E+02  0.00000000000E+00 0.  1.
         11    1    3    3    0    0 -0.60601428429E+01  0.21243676010E+02  0.31172948699E+02  0.38206960525E+02  0.51100000000E-03 0. -1.
        -11    1    3    3    0    0 -0.25982588568E+00 -0.11648026319E+01  0.73146872122E+00  0.13997576266E+01  0.51100000000E-03 0.  1.
         12    1    3    3    0    0 -0.72419764614E+01  0.61116420052E+00  0.37553067713E+01  0.81805912802E+01  0.00000000000E+00 0. -1.
</event>
<event>
 7    1  0.1427898E-010  0.4778724E+02  0.7816164E-02  0.1312668E+00
        -11   -1    0    0    0    0  0.00000000000E+00  0.00000000000E+00  0.45593999997E+02  0.45594000000E+02  0.51100000000E-03 0.  1.
         11   -1    0    0    0    0 -0.00000000000E+00 -0.00000000000E+00 -0.45593999997E+02  0.45594000000E+02  0.51100000000E-03 0. -1.
    9900012    2    1    2    0    0  0.26107657059E+02  0.12423402152E+02 -0.32367812149E+02  0.47787240313E+02  0.19999859880E+02 0.  0.
        -12    1    1    2    0    0 -0.26107657059E+02 -0.12423402152E+02  0.32367812149E+02  0.43400759687E+02  0.00000000000E+00 0.  1.
         11    1    3    3    0    0  0.75370634900E+00  0.16570823215E+01 -0.69308985033E+01  0.71659855851E+01  0.51100000000E-03 0. -1.
        -11    1    3    3    0    0  0.20467572897E+02  0.22958930013E+01 -0.11479275887E+02  0.23578940606E+02  0.51100000000E-03 0.  1.
        -12    1    3    3    0    0  0.48863778131E+01  0.84704268290E+01 -0.13957637759E+02  0.17042314122E+02  0.00000000000E+00 0.  1.
</event>
<event>
 7    1  0.1427898E-010  0.4778727E+02  0.7816164E-02  0.1312668E+00
        -11   -1    0    0    0    0  0.00000000000E+00  0.00000000000E+00  0.45593999997E+02  0.45594000000E+02  0.51100000000E-03 0.  1.
         11   -1    0    0    0    0 -0.00000000000E+00 -0.00000000000E+00 -0.45593999997E+02  0.45594000000E+02  0.51100000000E-03 0. -1.
    9900012    2    1    2    0    0  0.29700477966E+02 -0.73051838364E+01 -0.30791875167E+02  0.47787266382E+02  0.19999978741E+02 0.  0.
        -12    1    1    2    0    0 -0.29700477966E+02  0.73051838364E+01  0.30791875167E+02  0.43400733618E+02  0.00000000000E+00 0.  1.
         11    1    3    3    0    0  0.24867436329E+01 -0.23993212130E+01 -0.24779467481E+01  0.42521590429E+01  0.51100000000E-03 0. -1.
        -11    1    3    3    0    0  0.27543543030E+02 -0.86566496560E-01 -0.20447304864E+02  0.34303739342E+02  0.51100000000E-03 0.  1.
        -12    1    3    3    0    0 -0.32980869647E+00 -0.48192961269E+01 -0.78666235551E+01  0.92313679968E+01  0.00000000000E+00 0.  1.
</event>
<event>
 7    1  0.1427898E-010  0.4778727E+02  0.7816164E-02  0.1312668E+00
        -11   -1    0    0    0    0  0.00000000000E+00  0.00000000000E+00  0.45593999997E+02  0.45594000000E+02  0.51100000000E-03 0.  1.
         11   -1    0    0    0    0 -0.00000000000E+00 -0.00000000000E+00 -0.45593999997E+02  0.45594000000E+02  0.51100000000E-03 0. -1.
    9900012    2    1    2    0    0 -0.23201209609E+02 -0.26489534897E+02 -0.25369894283E+02  0.47787272790E+02  0.20000007961E+02 0.  0.
        -12    1    1    2    0    0  0.23201209609E+02  0.26489534897E+02  0.25369894283E+02  0.43400727210E+02  0.00000000000E+00 0.  1.
         11    1    3    3    0    0  0.14629766589E+01 -0.15448301676E+01 -0.36792684115E+00  0.21592061905E+01  0.51100000000E-03 0. -1.
        -11    1    3    3    0    0 -0.15662008872E+01 -0.11126880653E+02 -0.79734595140E+01  0.13778117258E+02  0.51100000000E-03 0.  1.
         12    1    3    3    0    0 -0.23097985381E+02 -0.13817824076E+02 -0.17028507928E+02  0.31849949342E+02  0.00000000000E+00 0. -1.
</event>
<event>
 7    1  0.1427898E-010  0.4778730E+02  0.7816164E-02  0.1312668E+00
        -11   -1    0    0    0    0  0.00000000000E+00  0.00000000000E+00  0.45593999997E+02  0.45594000000E+02  0.51100000000E-03 0.  1.
         11   -1    0    0    0    0 -0.00000000000E+00 -0.00000000000E+00 -0.45593999997E+02  0.45594000000E+02  0.51100000000E-03 0. -1.
    9900012    2    1    2    0    0 -0.63451240206E-01 -0.47402452644E+01 -0.43141008417E+02  0.47787302328E+02  0.20000142634E+02 0.  0.
        -12    1    1    2    0    0  0.63451240206E-01  0.47402452644E+01  0.43141008417E+02  0.43400697672E+02  0.00000000000E+00 0.  1.
         11    1    3    3    0    0  0.60431691930E-01  0.28757624386E+01 -0.12021102491E+02  0.12360443639E+02  0.51100000000E-03 0. -1.
        -11    1    3    3    0    0 -0.43844490853E+01 -0.10251449376E+02 -0.16024006021E+02  0.19521382567E+02  0.51100000000E-03 0.  1.
        -12    1    3    3    0    0  0.42605661532E+01  0.26354416728E+01 -0.15095899905E+02  0.15905476123E+02  0.00000000000E+00 0.  1.
</event>
<event>
 7    1  0.1427898E-010  0.4778727E+02  0.7816164E-02  0.1312668E+00
        -11   -1    0    0    0    0  0.00000000000E+00  0.00000000000E+00  0.45593999997E+02  0.45594000000E+02  0.51100000000E-03 0.  1.
         11   -1    0    0    0    0 -0.00000000000E+00 -0.00000000000E+00 -0.45593999997E+02  0.45594000000E+02  0.51100000000E-03 0. -1.
    9900012    2    1    2    0    0 -0.42819016165E+02  0.30841000030E+01 -0.63752070540E+01  0.47787273242E+02  0.20000010019E+02 0.  0.
        -12    1    1    2    0    0  0.42819016165E+02 -0.30841000030E+01  0.63752070540E+01  0.43400726758E+02  0.00000000000E+00 0.  1.
         11    1    3    3    0    0 -0.82942857728E+01 -0.53737476044E+01 -0.55934181553E+01  0.11355996950E+02  0.51100000000E-03 0. -1.
        -11    1    3    3    0    0 -0.19354303545E+02  0.12727939904E+01  0.16673147221E+01  0.19467640044E+02  0.51100000000E-03 0.  1.
        -12    1    3    3    0    0 -0.15170426847E+02  0.71850536170E+01 -0.24491036208E+01  0.16963636248E+02  0.00000000000E+00 0.  1.
</event>
<event>
 7    1  0.1427898E-010  0.4778726E+02  0.7816164E-02  0.1312668E+00
        -11   -1    0    0    0    0  0.00000000000E+00  0.00000000000E+00  0.45593999997E+02  0.45594000000E+02  0.51100000000E-03 0.  1.
         11   -1    0    0    0    0 -0.00000000000E+00 -0.00000000000E+00 -0.45593999997E+02  0.45594000000E+02  0.51100000000E-03 0. -1.
    9900012    2    1    2    0    0  0.32740381451E+02 -0.43099738814E+01 -0.28162307581E+02  0.47787262441E+02  0.19999960772E+02 0.  0.
        -12    1    1    2    0    0 -0.32740381451E+02  0.43099738814E+01  0.28162307581E+02  0.43400737559E+02  0.00000000000E+00 0.  1.
         11    1    3    3    0    0  0.18273471643E+02 -0.10348075900E+01 -0.98715226441E+01  0.20795132897E+02  0.51100000000E-03 0. -1.
        -11    1    3    3    0    0  0.12700288069E+02 -0.31086440688E-01 -0.19353334901E+02  0.23148430950E+02  0.51100000000E-03 0.  1.
         12    1    3    3    0    0  0.17666217391E+01 -0.32440798508E+01  0.10625499645E+01  0.38436985931E+01  0.00000000000E+00 0. -1.
</event>
<event>
 7    1  0.1427898E-010  0.4778727E+02  0.7816164E-02  0.1312668E+00
        -11   -1    0    0    0    0  0.00000000000E+00  0.00000000000E+00  0.45593999997E+02  0.45594000000E+02  0.51100000000E-03 0.  1.
         11   -1    0    0    0    0 -0.00000000000E+00 -0.00000000000E+00 -0.45593999997E+02  0.45594000000E+02  0.51100000000E-03 0. -1.
    9900012    2    1    2    0    0  0.77512816103E+01  0.38933631467E+02 -0.17541754783E+02  0.47787272049E+02  0.20000004580E+02 0.  0.
        -12    1    1    2    0    0 -0.77512816103E+01 -0.38933631467E+02  0.17541754783E+02  0.43400727951E+02  0.00000000000E+00 0.  1.
         11    1    3    3    0    0 -0.21545842547E+01  0.22492513578E+02 -0.10378667401E+02  0.24865078678E+02  0.51100000000E-03 0. -1.
        -11    1    3    3    0    0  0.23313826175E+01  0.19705303824E+01 -0.57725610983E+01  0.65299920974E+01  0.51100000000E-03 0.  1.
        -12    1    3    3    0    0  0.75744832476E+01  0.14470587506E+02 -0.13905262841E+01  0.16392201274E+02  0.00000000000E+00 0.  1.
</event>
<event>
 7    1  0.1427898E-010  0.4778729E+02  0.7816164E-02  0.1312668E+00
        -11   -1    0    0    0    0  0.00000000000E+00  0.00000000000E+00  0.45593999997E+02  0.45594000000E+02  0.51100000000E-03 0.  1.
         11   -1    0    0    0    0 -0.00000000000E+00 -0.00000000000E+00 -0.45593999997E+02  0.45594000000E+02  0.51100000000E-03 0. -1.
    9900012    2    1    2    0    0  0.35014762551E+02  0.25520147436E+02 -0.25120554774E+01  0.47787286361E+02  0.20000069832E+02 0.  0.
        -12    1    1    2    0    0 -0.35014762551E+02 -0.25520147436E+02  0.25120554774E+01  0.43400713639E+02  0.00000000000E+00 0.  1.
         11    1    3    3    0    0  0.32148642707E+01 -0.10128695839E+01 -0.30929283351E+01  0.45746544154E+01  0.51100000000E-03 0. -1.
        -11    1    3    3    0    0  0.22704496812E+02  0.18465526537E+02 -0.52438621623E+01  0.29731598282E+02  0.51100000000E-03 0.  1.
        -12    1    3    3    0    0  0.90954014684E+01  0.80674904835E+01  0.58247350201E+01  0.13481033663E+02  0.00000000000E+00 0.  1.
</event>
<event>
 7    1  0.1427898E-010  0.4778727E+02  0.7816164E-02  0.1312668E+00
        -11   -1    0    0    0    0  0.00000000000E+00  0.00000000000E+00  0.45593999997E+02  0.45594000000E+02  0.51100000000E-03 0. -1.
         11   -1    0    0    0    0 -0.00000000000E+00 -0.00000000000E+00 -0.45593999997E+02  0.45594000000E+02  0.51100000000E-03 0.  1.
    9900012    2    1    2    0    0  0.30552007725E+02 -0.30706234612E+02  0.27065393364E+01  0.47787269877E+02  0.19999994675E+02 0.  0.
        -12    1    1    2    0    0 -0.30552007725E+02  0.30706234612E+02 -0.27065393364E+01  0.43400730123E+02  0.00000000000E+00 0.  1.
         11    1    3    3    0    0  0.41724395542E+01 -0.98786495805E+01  0.31220734724E+01  0.11168899337E+02  0.51100000000E-03 0. -1.
        -11    1    3    3    0    0  0.16732810091E+02 -0.15696484252E+02 -0.68431874902E+01  0.23941507194E+02  0.51100000000E-03 0.  1.
         12    1    3    3    0    0  0.96467580792E+01 -0.51311007795E+01  0.64276533542E+01  0.12676863346E+02  0.00000000000E+00 0. -1.
</event>
<event>
 7    1  0.1427898E-010  0.4778726E+02  0.7816164E-02  0.1312668E+00
        -11   -1    0    0    0    0  0.00000000000E+00  0.00000000000E+00  0.45593999997E+02  0.45594000000E+02  0.51100000000E-03 0.  1.
         11   -1    0    0    0    0 -0.00000000000E+00 -0.00000000000E+00 -0.45593999997E+02  0.45594000000E+02  0.51100000000E-03 0. -1.
    9900012    2    1    2    0    0  0.36323663583E+02  0.94886388260E+00 -0.23734269963E+02  0.47787257501E+02  0.19999938251E+02 0.  0.
        -12    1    1    2    0    0 -0.36323663583E+02 -0.94886388260E+00  0.23734269963E+02  0.43400742499E+02  0.00000000000E+00 0.  1.
         11    1    3    3    0    0  0.27431472092E+02  0.27409665307E+01 -0.24561087139E+02  0.36922155413E+02  0.51100000000E-03 0. -1.
        -11    1    3    3    0    0  0.79859401603E+00 -0.23325100748E+01 -0.79996037976E+00  0.25919669214E+01  0.51100000000E-03 0.  1.
        -12    1    3    3    0    0  0.80935974747E+01  0.54040742664E+00  0.16267775551E+01  0.82731351665E+01  0.00000000000E+00 0.  1.
</event>
<event>
 7    1  0.1427898E-010  0.4778727E+02  0.7816164E-02  0.1312668E+00
        -11   -1    0    0    0    0  0.00000000000E+00  0.00000000000E+00  0.45593999997E+02  0.45594000000E+02  0.51100000000E-03 0. -1.
         11   -1    0    0    0    0 -0.00000000000E+00 -0.00000000000E+00 -0.45593999997E+02  0.45594000000E+02  0.51100000000E-03 0.  1.
    9900012    2    1    2    0    0  0.42121958074E+02 -0.33346385384E+01  0.99118179203E+01  0.47787270736E+02  0.19999998594E+02 0.  0.
        -12    1    1    2    0    0 -0.42121958074E+02  0.33346385384E+01 -0.99118179203E+01  0.43400729264E+02  0.00000000000E+00 0.  1.
         11    1    3    3    0    0  0.46808966512E+00 -0.21590928100E+01  0.62530002477E+00  0.22960379088E+01  0.51100000000E-03 0.  1.
        -11    1    3    3    0    0  0.27993742248E+02  0.66741419542E+01  0.60260922678E+01  0.29402509487E+02  0.51100000000E-03 0. -1.
         12    1    3    3    0    0  0.13660126161E+02 -0.78496876826E+01  0.32604256278E+01  0.16088723340E+02  0.00000000000E+00 0. -1.
</event>
<event>
 7    1  0.1427898E-010  0.4778727E+02  0.7816164E-02  0.1312668E+00
        -11   -1    0    0    0    0  0.00000000000E+00  0.00000000000E+00  0.45593999997E+02  0.45594000000E+02  0.51100000000E-03 0. -1.
         11   -1    0    0    0    0 -0.00000000000E+00 -0.00000000000E+00 -0.45593999997E+02  0.45594000000E+02  0.51100000000E-03 0.  1.
    9900012    2    1    2    0    0 -0.24371348386E+02 -0.15163963720E+02 -0.32553257870E+02  0.47787274017E+02  0.20000013554E+02 0.  0.
        -12    1    1    2    0    0  0.24371348386E+02  0.15163963720E+02  0.32553257870E+02  0.43400725983E+02  0.00000000000E+00 0.  1.
         11    1    3    3    0    0 -0.15437670754E+02 -0.12546836005E+02 -0.15196438634E+02  0.25033507933E+02  0.51100000000E-03 0. -1.
        -11    1    3    3    0    0 -0.10843899235E+02  0.56532266934E+00 -0.11471282915E+02  0.15795571289E+02  0.51100000000E-03 0.  1.
        -12    1    3    3    0    0  0.19102216032E+01 -0.31824503851E+01 -0.58855363211E+01  0.69581947956E+01  0.00000000000E+00 0.  1.
</event>
<event>
 7    1  0.1427898E-010  0.4778727E+02  0.7816164E-02  0.1312668E+00
        -11   -1    0    0    0    0  0.00000000000E+00  0.00000000000E+00  0.45593999997E+02  0.45594000000E+02  0.51100000000E-03 0.  1.
         11   -1    0    0    0    0 -0.00000000000E+00 -0.00000000000E+00 -0.45593999997E+02  0.45594000000E+02  0.51100000000E-03 0. -1.
    9900012    2    1    2    0    0  0.28722147449E+01 -0.36979937644E+02 -0.22535705490E+02  0.47787269274E+02  0.19999991926E+02 0.  0.
        -12    1    1    2    0    0 -0.28722147449E+01  0.36979937644E+02  0.22535705490E+02  0.43400730726E+02  0.00000000000E+00 0.  1.
         11    1    3    3    0    0 -0.94109566304E+00 -0.21708574691E+02 -0.88119082063E+01  0.23447763276E+02  0.51100000000E-03 0. -1.
        -11    1    3    3    0    0  0.16465314898E+01 -0.14748356973E+02 -0.55120236834E+01  0.15830587629E+02  0.51100000000E-03 0.  1.
        -12    1    3    3    0    0  0.21667789181E+01 -0.52300598011E+00 -0.82117736002E+01  0.85089183682E+01  0.00000000000E+00 0.  1.
</event>
<event>
 7    1  0.1427898E-010  0.4778727E+02  0.7816164E-02  0.1312668E+00
        -11   -1    0    0    0    0  0.00000000000E+00  0.00000000000E+00  0.45593999997E+02  0.45594000000E+02  0.51100000000E-03 0.  1.
         11   -1    0    0    0    0 -0.00000000000E+00 -0.00000000000E+00 -0.45593999997E+02  0.45594000000E+02  0.51100000000E-03 0. -1.
    9900012    2    1    2    0    0  0.15616986371E+01 -0.21402783503E+02 -0.37724068404E+02  0.47787269807E+02  0.19999994359E+02 0.  0.
        -12    1    1    2    0    0 -0.15616986371E+01  0.21402783503E+02  0.37724068404E+02  0.43400730193E+02  0.00000000000E+00 0.  1.
         11    1    3    3    0    0  0.75627086806E+00 -0.13221080110E+01  0.10334043121E+01  0.18406085820E+01  0.51100000000E-03 0. -1.
        -11    1    3    3    0    0  0.47576503650E+01 -0.66314782396E+00 -0.63714161516E+01  0.79793449650E+01  0.51100000000E-03 0.  1.
         12    1    3    3    0    0 -0.39522225959E+01 -0.19417527668E+02 -0.32386056564E+02  0.37967316260E+02  0.00000000000E+00 0. -1.
</event>
<event>
 7    1  0.1427898E-010  0.4778727E+02  0.7816164E-02  0.1312668E+00
        -11   -1    0    0    0    0  0.00000000000E+00  0.00000000000E+00  0.45593999997E+02  0.45594000000E+02  0.51100000000E-03 0. -1.
         11   -1    0    0    0    0 -0.00000000000E+00 -0.00000000000E+00 -0.45593999997E+02  0.45594000000E+02  0.51100000000E-03 0.  1.
    9900012    2    1    2    0    0 -0.41225594327E+02  0.11698291406E+02  0.68719199235E+01  0.47787274973E+02  0.20000017914E+02 0.  0.
        -12    1    1    2    0    0  0.41225594327E+02 -0.11698291406E+02 -0.68719199235E+01  0.43400725027E+02  0.00000000000E+00 0.  1.
         11    1    3    3    0    0 -0.17113987235E+02  0.36893087345E+01 -0.33014680498E+00  0.17510241438E+02  0.51100000000E-03 0. -1.
        -11    1    3    3    0    0 -0.11423630951E+02  0.11528509492E+02  0.35619416999E+01  0.16616055613E+02  0.51100000000E-03 0.  1.
         12    1    3    3    0    0 -0.12687976140E+02 -0.35195268206E+01  0.36401250285E+01  0.13660977923E+02  0.00000000000E+00 0. -1.
</event>
<event>
 7    1  0.1427898E-010  0.4778727E+02  0.7816164E-02  0.1312668E+00
        -11   -1    0    0    0    0  0.00000000000E+00  0.00000000000E+00  0.45593999997E+02  0.45594000000E+02  0.51100000000E-03 0.  1.
         11   -1    0    0    0    0 -0.00000000000E+00 -0.00000000000E+00 -0.45593999997E+02  0.45594000000E+02  0.51100000000E-03 0. -1.
    9900012    2    1    2    0    0  0.16047743625E+02  0.35246751893E+02 -0.19589784963E+02  0.47787271097E+02  0.20000000238E+02 0.  0.
        -12    1    1    2    0    0 -0.16047743625E+02 -0.35246751893E+02  0.19589784963E+02  0.43400728903E+02  0.00000000000E+00 0.  1.
         11    1    3    3    0    0  0.36292071291E+01  0.17828997362E+02 -0.76699286744E+01  0.19745179094E+02  0.51100000000E-03 0. -1.
        -11    1    3    3    0    0  0.75543140974E+01  0.88107351522E+01 -0.13744064805E+02  0.17988775195E+02  0.51100000000E-03 0.  1.
         12    1    3    3    0    0  0.48642223981E+01  0.86070193785E+01  0.18242085159E+01  0.10053316807E+02  0.00000000000E+00 0. -1.
</event>
<event>
 7    1  0.1427898E-010  0.4778728E+02  0.7816164E-02  0.1312668E+00
        -11   -1    0    0    0    0  0.00000000000E+00  0.00000000000E+00  0.45593999997E+02  0.45594000000E+02  0.51100000000E-03 0.  1.
         11   -1    0    0    0    0 -0.00000000000E+00 -0.00000000000E+00 -0.45593999997E+02  0.45594000000E+02  0.51100000000E-03 0. -1.
    9900012    2    1    2    0    0  0.23781490577E+02  0.20549879001E+02 -0.29929347997E+02  0.47787277742E+02  0.20000030535E+02 0.  0.
        -12    1    1    2    0    0 -0.23781490577E+02 -0.20549879001E+02  0.29929347997E+02  0.43400722258E+02  0.00000000000E+00 0.  1.
         11    1    3    3    0    0  0.76578869384E+01  0.92627537984E+00 -0.12259359097E+02  0.14484236403E+02  0.51100000000E-03 0. -1.
        -11    1    3    3    0    0  0.64159392544E+00  0.97251363434E+01 -0.75211279051E+01  0.12310860445E+02  0.51100000000E-03 0.  1.
         12    1    3    3    0    0  0.15482009713E+02  0.98984672775E+01 -0.10148860995E+02  0.20992180894E+02  0.00000000000E+00 0. -1.
</event>
<event>
 7    1  0.1427898E-010  0.4778727E+02  0.7816164E-02  0.1312668E+00
        -11   -1    0    0    0    0  0.00000000000E+00  0.00000000000E+00  0.45593999997E+02  0.45594000000E+02  0.51100000000E-03 0.  1.
         11   -1    0    0    0    0 -0.00000000000E+00 -0.00000000000E+00 -0.45593999997E+02  0.45594000000E+02  0.51100000000E-03 0. -1.
    9900012    2    1    2    0    0 -0.16983272372E+02  0.27250005878E+02 -0.29199807386E+02  0.47787272907E+02  0.20000008493E+02 0.  0.
        -12    1    1    2    0    0  0.16983272372E+02 -0.27250005878E+02  0.29199807386E+02  0.43400727093E+02  0.00000000000E+00 0.  1.
         11    1    3    3    0    0  0.26913412605E+01  0.21015503668E+01 -0.12626165479E+01  0.36406088134E+01  0.51100000000E-03 0. -1.
        -11    1    3    3    0    0 -0.95246588555E+01  0.48083412935E+01 -0.47623472939E+01  0.11684144141E+02  0.51100000000E-03 0.  1.
         12    1    3    3    0    0 -0.10149954777E+02  0.20340114218E+02 -0.23174843544E+02  0.32462519952E+02  0.00000000000E+00 0. -1.
</event>
<event>
 7    1  0.1427898E-010  0.4778727E+02  0.7816164E-02  0.1312668E+00
        -11   -1    0    0    0    0  0.00000000000E+00  0.00000000000E+00  0.45593999997E+02  0.45594000000E+02  0.51100000000E-03 0.  1.
         11   -1    0    0    0    0 -0.00000000000E+00 -0.00000000000E+00 -0.45593999997E+02  0.45594000000E+02  0.51100000000E-03 0. -1.
    9900012    2    1    2    0    0 -0.32569481281E+02  0.23583533025E+02  0.16330004262E+02  0.47787272125E+02  0.20000004925E+02 0.  0.
        -12    1    1    2    0    0  0.32569481281E+02 -0.23583533025E+02 -0.16330004262E+02  0.43400727875E+02  0.00000000000E+00 0.  1.
         11    1    3    3    0    0 -0.30773659003E+02  0.18456197218E+02  0.18903753382E+02  0.40558614330E+02  0.51100000000E-03 0. -1.
        -11    1    3    3    0    0 -0.21806303413E+01  0.18924897341E+01  0.27594786221E+00  0.29004850565E+01  0.51100000000E-03 0.  1.
         12    1    3    3    0    0  0.38480806322E+00  0.32348460738E+01 -0.28496969815E+01  0.43281727384E+01  0.00000000000E+00 0. -1.
</event>
<event>
 7    1  0.1427898E-010  0.4778728E+02  0.7816164E-02  0.1312668E+00
        -11   -1    0    0    0    0  0.00000000000E+00  0.00000000000E+00  0.45593999997E+02  0.45594000000E+02  0.51100000000E-03 0. -1.
         11   -1    0    0    0    0 -0.00000000000E+00 -0.00000000000E+00 -0.45593999997E+02  0.45594000000E+02  0.51100000000E-03 0.  1.
    9900012    2    1    2    0    0  0.37370981414E+02  0.19383757452E+02  0.10550004476E+02  0.47787275361E+02  0.20000019679E+02 0.  0.
        -12    1    1    2    0    0 -0.37370981414E+02 -0.19383757452E+02 -0.10550004476E+02  0.43400724639E+02  0.00000000000E+00 0.  1.
         11    1    3    3    0    0  0.26226277204E+02  0.41136445589E+01  0.10773598015E+02  0.28649783629E+02  0.51100000000E-03 0.  1.
        -11    1    3    3    0    0  0.98514013717E+01  0.11472424465E+02 -0.48459800262E-01  0.15121804810E+02  0.51100000000E-03 0. -1.
        -12    1    3    3    0    0  0.12933028382E+01  0.37976884277E+01 -0.17513373917E+00  0.40156869215E+01  0.00000000000E+00 0.  1.
</event>
<event>
 7    1  0.1427898E-010  0.4778727E+02  0.7816164E-02  0.1312668E+00
        -11   -1    0    0    0    0  0.00000000000E+00  0.00000000000E+00  0.45593999997E+02  0.45594000000E+02  0.51100000000E-03 0.  1.
         11   -1    0    0    0    0 -0.00000000000E+00 -0.00000000000E+00 -0.45593999997E+02  0.45594000000E+02  0.51100000000E-03 0. -1.
    9900012    2    1    2    0    0 -0.11209713533E+02 -0.31392001266E+02 -0.27794021497E+02  0.47787273601E+02  0.20000011658E+02 0.  0.
        -12    1    1    2    0    0  0.11209713533E+02  0.31392001266E+02  0.27794021497E+02  0.43400726399E+02  0.00000000000E+00 0.  1.
         11    1    3    3    0    0 -0.10732308087E+02 -0.64394049689E+01 -0.13774912993E+02  0.18611732897E+02  0.51100000000E-03 0. -1.
        -11    1    3    3    0    0  0.61070130154E+00 -0.11343069116E+02 -0.94560931666E+01  0.14780252748E+02  0.51100000000E-03 0.  1.
        -12    1    3    3    0    0 -0.10881067484E+01 -0.13609527180E+02 -0.45630153377E+01  0.14395287956E+02  0.00000000000E+00 0.  1.
</event>
<event>
 7    1  0.1427898E-010  0.4778727E+02  0.7816164E-02  0.1312668E+00
        -11   -1    0    0    0    0  0.00000000000E+00  0.00000000000E+00  0.45593999997E+02  0.45594000000E+02  0.51100000000E-03 0.  1.
         11   -1    0    0    0    0 -0.00000000000E+00 -0.00000000000E+00 -0.45593999997E+02  0.45594000000E+02  0.51100000000E-03 0. -1.
    9900012    2    1    2    0    0 -0.33234214259E+02  0.22954973870E+02 -0.15880154988E+02  0.47787272527E+02  0.20000006758E+02 0.  0.
        -12    1    1    2    0    0  0.33234214259E+02 -0.22954973870E+02  0.15880154988E+02  0.43400727473E+02  0.00000000000E+00 0.  1.
         11    1    3    3    0    0 -0.24325596548E+02  0.23197916926E+02 -0.11350051028E+02  0.35478185631E+02  0.51100000000E-03 0. -1.
        -11    1    3    3    0    0 -0.32676975196E+01  0.43754173361E+00  0.18380873724E+01  0.37746331342E+01  0.51100000000E-03 0.  1.
         12    1    3    3    0    0 -0.56409201913E+01 -0.68048478926E+00 -0.63681913327E+01  0.85344537613E+01  0.00000000000E+00 0. -1.
</event>
<event>
 7    1  0.1427898E-010  0.4778727E+02  0.7816164E-02  0.1312668E+00
        -11   -1    0    0    0    0  0.00000000000E+00  0.00000000000E+00  0.45593999997E+02  0.45594000000E+02  0.51100000000E-03 0.  1.
         11   -1    0    0    0    0 -0.00000000000E+00 -0.00000000000E+00 -0.45593999997E+02  0.45594000000E+02  0.51100000000E-03 0. -1.
    9900012    2    1    2    0    0 -0.53085895192E+01  0.20627728943E+02 -0.37814532571E+02  0.47787271924E+02  0.20000004009E+02 0.  0.
        -12    1    1    2    0    0  0.53085895192E+01 -0.20627728943E+02  0.37814532571E+02  0.43400728076E+02  0.00000000000E+00 0.  1.
         11    1    3    3    0    0 -0.24257323803E+01  0.52020837970E+01 -0.15793963494E+02  0.16804616524E+02  0.51100000000E-03 0. -1.
        -11    1    3    3    0    0 -0.42289588937E+01  0.28779656853E+01 -0.16379274385E+02  0.17159469965E+02  0.51100000000E-03 0.  1.
         12    1    3    3    0    0  0.13461017547E+01  0.12547679460E+02 -0.56412946910E+01  0.13823185435E+02  0.00000000000E+00 0. -1.
</event>
<event>
 7    1  0.1427898E-010  0.4778727E+02  0.7816164E-02  0.1312668E+00
        -11   -1    0    0    0    0  0.00000000000E+00  0.00000000000E+00  0.45593999997E+02  0.45594000000E+02  0.51100000000E-03 0. -1.
         11   -1    0    0    0    0 -0.00000000000E+00 -0.00000000000E+00 -0.45593999997E+02  0.45594000000E+02  0.51100000000E-03 0.  1.
    9900012    2    1    2    0    0 -0.74316776727E+01 -0.39668471259E+02 -0.15962630910E+02  0.47787273846E+02  0.20000012775E+02 0.  0.
        -12    1    1    2    0    0  0.74316776727E+01  0.39668471259E+02  0.15962630910E+02  0.43400726154E+02  0.00000000000E+00 0.  1.
         11    1    3    3    0    0 -0.78716859244E+01 -0.98700944404E+01 -0.49811159012E+01  0.13571798681E+02  0.51100000000E-03 0. -1.
        -11    1    3    3    0    0 -0.26652100328E+01 -0.43040560903E+01  0.19941004706E+01  0.54410183142E+01  0.51100000000E-03 0.  1.
        -12    1    3    3    0    0  0.31052182845E+01 -0.25494320729E+02 -0.12975615480E+02  0.28774456851E+02  0.00000000000E+00 0.  1.
</event>
<event>
 7    1  0.1427898E-010  0.4778727E+02  0.7816164E-02  0.1312668E+00
        -11   -1    0    0    0    0  0.00000000000E+00  0.00000000000E+00  0.45593999997E+02  0.45594000000E+02  0.51100000000E-03 0.  1.
         11   -1    0    0    0    0 -0.00000000000E+00 -0.00000000000E+00 -0.45593999997E+02  0.45594000000E+02  0.51100000000E-03 0. -1.
    9900012    2    1    2    0    0  0.29674105633E+02 -0.11762119131E+02 -0.29406177358E+02  0.47787271223E+02  0.20000000814E+02 0.  0.
        -12    1    1    2    0    0 -0.29674105633E+02  0.11762119131E+02  0.29406177358E+02  0.43400728777E+02  0.00000000000E+00 0.  1.
         11    1    3    3    0    0  0.46505227094E+01  0.24429931362E+01 -0.60300673458E+01  0.79973301414E+01  0.51100000000E-03 0. -1.
        -11    1    3    3    0    0  0.88911133768E+01 -0.77269339183E+01 -0.15416904274E+01  0.11879992192E+02  0.51100000000E-03 0.  1.
        -12    1    3    3    0    0  0.16132469547E+02 -0.64781783489E+01 -0.21834419585E+02  0.27909948889E+02  0.00000000000E+00 0.  1.
</event>
<event>
 7    1  0.1427898E-010  0.4778727E+02  0.7816164E-02  0.1312668E+00
        -11   -1    0    0    0    0  0.00000000000E+00  0.00000000000E+00  0.45593999997E+02  0.45594000000E+02  0.51100000000E-03 0. -1.
         11   -1    0    0    0    0 -0.00000000000E+00 -0.00000000000E+00 -0.45593999997E+02  0.45594000000E+02  0.51100000000E-03 0.  1.
    9900012    2    1    2    0    0  0.13610787301E+02 -0.38179925236E+02 -0.15513319582E+02  0.47787270669E+02  0.19999998289E+02 0.  0.
        -12    1    1    2    0    0 -0.13610787301E+02  0.38179925236E+02  0.15513319582E+02  0.43400729331E+02  0.00000000000E+00 0.  1.
         11    1    3    3    0    0  0.67776170005E+00 -0.10915953635E+01  0.23972326995E+01  0.27198651136E+01  0.51100000000E-03 0. -1.
        -11    1    3    3    0    0  0.19878954525E+01 -0.14375337272E+02 -0.12781718554E+02  0.19338417191E+02  0.51100000000E-03 0.  1.
         12    1    3    3    0    0  0.10945130148E+02 -0.22712992601E+02 -0.51288337277E+01  0.25728988365E+02  0.00000000000E+00 0. -1.
</event>
<event>
 7    1  0.1427898E-010  0.4778727E+02  0.7816164E-02  0.1312668E+00
        -11   -1    0    0    0    0  0.00000000000E+00  0.00000000000E+00  0.45593999997E+02  0.45594000000E+02  0.51100000000E-03 0.  1.
         11   -1    0    0    0    0 -0.00000000000E+00 -0.00000000000E+00 -0.45593999997E+02  0.45594000000E+02  0.51100000000E-03 0. -1.
    9900012    2    1    2    0    0 -0.43376702925E+02  0.35531099666E-01  0.14435015800E+01  0.47787270560E+02  0.19999997790E+02 0.  0.
        -12    1    1    2    0    0  0.43376702925E+02 -0.35531099666E-01 -0.14435015800E+01  0.43400729440E+02  0.00000000000E+00 0.  1.
         11    1    3    3    0    0 -0.45390924715E+00 -0.12925161056E+01 -0.57384089820E+00  0.14852357138E+01  0.51100000000E-03 0. -1.
        -11    1    3    3    0    0 -0.78202591452E+01 -0.52603990099E+01 -0.37127858403E+01  0.10129808971E+02  0.51100000000E-03 0.  1.
        -12    1    3    3    0    0 -0.35102534533E+02  0.65884462152E+01  0.57301283185E+01  0.36172225875E+02  0.00000000000E+00 0.  1.
</event>
<event>
 7    1  0.1427898E-010  0.4778728E+02  0.7816164E-02  0.1312668E+00
        -11   -1    0    0    0    0  0.00000000000E+00  0.00000000000E+00  0.45593999997E+02  0.45594000000E+02  0.51100000000E-03 0.  1.
         11   -1    0    0    0    0 -0.00000000000E+00 -0.00000000000E+00 -0.45593999997E+02  0.45594000000E+02  0.51100000000E-03 0. -1.
    9900012    2    1    2    0    0 -0.20302542094E+02  0.83359844879E+01 -0.37442501183E+02  0.47787277107E+02  0.20000027641E+02 0.  0.
        -12    1    1    2    0    0  0.20302542094E+02 -0.83359844879E+01  0.37442501183E+02  0.43400722893E+02  0.00000000000E+00 0.  1.
         11    1    3    3    0    0 -0.14803583670E+01  0.47692995683E+01 -0.14116216360E+02  0.14973484693E+02  0.51100000000E-03 0. -1.
        -11    1    3    3    0    0  0.11737364635E+01 -0.43830805768E+00  0.58881406108E+00  0.13843675447E+01  0.51100000000E-03 0.  1.
        -12    1    3    3    0    0 -0.19995920190E+02  0.40049929773E+01 -0.23915098884E+02  0.31429424870E+02  0.00000000000E+00 0.  1.
</event>
<event>
 7    1  0.1427898E-010  0.4778728E+02  0.7816164E-02  0.1312668E+00
        -11   -1    0    0    0    0  0.00000000000E+00  0.00000000000E+00  0.45593999997E+02  0.45594000000E+02  0.51100000000E-03 0. -1.
         11   -1    0    0    0    0 -0.00000000000E+00 -0.00000000000E+00 -0.45593999997E+02  0.45594000000E+02  0.51100000000E-03 0.  1.
    9900012    2    1    2    0    0 -0.33222933892E+02 -0.27636291776E+02 -0.40118471625E+01  0.47787275615E+02  0.20000020837E+02 0.  0.
        -12    1    1    2    0    0  0.33222933892E+02  0.27636291776E+02  0.40118471625E+01  0.43400724385E+02  0.00000000000E+00 0.  1.
         11    1    3    3    0    0 -0.17167380505E+02 -0.12404406854E+02  0.94737054227E+00  0.21201079549E+02  0.51100000000E-03 0. -1.
        -11    1    3    3    0    0 -0.36473419381E+01 -0.13002630337E+02 -0.28976055597E+01  0.13811865085E+02  0.51100000000E-03 0.  1.
        -12    1    3    3    0    0 -0.12408211449E+02 -0.22292545843E+01 -0.20616121451E+01  0.12774330980E+02  0.00000000000E+00 0.  1.
</event>
<event>
 7    1  0.1427898E-010  0.4778727E+02  0.7816164E-02  0.1312668E+00
        -11   -1    0    0    0    0  0.00000000000E+00  0.00000000000E+00  0.45593999997E+02  0.45594000000E+02  0.51100000000E-03 0.  1.
         11   -1    0    0    0    0 -0.00000000000E+00 -0.00000000000E+00 -0.45593999997E+02  0.45594000000E+02  0.51100000000E-03 0. -1.
    9900012    2    1    2    0    0 -0.18667749917E+02 -0.34547669260E+02 -0.18482339808E+02  0.47787271630E+02  0.20000002672E+02 0.  0.
        -12    1    1    2    0    0  0.18667749917E+02  0.34547669260E+02  0.18482339808E+02  0.43400728370E+02  0.00000000000E+00 0.  1.
         11    1    3    3    0    0  0.15731723033E+01 -0.17016816174E+01 -0.71899284245E+01  0.75541817845E+01  0.51100000000E-03 0. -1.
        -11    1    3    3    0    0 -0.52517041806E+01 -0.96889860794E+01 -0.28062224527E+01  0.11372411036E+02  0.51100000000E-03 0.  1.
         12    1    3    3    0    0 -0.14989218040E+02 -0.23157001563E+02 -0.84861889304E+01  0.28860678810E+02  0.00000000000E+00 0. -1.
</event>
<event>
 7    1  0.1427898E-010  0.4778727E+02  0.7816164E-02  0.1312668E+00
        -11   -1    0    0    0    0  0.00000000000E+00  0.00000000000E+00  0.45593999997E+02  0.45594000000E+02  0.51100000000E-03 0.  1.
         11   -1    0    0    0    0 -0.00000000000E+00 -0.00000000000E+00 -0.45593999997E+02  0.45594000000E+02  0.51100000000E-03 0. -1.
    9900012    2    1    2    0    0 -0.17901485804E+02  0.23333739741E+02 -0.31917028910E+02  0.47787270297E+02  0.19999996591E+02 0.  0.
        -12    1    1    2    0    0  0.17901485804E+02 -0.23333739741E+02  0.31917028910E+02  0.43400729703E+02  0.00000000000E+00 0.  1.
         11    1    3    3    0    0 -0.13410716941E+01  0.14820969815E+02 -0.12718160764E+02  0.19575781798E+02  0.51100000000E-03 0. -1.
        -11    1    3    3    0    0 -0.14541585017E+01  0.34422440810E+01 -0.71016694987E+00  0.38036769866E+01  0.51100000000E-03 0.  1.
        -12    1    3    3    0    0 -0.15106255608E+02  0.50705258457E+01 -0.18488701197E+02  0.24407811512E+02  0.00000000000E+00 0.  1.
</event>
<event>
 7    1  0.1427898E-010  0.4778727E+02  0.7816164E-02  0.1312668E+00
        -11   -1    0    0    0    0  0.00000000000E+00  0.00000000000E+00  0.45593999997E+02  0.45594000000E+02  0.51100000000E-03 0.  1.
         11   -1    0    0    0    0 -0.00000000000E+00 -0.00000000000E+00 -0.45593999997E+02  0.45594000000E+02  0.51100000000E-03 0. -1.
    9900012    2    1    2    0    0  0.11541864937E+02  0.21746973823E+02 -0.35741826518E+02  0.47787266371E+02  0.19999978691E+02 0.  0.
        -12    1    1    2    0    0 -0.11541864937E+02 -0.21746973823E+02  0.35741826518E+02  0.43400733629E+02  0.00000000000E+00 0.  1.
         11    1    3    3    0    0  0.26924757030E+01  0.14263800031E+02 -0.14180747497E+02  0.20292831655E+02  0.51100000000E-03 0. -1.
        -11    1    3    3    0    0  0.18852092073E+01  0.83486607953E+01 -0.60848098243E+01  0.10501383799E+02  0.51100000000E-03 0.  1.
        -12    1    3    3    0    0  0.69641800271E+01 -0.86548700393E+00 -0.15476269197E+02  0.16993050917E+02  0.00000000000E+00 0.  1.
</event>
<event>
 7    1  0.1427898E-010  0.4778727E+02  0.7816164E-02  0.1312668E+00
        -11   -1    0    0    0    0  0.00000000000E+00  0.00000000000E+00  0.45593999997E+02  0.45594000000E+02  0.51100000000E-03 0.  1.
         11   -1    0    0    0    0 -0.00000000000E+00 -0.00000000000E+00 -0.45593999997E+02  0.45594000000E+02  0.51100000000E-03 0. -1.
    9900012    2    1    2    0    0 -0.33031270519E+02 -0.16046097699E+02 -0.23131819415E+02  0.47787272438E+02  0.20000006354E+02 0.  0.
        -12    1    1    2    0    0  0.33031270519E+02  0.16046097699E+02  0.23131819415E+02  0.43400727562E+02  0.00000000000E+00 0.  1.
         11    1    3    3    0    0 -0.24866730180E+02 -0.11438298544E+02 -0.10868032931E+02  0.29450009907E+02  0.51100000000E-03 0. -1.
        -11    1    3    3    0    0 -0.18800116280E+00 -0.97165625306E+00  0.16312884258E+01  0.19080258124E+01  0.51100000000E-03 0.  1.
        -12    1    3    3    0    0 -0.79765391758E+01 -0.36361429022E+01 -0.13895074910E+02  0.16429236719E+02  0.00000000000E+00 0.  1.
</event>
<event>
 7    1  0.1427898E-010  0.4778727E+02  0.7816164E-02  0.1312668E+00
        -11   -1    0    0    0    0  0.00000000000E+00  0.00000000000E+00  0.45593999997E+02  0.45594000000E+02  0.51100000000E-03 0.  1.
         11   -1    0    0    0    0 -0.00000000000E+00 -0.00000000000E+00 -0.45593999997E+02  0.45594000000E+02  0.51100000000E-03 0. -1.
    9900012    2    1    2    0    0 -0.13282237086E+01  0.76761413904E+01 -0.42695854643E+02  0.47787270415E+02  0.19999997129E+02 0.  0.
        -12    1    1    2    0    0  0.13282237086E+01 -0.76761413904E+01  0.42695854643E+02  0.43400729585E+02  0.00000000000E+00 0.  1.
         11    1    3    3    0    0 -0.91181404387E+01  0.33393847365E+01 -0.15992441451E+02  0.18709627449E+02  0.51100000000E-03 0. -1.
        -11    1    3    3    0    0  0.20959629449E+01 -0.11979835854E+01 -0.13146791706E+02  0.13366613548E+02  0.51100000000E-03 0.  1.
        -12    1    3    3    0    0  0.56939537852E+01  0.55347402392E+01 -0.13556621486E+02  0.15711029417E+02  0.00000000000E+00 0.  1.
</event>
<event>
 7    1  0.1427898E-010  0.4778727E+02  0.7816164E-02  0.1312668E+00
        -11   -1    0    0    0    0  0.00000000000E+00  0.00000000000E+00  0.45593999997E+02  0.45594000000E+02  0.51100000000E-03 0.  1.
         11   -1    0    0    0    0 -0.00000000000E+00 -0.00000000000E+00 -0.45593999997E+02  0.45594000000E+02  0.51100000000E-03 0. -1.
    9900012    2    1    2    0    0  0.28775654576E+02 -0.31528631323E+02  0.78441183277E+01  0.47787273258E+02  0.20000010094E+02 0.  0.
        -12    1    1    2    0    0 -0.28775654576E+02  0.31528631323E+02 -0.78441183277E+01  0.43400726742E+02  0.00000000000E+00 0.  1.
         11    1    3    3    0    0  0.64211542238E+01 -0.97756848639E+01 -0.58353068920E+01  0.13070808808E+02  0.51100000000E-03 0. -1.
        -11    1    3    3    0    0  0.11131794752E+02 -0.74669145413E+01  0.33429854703E+01  0.13814746443E+02  0.51100000000E-03 0.  1.
         12    1    3    3    0    0  0.11222705600E+02 -0.14286031918E+02  0.10336439749E+02  0.20901718007E+02  0.00000000000E+00 0. -1.
</event>
<event>
 7    1  0.1427898E-010  0.4778727E+02  0.7816164E-02  0.1312668E+00
        -11   -1    0    0    0    0  0.00000000000E+00  0.00000000000E+00  0.45593999997E+02  0.45594000000E+02  0.51100000000E-03 0. -1.
         11   -1    0    0    0    0 -0.00000000000E+00 -0.00000000000E+00 -0.45593999997E+02  0.45594000000E+02  0.51100000000E-03 0.  1.
    9900012    2    1    2    0    0  0.33051422956E+02 -0.14894756181E+02  0.23861538165E+02  0.47787270458E+02  0.19999997328E+02 0.  0.
        -12    1    1    2    0    0 -0.33051422956E+02  0.14894756181E+02 -0.23861538165E+02  0.43400729542E+02  0.00000000000E+00 0.  1.
         11    1    3    3    0    0  0.32035929795E+01  0.10493582756E+01  0.41790802615E+01  0.53692525422E+01  0.51100000000E-03 0. -1.
        -11    1    3    3    0    0 -0.15648263892E+01  0.99778359397E+00  0.13499433045E+01  0.22949076049E+01  0.51100000000E-03 0.  1.
         12    1    3    3    0    0  0.31412656366E+02 -0.16941898051E+02  0.18332514599E+02  0.40123110311E+02  0.00000000000E+00 0. -1.
</event>
<event>
 7    1  0.1427898E-010  0.4778727E+02  0.7816164E-02  0.1312668E+00
        -11   -1    0    0    0    0  0.00000000000E+00  0.00000000000E+00  0.45593999997E+02  0.45594000000E+02  0.51100000000E-03 0.  1.
         11   -1    0    0    0    0 -0.00000000000E+00 -0.00000000000E+00 -0.45593999997E+02  0.45594000000E+02  0.51100000000E-03 0. -1.
    9900012    2    1    2    0    0 -0.15963411870E+02 -0.20058427090E+02 -0.35020738818E+02  0.47787272319E+02  0.20000005811E+02 0.  0.
        -12    1    1    2    0    0  0.15963411870E+02  0.20058427090E+02  0.35020738818E+02  0.43400727681E+02  0.00000000000E+00 0.  1.
         11    1    3    3    0    0 -0.73370445552E+01 -0.10089801054E+02 -0.15576126521E+02  0.19956252799E+02  0.51100000000E-03 0. -1.
        -11    1    3    3    0    0 -0.64675411080E+01 -0.34478651269E+01 -0.12886295443E+00  0.73303115786E+01  0.51100000000E-03 0.  1.
         12    1    3    3    0    0 -0.21588262064E+01 -0.65207609098E+01 -0.19315749343E+02  0.20500707942E+02  0.00000000000E+00 0. -1.
</event>
<event>
 7    1  0.1427898E-010  0.4778727E+02  0.7816164E-02  0.1312668E+00
        -11   -1    0    0    0    0  0.00000000000E+00  0.00000000000E+00  0.45593999997E+02  0.45594000000E+02  0.51100000000E-03 0.  1.
         11   -1    0    0    0    0 -0.00000000000E+00 -0.00000000000E+00 -0.45593999997E+02  0.45594000000E+02  0.51100000000E-03 0. -1.
    9900012    2    1    2    0    0 -0.40099184597E+02  0.10105410581E+02 -0.13174201794E+02  0.47787268194E+02  0.19999987005E+02 0.  0.
        -12    1    1    2    0    0  0.40099184597E+02 -0.10105410581E+02  0.13174201794E+02  0.43400731806E+02  0.00000000000E+00 0.  1.
         11    1    3    3    0    0 -0.25100371205E+02  0.30888911767E+01 -0.11292499038E+02  0.27696397205E+02  0.51100000000E-03 0. -1.
        -11    1    3    3    0    0  0.11559499594E+00  0.32974540918E+01 -0.30348723078E+01  0.44829695378E+01  0.51100000000E-03 0.  1.
        -12    1    3    3    0    0 -0.15114408388E+02  0.37190653127E+01  0.11531695517E+01  0.15607901452E+02  0.00000000000E+00 0.  1.
</event>
<event>
 7    1  0.1427898E-010  0.4778729E+02  0.7816164E-02  0.1312668E+00
        -11   -1    0    0    0    0  0.00000000000E+00  0.00000000000E+00  0.45593999997E+02  0.45594000000E+02  0.51100000000E-03 0.  1.
         11   -1    0    0    0    0 -0.00000000000E+00 -0.00000000000E+00 -0.45593999997E+02  0.45594000000E+02  0.51100000000E-03 0. -1.
    9900012    2    1    2    0    0  0.13379146274E+02  0.29494973352E+02 -0.28890594252E+02  0.47787292123E+02  0.20000096104E+02 0.  0.
        -12    1    1    2    0    0 -0.13379146274E+02 -0.29494973352E+02  0.28890594252E+02  0.43400707877E+02  0.00000000000E+00 0.  1.
         11    1    3    3    0    0  0.27007820262E+01  0.18305372591E+00 -0.15748682318E+00  0.27115557491E+01  0.51100000000E-03 0. -1.
        -11    1    3    3    0    0 -0.58405402872E+00 -0.43867085664E+00  0.11941774190E+01  0.13998611353E+01  0.51100000000E-03 0.  1.
         12    1    3    3    0    0  0.11262418276E+02  0.29750590483E+02 -0.29927284848E+02  0.43675875238E+02  0.00000000000E+00 0. -1.
</event>
<event>
 7    1  0.1427898E-010  0.4778727E+02  0.7816164E-02  0.1312668E+00
        -11   -1    0    0    0    0  0.00000000000E+00  0.00000000000E+00  0.45593999997E+02  0.45594000000E+02  0.51100000000E-03 0.  1.
         11   -1    0    0    0    0 -0.00000000000E+00 -0.00000000000E+00 -0.45593999997E+02  0.45594000000E+02  0.51100000000E-03 0. -1.
    9900012    2    1    2    0    0  0.26238602029E+02  0.30151804067E+01 -0.34439329430E+02  0.47787274650E+02  0.20000016439E+02 0.  0.
        -12    1    1    2    0    0 -0.26238602029E+02 -0.30151804067E+01  0.34439329430E+02  0.43400725350E+02  0.00000000000E+00 0.  1.
         11    1    3    3    0    0  0.15313190278E+02 -0.58787256439E+01 -0.12110150786E+02  0.20388942199E+02  0.51100000000E-03 0. -1.
        -11    1    3    3    0    0 -0.99779631847E+00  0.15145441788E+01 -0.32323859177E+01  0.37064485083E+01  0.51100000000E-03 0.  1.
         12    1    3    3    0    0  0.11923208069E+02  0.73793618718E+01 -0.19096792726E+02  0.23691883942E+02  0.00000000000E+00 0. -1.
</event>
<event>
 7    1  0.1427898E-010  0.4778727E+02  0.7816164E-02  0.1312668E+00
        -11   -1    0    0    0    0  0.00000000000E+00  0.00000000000E+00  0.45593999997E+02  0.45594000000E+02  0.51100000000E-03 0. -1.
         11   -1    0    0    0    0 -0.00000000000E+00 -0.00000000000E+00 -0.45593999997E+02  0.45594000000E+02  0.51100000000E-03 0.  1.
    9900012    2    1    2    0    0  0.40579183800E+02  0.15040627232E+02  0.32760507977E+01  0.47787272654E+02  0.20000007336E+02 0.  0.
        -12    1    1    2    0    0 -0.40579183800E+02 -0.15040627232E+02 -0.32760507977E+01  0.43400727346E+02  0.00000000000E+00 0.  1.
         11    1    3    3    0    0  0.35839427614E+02  0.81229849923E+01  0.68389282796E+01  0.37379384655E+02  0.51100000000E-03 0. -1.
        -11    1    3    3    0    0 -0.87964105785E+00  0.73758734794E-01 -0.61094514257E+00  0.10735282809E+01  0.51100000000E-03 0.  1.
         12    1    3    3    0    0  0.56193972436E+01  0.68438835049E+01 -0.29519323393E+01  0.93343597180E+01  0.00000000000E+00 0. -1.
</event>
<event>
 7    1  0.1427898E-010  0.4778729E+02  0.7816164E-02  0.1312668E+00
        -11   -1    0    0    0    0  0.00000000000E+00  0.00000000000E+00  0.45593999997E+02  0.45594000000E+02  0.51100000000E-03 0. -1.
         11   -1    0    0    0    0 -0.00000000000E+00 -0.00000000000E+00 -0.45593999997E+02  0.45594000000E+02  0.51100000000E-03 0.  1.
    9900012    2    1    2    0    0  0.14086382502E+02 -0.31196128379E+02  0.26683277462E+02  0.47787286942E+02  0.20000072483E+02 0.  0.
        -12    1    1    2    0    0 -0.14086382502E+02  0.31196128379E+02 -0.26683277462E+02  0.43400713058E+02  0.00000000000E+00 0.  1.
         11    1    3    3    0    0  0.92338928198E+01 -0.12179866452E+02  0.12169218815E+02  0.19537241623E+02  0.51100000000E-03 0. -1.
        -11    1    3    3    0    0  0.31064804983E+01  0.22112314514E+00 -0.12116566879E+01  0.33417403732E+01  0.51100000000E-03 0.  1.
         12    1    3    3    0    0  0.17460091836E+01 -0.19237385072E+02  0.15725715335E+02  0.24908304946E+02  0.00000000000E+00 0. -1.
</event>
<event>
 7    1  0.1427898E-010  0.4778727E+02  0.7816164E-02  0.1312668E+00
        -11   -1    0    0    0    0  0.00000000000E+00  0.00000000000E+00  0.45593999997E+02  0.45594000000E+02  0.51100000000E-03 0.  1.
         11   -1    0    0    0    0 -0.00000000000E+00 -0.00000000000E+00 -0.45593999997E+02  0.45594000000E+02  0.51100000000E-03 0. -1.
    9900012    2    1    2    0    0  0.78522725680E+00  0.15683013024E+02 -0.40460473791E+02  0.47787269376E+02  0.19999992392E+02 0.  0.
        -12    1    1    2    0    0 -0.78522725680E+00 -0.15683013024E+02  0.40460473791E+02  0.43400730624E+02  0.00000000000E+00 0.  1.
         11    1    3    3    0    0 -0.73198829310E+01  0.10208991780E+02 -0.15527467842E+02  0.19972642718E+02  0.51100000000E-03 0. -1.
        -11    1    3    3    0    0  0.43388639956E+01  0.53127582778E+01 -0.83383399372E+01  0.10797178079E+02  0.51100000000E-03 0.  1.
         12    1    3    3    0    0  0.37662461922E+01  0.16126296607E+00 -0.16594666011E+02  0.17017448579E+02  0.00000000000E+00 0. -1.
</event>
<event>
 7    1  0.1427898E-010  0.4778725E+02  0.7816164E-02  0.1312668E+00
        -11   -1    0    0    0    0  0.00000000000E+00  0.00000000000E+00  0.45593999997E+02  0.45594000000E+02  0.51100000000E-03 0.  1.
         11   -1    0    0    0    0 -0.00000000000E+00 -0.00000000000E+00 -0.45593999997E+02  0.45594000000E+02  0.51100000000E-03 0. -1.
    9900012    2    1    2    0    0  0.33309605970E+02  0.26586223199E+02 -0.82016812774E+01  0.47787254734E+02  0.19999925633E+02 0.  0.
        -12    1    1    2    0    0 -0.33309605970E+02 -0.26586223199E+02  0.82016812774E+01  0.43400745266E+02  0.00000000000E+00 0.  1.
         11    1    3    3    0    0  0.90525744188E+01  0.12957744031E+02 -0.49617488409E+01  0.16567171931E+02  0.51100000000E-03 0. -1.
        -11    1    3    3    0    0  0.21875565017E+02  0.11079093593E+02  0.23471866972E+01  0.24633228479E+02  0.51100000000E-03 0.  1.
         12    1    3    3    0    0  0.23814665342E+01  0.25493855754E+01 -0.55871191337E+01  0.65868543235E+01  0.00000000000E+00 0. -1.
</event>
<event>
 7    1  0.1427898E-010  0.4778727E+02  0.7816164E-02  0.1312668E+00
        -11   -1    0    0    0    0  0.00000000000E+00  0.00000000000E+00  0.45593999997E+02  0.45594000000E+02  0.51100000000E-03 0. -1.
         11   -1    0    0    0    0 -0.00000000000E+00 -0.00000000000E+00 -0.45593999997E+02  0.45594000000E+02  0.51100000000E-03 0.  1.
    9900012    2    1    2    0    0 -0.10299019999E+02 -0.21415566795E+02  0.36317036285E+02  0.47787269146E+02  0.19999991346E+02 0.  0.
        -12    1    1    2    0    0  0.10299019999E+02  0.21415566795E+02 -0.36317036285E+02  0.43400730854E+02  0.00000000000E+00 0.  1.
         11    1    3    3    0    0 -0.55794243388E+01 -0.36916568319E+01  0.12642447050E+02  0.14303488168E+02  0.51100000000E-03 0. -1.
        -11    1    3    3    0    0 -0.48620941907E+01 -0.58613169273E+01  0.72584103548E+00  0.76499569614E+01  0.51100000000E-03 0.  1.
        -12    1    3    3    0    0  0.14249853082E+00 -0.11862593036E+02  0.22948748200E+02  0.25833824017E+02  0.00000000000E+00 0.  1.
</event>
<event>
 7    1  0.1427898E-010  0.4778727E+02  0.7816164E-02  0.1312668E+00
        -11   -1    0    0    0    0  0.00000000000E+00  0.00000000000E+00  0.45593999997E+02  0.45594000000E+02  0.51100000000E-03 0.  1.
         11   -1    0    0    0    0 -0.00000000000E+00 -0.00000000000E+00 -0.45593999997E+02  0.45594000000E+02  0.51100000000E-03 0. -1.
    9900012    2    1    2    0    0  0.25301770896E+02  0.34221843004E+02  0.85034810064E+01  0.47787270303E+02  0.19999996618E+02 0.  0.
        -12    1    1    2    0    0 -0.25301770896E+02 -0.34221843004E+02 -0.85034810064E+01  0.43400729697E+02  0.00000000000E+00 0.  1.
         11    1    3    3    0    0  0.58710296137E+01  0.58568715033E+01 -0.38517645796E+01  0.91437422956E+01  0.51100000000E-03 0. -1.
        -11    1    3    3    0    0 -0.18836039731E+00 -0.47778092504E+00 -0.11328021979E+01  0.12437826708E+01  0.51100000000E-03 0.  1.
        -12    1    3    3    0    0  0.19619101679E+02  0.28842752426E+02  0.13488047784E+02  0.37399745336E+02  0.00000000000E+00 0.  1.
</event>
<event>
 7    1  0.1427898E-010  0.4778727E+02  0.7816164E-02  0.1312668E+00
        -11   -1    0    0    0    0  0.00000000000E+00  0.00000000000E+00  0.45593999997E+02  0.45594000000E+02  0.51100000000E-03 0.  1.
         11   -1    0    0    0    0 -0.00000000000E+00 -0.00000000000E+00 -0.45593999997E+02  0.45594000000E+02  0.51100000000E-03 0. -1.
    9900012    2    1    2    0    0  0.53772761646E+01 -0.20407173100E+02 -0.37924334248E+02  0.47787274879E+02  0.20000017483E+02 0.  0.
        -12    1    1    2    0    0 -0.53772761646E+01  0.20407173100E+02  0.37924334248E+02  0.43400725121E+02  0.00000000000E+00 0.  1.
         11    1    3    3    0    0 -0.62511609127E+00 -0.46069521915E+01 -0.12582586461E+01  0.48164295597E+01  0.51100000000E-03 0. -1.
        -11    1    3    3    0    0  0.64255690483E+01 -0.26177723103E+00 -0.14857698251E+02  0.16189739420E+02  0.51100000000E-03 0.  1.
         12    1    3    3    0    0 -0.42317679237E+00 -0.15538443677E+02 -0.21808377351E+02  0.26781105900E+02  0.00000000000E+00 0. -1.
</event>
<event>
 7    1  0.1427898E-010  0.4778727E+02  0.7816164E-02  0.1312668E+00
        -11   -1    0    0    0    0  0.00000000000E+00  0.00000000000E+00  0.45593999997E+02  0.45594000000E+02  0.51100000000E-03 0.  1.
         11   -1    0    0    0    0 -0.00000000000E+00 -0.00000000000E+00 -0.45593999997E+02  0.45594000000E+02  0.51100000000E-03 0. -1.
    9900012    2    1    2    0    0  0.30983184451E+02  0.70775025711E+01 -0.29556292962E+02  0.47787271723E+02  0.20000003093E+02 0.  0.
        -12    1    1    2    0    0 -0.30983184451E+02 -0.70775025711E+01  0.29556292962E+02  0.43400728277E+02  0.00000000000E+00 0.  1.
         11    1    3    3    0    0  0.15129753391E+02 -0.54025979085E+01 -0.13539041192E+02  0.21009596343E+02  0.51100000000E-03 0. -1.
        -11    1    3    3    0    0  0.43119984409E+00  0.28516638021E+01 -0.61365466229E+00  0.29486424082E+01  0.51100000000E-03 0.  1.
         12    1    3    3    0    0  0.15422231215E+02  0.96284366775E+01 -0.15403597108E+02  0.23829032972E+02  0.00000000000E+00 0. -1.
</event>
<event>
 7    1  0.1427898E-010  0.4778726E+02  0.7816164E-02  0.1312668E+00
        -11   -1    0    0    0    0  0.00000000000E+00  0.00000000000E+00  0.45593999997E+02  0.45594000000E+02  0.51100000000E-03 0.  1.
         11   -1    0    0    0    0 -0.00000000000E+00 -0.00000000000E+00 -0.45593999997E+02  0.45594000000E+02  0.51100000000E-03 0. -1.
    9900012    2    1    2    0    0 -0.25717060613E+02  0.31569642548E+02 -0.15020489749E+02  0.47787255197E+02  0.19999927745E+02 0.  0.
        -12    1    1    2    0    0  0.25717060613E+02 -0.31569642548E+02  0.15020489749E+02  0.43400744803E+02  0.00000000000E+00 0.  1.
         11    1    3    3    0    0 -0.80903408972E+01  0.94778650851E+01 -0.69241955453E+01  0.14255806768E+02  0.51100000000E-03 0. -1.
        -11    1    3    3    0    0 -0.12121911783E+02  0.30212928026E+01 -0.49351103380E+01  0.13432210160E+02  0.51100000000E-03 0.  1.
         12    1    3    3    0    0 -0.55048079325E+01  0.19070484660E+02 -0.31611838654E+01  0.20099238269E+02  0.00000000000E+00 0. -1.
</event>
<event>
 7    1  0.1427898E-010  0.4778728E+02  0.7816164E-02  0.1312668E+00
        -11   -1    0    0    0    0  0.00000000000E+00  0.00000000000E+00  0.45593999997E+02  0.45594000000E+02  0.51100000000E-03 0.  1.
         11   -1    0    0    0    0 -0.00000000000E+00 -0.00000000000E+00 -0.45593999997E+02  0.45594000000E+02  0.51100000000E-03 0. -1.
    9900012    2    1    2    0    0  0.13325773517E+01 -0.20802462478E+02 -0.38067102548E+02  0.47787279914E+02  0.20000040442E+02 0.  0.
        -12    1    1    2    0    0 -0.13325773517E+01  0.20802462478E+02  0.38067102548E+02  0.43400720086E+02  0.00000000000E+00 0.  1.
         11    1    3    3    0    0  0.50542161926E+01 -0.38495839058E+00 -0.40085218898E+01  0.64623170989E+01  0.51100000000E-03 0. -1.
        -11    1    3    3    0    0  0.33852528423E+01 -0.49945805635E+01 -0.12512083566E+02  0.13890932555E+02  0.51100000000E-03 0.  1.
        -12    1    3    3    0    0 -0.71068916831E+01 -0.15422923524E+02 -0.21546497092E+02  0.27434030261E+02  0.00000000000E+00 0.  1.
</event>
<event>
 7    1  0.1427898E-010  0.4778730E+02  0.7816164E-02  0.1312668E+00
        -11   -1    0    0    0    0  0.00000000000E+00  0.00000000000E+00  0.45593999997E+02  0.45594000000E+02  0.51100000000E-03 0.  1.
         11   -1    0    0    0    0 -0.00000000000E+00 -0.00000000000E+00 -0.45593999997E+02  0.45594000000E+02  0.51100000000E-03 0. -1.
    9900012    2    1    2    0    0 -0.27482578431E+02  0.29778294700E+02 -0.15542896762E+02  0.47787301939E+02  0.20000140860E+02 0.  0.
        -12    1    1    2    0    0  0.27482578431E+02 -0.29778294700E+02  0.15542896762E+02  0.43400698061E+02  0.00000000000E+00 0.  1.
         11    1    3    3    0    0 -0.85561361172E+01  0.20189907776E+02 -0.91588738920E+01  0.23763939330E+02  0.51100000000E-03 0. -1.
        -11    1    3    3    0    0 -0.11273876228E+02  0.66420264451E+01  0.81660653165E+00  0.13110440381E+02  0.51100000000E-03 0.  1.
        -12    1    3    3    0    0 -0.76525660864E+01  0.29463604790E+01 -0.72006294017E+01  0.10912922228E+02  0.00000000000E+00 0.  1.
</event>
<event>
 7    1  0.1427898E-010  0.4778727E+02  0.7816164E-02  0.1312668E+00
        -11   -1    0    0    0    0  0.00000000000E+00  0.00000000000E+00  0.45593999997E+02  0.45594000000E+02  0.51100000000E-03 0.  1.
         11   -1    0    0    0    0 -0.00000000000E+00 -0.00000000000E+00 -0.45593999997E+02  0.45594000000E+02  0.51100000000E-03 0. -1.
    9900012    2    1    2    0    0  0.79818742976E+01 -0.31210331653E+02 -0.29083125152E+02  0.47787270884E+02  0.19999999269E+02 0.  0.
        -12    1    1    2    0    0 -0.79818742976E+01  0.31210331653E+02  0.29083125152E+02  0.43400729116E+02  0.00000000000E+00 0.  1.
         11    1    3    3    0    0  0.48302529708E+01 -0.12747385992E+02 -0.16368767403E+02  0.21301730914E+02  0.51100000000E-03 0.  1.
        -11    1    3    3    0    0  0.29630686043E+00 -0.13991998340E+02 -0.15170203641E+02  0.20639740650E+02  0.51100000000E-03 0. -1.
        -12    1    3    3    0    0  0.28553144664E+01 -0.44709473204E+01  0.24558458920E+01  0.58457993200E+01  0.00000000000E+00 0.  1.
</event>
<event>
 7    1  0.1427898E-010  0.4778727E+02  0.7816164E-02  0.1312668E+00
        -11   -1    0    0    0    0  0.00000000000E+00  0.00000000000E+00  0.45593999997E+02  0.45594000000E+02  0.51100000000E-03 0.  1.
         11   -1    0    0    0    0 -0.00000000000E+00 -0.00000000000E+00 -0.45593999997E+02  0.45594000000E+02  0.51100000000E-03 0. -1.
    9900012    2    1    2    0    0 -0.99577387368E+01 -0.24453316143E+02 -0.34445640897E+02  0.47787269500E+02  0.19999992958E+02 0.  0.
        -12    1    1    2    0    0  0.99577387368E+01  0.24453316143E+02  0.34445640897E+02  0.43400730500E+02  0.00000000000E+00 0.  1.
         11    1    3    3    0    0  0.71545913429E+00 -0.32298521250E+01 -0.11930334084E+02  0.12380496684E+02  0.51100000000E-03 0. -1.
        -11    1    3    3    0    0 -0.30557159649E+01 -0.29190502459E+01  0.12977301380E+01  0.44206739496E+01  0.51100000000E-03 0.  1.
        -12    1    3    3    0    0 -0.76174819062E+01 -0.18304413772E+02 -0.23813036951E+02  0.30986098866E+02  0.00000000000E+00 0.  1.
</event>
<event>
 7    1  0.1427898E-010  0.4778727E+02  0.7816164E-02  0.1312668E+00
        -11   -1    0    0    0    0  0.00000000000E+00  0.00000000000E+00  0.45593999997E+02  0.45594000000E+02  0.51100000000E-03 0. -1.
         11   -1    0    0    0    0 -0.00000000000E+00 -0.00000000000E+00 -0.45593999997E+02  0.45594000000E+02  0.51100000000E-03 0.  1.
    9900012    2    1    2    0    0  0.20295068329E+02 -0.73552570983E+01  0.37651474970E+02  0.47787272208E+02  0.20000005304E+02 0.  0.
        -12    1    1    2    0    0 -0.20295068329E+02  0.73552570983E+01 -0.37651474970E+02  0.43400727792E+02  0.00000000000E+00 0.  1.
         11    1    3    3    0    0  0.95113970169E+01 -0.10420542697E+01  0.18858507090E+02  0.21147005468E+02  0.51100000000E-03 0. -1.
        -11    1    3    3    0    0 -0.66234743708E+00 -0.50029914219E+01  0.56698987237E+00  0.50783959152E+01  0.51100000000E-03 0.  1.
        -12    1    3    3    0    0  0.11446018749E+02 -0.13102114068E+01  0.18225978008E+02  0.21561870825E+02  0.00000000000E+00 0.  1.
</event>
<event>
 7    1  0.1427898E-010  0.4778727E+02  0.7816164E-02  0.1312668E+00
        -11   -1    0    0    0    0  0.00000000000E+00  0.00000000000E+00  0.45593999997E+02  0.45594000000E+02  0.51100000000E-03 0. -1.
         11   -1    0    0    0    0 -0.00000000000E+00 -0.00000000000E+00 -0.45593999997E+02  0.45594000000E+02  0.51100000000E-03 0.  1.
    9900012    2    1    2    0    0  0.32145005888E+02 -0.28855516837E+02 -0.42048769135E+01  0.47787271374E+02  0.20000001501E+02 0.  0.
        -12    1    1    2    0    0 -0.32145005888E+02  0.28855516837E+02  0.42048769135E+01  0.43400728626E+02  0.00000000000E+00 0.  1.
         11    1    3    3    0    0  0.10658357920E+02 -0.16794016644E+02 -0.65343178145E+01  0.20936496797E+02  0.51100000000E-03 0. -1.
        -11    1    3    3    0    0  0.16989816998E+00  0.11335528664E+01  0.13368603851E+01  0.17609666208E+01  0.51100000000E-03 0.  1.
        -12    1    3    3    0    0  0.21316749797E+02 -0.13195053060E+02  0.99258051587E+00  0.25089807955E+02  0.00000000000E+00 0.  1.
</event>
<event>
 7    1  0.1427898E-010  0.4778730E+02  0.7816164E-02  0.1312668E+00
        -11   -1    0    0    0    0  0.00000000000E+00  0.00000000000E+00  0.45593999997E+02  0.45594000000E+02  0.51100000000E-03 0. -1.
         11   -1    0    0    0    0 -0.00000000000E+00 -0.00000000000E+00 -0.45593999997E+02  0.45594000000E+02  0.51100000000E-03 0.  1.
    9900012    2    1    2    0    0 -0.31525201565E+02  0.16917289070E+02  0.24568030481E+02  0.47787295802E+02  0.20000112878E+02 0.  0.
        -12    1    1    2    0    0  0.31525201565E+02 -0.16917289070E+02 -0.24568030481E+02  0.43400704198E+02  0.00000000000E+00 0.  1.
         11    1    3    3    0    0 -0.87988003930E+01  0.75410601199E+01  0.11376902779E+02  0.16239470225E+02  0.51100000000E-03 0. -1.
        -11    1    3    3    0    0 -0.28451553263E+01 -0.32007516081E+01 -0.52719343588E+00  0.43148178255E+01  0.51100000000E-03 0.  1.
         12    1    3    3    0    0 -0.19881245845E+02  0.12576980558E+02  0.13718321138E+02  0.27233007751E+02  0.00000000000E+00 0. -1.
</event>
<event>
 7    1  0.1427898E-010  0.4778727E+02  0.7816164E-02  0.1312668E+00
        -11   -1    0    0    0    0  0.00000000000E+00  0.00000000000E+00  0.45593999997E+02  0.45594000000E+02  0.51100000000E-03 0.  1.
         11   -1    0    0    0    0 -0.00000000000E+00 -0.00000000000E+00 -0.45593999997E+02  0.45594000000E+02  0.51100000000E-03 0. -1.
    9900012    2    1    2    0    0 -0.28932545172E+02 -0.29775490521E+02 -0.12647195055E+02  0.47787267879E+02  0.19999985567E+02 0.  0.
        -12    1    1    2    0    0  0.28932545172E+02  0.29775490521E+02  0.12647195055E+02  0.43400732121E+02  0.00000000000E+00 0.  1.
         11    1    3    3    0    0 -0.51826192789E+00 -0.81413169971E+01 -0.23829450841E+01  0.84987096319E+01  0.51100000000E-03 0.  1.
        -11    1    3    3    0    0 -0.16689696699E+02 -0.15226394251E+02 -0.12378844526E+02  0.25760917101E+02  0.51100000000E-03 0. -1.
         12    1    3    3    0    0 -0.11724586545E+02 -0.64077792725E+01  0.21145945550E+01  0.13527641146E+02  0.00000000000E+00 0. -1.
</event>
<event>
 7    1  0.1427898E-010  0.4778726E+02  0.7816164E-02  0.1312668E+00
        -11   -1    0    0    0    0  0.00000000000E+00  0.00000000000E+00  0.45593999997E+02  0.45594000000E+02  0.51100000000E-03 0. -1.
         11   -1    0    0    0    0 -0.00000000000E+00 -0.00000000000E+00 -0.45593999997E+02  0.45594000000E+02  0.51100000000E-03 0.  1.
    9900012    2    1    2    0    0 -0.11515719722E+02  0.48734925299E+01  0.41560333745E+02  0.47787261859E+02  0.19999958121E+02 0.  0.
        -12    1    1    2    0    0  0.11515719722E+02 -0.48734925299E+01 -0.41560333745E+02  0.43400738141E+02  0.00000000000E+00 0.  1.
         11    1    3    3    0    0 -0.45100916194E+01  0.33083005010E+01  0.25024393397E+02  0.25641880660E+02  0.51100000000E-03 0. -1.
        -11    1    3    3    0    0 -0.74924436736E+01 -0.24967929712E+01  0.16222021586E+02  0.18042302291E+02  0.51100000000E-03 0.  1.
        -12    1    3    3    0    0  0.48681557141E+00  0.40619850001E+01  0.31391876199E+00  0.41030789087E+01  0.00000000000E+00 0.  1.
</event>
<event>
 7    1  0.1427898E-010  0.4778727E+02  0.7816164E-02  0.1312668E+00
        -11   -1    0    0    0    0  0.00000000000E+00  0.00000000000E+00  0.45593999997E+02  0.45594000000E+02  0.51100000000E-03 0.  1.
         11   -1    0    0    0    0 -0.00000000000E+00 -0.00000000000E+00 -0.45593999997E+02  0.45594000000E+02  0.51100000000E-03 0. -1.
    9900012    2    1    2    0    0  0.69804659519E+01  0.25921544111E+02 -0.34102344292E+02  0.47787271432E+02  0.20000001768E+02 0.  0.
        -12    1    1    2    0    0 -0.69804659519E+01 -0.25921544111E+02  0.34102344292E+02  0.43400728568E+02  0.00000000000E+00 0.  1.
         11    1    3    3    0    0  0.73107844558E+01  0.14997312426E+02 -0.21923473101E+02  0.27550056669E+02  0.51100000000E-03 0. -1.
        -11    1    3    3    0    0 -0.23296075179E+01  0.71461016114E+00 -0.90515443743E+01  0.93738036405E+01  0.51100000000E-03 0.  1.
        -12    1    3    3    0    0  0.19992890140E+01  0.10209621523E+02 -0.31273268170E+01  0.10863411123E+02  0.00000000000E+00 0.  1.
</event>
<event>
 7    1  0.1427898E-010  0.4778727E+02  0.7816164E-02  0.1312668E+00
        -11   -1    0    0    0    0  0.00000000000E+00  0.00000000000E+00  0.45593999997E+02  0.45594000000E+02  0.51100000000E-03 0.  1.
         11   -1    0    0    0    0 -0.00000000000E+00 -0.00000000000E+00 -0.45593999997E+02  0.45594000000E+02  0.51100000000E-03 0. -1.
    9900012    2    1    2    0    0 -0.26730760900E+02 -0.17744496436E+02 -0.29227081494E+02  0.47787273915E+02  0.20000013090E+02 0.  0.
        -12    1    1    2    0    0  0.26730760900E+02  0.17744496436E+02  0.29227081494E+02  0.43400726085E+02  0.00000000000E+00 0.  1.
         11    1    3    3    0    0 -0.10329916703E+02 -0.69451236368E+01 -0.46430509354E+01  0.13285324372E+02  0.51100000000E-03 0.  1.
        -11    1    3    3    0    0 -0.17728283919E+02 -0.89787588929E+01 -0.25268932873E+02  0.32146992561E+02  0.51100000000E-03 0. -1.
        -12    1    3    3    0    0  0.13274397215E+01 -0.18206139058E+01  0.68490231428E+00  0.23549569822E+01  0.00000000000E+00 0.  1.
</event>
<event>
 7    1  0.1427898E-010  0.4778726E+02  0.7816164E-02  0.1312668E+00
        -11   -1    0    0    0    0  0.00000000000E+00  0.00000000000E+00  0.45593999997E+02  0.45594000000E+02  0.51100000000E-03 0.  1.
         11   -1    0    0    0    0 -0.00000000000E+00 -0.00000000000E+00 -0.45593999997E+02  0.45594000000E+02  0.51100000000E-03 0. -1.
    9900012    2    1    2    0    0  0.11884104370E+02 -0.23963191720E+02 -0.34178324005E+02  0.47787258925E+02  0.19999944741E+02 0.  0.
        -12    1    1    2    0    0 -0.11884104370E+02  0.23963191720E+02  0.34178324005E+02  0.43400741075E+02  0.00000000000E+00 0.  1.
         11    1    3    3    0    0 -0.42210177833E+00 -0.24376486881E+01  0.17305406230E+01  0.30191177762E+01  0.51100000000E-03 0.  1.
        -11    1    3    3    0    0  0.10425256175E+02 -0.10840159000E+02 -0.15164692680E+02  0.21357970825E+02  0.51100000000E-03 0. -1.
        -12    1    3    3    0    0  0.18809499736E+01 -0.10685384033E+02 -0.20744171948E+02  0.23410170323E+02  0.00000000000E+00 0.  1.
</event>
<event>
 7    1  0.1427898E-010  0.4778727E+02  0.7816164E-02  0.1312668E+00
        -11   -1    0    0    0    0  0.00000000000E+00  0.00000000000E+00  0.45593999997E+02  0.45594000000E+02  0.51100000000E-03 0.  1.
         11   -1    0    0    0    0 -0.00000000000E+00 -0.00000000000E+00 -0.45593999997E+02  0.45594000000E+02  0.51100000000E-03 0. -1.
    9900012    2    1    2    0    0  0.12816424151E+02 -0.35607372680E+02 -0.21247994082E+02  0.47787274549E+02  0.20000015979E+02 0.  0.
        -12    1    1    2    0    0 -0.12816424151E+02  0.35607372680E+02  0.21247994082E+02  0.43400725451E+02  0.00000000000E+00 0.  1.
         11    1    3    3    0    0  0.39619714734E+00 -0.36102817464E+01 -0.63305000718E+01  0.72983791275E+01  0.51100000000E-03 0. -1.
        -11    1    3    3    0    0  0.13501145013E+02 -0.33274846353E+02 -0.14697212337E+02  0.38800829466E+02  0.51100000000E-03 0.  1.
        -12    1    3    3    0    0 -0.10809180094E+01  0.12777554197E+01 -0.22028167263E+00  0.16880659557E+01  0.00000000000E+00 0.  1.
</event>
<event>
 7    1  0.1427898E-010  0.4778727E+02  0.7816164E-02  0.1312668E+00
        -11   -1    0    0    0    0  0.00000000000E+00  0.00000000000E+00  0.45593999997E+02  0.45594000000E+02  0.51100000000E-03 0. -1.
         11   -1    0    0    0    0 -0.00000000000E+00 -0.00000000000E+00 -0.45593999997E+02  0.45594000000E+02  0.51100000000E-03 0.  1.
    9900012    2    1    2    0    0 -0.23615169734E+02  0.29409566125E+02  0.21471478186E+02  0.47787271934E+02  0.20000004055E+02 0.  0.
        -12    1    1    2    0    0  0.23615169734E+02 -0.29409566125E+02 -0.21471478186E+02  0.43400728066E+02  0.00000000000E+00 0.  1.
         11    1    3    3    0    0 -0.22844940959E+01  0.61398908065E+01  0.81541540493E+01  0.10459799277E+02  0.51100000000E-03 0. -1.
        -11    1    3    3    0    0 -0.32551967724E+00  0.86870810789E+01  0.65259756685E+01  0.10870128767E+02  0.51100000000E-03 0.  1.
        -12    1    3    3    0    0 -0.21005155961E+02  0.14582594239E+02  0.67913484679E+01  0.26457343890E+02  0.00000000000E+00 0.  1.
</event>
<event>
 7    1  0.1427898E-010  0.4778727E+02  0.7816164E-02  0.1312668E+00
        -11   -1    0    0    0    0  0.00000000000E+00  0.00000000000E+00  0.45593999997E+02  0.45594000000E+02  0.51100000000E-03 0.  1.
         11   -1    0    0    0    0 -0.00000000000E+00 -0.00000000000E+00 -0.45593999997E+02  0.45594000000E+02  0.51100000000E-03 0. -1.
    9900012    2    1    2    0    0 -0.54853048526E+01  0.11224168653E+02 -0.41563837783E+02  0.47787272558E+02  0.20000006900E+02 0.  0.
        -12    1    1    2    0    0  0.54853048526E+01 -0.11224168653E+02  0.41563837783E+02  0.43400727442E+02  0.00000000000E+00 0.  1.
         11    1    3    3    0    0 -0.39644811960E+01  0.40331398694E+01 -0.10393170168E+02  0.11832215125E+02  0.51100000000E-03 0.  1.
        -11    1    3    3    0    0  0.62992238856E+01 -0.11656164563E+01 -0.12740548064E+02  0.14260450501E+02  0.51100000000E-03 0. -1.
         12    1    3    3    0    0 -0.78200475422E+01  0.83566452399E+01 -0.18430119551E+02  0.21694606931E+02  0.00000000000E+00 0. -1.
</event>
<event>
 7    1  0.1427898E-010  0.4778727E+02  0.7816164E-02  0.1312668E+00
        -11   -1    0    0    0    0  0.00000000000E+00  0.00000000000E+00  0.45593999997E+02  0.45594000000E+02  0.51100000000E-03 0.  1.
         11   -1    0    0    0    0 -0.00000000000E+00 -0.00000000000E+00 -0.45593999997E+02  0.45594000000E+02  0.51100000000E-03 0. -1.
    9900012    2    1    2    0    0  0.14167512631E+01 -0.14936136504E+02 -0.40725026928E+02  0.47787272171E+02  0.20000005136E+02 0.  0.
        -12    1    1    2    0    0 -0.14167512631E+01  0.14936136504E+02  0.40725026928E+02  0.43400727829E+02  0.00000000000E+00 0.  1.
         11    1    3    3    0    0 -0.66248472741E+01 -0.94061036569E+01 -0.16940131710E+02  0.20477584086E+02  0.51100000000E-03 0. -1.
        -11    1    3    3    0    0  0.41237190203E+01 -0.34844105951E+01 -0.32433860167E+01  0.62980734251E+01  0.51100000000E-03 0.  1.
        -12    1    3    3    0    0  0.39178795169E+01 -0.20456222519E+01 -0.20541509202E+02  0.21011614660E+02  0.00000000000E+00 0.  1.
</event>
<event>
 7    1  0.1427898E-010  0.4778726E+02  0.7816164E-02  0.1312668E+00
        -11   -1    0    0    0    0  0.00000000000E+00  0.00000000000E+00  0.45593999997E+02  0.45594000000E+02  0.51100000000E-03 0. -1.
         11   -1    0    0    0    0 -0.00000000000E+00 -0.00000000000E+00 -0.45593999997E+02  0.45594000000E+02  0.51100000000E-03 0.  1.
    9900012    2    1    2    0    0 -0.19079894027E+02  0.38567916889E+02 -0.56654549132E+01  0.47787263272E+02  0.19999964560E+02 0.  0.
        -12    1    1    2    0    0  0.19079894027E+02 -0.38567916889E+02  0.56654549132E+01  0.43400736728E+02  0.00000000000E+00 0.  1.
         11    1    3    3    0    0 -0.58515416456E+01  0.58654584693E+01  0.58387089935E+01  0.10135811051E+02  0.51100000000E-03 0. -1.
        -11    1    3    3    0    0 -0.31449551239E+01  0.15710556950E+02 -0.39834294887E+01  0.16509998582E+02  0.51100000000E-03 0.  1.
         12    1    3    3    0    0 -0.10083397257E+02  0.16991901469E+02 -0.75207344180E+01  0.21141453639E+02  0.00000000000E+00 0. -1.
</event>
<event>
 7    1  0.1427898E-010  0.4778727E+02  0.7816164E-02  0.1312668E+00
        -11   -1    0    0    0    0  0.00000000000E+00  0.00000000000E+00  0.45593999997E+02  0.45594000000E+02  0.51100000000E-03 0.  1.
         11   -1    0    0    0    0 -0.00000000000E+00 -0.00000000000E+00 -0.45593999997E+02  0.45594000000E+02  0.51100000000E-03 0. -1.
    9900012    2    1    2    0    0 -0.42566176768E+02 -0.27548240031E+01 -0.80096763863E+01  0.47787269871E+02  0.19999994649E+02 0.  0.
        -12    1    1    2    0    0  0.42566176768E+02  0.27548240031E+01  0.80096763863E+01  0.43400730129E+02  0.00000000000E+00 0.  1.
         11    1    3    3    0    0 -0.15297036339E+02 -0.74736251865E+01 -0.24206671248E+01  0.17196337511E+02  0.51100000000E-03 0. -1.
        -11    1    3    3    0    0 -0.60510946817E+01  0.20442033117E+01 -0.65955928238E+01  0.91813048629E+01  0.51100000000E-03 0.  1.
         12    1    3    3    0    0 -0.21218045747E+02  0.26745978717E+01  0.10065835623E+01  0.21409627497E+02  0.00000000000E+00 0. -1.
</event>
<event>
 7    1  0.1427898E-010  0.4778727E+02  0.7816164E-02  0.1312668E+00
        -11   -1    0    0    0    0  0.00000000000E+00  0.00000000000E+00  0.45593999997E+02  0.45594000000E+02  0.51100000000E-03 0. -1.
         11   -1    0    0    0    0 -0.00000000000E+00 -0.00000000000E+00 -0.45593999997E+02  0.45594000000E+02  0.51100000000E-03 0.  1.
    9900012    2    1    2    0    0  0.37810332766E+02 -0.13516623020E+02  0.16471278365E+02  0.47787269906E+02  0.19999994808E+02 0.  0.
        -12    1    1    2    0    0 -0.37810332766E+02  0.13516623020E+02 -0.16471278365E+02  0.43400730094E+02  0.00000000000E+00 0.  1.
         11    1    3    3    0    0  0.10492266596E+02 -0.55765366451E+01  0.13870272169E+02  0.18263895247E+02  0.51100000000E-03 0. -1.
        -11    1    3    3    0    0  0.11123204141E+02 -0.14992119187E+01 -0.22178078865E+01  0.11440803242E+02  0.51100000000E-03 0.  1.
        -12    1    3    3    0    0  0.16194862029E+02 -0.64408744561E+01  0.48188140822E+01  0.18082571417E+02  0.00000000000E+00 0.  1.
</event>
<event>
 7    1  0.1427898E-010  0.4778727E+02  0.7816164E-02  0.1312668E+00
        -11   -1    0    0    0    0  0.00000000000E+00  0.00000000000E+00  0.45593999997E+02  0.45594000000E+02  0.51100000000E-03 0.  1.
         11   -1    0    0    0    0 -0.00000000000E+00 -0.00000000000E+00 -0.45593999997E+02  0.45594000000E+02  0.51100000000E-03 0. -1.
    9900012    2    1    2    0    0  0.13136560529E+02  0.39501852811E+02 -0.12274286127E+02  0.47787266159E+02  0.19999977723E+02 0.  0.
        -12    1    1    2    0    0 -0.13136560529E+02 -0.39501852811E+02  0.12274286127E+02  0.43400733841E+02  0.00000000000E+00 0.  1.
         11    1    3    3    0    0  0.12406701195E+02  0.20594663766E+02 -0.14731137736E+02  0.28197035827E+02  0.51100000000E-03 0. -1.
        -11    1    3    3    0    0 -0.94510491698E+00  0.97878960419E+00 -0.24405493913E+00  0.13823224905E+01  0.51100000000E-03 0.  1.
         12    1    3    3    0    0  0.16749642508E+01  0.17928399441E+02  0.27009065481E+01  0.18207907841E+02  0.00000000000E+00 0. -1.
</event>
<event>
 7    1  0.1427898E-010  0.4778727E+02  0.7816164E-02  0.1312668E+00
        -11   -1    0    0    0    0  0.00000000000E+00  0.00000000000E+00  0.45593999997E+02  0.45594000000E+02  0.51100000000E-03 0.  1.
         11   -1    0    0    0    0 -0.00000000000E+00 -0.00000000000E+00 -0.45593999997E+02  0.45594000000E+02  0.51100000000E-03 0. -1.
    9900012    2    1    2    0    0 -0.25165747627E+02  0.21407617736E+02 -0.28142896437E+02  0.47787267625E+02  0.19999984411E+02 0.  0.
        -12    1    1    2    0    0  0.25165747627E+02 -0.21407617736E+02  0.28142896437E+02  0.43400732375E+02  0.00000000000E+00 0.  1.
         11    1    3    3    0    0 -0.27837155555E+01  0.73482534012E+00  0.12596115261E+01  0.31425566077E+01  0.51100000000E-03 0.  1.
        -11    1    3    3    0    0  0.11714674232E+01  0.53655156991E+01 -0.43600045943E+01  0.70121847497E+01  0.51100000000E-03 0. -1.
         12    1    3    3    0    0 -0.23553499495E+02  0.15307276697E+02 -0.25042503369E+02  0.37632526268E+02  0.00000000000E+00 0. -1.
</event>
<event>
 7    1  0.1427898E-010  0.4778727E+02  0.7816164E-02  0.1312668E+00
        -11   -1    0    0    0    0  0.00000000000E+00  0.00000000000E+00  0.45593999997E+02  0.45594000000E+02  0.51100000000E-03 0.  1.
         11   -1    0    0    0    0 -0.00000000000E+00 -0.00000000000E+00 -0.45593999997E+02  0.45594000000E+02  0.51100000000E-03 0. -1.
    9900012    2    1    2    0    0  0.33309076617E+02  0.30039303590E+01 -0.27660534324E+02  0.47787270262E+02  0.19999996435E+02 0.  0.
        -12    1    1    2    0    0 -0.33309076617E+02 -0.30039303590E+01  0.27660534324E+02  0.43400729738E+02  0.00000000000E+00 0.  1.
         11    1    3    3    0    0  0.15472135598E+02 -0.21621169319E+01 -0.16981337855E+02  0.23074391979E+02  0.51100000000E-03 0. -1.
        -11    1    3    3    0    0  0.82678294266E+01  0.39315638275E+01 -0.11870976948E+02  0.14991140434E+02  0.51100000000E-03 0.  1.
        -12    1    3    3    0    0  0.95691115927E+01  0.12344834634E+01  0.11917804798E+01  0.97217378491E+01  0.00000000000E+00 0.  1.
</event>
<event>
 7    1  0.1427898E-010  0.4778727E+02  0.7816164E-02  0.1312668E+00
        -11   -1    0    0    0    0  0.00000000000E+00  0.00000000000E+00  0.45593999997E+02  0.45594000000E+02  0.51100000000E-03 0. -1.
         11   -1    0    0    0    0 -0.00000000000E+00 -0.00000000000E+00 -0.45593999997E+02  0.45594000000E+02  0.51100000000E-03 0.  1.
    9900012    2    1    2    0    0 -0.22888962748E+02 -0.34971614421E+02  0.11692102032E+02  0.47787266356E+02  0.19999978625E+02 0.  0.
        -12    1    1    2    0    0  0.22888962748E+02  0.34971614421E+02 -0.11692102032E+02  0.43400733644E+02  0.00000000000E+00 0.  1.
         11    1    3    3    0    0 -0.14615973981E+02 -0.14580161868E+02  0.50340652967E+01  0.21249697155E+02  0.51100000000E-03 0. -1.
        -11    1    3    3    0    0 -0.18655931438E+01 -0.92469631011E+01 -0.35942575434E+01  0.10094823026E+02  0.51100000000E-03 0.  1.
         12    1    3    3    0    0 -0.64073956235E+01 -0.11144489451E+02  0.10252294279E+02  0.16442746175E+02  0.00000000000E+00 0. -1.
</event>
<event>
 7    1  0.1427898E-010  0.4778728E+02  0.7816164E-02  0.1312668E+00
        -11   -1    0    0    0    0  0.00000000000E+00  0.00000000000E+00  0.45593999997E+02  0.45594000000E+02  0.51100000000E-03 0.  1.
         11   -1    0    0    0    0 -0.00000000000E+00 -0.00000000000E+00 -0.45593999997E+02  0.45594000000E+02  0.51100000000E-03 0. -1.
    9900012    2    1    2    0    0 -0.99851394786E+01  0.17664053900E+02 -0.38365360954E+02  0.47787277290E+02  0.20000028475E+02 0.  0.
        -12    1    1    2    0    0  0.99851394786E+01 -0.17664053900E+02  0.38365360954E+02  0.43400722710E+02  0.00000000000E+00 0.  1.
         11    1    3    3    0    0  0.12585139775E+01  0.71017741848E+01 -0.25896109242E+02  0.26881732238E+02  0.51100000000E-03 0. -1.
        -11    1    3    3    0    0 -0.43929422290E+01  0.87760551716E+00 -0.14340907928E+01  0.47036953063E+01  0.51100000000E-03 0.  1.
         12    1    3    3    0    0 -0.68507112271E+01  0.96846741982E+01 -0.11035160920E+02  0.16201849745E+02  0.00000000000E+00 0. -1.
</event>
<event>
 7    1  0.1427898E-010  0.4778727E+02  0.7816164E-02  0.1312668E+00
        -11   -1    0    0    0    0  0.00000000000E+00  0.00000000000E+00  0.45593999997E+02  0.45594000000E+02  0.51100000000E-03 0. -1.
         11   -1    0    0    0    0 -0.00000000000E+00 -0.00000000000E+00 -0.45593999997E+02  0.45594000000E+02  0.51100000000E-03 0.  1.
    9900012    2    1    2    0    0 -0.31289856040E+02  0.28631272798E+02  0.92096827851E+01  0.47787272701E+02  0.20000007554E+02 0.  0.
        -12    1    1    2    0    0  0.31289856040E+02 -0.28631272798E+02 -0.92096827851E+01  0.43400727299E+02  0.00000000000E+00 0.  1.
         11    1    3    3    0    0 -0.27379803901E+02  0.26443650203E+02  0.11310211001E+02  0.39709459463E+02  0.51100000000E-03 0. -1.
        -11    1    3    3    0    0 -0.52183997116E+01 -0.34953008875E-01 -0.13125360158E+01  0.53810471394E+01  0.51100000000E-03 0.  1.
        -12    1    3    3    0    0  0.13083475718E+01  0.22225756040E+01 -0.78799220032E+00  0.26967660988E+01  0.00000000000E+00 0.  1.
</event>
<event>
 7    1  0.1427898E-010  0.4778727E+02  0.7816164E-02  0.1312668E+00
        -11   -1    0    0    0    0  0.00000000000E+00  0.00000000000E+00  0.45593999997E+02  0.45594000000E+02  0.51100000000E-03 0.  1.
         11   -1    0    0    0    0 -0.00000000000E+00 -0.00000000000E+00 -0.45593999997E+02  0.45594000000E+02  0.51100000000E-03 0. -1.
    9900012    2    1    2    0    0 -0.11057696327E+02  0.40553976979E+02 -0.10803950685E+02  0.47787273655E+02  0.20000011901E+02 0.  0.
        -12    1    1    2    0    0  0.11057696327E+02 -0.40553976979E+02  0.10803950685E+02  0.43400726345E+02  0.00000000000E+00 0.  1.
         11    1    3    3    0    0 -0.34259916382E+01  0.11580892287E+01  0.61938127538E+00  0.36690901859E+01  0.51100000000E-03 0. -1.
        -11    1    3    3    0    0  0.21222342340E+01  0.25718965194E+02 -0.73498590219E+01  0.26832619639E+02  0.51100000000E-03 0.  1.
        -12    1    3    3    0    0 -0.97539389224E+01  0.13676922557E+02 -0.40734729388E+01  0.17285563830E+02  0.00000000000E+00 0.  1.
</event>
<event>
 7    1  0.1427898E-010  0.4778727E+02  0.7816164E-02  0.1312668E+00
        -11   -1    0    0    0    0  0.00000000000E+00  0.00000000000E+00  0.45593999997E+02  0.45594000000E+02  0.51100000000E-03 0. -1.
         11   -1    0    0    0    0 -0.00000000000E+00 -0.00000000000E+00 -0.45593999997E+02  0.45594000000E+02  0.51100000000E-03 0.  1.
    9900012    2    1    2    0    0  0.33554697911E+01 -0.38357643711E+02  0.20026360298E+02  0.47787272871E+02  0.20000008326E+02 0.  0.
        -12    1    1    2    0    0 -0.33554697911E+01  0.38357643711E+02 -0.20026360298E+02  0.43400727129E+02  0.00000000000E+00 0.  1.
         11    1    3    3    0    0 -0.11656905410E+01 -0.18684328080E+02  0.18040820918E+02  0.25998734005E+02  0.51100000000E-03 0. -1.
        -11    1    3    3    0    0 -0.90533163496E+00 -0.13117235889E+02  0.56746360189E+00  0.13160680755E+02  0.51100000000E-03 0.  1.
        -12    1    3    3    0    0  0.54264919670E+01 -0.65560797421E+01  0.14180757781E+01  0.86278581100E+01  0.00000000000E+00 0.  1.
</event>
<event>
 7    1  0.1427898E-010  0.4778727E+02  0.7816164E-02  0.1312668E+00
        -11   -1    0    0    0    0  0.00000000000E+00  0.00000000000E+00  0.45593999997E+02  0.45594000000E+02  0.51100000000E-03 0.  1.
         11   -1    0    0    0    0 -0.00000000000E+00 -0.00000000000E+00 -0.45593999997E+02  0.45594000000E+02  0.51100000000E-03 0. -1.
    9900012    2    1    2    0    0  0.89365168845E+01 -0.15055709818E+02 -0.39712561409E+02  0.47787271137E+02  0.20000000423E+02 0.  0.
        -12    1    1    2    0    0 -0.89365168845E+01  0.15055709818E+02  0.39712561409E+02  0.43400728863E+02  0.00000000000E+00 0.  1.
         11    1    3    3    0    0  0.31941723893E+01 -0.90457616737E+01 -0.17204442781E+02  0.19698258633E+02  0.51100000000E-03 0. -1.
        -11    1    3    3    0    0  0.81756117595E+01 -0.92569624247E+01 -0.19313642821E+02  0.22924850714E+02  0.51100000000E-03 0.  1.
        -12    1    3    3    0    0 -0.24332672643E+01  0.32470142800E+01 -0.31944758064E+01  0.51641617898E+01  0.00000000000E+00 0.  1.
</event>
<event>
 7    1  0.1427898E-010  0.4778727E+02  0.7816164E-02  0.1312668E+00
        -11   -1    0    0    0    0  0.00000000000E+00  0.00000000000E+00  0.45593999997E+02  0.45594000000E+02  0.51100000000E-03 0.  1.
         11   -1    0    0    0    0 -0.00000000000E+00 -0.00000000000E+00 -0.45593999997E+02  0.45594000000E+02  0.51100000000E-03 0. -1.
    9900012    2    1    2    0    0  0.30588083386E+01  0.13312454091E+01 -0.43272328752E+02  0.47787274679E+02  0.20000016571E+02 0.  0.
        -12    1    1    2    0    0 -0.30588083386E+01 -0.13312454091E+01  0.43272328752E+02  0.43400725321E+02  0.00000000000E+00 0.  1.
         11    1    3    3    0    0  0.97528219498E+00 -0.18278876630E+00 -0.84718183713E+01  0.85297299999E+01  0.51100000000E-03 0. -1.
        -11    1    3    3    0    0  0.20422306753E+01 -0.80653804608E+01 -0.12856701581E+02  0.15313910144E+02  0.51100000000E-03 0.  1.
         12    1    3    3    0    0  0.41295468326E-01  0.95794146362E+01 -0.21943808800E+02  0.23943634534E+02  0.00000000000E+00 0. -1.
</event>
<event>
 7    1  0.1427898E-010  0.4778727E+02  0.7816164E-02  0.1312668E+00
        -11   -1    0    0    0    0  0.00000000000E+00  0.00000000000E+00  0.45593999997E+02  0.45594000000E+02  0.51100000000E-03 0.  1.
         11   -1    0    0    0    0 -0.00000000000E+00 -0.00000000000E+00 -0.45593999997E+02  0.45594000000E+02  0.51100000000E-03 0. -1.
    9900012    2    1    2    0    0 -0.21981148729E+02  0.14890620054E+02 -0.34332515870E+02  0.47787272921E+02  0.20000008555E+02 0.  0.
        -12    1    1    2    0    0  0.21981148729E+02 -0.14890620054E+02  0.34332515870E+02  0.43400727079E+02  0.00000000000E+00 0.  1.
         11    1    3    3    0    0 -0.14019161618E+02  0.16883335826E+02 -0.28000209481E+02  0.35575211206E+02  0.51100000000E-03 0. -1.
        -11    1    3    3    0    0 -0.42639419713E+01  0.14935130327E+01 -0.61040033365E+00  0.45589879515E+01  0.51100000000E-03 0.  1.
         12    1    3    3    0    0 -0.36980451392E+01 -0.34862288040E+01 -0.57219060554E+01  0.76530737637E+01  0.00000000000E+00 0. -1.
</event>
<event>
 7    1  0.1427898E-010  0.4778728E+02  0.7816164E-02  0.1312668E+00
        -11   -1    0    0    0    0  0.00000000000E+00  0.00000000000E+00  0.45593999997E+02  0.45594000000E+02  0.51100000000E-03 0. -1.
         11   -1    0    0    0    0 -0.00000000000E+00 -0.00000000000E+00 -0.45593999997E+02  0.45594000000E+02  0.51100000000E-03 0.  1.
    9900012    2    1    2    0    0  0.19916454651E+02 -0.16562748417E+01  0.38525501838E+02  0.47787277609E+02  0.20000029929E+02 0.  0.
        -12    1    1    2    0    0 -0.19916454651E+02  0.16562748417E+01 -0.38525501838E+02  0.43400722391E+02  0.00000000000E+00 0.  1.
         11    1    3    3    0    0  0.74646178013E+01  0.83585162345E+01  0.11637389591E+02  0.16155932326E+02  0.51100000000E-03 0. -1.
        -11    1    3    3    0    0  0.51043148239E+01 -0.22021490798E+01  0.12548196867E+02  0.13724457558E+02  0.51100000000E-03 0.  1.
        -12    1    3    3    0    0  0.73475220254E+01 -0.78126419964E+01  0.14339915381E+02  0.17906887725E+02  0.00000000000E+00 0.  1.
</event>
<event>
 7    1  0.1427898E-010  0.4778727E+02  0.7816164E-02  0.1312668E+00
        -11   -1    0    0    0    0  0.00000000000E+00  0.00000000000E+00  0.45593999997E+02  0.45594000000E+02  0.51100000000E-03 0.  1.
         11   -1    0    0    0    0 -0.00000000000E+00 -0.00000000000E+00 -0.45593999997E+02  0.45594000000E+02  0.51100000000E-03 0. -1.
    9900012    2    1    2    0    0  0.27089998353E+02 -0.30220145851E+02 -0.15378505547E+02  0.47787266609E+02  0.19999979777E+02 0.  0.
        -12    1    1    2    0    0 -0.27089998353E+02  0.30220145851E+02  0.15378505547E+02  0.43400733391E+02  0.00000000000E+00 0.  1.
         11    1    3    3    0    0  0.26712976086E+02 -0.22394179555E+02 -0.10612958460E+02  0.36437854723E+02  0.51100000000E-03 0. -1.
        -11    1    3    3    0    0 -0.84642779209E+00  0.10206109088E+01 -0.27876906085E+00  0.13549166339E+01  0.51100000000E-03 0.  1.
         12    1    3    3    0    0  0.12234500597E+01 -0.88465772045E+01 -0.44867780259E+01  0.99944952517E+01  0.00000000000E+00 0. -1.
</event>
<event>
 7    1  0.1427898E-010  0.4778727E+02  0.7816164E-02  0.1312668E+00
        -11   -1    0    0    0    0  0.00000000000E+00  0.00000000000E+00  0.45593999997E+02  0.45594000000E+02  0.51100000000E-03 0.  1.
         11   -1    0    0    0    0 -0.00000000000E+00 -0.00000000000E+00 -0.45593999997E+02  0.45594000000E+02  0.51100000000E-03 0. -1.
    9900012    2    1    2    0    0  0.56155681494E+01  0.40501244410E+02 -0.14551212307E+02  0.47787272080E+02  0.20000004721E+02 0.  0.
        -12    1    1    2    0    0 -0.56155681494E+01 -0.40501244410E+02  0.14551212307E+02  0.43400727920E+02  0.00000000000E+00 0.  1.
         11    1    3    3    0    0  0.15133053043E+01  0.91682824371E+00  0.22645331411E+01  0.28738088978E+01  0.51100000000E-03 0.  1.
        -11    1    3    3    0    0 -0.10864069583E+01  0.25731468118E+02 -0.56170139999E+01  0.26359809903E+02  0.51100000000E-03 0. -1.
         12    1    3    3    0    0  0.51886698033E+01  0.13852948049E+02 -0.11198731448E+02  0.18553653279E+02  0.00000000000E+00 0. -1.
</event>
<event>
 7    1  0.1427898E-010  0.4778726E+02  0.7816164E-02  0.1312668E+00
        -11   -1    0    0    0    0  0.00000000000E+00  0.00000000000E+00  0.45593999997E+02  0.45594000000E+02  0.51100000000E-03 0.  1.
         11   -1    0    0    0    0 -0.00000000000E+00 -0.00000000000E+00 -0.45593999997E+02  0.45594000000E+02  0.51100000000E-03 0. -1.
    9900012    2    1    2    0    0 -0.13538189577E+01  0.26492602177E+02 -0.34350156945E+02  0.47787261780E+02  0.19999957760E+02 0.  0.
        -12    1    1    2    0    0  0.13538189577E+01 -0.26492602177E+02  0.34350156945E+02  0.43400738220E+02  0.00000000000E+00 0.  1.
         11    1    3    3    0    0 -0.50743079015E+01  0.21852104867E+02 -0.19467701080E+02  0.29702768783E+02  0.51100000000E-03 0. -1.
        -11    1    3    3    0    0  0.39052719426E+01  0.54112747691E+01 -0.54423439522E+01  0.86111643538E+01  0.51100000000E-03 0.  1.
         12    1    3    3    0    0 -0.18478299879E+00 -0.77077745890E+00 -0.94401119129E+01  0.94733286428E+01  0.00000000000E+00 0. -1.
</event>
<event>
 7    1  0.1427898E-010  0.4778726E+02  0.7816164E-02  0.1312668E+00
        -11   -1    0    0    0    0  0.00000000000E+00  0.00000000000E+00  0.45593999997E+02  0.45594000000E+02  0.51100000000E-03 0.  1.
         11   -1    0    0    0    0 -0.00000000000E+00 -0.00000000000E+00 -0.45593999997E+02  0.45594000000E+02  0.51100000000E-03 0. -1.
    9900012    2    1    2    0    0  0.37571993648E+02 -0.11186037430E+02 -0.18623693702E+02  0.47787261445E+02  0.19999956231E+02 0.  0.
        -12    1    1    2    0    0 -0.37571993648E+02  0.11186037430E+02  0.18623693702E+02  0.43400738555E+02  0.00000000000E+00 0.  1.
         11    1    3    3    0    0  0.14069940455E+02 -0.75179550444E+00 -0.64960358511E+01  0.15515376339E+02  0.51100000000E-03 0. -1.
        -11    1    3    3    0    0  0.12336462310E+00 -0.26823875008E+01 -0.64628546216E+01  0.69984935276E+01  0.51100000000E-03 0.  1.
         12    1    3    3    0    0  0.23378688569E+02 -0.77518544245E+01 -0.56648032293E+01  0.25273391578E+02  0.00000000000E+00 0. -1.
</event>
<event>
 7    1  0.1427898E-010  0.4778728E+02  0.7816164E-02  0.1312668E+00
        -11   -1    0    0    0    0  0.00000000000E+00  0.00000000000E+00  0.45593999997E+02  0.45594000000E+02  0.51100000000E-03 0.  1.
         11   -1    0    0    0    0 -0.00000000000E+00 -0.00000000000E+00 -0.45593999997E+02  0.45594000000E+02  0.51100000000E-03 0. -1.
    9900012    2    1    2    0    0  0.38258175851E+02  0.19937999238E+02 -0.47339638568E+01  0.47787282876E+02  0.20000053945E+02 0.  0.
        -12    1    1    2    0    0 -0.38258175851E+02 -0.19937999238E+02  0.47339638568E+01  0.43400717124E+02  0.00000000000E+00 0.  1.
         11    1    3    3    0    0  0.26820400531E+02  0.14909867455E+02 -0.74416703223E+01  0.31575567923E+02  0.51100000000E-03 0. -1.
        -11    1    3    3    0    0  0.10738023364E+02  0.52376122328E+01 -0.14095643669E+01  0.12030153766E+02  0.51100000000E-03 0.  1.
        -12    1    3    3    0    0  0.69975195632E+00 -0.20948045007E+00  0.41172708324E+01  0.41815611878E+01  0.00000000000E+00 0.  1.
</event>
<event>
 7    1  0.1427898E-010  0.4778726E+02  0.7816164E-02  0.1312668E+00
        -11   -1    0    0    0    0  0.00000000000E+00  0.00000000000E+00  0.45593999997E+02  0.45594000000E+02  0.51100000000E-03 0. -1.
         11   -1    0    0    0    0 -0.00000000000E+00 -0.00000000000E+00 -0.45593999997E+02  0.45594000000E+02  0.51100000000E-03 0.  1.
    9900012    2    1    2    0    0 -0.56691331889E+01 -0.42967534001E+02  0.22970296555E+01  0.47787258134E+02  0.19999941138E+02 0.  0.
        -12    1    1    2    0    0  0.56691331889E+01  0.42967534001E+02 -0.22970296555E+01  0.43400741866E+02  0.00000000000E+00 0.  1.
         11    1    3    3    0    0 -0.10992281417E+01 -0.29159523993E+00  0.40927588616E+00  0.12086510264E+01  0.51100000000E-03 0.  1.
        -11    1    3    3    0    0 -0.88108861028E+01 -0.26009742620E+02  0.75371358135E+01  0.28477128395E+02  0.51100000000E-03 0. -1.
         12    1    3    3    0    0  0.42409810556E+01 -0.16666196141E+02 -0.56493820442E+01  0.18101478713E+02  0.00000000000E+00 0. -1.
</event>
<event>
 7    1  0.1427898E-010  0.4778727E+02  0.7816164E-02  0.1312668E+00
        -11   -1    0    0    0    0  0.00000000000E+00  0.00000000000E+00  0.45593999997E+02  0.45594000000E+02  0.51100000000E-03 0.  1.
         11   -1    0    0    0    0 -0.00000000000E+00 -0.00000000000E+00 -0.45593999997E+02  0.45594000000E+02  0.51100000000E-03 0. -1.
    9900012    2    1    2    0    0 -0.94333542059E+01  0.39922365342E+02 -0.14171808245E+02  0.47787267575E+02  0.19999984183E+02 0.  0.
        -12    1    1    2    0    0  0.94333542059E+01 -0.39922365342E+02  0.14171808245E+02  0.43400732425E+02  0.00000000000E+00 0.  1.
         11    1    3    3    0    0 -0.68526347220E+01  0.57440627588E+01 -0.30125701126E+01  0.94354882521E+01  0.51100000000E-03 0. -1.
        -11    1    3    3    0    0  0.47000577583E+00  0.56679460867E+01 -0.75499139544E+01  0.94523922502E+01  0.51100000000E-03 0.  1.
         12    1    3    3    0    0 -0.30507252597E+01  0.28510356497E+02 -0.36093241775E+01  0.28899387073E+02  0.00000000000E+00 0. -1.
</event>
<event>
 7    1  0.1427898E-010  0.4778727E+02  0.7816164E-02  0.1312668E+00
        -11   -1    0    0    0    0  0.00000000000E+00  0.00000000000E+00  0.45593999997E+02  0.45594000000E+02  0.51100000000E-03 0.  1.
         11   -1    0    0    0    0 -0.00000000000E+00 -0.00000000000E+00 -0.45593999997E+02  0.45594000000E+02  0.51100000000E-03 0. -1.
    9900012    2    1    2    0    0 -0.20869333946E+01  0.80247405611E+01 -0.42601308236E+02  0.47787271717E+02  0.20000003066E+02 0.  0.
        -12    1    1    2    0    0  0.20869333946E+01 -0.80247405611E+01  0.42601308236E+02  0.43400728283E+02  0.00000000000E+00 0.  1.
         11    1    3    3    0    0 -0.52051038746E+01  0.98615464073E+01 -0.40380052019E+02  0.41891428779E+02  0.51100000000E-03 0. -1.
        -11    1    3    3    0    0  0.13333808792E+01  0.73825235879E+00 -0.23030115644E+01  0.27616632019E+01  0.51100000000E-03 0.  1.
        -12    1    3    3    0    0  0.17847896009E+01 -0.25750582049E+01  0.81755346780E-01  0.31341797356E+01  0.00000000000E+00 0.  1.
</event>
<event>
 7    1  0.1427898E-010  0.4778727E+02  0.7816164E-02  0.1312668E+00
        -11   -1    0    0    0    0  0.00000000000E+00  0.00000000000E+00  0.45593999997E+02  0.45594000000E+02  0.51100000000E-03 0.  1.
         11   -1    0    0    0    0 -0.00000000000E+00 -0.00000000000E+00 -0.45593999997E+02  0.45594000000E+02  0.51100000000E-03 0. -1.
    9900012    2    1    2    0    0 -0.58004995191E+01 -0.42738256376E+02  0.48393072769E+01  0.47787271346E+02  0.20000001376E+02 0.  0.
        -12    1    1    2    0    0  0.58004995191E+01  0.42738256376E+02 -0.48393072769E+01  0.43400728654E+02  0.00000000000E+00 0.  1.
         11    1    3    3    0    0 -0.10692950104E+01 -0.13811415686E+02 -0.22037287207E+01  0.14026938925E+02  0.51100000000E-03 0. -1.
        -11    1    3    3    0    0  0.45320393761E+01 -0.11442270822E+02  0.66076105882E+01  0.13968731525E+02  0.51100000000E-03 0.  1.
         12    1    3    3    0    0 -0.92632438848E+01 -0.17484569868E+02  0.43542540938E+00  0.19791600896E+02  0.00000000000E+00 0. -1.
</event>
<event>
 7    1  0.1427898E-010  0.4778727E+02  0.7816164E-02  0.1312668E+00
        -11   -1    0    0    0    0  0.00000000000E+00  0.00000000000E+00  0.45593999997E+02  0.45594000000E+02  0.51100000000E-03 0.  1.
         11   -1    0    0    0    0 -0.00000000000E+00 -0.00000000000E+00 -0.45593999997E+02  0.45594000000E+02  0.51100000000E-03 0. -1.
    9900012    2    1    2    0    0  0.32055044502E+02 -0.20175663958E+02 -0.21190566505E+02  0.47787269557E+02  0.19999993218E+02 0.  0.
        -12    1    1    2    0    0 -0.32055044502E+02  0.20175663958E+02  0.21190566505E+02  0.43400730443E+02  0.00000000000E+00 0.  1.
         11    1    3    3    0    0  0.15647066757E+02 -0.88755482446E+01 -0.11703570599E+02  0.21461118791E+02  0.51100000000E-03 0. -1.
        -11    1    3    3    0    0  0.66735480414E+01 -0.10939590948E+02 -0.10453209598E+02  0.16537245380E+02  0.51100000000E-03 0.  1.
         12    1    3    3    0    0  0.97344297040E+01 -0.36052476524E+00  0.96621369200E+00  0.97889053866E+01  0.00000000000E+00 0. -1.
</event>
<event>
 7    1  0.1427898E-010  0.4778727E+02  0.7816164E-02  0.1312668E+00
        -11   -1    0    0    0    0  0.00000000000E+00  0.00000000000E+00  0.45593999997E+02  0.45594000000E+02  0.51100000000E-03 0.  1.
         11   -1    0    0    0    0 -0.00000000000E+00 -0.00000000000E+00 -0.45593999997E+02  0.45594000000E+02  0.51100000000E-03 0. -1.
    9900012    2    1    2    0    0 -0.39214107211E+02  0.18576659065E+02 -0.88591215536E+00  0.47787270667E+02  0.19999998277E+02 0.  0.
        -12    1    1    2    0    0  0.39214107211E+02 -0.18576659065E+02  0.88591215536E+00  0.43400729333E+02  0.00000000000E+00 0.  1.
         11    1    3    3    0    0 -0.21537119708E+02  0.18572848880E+02 -0.27759102374E+00  0.28440733076E+02  0.51100000000E-03 0. -1.
        -11    1    3    3    0    0 -0.12453994956E+02  0.20297219378E+01  0.26105051133E+01  0.12885515074E+02  0.51100000000E-03 0.  1.
         12    1    3    3    0    0 -0.52229925464E+01 -0.20259117532E+01 -0.32188262450E+01  0.64610225171E+01  0.00000000000E+00 0. -1.
</event>
<event>
 7    1  0.1427898E-010  0.4778727E+02  0.7816164E-02  0.1312668E+00
        -11   -1    0    0    0    0  0.00000000000E+00  0.00000000000E+00  0.45593999997E+02  0.45594000000E+02  0.51100000000E-03 0.  1.
         11   -1    0    0    0    0 -0.00000000000E+00 -0.00000000000E+00 -0.45593999997E+02  0.45594000000E+02  0.51100000000E-03 0. -1.
    9900012    2    1    2    0    0 -0.33215518449E+02 -0.19708985173E+02 -0.19796673134E+02  0.47787273860E+02  0.20000012836E+02 0.  0.
        -12    1    1    2    0    0  0.33215518449E+02  0.19708985173E+02  0.19796673134E+02  0.43400726140E+02  0.00000000000E+00 0.  1.
         11    1    3    3    0    0 -0.42027868564E+01  0.10392240171E+01 -0.70772516157E+00  0.43868301863E+01  0.51100000000E-03 0. -1.
        -11    1    3    3    0    0 -0.42071488300E+01  0.23858429073E+01 -0.40012822840E+01  0.62771496583E+01  0.51100000000E-03 0.  1.
         12    1    3    3    0    0 -0.24805582762E+02 -0.23134052097E+02 -0.15087665688E+02  0.37123294015E+02  0.00000000000E+00 0. -1.
</event>
<event>
 7    1  0.1427898E-010  0.4778728E+02  0.7816164E-02  0.1312668E+00
        -11   -1    0    0    0    0  0.00000000000E+00  0.00000000000E+00  0.45593999997E+02  0.45594000000E+02  0.51100000000E-03 0.  1.
         11   -1    0    0    0    0 -0.00000000000E+00 -0.00000000000E+00 -0.45593999997E+02  0.45594000000E+02  0.51100000000E-03 0. -1.
    9900012    2    1    2    0    0 -0.70286067369E+01 -0.22723294121E+02 -0.36302527674E+02  0.47787275076E+02  0.20000018383E+02 0.  0.
        -12    1    1    2    0    0  0.70286067369E+01  0.22723294121E+02  0.36302527674E+02  0.43400724924E+02  0.00000000000E+00 0.  1.
         11    1    3    3    0    0  0.13804589284E+01 -0.10209227532E+02 -0.23346823611E+02  0.25518780666E+02  0.51100000000E-03 0. -1.
        -11    1    3    3    0    0 -0.17750407630E+01 -0.11076635495E+02 -0.68876664545E+01  0.13163683870E+02  0.51100000000E-03 0.  1.
        -12    1    3    3    0    0 -0.66340249022E+01 -0.14374310934E+01 -0.60680376086E+01  0.91048105401E+01  0.00000000000E+00 0.  1.
</event>
<event>
 7    1  0.1427898E-010  0.4778727E+02  0.7816164E-02  0.1312668E+00
        -11   -1    0    0    0    0  0.00000000000E+00  0.00000000000E+00  0.45593999997E+02  0.45594000000E+02  0.51100000000E-03 0. -1.
         11   -1    0    0    0    0 -0.00000000000E+00 -0.00000000000E+00 -0.45593999997E+02  0.45594000000E+02  0.51100000000E-03 0.  1.
    9900012    2    1    2    0    0 -0.25608871493E+02  0.29493328976E+02 -0.18919640143E+02  0.47787268021E+02  0.19999986213E+02 0.  0.
        -12    1    1    2    0    0  0.25608871493E+02 -0.29493328976E+02  0.18919640143E+02  0.43400731979E+02  0.00000000000E+00 0.  1.
         11    1    3    3    0    0 -0.87545951243E+01  0.11950715448E+02 -0.67321640523E+01  0.16272202328E+02  0.51100000000E-03 0. -1.
        -11    1    3    3    0    0 -0.22850631273E+01 -0.54648216613E+00 -0.74479994716E+01  0.78097920999E+01  0.51100000000E-03 0.  1.
        -12    1    3    3    0    0 -0.14569213241E+02  0.18089095694E+02 -0.47394766188E+01  0.23705273593E+02  0.00000000000E+00 0.  1.
</event>
<event>
 7    1  0.1427898E-010  0.4778727E+02  0.7816164E-02  0.1312668E+00
        -11   -1    0    0    0    0  0.00000000000E+00  0.00000000000E+00  0.45593999997E+02  0.45594000000E+02  0.51100000000E-03 0. -1.
         11   -1    0    0    0    0 -0.00000000000E+00 -0.00000000000E+00 -0.45593999997E+02  0.45594000000E+02  0.51100000000E-03 0.  1.
    9900012    2    1    2    0    0  0.31255228714E+02  0.19347743508E+02  0.23073775522E+02  0.47787267084E+02  0.19999981943E+02 0.  0.
        -12    1    1    2    0    0 -0.31255228714E+02 -0.19347743508E+02 -0.23073775522E+02  0.43400732916E+02  0.00000000000E+00 0.  1.
         11    1    3    3    0    0  0.14781994008E+02  0.14840988217E+02  0.85538168663E+01  0.22625871505E+02  0.51100000000E-03 0. -1.
        -11    1    3    3    0    0  0.30620347496E+01  0.46692180009E+01  0.26688492256E+00  0.55900698896E+01  0.51100000000E-03 0.  1.
        -12    1    3    3    0    0  0.13411199956E+02 -0.16246271027E+00  0.14253073733E+02  0.19571325690E+02  0.00000000000E+00 0.  1.
</event>
<event>
 7    1  0.1427898E-010  0.4778727E+02  0.7816164E-02  0.1312668E+00
        -11   -1    0    0    0    0  0.00000000000E+00  0.00000000000E+00  0.45593999997E+02  0.45594000000E+02  0.51100000000E-03 0. -1.
         11   -1    0    0    0    0 -0.00000000000E+00 -0.00000000000E+00 -0.45593999997E+02  0.45594000000E+02  0.51100000000E-03 0.  1.
    9900012    2    1    2    0    0  0.40115401532E+02 -0.11595284778E+02  0.11829080417E+02  0.47787271750E+02  0.20000003216E+02 0.  0.
        -12    1    1    2    0    0 -0.40115401532E+02  0.11595284778E+02 -0.11829080417E+02  0.43400728250E+02  0.00000000000E+00 0.  1.
         11    1    3    3    0    0  0.11213041485E+02 -0.88125225398E+00  0.51457448968E+01  0.12368815452E+02  0.51100000000E-03 0. -1.
        -11    1    3    3    0    0  0.19684953657E+02 -0.14424041683E+02  0.21540339059E+01  0.24498780404E+02  0.51100000000E-03 0.  1.
        -12    1    3    3    0    0  0.92174063895E+01  0.37100091592E+01  0.45293016138E+01  0.10919675894E+02  0.00000000000E+00 0.  1.
</event>
<event>
 7    1  0.1427898E-010  0.4778727E+02  0.7816164E-02  0.1312668E+00
        -11   -1    0    0    0    0  0.00000000000E+00  0.00000000000E+00  0.45593999997E+02  0.45594000000E+02  0.51100000000E-03 0.  1.
         11   -1    0    0    0    0 -0.00000000000E+00 -0.00000000000E+00 -0.45593999997E+02  0.45594000000E+02  0.51100000000E-03 0. -1.
    9900012    2    1    2    0    0 -0.17473199375E+02  0.10279586779E+02 -0.38374996612E+02  0.47787274595E+02  0.20000016190E+02 0.  0.
        -12    1    1    2    0    0  0.17473199375E+02 -0.10279586779E+02  0.38374996612E+02  0.43400725405E+02  0.00000000000E+00 0.  1.
         11    1    3    3    0    0 -0.11818723289E+02  0.13512819559E+02 -0.19053910637E+02  0.26178808671E+02  0.51100000000E-03 0. -1.
        -11    1    3    3    0    0 -0.19787213553E+01  0.22721260740E+01 -0.70217210528E+01  0.76408417012E+01  0.51100000000E-03 0.  1.
        -12    1    3    3    0    0 -0.36757547300E+01 -0.55053588544E+01 -0.12299364922E+02  0.13967624223E+02  0.00000000000E+00 0.  1.
</event>
<event>
 7    1  0.1427898E-010  0.4778727E+02  0.7816164E-02  0.1312668E+00
        -11   -1    0    0    0    0  0.00000000000E+00  0.00000000000E+00  0.45593999997E+02  0.45594000000E+02  0.51100000000E-03 0.  1.
         11   -1    0    0    0    0 -0.00000000000E+00 -0.00000000000E+00 -0.45593999997E+02  0.45594000000E+02  0.51100000000E-03 0. -1.
    9900012    2    1    2    0    0  0.13048382801E+01  0.43322533023E+02 -0.22535807508E+01  0.47787273086E+02  0.20000009307E+02 0.  0.
        -12    1    1    2    0    0 -0.13048382801E+01 -0.43322533023E+02  0.22535807508E+01  0.43400726914E+02  0.00000000000E+00 0.  1.
         11    1    3    3    0    0 -0.61171719958E-01  0.96430756380E+01 -0.59886239655E+01  0.11351487436E+02  0.51100000000E-03 0. -1.
        -11    1    3    3    0    0  0.45212098763E+01  0.29760164874E+02 -0.11237143111E+00  0.30101850104E+02  0.51100000000E-03 0.  1.
        -12    1    3    3    0    0 -0.31551998763E+01  0.39192925114E+01  0.38474146457E+01  0.63339355464E+01  0.00000000000E+00 0.  1.
</event>
<event>
 7    1  0.1427898E-010  0.4778727E+02  0.7816164E-02  0.1312668E+00
        -11   -1    0    0    0    0  0.00000000000E+00  0.00000000000E+00  0.45593999997E+02  0.45594000000E+02  0.51100000000E-03 0.  1.
         11   -1    0    0    0    0 -0.00000000000E+00 -0.00000000000E+00 -0.45593999997E+02  0.45594000000E+02  0.51100000000E-03 0. -1.
    9900012    2    1    2    0    0 -0.19983116987E+02 -0.16443887346E+02 -0.34841027689E+02  0.47787267218E+02  0.19999982555E+02 0.  0.
        -12    1    1    2    0    0  0.19983116987E+02  0.16443887346E+02  0.34841027689E+02  0.43400732782E+02  0.00000000000E+00 0.  1.
         11    1    3    3    0    0 -0.99248765911E+01 -0.38287580845E+01 -0.75451906694E+01  0.13041950250E+02  0.51100000000E-03 0. -1.
        -11    1    3    3    0    0  0.27379228804E+01 -0.44077721236E+00 -0.77157205645E+00  0.28785117594E+01  0.51100000000E-03 0.  1.
         12    1    3    3    0    0 -0.12796163277E+02 -0.12174352049E+02 -0.26524264963E+02  0.31866805209E+02  0.00000000000E+00 0. -1.
</event>
<event>
 7    1  0.1427898E-010  0.4778730E+02  0.7816164E-02  0.1312668E+00
        -11   -1    0    0    0    0  0.00000000000E+00  0.00000000000E+00  0.45593999997E+02  0.45594000000E+02  0.51100000000E-03 0.  1.
         11   -1    0    0    0    0 -0.00000000000E+00 -0.00000000000E+00 -0.45593999997E+02  0.45594000000E+02  0.51100000000E-03 0. -1.
    9900012    2    1    2    0    0  0.33134378793E+02  0.16861840560E+02 -0.22392226508E+02  0.47787302620E+02  0.20000143966E+02 0.  0.
        -12    1    1    2    0    0 -0.33134378793E+02 -0.16861840560E+02  0.22392226508E+02  0.43400697380E+02  0.00000000000E+00 0.  1.
         11    1    3    3    0    0  0.17614176684E+02  0.10283254017E+02 -0.17947918536E+02  0.27168590568E+02  0.51100000000E-03 0. -1.
        -11    1    3    3    0    0  0.98486879139E-01 -0.23149202992E+01 -0.26284655462E+00  0.23318756891E+01  0.51100000000E-03 0.  1.
        -12    1    3    3    0    0  0.15421715230E+02  0.88935068422E+01 -0.41814614177E+01  0.18286836363E+02  0.00000000000E+00 0.  1.
</event>
<event>
 7    1  0.1427898E-010  0.4778727E+02  0.7816164E-02  0.1312668E+00
        -11   -1    0    0    0    0  0.00000000000E+00  0.00000000000E+00  0.45593999997E+02  0.45594000000E+02  0.51100000000E-03 0.  1.
         11   -1    0    0    0    0 -0.00000000000E+00 -0.00000000000E+00 -0.45593999997E+02  0.45594000000E+02  0.51100000000E-03 0. -1.
    9900012    2    1    2    0    0 -0.25939125603E+02  0.39276226036E+01 -0.34573960810E+02  0.47787271637E+02  0.20000002701E+02 0.  0.
        -12    1    1    2    0    0  0.25939125603E+02 -0.39276226036E+01  0.34573960810E+02  0.43400728363E+02  0.00000000000E+00 0.  1.
         11    1    3    3    0    0 -0.20821053586E+02  0.43743748087E+00 -0.32700884049E+02  0.38769258980E+02  0.51100000000E-03 0. -1.
        -11    1    3    3    0    0 -0.63151465878E+01  0.19683416030E+01 -0.23570886106E+01  0.70222013694E+01  0.51100000000E-03 0.  1.
         12    1    3    3    0    0  0.11970745704E+01  0.15218435197E+01  0.48401184989E+00  0.19958112878E+01  0.00000000000E+00 0. -1.
</event>
<event>
 7    1  0.3253651E-010  0.4778727E+02  0.7816164E-02  0.1312668E+00
        -11   -1    0    0    0    0  0.00000000000E+00  0.00000000000E+00  0.45593999997E+02  0.45594000000E+02  0.51100000000E-03 0.  1.
         11   -1    0    0    0    0 -0.00000000000E+00 -0.00000000000E+00 -0.45593999997E+02  0.45594000000E+02  0.51100000000E-03 0. -1.
    9900012    2    1    2    0    0  0.22434143073E+02  0.14988235322E+02 -0.33995373508E+02  0.47787269667E+02  0.19999993721E+02 0.  0.
        -12    1    1    2    0    0 -0.22434143073E+02 -0.14988235322E+02  0.33995373508E+02  0.43400730333E+02  0.00000000000E+00 0.  1.
         11    1    3    3    0    0  0.64911930514E+01  0.12881959006E+01 -0.14362157483E+02  0.15813494355E+02  0.51100000000E-03 0. -1.
        -11    1    3    3    0    0  0.12333501093E+02  0.15793562523E+02 -0.19244380075E+02  0.27783052947E+02  0.51100000000E-03 0.  1.
        -12    1    3    3    0    0  0.36094489285E+01 -0.20935231009E+01 -0.38883595043E+00  0.41907223646E+01  0.00000000000E+00 0.  1.
</event>
<event>
 7    1  0.1427898E-010  0.4778727E+02  0.7816164E-02  0.1312668E+00
        -11   -1    0    0    0    0  0.00000000000E+00  0.00000000000E+00  0.45593999997E+02  0.45594000000E+02  0.51100000000E-03 0.  1.
         11   -1    0    0    0    0 -0.00000000000E+00 -0.00000000000E+00 -0.45593999997E+02  0.45594000000E+02  0.51100000000E-03 0. -1.
    9900012    2    1    2    0    0  0.19960412945E+02 -0.14581260498E+02 -0.35673404237E+02  0.47787274055E+02  0.20000013728E+02 0.  0.
        -12    1    1    2    0    0 -0.19960412945E+02  0.14581260498E+02  0.35673404237E+02  0.43400725945E+02  0.00000000000E+00 0.  1.
         11    1    3    3    0    0  0.33709917545E+01 -0.33528787852E+01 -0.18649052824E+02  0.19245585287E+02  0.51100000000E-03 0. -1.
        -11    1    3    3    0    0  0.14189834371E+02 -0.11977443421E+02 -0.17984683419E+02  0.25850713498E+02  0.51100000000E-03 0.  1.
         12    1    3    3    0    0  0.23995868195E+01  0.74906170813E+00  0.96033200581E+00  0.26909752708E+01  0.00000000000E+00 0. -1.
</event>
<event>
 7    1  0.1427898E-010  0.4778728E+02  0.7816164E-02  0.1312668E+00
        -11   -1    0    0    0    0  0.00000000000E+00  0.00000000000E+00  0.45593999997E+02  0.45594000000E+02  0.51100000000E-03 0.  1.
         11   -1    0    0    0    0 -0.00000000000E+00 -0.00000000000E+00 -0.45593999997E+02  0.45594000000E+02  0.51100000000E-03 0. -1.
    9900012    2    1    2    0    0  0.20989021747E+02  0.74412899697E+01 -0.37251992745E+02  0.47787276576E+02  0.20000025220E+02 0.  0.
        -12    1    1    2    0    0 -0.20989021747E+02 -0.74412899697E+01  0.37251992745E+02  0.43400723424E+02  0.00000000000E+00 0.  1.
         11    1    3    3    0    0 -0.77531755368E+00  0.14337928601E+01  0.15372870869E+01  0.22405649117E+01  0.51100000000E-03 0.  1.
        -11    1    3    3    0    0  0.81099196373E+01  0.56115745527E+01 -0.12517126428E+02  0.15935464215E+02  0.51100000000E-03 0. -1.
         12    1    3    3    0    0  0.13654419663E+02  0.39592255690E+00 -0.26272153404E+02  0.29611247449E+02  0.00000000000E+00 0. -1.
</event>
<event>
 7    1  0.1427898E-010  0.4778727E+02  0.7816164E-02  0.1312668E+00
        -11   -1    0    0    0    0  0.00000000000E+00  0.00000000000E+00  0.45593999997E+02  0.45594000000E+02  0.51100000000E-03 0.  1.
         11   -1    0    0    0    0 -0.00000000000E+00 -0.00000000000E+00 -0.45593999997E+02  0.45594000000E+02  0.51100000000E-03 0. -1.
    9900012    2    1    2    0    0  0.40609622184E+01 -0.28155344135E+02 -0.32778171144E+02  0.47787270501E+02  0.19999997523E+02 0.  0.
        -12    1    1    2    0    0 -0.40609622184E+01  0.28155344135E+02  0.32778171144E+02  0.43400729499E+02  0.00000000000E+00 0.  1.
         11    1    3    3    0    0  0.34416772266E+01 -0.91035689229E+01 -0.64690877500E+01  0.11686282807E+02  0.51100000000E-03 0. -1.
        -11    1    3    3    0    0  0.51007320506E+01 -0.19055645414E+02 -0.23977641274E+02  0.31049353793E+02  0.51100000000E-03 0.  1.
        -12    1    3    3    0    0 -0.44814470588E+01  0.38702021508E-02 -0.23314421194E+01  0.50516339015E+01  0.00000000000E+00 0.  1.
</event>
<event>
 7    1  0.1427898E-010  0.4778727E+02  0.7816164E-02  0.1312668E+00
        -11   -1    0    0    0    0  0.00000000000E+00  0.00000000000E+00  0.45593999997E+02  0.45594000000E+02  0.51100000000E-03 0.  1.
         11   -1    0    0    0    0 -0.00000000000E+00 -0.00000000000E+00 -0.45593999997E+02  0.45594000000E+02  0.51100000000E-03 0. -1.
    9900012    2    1    2    0    0 -0.17490727559E+02 -0.39657083186E+02  0.22391036140E+01  0.47787269795E+02  0.19999994302E+02 0.  0.
        -12    1    1    2    0    0  0.17490727559E+02  0.39657083186E+02 -0.22391036140E+01  0.43400730205E+02  0.00000000000E+00 0.  1.
         11    1    3    3    0    0 -0.13085021199E+02 -0.17691369048E+02 -0.68373962537E+01  0.23042402357E+02  0.51100000000E-03 0. -1.
        -11    1    3    3    0    0  0.30241088531E+00 -0.26760397820E+01  0.28835693823E+01  0.39455815670E+01  0.51100000000E-03 0.  1.
         12    1    3    3    0    0 -0.47081172452E+01 -0.19289674356E+02  0.61929304854E+01  0.20799285871E+02  0.00000000000E+00 0. -1.
</event>
<event>
 7    1  0.1427898E-010  0.4778729E+02  0.7816164E-02  0.1312668E+00
        -11   -1    0    0    0    0  0.00000000000E+00  0.00000000000E+00  0.45593999997E+02  0.45594000000E+02  0.51100000000E-03 0. -1.
         11   -1    0    0    0    0 -0.00000000000E+00 -0.00000000000E+00 -0.45593999997E+02  0.45594000000E+02  0.51100000000E-03 0.  1.
    9900012    2    1    2    0    0 -0.61328646603E+00 -0.12083564739E+02  0.41680129647E+02  0.47787287281E+02  0.20000074029E+02 0.  0.
        -12    1    1    2    0    0  0.61328646603E+00  0.12083564739E+02 -0.41680129647E+02  0.43400712719E+02  0.00000000000E+00 0.  1.
         11    1    3    3    0    0 -0.63425886958E+00  0.11886167621E+01  0.14267238772E+02  0.14330708166E+02  0.51100000000E-03 0. -1.
        -11    1    3    3    0    0  0.69291768581E+01 -0.66995888837E+01  0.13347283185E+02  0.16463534001E+02  0.51100000000E-03 0.  1.
        -12    1    3    3    0    0 -0.69082044546E+01 -0.65725926173E+01  0.14065607691E+02  0.16993045113E+02  0.00000000000E+00 0.  1.
</event>
<event>
 7    1  0.1427898E-010  0.4778727E+02  0.7816164E-02  0.1312668E+00
        -11   -1    0    0    0    0  0.00000000000E+00  0.00000000000E+00  0.45593999997E+02  0.45594000000E+02  0.51100000000E-03 0. -1.
         11   -1    0    0    0    0 -0.00000000000E+00 -0.00000000000E+00 -0.45593999997E+02  0.45594000000E+02  0.51100000000E-03 0.  1.
    9900012    2    1    2    0    0  0.33251913962E+02  0.17803561313E+02 -0.21470138103E+02  0.47787269502E+02  0.19999992969E+02 0.  0.
        -12    1    1    2    0    0 -0.33251913962E+02 -0.17803561313E+02  0.21470138103E+02  0.43400730498E+02  0.00000000000E+00 0.  1.
         11    1    3    3    0    0  0.20480658309E+02  0.12409798174E+02 -0.32821483691E+01  0.24170911312E+02  0.51100000000E-03 0. -1.
        -11    1    3    3    0    0  0.17818605661E+00  0.18280955095E+01 -0.34297498958E+01  0.38906128144E+01  0.51100000000E-03 0.  1.
         12    1    3    3    0    0  0.12593069597E+02  0.35656676300E+01 -0.14758239838E+02  0.19725745376E+02  0.00000000000E+00 0. -1.
</event>
<event>
 7    1  0.1427898E-010  0.4778727E+02  0.7816164E-02  0.1312668E+00
        -11   -1    0    0    0    0  0.00000000000E+00  0.00000000000E+00  0.45593999997E+02  0.45594000000E+02  0.51100000000E-03 0.  1.
         11   -1    0    0    0    0 -0.00000000000E+00 -0.00000000000E+00 -0.45593999997E+02  0.45594000000E+02  0.51100000000E-03 0. -1.
    9900012    2    1    2    0    0 -0.30353267539E+02 -0.81221929014E+01 -0.29938806521E+02  0.47787274156E+02  0.20000014188E+02 0.  0.
        -12    1    1    2    0    0  0.30353267539E+02  0.81221929014E+01  0.29938806521E+02  0.43400725844E+02  0.00000000000E+00 0.  1.
         11    1    3    3    0    0 -0.10594615039E+02  0.28768736497E+01 -0.52261632036E+01  0.12158743846E+02  0.51100000000E-03 0.  1.
        -11    1    3    3    0    0 -0.73994612360E+01 -0.84806039431E+01 -0.52093366400E+01  0.12402010253E+02  0.51100000000E-03 0. -1.
         12    1    3    3    0    0 -0.12359191265E+02 -0.25184626080E+01 -0.19503306678E+02  0.23226520058E+02  0.00000000000E+00 0. -1.
</event>
<event>
 7    1  0.1427898E-010  0.4778727E+02  0.7816164E-02  0.1312668E+00
        -11   -1    0    0    0    0  0.00000000000E+00  0.00000000000E+00  0.45593999997E+02  0.45594000000E+02  0.51100000000E-03 0. -1.
         11   -1    0    0    0    0 -0.00000000000E+00 -0.00000000000E+00 -0.45593999997E+02  0.45594000000E+02  0.51100000000E-03 0.  1.
    9900012    2    1    2    0    0 -0.87156846247E+01  0.40030943146E+02 -0.14324241942E+02  0.47787268729E+02  0.19999989444E+02 0.  0.
        -12    1    1    2    0    0  0.87156846247E+01 -0.40030943146E+02  0.14324241942E+02  0.43400731271E+02  0.00000000000E+00 0.  1.
         11    1    3    3    0    0 -0.44002825092E+01  0.22729774378E+02  0.17388222054E+01  0.23216990165E+02  0.51100000000E-03 0. -1.
        -11    1    3    3    0    0 -0.21600588622E+01  0.39252009343E+01 -0.68535675857E+01  0.81880672674E+01  0.51100000000E-03 0.  1.
         12    1    3    3    0    0 -0.21553432533E+01  0.13375967834E+02 -0.92094965618E+01  0.16382211296E+02  0.00000000000E+00 0. -1.
</event>
<event>
 7    1  0.1427898E-010  0.4778727E+02  0.7816164E-02  0.1312668E+00
        -11   -1    0    0    0    0  0.00000000000E+00  0.00000000000E+00  0.45593999997E+02  0.45594000000E+02  0.51100000000E-03 0. -1.
         11   -1    0    0    0    0 -0.00000000000E+00 -0.00000000000E+00 -0.45593999997E+02  0.45594000000E+02  0.51100000000E-03 0.  1.
    9900012    2    1    2    0    0 -0.40530686743E+02 -0.80827158238E+01  0.13249775988E+02  0.47787269284E+02  0.19999991972E+02 0.  0.
        -12    1    1    2    0    0  0.40530686743E+02  0.80827158238E+01 -0.13249775988E+02  0.43400730716E+02  0.00000000000E+00 0.  1.
         11    1    3    3    0    0 -0.30400197481E+01 -0.71610900687E+00 -0.24865138809E+01  0.39921527676E+01  0.51100000000E-03 0. -1.
        -11    1    3    3    0    0 -0.15733870338E+02 -0.94874972928E+00 -0.70737608326E+00  0.15778313695E+02  0.51100000000E-03 0.  1.
         12    1    3    3    0    0 -0.21756796657E+02 -0.64178570876E+01  0.16443665952E+02  0.28016802821E+02  0.00000000000E+00 0. -1.
</event>
<event>
 7    1  0.1427898E-010  0.4778728E+02  0.7816164E-02  0.1312668E+00
        -11   -1    0    0    0    0  0.00000000000E+00  0.00000000000E+00  0.45593999997E+02  0.45594000000E+02  0.51100000000E-03 0.  1.
         11   -1    0    0    0    0 -0.00000000000E+00 -0.00000000000E+00 -0.45593999997E+02  0.45594000000E+02  0.51100000000E-03 0. -1.
    9900012    2    1    2    0    0 -0.24173658626E+02 -0.28378159478E+02 -0.22224692133E+02  0.47787278265E+02  0.20000032919E+02 0.  0.
        -12    1    1    2    0    0  0.24173658626E+02  0.28378159478E+02  0.22224692133E+02  0.43400721735E+02  0.00000000000E+00 0.  1.
         11    1    3    3    0    0 -0.14335836212E+02 -0.16699200924E+02 -0.90699054209E+01  0.23804257939E+02  0.51100000000E-03 0. -1.
        -11    1    3    3    0    0  0.20879700682E+01 -0.30145584889E+01  0.72261588807E+00  0.37375601496E+01  0.51100000000E-03 0.  1.
         12    1    3    3    0    0 -0.11925792482E+02 -0.86644000652E+01 -0.13877402600E+02  0.20245460176E+02  0.00000000000E+00 0. -1.
</event>
<event>
 7    1  0.1427898E-010  0.4778727E+02  0.7816164E-02  0.1312668E+00
        -11   -1    0    0    0    0  0.00000000000E+00  0.00000000000E+00  0.45593999997E+02  0.45594000000E+02  0.51100000000E-03 0.  1.
         11   -1    0    0    0    0 -0.00000000000E+00 -0.00000000000E+00 -0.45593999997E+02  0.45594000000E+02  0.51100000000E-03 0. -1.
    9900012    2    1    2    0    0 -0.22299509664E+02  0.34724698800E+02 -0.13436912792E+02  0.47787268861E+02  0.19999990047E+02 0.  0.
        -12    1    1    2    0    0  0.22299509664E+02 -0.34724698800E+02  0.13436912792E+02  0.43400731139E+02  0.00000000000E+00 0.  1.
         11    1    3    3    0    0  0.19279912111E+00 -0.19089992387E+01  0.88407379159E+00  0.21125899566E+01  0.51100000000E-03 0. -1.
        -11    1    3    3    0    0 -0.37617096673E+01  0.38967700181E+01 -0.26043537991E+00  0.54224628209E+01  0.51100000000E-03 0.  1.
         12    1    3    3    0    0 -0.18730599117E+02  0.32736928021E+02 -0.14060551204E+02  0.40252216084E+02  0.00000000000E+00 0. -1.
</event>
<event>
 7    1  0.1427898E-010  0.4778727E+02  0.7816164E-02  0.1312668E+00
        -11   -1    0    0    0    0  0.00000000000E+00  0.00000000000E+00  0.45593999997E+02  0.45594000000E+02  0.51100000000E-03 0.  1.
         11   -1    0    0    0    0 -0.00000000000E+00 -0.00000000000E+00 -0.45593999997E+02  0.45594000000E+02  0.51100000000E-03 0. -1.
    9900012    2    1    2    0    0 -0.18598015159E+02  0.26580049850E+02 -0.28831195710E+02  0.47787273463E+02  0.20000011027E+02 0.  0.
        -12    1    1    2    0    0  0.18598015159E+02 -0.26580049850E+02  0.28831195710E+02  0.43400726537E+02  0.00000000000E+00 0.  1.
         11    1    3    3    0    0 -0.16229793785E+02  0.22018996080E+02 -0.25582615965E+02  0.37452805430E+02  0.51100000000E-03 0. -1.
        -11    1    3    3    0    0  0.72156614801E+00  0.62163548851E+01 -0.25640814067E+01  0.67630052110E+01  0.51100000000E-03 0.  1.
         12    1    3    3    0    0 -0.30897875216E+01 -0.16553011156E+01 -0.68449833847E+00  0.35714628218E+01  0.00000000000E+00 0. -1.
</event>
<event>
 7    1  0.1427898E-010  0.4778724E+02  0.7816164E-02  0.1312668E+00
        -11   -1    0    0    0    0  0.00000000000E+00  0.00000000000E+00  0.45593999997E+02  0.45594000000E+02  0.51100000000E-03 0.  1.
         11   -1    0    0    0    0 -0.00000000000E+00 -0.00000000000E+00 -0.45593999997E+02  0.45594000000E+02  0.51100000000E-03 0. -1.
    9900012    2    1    2    0    0 -0.33745704834E+02 -0.16144096745E+02 -0.22005028059E+02  0.47787242929E+02  0.19999871811E+02 0.  0.
        -12    1    1    2    0    0  0.33745704834E+02  0.16144096745E+02  0.22005028059E+02  0.43400757071E+02  0.00000000000E+00 0.  1.
         11    1    3    3    0    0 -0.26303943607E+02 -0.14558028726E+02 -0.24155687081E+02  0.38565928853E+02  0.51100000000E-03 0. -1.
        -11    1    3    3    0    0 -0.57633010633E+01 -0.30171220732E+01  0.61627608065E+00  0.65344059576E+01  0.51100000000E-03 0.  1.
        -12    1    3    3    0    0 -0.16784601633E+01  0.14310540538E+01  0.15343829420E+01  0.26869081185E+01  0.00000000000E+00 0.  1.
</event>
<event>
 7    1  0.1427898E-010  0.4778727E+02  0.7816164E-02  0.1312668E+00
        -11   -1    0    0    0    0  0.00000000000E+00  0.00000000000E+00  0.45593999997E+02  0.45594000000E+02  0.51100000000E-03 0.  1.
         11   -1    0    0    0    0 -0.00000000000E+00 -0.00000000000E+00 -0.45593999997E+02  0.45594000000E+02  0.51100000000E-03 0. -1.
    9900012    2    1    2    0    0  0.22803579237E+02  0.19531513435E+02 -0.31339110926E+02  0.47787272856E+02  0.20000008258E+02 0.  0.
        -12    1    1    2    0    0 -0.22803579237E+02 -0.19531513435E+02  0.31339110926E+02  0.43400727144E+02  0.00000000000E+00 0.  1.
         11    1    3    3    0    0  0.65682742852E+00 -0.52616214901E+00 -0.74836207706E+01  0.75307933830E+01  0.51100000000E-03 0. -1.
        -11    1    3    3    0    0  0.49579385448E+01  0.35744454264E+01 -0.12410899496E+02  0.13834313907E+02  0.51100000000E-03 0.  1.
        -12    1    3    3    0    0  0.17188813263E+02  0.16483230157E+02 -0.11444590660E+02  0.26422165566E+02  0.00000000000E+00 0.  1.
</event>
<event>
 7    1  0.1427898E-010  0.4778727E+02  0.7816164E-02  0.1312668E+00
        -11   -1    0    0    0    0  0.00000000000E+00  0.00000000000E+00  0.45593999997E+02  0.45594000000E+02  0.51100000000E-03 0. -1.
         11   -1    0    0    0    0 -0.00000000000E+00 -0.00000000000E+00 -0.45593999997E+02  0.45594000000E+02  0.51100000000E-03 0.  1.
    9900012    2    1    2    0    0 -0.94741442199E+01 -0.29346657767E+02  0.30539117765E+02  0.47787269077E+02  0.19999991030E+02 0.  0.
        -12    1    1    2    0    0  0.94741442199E+01  0.29346657767E+02 -0.30539117765E+02  0.43400730923E+02  0.00000000000E+00 0.  1.
         11    1    3    3    0    0 -0.52621371521E+01 -0.21337266873E+01  0.52682155471E+01  0.77457712525E+01  0.51100000000E-03 0. -1.
        -11    1    3    3    0    0  0.52292065519E+01 -0.71678990087E+01  0.80300566593E+01  0.11966836991E+02  0.51100000000E-03 0.  1.
        -12    1    3    3    0    0 -0.94412136197E+01 -0.20045032071E+02  0.17240845558E+02  0.28074660833E+02  0.00000000000E+00 0.  1.
</event>
<event>
 7    1  0.1427898E-010  0.4778728E+02  0.7816164E-02  0.1312668E+00
        -11   -1    0    0    0    0  0.00000000000E+00  0.00000000000E+00  0.45593999997E+02  0.45594000000E+02  0.51100000000E-03 0. -1.
         11   -1    0    0    0    0 -0.00000000000E+00 -0.00000000000E+00 -0.45593999997E+02  0.45594000000E+02  0.51100000000E-03 0.  1.
    9900012    2    1    2    0    0 -0.17266425533E+02  0.34096639102E+02  0.20564840676E+02  0.47787275112E+02  0.20000018548E+02 0.  0.
        -12    1    1    2    0    0  0.17266425533E+02 -0.34096639102E+02 -0.20564840676E+02  0.43400724888E+02  0.00000000000E+00 0.  1.
         11    1    3    3    0    0 -0.41703036637E+01  0.65591255345E+01  0.38373123040E-01  0.77727108001E+01  0.51100000000E-03 0. -1.
        -11    1    3    3    0    0 -0.70079512901E+01  0.65487882090E+01  0.14428784536E+02  0.17325929462E+02  0.51100000000E-03 0.  1.
        -12    1    3    3    0    0 -0.60881705790E+01  0.20988725359E+02  0.60976830166E+01  0.22688634850E+02  0.00000000000E+00 0.  1.
</event>
<event>
 7    1  0.1427898E-010  0.4778727E+02  0.7816164E-02  0.1312668E+00
        -11   -1    0    0    0    0  0.00000000000E+00  0.00000000000E+00  0.45593999997E+02  0.45594000000E+02  0.51100000000E-03 0. -1.
         11   -1    0    0    0    0 -0.00000000000E+00 -0.00000000000E+00 -0.45593999997E+02  0.45594000000E+02  0.51100000000E-03 0.  1.
    9900012    2    1    2    0    0 -0.21262900056E+02 -0.28513603451E+02  0.24869400951E+02  0.47787267239E+02  0.19999982649E+02 0.  0.
        -12    1    1    2    0    0  0.21262900056E+02  0.28513603451E+02 -0.24869400951E+02  0.43400732761E+02  0.00000000000E+00 0.  1.
         11    1    3    3    0    0 -0.48287350428E+01 -0.96654710861E+01  0.10702998907E+02  0.15208293767E+02  0.51100000000E-03 0. -1.
        -11    1    3    3    0    0 -0.14765814351E+02 -0.53819131675E+01  0.66290593240E+01  0.17056925003E+02  0.51100000000E-03 0.  1.
        -12    1    3    3    0    0 -0.16683506626E+01 -0.13466219197E+02  0.75373427201E+01  0.15522048469E+02  0.00000000000E+00 0.  1.
</event>
<event>
 7    1  0.1427898E-010  0.4778727E+02  0.7816164E-02  0.1312668E+00
        -11   -1    0    0    0    0  0.00000000000E+00  0.00000000000E+00  0.45593999997E+02  0.45594000000E+02  0.51100000000E-03 0.  1.
         11   -1    0    0    0    0 -0.00000000000E+00 -0.00000000000E+00 -0.45593999997E+02  0.45594000000E+02  0.51100000000E-03 0. -1.
    9900012    2    1    2    0    0 -0.55086446160E+01 -0.11993549053E+02 -0.41345291503E+02  0.47787268280E+02  0.19999987395E+02 0.  0.
        -12    1    1    2    0    0  0.55086446160E+01  0.11993549053E+02  0.41345291503E+02  0.43400731720E+02  0.00000000000E+00 0.  1.
         11    1    3    3    0    0 -0.89816857693E+00 -0.77013874669E+01 -0.28807085150E+02  0.29832301803E+02  0.51100000000E-03 0. -1.
        -11    1    3    3    0    0  0.30877599172E+01 -0.30865934094E+01 -0.18831996672E+01  0.47547619739E+01  0.51100000000E-03 0.  1.
        -12    1    3    3    0    0 -0.76982359563E+01 -0.12055681769E+01 -0.10655006685E+02  0.13200204503E+02  0.00000000000E+00 0.  1.
</event>
<event>
 7    1  0.1427898E-010  0.4778727E+02  0.7816164E-02  0.1312668E+00
        -11   -1    0    0    0    0  0.00000000000E+00  0.00000000000E+00  0.45593999997E+02  0.45594000000E+02  0.51100000000E-03 0.  1.
         11   -1    0    0    0    0 -0.00000000000E+00 -0.00000000000E+00 -0.45593999997E+02  0.45594000000E+02  0.51100000000E-03 0. -1.
    9900012    2    1    2    0    0 -0.24016885527E+02 -0.30562381748E+02 -0.19306821966E+02  0.47787270249E+02  0.19999996372E+02 0.  0.
        -12    1    1    2    0    0  0.24016885527E+02  0.30562381748E+02  0.19306821966E+02  0.43400729751E+02  0.00000000000E+00 0.  1.
         11    1    3    3    0    0 -0.15116350936E+02 -0.97137274457E+01 -0.68248611681E+01  0.19220803748E+02  0.51100000000E-03 0. -1.
        -11    1    3    3    0    0 -0.44368189944E+01 -0.64119146122E+00 -0.45959929000E+01  0.64202523531E+01  0.51100000000E-03 0.  1.
         12    1    3    3    0    0 -0.44637155973E+01 -0.20207462841E+02 -0.78859678979E+01  0.22146214148E+02  0.00000000000E+00 0. -1.
</event>
<event>
 7    1  0.1427898E-010  0.4778728E+02  0.7816164E-02  0.1312668E+00
        -11   -1    0    0    0    0  0.00000000000E+00  0.00000000000E+00  0.45593999997E+02  0.45594000000E+02  0.51100000000E-03 0.  1.
         11   -1    0    0    0    0 -0.00000000000E+00 -0.00000000000E+00 -0.45593999997E+02  0.45594000000E+02  0.51100000000E-03 0. -1.
    9900012    2    1    2    0    0  0.96027018083E+01  0.41885602183E+02 -0.60833385967E+01  0.47787279260E+02  0.20000037457E+02 0.  0.
        -12    1    1    2    0    0 -0.96027018083E+01 -0.41885602183E+02  0.60833385967E+01  0.43400720740E+02  0.00000000000E+00 0.  1.
         11    1    3    3    0    0  0.22847074047E+00  0.15602453580E+02  0.48386510119E+01  0.16337114203E+02  0.51100000000E-03 0. -1.
        -11    1    3    3    0    0  0.25283918508E+00  0.50783394338E+01 -0.59695152289E+01  0.78414648752E+01  0.51100000000E-03 0.  1.
         12    1    3    3    0    0  0.91213918828E+01  0.21204809169E+02 -0.49524743797E+01  0.23608700182E+02  0.00000000000E+00 0. -1.
</event>
<event>
 7    1  0.1427898E-010  0.4778727E+02  0.7816164E-02  0.1312668E+00
        -11   -1    0    0    0    0  0.00000000000E+00  0.00000000000E+00  0.45593999997E+02  0.45594000000E+02  0.51100000000E-03 0. -1.
         11   -1    0    0    0    0 -0.00000000000E+00 -0.00000000000E+00 -0.45593999997E+02  0.45594000000E+02  0.51100000000E-03 0.  1.
    9900012    2    1    2    0    0  0.20113617629E+02 -0.14888055614E+02  0.35459995133E+02  0.47787273406E+02  0.20000010768E+02 0.  0.
        -12    1    1    2    0    0 -0.20113617629E+02  0.14888055614E+02 -0.35459995133E+02  0.43400726594E+02  0.00000000000E+00 0.  1.
         11    1    3    3    0    0 -0.33146934977E+00 -0.10734128350E+01  0.10815903985E+02  0.10874091517E+02  0.51100000000E-03 0. -1.
        -11    1    3    3    0    0  0.11736860204E+02 -0.84796898379E+00  0.90833318710E+01  0.14865391249E+02  0.51100000000E-03 0.  1.
        -12    1    3    3    0    0  0.87082267747E+01 -0.12966673795E+02  0.15560759276E+02  0.22047790640E+02  0.00000000000E+00 0.  1.
</event>
<event>
 7    1  0.1427898E-010  0.4778727E+02  0.7816164E-02  0.1312668E+00
        -11   -1    0    0    0    0  0.00000000000E+00  0.00000000000E+00  0.45593999997E+02  0.45594000000E+02  0.51100000000E-03 0.  1.
         11   -1    0    0    0    0 -0.00000000000E+00 -0.00000000000E+00 -0.45593999997E+02  0.45594000000E+02  0.51100000000E-03 0. -1.
    9900012    2    1    2    0    0  0.29865903881E+02 -0.25495495801E+02 -0.18483250461E+02  0.47787273412E+02  0.20000010794E+02 0.  0.
        -12    1    1    2    0    0 -0.29865903881E+02  0.25495495801E+02  0.18483250461E+02  0.43400726588E+02  0.00000000000E+00 0.  1.
         11    1    3    3    0    0  0.24598090732E+01 -0.71669433599E+01 -0.71020355042E+01  0.10385309161E+02  0.51100000000E-03 0. -1.
        -11    1    3    3    0    0  0.14096477192E+02 -0.15075075990E+02 -0.18715432353E+01  0.20723688371E+02  0.51100000000E-03 0.  1.
        -12    1    3    3    0    0  0.13309617615E+02 -0.32534764510E+01 -0.95096717211E+01  0.16678275880E+02  0.00000000000E+00 0.  1.
</event>
<event>
 7    1  0.1427898E-010  0.4778726E+02  0.7816164E-02  0.1312668E+00
        -11   -1    0    0    0    0  0.00000000000E+00  0.00000000000E+00  0.45593999997E+02  0.45594000000E+02  0.51100000000E-03 0.  1.
         11   -1    0    0    0    0 -0.00000000000E+00 -0.00000000000E+00 -0.45593999997E+02  0.45594000000E+02  0.51100000000E-03 0. -1.
    9900012    2    1    2    0    0 -0.17776308347E+02  0.39416260559E+02  0.37396753792E+01  0.47787263752E+02  0.19999966751E+02 0.  0.
        -12    1    1    2    0    0  0.17776308347E+02 -0.39416260559E+02 -0.37396753792E+01  0.43400736248E+02  0.00000000000E+00 0.  1.
         11    1    3    3    0    0 -0.10271062263E+02  0.49959327889E+01 -0.25461998992E+01  0.11702016861E+02  0.51100000000E-03 0. -1.
        -11    1    3    3    0    0 -0.43423613932E+01  0.13158246257E+02  0.42481370252E+01  0.14492833246E+02  0.51100000000E-03 0.  1.
         12    1    3    3    0    0 -0.31628846907E+01  0.21262081513E+02  0.20377382533E+01  0.21592413645E+02  0.00000000000E+00 0. -1.
</event>
<event>
 7    1  0.1427898E-010  0.4778727E+02  0.7816164E-02  0.1312668E+00
        -11   -1    0    0    0    0  0.00000000000E+00  0.00000000000E+00  0.45593999997E+02  0.45594000000E+02  0.51100000000E-03 0.  1.
         11   -1    0    0    0    0 -0.00000000000E+00 -0.00000000000E+00 -0.45593999997E+02  0.45594000000E+02  0.51100000000E-03 0. -1.
    9900012    2    1    2    0    0 -0.22080974002E+02  0.21077556932E+02 -0.30851101962E+02  0.47787270613E+02  0.19999998031E+02 0.  0.
        -12    1    1    2    0    0  0.22080974002E+02 -0.21077556932E+02  0.30851101962E+02  0.43400729387E+02  0.00000000000E+00 0.  1.
         11    1    3    3    0    0 -0.93652509661E+01  0.90057815389E+01 -0.23516869436E+01  0.13203880434E+02  0.51100000000E-03 0. -1.
        -11    1    3    3    0    0  0.41407430922E+00  0.56167506465E+00 -0.63071694571E+01  0.63456538854E+01  0.51100000000E-03 0.  1.
        -12    1    3    3    0    0 -0.13129797345E+02  0.11510100328E+02 -0.22192245561E+02  0.28237736293E+02  0.00000000000E+00 0.  1.
</event>
<event>
 7    1  0.1427898E-010  0.4778727E+02  0.7816164E-02  0.1312668E+00
        -11   -1    0    0    0    0  0.00000000000E+00  0.00000000000E+00  0.45593999997E+02  0.45594000000E+02  0.51100000000E-03 0.  1.
         11   -1    0    0    0    0 -0.00000000000E+00 -0.00000000000E+00 -0.45593999997E+02  0.45594000000E+02  0.51100000000E-03 0. -1.
    9900012    2    1    2    0    0 -0.28629353974E+02 -0.96959759669E+01 -0.31144359815E+02  0.47787274117E+02  0.20000014008E+02 0.  0.
        -12    1    1    2    0    0  0.28629353974E+02  0.96959759669E+01  0.31144359815E+02  0.43400725883E+02  0.00000000000E+00 0.  1.
         11    1    3    3    0    0 -0.19386156501E+02 -0.51025528754E+01 -0.15102426280E+02  0.25098653142E+02  0.51100000000E-03 0. -1.
        -11    1    3    3    0    0 -0.30499618313E+01  0.26503143528E+01 -0.13207776932E-01  0.40406197603E+01  0.51100000000E-03 0.  1.
         12    1    3    3    0    0 -0.61932356417E+01 -0.72437374443E+01 -0.16028725758E+02  0.18648001215E+02  0.00000000000E+00 0. -1.
</event>
<event>
 7    1  0.1427898E-010  0.4778727E+02  0.7816164E-02  0.1312668E+00
        -11   -1    0    0    0    0  0.00000000000E+00  0.00000000000E+00  0.45593999997E+02  0.45594000000E+02  0.51100000000E-03 0.  1.
         11   -1    0    0    0    0 -0.00000000000E+00 -0.00000000000E+00 -0.45593999997E+02  0.45594000000E+02  0.51100000000E-03 0. -1.
    9900012    2    1    2    0    0  0.58426755478E+01 -0.27831705901E+02 -0.32785404344E+02  0.47787269028E+02  0.19999990805E+02 0.  0.
        -12    1    1    2    0    0 -0.58426755478E+01  0.27831705901E+02  0.32785404344E+02  0.43400730972E+02  0.00000000000E+00 0.  1.
         11    1    3    3    0    0 -0.23728389394E+01 -0.36529966586E+00 -0.41511643818E+00  0.24364175333E+01  0.51100000000E-03 0. -1.
        -11    1    3    3    0    0 -0.50251565770E+00 -0.39229997116E+01  0.50334768105E+00  0.39869547116E+01  0.51100000000E-03 0.  1.
         12    1    3    3    0    0  0.87180301449E+01 -0.23543406524E+02 -0.32873635587E+02  0.41363896783E+02  0.00000000000E+00 0. -1.
</event>
<event>
 7    1  0.1427898E-010  0.4778727E+02  0.7816164E-02  0.1312668E+00
        -11   -1    0    0    0    0  0.00000000000E+00  0.00000000000E+00  0.45593999997E+02  0.45594000000E+02  0.51100000000E-03 0.  1.
         11   -1    0    0    0    0 -0.00000000000E+00 -0.00000000000E+00 -0.45593999997E+02  0.45594000000E+02  0.51100000000E-03 0. -1.
    9900012    2    1    2    0    0  0.25915073875E+02 -0.32231004253E+02 -0.13160338853E+02  0.47787271805E+02  0.20000003467E+02 0.  0.
        -12    1    1    2    0    0 -0.25915073875E+02  0.32231004253E+02  0.13160338853E+02  0.43400728195E+02  0.00000000000E+00 0.  1.
         11    1    3    3    0    0  0.15180840084E+02 -0.23122010939E+02 -0.76387099262E+01  0.28695560373E+02  0.51100000000E-03 0. -1.
        -11    1    3    3    0    0 -0.12913383712E+01 -0.43819733850E+01 -0.40168520653E+01  0.60831197844E+01  0.51100000000E-03 0.  1.
        -12    1    3    3    0    0  0.12025572163E+02 -0.47270199291E+01 -0.15047768619E+01  0.13008591648E+02  0.00000000000E+00 0.  1.
</event>
<event>
 7    1  0.1427898E-010  0.4778728E+02  0.7816164E-02  0.1312668E+00
        -11   -1    0    0    0    0  0.00000000000E+00  0.00000000000E+00  0.45593999997E+02  0.45594000000E+02  0.51100000000E-03 0.  1.
         11   -1    0    0    0    0 -0.00000000000E+00 -0.00000000000E+00 -0.45593999997E+02  0.45594000000E+02  0.51100000000E-03 0. -1.
    9900012    2    1    2    0    0 -0.63190656637E+01 -0.11180828761E+02 -0.41456973146E+02  0.47787284049E+02  0.20000059292E+02 0.  0.
        -12    1    1    2    0    0  0.63190656637E+01  0.11180828761E+02  0.41456973146E+02  0.43400715951E+02  0.00000000000E+00 0.  1.
         11    1    3    3    0    0 -0.40105527241E+01 -0.56735134193E+01 -0.12575841780E+02  0.14367500980E+02  0.51100000000E-03 0. -1.
        -11    1    3    3    0    0 -0.83457163693E+01 -0.43125094056E+01 -0.10768659284E+02  0.14290302380E+02  0.51100000000E-03 0.  1.
        -12    1    3    3    0    0  0.60372034298E+01 -0.11948059359E+01 -0.18112472083E+02  0.19129480689E+02  0.00000000000E+00 0.  1.
</event>
<event>
 7    1  0.1427898E-010  0.4778727E+02  0.7816164E-02  0.1312668E+00
        -11   -1    0    0    0    0  0.00000000000E+00  0.00000000000E+00  0.45593999997E+02  0.45594000000E+02  0.51100000000E-03 0.  1.
         11   -1    0    0    0    0 -0.00000000000E+00 -0.00000000000E+00 -0.45593999997E+02  0.45594000000E+02  0.51100000000E-03 0. -1.
    9900012    2    1    2    0    0 -0.84586269792E+01 -0.95080500200E+01 -0.41493032743E+02  0.47787272451E+02  0.20000006415E+02 0.  0.
        -12    1    1    2    0    0  0.84586269792E+01  0.95080500200E+01  0.41493032743E+02  0.43400727549E+02  0.00000000000E+00 0.  1.
         11    1    3    3    0    0  0.25731147002E+01 -0.60021778120E+01 -0.15242548955E+02  0.16582591977E+02  0.51100000000E-03 0. -1.
        -11    1    3    3    0    0  0.23540035792E+01 -0.24985178835E+01 -0.58903480398E+01  0.68176333691E+01  0.51100000000E-03 0.  1.
         12    1    3    3    0    0 -0.13385745259E+02 -0.10073543246E+01 -0.20360135748E+02  0.24387047106E+02  0.00000000000E+00 0. -1.
</event>
<event>
 7    1  0.1427898E-010  0.4778728E+02  0.7816164E-02  0.1312668E+00
        -11   -1    0    0    0    0  0.00000000000E+00  0.00000000000E+00  0.45593999997E+02  0.45594000000E+02  0.51100000000E-03 0.  1.
         11   -1    0    0    0    0 -0.00000000000E+00 -0.00000000000E+00 -0.45593999997E+02  0.45594000000E+02  0.51100000000E-03 0. -1.
    9900012    2    1    2    0    0 -0.29985972556E+02 -0.30168158629E+02  0.86224158007E+01  0.47787281119E+02  0.20000045932E+02 0.  0.
        -12    1    1    2    0    0  0.29985972556E+02  0.30168158629E+02 -0.86224158007E+01  0.43400718881E+02  0.00000000000E+00 0.  1.
         11    1    3    3    0    0 -0.22767911438E+02 -0.29913535602E+02  0.31945417637E+01  0.37728006849E+02  0.51100000000E-03 0. -1.
        -11    1    3    3    0    0 -0.58901740726E+01 -0.15315467949E+01  0.24563775128E+01  0.65630463153E+01  0.51100000000E-03 0.  1.
         12    1    3    3    0    0 -0.13278870455E+01  0.12769237680E+01  0.29714965243E+01  0.34962279543E+01  0.00000000000E+00 0. -1.
</event>
<event>
 7    1  0.1427898E-010  0.4778728E+02  0.7816164E-02  0.1312668E+00
        -11   -1    0    0    0    0  0.00000000000E+00  0.00000000000E+00  0.45593999997E+02  0.45594000000E+02  0.51100000000E-03 0. -1.
         11   -1    0    0    0    0 -0.00000000000E+00 -0.00000000000E+00 -0.45593999997E+02  0.45594000000E+02  0.51100000000E-03 0.  1.
    9900012    2    1    2    0    0  0.41646780822E+02 -0.11327434635E+02  0.45670258374E+01  0.47787275890E+02  0.20000022092E+02 0.  0.
        -12    1    1    2    0    0 -0.41646780822E+02  0.11327434635E+02 -0.45670258374E+01  0.43400724110E+02  0.00000000000E+00 0.  1.
         11    1    3    3    0    0  0.15107792343E+02 -0.79845586959E+01  0.94535772152E+01  0.19528663279E+02  0.51100000000E-03 0. -1.
        -11    1    3    3    0    0  0.27656503900E+01 -0.10403272970E+01 -0.31378057171E+01  0.43100960481E+01  0.51100000000E-03 0.  1.
         12    1    3    3    0    0  0.23773338089E+02 -0.23025486425E+01 -0.17487456607E+01  0.23948516563E+02  0.00000000000E+00 0. -1.
</event>
<event>
 7    1  0.1427898E-010  0.4778729E+02  0.7816164E-02  0.1312668E+00
        -11   -1    0    0    0    0  0.00000000000E+00  0.00000000000E+00  0.45593999997E+02  0.45594000000E+02  0.51100000000E-03 0. -1.
         11   -1    0    0    0    0 -0.00000000000E+00 -0.00000000000E+00 -0.45593999997E+02  0.45594000000E+02  0.51100000000E-03 0.  1.
    9900012    2    1    2    0    0 -0.25727624279E+02  0.20576588783E+02 -0.28254466739E+02  0.47787290931E+02  0.20000090670E+02 0.  0.
        -12    1    1    2    0    0  0.25727624279E+02 -0.20576588783E+02  0.28254466739E+02  0.43400709069E+02  0.00000000000E+00 0.  1.
         11    1    3    3    0    0 -0.16333702226E+02  0.79915389772E+01 -0.56794190243E+01  0.19050205362E+02  0.51100000000E-03 0. -1.
        -11    1    3    3    0    0 -0.10586442543E+02  0.12518844334E+02 -0.19738584524E+02  0.25659422215E+02  0.51100000000E-03 0.  1.
        -12    1    3    3    0    0  0.11925204896E+01  0.66205471697E-01 -0.28364631912E+01  0.30776633535E+01  0.00000000000E+00 0.  1.
</event>
<event>
 7    1  0.1427898E-010  0.4778727E+02  0.7816164E-02  0.1312668E+00
        -11   -1    0    0    0    0  0.00000000000E+00  0.00000000000E+00  0.45593999997E+02  0.45594000000E+02  0.51100000000E-03 0.  1.
         11   -1    0    0    0    0 -0.00000000000E+00 -0.00000000000E+00 -0.45593999997E+02  0.45594000000E+02  0.51100000000E-03 0. -1.
    9900012    2    1    2    0    0  0.16474272044E+02 -0.24179741241E+02 -0.32055604075E+02  0.47787270992E+02  0.19999999760E+02 0.  0.
        -12    1    1    2    0    0 -0.16474272044E+02  0.24179741241E+02  0.32055604075E+02  0.43400729008E+02  0.00000000000E+00 0.  1.
         11    1    3    3    0    0  0.10699754571E+02 -0.14817350111E+02 -0.25256953422E+02  0.31176149676E+02  0.51100000000E-03 0. -1.
        -11    1    3    3    0    0  0.60201570408E+01 -0.95648236138E+01 -0.89624315343E+01  0.14424053550E+02  0.51100000000E-03 0.  1.
        -12    1    3    3    0    0 -0.24563956768E+00  0.20243248414E+00  0.21637808814E+01  0.21870677654E+01  0.00000000000E+00 0.  1.
</event>
<event>
 7    1  0.1427898E-010  0.4778727E+02  0.7816164E-02  0.1312668E+00
        -11   -1    0    0    0    0  0.00000000000E+00  0.00000000000E+00  0.45593999997E+02  0.45594000000E+02  0.51100000000E-03 0.  1.
         11   -1    0    0    0    0 -0.00000000000E+00 -0.00000000000E+00 -0.45593999997E+02  0.45594000000E+02  0.51100000000E-03 0. -1.
    9900012    2    1    2    0    0  0.21879161690E+02 -0.12908474467E+02 -0.35189444814E+02  0.47787268950E+02  0.19999990452E+02 0.  0.
        -12    1    1    2    0    0 -0.21879161690E+02  0.12908474467E+02  0.35189444814E+02  0.43400731050E+02  0.00000000000E+00 0.  1.
         11    1    3    3    0    0  0.17422703025E+02 -0.77244491419E+01 -0.15392217637E+02  0.24497715389E+02  0.51100000000E-03 0. -1.
        -11    1    3    3    0    0  0.62919037596E+01 -0.49470697495E+01 -0.19886469266E+02  0.21436725780E+02  0.51100000000E-03 0.  1.
        -12    1    3    3    0    0 -0.18354450944E+01 -0.23695557570E+00  0.89242088645E-01  0.18528277820E+01  0.00000000000E+00 0.  1.
</event>
<event>
 7    1  0.1887320E-010  0.4778727E+02  0.7816164E-02  0.1312668E+00
        -11   -1    0    0    0    0  0.00000000000E+00  0.00000000000E+00  0.45593999997E+02  0.45594000000E+02  0.51100000000E-03 0. -1.
         11   -1    0    0    0    0 -0.00000000000E+00 -0.00000000000E+00 -0.45593999997E+02  0.45594000000E+02  0.51100000000E-03 0.  1.
    9900012    2    1    2    0    0  0.35625020951E+00  0.13048399244E+02  0.41391254305E+02  0.47787267633E+02  0.19999984444E+02 0.  0.
        -12    1    1    2    0    0 -0.35625020951E+00 -0.13048399244E+02 -0.41391254305E+02  0.43400732367E+02  0.00000000000E+00 0.  1.
         11    1    3    3    0    0 -0.31709975183E+01 -0.23558386319E+01  0.14914670969E+02  0.15428953668E+02  0.51100000000E-03 0. -1.
        -11    1    3    3    0    0 -0.22653816907E+01  0.64034279683E+01  0.52466953046E+01  0.85827533945E+01  0.51100000000E-03 0.  1.
         12    1    3    3    0    0  0.57926294186E+01  0.90008099076E+01  0.21229888032E+02  0.23775560570E+02  0.00000000000E+00 0. -1.
</event>
<event>
 7    1  0.1427898E-010  0.4778727E+02  0.7816164E-02  0.1312668E+00
        -11   -1    0    0    0    0  0.00000000000E+00  0.00000000000E+00  0.45593999997E+02  0.45594000000E+02  0.51100000000E-03 0. -1.
         11   -1    0    0    0    0 -0.00000000000E+00 -0.00000000000E+00 -0.45593999997E+02  0.45594000000E+02  0.51100000000E-03 0.  1.
    9900012    2    1    2    0    0 -0.29930850897E+02  0.14405000161E+02 -0.27933195987E+02  0.47787270708E+02  0.19999998465E+02 0.  0.
        -12    1    1    2    0    0  0.29930850897E+02 -0.14405000161E+02  0.27933195987E+02  0.43400729292E+02  0.00000000000E+00 0.  1.
         11    1    3    3    0    0 -0.64965831944E+01 -0.90269514383E+00 -0.74492009765E+01  0.99252731536E+01  0.51100000000E-03 0.  1.
        -11    1    3    3    0    0 -0.23465365272E+02  0.17662535864E+02 -0.19759188483E+02  0.35397938785E+02  0.51100000000E-03 0. -1.
         12    1    3    3    0    0  0.31097568719E-01 -0.23548405587E+01 -0.72480652762E+00  0.24640587692E+01  0.00000000000E+00 0. -1.
</event>
<event>
 7    1  0.1427898E-010  0.4778728E+02  0.7816164E-02  0.1312668E+00
        -11   -1    0    0    0    0  0.00000000000E+00  0.00000000000E+00  0.45593999997E+02  0.45594000000E+02  0.51100000000E-03 0.  1.
         11   -1    0    0    0    0 -0.00000000000E+00 -0.00000000000E+00 -0.45593999997E+02  0.45594000000E+02  0.51100000000E-03 0. -1.
    9900012    2    1    2    0    0  0.10010923661E+02  0.12335209004E+02 -0.40388692464E+02  0.47787280505E+02  0.20000043133E+02 0.  0.
        -12    1    1    2    0    0 -0.10010923661E+02 -0.12335209004E+02  0.40388692464E+02  0.43400719495E+02  0.00000000000E+00 0.  1.
         11    1    3    3    0    0  0.47548695230E+01  0.67057953104E+01 -0.17496334984E+02  0.19331275516E+02  0.51100000000E-03 0. -1.
        -11    1    3    3    0    0 -0.27447049009E+01  0.37958776525E+01 -0.62720235563E+00  0.47260422344E+01  0.51100000000E-03 0.  1.
        -12    1    3    3    0    0  0.80007590393E+01  0.18335360415E+01 -0.22265155125E+02  0.23729962755E+02  0.00000000000E+00 0.  1.
</event>
<event>
 7    1  0.1427898E-010  0.4778727E+02  0.7816164E-02  0.1312668E+00
        -11   -1    0    0    0    0  0.00000000000E+00  0.00000000000E+00  0.45593999997E+02  0.45594000000E+02  0.51100000000E-03 0.  1.
         11   -1    0    0    0    0 -0.00000000000E+00 -0.00000000000E+00 -0.45593999997E+02  0.45594000000E+02  0.51100000000E-03 0. -1.
    9900012    2    1    2    0    0 -0.74447926334E+00  0.26972359775E+02 -0.33993540641E+02  0.47787271360E+02  0.20000001437E+02 0.  0.
        -12    1    1    2    0    0  0.74447926334E+00 -0.26972359775E+02  0.33993540641E+02  0.43400728640E+02  0.00000000000E+00 0.  1.
         11    1    3    3    0    0  0.32385660194E+01  0.91718986459E+01 -0.10787124654E+02  0.14524947270E+02  0.51100000000E-03 0. -1.
        -11    1    3    3    0    0 -0.87221786772E+01  0.15872560182E+02 -0.14657080605E+02  0.23299025295E+02  0.51100000000E-03 0.  1.
        -12    1    3    3    0    0  0.47391333945E+01  0.19279009480E+01 -0.85493353812E+01  0.99632987939E+01  0.00000000000E+00 0.  1.
</event>
<event>
 7    1  0.1427898E-010  0.4778728E+02  0.7816164E-02  0.1312668E+00
        -11   -1    0    0    0    0  0.00000000000E+00  0.00000000000E+00  0.45593999997E+02  0.45594000000E+02  0.51100000000E-03 0. -1.
         11   -1    0    0    0    0 -0.00000000000E+00 -0.00000000000E+00 -0.45593999997E+02  0.45594000000E+02  0.51100000000E-03 0.  1.
    9900012    2    1    2    0    0 -0.22257993150E+01 -0.22053748638E+02  0.37313548158E+02  0.47787275493E+02  0.20000020284E+02 0.  0.
        -12    1    1    2    0    0  0.22257993150E+01  0.22053748638E+02 -0.37313548158E+02  0.43400724507E+02  0.00000000000E+00 0.  1.
         11    1    3    3    0    0 -0.15010180900E+01  0.23354486405E+00  0.55295404953E+01  0.57344064087E+01  0.51100000000E-03 0. -1.
        -11    1    3    3    0    0  0.55570128168E+01 -0.17617130582E+02  0.16016814427E+02  0.24449581306E+02  0.51100000000E-03 0.  1.
         12    1    3    3    0    0 -0.62817940419E+01 -0.46701629202E+01  0.15767193236E+02  0.17603287779E+02  0.00000000000E+00 0. -1.
</event>
<event>
 7    1  0.1427898E-010  0.4778727E+02  0.7816164E-02  0.1312668E+00
        -11   -1    0    0    0    0  0.00000000000E+00  0.00000000000E+00  0.45593999997E+02  0.45594000000E+02  0.51100000000E-03 0.  1.
         11   -1    0    0    0    0 -0.00000000000E+00 -0.00000000000E+00 -0.45593999997E+02  0.45594000000E+02  0.51100000000E-03 0. -1.
    9900012    2    1    2    0    0  0.11381921514E+02  0.24898409439E+01 -0.41807602706E+02  0.47787273171E+02  0.20000009698E+02 0.  0.
        -12    1    1    2    0    0 -0.11381921514E+02 -0.24898409439E+01  0.41807602706E+02  0.43400726829E+02  0.00000000000E+00 0.  1.
         11    1    3    3    0    0 -0.32531983536E+01 -0.25685655432E+01 -0.17266922057E+01  0.44902443933E+01  0.51100000000E-03 0. -1.
        -11    1    3    3    0    0  0.56944087696E+01  0.35927969621E+01 -0.11630511543E+02  0.13438871986E+02  0.51100000000E-03 0.  1.
         12    1    3    3    0    0  0.89407110975E+01  0.14656095250E+01 -0.28450398957E+02  0.29858156792E+02  0.00000000000E+00 0. -1.
</event>
<event>
 7    1  0.1427898E-010  0.4778727E+02  0.7816164E-02  0.1312668E+00
        -11   -1    0    0    0    0  0.00000000000E+00  0.00000000000E+00  0.45593999997E+02  0.45594000000E+02  0.51100000000E-03 0. -1.
         11   -1    0    0    0    0 -0.00000000000E+00 -0.00000000000E+00 -0.45593999997E+02  0.45594000000E+02  0.51100000000E-03 0.  1.
    9900012    2    1    2    0    0 -0.37735065628E+02  0.67423135944E+01 -0.20352630042E+02  0.47787268207E+02  0.19999987061E+02 0.  0.
        -12    1    1    2    0    0  0.37735065628E+02 -0.67423135944E+01  0.20352630042E+02  0.43400731793E+02  0.00000000000E+00 0.  1.
         11    1    3    3    0    0 -0.97948423630E+01 -0.56842952261E+01 -0.33374240415E+01  0.11806292755E+02  0.51100000000E-03 0. -1.
        -11    1    3    3    0    0 -0.15751827488E+02  0.32097334720E+01 -0.11372265504E+02  0.19691391040E+02  0.51100000000E-03 0.  1.
        -12    1    3    3    0    0 -0.12188395777E+02  0.92168753485E+01 -0.56429404975E+01  0.16289584411E+02  0.00000000000E+00 0.  1.
</event>
<event>
 7    1  0.1427898E-010  0.4778728E+02  0.7816164E-02  0.1312668E+00
        -11   -1    0    0    0    0  0.00000000000E+00  0.00000000000E+00  0.45593999997E+02  0.45594000000E+02  0.51100000000E-03 0.  1.
         11   -1    0    0    0    0 -0.00000000000E+00 -0.00000000000E+00 -0.45593999997E+02  0.45594000000E+02  0.51100000000E-03 0. -1.
    9900012    2    1    2    0    0  0.29355277063E+02 -0.18214529700E+00 -0.31966501039E+02  0.47787278151E+02  0.20000032401E+02 0.  0.
        -12    1    1    2    0    0 -0.29355277063E+02  0.18214529700E+00  0.31966501039E+02  0.43400721849E+02  0.00000000000E+00 0.  1.
         11    1    3    3    0    0  0.13987411300E+02 -0.67157767946E+01 -0.21480930401E+02  0.26498673627E+02  0.51100000000E-03 0. -1.
        -11    1    3    3    0    0  0.51530702095E+01 -0.31690492081E+00 -0.56792188497E-01  0.51631179462E+01  0.51100000000E-03 0.  1.
         12    1    3    3    0    0  0.10214795553E+02  0.68505364184E+01 -0.10428778450E+02  0.16125486578E+02  0.00000000000E+00 0. -1.
</event>
<event>
 7    1  0.1427898E-010  0.4778728E+02  0.7816164E-02  0.1312668E+00
        -11   -1    0    0    0    0  0.00000000000E+00  0.00000000000E+00  0.45593999997E+02  0.45594000000E+02  0.51100000000E-03 0.  1.
         11   -1    0    0    0    0 -0.00000000000E+00 -0.00000000000E+00 -0.45593999997E+02  0.45594000000E+02  0.51100000000E-03 0. -1.
    9900012    2    1    2    0    0  0.74834541121E+01 -0.62037003200E+01 -0.42298159308E+02  0.47787282679E+02  0.20000053047E+02 0.  0.
        -12    1    1    2    0    0 -0.74834541121E+01  0.62037003200E+01  0.42298159308E+02  0.43400717321E+02  0.00000000000E+00 0.  1.
         11    1    3    3    0    0  0.78191311571E+01 -0.79364835299E+00 -0.15933749217E+02  0.17766627540E+02  0.51100000000E-03 0. -1.
        -11    1    3    3    0    0  0.61286422985E+01 -0.36362835692E+01 -0.95221160153E+01  0.11893422900E+02  0.51100000000E-03 0.  1.
        -12    1    3    3    0    0 -0.64643193435E+01 -0.17737683979E+01 -0.16842294076E+02  0.18127232239E+02  0.00000000000E+00 0.  1.
</event>
<event>
 7    1  0.1427898E-010  0.4778727E+02  0.7816164E-02  0.1312668E+00
        -11   -1    0    0    0    0  0.00000000000E+00  0.00000000000E+00  0.45593999997E+02  0.45594000000E+02  0.51100000000E-03 0.  1.
         11   -1    0    0    0    0 -0.00000000000E+00 -0.00000000000E+00 -0.45593999997E+02  0.45594000000E+02  0.51100000000E-03 0. -1.
    9900012    2    1    2    0    0 -0.21774534253E+01 -0.24784177803E+02 -0.35561585627E+02  0.47787272528E+02  0.20000006766E+02 0.  0.
        -12    1    1    2    0    0  0.21774534253E+01  0.24784177803E+02  0.35561585627E+02  0.43400727472E+02  0.00000000000E+00 0.  1.
         11    1    3    3    0    0 -0.90466030194E+01 -0.18759657629E+02 -0.19545619381E+02  0.28562160594E+02  0.51100000000E-03 0. -1.
        -11    1    3    3    0    0  0.13165168985E+01 -0.45734037804E+01 -0.88071232756E+01  0.10010727223E+02  0.51100000000E-03 0.  1.
        -12    1    3    3    0    0  0.55526326956E+01 -0.14511163933E+01 -0.72088429706E+01  0.92143847116E+01  0.00000000000E+00 0.  1.
</event>
<event>
 7    1  0.1427898E-010  0.4778727E+02  0.7816164E-02  0.1312668E+00
        -11   -1    0    0    0    0  0.00000000000E+00  0.00000000000E+00  0.45593999997E+02  0.45594000000E+02  0.51100000000E-03 0.  1.
         11   -1    0    0    0    0 -0.00000000000E+00 -0.00000000000E+00 -0.45593999997E+02  0.45594000000E+02  0.51100000000E-03 0. -1.
    9900012    2    1    2    0    0 -0.29318445019E+02  0.17070247347E+02 -0.27067668171E+02  0.47787271630E+02  0.20000002672E+02 0.  0.
        -12    1    1    2    0    0  0.29318445019E+02 -0.17070247347E+02  0.27067668171E+02  0.43400728370E+02  0.00000000000E+00 0.  1.
         11    1    3    3    0    0 -0.67553590914E+01 -0.24433270903E+01 -0.21333932817E+01  0.74937367767E+01  0.51100000000E-03 0. -1.
        -11    1    3    3    0    0 -0.11236271835E+02  0.37274335288E+01 -0.64749320595E+01  0.13493417317E+02  0.51100000000E-03 0.  1.
        -12    1    3    3    0    0 -0.11326814092E+02  0.15786140908E+02 -0.18459342830E+02  0.26800117536E+02  0.00000000000E+00 0.  1.
</event>
<event>
 7    1  0.1427898E-010  0.4778727E+02  0.7816164E-02  0.1312668E+00
        -11   -1    0    0    0    0  0.00000000000E+00  0.00000000000E+00  0.45593999997E+02  0.45594000000E+02  0.51100000000E-03 0.  1.
         11   -1    0    0    0    0 -0.00000000000E+00 -0.00000000000E+00 -0.45593999997E+02  0.45594000000E+02  0.51100000000E-03 0. -1.
    9900012    2    1    2    0    0 -0.19658472610E+02  0.16202667713E+02 -0.35137463418E+02  0.47787270492E+02  0.19999997482E+02 0.  0.
        -12    1    1    2    0    0  0.19658472610E+02 -0.16202667713E+02  0.35137463418E+02  0.43400729508E+02  0.00000000000E+00 0.  1.
         11    1    3    3    0    0 -0.13214488743E+02  0.54732637639E+01 -0.24711444163E+02  0.28552316926E+02  0.51100000000E-03 0. -1.
        -11    1    3    3    0    0  0.68880717947E+00  0.63977155225E+01 -0.85167086325E+01  0.10674246832E+02  0.51100000000E-03 0.  1.
        -12    1    3    3    0    0 -0.71327910458E+01  0.43316884268E+01 -0.19093106221E+01  0.85607067338E+01  0.00000000000E+00 0.  1.
</event>
<event>
 7    1  0.1427898E-010  0.4778726E+02  0.7816164E-02  0.1312668E+00
        -11   -1    0    0    0    0  0.00000000000E+00  0.00000000000E+00  0.45593999997E+02  0.45594000000E+02  0.51100000000E-03 0. -1.
         11   -1    0    0    0    0 -0.00000000000E+00 -0.00000000000E+00 -0.45593999997E+02  0.45594000000E+02  0.51100000000E-03 0.  1.
    9900012    2    1    2    0    0  0.41752547035E+01 -0.71580761190E+01  0.42602268900E+02  0.47787261286E+02  0.19999955505E+02 0.  0.
        -12    1    1    2    0    0 -0.41752547035E+01  0.71580761190E+01 -0.42602268900E+02  0.43400738714E+02  0.00000000000E+00 0.  1.
         11    1    3    3    0    0 -0.17345530266E+01 -0.34979672737E+01  0.94242035213E+01  0.10200983361E+02  0.51100000000E-03 0. -1.
        -11    1    3    3    0    0 -0.47655455646E+01 -0.15238557333E+01  0.19352266047E+02  0.19988565788E+02  0.51100000000E-03 0.  1.
        -12    1    3    3    0    0  0.10675353295E+02 -0.21362531120E+01  0.13825799331E+02  0.17597712137E+02  0.00000000000E+00 0.  1.
</event>
<event>
 7    1  0.1427898E-010  0.4778727E+02  0.7816164E-02  0.1312668E+00
        -11   -1    0    0    0    0  0.00000000000E+00  0.00000000000E+00  0.45593999997E+02  0.45594000000E+02  0.51100000000E-03 0.  1.
         11   -1    0    0    0    0 -0.00000000000E+00 -0.00000000000E+00 -0.45593999997E+02  0.45594000000E+02  0.51100000000E-03 0. -1.
    9900012    2    1    2    0    0  0.20698658879E+02 -0.10276267533E+02 -0.36736726283E+02  0.47787271760E+02  0.20000003262E+02 0.  0.
        -12    1    1    2    0    0 -0.20698658879E+02  0.10276267533E+02  0.36736726283E+02  0.43400728240E+02  0.00000000000E+00 0.  1.
         11    1    3    3    0    0  0.98379905113E+01 -0.20745142605E+01 -0.23180774665E+02  0.25267330311E+02  0.51100000000E-03 0. -1.
        -11    1    3    3    0    0  0.92438393276E+00 -0.29523174596E+01 -0.10395790016E+02  0.10846341058E+02  0.51100000000E-03 0.  1.
        -12    1    3    3    0    0  0.99362844352E+01 -0.52494358131E+01 -0.31601616020E+01  0.11673600391E+02  0.00000000000E+00 0.  1.
</event>
<event>
 7    1  0.1427898E-010  0.4778726E+02  0.7816164E-02  0.1312668E+00
        -11   -1    0    0    0    0  0.00000000000E+00  0.00000000000E+00  0.45593999997E+02  0.45594000000E+02  0.51100000000E-03 0.  1.
         11   -1    0    0    0    0 -0.00000000000E+00 -0.00000000000E+00 -0.45593999997E+02  0.45594000000E+02  0.51100000000E-03 0. -1.
    9900012    2    1    2    0    0  0.19019449524E+02  0.12705594875E+02 -0.36884314640E+02  0.47787259594E+02  0.19999947794E+02 0.  0.
        -12    1    1    2    0    0 -0.19019449524E+02 -0.12705594875E+02  0.36884314640E+02  0.43400740406E+02  0.00000000000E+00 0.  1.
         11    1    3    3    0    0  0.32640154566E+01  0.13800049692E+01 -0.17422143532E+02  0.17778900307E+02  0.51100000000E-03 0. -1.
        -11    1    3    3    0    0  0.43245799001E+01  0.10490039492E+02 -0.10494137150E+02  0.15455414412E+02  0.51100000000E-03 0.  1.
        -12    1    3    3    0    0  0.11430854167E+02  0.83555041432E+00 -0.89680339571E+01  0.14552944875E+02  0.00000000000E+00 0.  1.
</event>
<event>
 7    1  0.1427898E-010  0.4778727E+02  0.7816164E-02  0.1312668E+00
        -11   -1    0    0    0    0  0.00000000000E+00  0.00000000000E+00  0.45593999997E+02  0.45594000000E+02  0.51100000000E-03 0.  1.
         11   -1    0    0    0    0 -0.00000000000E+00 -0.00000000000E+00 -0.45593999997E+02  0.45594000000E+02  0.51100000000E-03 0. -1.
    9900012    2    1    2    0    0 -0.11136727819E+02  0.12381462422E+02 -0.40078622062E+02  0.47787271151E+02  0.20000000488E+02 0.  0.
        -12    1    1    2    0    0  0.11136727819E+02 -0.12381462422E+02  0.40078622062E+02  0.43400728849E+02  0.00000000000E+00 0.  1.
         11    1    3    3    0    0 -0.70622990623E+01  0.22777414501E+01 -0.92570606927E+01  0.11864120157E+02  0.51100000000E-03 0. -1.
        -11    1    3    3    0    0 -0.84958398885E+01  0.36622647310E+01 -0.23336175800E+02  0.25103158757E+02  0.51100000000E-03 0.  1.
        -12    1    3    3    0    0  0.44214111321E+01  0.64414562406E+01 -0.74853855697E+01  0.10819992238E+02  0.00000000000E+00 0.  1.
</event>
<event>
 7    1  0.1427898E-010  0.4778726E+02  0.7816164E-02  0.1312668E+00
        -11   -1    0    0    0    0  0.00000000000E+00  0.00000000000E+00  0.45593999997E+02  0.45594000000E+02  0.51100000000E-03 0. -1.
         11   -1    0    0    0    0 -0.00000000000E+00 -0.00000000000E+00 -0.45593999997E+02  0.45594000000E+02  0.51100000000E-03 0.  1.
    9900012    2    1    2    0    0 -0.24443570188E+02 -0.33952302634E+02  0.11548920999E+02  0.47787256297E+02  0.19999932762E+02 0.  0.
        -12    1    1    2    0    0  0.24443570188E+02  0.33952302634E+02 -0.11548920999E+02  0.43400743703E+02  0.00000000000E+00 0.  1.
         11    1    3    3    0    0 -0.58901999130E+01 -0.14525465790E+02  0.84492397674E+01  0.17806551164E+02  0.51100000000E-03 0. -1.
        -11    1    3    3    0    0 -0.60527119424E+01 -0.12982810677E+02 -0.30262584839E+01  0.14640592051E+02  0.51100000000E-03 0.  1.
        -12    1    3    3    0    0 -0.12500658332E+02 -0.64440261668E+01  0.61259397157E+01  0.15340113082E+02  0.00000000000E+00 0.  1.
</event>
<event>
 7    1  0.1427898E-010  0.4778726E+02  0.7816164E-02  0.1312668E+00
        -11   -1    0    0    0    0  0.00000000000E+00  0.00000000000E+00  0.45593999997E+02  0.45594000000E+02  0.51100000000E-03 0. -1.
         11   -1    0    0    0    0 -0.00000000000E+00 -0.00000000000E+00 -0.45593999997E+02  0.45594000000E+02  0.51100000000E-03 0.  1.
    9900012    2    1    2    0    0 -0.18449153761E+02  0.20581623878E+02  0.33461169475E+02  0.47787258317E+02  0.19999941972E+02 0.  0.
        -12    1    1    2    0    0  0.18449153761E+02 -0.20581623878E+02 -0.33461169475E+02  0.43400741683E+02  0.00000000000E+00 0.  1.
         11    1    3    3    0    0 -0.32377208448E+01  0.38926126589E+01  0.10575524787E+02  0.11725058395E+02  0.51100000000E-03 0. -1.
        -11    1    3    3    0    0  0.17852230062E+01  0.80237952877E+01  0.37295269575E+01  0.90264989663E+01  0.51100000000E-03 0.  1.
         12    1    3    3    0    0 -0.16996655922E+02  0.86652159313E+01  0.19156117730E+02  0.27035700956E+02  0.00000000000E+00 0. -1.
</event>
<event>
 7    1  0.1427898E-010  0.4778732E+02  0.7816164E-02  0.1312668E+00
        -11   -1    0    0    0    0  0.00000000000E+00  0.00000000000E+00  0.45593999997E+02  0.45594000000E+02  0.51100000000E-03 0.  1.
         11   -1    0    0    0    0 -0.00000000000E+00 -0.00000000000E+00 -0.45593999997E+02  0.45594000000E+02  0.51100000000E-03 0. -1.
    9900012    2    1    2    0    0 -0.28240904405E+02  0.30958650605E+02  0.11297429210E+02  0.47787324479E+02  0.20000243628E+02 0.  0.
        -12    1    1    2    0    0  0.28240904405E+02 -0.30958650605E+02 -0.11297429210E+02  0.43400675521E+02  0.00000000000E+00 0.  1.
         11    1    3    3    0    0 -0.11285817398E+02  0.13619553700E+02  0.12359427902E+02  0.21578168960E+02  0.51100000000E-03 0. -1.
        -11    1    3    3    0    0 -0.12688258115E+02  0.16281191791E+02  0.21666987017E+01  0.20754847233E+02  0.51100000000E-03 0.  1.
        -12    1    3    3    0    0 -0.42668288926E+01  0.10579051132E+01 -0.32286973930E+01  0.54543082864E+01  0.00000000000E+00 0.  1.
</event>
<event>
 7    1  0.1427898E-010  0.4778732E+02  0.7816164E-02  0.1312668E+00
        -11   -1    0    0    0    0  0.00000000000E+00  0.00000000000E+00  0.45593999997E+02  0.45594000000E+02  0.51100000000E-03 0. -1.
         11   -1    0    0    0    0 -0.00000000000E+00 -0.00000000000E+00 -0.45593999997E+02  0.45594000000E+02  0.51100000000E-03 0.  1.
    9900012    2    1    2    0    0 -0.87460125529E+01 -0.19432641984E+02  0.37808708559E+02  0.47787323128E+02  0.20000237468E+02 0.  0.
        -12    1    1    2    0    0  0.87460125529E+01  0.19432641984E+02 -0.37808708559E+02  0.43400676872E+02  0.00000000000E+00 0.  1.
         11    1    3    3    0    0 -0.75223873416E+01 -0.13137214985E+02  0.31191924068E+02  0.34671441508E+02  0.51100000000E-03 0. -1.
        -11    1    3    3    0    0  0.28236169980E+01 -0.60215723960E+01  0.61037604587E+01  0.90270725636E+01  0.51100000000E-03 0.  1.
        -12    1    3    3    0    0 -0.40472422094E+01 -0.27385460335E+00  0.51302403194E+00  0.40888090568E+01  0.00000000000E+00 0.  1.
</event>
<event>
 7    1  0.1427898E-010  0.4778727E+02  0.7816164E-02  0.1312668E+00
        -11   -1    0    0    0    0  0.00000000000E+00  0.00000000000E+00  0.45593999997E+02  0.45594000000E+02  0.51100000000E-03 0. -1.
         11   -1    0    0    0    0 -0.00000000000E+00 -0.00000000000E+00 -0.45593999997E+02  0.45594000000E+02  0.51100000000E-03 0.  1.
    9900012    2    1    2    0    0  0.21018541197E+02  0.20334779838E+02  0.32067755233E+02  0.47787271080E+02  0.20000000163E+02 0.  0.
        -12    1    1    2    0    0 -0.21018541197E+02 -0.20334779838E+02 -0.32067755233E+02  0.43400728920E+02  0.00000000000E+00 0.  1.
         11    1    3    3    0    0  0.95421269510E+01  0.14920315555E+02  0.12916658046E+02  0.21920494026E+02  0.51100000000E-03 0. -1.
        -11    1    3    3    0    0  0.93189448937E+01  0.74290258672E+01  0.80545382228E+01  0.14384322908E+02  0.51100000000E-03 0.  1.
         12    1    3    3    0    0  0.21574693520E+01 -0.20145615845E+01  0.11096558964E+02  0.11482454146E+02  0.00000000000E+00 0. -1.
</event>
<event>
 7    1  0.1427898E-010  0.4778727E+02  0.7816164E-02  0.1312668E+00
        -11   -1    0    0    0    0  0.00000000000E+00  0.00000000000E+00  0.45593999997E+02  0.45594000000E+02  0.51100000000E-03 0.  1.
         11   -1    0    0    0    0 -0.00000000000E+00 -0.00000000000E+00 -0.45593999997E+02  0.45594000000E+02  0.51100000000E-03 0. -1.
    9900012    2    1    2    0    0 -0.22254418297E+02  0.90031919418E+00 -0.37249876539E+02  0.47787274078E+02  0.20000013830E+02 0.  0.
        -12    1    1    2    0    0  0.22254418297E+02 -0.90031919418E+00  0.37249876539E+02  0.43400725922E+02  0.00000000000E+00 0.  1.
         11    1    3    3    0    0 -0.68304445882E+01  0.56354356832E+01 -0.22191525125E+02  0.23893030286E+02  0.51100000000E-03 0.  1.
        -11    1    3    3    0    0 -0.11553774309E+02  0.88885239516E+00 -0.80451734110E+01  0.14106898130E+02  0.51100000000E-03 0. -1.
        -12    1    3    3    0    0 -0.38701993997E+01 -0.56239688842E+01 -0.70131780036E+01  0.97873456623E+01  0.00000000000E+00 0.  1.
</event>
<event>
 7    1  0.1427898E-010  0.4778727E+02  0.7816164E-02  0.1312668E+00
        -11   -1    0    0    0    0  0.00000000000E+00  0.00000000000E+00  0.45593999997E+02  0.45594000000E+02  0.51100000000E-03 0.  1.
         11   -1    0    0    0    0 -0.00000000000E+00 -0.00000000000E+00 -0.45593999997E+02  0.45594000000E+02  0.51100000000E-03 0. -1.
    9900012    2    1    2    0    0  0.27185323845E+01 -0.22304735371E+02 -0.37131278183E+02  0.47787268925E+02  0.19999990338E+02 0.  0.
        -12    1    1    2    0    0 -0.27185323845E+01  0.22304735371E+02  0.37131278183E+02  0.43400731075E+02  0.00000000000E+00 0.  1.
         11    1    3    3    0    0 -0.51575390620E+00 -0.14881218183E+02 -0.11688569964E+02  0.18929852740E+02  0.51100000000E-03 0. -1.
        -11    1    3    3    0    0  0.23690697589E+01  0.14468193724E+01 -0.11923428589E+01  0.30211685774E+01  0.51100000000E-03 0.  1.
        -12    1    3    3    0    0  0.86521653185E+00 -0.88703365607E+01 -0.24250365360E+02  0.25836247608E+02  0.00000000000E+00 0.  1.
</event>
<event>
 7    1  0.1427898E-010  0.4778727E+02  0.7816164E-02  0.1312668E+00
        -11   -1    0    0    0    0  0.00000000000E+00  0.00000000000E+00  0.45593999997E+02  0.45594000000E+02  0.51100000000E-03 0.  1.
         11   -1    0    0    0    0 -0.00000000000E+00 -0.00000000000E+00 -0.45593999997E+02  0.45594000000E+02  0.51100000000E-03 0. -1.
    9900012    2    1    2    0    0  0.98245625832E+01  0.10397407906E+01 -0.42261333330E+02  0.47787269756E+02  0.19999994126E+02 0.  0.
        -12    1    1    2    0    0 -0.98245625832E+01 -0.10397407906E+01  0.42261333330E+02  0.43400730244E+02  0.00000000000E+00 0.  1.
         11    1    3    3    0    0  0.63503867842E+01 -0.16410909947E+01 -0.64070002072E+01  0.91689827068E+01  0.51100000000E-03 0. -1.
        -11    1    3    3    0    0 -0.40795909564E+01 -0.27679405711E+01 -0.10287122922E+02  0.11407429844E+02  0.51100000000E-03 0.  1.
         12    1    3    3    0    0  0.75537667553E+01  0.54487723564E+01 -0.25567210201E+02  0.27210857205E+02  0.00000000000E+00 0. -1.
</event>
<event>
 7    1  0.1427898E-010  0.4778727E+02  0.7816164E-02  0.1312668E+00
        -11   -1    0    0    0    0  0.00000000000E+00  0.00000000000E+00  0.45593999997E+02  0.45594000000E+02  0.51100000000E-03 0.  1.
         11   -1    0    0    0    0 -0.00000000000E+00 -0.00000000000E+00 -0.45593999997E+02  0.45594000000E+02  0.51100000000E-03 0. -1.
    9900012    2    1    2    0    0 -0.25819324455E+02  0.74653772486E+01 -0.34077176215E+02  0.47787270610E+02  0.19999998019E+02 0.  0.
        -12    1    1    2    0    0  0.25819324455E+02 -0.74653772486E+01  0.34077176215E+02  0.43400729390E+02  0.00000000000E+00 0.  1.
         11    1    3    3    0    0 -0.20565533307E+02  0.82533465531E+01 -0.26899987159E+02  0.34852090309E+02  0.51100000000E-03 0. -1.
        -11    1    3    3    0    0  0.11097772444E+01  0.28715495113E+01 -0.36977906336E+01  0.48115546301E+01  0.51100000000E-03 0.  1.
        -12    1    3    3    0    0 -0.63635683925E+01 -0.36595188157E+01 -0.34793984231E+01  0.81236256706E+01  0.00000000000E+00 0.  1.
</event>
<event>
 7    1  0.1427898E-010  0.4778727E+02  0.7816164E-02  0.1312668E+00
        -11   -1    0    0    0    0  0.00000000000E+00  0.00000000000E+00  0.45593999997E+02  0.45594000000E+02  0.51100000000E-03 0. -1.
         11   -1    0    0    0    0 -0.00000000000E+00 -0.00000000000E+00 -0.45593999997E+02  0.45594000000E+02  0.51100000000E-03 0.  1.
    9900012    2    1    2    0    0  0.83803742312E+01  0.40626319558E+02 -0.12763020254E+02  0.47787271906E+02  0.20000003926E+02 0.  0.
        -12    1    1    2    0    0 -0.83803742312E+01 -0.40626319558E+02  0.12763020254E+02  0.43400728094E+02  0.00000000000E+00 0.  1.
         11    1    3    3    0    0  0.26368346821E+01  0.23020456830E+02 -0.96057113005E+01  0.25083142141E+02  0.51100000000E-03 0. -1.
        -11    1    3    3    0    0  0.66844243453E+01  0.22535439371E+01 -0.30423923273E+00  0.70606338863E+01  0.51100000000E-03 0.  1.
        -12    1    3    3    0    0 -0.94088479625E+00  0.15352318791E+02 -0.28530697211E+01  0.15643495878E+02  0.00000000000E+00 0.  1.
</event>
<event>
 7    1  0.1427898E-010  0.4778727E+02  0.7816164E-02  0.1312668E+00
        -11   -1    0    0    0    0  0.00000000000E+00  0.00000000000E+00  0.45593999997E+02  0.45594000000E+02  0.51100000000E-03 0.  1.
         11   -1    0    0    0    0 -0.00000000000E+00 -0.00000000000E+00 -0.45593999997E+02  0.45594000000E+02  0.51100000000E-03 0. -1.
    9900012    2    1    2    0    0 -0.88397614935E+00 -0.13108279290E+02 -0.41364418524E+02  0.47787268213E+02  0.19999987092E+02 0.  0.
        -12    1    1    2    0    0  0.88397614935E+00  0.13108279290E+02  0.41364418524E+02  0.43400731787E+02  0.00000000000E+00 0.  1.
         11    1    3    3    0    0 -0.44688334530E+01 -0.35481540042E+01 -0.25711982601E+02  0.26337538207E+02  0.51100000000E-03 0. -1.
        -11    1    3    3    0    0 -0.30356584881E+01 -0.40459624369E+01 -0.22949119323E+01  0.55544266613E+01  0.51100000000E-03 0.  1.
        -12    1    3    3    0    0  0.66205157918E+01 -0.55141628493E+01 -0.13357523991E+02  0.15895303345E+02  0.00000000000E+00 0.  1.
</event>
<event>
 7    1  0.1427898E-010  0.4778726E+02  0.7816164E-02  0.1312668E+00
        -11   -1    0    0    0    0  0.00000000000E+00  0.00000000000E+00  0.45593999997E+02  0.45594000000E+02  0.51100000000E-03 0.  1.
         11   -1    0    0    0    0 -0.00000000000E+00 -0.00000000000E+00 -0.45593999997E+02  0.45594000000E+02  0.51100000000E-03 0. -1.
    9900012    2    1    2    0    0 -0.15620557058E+02 -0.13900094299E+02 -0.38031695223E+02  0.47787259616E+02  0.19999947894E+02 0.  0.
        -12    1    1    2    0    0  0.15620557058E+02  0.13900094299E+02  0.38031695223E+02  0.43400740384E+02  0.00000000000E+00 0.  1.
         11    1    3    3    0    0  0.10145606902E-01  0.20775768064E+00  0.20371072744E+00  0.29114345055E+00  0.51100000000E-03 0. -1.
        -11    1    3    3    0    0  0.42964042018E+01 -0.30426718184E+01 -0.89821472621E+01  0.10411335676E+02  0.51100000000E-03 0.  1.
         12    1    3    3    0    0 -0.19927106867E+02 -0.11065180161E+02 -0.29253258688E+02  0.37084780490E+02  0.00000000000E+00 0. -1.
</event>
<event>
 7    1  0.1427898E-010  0.4778728E+02  0.7816164E-02  0.1312668E+00
        -11   -1    0    0    0    0  0.00000000000E+00  0.00000000000E+00  0.45593999997E+02  0.45594000000E+02  0.51100000000E-03 0. -1.
         11   -1    0    0    0    0 -0.00000000000E+00 -0.00000000000E+00 -0.45593999997E+02  0.45594000000E+02  0.51100000000E-03 0.  1.
    9900012    2    1    2    0    0  0.16935820671E+02  0.40125953446E+00  0.39957974482E+02  0.47787277014E+02  0.20000027215E+02 0.  0.
        -12    1    1    2    0    0 -0.16935820671E+02 -0.40125953446E+00 -0.39957974482E+02  0.43400722986E+02  0.00000000000E+00 0.  1.
         11    1    3    3    0    0  0.14946759952E+02 -0.65444189999E+00  0.23273803011E+02  0.27667739953E+02  0.51100000000E-03 0. -1.
        -11    1    3    3    0    0  0.11586960539E+01 -0.40650516172E+01  0.13225678195E+02  0.13884732089E+02  0.51100000000E-03 0.  1.
        -12    1    3    3    0    0  0.83036466590E+00  0.51207530516E+01  0.34584932759E+01  0.62348049715E+01  0.00000000000E+00 0.  1.
</event>
<event>
 7    1  0.1427898E-010  0.4778727E+02  0.7816164E-02  0.1312668E+00
        -11   -1    0    0    0    0  0.00000000000E+00  0.00000000000E+00  0.45593999997E+02  0.45594000000E+02  0.51100000000E-03 0.  1.
         11   -1    0    0    0    0 -0.00000000000E+00 -0.00000000000E+00 -0.45593999997E+02  0.45594000000E+02  0.51100000000E-03 0. -1.
    9900012    2    1    2    0    0  0.13541375953E+01  0.37022804738E+02 -0.22607551696E+02  0.47787272437E+02  0.20000006351E+02 0.  0.
        -12    1    1    2    0    0 -0.13541375953E+01 -0.37022804738E+02  0.22607551696E+02  0.43400727563E+02  0.00000000000E+00 0.  1.
         11    1    3    3    0    0  0.45229121756E+01  0.19567219493E+02 -0.34145062030E+01  0.20371344239E+02  0.51100000000E-03 0. -1.
        -11    1    3    3    0    0 -0.45381603778E+01  0.90353698543E+01 -0.61616761908E+01  0.11840568473E+02  0.51100000000E-03 0.  1.
         12    1    3    3    0    0  0.13693857975E+01  0.84202153903E+01 -0.13031369303E+02  0.15575359726E+02  0.00000000000E+00 0. -1.
</event>
<event>
 7    1  0.1427898E-010  0.4778728E+02  0.7816164E-02  0.1312668E+00
        -11   -1    0    0    0    0  0.00000000000E+00  0.00000000000E+00  0.45593999997E+02  0.45594000000E+02  0.51100000000E-03 0. -1.
         11   -1    0    0    0    0 -0.00000000000E+00 -0.00000000000E+00 -0.45593999997E+02  0.45594000000E+02  0.51100000000E-03 0.  1.
    9900012    2    1    2    0    0 -0.18720000652E+02  0.20706804042E+02  0.33232704920E+02  0.47787276108E+02  0.20000023088E+02 0.  0.
        -12    1    1    2    0    0  0.18720000652E+02 -0.20706804042E+02 -0.33232704920E+02  0.43400723892E+02  0.00000000000E+00 0.  1.
         11    1    3    3    0    0 -0.46441213653E+01  0.88976339208E+01  0.10471273811E+02  0.14504596793E+02  0.51100000000E-03 0. -1.
        -11    1    3    3    0    0 -0.27924225272E+01  0.81965660425E+00 -0.22817662546E+01  0.36980965402E+01  0.51100000000E-03 0.  1.
        -12    1    3    3    0    0 -0.11283456760E+02  0.10989513517E+02  0.25043197364E+02  0.29584582775E+02  0.00000000000E+00 0.  1.
</event>
<event>
 7    1  0.1427898E-010  0.4778727E+02  0.7816164E-02  0.1312668E+00
        -11   -1    0    0    0    0  0.00000000000E+00  0.00000000000E+00  0.45593999997E+02  0.45594000000E+02  0.51100000000E-03 0. -1.
         11   -1    0    0    0    0 -0.00000000000E+00 -0.00000000000E+00 -0.45593999997E+02  0.45594000000E+02  0.51100000000E-03 0.  1.
    9900012    2    1    2    0    0  0.18265822386E+02 -0.29030386182E+02  0.26593604340E+02  0.47787269809E+02  0.19999994365E+02 0.  0.
        -12    1    1    2    0    0 -0.18265822386E+02  0.29030386182E+02 -0.26593604340E+02  0.43400730191E+02  0.00000000000E+00 0.  1.
         11    1    3    3    0    0  0.52487843067E+01 -0.25547027595E+01  0.13906091644E+02  0.15081632138E+02  0.51100000000E-03 0. -1.
        -11    1    3    3    0    0  0.21735461821E+01 -0.94510501097E+00  0.14454723192E+01  0.27761334575E+01  0.51100000000E-03 0.  1.
        -12    1    3    3    0    0  0.10843491897E+02 -0.25530578412E+02  0.11242040377E+02  0.29929504213E+02  0.00000000000E+00 0.  1.
</event>
<event>
 7    1  0.1427898E-010  0.4778724E+02  0.7816164E-02  0.1312668E+00
        -11   -1    0    0    0    0  0.00000000000E+00  0.00000000000E+00  0.45593999997E+02  0.45594000000E+02  0.51100000000E-03 0. -1.
         11   -1    0    0    0    0 -0.00000000000E+00 -0.00000000000E+00 -0.45593999997E+02  0.45594000000E+02  0.51100000000E-03 0.  1.
    9900012    2    1    2    0    0  0.38896583371E+02  0.16723380797E+02  0.95399376276E+01  0.47787238795E+02  0.19999852961E+02 0.  0.
        -12    1    1    2    0    0 -0.38896583371E+02 -0.16723380797E+02 -0.95399376276E+01  0.43400761205E+02  0.00000000000E+00 0.  1.
         11    1    3    3    0    0  0.15725809933E+02  0.12553785491E+02  0.92451448224E+01  0.22144329551E+02  0.51100000000E-03 0.  1.
        -11    1    3    3    0    0  0.14642267981E+02  0.54008277059E+01  0.42304122333E+01  0.16169766215E+02  0.51100000000E-03 0. -1.
        -12    1    3    3    0    0  0.85285054578E+01 -0.12312323998E+01 -0.39356194281E+01  0.94731430291E+01  0.00000000000E+00 0.  1.
</event>
<event>
 7    1  0.1427898E-010  0.4778727E+02  0.7816164E-02  0.1312668E+00
        -11   -1    0    0    0    0  0.00000000000E+00  0.00000000000E+00  0.45593999997E+02  0.45594000000E+02  0.51100000000E-03 0. -1.
         11   -1    0    0    0    0 -0.00000000000E+00 -0.00000000000E+00 -0.45593999997E+02  0.45594000000E+02  0.51100000000E-03 0.  1.
    9900012    2    1    2    0    0  0.10761910913E+02 -0.41442249070E+02 -0.70953735216E+01  0.47787273510E+02  0.20000011241E+02 0.  0.
        -12    1    1    2    0    0 -0.10761910913E+02  0.41442249070E+02  0.70953735216E+01  0.43400726490E+02  0.00000000000E+00 0.  1.
         11    1    3    3    0    0  0.11506332977E+02 -0.25416375700E+02 -0.11778753784E+01  0.27924456001E+02  0.51100000000E-03 0. -1.
        -11    1    3    3    0    0  0.36918851751E+00  0.11681697871E+01  0.69374255604E+00  0.14079061788E+01  0.51100000000E-03 0.  1.
         12    1    3    3    0    0 -0.11136105810E+01 -0.17194043157E+02 -0.66112406992E+01  0.18454911330E+02  0.00000000000E+00 0. -1.
</event>
<event>
 7    1  0.1427898E-010  0.4778727E+02  0.7816164E-02  0.1312668E+00
        -11   -1    0    0    0    0  0.00000000000E+00  0.00000000000E+00  0.45593999997E+02  0.45594000000E+02  0.51100000000E-03 0.  1.
         11   -1    0    0    0    0 -0.00000000000E+00 -0.00000000000E+00 -0.45593999997E+02  0.45594000000E+02  0.51100000000E-03 0. -1.
    9900012    2    1    2    0    0 -0.30748369768E+02  0.27769674015E+02  0.12923099034E+02  0.47787268129E+02  0.19999986707E+02 0.  0.
        -12    1    1    2    0    0  0.30748369768E+02 -0.27769674015E+02 -0.12923099034E+02  0.43400731871E+02  0.00000000000E+00 0.  1.
         11    1    3    3    0    0 -0.26065100145E+01 -0.32076059136E+00  0.33205826727E+01  0.42335624903E+01  0.51100000000E-03 0. -1.
        -11    1    3    3    0    0  0.71418432008E+00  0.56336189059E+01 -0.25203524131E+00  0.56842979553E+01  0.51100000000E-03 0.  1.
         12    1    3    3    0    0 -0.28856044074E+02  0.22456815700E+02  0.98545516023E+01  0.37869407683E+02  0.00000000000E+00 0. -1.
</event>
<event>
 7    1  0.1547263E-010  0.4778729E+02  0.7816164E-02  0.1312668E+00
        -11   -1    0    0    0    0  0.00000000000E+00  0.00000000000E+00  0.45593999997E+02  0.45594000000E+02  0.51100000000E-03 0.  1.
         11   -1    0    0    0    0 -0.00000000000E+00 -0.00000000000E+00 -0.45593999997E+02  0.45594000000E+02  0.51100000000E-03 0. -1.
    9900012    2    1    2    0    0  0.43188774894E+02  0.42238470781E+01  0.71426816091E+00  0.47787293324E+02  0.20000101580E+02 0.  0.
        -12    1    1    2    0    0 -0.43188774894E+02 -0.42238470781E+01 -0.71426816091E+00  0.43400706676E+02  0.00000000000E+00 0.  1.
         11    1    3    3    0    0  0.14380834102E+02 -0.95406114657E+00  0.23516310941E+01  0.14603040478E+02  0.51100000000E-03 0. -1.
        -11    1    3    3    0    0  0.17067140402E+02  0.31536878593E+01 -0.86157995246E+01  0.19376920042E+02  0.51100000000E-03 0.  1.
        -12    1    3    3    0    0  0.11740800390E+02  0.20242203653E+01  0.69784365914E+01  0.13807332804E+02  0.00000000000E+00 0.  1.
</event>
<event>
 7    1  0.1427898E-010  0.4778727E+02  0.7816164E-02  0.1312668E+00
        -11   -1    0    0    0    0  0.00000000000E+00  0.00000000000E+00  0.45593999997E+02  0.45594000000E+02  0.51100000000E-03 0.  1.
         11   -1    0    0    0    0 -0.00000000000E+00 -0.00000000000E+00 -0.45593999997E+02  0.45594000000E+02  0.51100000000E-03 0. -1.
    9900012    2    1    2    0    0  0.19068844747E+02  0.14858994900E+02 -0.36044592534E+02  0.47787271661E+02  0.20000002811E+02 0.  0.
        -12    1    1    2    0    0 -0.19068844747E+02 -0.14858994900E+02  0.36044592534E+02  0.43400728339E+02  0.00000000000E+00 0.  1.
         11    1    3    3    0    0  0.14548899165E+02  0.17387044681E+02 -0.31322202606E+02  0.38666007888E+02  0.51100000000E-03 0. -1.
        -11    1    3    3    0    0 -0.42932465181E+00 -0.11359608447E+01 -0.36801886024E+01  0.38753728991E+01  0.51100000000E-03 0.  1.
         12    1    3    3    0    0  0.49492702338E+01 -0.13920889368E+01 -0.10422013260E+01  0.52458908737E+01  0.00000000000E+00 0. -1.
</event>
<event>
 7    1  0.1745634E-010  0.4778728E+02  0.7816164E-02  0.1312668E+00
        -11   -1    0    0    0    0  0.00000000000E+00  0.00000000000E+00  0.45593999997E+02  0.45594000000E+02  0.51100000000E-03 0. -1.
         11   -1    0    0    0    0 -0.00000000000E+00 -0.00000000000E+00 -0.45593999997E+02  0.45594000000E+02  0.51100000000E-03 0.  1.
    9900012    2    1    2    0    0  0.35349073466E+02 -0.19302077758E+02  0.16170826571E+02  0.47787276127E+02  0.20000023173E+02 0.  0.
        -12    1    1    2    0    0 -0.35349073466E+02  0.19302077758E+02 -0.16170826571E+02  0.43400723873E+02  0.00000000000E+00 0.  1.
         11    1    3    3    0    0  0.23145267400E+02 -0.15107494486E+02  0.11862804057E+02  0.30077664687E+02  0.51100000000E-03 0. -1.
        -11    1    3    3    0    0  0.39344829502E+01 -0.66775988972E+00  0.72286507703E+01  0.82570849321E+01  0.51100000000E-03 0.  1.
        -12    1    3    3    0    0  0.82693231158E+01 -0.35268233822E+01 -0.29206282566E+01  0.94525265075E+01  0.00000000000E+00 0.  1.
</event>
<event>
 7    1  0.1427898E-010  0.4778727E+02  0.7816164E-02  0.1312668E+00
        -11   -1    0    0    0    0  0.00000000000E+00  0.00000000000E+00  0.45593999997E+02  0.45594000000E+02  0.51100000000E-03 0.  1.
         11   -1    0    0    0    0 -0.00000000000E+00 -0.00000000000E+00 -0.45593999997E+02  0.45594000000E+02  0.51100000000E-03 0. -1.
    9900012    2    1    2    0    0  0.22174475610E+02  0.12711796891E+02 -0.35076004512E+02  0.47787271420E+02  0.20000001713E+02 0.  0.
        -12    1    1    2    0    0 -0.22174475610E+02 -0.12711796891E+02  0.35076004512E+02  0.43400728580E+02  0.00000000000E+00 0.  1.
         11    1    3    3    0    0  0.20214343908E+01 -0.38547418300E+01 -0.15590595341E+01  0.46234076680E+01  0.51100000000E-03 0.  1.
        -11    1    3    3    0    0  0.94737452867E+01  0.77073584496E+01 -0.96857774300E+01  0.15587479229E+02  0.51100000000E-03 0. -1.
        -12    1    3    3    0    0  0.10679295932E+02  0.88591802712E+01 -0.23831167548E+02  0.27576384523E+02  0.00000000000E+00 0.  1.
</event>
<event>
 7    1  0.1427898E-010  0.4778728E+02  0.7816164E-02  0.1312668E+00
        -11   -1    0    0    0    0  0.00000000000E+00  0.00000000000E+00  0.45593999997E+02  0.45594000000E+02  0.51100000000E-03 0.  1.
         11   -1    0    0    0    0 -0.00000000000E+00 -0.00000000000E+00 -0.45593999997E+02  0.45594000000E+02  0.51100000000E-03 0. -1.
    9900012    2    1    2    0    0  0.12501382848E+02 -0.11575103466E+02 -0.39916844487E+02  0.47787284947E+02  0.20000063386E+02 0.  0.
        -12    1    1    2    0    0 -0.12501382848E+02  0.11575103466E+02  0.39916844487E+02  0.43400715053E+02  0.00000000000E+00 0.  1.
         11    1    3    3    0    0 -0.43068711523E+01 -0.62691527045E+01 -0.15971148694E+02  0.17689799480E+02  0.51100000000E-03 0. -1.
        -11    1    3    3    0    0  0.62546018016E+01 -0.57756062796E-01 -0.10454884731E+02  0.12183102826E+02  0.51100000000E-03 0.  1.
         12    1    3    3    0    0  0.10553652199E+02 -0.52481946983E+01 -0.13490811061E+02  0.17914382641E+02  0.00000000000E+00 0. -1.
</event>
<event>
 7    1  0.1427898E-010  0.4778727E+02  0.7816164E-02  0.1312668E+00
        -11   -1    0    0    0    0  0.00000000000E+00  0.00000000000E+00  0.45593999997E+02  0.45594000000E+02  0.51100000000E-03 0.  1.
         11   -1    0    0    0    0 -0.00000000000E+00 -0.00000000000E+00 -0.45593999997E+02  0.45594000000E+02  0.51100000000E-03 0. -1.
    9900012    2    1    2    0    0 -0.21085498634E+02 -0.31504117937E+02 -0.21130918256E+02  0.47787269523E+02  0.19999993062E+02 0.  0.
        -12    1    1    2    0    0  0.21085498634E+02  0.31504117937E+02  0.21130918256E+02  0.43400730477E+02  0.00000000000E+00 0.  1.
         11    1    3    3    0    0 -0.16704564841E+02 -0.14833864006E+02 -0.43236314076E+01  0.22754775250E+02  0.51100000000E-03 0. -1.
        -11    1    3    3    0    0 -0.14196710734E+01 -0.12597328348E+00 -0.26419248992E+00  0.14495285984E+01  0.51100000000E-03 0.  1.
         12    1    3    3    0    0 -0.29612627196E+01 -0.16544280648E+02 -0.16543094358E+02  0.23582965674E+02  0.00000000000E+00 0. -1.
</event>
<event>
 7    1  0.1427898E-010  0.4778727E+02  0.7816164E-02  0.1312668E+00
        -11   -1    0    0    0    0  0.00000000000E+00  0.00000000000E+00  0.45593999997E+02  0.45594000000E+02  0.51100000000E-03 0.  1.
         11   -1    0    0    0    0 -0.00000000000E+00 -0.00000000000E+00 -0.45593999997E+02  0.45594000000E+02  0.51100000000E-03 0. -1.
    9900012    2    1    2    0    0 -0.45679028315E+01  0.21518119048E+02 -0.37412941800E+02  0.47787269617E+02  0.19999993491E+02 0.  0.
        -12    1    1    2    0    0  0.45679028315E+01 -0.21518119048E+02  0.37412941800E+02  0.43400730383E+02  0.00000000000E+00 0.  1.
         11    1    3    3    0    0  0.70139075304E+01  0.10066061206E+02 -0.19933467031E+02  0.23406486178E+02  0.51100000000E-03 0. -1.
        -11    1    3    3    0    0 -0.43330695394E+01  0.41309935560E+01 -0.99794779067E+01  0.11637464455E+02  0.51100000000E-03 0.  1.
        -12    1    3    3    0    0 -0.72487408226E+01  0.73210642861E+01 -0.74999968627E+01  0.12743318984E+02  0.00000000000E+00 0.  1.
</event>
<event>
 7    1  0.1427898E-010  0.4778727E+02  0.7816164E-02  0.1312668E+00
        -11   -1    0    0    0    0  0.00000000000E+00  0.00000000000E+00  0.45593999997E+02  0.45594000000E+02  0.51100000000E-03 0.  1.
         11   -1    0    0    0    0 -0.00000000000E+00 -0.00000000000E+00 -0.45593999997E+02  0.45594000000E+02  0.51100000000E-03 0. -1.
    9900012    2    1    2    0    0  0.32035185968E+02 -0.12835457786E+02 -0.26317694341E+02  0.47787272448E+02  0.20000006400E+02 0.  0.
        -12    1    1    2    0    0 -0.32035185968E+02  0.12835457786E+02  0.26317694341E+02  0.43400727552E+02  0.00000000000E+00 0.  1.
         11    1    3    3    0    0  0.12708311147E+02 -0.16442901066E+01 -0.12200121893E+02  0.17693157904E+02  0.51100000000E-03 0. -1.
        -11    1    3    3    0    0  0.22001783094E+01 -0.72148298921E+01 -0.90803336159E+01  0.11804533612E+02  0.51100000000E-03 0.  1.
         12    1    3    3    0    0  0.17126696512E+02 -0.39763377876E+01 -0.50372388323E+01  0.18289580932E+02  0.00000000000E+00 0. -1.
</event>
<event>
 7    1  0.1427898E-010  0.4778727E+02  0.7816164E-02  0.1312668E+00
        -11   -1    0    0    0    0  0.00000000000E+00  0.00000000000E+00  0.45593999997E+02  0.45594000000E+02  0.51100000000E-03 0.  1.
         11   -1    0    0    0    0 -0.00000000000E+00 -0.00000000000E+00 -0.45593999997E+02  0.45594000000E+02  0.51100000000E-03 0. -1.
    9900012    2    1    2    0    0  0.36832875684E+02 -0.20726028615E+02  0.98688489421E+01  0.47787272209E+02  0.20000005312E+02 0.  0.
        -12    1    1    2    0    0 -0.36832875684E+02  0.20726028615E+02 -0.98688489421E+01  0.43400727791E+02  0.00000000000E+00 0.  1.
         11    1    3    3    0    0  0.34555012120E+01 -0.38267053390E+00 -0.20108520749E+01  0.40162733587E+01  0.51100000000E-03 0. -1.
        -11    1    3    3    0    0  0.25791712231E+02 -0.14007856030E+02  0.15566099064E+02  0.33222520836E+02  0.51100000000E-03 0.  1.
         12    1    3    3    0    0  0.75856622414E+01 -0.63355020507E+01 -0.36863980467E+01  0.10548478015E+02  0.00000000000E+00 0. -1.
</event>
<event>
 7    1  0.1427898E-010  0.4778728E+02  0.7816164E-02  0.1312668E+00
        -11   -1    0    0    0    0  0.00000000000E+00  0.00000000000E+00  0.45593999997E+02  0.45594000000E+02  0.51100000000E-03 0. -1.
         11   -1    0    0    0    0 -0.00000000000E+00 -0.00000000000E+00 -0.45593999997E+02  0.45594000000E+02  0.51100000000E-03 0.  1.
    9900012    2    1    2    0    0 -0.18673400846E+02 -0.39056789217E+02 -0.30812580088E+01  0.47787276112E+02  0.20000023106E+02 0.  0.
        -12    1    1    2    0    0  0.18673400846E+02  0.39056789217E+02  0.30812580088E+01  0.43400723888E+02  0.00000000000E+00 0.  1.
         11    1    3    3    0    0 -0.38503896622E+01 -0.41176107665E+01  0.16460390743E+01  0.58727901266E+01  0.51100000000E-03 0. -1.
        -11    1    3    3    0    0  0.16330248422E+01 -0.33676441695E+00  0.24186186844E+01  0.29376686351E+01  0.51100000000E-03 0.  1.
         12    1    3    3    0    0 -0.16456036026E+02 -0.34602414033E+02 -0.71459157675E+01  0.38976817350E+02  0.00000000000E+00 0. -1.
</event>
<event>
 7    1  0.1427898E-010  0.4778728E+02  0.7816164E-02  0.1312668E+00
        -11   -1    0    0    0    0  0.00000000000E+00  0.00000000000E+00  0.45593999997E+02  0.45594000000E+02  0.51100000000E-03 0.  1.
         11   -1    0    0    0    0 -0.00000000000E+00 -0.00000000000E+00 -0.45593999997E+02  0.45594000000E+02  0.51100000000E-03 0. -1.
    9900012    2    1    2    0    0  0.22082278791E+02 -0.21036989765E+02 -0.30877830141E+02  0.47787281467E+02  0.20000047519E+02 0.  0.
        -12    1    1    2    0    0 -0.22082278791E+02  0.21036989765E+02  0.30877830141E+02  0.43400718533E+02  0.00000000000E+00 0.  1.
         11    1    3    3    0    0  0.15088319503E+02 -0.12580375175E+02 -0.17395783806E+02  0.26239979410E+02  0.51100000000E-03 0. -1.
        -11    1    3    3    0    0 -0.54789468183E+00 -0.90836438265E+01 -0.87338557177E+01  0.12613207749E+02  0.51100000000E-03 0.  1.
        -12    1    3    3    0    0  0.75418539693E+01  0.62702923603E+00 -0.47481906178E+01  0.89340943077E+01  0.00000000000E+00 0.  1.
</event>
<event>
 7    1  0.1427898E-010  0.4778727E+02  0.7816164E-02  0.1312668E+00
        -11   -1    0    0    0    0  0.00000000000E+00  0.00000000000E+00  0.45593999997E+02  0.45594000000E+02  0.51100000000E-03 0. -1.
         11   -1    0    0    0    0 -0.00000000000E+00 -0.00000000000E+00 -0.45593999997E+02  0.45594000000E+02  0.51100000000E-03 0.  1.
    9900012    2    1    2    0    0 -0.24992072729E+02  0.43910815959E+01  0.35209916069E+02  0.47787268595E+02  0.19999988832E+02 0.  0.
        -12    1    1    2    0    0  0.24992072729E+02 -0.43910815959E+01 -0.35209916069E+02  0.43400731405E+02  0.00000000000E+00 0.  1.
         11    1    3    3    0    0 -0.24916142886E+01  0.74142544095E+00  0.10027376545E+02  0.10358867413E+02  0.51100000000E-03 0. -1.
        -11    1    3    3    0    0 -0.92078867125E+01  0.40499093820E+01  0.13672594955E+01  0.10151666981E+02  0.51100000000E-03 0.  1.
        -12    1    3    3    0    0 -0.13292571728E+02 -0.40025322701E+00  0.23815280029E+02  0.27276734200E+02  0.00000000000E+00 0.  1.
</event>
<event>
 7    1  0.1427898E-010  0.4778727E+02  0.7816164E-02  0.1312668E+00
        -11   -1    0    0    0    0  0.00000000000E+00  0.00000000000E+00  0.45593999997E+02  0.45594000000E+02  0.51100000000E-03 0. -1.
         11   -1    0    0    0    0 -0.00000000000E+00 -0.00000000000E+00 -0.45593999997E+02  0.45594000000E+02  0.51100000000E-03 0.  1.
    9900012    2    1    2    0    0  0.18891223401E+02  0.38998119927E+02  0.24272809143E+01  0.47787269913E+02  0.19999994840E+02 0.  0.
        -12    1    1    2    0    0 -0.18891223401E+02 -0.38998119927E+02 -0.24272809143E+01  0.43400730087E+02  0.00000000000E+00 0.  1.
         11    1    3    3    0    0  0.80170870727E+01  0.26871378168E+02  0.62667751040E+01  0.28733553910E+02  0.51100000000E-03 0. -1.
        -11    1    3    3    0    0  0.17359343161E+00  0.15967001684E+01  0.23239879089E+01  0.28249789679E+01  0.51100000000E-03 0.  1.
        -12    1    3    3    0    0  0.10700542897E+02  0.10530041591E+02 -0.61634820986E+01  0.16228737035E+02  0.00000000000E+00 0.  1.
</event>
<event>
 7    1  0.1427898E-010  0.4778727E+02  0.7816164E-02  0.1312668E+00
        -11   -1    0    0    0    0  0.00000000000E+00  0.00000000000E+00  0.45593999997E+02  0.45594000000E+02  0.51100000000E-03 0. -1.
         11   -1    0    0    0    0 -0.00000000000E+00 -0.00000000000E+00 -0.45593999997E+02  0.45594000000E+02  0.51100000000E-03 0.  1.
    9900012    2    1    2    0    0 -0.26758406126E+02  0.33258995470E+02  0.78390206939E+01  0.47787270472E+02  0.19999997391E+02 0.  0.
        -12    1    1    2    0    0  0.26758406126E+02 -0.33258995470E+02 -0.78390206939E+01  0.43400729528E+02  0.00000000000E+00 0.  1.
         11    1    3    3    0    0 -0.10106219544E+02  0.23414058427E+02  0.79931577268E+01  0.26725350816E+02  0.51100000000E-03 0. -1.
        -11    1    3    3    0    0 -0.15418167172E+02  0.11248113717E+02 -0.75233154694E+00  0.19099893826E+02  0.51100000000E-03 0.  1.
        -12    1    3    3    0    0 -0.12340194106E+01 -0.14031766745E+01  0.59819451397E+00  0.19620258312E+01  0.00000000000E+00 0.  1.
</event>
<event>
 7    1  0.1427898E-010  0.4778727E+02  0.7816164E-02  0.1312668E+00
        -11   -1    0    0    0    0  0.00000000000E+00  0.00000000000E+00  0.45593999997E+02  0.45594000000E+02  0.51100000000E-03 0.  1.
         11   -1    0    0    0    0 -0.00000000000E+00 -0.00000000000E+00 -0.45593999997E+02  0.45594000000E+02  0.51100000000E-03 0. -1.
    9900012    2    1    2    0    0 -0.36590602460E+02  0.23171574200E+02  0.27981156848E+01  0.47787268547E+02  0.19999988612E+02 0.  0.
        -12    1    1    2    0    0  0.36590602460E+02 -0.23171574200E+02 -0.27981156848E+01  0.43400731453E+02  0.00000000000E+00 0.  1.
         11    1    3    3    0    0 -0.12060957893E+02  0.79400754642E+01  0.95415770530E+01  0.17307605166E+02  0.51100000000E-03 0. -1.
        -11    1    3    3    0    0 -0.21381965404E+02  0.11296689345E+02 -0.76415893804E+01  0.25361339145E+02  0.51100000000E-03 0.  1.
        -12    1    3    3    0    0 -0.31476791631E+01  0.39348093908E+01  0.89812801217E+00  0.51183242358E+01  0.00000000000E+00 0.  1.
</event>
<event>
 7    1  0.1427898E-010  0.4778727E+02  0.7816164E-02  0.1312668E+00
        -11   -1    0    0    0    0  0.00000000000E+00  0.00000000000E+00  0.45593999997E+02  0.45594000000E+02  0.51100000000E-03 0.  1.
         11   -1    0    0    0    0 -0.00000000000E+00 -0.00000000000E+00 -0.45593999997E+02  0.45594000000E+02  0.51100000000E-03 0. -1.
    9900012    2    1    2    0    0 -0.75259602635E+01 -0.40360617185E+02 -0.14071380203E+02  0.47787271454E+02  0.20000001869E+02 0.  0.
        -12    1    1    2    0    0  0.75259602635E+01  0.40360617185E+02  0.14071380203E+02  0.43400728546E+02  0.00000000000E+00 0.  1.
         11    1    3    3    0    0 -0.37952636138E+01 -0.15398195593E+02 -0.12518981925E+02  0.20204785624E+02  0.51100000000E-03 0. -1.
        -11    1    3    3    0    0 -0.28408535668E+01 -0.23706672782E+02 -0.44631916567E+01  0.24289851037E+02  0.51100000000E-03 0.  1.
        -12    1    3    3    0    0 -0.88984308296E+00 -0.12557488100E+01  0.29107933786E+01  0.32926347928E+01  0.00000000000E+00 0.  1.
</event>
<event>
 7    1  0.1427898E-010  0.4778728E+02  0.7816164E-02  0.1312668E+00
        -11   -1    0    0    0    0  0.00000000000E+00  0.00000000000E+00  0.45593999997E+02  0.45594000000E+02  0.51100000000E-03 0.  1.
         11   -1    0    0    0    0 -0.00000000000E+00 -0.00000000000E+00 -0.45593999997E+02  0.45594000000E+02  0.51100000000E-03 0. -1.
    9900012    2    1    2    0    0  0.19781765302E+02  0.22894651807E+02 -0.31114938681E+02  0.47787277322E+02  0.20000028621E+02 0.  0.
        -12    1    1    2    0    0 -0.19781765302E+02 -0.22894651807E+02  0.31114938681E+02  0.43400722678E+02  0.00000000000E+00 0.  1.
         11    1    3    3    0    0  0.12526979855E+02  0.52627281549E+01 -0.12800129526E+02  0.18667213184E+02  0.51100000000E-03 0. -1.
        -11    1    3    3    0    0  0.87739286480E+01  0.18142574191E+02 -0.18677384003E+02  0.27476890210E+02  0.51100000000E-03 0.  1.
         12    1    3    3    0    0 -0.15191432002E+01 -0.51065053847E+00  0.36257484785E+00  0.16431739274E+01  0.00000000000E+00 0. -1.
</event>
<event>
 7    1  0.1427898E-010  0.4778726E+02  0.7816164E-02  0.1312668E+00
        -11   -1    0    0    0    0  0.00000000000E+00  0.00000000000E+00  0.45593999997E+02  0.45594000000E+02  0.51100000000E-03 0. -1.
         11   -1    0    0    0    0 -0.00000000000E+00 -0.00000000000E+00 -0.45593999997E+02  0.45594000000E+02  0.51100000000E-03 0.  1.
    9900012    2    1    2    0    0 -0.25814395712E+02 -0.29656589939E+02  0.18377367035E+02  0.47787263003E+02  0.19999963334E+02 0.  0.
        -12    1    1    2    0    0  0.25814395712E+02  0.29656589939E+02 -0.18377367035E+02  0.43400736997E+02  0.00000000000E+00 0.  1.
         11    1    3    3    0    0  0.93032489646E-01 -0.52760187218E+01  0.33291579839E+01  0.62392565054E+01  0.51100000000E-03 0. -1.
        -11    1    3    3    0    0 -0.26433021266E+02 -0.23160001922E+02  0.17115803265E+02  0.39090165310E+02  0.51100000000E-03 0.  1.
        -12    1    3    3    0    0  0.52559306419E+00 -0.12205692948E+01 -0.20675942135E+01  0.24578411877E+01  0.00000000000E+00 0.  1.
</event>
<event>
 7    1  0.1427898E-010  0.4778727E+02  0.7816164E-02  0.1312668E+00
        -11   -1    0    0    0    0  0.00000000000E+00  0.00000000000E+00  0.45593999997E+02  0.45594000000E+02  0.51100000000E-03 0. -1.
         11   -1    0    0    0    0 -0.00000000000E+00 -0.00000000000E+00 -0.45593999997E+02  0.45594000000E+02  0.51100000000E-03 0.  1.
    9900012    2    1    2    0    0 -0.34589959408E+02  0.52898281772E+00  0.26208361740E+02  0.47787270286E+02  0.19999996540E+02 0.  0.
        -12    1    1    2    0    0  0.34589959408E+02 -0.52898281772E+00 -0.26208361740E+02  0.43400729714E+02  0.00000000000E+00 0.  1.
         11    1    3    3    0    0 -0.32814359905E+02 -0.53955487777E+00  0.16806744592E+02  0.36871940544E+02  0.51100000000E-03 0. -1.
        -11    1    3    3    0    0 -0.11097357413E+01  0.28000432762E+01  0.30029706927E+01  0.42531857479E+01  0.51100000000E-03 0.  1.
         12    1    3    3    0    0 -0.66586376131E+00 -0.17315055807E+01  0.63986464558E+01  0.66621439936E+01  0.00000000000E+00 0. -1.
</event>
<event>
 7    1  0.1427898E-010  0.4778727E+02  0.7816164E-02  0.1312668E+00
        -11   -1    0    0    0    0  0.00000000000E+00  0.00000000000E+00  0.45593999997E+02  0.45594000000E+02  0.51100000000E-03 0.  1.
         11   -1    0    0    0    0 -0.00000000000E+00 -0.00000000000E+00 -0.45593999997E+02  0.45594000000E+02  0.51100000000E-03 0. -1.
    9900012    2    1    2    0    0  0.69118941409E+01 -0.36289213426E+02 -0.22780296766E+02  0.47787271753E+02  0.20000003229E+02 0.  0.
        -12    1    1    2    0    0 -0.69118941409E+01  0.36289213426E+02  0.22780296766E+02  0.43400728247E+02  0.00000000000E+00 0.  1.
         11    1    3    3    0    0  0.81851445305E+00 -0.10019734256E+02 -0.12197800510E+01  0.10126840776E+02  0.51100000000E-03 0. -1.
        -11    1    3    3    0    0  0.33403657266E+01 -0.69055298049E+01  0.10743820507E+01  0.77458816235E+01  0.51100000000E-03 0.  1.
         12    1    3    3    0    0  0.27530139613E+01 -0.19363949365E+02 -0.22634898765E+02  0.29914549353E+02  0.00000000000E+00 0. -1.
</event>
<event>
 7    1  0.1427898E-010  0.4778727E+02  0.7816164E-02  0.1312668E+00
        -11   -1    0    0    0    0  0.00000000000E+00  0.00000000000E+00  0.45593999997E+02  0.45594000000E+02  0.51100000000E-03 0.  1.
         11   -1    0    0    0    0 -0.00000000000E+00 -0.00000000000E+00 -0.45593999997E+02  0.45594000000E+02  0.51100000000E-03 0. -1.
    9900012    2    1    2    0    0 -0.36063691990E+02  0.21515228080E+02 -0.10960298859E+02  0.47787273389E+02  0.20000010689E+02 0.  0.
        -12    1    1    2    0    0  0.36063691990E+02 -0.21515228080E+02  0.10960298859E+02  0.43400726611E+02  0.00000000000E+00 0.  1.
         11    1    3    3    0    0 -0.96224102604E+01  0.12544124153E+02 -0.15880828119E+01  0.15889236522E+02  0.51100000000E-03 0. -1.
        -11    1    3    3    0    0 -0.58930691764E+00 -0.15266232067E+01 -0.27830006998E+01  0.32284600376E+01  0.51100000000E-03 0.  1.
         12    1    3    3    0    0 -0.25851974812E+02  0.10497727134E+02 -0.65892153470E+01  0.28669576829E+02  0.00000000000E+00 0. -1.
</event>
<event>
 7    1  0.1427898E-010  0.4778726E+02  0.7816164E-02  0.1312668E+00
        -11   -1    0    0    0    0  0.00000000000E+00  0.00000000000E+00  0.45593999997E+02  0.45594000000E+02  0.51100000000E-03 0.  1.
         11   -1    0    0    0    0 -0.00000000000E+00 -0.00000000000E+00 -0.45593999997E+02  0.45594000000E+02  0.51100000000E-03 0. -1.
    9900012    2    1    2    0    0  0.22937572705E+02  0.19854513672E+02 -0.31036916069E+02  0.47787261368E+02  0.19999955882E+02 0.  0.
        -12    1    1    2    0    0 -0.22937572705E+02 -0.19854513672E+02  0.31036916069E+02  0.43400738632E+02  0.00000000000E+00 0.  1.
         11    1    3    3    0    0  0.58391991553E+01  0.14051341173E+02 -0.18354269543E+02  0.23841469045E+02  0.51100000000E-03 0. -1.
        -11    1    3    3    0    0  0.39071192795E+01  0.31123564328E+01  0.60275945349E+00  0.50314672660E+01  0.51100000000E-03 0.  1.
         12    1    3    3    0    0  0.13191254270E+02  0.26908160662E+01 -0.13285405980E+02  0.18914325057E+02  0.00000000000E+00 0. -1.
</event>
<event>
 7    1  0.1427898E-010  0.4778726E+02  0.7816164E-02  0.1312668E+00
        -11   -1    0    0    0    0  0.00000000000E+00  0.00000000000E+00  0.45593999997E+02  0.45594000000E+02  0.51100000000E-03 0.  1.
         11   -1    0    0    0    0 -0.00000000000E+00 -0.00000000000E+00 -0.45593999997E+02  0.45594000000E+02  0.51100000000E-03 0. -1.
    9900012    2    1    2    0    0  0.41141573322E+02  0.13691782995E+02  0.18789641376E+01  0.47787257112E+02  0.19999936478E+02 0.  0.
        -12    1    1    2    0    0 -0.41141573322E+02 -0.13691782995E+02 -0.18789641376E+01  0.43400742888E+02  0.00000000000E+00 0.  1.
         11    1    3    3    0    0  0.27978283241E+01  0.38210825120E+01 -0.21957462662E+01  0.52201357091E+01  0.51100000000E-03 0. -1.
        -11    1    3    3    0    0  0.14224188898E+02 -0.36980931844E+01  0.13341726274E+01  0.14757488264E+02  0.51100000000E-03 0.  1.
         12    1    3    3    0    0  0.24119556100E+02  0.13568793667E+02  0.27405377764E+01  0.27809633139E+02  0.00000000000E+00 0. -1.
</event>
<event>
 7    1  0.1427898E-010  0.4778727E+02  0.7816164E-02  0.1312668E+00
        -11   -1    0    0    0    0  0.00000000000E+00  0.00000000000E+00  0.45593999997E+02  0.45594000000E+02  0.51100000000E-03 0.  1.
         11   -1    0    0    0    0 -0.00000000000E+00 -0.00000000000E+00 -0.45593999997E+02  0.45594000000E+02  0.51100000000E-03 0. -1.
    9900012    2    1    2    0    0 -0.36525737899E+02 -0.11616826780E+02 -0.20360329488E+02  0.47787271776E+02  0.20000003335E+02 0.  0.
        -12    1    1    2    0    0  0.36525737899E+02  0.11616826780E+02  0.20360329488E+02  0.43400728224E+02  0.00000000000E+00 0.  1.
         11    1    3    3    0    0 -0.18256125927E+02 -0.19542936256E+00 -0.12439592167E+02  0.22092256110E+02  0.51100000000E-03 0. -1.
        -11    1    3    3    0    0 -0.30197660392E+01 -0.27524788721E+01 -0.70295485082E+01  0.81307859007E+01  0.51100000000E-03 0.  1.
         12    1    3    3    0    0 -0.15249845933E+02 -0.86689185457E+01 -0.89118881239E+00  0.17564229765E+02  0.00000000000E+00 0. -1.
</event>
<event>
 7    1  0.1427898E-010  0.4778728E+02  0.7816164E-02  0.1312668E+00
        -11   -1    0    0    0    0  0.00000000000E+00  0.00000000000E+00  0.45593999997E+02  0.45594000000E+02  0.51100000000E-03 0. -1.
         11   -1    0    0    0    0 -0.00000000000E+00 -0.00000000000E+00 -0.45593999997E+02  0.45594000000E+02  0.51100000000E-03 0.  1.
    9900012    2    1    2    0    0  0.14272044820E+02  0.40986824567E+02  0.10898955253E+00  0.47787275004E+02  0.20000018054E+02 0.  0.
        -12    1    1    2    0    0 -0.14272044820E+02 -0.40986824567E+02 -0.10898955253E+00  0.43400724996E+02  0.00000000000E+00 0.  1.
         11    1    3    3    0    0  0.60610877735E+01  0.18881149226E+02 -0.41362848455E+01  0.20256935446E+02  0.51100000000E-03 0. -1.
        -11    1    3    3    0    0  0.10676452042E+02  0.21989913523E+02  0.26418481472E+01  0.24587034934E+02  0.51100000000E-03 0.  1.
        -12    1    3    3    0    0 -0.24654949946E+01  0.11576181767E+00  0.16034262509E+01  0.29433046238E+01  0.00000000000E+00 0.  1.
</event>
<event>
 7    1  0.1427898E-010  0.4778728E+02  0.7816164E-02  0.1312668E+00
        -11   -1    0    0    0    0  0.00000000000E+00  0.00000000000E+00  0.45593999997E+02  0.45594000000E+02  0.51100000000E-03 0.  1.
         11   -1    0    0    0    0 -0.00000000000E+00 -0.00000000000E+00 -0.45593999997E+02  0.45594000000E+02  0.51100000000E-03 0. -1.
    9900012    2    1    2    0    0  0.33007231498E+02 -0.27111890908E+02 -0.76870286599E+01  0.47787281465E+02  0.20000047511E+02 0.  0.
        -12    1    1    2    0    0 -0.33007231498E+02  0.27111890908E+02  0.76870286599E+01  0.43400718535E+02  0.00000000000E+00 0.  1.
         11    1    3    3    0    0  0.14273540877E+02 -0.12867484179E+02 -0.93754582904E+01  0.21382360410E+02  0.51100000000E-03 0. -1.
        -11    1    3    3    0    0  0.67886014088E+01 -0.11126369972E+02 -0.26855251328E+01  0.13307639285E+02  0.51100000000E-03 0.  1.
        -12    1    3    3    0    0  0.11945089212E+02 -0.31180367563E+01  0.43739547632E+01  0.13097281770E+02  0.00000000000E+00 0.  1.
</event>
<event>
 7    1  0.1427898E-010  0.4778727E+02  0.7816164E-02  0.1312668E+00
        -11   -1    0    0    0    0  0.00000000000E+00  0.00000000000E+00  0.45593999997E+02  0.45594000000E+02  0.51100000000E-03 0.  1.
         11   -1    0    0    0    0 -0.00000000000E+00 -0.00000000000E+00 -0.45593999997E+02  0.45594000000E+02  0.51100000000E-03 0. -1.
    9900012    2    1    2    0    0 -0.34375185214E+02 -0.36391030276E+00 -0.26492220382E+02  0.47787268094E+02  0.19999986548E+02 0.  0.
        -12    1    1    2    0    0  0.34375185214E+02  0.36391030276E+00  0.26492220382E+02  0.43400731906E+02  0.00000000000E+00 0.  1.
         11    1    3    3    0    0 -0.14621540444E+02  0.32604827319E+01 -0.13323418244E+02  0.20048283382E+02  0.51100000000E-03 0. -1.
        -11    1    3    3    0    0  0.45294115753E+00 -0.38508433012E+01 -0.39251004204E+01  0.55172967469E+01  0.51100000000E-03 0.  1.
         12    1    3    3    0    0 -0.20206585927E+02  0.22645026651E+00 -0.92437017175E+01  0.22221687965E+02  0.00000000000E+00 0. -1.
</event>
<event>
 7    1  0.1427898E-010  0.4778727E+02  0.7816164E-02  0.1312668E+00
        -11   -1    0    0    0    0  0.00000000000E+00  0.00000000000E+00  0.45593999997E+02  0.45594000000E+02  0.51100000000E-03 0. -1.
         11   -1    0    0    0    0 -0.00000000000E+00 -0.00000000000E+00 -0.45593999997E+02  0.45594000000E+02  0.51100000000E-03 0.  1.
    9900012    2    1    2    0    0 -0.24555379145E+01  0.26758785390E+02  0.34081683062E+02  0.47787269794E+02  0.19999994301E+02 0.  0.
        -12    1    1    2    0    0  0.24555379145E+01 -0.26758785390E+02 -0.34081683062E+02  0.43400730206E+02  0.00000000000E+00 0.  1.
         11    1    3    3    0    0 -0.65262332213E+01  0.13873173309E+02  0.18295629799E+02  0.23870205858E+02  0.51100000000E-03 0. -1.
        -11    1    3    3    0    0 -0.99939674489E+00  0.35343200733E+01  0.12122262992E+02  0.12666470405E+02  0.51100000000E-03 0.  1.
        -12    1    3    3    0    0  0.50700920517E+01  0.93512920086E+01  0.36637902720E+01  0.11250593531E+02  0.00000000000E+00 0.  1.
</event>
<event>
 7    1  0.1427898E-010  0.4778727E+02  0.7816164E-02  0.1312668E+00
        -11   -1    0    0    0    0  0.00000000000E+00  0.00000000000E+00  0.45593999997E+02  0.45594000000E+02  0.51100000000E-03 0.  1.
         11   -1    0    0    0    0 -0.00000000000E+00 -0.00000000000E+00 -0.45593999997E+02  0.45594000000E+02  0.51100000000E-03 0. -1.
    9900012    2    1    2    0    0 -0.38577988137E+01 -0.31346522053E+02 -0.29768036061E+02  0.47787273884E+02  0.20000012946E+02 0.  0.
        -12    1    1    2    0    0  0.38577988137E+01  0.31346522053E+02  0.29768036061E+02  0.43400726116E+02  0.00000000000E+00 0.  1.
         11    1    3    3    0    0 -0.82725360956E+01 -0.49577363677E+01 -0.87235400732E+01  0.13004389836E+02  0.51100000000E-03 0. -1.
        -11    1    3    3    0    0 -0.12626277530E+01 -0.10357185107E+02 -0.10327406743E+02  0.14680628137E+02  0.51100000000E-03 0.  1.
        -12    1    3    3    0    0  0.56773650349E+01 -0.16031600578E+02 -0.10717089245E+02  0.20102255911E+02  0.00000000000E+00 0.  1.
</event>
<event>
 7    1  0.1427898E-010  0.4778727E+02  0.7816164E-02  0.1312668E+00
        -11   -1    0    0    0    0  0.00000000000E+00  0.00000000000E+00  0.45593999997E+02  0.45594000000E+02  0.51100000000E-03 0.  1.
         11   -1    0    0    0    0 -0.00000000000E+00 -0.00000000000E+00 -0.45593999997E+02  0.45594000000E+02  0.51100000000E-03 0. -1.
    9900012    2    1    2    0    0  0.60954000278E+01  0.18485928709E+02 -0.38790975162E+02  0.47787271714E+02  0.20000003051E+02 0.  0.
        -12    1    1    2    0    0 -0.60954000278E+01 -0.18485928709E+02  0.38790975162E+02  0.43400728286E+02  0.00000000000E+00 0.  1.
         11    1    3    3    0    0  0.60973704718E+01  0.69077949828E+01 -0.86008522948E+01  0.12604372997E+02  0.51100000000E-03 0. -1.
        -11    1    3    3    0    0  0.56723870980E+01  0.82533618721E+01 -0.10898458407E+02  0.14801025420E+02  0.51100000000E-03 0.  1.
        -12    1    3    3    0    0 -0.56743575420E+01  0.33247718540E+01 -0.19291664461E+02  0.20381873296E+02  0.00000000000E+00 0.  1.
</event>
<event>
 7    1  0.1427898E-010  0.4778730E+02  0.7816164E-02  0.1312668E+00
        -11   -1    0    0    0    0  0.00000000000E+00  0.00000000000E+00  0.45593999997E+02  0.45594000000E+02  0.51100000000E-03 0.  1.
         11   -1    0    0    0    0 -0.00000000000E+00 -0.00000000000E+00 -0.45593999997E+02  0.45594000000E+02  0.51100000000E-03 0. -1.
    9900012    2    1    2    0    0  0.17458213951E+02  0.22539132472E+02 -0.32723366265E+02  0.47787303846E+02  0.20000149554E+02 0.  0.
        -12    1    1    2    0    0 -0.17458213951E+02 -0.22539132472E+02  0.32723366265E+02  0.43400696154E+02  0.00000000000E+00 0.  1.
         11    1    3    3    0    0  0.18795090666E+02  0.19660342241E+02 -0.26576559129E+02  0.38027595053E+02  0.51100000000E-03 0. -1.
        -11    1    3    3    0    0  0.15461911430E+00  0.12196997980E+01 -0.71918076148E+01  0.72961408770E+01  0.51100000000E-03 0.  1.
        -12    1    3    3    0    0 -0.14914958291E+01  0.16590904333E+01  0.10450004786E+01  0.24635679155E+01  0.00000000000E+00 0.  1.
</event>
<event>
 7    1  0.1427898E-010  0.4778727E+02  0.7816164E-02  0.1312668E+00
        -11   -1    0    0    0    0  0.00000000000E+00  0.00000000000E+00  0.45593999997E+02  0.45594000000E+02  0.51100000000E-03 0. -1.
         11   -1    0    0    0    0 -0.00000000000E+00 -0.00000000000E+00 -0.45593999997E+02  0.45594000000E+02  0.51100000000E-03 0.  1.
    9900012    2    1    2    0    0  0.20105152657E+02 -0.33972640615E+02  0.18035130331E+02  0.47787269594E+02  0.19999993386E+02 0.  0.
        -12    1    1    2    0    0 -0.20105152657E+02  0.33972640615E+02 -0.18035130331E+02  0.43400730406E+02  0.00000000000E+00 0.  1.
         11    1    3    3    0    0  0.21999535431E+02 -0.23501699441E+02  0.17958583190E+02  0.36862177720E+02  0.51100000000E-03 0. -1.
        -11    1    3    3    0    0 -0.84069711822E+00 -0.70781253086E+01  0.11359600043E+01  0.72178275764E+01  0.51100000000E-03 0.  1.
         12    1    3    3    0    0 -0.10536856557E+01 -0.33928158652E+01 -0.10594128635E+01  0.37072642975E+01  0.00000000000E+00 0. -1.
</event>
<event>
 7    1  0.1427898E-010  0.4778727E+02  0.7816164E-02  0.1312668E+00
        -11   -1    0    0    0    0  0.00000000000E+00  0.00000000000E+00  0.45593999997E+02  0.45594000000E+02  0.51100000000E-03 0. -1.
         11   -1    0    0    0    0 -0.00000000000E+00 -0.00000000000E+00 -0.45593999997E+02  0.45594000000E+02  0.51100000000E-03 0.  1.
    9900012    2    1    2    0    0 -0.42140217314E+02 -0.10371983622E+02  0.49740394239E+00  0.47787269934E+02  0.19999994938E+02 0.  0.
        -12    1    1    2    0    0  0.42140217314E+02  0.10371983622E+02 -0.49740394239E+00  0.43400730066E+02  0.00000000000E+00 0.  1.
         11    1    3    3    0    0 -0.23366761501E+02 -0.55956443346E+01 -0.84203925890E+01  0.25460160843E+02  0.51100000000E-03 0.  1.
        -11    1    3    3    0    0 -0.17104795159E+02 -0.51458519268E+01  0.58150580850E+01  0.18784799980E+02  0.51100000000E-03 0. -1.
        -12    1    3    3    0    0 -0.16686606546E+01  0.36951263906E+00  0.31027384465E+01  0.35423091110E+01  0.00000000000E+00 0.  1.
</event>
<event>
 7    1  0.1427898E-010  0.4778726E+02  0.7816164E-02  0.1312668E+00
        -11   -1    0    0    0    0  0.00000000000E+00  0.00000000000E+00  0.45593999997E+02  0.45594000000E+02  0.51100000000E-03 0.  1.
         11   -1    0    0    0    0 -0.00000000000E+00 -0.00000000000E+00 -0.45593999997E+02  0.45594000000E+02  0.51100000000E-03 0. -1.
    9900012    2    1    2    0    0 -0.17791569801E+02  0.26198760847E+02 -0.29676750364E+02  0.47787256480E+02  0.19999933595E+02 0.  0.
        -12    1    1    2    0    0  0.17791569801E+02 -0.26198760847E+02  0.29676750364E+02  0.43400743520E+02  0.00000000000E+00 0.  1.
         11    1    3    3    0    0 -0.11060229820E+02  0.22942581967E+02 -0.27508118492E+02  0.37488496025E+02  0.51100000000E-03 0. -1.
        -11    1    3    3    0    0  0.11338083333E+01 -0.56741681292E+00  0.75487190513E-01  0.12701109216E+01  0.51100000000E-03 0.  1.
         12    1    3    3    0    0 -0.78651483142E+01  0.38235956934E+01 -0.22441190627E+01  0.90286495335E+01  0.00000000000E+00 0. -1.
</event>
<event>
 7    1  0.1427898E-010  0.4778727E+02  0.7816164E-02  0.1312668E+00
        -11   -1    0    0    0    0  0.00000000000E+00  0.00000000000E+00  0.45593999997E+02  0.45594000000E+02  0.51100000000E-03 0.  1.
         11   -1    0    0    0    0 -0.00000000000E+00 -0.00000000000E+00 -0.45593999997E+02  0.45594000000E+02  0.51100000000E-03 0. -1.
    9900012    2    1    2    0    0  0.16260573500E+02 -0.36819106874E+02 -0.16234852972E+02  0.47787270368E+02  0.19999996917E+02 0.  0.
        -12    1    1    2    0    0 -0.16260573500E+02  0.36819106874E+02  0.16234852972E+02  0.43400729632E+02  0.00000000000E+00 0.  1.
         11    1    3    3    0    0  0.12091097335E+01 -0.15314390443E+02 -0.57906703491E+01  0.16417197213E+02  0.51100000000E-03 0. -1.
        -11    1    3    3    0    0  0.42173817169E+01 -0.66466501015E+00 -0.61594809744E+01  0.74944842556E+01  0.51100000000E-03 0.  1.
         12    1    3    3    0    0  0.10834082049E+02 -0.20840051421E+02 -0.42847016487E+01  0.23875588900E+02  0.00000000000E+00 0. -1.
</event>
<event>
 7    1  0.1427898E-010  0.4778727E+02  0.7816164E-02  0.1312668E+00
        -11   -1    0    0    0    0  0.00000000000E+00  0.00000000000E+00  0.45593999997E+02  0.45594000000E+02  0.51100000000E-03 0. -1.
         11   -1    0    0    0    0 -0.00000000000E+00 -0.00000000000E+00 -0.45593999997E+02  0.45594000000E+02  0.51100000000E-03 0.  1.
    9900012    2    1    2    0    0 -0.19370221005E+02 -0.41668148395E+01  0.38614194069E+02  0.47787265083E+02  0.19999972821E+02 0.  0.
        -12    1    1    2    0    0  0.19370221005E+02  0.41668148395E+01 -0.38614194069E+02  0.43400734917E+02  0.00000000000E+00 0.  1.
         11    1    3    3    0    0 -0.90645447929E+01 -0.39537832744E+01  0.26199790475E+02  0.28004060343E+02  0.51100000000E-03 0. -1.
        -11    1    3    3    0    0  0.23373445244E+01  0.83560711668E+00  0.86963316637E+00  0.26301484339E+01  0.51100000000E-03 0.  1.
        -12    1    3    3    0    0 -0.12643020737E+02 -0.10486386818E+01  0.11544770427E+02  0.17153056307E+02  0.00000000000E+00 0.  1.
</event>
<event>
 7    1  0.1427898E-010  0.4778727E+02  0.7816164E-02  0.1312668E+00
        -11   -1    0    0    0    0  0.00000000000E+00  0.00000000000E+00  0.45593999997E+02  0.45594000000E+02  0.51100000000E-03 0. -1.
         11   -1    0    0    0    0 -0.00000000000E+00 -0.00000000000E+00 -0.45593999997E+02  0.45594000000E+02  0.51100000000E-03 0.  1.
    9900012    2    1    2    0    0  0.33941529030E+02 -0.23661571982E+02 -0.13104424817E+02  0.47787270382E+02  0.19999996980E+02 0.  0.
        -12    1    1    2    0    0 -0.33941529030E+02  0.23661571982E+02  0.13104424817E+02  0.43400729618E+02  0.00000000000E+00 0.  1.
         11    1    3    3    0    0  0.21652560049E+02 -0.19067814911E+02 -0.21692974474E+01  0.28933039485E+02  0.51100000000E-03 0. -1.
        -11    1    3    3    0    0  0.10068339433E+02 -0.67991733890E+01 -0.94412504258E+01  0.15386273999E+02  0.51100000000E-03 0.  1.
        -12    1    3    3    0    0  0.22206295478E+01  0.22054163177E+01 -0.14938769439E+01  0.34679568980E+01  0.00000000000E+00 0.  1.
</event>
<event>
 7    1  0.1427898E-010  0.4778726E+02  0.7816164E-02  0.1312668E+00
        -11   -1    0    0    0    0  0.00000000000E+00  0.00000000000E+00  0.45593999997E+02  0.45594000000E+02  0.51100000000E-03 0.  1.
         11   -1    0    0    0    0 -0.00000000000E+00 -0.00000000000E+00 -0.45593999997E+02  0.45594000000E+02  0.51100000000E-03 0. -1.
    9900012    2    1    2    0    0 -0.29215599726E+02  0.20342118032E+01 -0.32030225662E+02  0.47787255295E+02  0.19999928192E+02 0.  0.
        -12    1    1    2    0    0  0.29215599726E+02 -0.20342118032E+01  0.32030225662E+02  0.43400744705E+02  0.00000000000E+00 0.  1.
         11    1    3    3    0    0 -0.12561144628E+02  0.32711384759E+01 -0.12923044691E+02  0.18316325659E+02  0.51100000000E-03 0. -1.
        -11    1    3    3    0    0 -0.30703279834E+01 -0.67852042088E+01 -0.41848384784E+01  0.85427620493E+01  0.51100000000E-03 0.  1.
        -12    1    3    3    0    0 -0.13584127115E+02  0.55482775361E+01 -0.14922342492E+02  0.20928167587E+02  0.00000000000E+00 0.  1.
</event>
<event>
 7    1  0.1427898E-010  0.4778727E+02  0.7816164E-02  0.1312668E+00
        -11   -1    0    0    0    0  0.00000000000E+00  0.00000000000E+00  0.45593999997E+02  0.45594000000E+02  0.51100000000E-03 0. -1.
         11   -1    0    0    0    0 -0.00000000000E+00 -0.00000000000E+00 -0.45593999997E+02  0.45594000000E+02  0.51100000000E-03 0.  1.
    9900012    2    1    2    0    0 -0.40080910665E+02 -0.26867466903E+01 -0.16429405521E+02  0.47787269899E+02  0.19999994778E+02 0.  0.
        -12    1    1    2    0    0  0.40080910665E+02  0.26867466903E+01  0.16429405521E+02  0.43400730101E+02  0.00000000000E+00 0.  1.
         11    1    3    3    0    0 -0.17454057686E+02 -0.73685589932E-01 -0.59893847676E+01  0.18453246040E+02  0.51100000000E-03 0. -1.
        -11    1    3    3    0    0 -0.71697013607E+00  0.43601535561E+01 -0.18080247526E+01  0.47742998414E+01  0.51100000000E-03 0.  1.
        -12    1    3    3    0    0 -0.21909882843E+02 -0.69732146564E+01 -0.86319960007E+01  0.24559724017E+02  0.00000000000E+00 0.  1.
</event>
<event>
 7    1  0.1427898E-010  0.4778727E+02  0.7816164E-02  0.1312668E+00
        -11   -1    0    0    0    0  0.00000000000E+00  0.00000000000E+00  0.45593999997E+02  0.45594000000E+02  0.51100000000E-03 0.  1.
         11   -1    0    0    0    0 -0.00000000000E+00 -0.00000000000E+00 -0.45593999997E+02  0.45594000000E+02  0.51100000000E-03 0. -1.
    9900012    2    1    2    0    0  0.43050141245E+02 -0.53918462426E+01 -0.11119639137E+01  0.47787272692E+02  0.20000007513E+02 0.  0.
        -12    1    1    2    0    0 -0.43050141245E+02  0.53918462426E+01  0.11119639137E+01  0.43400727308E+02  0.00000000000E+00 0.  1.
         11    1    3    3    0    0  0.36131966983E+00  0.51254997883E+00 -0.32211077475E+01  0.32815841856E+01  0.51100000000E-03 0. -1.
        -11    1    3    3    0    0  0.12186214199E+02 -0.21112809028E+01  0.55886622827E+01  0.13571826330E+02  0.51100000000E-03 0.  1.
        -12    1    3    3    0    0  0.30502607376E+02 -0.37931153186E+01 -0.34795184489E+01  0.30933862177E+02  0.00000000000E+00 0.  1.
</event>
<event>
 7    1  0.1427898E-010  0.4778724E+02  0.7816164E-02  0.1312668E+00
        -11   -1    0    0    0    0  0.00000000000E+00  0.00000000000E+00  0.45593999997E+02  0.45594000000E+02  0.51100000000E-03 0.  1.
         11   -1    0    0    0    0 -0.00000000000E+00 -0.00000000000E+00 -0.45593999997E+02  0.45594000000E+02  0.51100000000E-03 0. -1.
    9900012    2    1    2    0    0 -0.26993407645E+02  0.29873316571E+02  0.16203904306E+02  0.47787244085E+02  0.19999877080E+02 0.  0.
        -12    1    1    2    0    0  0.26993407645E+02 -0.29873316571E+02 -0.16203904306E+02  0.43400755915E+02  0.00000000000E+00 0.  1.
         11    1    3    3    0    0 -0.12292148847E+02  0.78715666289E+01  0.86612986796E+01  0.16972818845E+02  0.51100000000E-03 0. -1.
        -11    1    3    3    0    0 -0.17335376657E+02  0.17319468823E+02  0.61858549372E+01  0.25273386906E+02  0.51100000000E-03 0.  1.
        -12    1    3    3    0    0  0.26341178594E+01  0.46822811194E+01  0.13567506893E+01  0.55410383333E+01  0.00000000000E+00 0.  1.
</event>
<event>
 7    1  0.1427898E-010  0.4778727E+02  0.7816164E-02  0.1312668E+00
        -11   -1    0    0    0    0  0.00000000000E+00  0.00000000000E+00  0.45593999997E+02  0.45594000000E+02  0.51100000000E-03 0.  1.
         11   -1    0    0    0    0 -0.00000000000E+00 -0.00000000000E+00 -0.45593999997E+02  0.45594000000E+02  0.51100000000E-03 0. -1.
    9900012    2    1    2    0    0  0.40106253262E+02 -0.16193508590E+02 -0.35891253197E+01  0.47787273143E+02  0.20000009569E+02 0.  0.
        -12    1    1    2    0    0 -0.40106253262E+02  0.16193508590E+02  0.35891253197E+01  0.43400726857E+02  0.00000000000E+00 0.  1.
         11    1    3    3    0    0  0.39551549290E+01 -0.46259913103E+01  0.91431580628E+00  0.61545933879E+01  0.51100000000E-03 0. -1.
        -11    1    3    3    0    0  0.98338886782E+01 -0.62300455169E+01  0.56301021908E+01  0.12931236778E+02  0.51100000000E-03 0.  1.
         12    1    3    3    0    0  0.26317209654E+02 -0.53374717629E+01 -0.10133543317E+02  0.28701442977E+02  0.00000000000E+00 0. -1.
</event>
<event>
 7    1  0.1427898E-010  0.4778726E+02  0.7816164E-02  0.1312668E+00
        -11   -1    0    0    0    0  0.00000000000E+00  0.00000000000E+00  0.45593999997E+02  0.45594000000E+02  0.51100000000E-03 0.  1.
         11   -1    0    0    0    0 -0.00000000000E+00 -0.00000000000E+00 -0.45593999997E+02  0.45594000000E+02  0.51100000000E-03 0. -1.
    9900012    2    1    2    0    0  0.34989201300E+02  0.24215640929E+02  0.85429795681E+01  0.47787262988E+02  0.19999963269E+02 0.  0.
        -12    1    1    2    0    0 -0.34989201300E+02 -0.24215640929E+02 -0.85429795681E+01  0.43400737012E+02  0.00000000000E+00 0.  1.
         11    1    3    3    0    0  0.17822869464E+02  0.12643259421E+02 -0.31103382076E+01  0.22072174536E+02  0.51100000000E-03 0. -1.
        -11    1    3    3    0    0  0.10053300962E+02  0.91093055407E+00  0.47204912272E+01  0.11143683969E+02  0.51100000000E-03 0.  1.
        -12    1    3    3    0    0  0.71130308742E+01  0.10661450955E+02  0.69328265485E+01  0.14571404484E+02  0.00000000000E+00 0.  1.
</event>
<event>
 7    1  0.1427898E-010  0.4778727E+02  0.7816164E-02  0.1312668E+00
        -11   -1    0    0    0    0  0.00000000000E+00  0.00000000000E+00  0.45593999997E+02  0.45594000000E+02  0.51100000000E-03 0.  1.
         11   -1    0    0    0    0 -0.00000000000E+00 -0.00000000000E+00 -0.45593999997E+02  0.45594000000E+02  0.51100000000E-03 0. -1.
    9900012    2    1    2    0    0 -0.16974630274E+02  0.39836775438E+02 -0.29183349922E+01  0.47787269253E+02  0.19999991832E+02 0.  0.
        -12    1    1    2    0    0  0.16974630274E+02 -0.39836775438E+02  0.29183349922E+01  0.43400730747E+02  0.00000000000E+00 0.  1.
         11    1    3    3    0    0 -0.10623368346E+00 -0.43515285654E+00 -0.29984375530E+00  0.53902703343E+00  0.51100000000E-03 0.  1.
        -11    1    3    3    0    0 -0.73858161873E+01  0.78313124071E+01 -0.74714045744E+01  0.13103496531E+02  0.51100000000E-03 0. -1.
         12    1    3    3    0    0 -0.94825804033E+01  0.32440615887E+02  0.48529133374E+01  0.34144745688E+02  0.00000000000E+00 0. -1.
</event>
<event>
 7    1  0.1427898E-010  0.4778727E+02  0.7816164E-02  0.1312668E+00
        -11   -1    0    0    0    0  0.00000000000E+00  0.00000000000E+00  0.45593999997E+02  0.45594000000E+02  0.51100000000E-03 0.  1.
         11   -1    0    0    0    0 -0.00000000000E+00 -0.00000000000E+00 -0.45593999997E+02  0.45594000000E+02  0.51100000000E-03 0. -1.
    9900012    2    1    2    0    0  0.51077399895E+01  0.37074064663E+02 -0.21978350881E+02  0.47787272059E+02  0.20000004625E+02 0.  0.
        -12    1    1    2    0    0 -0.51077399895E+01 -0.37074064663E+02  0.21978350881E+02  0.43400727941E+02  0.00000000000E+00 0.  1.
         11    1    3    3    0    0 -0.39138321659E+01  0.28018138914E+02 -0.13863473267E+02  0.31504445428E+02  0.51100000000E-03 0. -1.
        -11    1    3    3    0    0  0.21747045825E+00  0.28022158455E+00  0.87352451054E+00  0.94279524198E+00  0.51100000000E-03 0.  1.
         12    1    3    3    0    0  0.88041016972E+01  0.87757041638E+01 -0.89884021244E+01  0.15340031389E+02  0.00000000000E+00 0. -1.
</event>
<event>
 7    1  0.1427898E-010  0.4778727E+02  0.7816164E-02  0.1312668E+00
        -11   -1    0    0    0    0  0.00000000000E+00  0.00000000000E+00  0.45593999997E+02  0.45594000000E+02  0.51100000000E-03 0.  1.
         11   -1    0    0    0    0 -0.00000000000E+00 -0.00000000000E+00 -0.45593999997E+02  0.45594000000E+02  0.51100000000E-03 0. -1.
    9900012    2    1    2    0    0 -0.33755814157E+01  0.24110055027E+02 -0.35929571724E+02  0.47787269274E+02  0.19999991927E+02 0.  0.
        -12    1    1    2    0    0  0.33755814157E+01 -0.24110055027E+02  0.35929571724E+02  0.43400730726E+02  0.00000000000E+00 0.  1.
         11    1    3    3    0    0  0.20778816977E+01  0.17225790499E+02 -0.28142617861E+02  0.33061342849E+02  0.51100000000E-03 0. -1.
        -11    1    3    3    0    0  0.14383203930E+01  0.20736760925E+01 -0.54444613837E+01  0.60009214384E+01  0.51100000000E-03 0.  1.
        -12    1    3    3    0    0 -0.68917835064E+01  0.48105884353E+01 -0.23424924794E+01  0.87250049862E+01  0.00000000000E+00 0.  1.
</event>
<event>
 7    1  0.1427898E-010  0.4778727E+02  0.7816164E-02  0.1312668E+00
        -11   -1    0    0    0    0  0.00000000000E+00  0.00000000000E+00  0.45593999997E+02  0.45594000000E+02  0.51100000000E-03 0.  1.
         11   -1    0    0    0    0 -0.00000000000E+00 -0.00000000000E+00 -0.45593999997E+02  0.45594000000E+02  0.51100000000E-03 0. -1.
    9900012    2    1    2    0    0 -0.27527730399E+02  0.46775667006E+01 -0.33226010271E+02  0.47787270401E+02  0.19999997068E+02 0.  0.
        -12    1    1    2    0    0  0.27527730399E+02 -0.46775667006E+01  0.33226010271E+02  0.43400729599E+02  0.00000000000E+00 0.  1.
         11    1    3    3    0    0 -0.85884029150E+01  0.27525233425E+01 -0.14364285811E+02  0.16960830065E+02  0.51100000000E-03 0. -1.
        -11    1    3    3    0    0 -0.14481679376E+02  0.16448266720E+01 -0.37232752727E+01  0.15042847847E+02  0.51100000000E-03 0.  1.
        -12    1    3    3    0    0 -0.44576481075E+01  0.28021668612E+00 -0.15138449188E+02  0.15783592489E+02  0.00000000000E+00 0.  1.
</event>
<event>
 7    1  0.1730008E-010  0.4778727E+02  0.7816164E-02  0.1312668E+00
        -11   -1    0    0    0    0  0.00000000000E+00  0.00000000000E+00  0.45593999997E+02  0.45594000000E+02  0.51100000000E-03 0.  1.
         11   -1    0    0    0    0 -0.00000000000E+00 -0.00000000000E+00 -0.45593999997E+02  0.45594000000E+02  0.51100000000E-03 0. -1.
    9900012    2    1    2    0    0  0.22684516507E+02 -0.34055148133E+02 -0.14466623785E+02  0.47787267203E+02  0.19999982487E+02 0.  0.
        -12    1    1    2    0    0 -0.22684516507E+02  0.34055148133E+02  0.14466623785E+02  0.43400732797E+02  0.00000000000E+00 0.  1.
         11    1    3    3    0    0  0.13694342684E+02 -0.59336502753E+01 -0.64190051622E+01  0.16246441293E+02  0.51100000000E-03 0. -1.
        -11    1    3    3    0    0 -0.12742969972E+01 -0.41204486609E+01 -0.35732890782E+00  0.43277724309E+01  0.51100000000E-03 0.  1.
         12    1    3    3    0    0  0.10264470820E+02 -0.24001049197E+02 -0.76902897154E+01  0.27213053480E+02  0.00000000000E+00 0. -1.
</event>
<event>
 7    1  0.1427898E-010  0.4778727E+02  0.7816164E-02  0.1312668E+00
        -11   -1    0    0    0    0  0.00000000000E+00  0.00000000000E+00  0.45593999997E+02  0.45594000000E+02  0.51100000000E-03 0.  1.
         11   -1    0    0    0    0 -0.00000000000E+00 -0.00000000000E+00 -0.45593999997E+02  0.45594000000E+02  0.51100000000E-03 0. -1.
    9900012    2    1    2    0    0 -0.36886962694E+02  0.32853695372E+01 -0.22631427606E+02  0.47787272065E+02  0.20000004654E+02 0.  0.
        -12    1    1    2    0    0  0.36886962694E+02 -0.32853695372E+01  0.22631427606E+02  0.43400727935E+02  0.00000000000E+00 0.  1.
         11    1    3    3    0    0 -0.10651148610E+02 -0.62045707387E+00 -0.12542463184E+02  0.16466490721E+02  0.51100000000E-03 0. -1.
        -11    1    3    3    0    0 -0.55242281692E+01 -0.52547554522E+00 -0.84076631460E+01  0.10073828530E+02  0.51100000000E-03 0.  1.
        -12    1    3    3    0    0 -0.20711585915E+02  0.44313021563E+01 -0.16813012760E+01  0.21246952814E+02  0.00000000000E+00 0.  1.
</event>
<event>
 7    1  0.1427898E-010  0.4778728E+02  0.7816164E-02  0.1312668E+00
        -11   -1    0    0    0    0  0.00000000000E+00  0.00000000000E+00  0.45593999997E+02  0.45594000000E+02  0.51100000000E-03 0.  1.
         11   -1    0    0    0    0 -0.00000000000E+00 -0.00000000000E+00 -0.45593999997E+02  0.45594000000E+02  0.51100000000E-03 0. -1.
    9900012    2    1    2    0    0  0.35786787308E+02  0.24276575065E+02  0.36846187514E+01  0.47787278139E+02  0.20000032347E+02 0.  0.
        -12    1    1    2    0    0 -0.35786787308E+02 -0.24276575065E+02 -0.36846187514E+01  0.43400721861E+02  0.00000000000E+00 0.  1.
         11    1    3    3    0    0 -0.73140147035E+00  0.17628886806E+01  0.66991945559E-01  0.19097677327E+01  0.51100000000E-03 0. -1.
        -11    1    3    3    0    0  0.36591345618E+02  0.24012940943E+02  0.47119918849E+01  0.44019890671E+02  0.51100000000E-03 0.  1.
        -12    1    3    3    0    0 -0.73156839905E-01 -0.14992545587E+01 -0.10943650791E+01  0.18576197354E+01  0.00000000000E+00 0.  1.
</event>
<event>
 7    1  0.1427898E-010  0.4778727E+02  0.7816164E-02  0.1312668E+00
        -11   -1    0    0    0    0  0.00000000000E+00  0.00000000000E+00  0.45593999997E+02  0.45594000000E+02  0.51100000000E-03 0.  1.
         11   -1    0    0    0    0 -0.00000000000E+00 -0.00000000000E+00 -0.45593999997E+02  0.45594000000E+02  0.51100000000E-03 0. -1.
    9900012    2    1    2    0    0  0.47173432615E+01  0.24741655172E+02 -0.35344315162E+02  0.47787269104E+02  0.19999991152E+02 0.  0.
        -12    1    1    2    0    0 -0.47173432615E+01 -0.24741655172E+02  0.35344315162E+02  0.43400730896E+02  0.00000000000E+00 0.  1.
         11    1    3    3    0    0 -0.28905599715E+01  0.85665087219E+01 -0.11482169471E+02  0.14614397854E+02  0.51100000000E-03 0. -1.
        -11    1    3    3    0    0  0.97377017624E+01  0.96700482958E+01 -0.22248194357E+02  0.26140291162E+02  0.51100000000E-03 0.  1.
         12    1    3    3    0    0 -0.21297985293E+01  0.65050981541E+01 -0.16139513341E+01  0.70325800869E+01  0.00000000000E+00 0. -1.
</event>
<event>
 7    1  0.1427898E-010  0.4778726E+02  0.7816164E-02  0.1312668E+00
        -11   -1    0    0    0    0  0.00000000000E+00  0.00000000000E+00  0.45593999997E+02  0.45594000000E+02  0.51100000000E-03 0.  1.
         11   -1    0    0    0    0 -0.00000000000E+00 -0.00000000000E+00 -0.45593999997E+02  0.45594000000E+02  0.51100000000E-03 0. -1.
    9900012    2    1    2    0    0 -0.25705987748E+02  0.32227915090E+02 -0.13571584643E+02  0.47787260065E+02  0.19999949939E+02 0.  0.
        -12    1    1    2    0    0  0.25705987748E+02 -0.32227915090E+02  0.13571584643E+02  0.43400739935E+02  0.00000000000E+00 0.  1.
         11    1    3    3    0    0 -0.13069058949E+02  0.90924460935E+01 -0.22798457671E+01  0.16083238939E+02  0.51100000000E-03 0. -1.
        -11    1    3    3    0    0 -0.32699409884E+01  0.14980073330E+02 -0.64657195360E+00  0.15346438238E+02  0.51100000000E-03 0.  1.
        -12    1    3    3    0    0 -0.93669878108E+01  0.81553956671E+01 -0.10645166923E+02  0.16357582888E+02  0.00000000000E+00 0.  1.
</event>
<event>
 7    1  0.1427898E-010  0.4778727E+02  0.7816164E-02  0.1312668E+00
        -11   -1    0    0    0    0  0.00000000000E+00  0.00000000000E+00  0.45593999997E+02  0.45594000000E+02  0.51100000000E-03 0. -1.
         11   -1    0    0    0    0 -0.00000000000E+00 -0.00000000000E+00 -0.45593999997E+02  0.45594000000E+02  0.51100000000E-03 0.  1.
    9900012    2    1    2    0    0 -0.60197147724E+01  0.23020975635E+02  0.36296289742E+02  0.47787274958E+02  0.20000017845E+02 0.  0.
        -12    1    1    2    0    0  0.60197147724E+01 -0.23020975635E+02 -0.36296289742E+02  0.43400725042E+02  0.00000000000E+00 0.  1.
         11    1    3    3    0    0  0.25188690985E+01  0.38012856299E+01  0.10317090365E+01  0.46753500161E+01  0.51100000000E-03 0. -1.
        -11    1    3    3    0    0 -0.10843811650E+02  0.10072719291E+02  0.16887071973E+02  0.22454868628E+02  0.51100000000E-03 0.  1.
         12    1    3    3    0    0  0.23052277796E+01  0.91469707143E+01  0.18377508732E+02  0.20657056314E+02  0.00000000000E+00 0. -1.
</event>
<event>
 7    1  0.1427898E-010  0.4778727E+02  0.7816164E-02  0.1312668E+00
        -11   -1    0    0    0    0  0.00000000000E+00  0.00000000000E+00  0.45593999997E+02  0.45594000000E+02  0.51100000000E-03 0.  1.
         11   -1    0    0    0    0 -0.00000000000E+00 -0.00000000000E+00 -0.45593999997E+02  0.45594000000E+02  0.51100000000E-03 0. -1.
    9900012    2    1    2    0    0  0.15100929132E+02 -0.38785224205E+02 -0.12300067158E+02  0.47787270406E+02  0.19999997087E+02 0.  0.
        -12    1    1    2    0    0 -0.15100929132E+02  0.38785224205E+02  0.12300067158E+02  0.43400729594E+02  0.00000000000E+00 0.  1.
         11    1    3    3    0    0  0.70631467919E+01 -0.21573714338E+02 -0.12894254270E+02  0.26106991140E+02  0.51100000000E-03 0. -1.
        -11    1    3    3    0    0  0.84206703936E+01 -0.18422453660E+02  0.11621353357E+01  0.20289037620E+02  0.51100000000E-03 0.  1.
        -12    1    3    3    0    0 -0.38288805396E+00  0.12109437934E+01 -0.56794822317E+00  0.13912416458E+01  0.00000000000E+00 0.  1.
</event>
<event>
 7    1  0.1427898E-010  0.4778728E+02  0.7816164E-02  0.1312668E+00
        -11   -1    0    0    0    0  0.00000000000E+00  0.00000000000E+00  0.45593999997E+02  0.45594000000E+02  0.51100000000E-03 0. -1.
         11   -1    0    0    0    0 -0.00000000000E+00 -0.00000000000E+00 -0.45593999997E+02  0.45594000000E+02  0.51100000000E-03 0.  1.
    9900012    2    1    2    0    0  0.16668971573E+02  0.37794179487E+02  0.13317964901E+02  0.47787276440E+02  0.20000024600E+02 0.  0.
        -12    1    1    2    0    0 -0.16668971573E+02 -0.37794179487E+02 -0.13317964901E+02  0.43400723560E+02  0.00000000000E+00 0.  1.
         11    1    3    3    0    0 -0.12825491951E+01  0.14799381730E+01  0.57891289023E-01  0.19592093038E+01  0.51100000000E-03 0.  1.
        -11    1    3    3    0    0  0.21249915538E+02  0.32052968447E+02  0.11149035629E+02  0.40040638011E+02  0.51100000000E-03 0. -1.
         12    1    3    3    0    0 -0.32983947698E+01  0.42612728676E+01  0.21110379833E+01  0.57874291250E+01  0.00000000000E+00 0. -1.
</event>
<event>
 7    1  0.1427898E-010  0.4778727E+02  0.7816164E-02  0.1312668E+00
        -11   -1    0    0    0    0  0.00000000000E+00  0.00000000000E+00  0.45593999997E+02  0.45594000000E+02  0.51100000000E-03 0.  1.
         11   -1    0    0    0    0 -0.00000000000E+00 -0.00000000000E+00 -0.45593999997E+02  0.45594000000E+02  0.51100000000E-03 0. -1.
    9900012    2    1    2    0    0  0.20861127174E+02 -0.20072672309E+02 -0.32334571116E+02  0.47787270860E+02  0.19999999160E+02 0.  0.
        -12    1    1    2    0    0 -0.20861127174E+02  0.20072672309E+02  0.32334571116E+02  0.43400729140E+02  0.00000000000E+00 0.  1.
         11    1    3    3    0    0  0.78755967832E+00 -0.44174578852E+01 -0.89789869051E+01  0.10037748279E+02  0.51100000000E-03 0. -1.
        -11    1    3    3    0    0  0.10847844336E+02 -0.47451576982E+01 -0.19727898724E+02  0.23008307992E+02  0.51100000000E-03 0.  1.
         12    1    3    3    0    0  0.92257231598E+01 -0.10910056726E+02 -0.36276854872E+01  0.14741214589E+02  0.00000000000E+00 0. -1.
</event>
<event>
 7    1  0.1427898E-010  0.4778727E+02  0.7816164E-02  0.1312668E+00
        -11   -1    0    0    0    0  0.00000000000E+00  0.00000000000E+00  0.45593999997E+02  0.45594000000E+02  0.51100000000E-03 0.  1.
         11   -1    0    0    0    0 -0.00000000000E+00 -0.00000000000E+00 -0.45593999997E+02  0.45594000000E+02  0.51100000000E-03 0. -1.
    9900012    2    1    2    0    0 -0.34249480097E+02 -0.11498402978E+02 -0.24049594104E+02  0.47787272650E+02  0.20000007320E+02 0.  0.
        -12    1    1    2    0    0  0.34249480097E+02  0.11498402978E+02  0.24049594104E+02  0.43400727350E+02  0.00000000000E+00 0.  1.
         11    1    3    3    0    0 -0.58097555515E+01 -0.38170717324E+00  0.67817779859E+00  0.58616452743E+01  0.51100000000E-03 0.  1.
        -11    1    3    3    0    0 -0.26484244358E+02 -0.13246799426E+02 -0.25334726766E+02  0.38971031226E+02  0.51100000000E-03 0. -1.
         12    1    3    3    0    0 -0.19554801876E+01  0.21301036214E+01  0.60695486309E+00  0.29545961497E+01  0.00000000000E+00 0. -1.
</event>
<event>
 7    1  0.1427898E-010  0.4778727E+02  0.7816164E-02  0.1312668E+00
        -11   -1    0    0    0    0  0.00000000000E+00  0.00000000000E+00  0.45593999997E+02  0.45594000000E+02  0.51100000000E-03 0.  1.
         11   -1    0    0    0    0 -0.00000000000E+00 -0.00000000000E+00 -0.45593999997E+02  0.45594000000E+02  0.51100000000E-03 0. -1.
    9900012    2    1    2    0    0 -0.95086734934E+01  0.32549994864E+02 -0.27087015062E+02  0.47787269335E+02  0.19999992208E+02 0.  0.
        -12    1    1    2    0    0  0.95086734934E+01 -0.32549994864E+02  0.27087015062E+02  0.43400730665E+02  0.00000000000E+00 0.  1.
         11    1    3    3    0    0 -0.80584826472E+01  0.21943380114E+02 -0.15393724543E+02  0.27989602158E+02  0.51100000000E-03 0. -1.
        -11    1    3    3    0    0  0.29384636225E+00  0.60897208732E+01 -0.13353151032E+02  0.14679158312E+02  0.51100000000E-03 0.  1.
         12    1    3    3    0    0 -0.17440372085E+01  0.45168938765E+01  0.16598605135E+01  0.51185088649E+01  0.00000000000E+00 0. -1.
</event>
<event>
 7    1  0.1427898E-010  0.4778727E+02  0.7816164E-02  0.1312668E+00
        -11   -1    0    0    0    0  0.00000000000E+00  0.00000000000E+00  0.45593999997E+02  0.45594000000E+02  0.51100000000E-03 0.  1.
         11   -1    0    0    0    0 -0.00000000000E+00 -0.00000000000E+00 -0.45593999997E+02  0.45594000000E+02  0.51100000000E-03 0. -1.
    9900012    2    1    2    0    0  0.37499179348E+02 -0.12636968720E+02 -0.17825315986E+02  0.47787270511E+02  0.19999997568E+02 0.  0.
        -12    1    1    2    0    0 -0.37499179348E+02  0.12636968720E+02  0.17825315986E+02  0.43400729489E+02  0.00000000000E+00 0.  1.
         11    1    3    3    0    0  0.76035867187E+01 -0.49057742005E+01 -0.15081209493E+00  0.90500771292E+01  0.51100000000E-03 0. -1.
        -11    1    3    3    0    0  0.24838718387E+02 -0.51931214391E+00 -0.16563295477E+02  0.29859242682E+02  0.51100000000E-03 0.  1.
        -12    1    3    3    0    0  0.50568742419E+01 -0.72118823751E+01 -0.11112084138E+01  0.88779506999E+01  0.00000000000E+00 0.  1.
</event>
<event>
 7    1  0.1427898E-010  0.4778727E+02  0.7816164E-02  0.1312668E+00
        -11   -1    0    0    0    0  0.00000000000E+00  0.00000000000E+00  0.45593999997E+02  0.45594000000E+02  0.51100000000E-03 0.  1.
         11   -1    0    0    0    0 -0.00000000000E+00 -0.00000000000E+00 -0.45593999997E+02  0.45594000000E+02  0.51100000000E-03 0. -1.
    9900012    2    1    2    0    0  0.24470241305E+02  0.16000328513E+02 -0.32075229470E+02  0.47787267660E+02  0.19999984569E+02 0.  0.
        -12    1    1    2    0    0 -0.24470241305E+02 -0.16000328513E+02  0.32075229470E+02  0.43400732340E+02  0.00000000000E+00 0.  1.
         11    1    3    3    0    0  0.10269549923E+02  0.31709898073E+01 -0.52613512623E+01  0.11966647373E+02  0.51100000000E-03 0. -1.
        -11    1    3    3    0    0  0.14495884779E+02  0.11559769325E+02 -0.28307059915E+02  0.33838566513E+02  0.51100000000E-03 0.  1.
        -12    1    3    3    0    0 -0.29519339673E+00  0.12695693807E+01  0.14931817069E+01  0.19820537742E+01  0.00000000000E+00 0.  1.
</event>
<event>
 7    1  0.1427898E-010  0.4778727E+02  0.7816164E-02  0.1312668E+00
        -11   -1    0    0    0    0  0.00000000000E+00  0.00000000000E+00  0.45593999997E+02  0.45594000000E+02  0.51100000000E-03 0. -1.
         11   -1    0    0    0    0 -0.00000000000E+00 -0.00000000000E+00 -0.45593999997E+02  0.45594000000E+02  0.51100000000E-03 0.  1.
    9900012    2    1    2    0    0 -0.28585915593E+02  0.28634085297E+02  0.15702173720E+02  0.47787266474E+02  0.19999979160E+02 0.  0.
        -12    1    1    2    0    0  0.28585915593E+02 -0.28634085297E+02 -0.15702173720E+02  0.43400733526E+02  0.00000000000E+00 0.  1.
         11    1    3    3    0    0 -0.15098817128E+01  0.94118671350E+01 -0.14228560249E+01  0.96378164167E+01  0.51100000000E-03 0. -1.
        -11    1    3    3    0    0 -0.78118598346E+01  0.15855330870E+01  0.40863917744E+01  0.89575480596E+01  0.51100000000E-03 0.  1.
         12    1    3    3    0    0 -0.19264174045E+02  0.17636685075E+02  0.13038637970E+02  0.29191901997E+02  0.00000000000E+00 0. -1.
</event>
<event>
 7    1  0.1427898E-010  0.4778727E+02  0.7816164E-02  0.1312668E+00
        -11   -1    0    0    0    0  0.00000000000E+00  0.00000000000E+00  0.45593999997E+02  0.45594000000E+02  0.51100000000E-03 0.  1.
         11   -1    0    0    0    0 -0.00000000000E+00 -0.00000000000E+00 -0.45593999997E+02  0.45594000000E+02  0.51100000000E-03 0. -1.
    9900012    2    1    2    0    0 -0.39214504107E+02  0.12886898895E+02 -0.13407982125E+02  0.47787268668E+02  0.19999989165E+02 0.  0.
        -12    1    1    2    0    0  0.39214504107E+02 -0.12886898895E+02  0.13407982125E+02  0.43400731332E+02  0.00000000000E+00 0.  1.
         11    1    3    3    0    0 -0.22167294879E+02  0.10445588609E+02  0.20037242611E+01  0.24586870374E+02  0.51100000000E-03 0. -1.
        -11    1    3    3    0    0 -0.83914262288E+01  0.15641993449E+01 -0.63545091886E+01  0.10641547868E+02  0.51100000000E-03 0.  1.
         12    1    3    3    0    0 -0.86557829992E+01  0.87711094152E+00 -0.90571971973E+01  0.12558850425E+02  0.00000000000E+00 0. -1.
</event>
<event>
 7    1  0.1427898E-010  0.4778727E+02  0.7816164E-02  0.1312668E+00
        -11   -1    0    0    0    0  0.00000000000E+00  0.00000000000E+00  0.45593999997E+02  0.45594000000E+02  0.51100000000E-03 0.  1.
         11   -1    0    0    0    0 -0.00000000000E+00 -0.00000000000E+00 -0.45593999997E+02  0.45594000000E+02  0.51100000000E-03 0. -1.
    9900012    2    1    2    0    0  0.30583140136E+02  0.19867654408E+02  0.23528091103E+02  0.47787271628E+02  0.20000002661E+02 0.  0.
        -12    1    1    2    0    0 -0.30583140136E+02 -0.19867654408E+02 -0.23528091103E+02  0.43400728372E+02  0.00000000000E+00 0.  1.
         11    1    3    3    0    0  0.75738913455E+01  0.95954690245E+01  0.71518816559E+01  0.14162848139E+02  0.51100000000E-03 0. -1.
        -11    1    3    3    0    0  0.18984703771E+02  0.11004219803E+02  0.18777681350E+02  0.28881017086E+02  0.51100000000E-03 0.  1.
         12    1    3    3    0    0  0.40245450198E+01 -0.73203441947E+00 -0.24014719036E+01  0.47434064037E+01  0.00000000000E+00 0. -1.
</event>
<event>
 7    1  0.1427898E-010  0.4778727E+02  0.7816164E-02  0.1312668E+00
        -11   -1    0    0    0    0  0.00000000000E+00  0.00000000000E+00  0.45593999997E+02  0.45594000000E+02  0.51100000000E-03 0.  1.
         11   -1    0    0    0    0 -0.00000000000E+00 -0.00000000000E+00 -0.45593999997E+02  0.45594000000E+02  0.51100000000E-03 0. -1.
    9900012    2    1    2    0    0 -0.34122110327E+02 -0.24496928485E+02 -0.10918114479E+02  0.47787272562E+02  0.20000006919E+02 0.  0.
        -12    1    1    2    0    0  0.34122110327E+02  0.24496928485E+02  0.10918114479E+02  0.43400727438E+02  0.00000000000E+00 0.  1.
         11    1    3    3    0    0 -0.86218710707E+01 -0.66787179451E+01 -0.44979360959E+01  0.11797176083E+02  0.51100000000E-03 0. -1.
        -11    1    3    3    0    0 -0.24125476931E+01 -0.63403234800E+01  0.43380552159E+01  0.80522550580E+01  0.51100000000E-03 0.  1.
         12    1    3    3    0    0 -0.23087691563E+02 -0.11477887060E+02 -0.10758233599E+02  0.27937841421E+02  0.00000000000E+00 0. -1.
</event>
<event>
 7    1  0.1427898E-010  0.4778728E+02  0.7816164E-02  0.1312668E+00
        -11   -1    0    0    0    0  0.00000000000E+00  0.00000000000E+00  0.45593999997E+02  0.45594000000E+02  0.51100000000E-03 0.  1.
         11   -1    0    0    0    0 -0.00000000000E+00 -0.00000000000E+00 -0.45593999997E+02  0.45594000000E+02  0.51100000000E-03 0. -1.
    9900012    2    1    2    0    0  0.38218519829E+02  0.14288150023E+01 -0.20516466145E+02  0.47787283954E+02  0.20000058861E+02 0.  0.
        -12    1    1    2    0    0 -0.38218519829E+02 -0.14288150023E+01  0.20516466145E+02  0.43400716046E+02  0.00000000000E+00 0.  1.
         11    1    3    3    0    0  0.49834713844E+01  0.75485207034E+01 -0.27051027675E+01  0.94410133510E+01  0.51100000000E-03 0. -1.
        -11    1    3    3    0    0  0.99459372889E+01 -0.25474176672E+01 -0.69760110741E+01  0.12412724765E+02  0.51100000000E-03 0.  1.
         12    1    3    3    0    0  0.23289111156E+02 -0.35722880339E+01 -0.10835352303E+02  0.25933545838E+02  0.00000000000E+00 0. -1.
</event>
<event>
 7    1  0.1427898E-010  0.4778729E+02  0.7816164E-02  0.1312668E+00
        -11   -1    0    0    0    0  0.00000000000E+00  0.00000000000E+00  0.45593999997E+02  0.45594000000E+02  0.51100000000E-03 0.  1.
         11   -1    0    0    0    0 -0.00000000000E+00 -0.00000000000E+00 -0.45593999997E+02  0.45594000000E+02  0.51100000000E-03 0. -1.
    9900012    2    1    2    0    0 -0.99607179985E+01 -0.29946980168E+02 -0.29792346159E+02  0.47787292472E+02  0.20000097699E+02 0.  0.
        -12    1    1    2    0    0  0.99607179985E+01  0.29946980168E+02  0.29792346159E+02  0.43400707528E+02  0.00000000000E+00 0.  1.
         11    1    3    3    0    0 -0.89308928216E+01 -0.75501689642E+01 -0.66342231781E+01  0.13445401274E+02  0.51100000000E-03 0. -1.
        -11    1    3    3    0    0 -0.11670750692E+01 -0.74773069318E+01 -0.10070052727E+01  0.76345427532E+01  0.51100000000E-03 0.  1.
         12    1    3    3    0    0  0.13724989228E+00 -0.14919504272E+02 -0.22151117708E+02  0.26707348445E+02  0.00000000000E+00 0. -1.
</event>
<event>
 7    1  0.1427898E-010  0.4778727E+02  0.7816164E-02  0.1312668E+00
        -11   -1    0    0    0    0  0.00000000000E+00  0.00000000000E+00  0.45593999997E+02  0.45594000000E+02  0.51100000000E-03 0.  1.
         11   -1    0    0    0    0 -0.00000000000E+00 -0.00000000000E+00 -0.45593999997E+02  0.45594000000E+02  0.51100000000E-03 0. -1.
    9900012    2    1    2    0    0 -0.26791604440E+02  0.26299030349E+02 -0.21776004579E+02  0.47787269116E+02  0.19999991210E+02 0.  0.
        -12    1    1    2    0    0  0.26791604440E+02 -0.26299030349E+02  0.21776004579E+02  0.43400730884E+02  0.00000000000E+00 0.  1.
         11    1    3    3    0    0 -0.14500629212E+02  0.98267478667E+01 -0.42008082170E+01  0.18013328707E+02  0.51100000000E-03 0. -1.
        -11    1    3    3    0    0 -0.11862696273E+02  0.12262421088E+02 -0.71062769156E+01  0.18482145592E+02  0.51100000000E-03 0.  1.
        -12    1    3    3    0    0 -0.42827895480E+00  0.42098613948E+01 -0.10468919446E+02  0.11291794817E+02  0.00000000000E+00 0.  1.
</event>
<event>
 7    1  0.1427898E-010  0.4778727E+02  0.7816164E-02  0.1312668E+00
        -11   -1    0    0    0    0  0.00000000000E+00  0.00000000000E+00  0.45593999997E+02  0.45594000000E+02  0.51100000000E-03 0.  1.
         11   -1    0    0    0    0 -0.00000000000E+00 -0.00000000000E+00 -0.45593999997E+02  0.45594000000E+02  0.51100000000E-03 0. -1.
    9900012    2    1    2    0    0 -0.33601489178E+01 -0.23184911703E+02 -0.36534810646E+02  0.47787272813E+02  0.20000008065E+02 0.  0.
        -12    1    1    2    0    0  0.33601489178E+01  0.23184911703E+02  0.36534810646E+02  0.43400727187E+02  0.00000000000E+00 0.  1.
         11    1    3    3    0    0  0.14467561945E+01 -0.81554004882E+01 -0.14427263985E+02  0.16635792946E+02  0.51100000000E-03 0. -1.
        -11    1    3    3    0    0 -0.73068542391E+01 -0.12142564544E+02 -0.74616450422E+01  0.16015871490E+02  0.51100000000E-03 0.  1.
        -12    1    3    3    0    0  0.24999491268E+01 -0.28869466702E+01 -0.14645901619E+02  0.15135608377E+02  0.00000000000E+00 0.  1.
</event>
<event>
 7    1  0.1427898E-010  0.4778727E+02  0.7816164E-02  0.1312668E+00
        -11   -1    0    0    0    0  0.00000000000E+00  0.00000000000E+00  0.45593999997E+02  0.45594000000E+02  0.51100000000E-03 0.  1.
         11   -1    0    0    0    0 -0.00000000000E+00 -0.00000000000E+00 -0.45593999997E+02  0.45594000000E+02  0.51100000000E-03 0. -1.
    9900012    2    1    2    0    0 -0.21509053451E+02  0.35683075886E+02 -0.12153282569E+02  0.47787267722E+02  0.19999984854E+02 0.  0.
        -12    1    1    2    0    0  0.21509053451E+02 -0.35683075886E+02  0.12153282569E+02  0.43400732278E+02  0.00000000000E+00 0.  1.
         11    1    3    3    0    0 -0.11449323879E+02  0.57904892987E+01 -0.67613358988E+00  0.12848110386E+02  0.51100000000E-03 0. -1.
        -11    1    3    3    0    0 -0.12807183022E+01  0.35560993073E+01  0.17766615352E+01  0.41764348582E+01  0.51100000000E-03 0.  1.
         12    1    3    3    0    0 -0.87790112698E+01  0.26336487280E+02 -0.13253810514E+02  0.30762722478E+02  0.00000000000E+00 0. -1.
</event>
<event>
 7    1  0.1427898E-010  0.4778727E+02  0.7816164E-02  0.1312668E+00
        -11   -1    0    0    0    0  0.00000000000E+00  0.00000000000E+00  0.45593999997E+02  0.45594000000E+02  0.51100000000E-03 0.  1.
         11   -1    0    0    0    0 -0.00000000000E+00 -0.00000000000E+00 -0.45593999997E+02  0.45594000000E+02  0.51100000000E-03 0. -1.
    9900012    2    1    2    0    0  0.19624439876E+02  0.12315441179E+02 -0.36699244398E+02  0.47787271075E+02  0.20000000138E+02 0.  0.
        -12    1    1    2    0    0 -0.19624439876E+02 -0.12315441179E+02  0.36699244398E+02  0.43400728925E+02  0.00000000000E+00 0.  1.
         11    1    3    3    0    0  0.12788146324E+02  0.66432280993E+01 -0.14367011867E+02  0.20348960569E+02  0.51100000000E-03 0. -1.
        -11    1    3    3    0    0 -0.91468598112E+00  0.71469816835E+01 -0.63056216892E+01  0.95748035372E+01  0.51100000000E-03 0.  1.
        -12    1    3    3    0    0  0.77509795332E+01 -0.14747686038E+01 -0.16026610842E+02  0.17863506969E+02  0.00000000000E+00 0.  1.
</event>
<event>
 7    1  0.1427898E-010  0.4778727E+02  0.7816164E-02  0.1312668E+00
        -11   -1    0    0    0    0  0.00000000000E+00  0.00000000000E+00  0.45593999997E+02  0.45594000000E+02  0.51100000000E-03 0.  1.
         11   -1    0    0    0    0 -0.00000000000E+00 -0.00000000000E+00 -0.45593999997E+02  0.45594000000E+02  0.51100000000E-03 0. -1.
    9900012    2    1    2    0    0  0.26942798434E+02  0.11862092978E+02 -0.31890430503E+02  0.47787271954E+02  0.20000004145E+02 0.  0.
        -12    1    1    2    0    0 -0.26942798434E+02 -0.11862092978E+02  0.31890430503E+02  0.43400728046E+02  0.00000000000E+00 0.  1.
         11    1    3    3    0    0  0.65513956228E+01  0.42973100670E+01 -0.17063139497E+02  0.18776005650E+02  0.51100000000E-03 0. -1.
        -11    1    3    3    0    0  0.17435197296E+02  0.15365750427E+01 -0.13646875196E+02  0.22194241832E+02  0.51100000000E-03 0.  1.
        -12    1    3    3    0    0  0.29562055153E+01  0.60282078684E+01 -0.11804158091E+01  0.68170244708E+01  0.00000000000E+00 0.  1.
</event>
<event>
 7    1  0.1427898E-010  0.4778727E+02  0.7816164E-02  0.1312668E+00
        -11   -1    0    0    0    0  0.00000000000E+00  0.00000000000E+00  0.45593999997E+02  0.45594000000E+02  0.51100000000E-03 0.  1.
         11   -1    0    0    0    0 -0.00000000000E+00 -0.00000000000E+00 -0.45593999997E+02  0.45594000000E+02  0.51100000000E-03 0. -1.
    9900012    2    1    2    0    0  0.15735316940E+01 -0.25980347816E+02 -0.34729940442E+02  0.47787271461E+02  0.20000001900E+02 0.  0.
        -12    1    1    2    0    0 -0.15735316940E+01  0.25980347816E+02  0.34729940442E+02  0.43400728539E+02  0.00000000000E+00 0.  1.
         11    1    3    3    0    0 -0.56556901541E+00 -0.10814979079E+01 -0.81853860117E+01  0.82758715830E+01  0.51100000000E-03 0. -1.
        -11    1    3    3    0    0 -0.41485479117E+01 -0.18698380559E+02 -0.12334886543E+02  0.22781336914E+02  0.51100000000E-03 0.  1.
        -12    1    3    3    0    0  0.62876486212E+01 -0.62004693491E+01 -0.14209667887E+02  0.16730062964E+02  0.00000000000E+00 0.  1.
</event>
<event>
 7    1  0.1427898E-010  0.4778727E+02  0.7816164E-02  0.1312668E+00
        -11   -1    0    0    0    0  0.00000000000E+00  0.00000000000E+00  0.45593999997E+02  0.45594000000E+02  0.51100000000E-03 0. -1.
         11   -1    0    0    0    0 -0.00000000000E+00 -0.00000000000E+00 -0.45593999997E+02  0.45594000000E+02  0.51100000000E-03 0.  1.
    9900012    2    1    2    0    0  0.40672386939E+01  0.39997559319E+02  0.16348571537E+02  0.47787274506E+02  0.20000015783E+02 0.  0.
        -12    1    1    2    0    0 -0.40672386939E+01 -0.39997559319E+02 -0.16348571537E+02  0.43400725494E+02  0.00000000000E+00 0.  1.
         11    1    3    3    0    0  0.17370818312E+01  0.22885657399E+02  0.44992606820E+01  0.23388332878E+02  0.51100000000E-03 0. -1.
        -11    1    3    3    0    0 -0.36544401822E+01  0.19979220706E+01 -0.19182157377E+00  0.41693430445E+01  0.51100000000E-03 0.  1.
        -12    1    3    3    0    0  0.59845970449E+01  0.15113979850E+02  0.12041132429E+02  0.20229598584E+02  0.00000000000E+00 0.  1.
</event>
<event>
 7    1  0.1427898E-010  0.4778727E+02  0.7816164E-02  0.1312668E+00
        -11   -1    0    0    0    0  0.00000000000E+00  0.00000000000E+00  0.45593999997E+02  0.45594000000E+02  0.51100000000E-03 0.  1.
         11   -1    0    0    0    0 -0.00000000000E+00 -0.00000000000E+00 -0.45593999997E+02  0.45594000000E+02  0.51100000000E-03 0. -1.
    9900012    2    1    2    0    0  0.40625002847E+01 -0.39441795626E+02 -0.17648341753E+02  0.47787272847E+02  0.20000008220E+02 0.  0.
        -12    1    1    2    0    0 -0.40625002847E+01  0.39441795626E+02  0.17648341753E+02  0.43400727153E+02  0.00000000000E+00 0.  1.
         11    1    3    3    0    0 -0.47877815260E+01 -0.99066183017E+01 -0.81621346770E+01  0.13699794920E+02  0.51100000000E-03 0.  1.
        -11    1    3    3    0    0  0.11999932642E+01 -0.17684375592E+02 -0.12863561099E+01  0.17771658229E+02  0.51100000000E-03 0. -1.
         12    1    3    3    0    0  0.76502885465E+01 -0.11850801732E+02 -0.81998509665E+01  0.16315819698E+02  0.00000000000E+00 0. -1.
</event>
<event>
 7    1  0.1427898E-010  0.4778727E+02  0.7816164E-02  0.1312668E+00
        -11   -1    0    0    0    0  0.00000000000E+00  0.00000000000E+00  0.45593999997E+02  0.45594000000E+02  0.51100000000E-03 0.  1.
         11   -1    0    0    0    0 -0.00000000000E+00 -0.00000000000E+00 -0.45593999997E+02  0.45594000000E+02  0.51100000000E-03 0. -1.
    9900012    2    1    2    0    0 -0.20213888688E+02 -0.11136349993E+02 -0.36756004428E+02  0.47787269032E+02  0.19999990825E+02 0.  0.
        -12    1    1    2    0    0  0.20213888688E+02  0.11136349993E+02  0.36756004428E+02  0.43400730968E+02  0.00000000000E+00 0.  1.
         11    1    3    3    0    0 -0.31156993532E+01  0.21265917554E+01 -0.86463337651E+01  0.94334014434E+01  0.51100000000E-03 0. -1.
        -11    1    3    3    0    0  0.80731422871E-02  0.26092254963E+01 -0.41958892050E+01  0.49410129880E+01  0.51100000000E-03 0.  1.
        -12    1    3    3    0    0 -0.17106262477E+02 -0.15872167244E+02 -0.23913781458E+02  0.33412854601E+02  0.00000000000E+00 0.  1.
</event>
<event>
 7    1  0.1427898E-010  0.4778727E+02  0.7816164E-02  0.1312668E+00
        -11   -1    0    0    0    0  0.00000000000E+00  0.00000000000E+00  0.45593999997E+02  0.45594000000E+02  0.51100000000E-03 0.  1.
         11   -1    0    0    0    0 -0.00000000000E+00 -0.00000000000E+00 -0.45593999997E+02  0.45594000000E+02  0.51100000000E-03 0. -1.
    9900012    2    1    2    0    0 -0.32284867917E+02  0.21722609837E+01 -0.28923896624E+02  0.47787271779E+02  0.20000003348E+02 0.  0.
        -12    1    1    2    0    0  0.32284867917E+02 -0.21722609837E+01  0.28923896624E+02  0.43400728221E+02  0.00000000000E+00 0.  1.
         11    1    3    3    0    0 -0.74861428375E+01 -0.15843706067E+01 -0.20384095669E+01  0.79188180069E+01  0.51100000000E-03 0. -1.
        -11    1    3    3    0    0 -0.50620776996E+01 -0.67289303840E+00 -0.16212578773E+02  0.16997797693E+02  0.51100000000E-03 0.  1.
        -12    1    3    3    0    0 -0.19736647380E+02  0.44295246288E+01 -0.10672908284E+02  0.22870656079E+02  0.00000000000E+00 0.  1.
</event>
<event>
 7    1  0.1427898E-010  0.4778726E+02  0.7816164E-02  0.1312668E+00
        -11   -1    0    0    0    0  0.00000000000E+00  0.00000000000E+00  0.45593999997E+02  0.45594000000E+02  0.51100000000E-03 0.  1.
         11   -1    0    0    0    0 -0.00000000000E+00 -0.00000000000E+00 -0.45593999997E+02  0.45594000000E+02  0.51100000000E-03 0. -1.
    9900012    2    1    2    0    0  0.14802526304E+02 -0.29207564708E+02 -0.28485575087E+02  0.47787255661E+02  0.19999929859E+02 0.  0.
        -12    1    1    2    0    0 -0.14802526304E+02  0.29207564708E+02  0.28485575087E+02  0.43400744339E+02  0.00000000000E+00 0.  1.
         11    1    3    3    0    0  0.46087852010E+01 -0.73909467441E+01 -0.13405297856E+02  0.15986525754E+02  0.51100000000E-03 0. -1.
        -11    1    3    3    0    0  0.84324463956E+01 -0.52941200067E+01 -0.10702270579E+02  0.14617539282E+02  0.51100000000E-03 0.  1.
        -12    1    3    3    0    0  0.17612947076E+01 -0.16522497958E+02 -0.43780066518E+01  0.17183190625E+02  0.00000000000E+00 0.  1.
</event>
<event>
 7    1  0.1427898E-010  0.4778727E+02  0.7816164E-02  0.1312668E+00
        -11   -1    0    0    0    0  0.00000000000E+00  0.00000000000E+00  0.45593999997E+02  0.45594000000E+02  0.51100000000E-03 0.  1.
         11   -1    0    0    0    0 -0.00000000000E+00 -0.00000000000E+00 -0.45593999997E+02  0.45594000000E+02  0.51100000000E-03 0. -1.
    9900012    2    1    2    0    0  0.37598021365E+02 -0.19173276113E+02  0.10119166481E+02  0.47787271230E+02  0.20000000847E+02 0.  0.
        -12    1    1    2    0    0 -0.37598021365E+02  0.19173276113E+02 -0.10119166481E+02  0.43400728770E+02  0.00000000000E+00 0.  1.
         11    1    3    3    0    0  0.11651198121E+02 -0.53338540307E+00  0.51156546957E+01  0.12735966428E+02  0.51100000000E-03 0. -1.
        -11    1    3    3    0    0  0.54034757677E+01  0.17539710423E+01  0.16173297195E+01  0.59067521086E+01  0.51100000000E-03 0.  1.
         12    1    3    3    0    0  0.20543347477E+02 -0.20393861752E+02  0.33861820660E+01  0.29144552693E+02  0.00000000000E+00 0. -1.
</event>
<event>
 7    1  0.1427898E-010  0.4778727E+02  0.7816164E-02  0.1312668E+00
        -11   -1    0    0    0    0  0.00000000000E+00  0.00000000000E+00  0.45593999997E+02  0.45594000000E+02  0.51100000000E-03 0.  1.
         11   -1    0    0    0    0 -0.00000000000E+00 -0.00000000000E+00 -0.45593999997E+02  0.45594000000E+02  0.51100000000E-03 0. -1.
    9900012    2    1    2    0    0 -0.29381757924E+02 -0.28549002027E+02 -0.14327944495E+02  0.47787271792E+02  0.20000003410E+02 0.  0.
        -12    1    1    2    0    0  0.29381757924E+02  0.28549002027E+02  0.14327944495E+02  0.43400728208E+02  0.00000000000E+00 0.  1.
         11    1    3    3    0    0 -0.11502368509E+02 -0.14960651875E+02 -0.16082372023E+01  0.18939694111E+02  0.51100000000E-03 0. -1.
        -11    1    3    3    0    0 -0.16714228097E+02 -0.62533911065E+01 -0.59871825441E+01  0.18823301419E+02  0.51100000000E-03 0.  1.
         12    1    3    3    0    0 -0.11651613178E+01 -0.73349590458E+01 -0.67325247491E+01  0.10024276263E+02  0.00000000000E+00 0. -1.
</event>
<event>
 7    1  0.1427898E-010  0.4778725E+02  0.7816164E-02  0.1312668E+00
        -11   -1    0    0    0    0  0.00000000000E+00  0.00000000000E+00  0.45593999997E+02  0.45594000000E+02  0.51100000000E-03 0.  1.
         11   -1    0    0    0    0 -0.00000000000E+00 -0.00000000000E+00 -0.45593999997E+02  0.45594000000E+02  0.51100000000E-03 0. -1.
    9900012    2    1    2    0    0  0.26310363696E+02  0.58661299521E+01 -0.34014383657E+02  0.47787250997E+02  0.19999908596E+02 0.  0.
        -12    1    1    2    0    0 -0.26310363696E+02 -0.58661299521E+01  0.34014383657E+02  0.43400749003E+02  0.00000000000E+00 0.  1.
         11    1    3    3    0    0  0.32366841754E+01  0.15656776253E+01  0.98554098754E-01  0.35968297220E+01  0.51100000000E-03 0. -1.
        -11    1    3    3    0    0  0.23513234527E+01  0.84378904751E+00  0.14479113833E+01  0.28874122620E+01  0.51100000000E-03 0.  1.
         12    1    3    3    0    0  0.20722356068E+02  0.34566632794E+01 -0.35560849139E+02  0.41303009013E+02  0.00000000000E+00 0. -1.
</event>
<event>
 7    1  0.1427898E-010  0.4778727E+02  0.7816164E-02  0.1312668E+00
        -11   -1    0    0    0    0  0.00000000000E+00  0.00000000000E+00  0.45593999997E+02  0.45594000000E+02  0.51100000000E-03 0. -1.
         11   -1    0    0    0    0 -0.00000000000E+00 -0.00000000000E+00 -0.45593999997E+02  0.45594000000E+02  0.51100000000E-03 0.  1.
    9900012    2    1    2    0    0  0.36681585518E+02 -0.22267101600E+02  0.65008511874E+01  0.47787267333E+02  0.19999983080E+02 0.  0.
        -12    1    1    2    0    0 -0.36681585518E+02  0.22267101600E+02 -0.65008511874E+01  0.43400732667E+02  0.00000000000E+00 0.  1.
         11    1    3    3    0    0  0.94384097688E+01 -0.43707651885E+01  0.58201170189E+01  0.11918931566E+02  0.51100000000E-03 0. -1.
        -11    1    3    3    0    0  0.14439324567E+02 -0.87105085665E+01  0.77962873241E+01  0.18578190163E+02  0.51100000000E-03 0.  1.
         12    1    3    3    0    0  0.12803851183E+02 -0.91858278454E+01 -0.71155531556E+01  0.17290145605E+02  0.00000000000E+00 0. -1.
</event>
<event>
 7    1  0.1427898E-010  0.4778727E+02  0.7816164E-02  0.1312668E+00
        -11   -1    0    0    0    0  0.00000000000E+00  0.00000000000E+00  0.45593999997E+02  0.45594000000E+02  0.51100000000E-03 0.  1.
         11   -1    0    0    0    0 -0.00000000000E+00 -0.00000000000E+00 -0.45593999997E+02  0.45594000000E+02  0.51100000000E-03 0. -1.
    9900012    2    1    2    0    0 -0.21610895102E+02 -0.20961819602E+02 -0.31260116744E+02  0.47787267667E+02  0.19999984602E+02 0.  0.
        -12    1    1    2    0    0  0.21610895102E+02  0.20961819602E+02  0.31260116744E+02  0.43400732333E+02  0.00000000000E+00 0.  1.
         11    1    3    3    0    0 -0.21101404687E+01 -0.74991896021E+01 -0.88183593892E+01  0.11766647784E+02  0.51100000000E-03 0. -1.
        -11    1    3    3    0    0  0.15418597263E+01 -0.31502043623E+01  0.94775058848E-01  0.35085754250E+01  0.51100000000E-03 0.  1.
         12    1    3    3    0    0 -0.21042614360E+02 -0.10312425638E+02 -0.22536532414E+02  0.32512044459E+02  0.00000000000E+00 0. -1.
</event>
<event>
 7    1  0.1427898E-010  0.4778727E+02  0.7816164E-02  0.1312668E+00
        -11   -1    0    0    0    0  0.00000000000E+00  0.00000000000E+00  0.45593999997E+02  0.45594000000E+02  0.51100000000E-03 0.  1.
         11   -1    0    0    0    0 -0.00000000000E+00 -0.00000000000E+00 -0.45593999997E+02  0.45594000000E+02  0.51100000000E-03 0. -1.
    9900012    2    1    2    0    0  0.23191133658E+02  0.56199695587E+00 -0.36680771315E+02  0.47787268379E+02  0.19999987849E+02 0.  0.
        -12    1    1    2    0    0 -0.23191133658E+02 -0.56199695587E+00  0.36680771315E+02  0.43400731621E+02  0.00000000000E+00 0.  1.
         11    1    3    3    0    0  0.62574718348E+01 -0.26003744497E+01 -0.84796280591E+01  0.10854583977E+02  0.51100000000E-03 0.  1.
        -11    1    3    3    0    0  0.88423341783E+00  0.70376168258E+01 -0.61673970959E+01  0.93992928736E+01  0.51100000000E-03 0. -1.
         12    1    3    3    0    0  0.16049428405E+02 -0.38752454203E+01 -0.22033746160E+02  0.27533391528E+02  0.00000000000E+00 0. -1.
</event>
<event>
 7    1  0.1427898E-010  0.4778727E+02  0.7816164E-02  0.1312668E+00
        -11   -1    0    0    0    0  0.00000000000E+00  0.00000000000E+00  0.45593999997E+02  0.45594000000E+02  0.51100000000E-03 0.  1.
         11   -1    0    0    0    0 -0.00000000000E+00 -0.00000000000E+00 -0.45593999997E+02  0.45594000000E+02  0.51100000000E-03 0. -1.
    9900012    2    1    2    0    0  0.28360896088E+02 -0.10701824064E+02 -0.31060491800E+02  0.47787267102E+02  0.19999982025E+02 0.  0.
        -12    1    1    2    0    0 -0.28360896088E+02  0.10701824064E+02  0.31060491800E+02  0.43400732898E+02  0.00000000000E+00 0.  1.
         11    1    3    3    0    0  0.31361888536E+01 -0.55766926191E+01 -0.45303211847E+01  0.78395785213E+01  0.51100000000E-03 0.  1.
        -11    1    3    3    0    0  0.17748223579E+02 -0.26423586320E+01 -0.26579638646E+02  0.32069591363E+02  0.51100000000E-03 0. -1.
         12    1    3    3    0    0  0.74764836556E+01 -0.24827728129E+01  0.49468030818E-01  0.78780972182E+01  0.00000000000E+00 0. -1.
</event>
<event>
 7    1  0.1427898E-010  0.4778727E+02  0.7816164E-02  0.1312668E+00
        -11   -1    0    0    0    0  0.00000000000E+00  0.00000000000E+00  0.45593999997E+02  0.45594000000E+02  0.51100000000E-03 0. -1.
         11   -1    0    0    0    0 -0.00000000000E+00 -0.00000000000E+00 -0.45593999997E+02  0.45594000000E+02  0.51100000000E-03 0.  1.
    9900012    2    1    2    0    0 -0.23929827487E+02  0.35833750346E+02  0.51892887293E+01  0.47787273912E+02  0.20000013077E+02 0.  0.
        -12    1    1    2    0    0  0.23929827487E+02 -0.35833750346E+02 -0.51892887293E+01  0.43400726088E+02  0.00000000000E+00 0.  1.
         11    1    3    3    0    0 -0.10132064389E+02  0.21464635026E+02  0.70105977526E+01  0.24749500332E+02  0.51100000000E-03 0. -1.
        -11    1    3    3    0    0 -0.32066163686E+01 -0.66352606716E+00  0.25335354850E+01  0.41402243528E+01  0.51100000000E-03 0.  1.
        -12    1    3    3    0    0 -0.10591146730E+02  0.15032641387E+02 -0.43548445083E+01  0.18897549228E+02  0.00000000000E+00 0.  1.
</event>
<event>
 7    1  0.1427898E-010  0.4778727E+02  0.7816164E-02  0.1312668E+00
        -11   -1    0    0    0    0  0.00000000000E+00  0.00000000000E+00  0.45593999997E+02  0.45594000000E+02  0.51100000000E-03 0. -1.
         11   -1    0    0    0    0 -0.00000000000E+00 -0.00000000000E+00 -0.45593999997E+02  0.45594000000E+02  0.51100000000E-03 0.  1.
    9900012    2    1    2    0    0  0.99514759628E+00  0.12856927398E+02  0.41440710727E+02  0.47787269518E+02  0.19999993039E+02 0.  0.
        -12    1    1    2    0    0 -0.99514759628E+00 -0.12856927398E+02 -0.41440710727E+02  0.43400730482E+02  0.00000000000E+00 0.  1.
         11    1    3    3    0    0  0.49321759337E+01  0.65006720978E+01  0.20284612366E+02  0.21864368188E+02  0.51100000000E-03 0. -1.
        -11    1    3    3    0    0 -0.10157344445E+01  0.78646283868E+01  0.48649702035E+01  0.93033344273E+01  0.51100000000E-03 0.  1.
        -12    1    3    3    0    0 -0.29212938930E+01 -0.15083730871E+01  0.16291128158E+02  0.16619566903E+02  0.00000000000E+00 0.  1.
</event>
<event>
 7    1  0.1427898E-010  0.4778727E+02  0.7816164E-02  0.1312668E+00
        -11   -1    0    0    0    0  0.00000000000E+00  0.00000000000E+00  0.45593999997E+02  0.45594000000E+02  0.51100000000E-03 0. -1.
         11   -1    0    0    0    0 -0.00000000000E+00 -0.00000000000E+00 -0.45593999997E+02  0.45594000000E+02  0.51100000000E-03 0.  1.
    9900012    2    1    2    0    0 -0.30039838097E+02  0.18293052811E+02  0.25428249630E+02  0.47787268056E+02  0.19999986373E+02 0.  0.
        -12    1    1    2    0    0  0.30039838097E+02 -0.18293052811E+02 -0.25428249630E+02  0.43400731944E+02  0.00000000000E+00 0.  1.
         11    1    3    3    0    0 -0.21408095668E+01  0.19756565629E+01  0.98189280563E+01  0.10241954544E+02  0.51100000000E-03 0. -1.
        -11    1    3    3    0    0 -0.10067603305E+02  0.13547453669E+01  0.13503208073E+01  0.10247699150E+02  0.51100000000E-03 0.  1.
        -12    1    3    3    0    0 -0.17831425225E+02  0.14962650881E+02  0.14259000767E+02  0.27297614361E+02  0.00000000000E+00 0.  1.
</event>
<event>
 7    1  0.1427898E-010  0.4778727E+02  0.7816164E-02  0.1312668E+00
        -11   -1    0    0    0    0  0.00000000000E+00  0.00000000000E+00  0.45593999997E+02  0.45594000000E+02  0.51100000000E-03 0.  1.
         11   -1    0    0    0    0 -0.00000000000E+00 -0.00000000000E+00 -0.45593999997E+02  0.45594000000E+02  0.51100000000E-03 0. -1.
    9900012    2    1    2    0    0 -0.84219773145E+01 -0.26404153947E+02 -0.33399311006E+02  0.47787273932E+02  0.20000013166E+02 0.  0.
        -12    1    1    2    0    0  0.84219773145E+01  0.26404153947E+02  0.33399311006E+02  0.43400726068E+02  0.00000000000E+00 0.  1.
         11    1    3    3    0    0 -0.45404901719E+01 -0.20862736614E+02 -0.26334916075E+02  0.33902767365E+02  0.51100000000E-03 0. -1.
        -11    1    3    3    0    0 -0.44182233272E+01 -0.65970307455E+00 -0.77304959894E+01  0.89284082578E+01  0.51100000000E-03 0.  1.
        -12    1    3    3    0    0  0.53673618457E+00 -0.48817142586E+01  0.66610105860E+00  0.49560983097E+01  0.00000000000E+00 0.  1.
</event>
<event>
 7    1  0.1427898E-010  0.4778728E+02  0.7816164E-02  0.1312668E+00
        -11   -1    0    0    0    0  0.00000000000E+00  0.00000000000E+00  0.45593999997E+02  0.45594000000E+02  0.51100000000E-03 0.  1.
         11   -1    0    0    0    0 -0.00000000000E+00 -0.00000000000E+00 -0.45593999997E+02  0.45594000000E+02  0.51100000000E-03 0. -1.
    9900012    2    1    2    0    0 -0.32556764619E+02  0.13634265046E+02 -0.25254433398E+02  0.47787279821E+02  0.20000040018E+02 0.  0.
        -12    1    1    2    0    0  0.32556764619E+02 -0.13634265046E+02  0.25254433398E+02  0.43400720179E+02  0.00000000000E+00 0.  1.
         11    1    3    3    0    0 -0.15494766784E+02  0.22125129847E+01 -0.87794260696E+01  0.17946067362E+02  0.51100000000E-03 0. -1.
        -11    1    3    3    0    0 -0.62832940495E+01  0.10379051085E+02 -0.28972571693E+01  0.12473916182E+02  0.51100000000E-03 0.  1.
         12    1    3    3    0    0 -0.10778703785E+02  0.10427009759E+01 -0.13577750159E+02  0.17367296278E+02  0.00000000000E+00 0. -1.
</event>
<event>
 7    1  0.1427898E-010  0.4778728E+02  0.7816164E-02  0.1312668E+00
        -11   -1    0    0    0    0  0.00000000000E+00  0.00000000000E+00  0.45593999997E+02  0.45594000000E+02  0.51100000000E-03 0. -1.
         11   -1    0    0    0    0 -0.00000000000E+00 -0.00000000000E+00 -0.45593999997E+02  0.45594000000E+02  0.51100000000E-03 0.  1.
    9900012    2    1    2    0    0 -0.23654321243E+02  0.16703106273E+02  0.32328028347E+02  0.47787284690E+02  0.20000062214E+02 0.  0.
        -12    1    1    2    0    0  0.23654321243E+02 -0.16703106273E+02 -0.32328028347E+02  0.43400715310E+02  0.00000000000E+00 0.  1.
         11    1    3    3    0    0 -0.12534429014E+02  0.90729196306E+00  0.11309809822E+02  0.16907007064E+02  0.51100000000E-03 0. -1.
        -11    1    3    3    0    0 -0.59223892272E+01  0.23933314593E+01  0.12841447404E+02  0.14342437078E+02  0.51100000000E-03 0.  1.
        -12    1    3    3    0    0 -0.51975030023E+01  0.13402482850E+02  0.81767711210E+01  0.16537840548E+02  0.00000000000E+00 0.  1.
</event>
<event>
 7    1  0.1427898E-010  0.4778727E+02  0.7816164E-02  0.1312668E+00
        -11   -1    0    0    0    0  0.00000000000E+00  0.00000000000E+00  0.45593999997E+02  0.45594000000E+02  0.51100000000E-03 0. -1.
         11   -1    0    0    0    0 -0.00000000000E+00 -0.00000000000E+00 -0.45593999997E+02  0.45594000000E+02  0.51100000000E-03 0.  1.
    9900012    2    1    2    0    0 -0.13989053566E+02  0.35119204357E+02  0.21320675644E+02  0.47787270234E+02  0.19999996304E+02 0.  0.
        -12    1    1    2    0    0  0.13989053566E+02 -0.35119204357E+02 -0.21320675644E+02  0.43400729766E+02  0.00000000000E+00 0.  1.
         11    1    3    3    0    0  0.61162092301E+00 -0.86962401851E+00  0.55167549928E+01  0.56182659245E+01  0.51100000000E-03 0.  1.
        -11    1    3    3    0    0 -0.60363264239E+01  0.11840586585E+02  0.34871032583E+01  0.13740328117E+02  0.51100000000E-03 0. -1.
        -12    1    3    3    0    0 -0.85643480653E+01  0.24148241790E+02  0.12316817393E+02  0.28428676192E+02  0.00000000000E+00 0.  1.
</event>
<event>
 7    1  0.1427898E-010  0.4778727E+02  0.7816164E-02  0.1312668E+00
        -11   -1    0    0    0    0  0.00000000000E+00  0.00000000000E+00  0.45593999997E+02  0.45594000000E+02  0.51100000000E-03 0. -1.
         11   -1    0    0    0    0 -0.00000000000E+00 -0.00000000000E+00 -0.45593999997E+02  0.45594000000E+02  0.51100000000E-03 0.  1.
    9900012    2    1    2    0    0  0.25491901662E+02  0.18192173778E+02  0.30047151259E+02  0.47787268026E+02  0.19999986239E+02 0.  0.
        -12    1    1    2    0    0 -0.25491901662E+02 -0.18192173778E+02 -0.30047151259E+02  0.43400731974E+02  0.00000000000E+00 0.  1.
         11    1    3    3    0    0  0.55431864469E+01  0.11547502031E+02  0.12775856800E+02  0.18091275145E+02  0.51100000000E-03 0. -1.
        -11    1    3    3    0    0  0.25564111070E+01 -0.25876414956E+01  0.21270740364E+00  0.36436754738E+01  0.51100000000E-03 0.  1.
        -12    1    3    3    0    0  0.17392304108E+02  0.92323132421E+01  0.17058587055E+02  0.26052317407E+02  0.00000000000E+00 0.  1.
</event>
<event>
 7    1  0.1427898E-010  0.4778727E+02  0.7816164E-02  0.1312668E+00
        -11   -1    0    0    0    0  0.00000000000E+00  0.00000000000E+00  0.45593999997E+02  0.45594000000E+02  0.51100000000E-03 0. -1.
         11   -1    0    0    0    0 -0.00000000000E+00 -0.00000000000E+00 -0.45593999997E+02  0.45594000000E+02  0.51100000000E-03 0.  1.
    9900012    2    1    2    0    0 -0.33136793694E+02 -0.27912590830E+02 -0.25422985678E+01  0.47787272988E+02  0.20000008862E+02 0.  0.
        -12    1    1    2    0    0  0.33136793694E+02  0.27912590830E+02  0.25422985678E+01  0.43400727012E+02  0.00000000000E+00 0.  1.
         11    1    3    3    0    0 -0.13455356119E+02 -0.11013025109E+02  0.49192428258E+01  0.18070204221E+02  0.51100000000E-03 0. -1.
        -11    1    3    3    0    0 -0.13224273405E+02 -0.17874358744E+02 -0.58164633036E+01  0.22982718577E+02  0.51100000000E-03 0.  1.
         12    1    3    3    0    0 -0.64571641704E+01  0.97479302263E+00 -0.16450780900E+01  0.67343501901E+01  0.00000000000E+00 0. -1.
</event>
<event>
 7    1  0.1427898E-010  0.4778727E+02  0.7816164E-02  0.1312668E+00
        -11   -1    0    0    0    0  0.00000000000E+00  0.00000000000E+00  0.45593999997E+02  0.45594000000E+02  0.51100000000E-03 0. -1.
         11   -1    0    0    0    0 -0.00000000000E+00 -0.00000000000E+00 -0.45593999997E+02  0.45594000000E+02  0.51100000000E-03 0.  1.
    9900012    2    1    2    0    0 -0.11223889171E+02  0.40848272699E+02  0.94374976923E+01  0.47787269208E+02  0.19999991627E+02 0.  0.
        -12    1    1    2    0    0  0.11223889171E+02 -0.40848272699E+02 -0.94374976923E+01  0.43400730792E+02  0.00000000000E+00 0.  1.
         11    1    3    3    0    0 -0.69802549271E+01  0.62948187356E+01  0.35628518488E+01  0.10051995589E+02  0.51100000000E-03 0. -1.
        -11    1    3    3    0    0 -0.36253496639E+01  0.33530162889E+02  0.85607292812E+01  0.34795129970E+02  0.51100000000E-03 0.  1.
         12    1    3    3    0    0 -0.61828458032E+00  0.10232910745E+01 -0.26860834377E+01  0.29401436495E+01  0.00000000000E+00 0. -1.
</event>
<event>
 7    1  0.1427898E-010  0.4778725E+02  0.7816164E-02  0.1312668E+00
        -11   -1    0    0    0    0  0.00000000000E+00  0.00000000000E+00  0.45593999997E+02  0.45594000000E+02  0.51100000000E-03 0.  1.
         11   -1    0    0    0    0 -0.00000000000E+00 -0.00000000000E+00 -0.45593999997E+02  0.45594000000E+02  0.51100000000E-03 0. -1.
    9900012    2    1    2    0    0  0.22554771775E+01 -0.43121883553E+02 -0.43635592776E+01  0.47787254983E+02  0.19999926770E+02 0.  0.
        -12    1    1    2    0    0 -0.22554771775E+01  0.43121883553E+02  0.43635592776E+01  0.43400745017E+02  0.00000000000E+00 0.  1.
         11    1    3    3    0    0  0.15494764540E+01  0.19333924014E+00  0.86315442330E+00  0.17841785681E+01  0.51100000000E-03 0. -1.
        -11    1    3    3    0    0  0.45499204804E+01 -0.50243058315E+01  0.14843261395E+01  0.69389228138E+01  0.51100000000E-03 0.  1.
         12    1    3    3    0    0 -0.38439197569E+01 -0.38290916962E+02 -0.67110398404E+01  0.39064153601E+02  0.00000000000E+00 0. -1.
</event>
<event>
 7    1  0.1427898E-010  0.4778727E+02  0.7816164E-02  0.1312668E+00
        -11   -1    0    0    0    0  0.00000000000E+00  0.00000000000E+00  0.45593999997E+02  0.45594000000E+02  0.51100000000E-03 0.  1.
         11   -1    0    0    0    0 -0.00000000000E+00 -0.00000000000E+00 -0.45593999997E+02  0.45594000000E+02  0.51100000000E-03 0. -1.
    9900012    2    1    2    0    0  0.58685316031E+01 -0.32543969835E+02 -0.28108253224E+02  0.47787268035E+02  0.19999986279E+02 0.  0.
        -12    1    1    2    0    0 -0.58685316031E+01  0.32543969835E+02  0.28108253224E+02  0.43400731965E+02  0.00000000000E+00 0.  1.
         11    1    3    3    0    0  0.46225984766E+00 -0.24711948250E+01 -0.81720700375E+01  0.85500419291E+01  0.51100000000E-03 0.  1.
        -11    1    3    3    0    0  0.52656982317E+01 -0.23950069430E+02 -0.79526226909E+01  0.25779402854E+02  0.51100000000E-03 0. -1.
         12    1    3    3    0    0  0.14057352378E+00 -0.61227055797E+01 -0.11983560496E+02  0.13457823252E+02  0.00000000000E+00 0. -1.
</event>
<event>
 7    1  0.1427898E-010  0.4778727E+02  0.7816164E-02  0.1312668E+00
        -11   -1    0    0    0    0  0.00000000000E+00  0.00000000000E+00  0.45593999997E+02  0.45594000000E+02  0.51100000000E-03 0. -1.
         11   -1    0    0    0    0 -0.00000000000E+00 -0.00000000000E+00 -0.45593999997E+02  0.45594000000E+02  0.51100000000E-03 0.  1.
    9900012    2    1    2    0    0 -0.27275767653E+02 -0.30457297629E+02  0.14560514505E+02  0.47787273479E+02  0.20000011099E+02 0.  0.
        -12    1    1    2    0    0  0.27275767653E+02  0.30457297629E+02 -0.14560514505E+02  0.43400726521E+02  0.00000000000E+00 0.  1.
         11    1    3    3    0    0 -0.22220343988E+02 -0.16440434392E+02  0.56217693577E+01  0.28207017937E+02  0.51100000000E-03 0. -1.
        -11    1    3    3    0    0 -0.63526083248E+01 -0.66685905831E+01  0.20733919700E+01  0.94405872389E+01  0.51100000000E-03 0.  1.
        -12    1    3    3    0    0  0.12971846599E+01 -0.73482726538E+01  0.68653531770E+01  0.10139668302E+02  0.00000000000E+00 0.  1.
</event>
<event>
 7    1  0.1427898E-010  0.4778728E+02  0.7816164E-02  0.1312668E+00
        -11   -1    0    0    0    0  0.00000000000E+00  0.00000000000E+00  0.45593999997E+02  0.45594000000E+02  0.51100000000E-03 0.  1.
         11   -1    0    0    0    0 -0.00000000000E+00 -0.00000000000E+00 -0.45593999997E+02  0.45594000000E+02  0.51100000000E-03 0. -1.
    9900012    2    1    2    0    0 -0.61686239718E+00  0.32650807695E+02 -0.28586126825E+02  0.47787281006E+02  0.20000045419E+02 0.  0.
        -12    1    1    2    0    0  0.61686239718E+00 -0.32650807695E+02  0.28586126825E+02  0.43400718994E+02  0.00000000000E+00 0.  1.
         11    1    3    3    0    0 -0.37278889479E+01  0.40130492198E+01 -0.90451057038E+01  0.10574292293E+02  0.51100000000E-03 0. -1.
        -11    1    3    3    0    0  0.22314708652E+01  0.76429742038E+01  0.75597919154E+00  0.79978760744E+01  0.51100000000E-03 0.  1.
         12    1    3    3    0    0  0.87955568554E+00  0.20994784271E+02 -0.20297000313E+02  0.29215112639E+02  0.00000000000E+00 0. -1.
</event>
<event>
 7    1  0.1427898E-010  0.4778727E+02  0.7816164E-02  0.1312668E+00
        -11   -1    0    0    0    0  0.00000000000E+00  0.00000000000E+00  0.45593999997E+02  0.45594000000E+02  0.51100000000E-03 0.  1.
         11   -1    0    0    0    0 -0.00000000000E+00 -0.00000000000E+00 -0.45593999997E+02  0.45594000000E+02  0.51100000000E-03 0. -1.
    9900012    2    1    2    0    0 -0.63583873062E+01  0.22625765773E+00 -0.42931840011E+02  0.47787272260E+02  0.20000005540E+02 0.  0.
        -12    1    1    2    0    0  0.63583873062E+01 -0.22625765773E+00  0.42931840011E+02  0.43400727740E+02  0.00000000000E+00 0.  1.
         11    1    3    3    0    0 -0.27159092865E+01 -0.18250586656E+01 -0.10702320829E+02  0.11191366037E+02  0.51100000000E-03 0. -1.
        -11    1    3    3    0    0  0.13536110943E+00  0.42484443755E+01 -0.18487156970E+00  0.42546186669E+01  0.51100000000E-03 0.  1.
        -12    1    3    3    0    0 -0.37778391291E+01 -0.21971280522E+01 -0.32044647612E+02  0.32341287555E+02  0.00000000000E+00 0.  1.
</event>
<event>
 7    1  0.1427898E-010  0.4778726E+02  0.7816164E-02  0.1312668E+00
        -11   -1    0    0    0    0  0.00000000000E+00  0.00000000000E+00  0.45593999997E+02  0.45594000000E+02  0.51100000000E-03 0. -1.
         11   -1    0    0    0    0 -0.00000000000E+00 -0.00000000000E+00 -0.45593999997E+02  0.45594000000E+02  0.51100000000E-03 0.  1.
    9900012    2    1    2    0    0  0.27561480151E+02 -0.32418011250E+02  0.85475947517E+01  0.47787262477E+02  0.19999960938E+02 0.  0.
        -12    1    1    2    0    0 -0.27561480151E+02  0.32418011250E+02 -0.85475947517E+01  0.43400737523E+02  0.00000000000E+00 0.  1.
         11    1    3    3    0    0  0.74322255674E+01 -0.22957318264E+01  0.10953383884E+01  0.78554521162E+01  0.51100000000E-03 0. -1.
        -11    1    3    3    0    0 -0.57014466836E+00 -0.90324807870E+01 -0.12260999628E+01  0.91331317461E+01  0.51100000000E-03 0.  1.
         12    1    3    3    0    0  0.20699399252E+02 -0.21089798636E+02  0.86783563262E+01  0.30798678615E+02  0.00000000000E+00 0. -1.
</event>
<event>
 7    1  0.1427898E-010  0.4778726E+02  0.7816164E-02  0.1312668E+00
        -11   -1    0    0    0    0  0.00000000000E+00  0.00000000000E+00  0.45593999997E+02  0.45594000000E+02  0.51100000000E-03 0.  1.
         11   -1    0    0    0    0 -0.00000000000E+00 -0.00000000000E+00 -0.45593999997E+02  0.45594000000E+02  0.51100000000E-03 0. -1.
    9900012    2    1    2    0    0 -0.30988870101E+02  0.17557518270E+02 -0.24800156114E+02  0.47787259669E+02  0.19999948136E+02 0.  0.
        -12    1    1    2    0    0  0.30988870101E+02 -0.17557518270E+02  0.24800156114E+02  0.43400740331E+02  0.00000000000E+00 0.  1.
         11    1    3    3    0    0 -0.20556328044E+02  0.78037990506E+01 -0.13502058056E+02  0.25802470314E+02  0.51100000000E-03 0. -1.
        -11    1    3    3    0    0 -0.11750412876E+02  0.11023474509E+02 -0.11931004028E+02  0.20048392713E+02  0.51100000000E-03 0.  1.
        -12    1    3    3    0    0  0.13178708191E+01 -0.12697552891E+01  0.63290596977E+00  0.19363966424E+01  0.00000000000E+00 0.  1.
</event>
<event>
 7    1  0.1427898E-010  0.4778727E+02  0.7816164E-02  0.1312668E+00
        -11   -1    0    0    0    0  0.00000000000E+00  0.00000000000E+00  0.45593999997E+02  0.45594000000E+02  0.51100000000E-03 0.  1.
         11   -1    0    0    0    0 -0.00000000000E+00 -0.00000000000E+00 -0.45593999997E+02  0.45594000000E+02  0.51100000000E-03 0. -1.
    9900012    2    1    2    0    0 -0.23820119904E+02  0.16001626362E+02 -0.32560297487E+02  0.47787272691E+02  0.20000007509E+02 0.  0.
        -12    1    1    2    0    0  0.23820119904E+02 -0.16001626362E+02  0.32560297487E+02  0.43400727309E+02  0.00000000000E+00 0.  1.
         11    1    3    3    0    0 -0.11878679551E+02 -0.29585198506E+01 -0.14252325970E+02  0.18787886081E+02  0.51100000000E-03 0. -1.
        -11    1    3    3    0    0 -0.45537973954E+01  0.85497153859E+01 -0.70747635354E+01  0.11995290044E+02  0.51100000000E-03 0.  1.
         12    1    3    3    0    0 -0.73876429577E+01  0.10410430827E+02 -0.11233207982E+02  0.17004096566E+02  0.00000000000E+00 0. -1.
</event>
<event>
 7    1  0.1427898E-010  0.4778727E+02  0.7816164E-02  0.1312668E+00
        -11   -1    0    0    0    0  0.00000000000E+00  0.00000000000E+00  0.45593999997E+02  0.45594000000E+02  0.51100000000E-03 0. -1.
         11   -1    0    0    0    0 -0.00000000000E+00 -0.00000000000E+00 -0.45593999997E+02  0.45594000000E+02  0.51100000000E-03 0.  1.
    9900012    2    1    2    0    0  0.45451408072E+01  0.46237918898E+01  0.42913697867E+02  0.47787271654E+02  0.20000002778E+02 0.  0.
        -12    1    1    2    0    0 -0.45451408072E+01 -0.46237918898E+01 -0.42913697867E+02  0.43400728346E+02  0.00000000000E+00 0.  1.
         11    1    3    3    0    0 -0.47480093433E+01 -0.13960201727E+00  0.21978922410E+02  0.22486353906E+02  0.51100000000E-03 0. -1.
        -11    1    3    3    0    0  0.36097316305E+01  0.62471477448E+01  0.16276926399E+02  0.17804363247E+02  0.51100000000E-03 0.  1.
         12    1    3    3    0    0  0.56834185199E+01 -0.14837538378E+01  0.46578490582E+01  0.74965545001E+01  0.00000000000E+00 0. -1.
</event>
<event>
 7    1  0.1427898E-010  0.4778727E+02  0.7816164E-02  0.1312668E+00
        -11   -1    0    0    0    0  0.00000000000E+00  0.00000000000E+00  0.45593999997E+02  0.45594000000E+02  0.51100000000E-03 0. -1.
         11   -1    0    0    0    0 -0.00000000000E+00 -0.00000000000E+00 -0.45593999997E+02  0.45594000000E+02  0.51100000000E-03 0.  1.
    9900012    2    1    2    0    0  0.12925621721E+02 -0.25727580246E+02  0.32475269209E+02  0.47787271983E+02  0.20000004282E+02 0.  0.
        -12    1    1    2    0    0 -0.12925621721E+02  0.25727580246E+02 -0.32475269209E+02  0.43400728017E+02  0.00000000000E+00 0.  1.
         11    1    3    3    0    0  0.35195122319E+01  0.10061314531E+01  0.26908549954E+01  0.45431231239E+01  0.51100000000E-03 0. -1.
        -11    1    3    3    0    0  0.48975085663E+01 -0.83525832574E+01  0.24336229138E+01  0.99836745728E+01  0.51100000000E-03 0.  1.
         12    1    3    3    0    0  0.45086009226E+01 -0.18381128442E+02  0.27350791300E+02  0.33260474287E+02  0.00000000000E+00 0. -1.
</event>
<event>
 7    1  0.1427898E-010  0.4778727E+02  0.7816164E-02  0.1312668E+00
        -11   -1    0    0    0    0  0.00000000000E+00  0.00000000000E+00  0.45593999997E+02  0.45594000000E+02  0.51100000000E-03 0.  1.
         11   -1    0    0    0    0 -0.00000000000E+00 -0.00000000000E+00 -0.45593999997E+02  0.45594000000E+02  0.51100000000E-03 0. -1.
    9900012    2    1    2    0    0  0.66390511219E+01  0.38331953789E+02  0.19240783353E+02  0.47787269302E+02  0.19999992054E+02 0.  0.
        -12    1    1    2    0    0 -0.66390511219E+01 -0.38331953789E+02 -0.19240783353E+02  0.43400730698E+02  0.00000000000E+00 0.  1.
         11    1    3    3    0    0  0.34145676030E+01  0.11814651175E+02  0.67298574844E+01  0.14019138216E+02  0.51100000000E-03 0. -1.
        -11    1    3    3    0    0  0.69330540940E+01  0.16560243295E+02  0.82211612907E+00  0.17971777104E+02  0.51100000000E-03 0.  1.
        -12    1    3    3    0    0 -0.37085705752E+01  0.99570593189E+01  0.11688809740E+02  0.15796353982E+02  0.00000000000E+00 0.  1.
</event>
<event>
 7    1  0.1427898E-010  0.4778728E+02  0.7816164E-02  0.1312668E+00
        -11   -1    0    0    0    0  0.00000000000E+00  0.00000000000E+00  0.45593999997E+02  0.45594000000E+02  0.51100000000E-03 0. -1.
         11   -1    0    0    0    0 -0.00000000000E+00 -0.00000000000E+00 -0.45593999997E+02  0.45594000000E+02  0.51100000000E-03 0.  1.
    9900012    2    1    2    0    0 -0.34655186644E+02 -0.18175849822E+02  0.18769095355E+02  0.47787280899E+02  0.20000044930E+02 0.  0.
        -12    1    1    2    0    0  0.34655186644E+02  0.18175849822E+02 -0.18769095355E+02  0.43400719101E+02  0.00000000000E+00 0.  1.
         11    1    3    3    0    0 -0.48916798315E+01 -0.43213993292E+01  0.53712489772E+01  0.84530077234E+01  0.51100000000E-03 0. -1.
        -11    1    3    3    0    0 -0.14383294860E+02 -0.85419719957E+01  0.15649396030E+02  0.22907379880E+02  0.51100000000E-03 0.  1.
        -12    1    3    3    0    0 -0.15380211953E+02 -0.53124784972E+01 -0.22515496528E+01  0.16426893295E+02  0.00000000000E+00 0.  1.
</event>
<event>
 7    1  0.1427898E-010  0.4778727E+02  0.7816164E-02  0.1312668E+00
        -11   -1    0    0    0    0  0.00000000000E+00  0.00000000000E+00  0.45593999997E+02  0.45594000000E+02  0.51100000000E-03 0.  1.
         11   -1    0    0    0    0 -0.00000000000E+00 -0.00000000000E+00 -0.45593999997E+02  0.45594000000E+02  0.51100000000E-03 0. -1.
    9900012    2    1    2    0    0  0.23813056500E+02 -0.36268636073E+02  0.10712820378E+01  0.47787271116E+02  0.20000000326E+02 0.  0.
        -12    1    1    2    0    0 -0.23813056500E+02  0.36268636073E+02 -0.10712820378E+01  0.43400728884E+02  0.00000000000E+00 0.  1.
         11    1    3    3    0    0  0.69359968688E+01 -0.20540241413E+02  0.55818566252E+01  0.22386752635E+02  0.51100000000E-03 0. -1.
        -11    1    3    3    0    0  0.94513046816E+01 -0.13801452544E+02 -0.56258958342E+01  0.17648171484E+02  0.51100000000E-03 0.  1.
        -12    1    3    3    0    0  0.74257549494E+01 -0.19269421153E+01  0.11153212468E+01  0.77523469974E+01  0.00000000000E+00 0.  1.
</event>
<event>
 7    1  0.1427898E-010  0.4778728E+02  0.7816164E-02  0.1312668E+00
        -11   -1    0    0    0    0  0.00000000000E+00  0.00000000000E+00  0.45593999997E+02  0.45594000000E+02  0.51100000000E-03 0.  1.
         11   -1    0    0    0    0 -0.00000000000E+00 -0.00000000000E+00 -0.45593999997E+02  0.45594000000E+02  0.51100000000E-03 0. -1.
    9900012    2    1    2    0    0 -0.20262589373E+02  0.51847696897E+01 -0.38028514553E+02  0.47787282449E+02  0.20000051997E+02 0.  0.
        -12    1    1    2    0    0  0.20262589373E+02 -0.51847696897E+01  0.38028514553E+02  0.43400717551E+02  0.00000000000E+00 0.  1.
         11    1    3    3    0    0 -0.16878386826E+02  0.10392188794E+01 -0.23213490821E+02  0.28719785412E+02  0.51100000000E-03 0. -1.
        -11    1    3    3    0    0 -0.62685525797E+00 -0.36344898118E+01 -0.37151909051E+01  0.52349887707E+01  0.51100000000E-03 0.  1.
        -12    1    3    3    0    0 -0.27573472893E+01  0.77800406221E+01 -0.11099832827E+02  0.13832508266E+02  0.00000000000E+00 0.  1.
</event>
<event>
 7    1  0.1427898E-010  0.4778727E+02  0.7816164E-02  0.1312668E+00
        -11   -1    0    0    0    0  0.00000000000E+00  0.00000000000E+00  0.45593999997E+02  0.45594000000E+02  0.51100000000E-03 0.  1.
         11   -1    0    0    0    0 -0.00000000000E+00 -0.00000000000E+00 -0.45593999997E+02  0.45594000000E+02  0.51100000000E-03 0. -1.
    9900012    2    1    2    0    0 -0.29534514025E+02 -0.90556030512E+01 -0.30484943731E+02  0.47787271209E+02  0.20000000750E+02 0.  0.
        -12    1    1    2    0    0  0.29534514025E+02  0.90556030512E+01  0.30484943731E+02  0.43400728791E+02  0.00000000000E+00 0.  1.
         11    1    3    3    0    0 -0.62602361294E+01  0.59130903133E+01 -0.42694426928E+01  0.96116249728E+01  0.51100000000E-03 0. -1.
        -11    1    3    3    0    0 -0.56088879822E+01 -0.43805931945E+01 -0.58675642611E+01  0.92237482485E+01  0.51100000000E-03 0.  1.
         12    1    3    3    0    0 -0.17665389914E+02 -0.10588100170E+02 -0.20347936777E+02  0.28951897988E+02  0.00000000000E+00 0. -1.
</event>
<event>
 7    1  0.1427898E-010  0.4778725E+02  0.7816164E-02  0.1312668E+00
        -11   -1    0    0    0    0  0.00000000000E+00  0.00000000000E+00  0.45593999997E+02  0.45594000000E+02  0.51100000000E-03 0.  1.
         11   -1    0    0    0    0 -0.00000000000E+00 -0.00000000000E+00 -0.45593999997E+02  0.45594000000E+02  0.51100000000E-03 0. -1.
    9900012    2    1    2    0    0 -0.17238205673E+02  0.39744744255E+02 -0.26124131025E+01  0.47787249627E+02  0.19999902349E+02 0.  0.
        -12    1    1    2    0    0  0.17238205673E+02 -0.39744744255E+02  0.26124131025E+01  0.43400750373E+02  0.00000000000E+00 0.  1.
         11    1    3    3    0    0 -0.75907035044E+01  0.10374388611E+02  0.68288661014E+01  0.14556102886E+02  0.51100000000E-03 0. -1.
        -11    1    3    3    0    0 -0.39767132779E+01  0.17499345611E+02 -0.18461933483E+01  0.18040226591E+02  0.51100000000E-03 0.  1.
        -12    1    3    3    0    0 -0.56707888906E+01  0.11871010033E+02 -0.75950858556E+01  0.15190920150E+02  0.00000000000E+00 0.  1.
</event>
<event>
 7    1  0.1427898E-010  0.4778727E+02  0.7816164E-02  0.1312668E+00
        -11   -1    0    0    0    0  0.00000000000E+00  0.00000000000E+00  0.45593999997E+02  0.45594000000E+02  0.51100000000E-03 0.  1.
         11   -1    0    0    0    0 -0.00000000000E+00 -0.00000000000E+00 -0.45593999997E+02  0.45594000000E+02  0.51100000000E-03 0. -1.
    9900012    2    1    2    0    0  0.15836730907E+02  0.39521905801E+02  0.84166782704E+01  0.47787267781E+02  0.19999985122E+02 0.  0.
        -12    1    1    2    0    0 -0.15836730907E+02 -0.39521905801E+02 -0.84166782704E+01  0.43400732219E+02  0.00000000000E+00 0.  1.
         11    1    3    3    0    0 -0.11424759255E+01  0.42701843215E+01 -0.10460993393E-01  0.44203885659E+01  0.51100000000E-03 0. -1.
        -11    1    3    3    0    0  0.10081281036E+01 -0.14726819998E+01 -0.12356255609E+01  0.21706877559E+01  0.51100000000E-03 0.  1.
         12    1    3    3    0    0  0.15971078729E+02  0.36724403480E+02  0.96627648247E+01  0.41196191460E+02  0.00000000000E+00 0. -1.
</event>
<event>
 7    1  0.1427898E-010  0.4778729E+02  0.7816164E-02  0.1312668E+00
        -11   -1    0    0    0    0  0.00000000000E+00  0.00000000000E+00  0.45593999997E+02  0.45594000000E+02  0.51100000000E-03 0.  1.
         11   -1    0    0    0    0 -0.00000000000E+00 -0.00000000000E+00 -0.45593999997E+02  0.45594000000E+02  0.51100000000E-03 0. -1.
    9900012    2    1    2    0    0 -0.26533088265E+02 -0.27311245276E+02 -0.20825780680E+02  0.47787285348E+02  0.20000065216E+02 0.  0.
        -12    1    1    2    0    0  0.26533088265E+02  0.27311245276E+02  0.20825780680E+02  0.43400714652E+02  0.00000000000E+00 0.  1.
         11    1    3    3    0    0 -0.95571364330E+01 -0.97341462605E+01 -0.48046307825E+01  0.14462950509E+02  0.51100000000E-03 0. -1.
        -11    1    3    3    0    0  0.57779668439E+00  0.24729238713E+01 -0.18526017834E+01  0.31434590995E+01  0.51100000000E-03 0.  1.
        -12    1    3    3    0    0 -0.17553748516E+02 -0.20050022887E+02 -0.14168548114E+02  0.30180875739E+02  0.00000000000E+00 0.  1.
</event>
<event>
 7    1  0.1427898E-010  0.4778730E+02  0.7816164E-02  0.1312668E+00
        -11   -1    0    0    0    0  0.00000000000E+00  0.00000000000E+00  0.45593999997E+02  0.45594000000E+02  0.51100000000E-03 0.  1.
         11   -1    0    0    0    0 -0.00000000000E+00 -0.00000000000E+00 -0.45593999997E+02  0.45594000000E+02  0.51100000000E-03 0. -1.
    9900012    2    1    2    0    0  0.34807000963E+02 -0.23571718026E+02 -0.10792032883E+02  0.47787295161E+02  0.20000109956E+02 0.  0.
        -12    1    1    2    0    0 -0.34807000963E+02  0.23571718026E+02  0.10792032883E+02  0.43400704839E+02  0.00000000000E+00 0.  1.
         11    1    3    3    0    0  0.78964522016E+01 -0.12796362524E+02 -0.83305312375E+01  0.17190072780E+02  0.51100000000E-03 0. -1.
        -11    1    3    3    0    0  0.84330596502E+01  0.11423148784E+01 -0.60729868116E+00  0.85317167261E+01  0.51100000000E-03 0.  1.
        -12    1    3    3    0    0  0.18477489112E+02 -0.11917670380E+02 -0.18542029647E+01  0.22065505655E+02  0.00000000000E+00 0.  1.
</event>
<event>
 7    1  0.1427898E-010  0.4778727E+02  0.7816164E-02  0.1312668E+00
        -11   -1    0    0    0    0  0.00000000000E+00  0.00000000000E+00  0.45593999997E+02  0.45594000000E+02  0.51100000000E-03 0. -1.
         11   -1    0    0    0    0 -0.00000000000E+00 -0.00000000000E+00 -0.45593999997E+02  0.45594000000E+02  0.51100000000E-03 0.  1.
    9900012    2    1    2    0    0 -0.41853716676E+02 -0.11055633971E+02  0.31084849026E+01  0.47787270507E+02  0.19999997550E+02 0.  0.
        -12    1    1    2    0    0  0.41853716676E+02  0.11055633971E+02 -0.31084849026E+01  0.43400729493E+02  0.00000000000E+00 0.  1.
         11    1    3    3    0    0 -0.17219254578E+02 -0.54372064408E+01 -0.33367292296E+01  0.18362998239E+02  0.51100000000E-03 0. -1.
        -11    1    3    3    0    0 -0.25659397335E+02 -0.35528506893E+01  0.73817846330E+01  0.26935444386E+02  0.51100000000E-03 0.  1.
        -12    1    3    3    0    0  0.10249352371E+01 -0.20655768408E+01 -0.93657050075E+00  0.24888278824E+01  0.00000000000E+00 0.  1.
</event>
<event>
 7    1  0.1427898E-010  0.4778727E+02  0.7816164E-02  0.1312668E+00
        -11   -1    0    0    0    0  0.00000000000E+00  0.00000000000E+00  0.45593999997E+02  0.45594000000E+02  0.51100000000E-03 0.  1.
         11   -1    0    0    0    0 -0.00000000000E+00 -0.00000000000E+00 -0.45593999997E+02  0.45594000000E+02  0.51100000000E-03 0. -1.
    9900012    2    1    2    0    0 -0.34662771888E+02 -0.15368665230E+02 -0.21116817017E+02  0.47787267439E+02  0.19999983560E+02 0.  0.
        -12    1    1    2    0    0  0.34662771888E+02  0.15368665230E+02  0.21116817017E+02  0.43400732561E+02  0.00000000000E+00 0.  1.
         11    1    3    3    0    0 -0.15161793720E+02  0.20720926469E+01 -0.72093394963E+01  0.16915913602E+02  0.51100000000E-03 0. -1.
        -11    1    3    3    0    0 -0.10827072834E+02 -0.65472833119E+01 -0.25618451314E+01  0.12909511055E+02  0.51100000000E-03 0.  1.
        -12    1    3    3    0    0 -0.86739053341E+01 -0.10893474565E+02 -0.11345632389E+02  0.17961842783E+02  0.00000000000E+00 0.  1.
</event>
<event>
 7    1  0.1427898E-010  0.4778727E+02  0.7816164E-02  0.1312668E+00
        -11   -1    0    0    0    0  0.00000000000E+00  0.00000000000E+00  0.45593999997E+02  0.45594000000E+02  0.51100000000E-03 0.  1.
         11   -1    0    0    0    0 -0.00000000000E+00 -0.00000000000E+00 -0.45593999997E+02  0.45594000000E+02  0.51100000000E-03 0. -1.
    9900012    2    1    2    0    0 -0.44876638597E+01  0.35437671141E+02  0.24650670575E+02  0.47787271635E+02  0.20000002692E+02 0.  0.
        -12    1    1    2    0    0  0.44876638597E+01 -0.35437671141E+02 -0.24650670575E+02  0.43400728365E+02  0.00000000000E+00 0.  1.
         11    1    3    3    0    0 -0.50296729035E+01  0.12341389661E+02  0.40322852472E+01  0.13923607034E+02  0.51100000000E-03 0. -1.
        -11    1    3    3    0    0 -0.29133308066E+01  0.14676298210E+02  0.19668290928E+02  0.24712808295E+02  0.51100000000E-03 0.  1.
         12    1    3    3    0    0  0.34553398503E+01  0.84199832704E+01  0.95009439954E+00  0.91508563055E+01  0.00000000000E+00 0. -1.
</event>
<event>
 7    1  0.1427898E-010  0.4778727E+02  0.7816164E-02  0.1312668E+00
        -11   -1    0    0    0    0  0.00000000000E+00  0.00000000000E+00  0.45593999997E+02  0.45594000000E+02  0.51100000000E-03 0.  1.
         11   -1    0    0    0    0 -0.00000000000E+00 -0.00000000000E+00 -0.45593999997E+02  0.45594000000E+02  0.51100000000E-03 0. -1.
    9900012    2    1    2    0    0 -0.33713350527E+02 -0.23411886644E+02 -0.14103775927E+02  0.47787274944E+02  0.20000017779E+02 0.  0.
        -12    1    1    2    0    0  0.33713350527E+02  0.23411886644E+02  0.14103775927E+02  0.43400725056E+02  0.00000000000E+00 0.  1.
         11    1    3    3    0    0 -0.18368333958E+02 -0.14457295188E+02 -0.89208132906E+01  0.25019791897E+02  0.51100000000E-03 0. -1.
        -11    1    3    3    0    0 -0.76392615529E+01 -0.98923973294E+01 -0.76113700380E+01  0.14633892036E+02  0.51100000000E-03 0.  1.
        -12    1    3    3    0    0 -0.77057550161E+01  0.93780587390E+00  0.24284074011E+01  0.81335910108E+01  0.00000000000E+00 0.  1.
</event>
<event>
 7    1  0.1427898E-010  0.4778728E+02  0.7816164E-02  0.1312668E+00
        -11   -1    0    0    0    0  0.00000000000E+00  0.00000000000E+00  0.45593999997E+02  0.45594000000E+02  0.51100000000E-03 0. -1.
         11   -1    0    0    0    0 -0.00000000000E+00 -0.00000000000E+00 -0.45593999997E+02  0.45594000000E+02  0.51100000000E-03 0.  1.
    9900012    2    1    2    0    0 -0.25161445226E+02 -0.54791353290E+01  0.34935702173E+02  0.47787279544E+02  0.20000038751E+02 0.  0.
        -12    1    1    2    0    0  0.25161445226E+02  0.54791353290E+01 -0.34935702173E+02  0.43400720456E+02  0.00000000000E+00 0.  1.
         11    1    3    3    0    0 -0.50917317447E+01  0.11514308698E+01  0.97321278224E+01  0.11043814442E+02  0.51100000000E-03 0. -1.
        -11    1    3    3    0    0 -0.96294973532E+01  0.45862451536E+01  0.62203918269E+01  0.12347232023E+02  0.51100000000E-03 0.  1.
         12    1    3    3    0    0 -0.10440216128E+02 -0.11216811352E+02  0.18983182524E+02  0.24396233079E+02  0.00000000000E+00 0. -1.
</event>
<event>
 7    1  0.1427898E-010  0.4778727E+02  0.7816164E-02  0.1312668E+00
        -11   -1    0    0    0    0  0.00000000000E+00  0.00000000000E+00  0.45593999997E+02  0.45594000000E+02  0.51100000000E-03 0.  1.
         11   -1    0    0    0    0 -0.00000000000E+00 -0.00000000000E+00 -0.45593999997E+02  0.45594000000E+02  0.51100000000E-03 0. -1.
    9900012    2    1    2    0    0  0.43532251228E+01 -0.43154213018E+02 -0.15448536432E+01  0.47787271400E+02  0.20000001622E+02 0.  0.
        -12    1    1    2    0    0 -0.43532251228E+01  0.43154213018E+02  0.15448536432E+01  0.43400728600E+02  0.00000000000E+00 0.  1.
         11    1    3    3    0    0  0.76948449443E+01 -0.23327795952E+02 -0.60271041518E+00  0.24571527482E+02  0.51100000000E-03 0. -1.
        -11    1    3    3    0    0 -0.33294311912E+01 -0.14588733932E+02 -0.58225322650E+01  0.16056716726E+02  0.51100000000E-03 0.  1.
        -12    1    3    3    0    0 -0.12188630279E-01 -0.52376831342E+01  0.48803890370E+01  0.71590271916E+01  0.00000000000E+00 0.  1.
</event>
<event>
 7    1  0.1427898E-010  0.4778727E+02  0.7816164E-02  0.1312668E+00
        -11   -1    0    0    0    0  0.00000000000E+00  0.00000000000E+00  0.45593999997E+02  0.45594000000E+02  0.51100000000E-03 0.  1.
         11   -1    0    0    0    0 -0.00000000000E+00 -0.00000000000E+00 -0.45593999997E+02  0.45594000000E+02  0.51100000000E-03 0. -1.
    9900012    2    1    2    0    0 -0.34881450201E+01  0.34291069844E+02 -0.26373821260E+02  0.47787273340E+02  0.20000010468E+02 0.  0.
        -12    1    1    2    0    0  0.34881450201E+01 -0.34291069844E+02  0.26373821260E+02  0.43400726660E+02  0.00000000000E+00 0.  1.
         11    1    3    3    0    0  0.12361230664E+01  0.22544612270E+02 -0.17544090323E+02  0.28593402179E+02  0.51100000000E-03 0. -1.
        -11    1    3    3    0    0  0.31831547476E+01  0.41101944899E+00 -0.13889757153E+01  0.34972367569E+01  0.51100000000E-03 0.  1.
         12    1    3    3    0    0 -0.79074228341E+01  0.11335438126E+02 -0.74407552212E+01  0.15696634405E+02  0.00000000000E+00 0. -1.
</event>
<event>
 7    1  0.1427898E-010  0.4778727E+02  0.7816164E-02  0.1312668E+00
        -11   -1    0    0    0    0  0.00000000000E+00  0.00000000000E+00  0.45593999997E+02  0.45594000000E+02  0.51100000000E-03 0.  1.
         11   -1    0    0    0    0 -0.00000000000E+00 -0.00000000000E+00 -0.45593999997E+02  0.45594000000E+02  0.51100000000E-03 0. -1.
    9900012    2    1    2    0    0 -0.32633198467E+02 -0.27112886480E+02 -0.91426856305E+01  0.47787274706E+02  0.20000016695E+02 0.  0.
        -12    1    1    2    0    0  0.32633198467E+02  0.27112886480E+02  0.91426856305E+01  0.43400725294E+02  0.00000000000E+00 0.  1.
         11    1    3    3    0    0 -0.14374283639E+02 -0.45768595199E+01 -0.43572647140E+01  0.15702019910E+02  0.51100000000E-03 0. -1.
        -11    1    3    3    0    0 -0.12028402621E+01 -0.53028106120E+01 -0.56259331250E+01  0.78241772009E+01  0.51100000000E-03 0.  1.
        -12    1    3    3    0    0 -0.17056074566E+02 -0.17233216348E+02  0.84051220852E+00  0.24261077595E+02  0.00000000000E+00 0.  1.
</event>
<event>
 7    1  0.1427898E-010  0.4778727E+02  0.7816164E-02  0.1312668E+00
        -11   -1    0    0    0    0  0.00000000000E+00  0.00000000000E+00  0.45593999997E+02  0.45594000000E+02  0.51100000000E-03 0. -1.
         11   -1    0    0    0    0 -0.00000000000E+00 -0.00000000000E+00 -0.45593999997E+02  0.45594000000E+02  0.51100000000E-03 0.  1.
    9900012    2    1    2    0    0 -0.42819521744E+02  0.70633415361E+01 -0.46996170302E+00  0.47787273047E+02  0.20000009130E+02 0.  0.
        -12    1    1    2    0    0  0.42819521744E+02 -0.70633415361E+01  0.46996170302E+00  0.43400726953E+02  0.00000000000E+00 0.  1.
         11    1    3    3    0    0 -0.14769144895E+02  0.57142518074E+00 -0.38353918882E+01  0.15269721637E+02  0.51100000000E-03 0. -1.
        -11    1    3    3    0    0 -0.70099878391E+01  0.81392713683E+01 -0.15358849580E+01  0.10851111039E+02  0.51100000000E-03 0.  1.
         12    1    3    3    0    0 -0.21040389010E+02 -0.16473550129E+01  0.49013151431E+01  0.21666440371E+02  0.00000000000E+00 0. -1.
</event>
<event>
 7    1  0.1427898E-010  0.4778728E+02  0.7816164E-02  0.1312668E+00
        -11   -1    0    0    0    0  0.00000000000E+00  0.00000000000E+00  0.45593999997E+02  0.45594000000E+02  0.51100000000E-03 0. -1.
         11   -1    0    0    0    0 -0.00000000000E+00 -0.00000000000E+00 -0.45593999997E+02  0.45594000000E+02  0.51100000000E-03 0.  1.
    9900012    2    1    2    0    0 -0.37457923872E+02  0.15530007275E+02 -0.15470778233E+02  0.47787283809E+02  0.20000058200E+02 0.  0.
        -12    1    1    2    0    0  0.37457923872E+02 -0.15530007275E+02  0.15470778233E+02  0.43400716191E+02  0.00000000000E+00 0.  1.
         11    1    3    3    0    0 -0.10770274446E+01 -0.40885145108E+00  0.15184423644E+01  0.19059945175E+01  0.51100000000E-03 0. -1.
        -11    1    3    3    0    0 -0.33541532340E+02  0.10005108095E+02 -0.17774546476E+02  0.39256478222E+02  0.51100000000E-03 0.  1.
        -12    1    3    3    0    0 -0.28393640868E+01  0.59337506314E+01  0.78532587902E+00  0.66248110697E+01  0.00000000000E+00 0.  1.
</event>
<event>
 7    1  0.1427898E-010  0.4778727E+02  0.7816164E-02  0.1312668E+00
        -11   -1    0    0    0    0  0.00000000000E+00  0.00000000000E+00  0.45593999997E+02  0.45594000000E+02  0.51100000000E-03 0.  1.
         11   -1    0    0    0    0 -0.00000000000E+00 -0.00000000000E+00 -0.45593999997E+02  0.45594000000E+02  0.51100000000E-03 0. -1.
    9900012    2    1    2    0    0 -0.30167030888E+02  0.29938010099E+02  0.87914269618E+01  0.47787269714E+02  0.19999993935E+02 0.  0.
        -12    1    1    2    0    0  0.30167030888E+02 -0.29938010099E+02 -0.87914269618E+01  0.43400730286E+02  0.00000000000E+00 0.  1.
         11    1    3    3    0    0 -0.12871891432E+02  0.13361149849E+02  0.10997175430E+02  0.21567192261E+02  0.51100000000E-03 0. -1.
        -11    1    3    3    0    0 -0.10555866978E+02  0.16094745653E+02 -0.51114033643E+00  0.19254309388E+02  0.51100000000E-03 0.  1.
        -12    1    3    3    0    0 -0.67392724781E+01  0.48211459732E+00 -0.16946081317E+01  0.69657680653E+01  0.00000000000E+00 0.  1.
</event>
<event>
 7    1  0.1427898E-010  0.4778729E+02  0.7816164E-02  0.1312668E+00
        -11   -1    0    0    0    0  0.00000000000E+00  0.00000000000E+00  0.45593999997E+02  0.45594000000E+02  0.51100000000E-03 0. -1.
         11   -1    0    0    0    0 -0.00000000000E+00 -0.00000000000E+00 -0.45593999997E+02  0.45594000000E+02  0.51100000000E-03 0.  1.
    9900012    2    1    2    0    0  0.11697422542E+02  0.39653287532E+02  0.13206388127E+02  0.47787290402E+02  0.20000088261E+02 0.  0.
        -12    1    1    2    0    0 -0.11697422542E+02 -0.39653287532E+02 -0.13206388127E+02  0.43400709598E+02  0.00000000000E+00 0.  1.
         11    1    3    3    0    0  0.13165063652E+02  0.31406555258E+02  0.55874014874E+01  0.34509559107E+02  0.51100000000E-03 0. -1.
        -11    1    3    3    0    0  0.27423059079E+01  0.37483796461E+01  0.25434423990E+01  0.52952517562E+01  0.51100000000E-03 0.  1.
         12    1    3    3    0    0 -0.42099470178E+01  0.44983526282E+01  0.50755442405E+01  0.79824795395E+01  0.00000000000E+00 0. -1.
</event>
<event>
 7    1  0.1427898E-010  0.4778728E+02  0.7816164E-02  0.1312668E+00
        -11   -1    0    0    0    0  0.00000000000E+00  0.00000000000E+00  0.45593999997E+02  0.45594000000E+02  0.51100000000E-03 0.  1.
         11   -1    0    0    0    0 -0.00000000000E+00 -0.00000000000E+00 -0.45593999997E+02  0.45594000000E+02  0.51100000000E-03 0. -1.
    9900012    2    1    2    0    0 -0.12488597814E+02  0.16366197271E+02 -0.38207396917E+02  0.47787278028E+02  0.20000031842E+02 0.  0.
        -12    1    1    2    0    0  0.12488597814E+02 -0.16366197271E+02  0.38207396917E+02  0.43400721972E+02  0.00000000000E+00 0.  1.
         11    1    3    3    0    0 -0.11494668662E+02  0.85534027232E+01 -0.20050980355E+02  0.24644064585E+02  0.51100000000E-03 0. -1.
        -11    1    3    3    0    0 -0.13810708937E+01 -0.27335826743E+01 -0.14642404422E+01  0.33946769190E+01  0.51100000000E-03 0.  1.
         12    1    3    3    0    0  0.38714174178E+00  0.10546377222E+02 -0.16692176120E+02  0.19748536524E+02  0.00000000000E+00 0. -1.
</event>
<event>
 7    1  0.1427898E-010  0.4778730E+02  0.7816164E-02  0.1312668E+00
        -11   -1    0    0    0    0  0.00000000000E+00  0.00000000000E+00  0.45593999997E+02  0.45594000000E+02  0.51100000000E-03 0. -1.
         11   -1    0    0    0    0 -0.00000000000E+00 -0.00000000000E+00 -0.45593999997E+02  0.45594000000E+02  0.51100000000E-03 0.  1.
    9900012    2    1    2    0    0 -0.11253343041E+02 -0.72553536204E+01  0.41283690649E+02  0.47787297248E+02  0.20000119474E+02 0.  0.
        -12    1    1    2    0    0  0.11253343041E+02  0.72553536204E+01 -0.41283690649E+02  0.43400702752E+02  0.00000000000E+00 0.  1.
         11    1    3    3    0    0 -0.57819119263E+01  0.65002303167E+00  0.86414687670E+01  0.10417678157E+02  0.51100000000E-03 0. -1.
        -11    1    3    3    0    0  0.54129905739E+01 -0.32127856553E+01  0.12599785307E+02  0.14084638748E+02  0.51100000000E-03 0.  1.
        -12    1    3    3    0    0 -0.10884421689E+02 -0.46925909968E+01  0.20042436575E+02  0.23284980344E+02  0.00000000000E+00 0.  1.
</event>
<event>
 7    1  0.1427898E-010  0.4778727E+02  0.7816164E-02  0.1312668E+00
        -11   -1    0    0    0    0  0.00000000000E+00  0.00000000000E+00  0.45593999997E+02  0.45594000000E+02  0.51100000000E-03 0.  1.
         11   -1    0    0    0    0 -0.00000000000E+00 -0.00000000000E+00 -0.45593999997E+02  0.45594000000E+02  0.51100000000E-03 0. -1.
    9900012    2    1    2    0    0  0.21196620348E+02  0.29808795593E+02 -0.23361554281E+02  0.47787271581E+02  0.20000002448E+02 0.  0.
        -12    1    1    2    0    0 -0.21196620348E+02 -0.29808795593E+02  0.23361554281E+02  0.43400728419E+02  0.00000000000E+00 0.  1.
         11    1    3    3    0    0  0.39967414130E+01 -0.13956553580E+01 -0.14176811823E+01  0.44644838443E+01  0.51100000000E-03 0. -1.
        -11    1    3    3    0    0  0.13810546921E+02  0.16217849209E+02 -0.16768083635E+02  0.27109379710E+02  0.51100000000E-03 0.  1.
        -12    1    3    3    0    0  0.33893320133E+01  0.14986601742E+02 -0.51757894630E+01  0.16213408027E+02  0.00000000000E+00 0.  1.
</event>
<event>
 7    1  0.1427898E-010  0.4778727E+02  0.7816164E-02  0.1312668E+00
        -11   -1    0    0    0    0  0.00000000000E+00  0.00000000000E+00  0.45593999997E+02  0.45594000000E+02  0.51100000000E-03 0.  1.
         11   -1    0    0    0    0 -0.00000000000E+00 -0.00000000000E+00 -0.45593999997E+02  0.45594000000E+02  0.51100000000E-03 0. -1.
    9900012    2    1    2    0    0  0.82627049018E+01  0.28579180101E+02 -0.31600338039E+02  0.47787271991E+02  0.20000004315E+02 0.  0.
        -12    1    1    2    0    0 -0.82627049018E+01 -0.28579180101E+02  0.31600338039E+02  0.43400728009E+02  0.00000000000E+00 0.  1.
         11    1    3    3    0    0  0.57690139578E+01  0.17491343736E+02 -0.16641981270E+02  0.24823057197E+02  0.51100000000E-03 0. -1.
        -11    1    3    3    0    0  0.66443378668E+01  0.12709286222E+01 -0.56826739817E+01  0.88348893086E+01  0.51100000000E-03 0.  1.
         12    1    3    3    0    0 -0.41506469228E+01  0.98169077423E+01 -0.92756827874E+01  0.14129325485E+02  0.00000000000E+00 0. -1.
</event>
<event>
 7    1  0.1427898E-010  0.4778727E+02  0.7816164E-02  0.1312668E+00
        -11   -1    0    0    0    0  0.00000000000E+00  0.00000000000E+00  0.45593999997E+02  0.45594000000E+02  0.51100000000E-03 0.  1.
         11   -1    0    0    0    0 -0.00000000000E+00 -0.00000000000E+00 -0.45593999997E+02  0.45594000000E+02  0.51100000000E-03 0. -1.
    9900012    2    1    2    0    0 -0.31935243823E+01 -0.37478058641E+02 -0.21652244745E+02  0.47787272126E+02  0.20000004933E+02 0.  0.
        -12    1    1    2    0    0  0.31935243823E+01  0.37478058641E+02  0.21652244745E+02  0.43400727874E+02  0.00000000000E+00 0.  1.
         11    1    3    3    0    0 -0.87589426703E+01 -0.92754405132E+01 -0.55577616449E+01  0.13915516095E+02  0.51100000000E-03 0. -1.
        -11    1    3    3    0    0  0.21357841815E+00 -0.18490723870E+02 -0.80284657576E+01  0.20159582031E+02  0.51100000000E-03 0.  1.
        -12    1    3    3    0    0  0.53518398698E+01 -0.97118942571E+01 -0.80660173428E+01  0.13712174001E+02  0.00000000000E+00 0.  1.
</event>
<event>
 7    1  0.1427898E-010  0.4778726E+02  0.7816164E-02  0.1312668E+00
        -11   -1    0    0    0    0  0.00000000000E+00  0.00000000000E+00  0.45593999997E+02  0.45594000000E+02  0.51100000000E-03 0. -1.
         11   -1    0    0    0    0 -0.00000000000E+00 -0.00000000000E+00 -0.45593999997E+02  0.45594000000E+02  0.51100000000E-03 0.  1.
    9900012    2    1    2    0    0 -0.27407511460E+02  0.26999821716E+02  0.20086362160E+02  0.47787262657E+02  0.19999961757E+02 0.  0.
        -12    1    1    2    0    0  0.27407511460E+02 -0.26999821716E+02 -0.20086362160E+02  0.43400737343E+02  0.00000000000E+00 0.  1.
         11    1    3    3    0    0 -0.12756612727E+02  0.11325650619E+02  0.10652928297E+02  0.20111847547E+02  0.51100000000E-03 0. -1.
        -11    1    3    3    0    0 -0.96510879513E+01  0.77998474827E+01 -0.23680775201E+01  0.12632850462E+02  0.51100000000E-03 0.  1.
         12    1    3    3    0    0 -0.49998107820E+01  0.78743236141E+01  0.11801511383E+02  0.15042564647E+02  0.00000000000E+00 0. -1.
</event>
<event>
 7    1  0.1427898E-010  0.4778727E+02  0.7816164E-02  0.1312668E+00
        -11   -1    0    0    0    0  0.00000000000E+00  0.00000000000E+00  0.45593999997E+02  0.45594000000E+02  0.51100000000E-03 0.  1.
         11   -1    0    0    0    0 -0.00000000000E+00 -0.00000000000E+00 -0.45593999997E+02  0.45594000000E+02  0.51100000000E-03 0. -1.
    9900012    2    1    2    0    0 -0.34462014784E+02  0.25903924642E+02 -0.49979273744E+01  0.47787273591E+02  0.20000011610E+02 0.  0.
        -12    1    1    2    0    0  0.34462014784E+02 -0.25903924642E+02  0.49979273744E+01  0.43400726409E+02  0.00000000000E+00 0.  1.
         11    1    3    3    0    0 -0.13582873880E+02  0.15120763446E+02 -0.30021461252E+01  0.20546163429E+02  0.51100000000E-03 0. -1.
        -11    1    3    3    0    0 -0.68166936203E+01  0.49051883375E+01  0.57169061066E+01  0.10159291325E+02  0.51100000000E-03 0.  1.
         12    1    3    3    0    0 -0.14062447283E+02  0.58779728589E+01 -0.77126873557E+01  0.17081818837E+02  0.00000000000E+00 0. -1.
</event>
<event>
 7    1  0.1427898E-010  0.4778727E+02  0.7816164E-02  0.1312668E+00
        -11   -1    0    0    0    0  0.00000000000E+00  0.00000000000E+00  0.45593999997E+02  0.45594000000E+02  0.51100000000E-03 0.  1.
         11   -1    0    0    0    0 -0.00000000000E+00 -0.00000000000E+00 -0.45593999997E+02  0.45594000000E+02  0.51100000000E-03 0. -1.
    9900012    2    1    2    0    0  0.77040513060E+01  0.52783403413E+00 -0.42708225758E+02  0.47787267717E+02  0.19999984829E+02 0.  0.
        -12    1    1    2    0    0 -0.77040513060E+01 -0.52783403413E+00  0.42708225758E+02  0.43400732283E+02  0.00000000000E+00 0.  1.
         11    1    3    3    0    0  0.66630254471E+01 -0.60263647154E+01 -0.39128378032E+02  0.40146518498E+02  0.51100000000E-03 0. -1.
        -11    1    3    3    0    0  0.56728809331E+00  0.18189955678E+01 -0.49204376296E+00  0.19679095462E+01  0.51100000000E-03 0.  1.
         12    1    3    3    0    0  0.47373776556E+00  0.47352031818E+01 -0.30878039628E+01  0.56728396731E+01  0.00000000000E+00 0. -1.
</event>
<event>
 7    1  0.1427898E-010  0.4778727E+02  0.7816164E-02  0.1312668E+00
        -11   -1    0    0    0    0  0.00000000000E+00  0.00000000000E+00  0.45593999997E+02  0.45594000000E+02  0.51100000000E-03 0. -1.
         11   -1    0    0    0    0 -0.00000000000E+00 -0.00000000000E+00 -0.45593999997E+02  0.45594000000E+02  0.51100000000E-03 0.  1.
    9900012    2    1    2    0    0 -0.55036122515E+01 -0.24346923272E+02  0.35504377634E+02  0.47787271299E+02  0.20000001159E+02 0.  0.
        -12    1    1    2    0    0  0.55036122515E+01  0.24346923272E+02 -0.35504377634E+02  0.43400728701E+02  0.00000000000E+00 0.  1.
         11    1    3    3    0    0 -0.34777809181E+01 -0.54832239740E+01  0.13436381092E+02  0.14923037304E+02  0.51100000000E-03 0. -1.
        -11    1    3    3    0    0  0.19078508026E+01  0.13915918284E+01 -0.35982876097E+00  0.23887024721E+01  0.51100000000E-03 0.  1.
        -12    1    3    3    0    0 -0.39336821361E+01 -0.20255291126E+02  0.22427825303E+02  0.30475531523E+02  0.00000000000E+00 0.  1.
</event>
<event>
 7    1  0.1427898E-010  0.4778729E+02  0.7816164E-02  0.1312668E+00
        -11   -1    0    0    0    0  0.00000000000E+00  0.00000000000E+00  0.45593999997E+02  0.45594000000E+02  0.51100000000E-03 0.  1.
         11   -1    0    0    0    0 -0.00000000000E+00 -0.00000000000E+00 -0.45593999997E+02  0.45594000000E+02  0.51100000000E-03 0. -1.
    9900012    2    1    2    0    0 -0.32656082767E+02 -0.17889841236E+02 -0.22296991151E+02  0.47787286002E+02  0.20000068197E+02 0.  0.
        -12    1    1    2    0    0  0.32656082767E+02  0.17889841236E+02  0.22296991151E+02  0.43400713998E+02  0.00000000000E+00 0.  1.
         11    1    3    3    0    0 -0.19601838485E+02 -0.10198173335E+02 -0.13973164844E+02  0.26143529742E+02  0.51100000000E-03 0. -1.
        -11    1    3    3    0    0 -0.41916168616E+01  0.33642476744E+01 -0.43856964066E+01  0.69370128702E+01  0.51100000000E-03 0.  1.
         12    1    3    3    0    0 -0.88626274203E+01 -0.11055915576E+02 -0.39381299004E+01  0.14706743389E+02  0.00000000000E+00 0. -1.
</event>
<event>
 7    1  0.1427898E-010  0.4778727E+02  0.7816164E-02  0.1312668E+00
        -11   -1    0    0    0    0  0.00000000000E+00  0.00000000000E+00  0.45593999997E+02  0.45594000000E+02  0.51100000000E-03 0.  1.
         11   -1    0    0    0    0 -0.00000000000E+00 -0.00000000000E+00 -0.45593999997E+02  0.45594000000E+02  0.51100000000E-03 0. -1.
    9900012    2    1    2    0    0  0.30331298315E+02  0.65528735574E+01 -0.30342969920E+02  0.47787266908E+02  0.19999981141E+02 0.  0.
        -12    1    1    2    0    0 -0.30331298315E+02 -0.65528735574E+01  0.30342969920E+02  0.43400733092E+02  0.00000000000E+00 0.  1.
         11    1    3    3    0    0  0.18364147817E+02  0.13436300269E+02 -0.15627585676E+02  0.27604302641E+02  0.51100000000E-03 0. -1.
        -11    1    3    3    0    0  0.42420649826E+01 -0.22523295250E+01 -0.49005470890E+01  0.68617392576E+01  0.51100000000E-03 0.  1.
         12    1    3    3    0    0  0.77250855153E+01 -0.46310971869E+01 -0.98148371552E+01  0.13321225010E+02  0.00000000000E+00 0. -1.
</event>
<event>
 7    1  0.1427898E-010  0.4778727E+02  0.7816164E-02  0.1312668E+00
        -11   -1    0    0    0    0  0.00000000000E+00  0.00000000000E+00  0.45593999997E+02  0.45594000000E+02  0.51100000000E-03 0.  1.
         11   -1    0    0    0    0 -0.00000000000E+00 -0.00000000000E+00 -0.45593999997E+02  0.45594000000E+02  0.51100000000E-03 0. -1.
    9900012    2    1    2    0    0 -0.14351283572E+01 -0.20653269837E+02 -0.38144545439E+02  0.47787268496E+02  0.19999988378E+02 0.  0.
        -12    1    1    2    0    0  0.14351283572E+01  0.20653269837E+02  0.38144545439E+02  0.43400731504E+02  0.00000000000E+00 0.  1.
         11    1    3    3    0    0  0.21211082468E+01 -0.13019840243E+02 -0.20777439532E+02  0.24611325318E+02  0.51100000000E-03 0. -1.
        -11    1    3    3    0    0  0.25768186885E+01  0.17840595743E+01 -0.78379584262E+01  0.84413539003E+01  0.51100000000E-03 0.  1.
        -12    1    3    3    0    0 -0.61330552925E+01 -0.94174891677E+01 -0.95291474817E+01  0.14734589277E+02  0.00000000000E+00 0.  1.
</event>
<event>
 7    1  0.1427898E-010  0.4778727E+02  0.7816164E-02  0.1312668E+00
        -11   -1    0    0    0    0  0.00000000000E+00  0.00000000000E+00  0.45593999997E+02  0.45594000000E+02  0.51100000000E-03 0.  1.
         11   -1    0    0    0    0 -0.00000000000E+00 -0.00000000000E+00 -0.45593999997E+02  0.45594000000E+02  0.51100000000E-03 0. -1.
    9900012    2    1    2    0    0  0.10507065268E+02 -0.36577389419E+02  0.20864307279E+02  0.47787272409E+02  0.20000006220E+02 0.  0.
        -12    1    1    2    0    0 -0.10507065268E+02  0.36577389419E+02 -0.20864307279E+02  0.43400727591E+02  0.00000000000E+00 0.  1.
         11    1    3    3    0    0 -0.47903918421E+01 -0.18563727078E+02  0.84626263143E+01  0.20956523123E+02  0.51100000000E-03 0. -1.
        -11    1    3    3    0    0  0.45787118038E+01 -0.35830940025E+01  0.28595549670E+01  0.64792144033E+01  0.51100000000E-03 0.  1.
         12    1    3    3    0    0  0.10718745306E+02 -0.14430568339E+02  0.95421259974E+01  0.20351534882E+02  0.00000000000E+00 0. -1.
</event>
<event>
 7    1  0.1427898E-010  0.4778726E+02  0.7816164E-02  0.1312668E+00
        -11   -1    0    0    0    0  0.00000000000E+00  0.00000000000E+00  0.45593999997E+02  0.45594000000E+02  0.51100000000E-03 0.  1.
         11   -1    0    0    0    0 -0.00000000000E+00 -0.00000000000E+00 -0.45593999997E+02  0.45594000000E+02  0.51100000000E-03 0. -1.
    9900012    2    1    2    0    0  0.76845925237E+01  0.24007934075E+02 -0.35329735662E+02  0.47787261726E+02  0.19999957511E+02 0.  0.
        -12    1    1    2    0    0 -0.76845925237E+01 -0.24007934075E+02  0.35329735662E+02  0.43400738274E+02  0.00000000000E+00 0.  1.
         11    1    3    3    0    0  0.14301312022E+01  0.91393899706E+01 -0.20385366440E+02  0.22386086961E+02  0.51100000000E-03 0. -1.
        -11    1    3    3    0    0  0.11380642983E-01  0.50893818894E+01 -0.12566435848E+02  0.13557921955E+02  0.51100000000E-03 0.  1.
        -12    1    3    3    0    0  0.62430806785E+01  0.97791622147E+01 -0.23779333743E+01  0.11843252810E+02  0.00000000000E+00 0.  1.
</event>
<event>
 7    1  0.1427898E-010  0.4778727E+02  0.7816164E-02  0.1312668E+00
        -11   -1    0    0    0    0  0.00000000000E+00  0.00000000000E+00  0.45593999997E+02  0.45594000000E+02  0.51100000000E-03 0. -1.
         11   -1    0    0    0    0 -0.00000000000E+00 -0.00000000000E+00 -0.45593999997E+02  0.45594000000E+02  0.51100000000E-03 0.  1.
    9900012    2    1    2    0    0  0.18736715003E+02 -0.38703545625E+02  0.58816927705E+01  0.47787271401E+02  0.20000001627E+02 0.  0.
        -12    1    1    2    0    0 -0.18736715003E+02  0.38703545625E+02 -0.58816927705E+01  0.43400728599E+02  0.00000000000E+00 0.  1.
         11    1    3    3    0    0  0.34974477111E+01 -0.31520869292E+01  0.59092889846E+01  0.75556263186E+01  0.51100000000E-03 0. -1.
        -11    1    3    3    0    0  0.75203789748E+00 -0.10440485263E+02 -0.34928659250E+01  0.11034917587E+02  0.51100000000E-03 0.  1.
         12    1    3    3    0    0  0.14487229395E+02 -0.25110973433E+02  0.34652697109E+01  0.29196727496E+02  0.00000000000E+00 0. -1.
</event>
<event>
 7    1  0.1427898E-010  0.4778728E+02  0.7816164E-02  0.1312668E+00
        -11   -1    0    0    0    0  0.00000000000E+00  0.00000000000E+00  0.45593999997E+02  0.45594000000E+02  0.51100000000E-03 0.  1.
         11   -1    0    0    0    0 -0.00000000000E+00 -0.00000000000E+00 -0.45593999997E+02  0.45594000000E+02  0.51100000000E-03 0. -1.
    9900012    2    1    2    0    0 -0.38441137217E+02  0.56642070224E+01 -0.19334388944E+02  0.47787275725E+02  0.20000021342E+02 0.  0.
        -12    1    1    2    0    0  0.38441137217E+02 -0.56642070224E+01  0.19334388944E+02  0.43400724275E+02  0.00000000000E+00 0.  1.
         11    1    3    3    0    0 -0.10841960717E+02  0.16602575294E+01 -0.23842392242E+01  0.11224489485E+02  0.51100000000E-03 0. -1.
        -11    1    3    3    0    0 -0.14419718092E+01 -0.33947947322E+01 -0.64337406014E+01  0.74159916639E+01  0.51100000000E-03 0.  1.
        -12    1    3    3    0    0 -0.26157204691E+02  0.73987442251E+01 -0.10516409118E+02  0.29146794577E+02  0.00000000000E+00 0.  1.
</event>
<event>
 7    1  0.1427898E-010  0.4778723E+02  0.7816164E-02  0.1312668E+00
        -11   -1    0    0    0    0  0.00000000000E+00  0.00000000000E+00  0.45593999997E+02  0.45594000000E+02  0.51100000000E-03 0.  1.
         11   -1    0    0    0    0 -0.00000000000E+00 -0.00000000000E+00 -0.45593999997E+02  0.45594000000E+02  0.51100000000E-03 0. -1.
    9900012    2    1    2    0    0  0.27340225405E+02  0.13645552334E+02 -0.30821063817E+02  0.47787228135E+02  0.19999804357E+02 0.  0.
        -12    1    1    2    0    0 -0.27340225405E+02 -0.13645552334E+02  0.30821063817E+02  0.43400771865E+02  0.00000000000E+00 0.  1.
         11    1    3    3    0    0  0.15056814658E+02  0.85901594256E+00 -0.17331092861E+02  0.22974167146E+02  0.51100000000E-03 0. -1.
        -11    1    3    3    0    0 -0.16750485275E+01 -0.26137663411E+00 -0.79130748920E+00  0.18709016858E+01  0.51100000000E-03 0.  1.
         12    1    3    3    0    0  0.13958459275E+02  0.13047913026E+02 -0.12698663466E+02  0.22942159303E+02  0.00000000000E+00 0. -1.
</event>
<event>
 7    1  0.1427898E-010  0.4778727E+02  0.7816164E-02  0.1312668E+00
        -11   -1    0    0    0    0  0.00000000000E+00  0.00000000000E+00  0.45593999997E+02  0.45594000000E+02  0.51100000000E-03 0. -1.
         11   -1    0    0    0    0 -0.00000000000E+00 -0.00000000000E+00 -0.45593999997E+02  0.45594000000E+02  0.51100000000E-03 0.  1.
    9900012    2    1    2    0    0 -0.27875486322E+00 -0.42651584563E+02  0.80242013769E+01  0.47787272152E+02  0.20000005050E+02 0.  0.
        -12    1    1    2    0    0  0.27875486322E+00  0.42651584563E+02 -0.80242013769E+01  0.43400727848E+02  0.00000000000E+00 0.  1.
         11    1    3    3    0    0  0.55982962285E+00  0.15420116288E+01  0.76160792743E+00  0.18086613741E+01  0.51100000000E-03 0. -1.
        -11    1    3    3    0    0  0.24195187783E+01 -0.58206142131E+01  0.36854309122E+01  0.73017821253E+01  0.51100000000E-03 0.  1.
        -12    1    3    3    0    0 -0.32581032644E+01 -0.38372981979E+02  0.35771625373E+01  0.38676828653E+02  0.00000000000E+00 0.  1.
</event>
<event>
 7    1  0.1427898E-010  0.4778725E+02  0.7816164E-02  0.1312668E+00
        -11   -1    0    0    0    0  0.00000000000E+00  0.00000000000E+00  0.45593999997E+02  0.45594000000E+02  0.51100000000E-03 0. -1.
         11   -1    0    0    0    0 -0.00000000000E+00 -0.00000000000E+00 -0.45593999997E+02  0.45594000000E+02  0.51100000000E-03 0.  1.
    9900012    2    1    2    0    0 -0.23223963108E+02  0.27882253022E+02  0.23808658145E+02  0.47787254630E+02  0.19999925159E+02 0.  0.
        -12    1    1    2    0    0  0.23223963108E+02 -0.27882253022E+02 -0.23808658145E+02  0.43400745370E+02  0.00000000000E+00 0.  1.
         11    1    3    3    0    0 -0.91492697232E+01  0.25992003654E+01  0.87356796460E+01  0.12914219998E+02  0.51100000000E-03 0.  1.
        -11    1    3    3    0    0 -0.10563096440E+02  0.20139711058E+02  0.16955654808E+02  0.28366903218E+02  0.51100000000E-03 0. -1.
        -12    1    3    3    0    0 -0.35115969449E+01  0.51433415981E+01 -0.18826763096E+01  0.65061314147E+01  0.00000000000E+00 0.  1.
</event>
<event>
 7    1  0.1427898E-010  0.4778727E+02  0.7816164E-02  0.1312668E+00
        -11   -1    0    0    0    0  0.00000000000E+00  0.00000000000E+00  0.45593999997E+02  0.45594000000E+02  0.51100000000E-03 0.  1.
         11   -1    0    0    0    0 -0.00000000000E+00 -0.00000000000E+00 -0.45593999997E+02  0.45594000000E+02  0.51100000000E-03 0. -1.
    9900012    2    1    2    0    0 -0.98701606036E+01 -0.33059307306E+02 -0.26330318565E+02  0.47787267913E+02  0.19999985724E+02 0.  0.
        -12    1    1    2    0    0  0.98701606036E+01  0.33059307306E+02  0.26330318565E+02  0.43400732087E+02  0.00000000000E+00 0.  1.
         11    1    3    3    0    0 -0.31723235624E+01 -0.13540868984E+02 -0.11050171619E+02  0.17763025156E+02  0.51100000000E-03 0. -1.
        -11    1    3    3    0    0 -0.18721737945E+01  0.16200738938E+01  0.12366934596E+01  0.27675052145E+01  0.51100000000E-03 0.  1.
        -12    1    3    3    0    0 -0.48256632468E+01 -0.21138512216E+02 -0.16516840406E+02  0.27256737543E+02  0.00000000000E+00 0.  1.
</event>
<event>
 7    1  0.1427898E-010  0.4778727E+02  0.7816164E-02  0.1312668E+00
        -11   -1    0    0    0    0  0.00000000000E+00  0.00000000000E+00  0.45593999997E+02  0.45594000000E+02  0.51100000000E-03 0. -1.
         11   -1    0    0    0    0 -0.00000000000E+00 -0.00000000000E+00 -0.45593999997E+02  0.45594000000E+02  0.51100000000E-03 0.  1.
    9900012    2    1    2    0    0  0.32791127449E+02 -0.27039095514E+02  0.87893599769E+01  0.47787267582E+02  0.19999984213E+02 0.  0.
        -12    1    1    2    0    0 -0.32791127449E+02  0.27039095514E+02 -0.87893599769E+01  0.43400732418E+02  0.00000000000E+00 0.  1.
         11    1    3    3    0    0  0.21984558789E+02 -0.13945007201E+02  0.18992813873E+01  0.26103473352E+02  0.51100000000E-03 0. -1.
        -11    1    3    3    0    0 -0.10590516975E-01  0.17146453544E+01 -0.67927130433E+00  0.18443238914E+01  0.51100000000E-03 0.  1.
         12    1    3    3    0    0  0.10817159177E+02 -0.14808733667E+02  0.75693498939E+01  0.19839470339E+02  0.00000000000E+00 0. -1.
</event>
<event>
 7    1  0.1427898E-010  0.4778727E+02  0.7816164E-02  0.1312668E+00
        -11   -1    0    0    0    0  0.00000000000E+00  0.00000000000E+00  0.45593999997E+02  0.45594000000E+02  0.51100000000E-03 0. -1.
         11   -1    0    0    0    0 -0.00000000000E+00 -0.00000000000E+00 -0.45593999997E+02  0.45594000000E+02  0.51100000000E-03 0.  1.
    9900012    2    1    2    0    0  0.27853675148E+02 -0.21609770411E+02  0.25314302969E+02  0.47787270383E+02  0.19999996986E+02 0.  0.
        -12    1    1    2    0    0 -0.27853675148E+02  0.21609770411E+02 -0.25314302969E+02  0.43400729617E+02  0.00000000000E+00 0.  1.
         11    1    3    3    0    0  0.38632709266E+01  0.11624115836E+01  0.15198144870E+01  0.43111366573E+01  0.51100000000E-03 0. -1.
        -11    1    3    3    0    0  0.47247833922E+01 -0.85564134645E+01  0.76453366678E-01  0.97745401354E+01  0.51100000000E-03 0.  1.
         12    1    3    3    0    0  0.19265620830E+02 -0.14215768530E+02  0.23718035115E+02  0.33701593591E+02  0.00000000000E+00 0. -1.
</event>
<event>
 7    1  0.1427898E-010  0.4778727E+02  0.7816164E-02  0.1312668E+00
        -11   -1    0    0    0    0  0.00000000000E+00  0.00000000000E+00  0.45593999997E+02  0.45594000000E+02  0.51100000000E-03 0.  1.
         11   -1    0    0    0    0 -0.00000000000E+00 -0.00000000000E+00 -0.45593999997E+02  0.45594000000E+02  0.51100000000E-03 0. -1.
    9900012    2    1    2    0    0 -0.24099412209E+02 -0.24062716652E+01 -0.36014599011E+02  0.47787272424E+02  0.20000006291E+02 0.  0.
        -12    1    1    2    0    0  0.24099412209E+02  0.24062716652E+01  0.36014599011E+02  0.43400727576E+02  0.00000000000E+00 0.  1.
         11    1    3    3    0    0 -0.11457240324E+02  0.68558575498E+01 -0.98431366493E+01  0.16587901553E+02  0.51100000000E-03 0. -1.
        -11    1    3    3    0    0 -0.65792376448E-01 -0.19876686629E+01 -0.61383394518E+01  0.64524698246E+01  0.51100000000E-03 0.  1.
         12    1    3    3    0    0 -0.12576379509E+02 -0.72744605521E+01 -0.20033122910E+02  0.24746901047E+02  0.00000000000E+00 0. -1.
</event>
<event>
 7    1  0.1427898E-010  0.4778728E+02  0.7816164E-02  0.1312668E+00
        -11   -1    0    0    0    0  0.00000000000E+00  0.00000000000E+00  0.45593999997E+02  0.45594000000E+02  0.51100000000E-03 0.  1.
         11   -1    0    0    0    0 -0.00000000000E+00 -0.00000000000E+00 -0.45593999997E+02  0.45594000000E+02  0.51100000000E-03 0. -1.
    9900012    2    1    2    0    0  0.15724800565E+02 -0.30959575810E+02 -0.26035703874E+02  0.47787279230E+02  0.20000037320E+02 0.  0.
        -12    1    1    2    0    0 -0.15724800565E+02  0.30959575810E+02  0.26035703874E+02  0.43400720770E+02  0.00000000000E+00 0.  1.
         11    1    3    3    0    0  0.43724139832E+01 -0.14209292320E+02 -0.16861485426E+02  0.22479583700E+02  0.51100000000E-03 0. -1.
        -11    1    3    3    0    0  0.17425334715E+01  0.19168815571E+01 -0.10425314716E+01  0.27924415721E+01  0.51100000000E-03 0.  1.
        -12    1    3    3    0    0  0.96098531107E+01 -0.18667165047E+02 -0.81316869763E+01  0.22515253958E+02  0.00000000000E+00 0.  1.
</event>
<event>
 7    1  0.1427898E-010  0.4778727E+02  0.7816164E-02  0.1312668E+00
        -11   -1    0    0    0    0  0.00000000000E+00  0.00000000000E+00  0.45593999997E+02  0.45594000000E+02  0.51100000000E-03 0.  1.
         11   -1    0    0    0    0 -0.00000000000E+00 -0.00000000000E+00 -0.45593999997E+02  0.45594000000E+02  0.51100000000E-03 0. -1.
    9900012    2    1    2    0    0  0.15627905878E+01 -0.39153710518E+02  0.18659260413E+02  0.47787270041E+02  0.19999995426E+02 0.  0.
        -12    1    1    2    0    0 -0.15627905878E+01  0.39153710518E+02 -0.18659260413E+02  0.43400729959E+02  0.00000000000E+00 0.  1.
         11    1    3    3    0    0 -0.20707870909E+01 -0.11141581009E+02  0.64683856863E+01  0.13048486510E+02  0.51100000000E-03 0. -1.
        -11    1    3    3    0    0  0.56672591362E+01 -0.26012478000E+02  0.15147877197E+02  0.30630459050E+02  0.51100000000E-03 0.  1.
         12    1    3    3    0    0 -0.20336814574E+01 -0.19996515101E+01 -0.29570024703E+01  0.41083244810E+01  0.00000000000E+00 0. -1.
</event>
<event>
 7    1  0.1427898E-010  0.4778727E+02  0.7816164E-02  0.1312668E+00
        -11   -1    0    0    0    0  0.00000000000E+00  0.00000000000E+00  0.45593999997E+02  0.45594000000E+02  0.51100000000E-03 0.  1.
         11   -1    0    0    0    0 -0.00000000000E+00 -0.00000000000E+00 -0.45593999997E+02  0.45594000000E+02  0.51100000000E-03 0. -1.
    9900012    2    1    2    0    0  0.21419098983E+02 -0.46954813997E+00 -0.37744206455E+02  0.47787269619E+02  0.19999993500E+02 0.  0.
        -12    1    1    2    0    0 -0.21419098983E+02  0.46954813997E+00  0.37744206455E+02  0.43400730381E+02  0.00000000000E+00 0.  1.
         11    1    3    3    0    0  0.82228600640E+01 -0.63561784848E+01 -0.24600798233E+02  0.26706098676E+02  0.51100000000E-03 0. -1.
        -11    1    3    3    0    0  0.69863103725E+01 -0.62205663924E+00 -0.33166648519E+01  0.77585922102E+01  0.51100000000E-03 0.  1.
         12    1    3    3    0    0  0.62099285462E+01  0.65086869841E+01 -0.98267433706E+01  0.13322578732E+02  0.00000000000E+00 0. -1.
</event>
<event>
 7    1  0.1427898E-010  0.4778727E+02  0.7816164E-02  0.1312668E+00
        -11   -1    0    0    0    0  0.00000000000E+00  0.00000000000E+00  0.45593999997E+02  0.45594000000E+02  0.51100000000E-03 0.  1.
         11   -1    0    0    0    0 -0.00000000000E+00 -0.00000000000E+00 -0.45593999997E+02  0.45594000000E+02  0.51100000000E-03 0. -1.
    9900012    2    1    2    0    0 -0.18576946118E+02 -0.69501910715E+01 -0.38603310805E+02  0.47787266272E+02  0.19999978241E+02 0.  0.
        -12    1    1    2    0    0  0.18576946118E+02  0.69501910715E+01  0.38603310805E+02  0.43400733728E+02  0.00000000000E+00 0.  1.
         11    1    3    3    0    0 -0.66402567634E+01 -0.19302397255E+01 -0.13809574767E+02  0.15444196023E+02  0.51100000000E-03 0. -1.
        -11    1    3    3    0    0  0.34794355667E+01 -0.31749006940E+01 -0.30004135733E+01  0.55847066308E+01  0.51100000000E-03 0.  1.
        -12    1    3    3    0    0 -0.15416124921E+02 -0.18450506521E+01 -0.21793322465E+02  0.26758363619E+02  0.00000000000E+00 0.  1.
</event>
<event>
 7    1  0.1427898E-010  0.4778727E+02  0.7816164E-02  0.1312668E+00
        -11   -1    0    0    0    0  0.00000000000E+00  0.00000000000E+00  0.45593999997E+02  0.45594000000E+02  0.51100000000E-03 0. -1.
         11   -1    0    0    0    0 -0.00000000000E+00 -0.00000000000E+00 -0.45593999997E+02  0.45594000000E+02  0.51100000000E-03 0.  1.
    9900012    2    1    2    0    0 -0.36242511373E+02  0.19171891622E+02  0.14231731754E+02  0.47787271346E+02  0.20000001376E+02 0.  0.
        -12    1    1    2    0    0  0.36242511373E+02 -0.19171891622E+02 -0.14231731754E+02  0.43400728654E+02  0.00000000000E+00 0.  1.
         11    1    3    3    0    0 -0.19453764948E+02  0.13366337011E+02  0.66084243434E+01  0.24510797790E+02  0.51100000000E-03 0. -1.
        -11    1    3    3    0    0 -0.99007297315E+01  0.86875716403E+01  0.85641890213E+00  0.13199689535E+02  0.51100000000E-03 0.  1.
        -12    1    3    3    0    0 -0.68880166939E+01 -0.28820170295E+01  0.67668885082E+01  0.10076784021E+02  0.00000000000E+00 0.  1.
</event>
<event>
 7    1  0.1427898E-010  0.4778727E+02  0.7816164E-02  0.1312668E+00
        -11   -1    0    0    0    0  0.00000000000E+00  0.00000000000E+00  0.45593999997E+02  0.45594000000E+02  0.51100000000E-03 0. -1.
         11   -1    0    0    0    0 -0.00000000000E+00 -0.00000000000E+00 -0.45593999997E+02  0.45594000000E+02  0.51100000000E-03 0.  1.
    9900012    2    1    2    0    0 -0.35238265864E+01  0.23404849290E+02  0.36378825733E+02  0.47787270907E+02  0.19999999375E+02 0.  0.
        -12    1    1    2    0    0  0.35238265864E+01 -0.23404849290E+02 -0.36378825733E+02  0.43400729093E+02  0.00000000000E+00 0.  1.
         11    1    3    3    0    0 -0.26455498620E+01  0.56280780297E+01  0.18952133900E+02  0.19946367489E+02  0.51100000000E-03 0. -1.
        -11    1    3    3    0    0  0.28680623848E+01  0.15281911403E+02  0.17406446800E+02  0.23339815518E+02  0.51100000000E-03 0.  1.
        -12    1    3    3    0    0 -0.37463391092E+01  0.24948598566E+01  0.20245033346E-01  0.45010879003E+01  0.00000000000E+00 0.  1.
</event>
<event>
 7    1  0.1427898E-010  0.4778727E+02  0.7816164E-02  0.1312668E+00
        -11   -1    0    0    0    0  0.00000000000E+00  0.00000000000E+00  0.45593999997E+02  0.45594000000E+02  0.51100000000E-03 0.  1.
         11   -1    0    0    0    0 -0.00000000000E+00 -0.00000000000E+00 -0.45593999997E+02  0.45594000000E+02  0.51100000000E-03 0. -1.
    9900012    2    1    2    0    0 -0.38487650055E+02 -0.11186694719E+02 -0.16648787861E+02  0.47787268638E+02  0.19999989030E+02 0.  0.
        -12    1    1    2    0    0  0.38487650055E+02  0.11186694719E+02  0.16648787861E+02  0.43400731362E+02  0.00000000000E+00 0.  1.
         11    1    3    3    0    0 -0.87737639656E+01  0.34316954578E+01 -0.47283985629E+01  0.10541025618E+02  0.51100000000E-03 0.  1.
        -11    1    3    3    0    0 -0.20716059482E+02 -0.89221076363E+01 -0.13785496377E+02  0.26434807276E+02  0.51100000000E-03 0. -1.
        -12    1    3    3    0    0 -0.89978266075E+01 -0.56962825406E+01  0.18651070790E+01  0.10811435745E+02  0.00000000000E+00 0.  1.
</event>
<event>
 7    1  0.1427898E-010  0.4778727E+02  0.7816164E-02  0.1312668E+00
        -11   -1    0    0    0    0  0.00000000000E+00  0.00000000000E+00  0.45593999997E+02  0.45594000000E+02  0.51100000000E-03 0.  1.
         11   -1    0    0    0    0 -0.00000000000E+00 -0.00000000000E+00 -0.45593999997E+02  0.45594000000E+02  0.51100000000E-03 0. -1.
    9900012    2    1    2    0    0 -0.28029309203E+02 -0.72186843482E+01 -0.32339940985E+02  0.47787270041E+02  0.19999995424E+02 0.  0.
        -12    1    1    2    0    0  0.28029309203E+02  0.72186843482E+01  0.32339940985E+02  0.43400729959E+02  0.00000000000E+00 0.  1.
         11    1    3    3    0    0 -0.95272672135E+01  0.15497053440E+01 -0.14789454079E+02  0.17660644366E+02  0.51100000000E-03 0. -1.
        -11    1    3    3    0    0 -0.13213105509E+02 -0.12342082563E+02 -0.12393039606E+02  0.21920323677E+02  0.51100000000E-03 0.  1.
         12    1    3    3    0    0 -0.52889364800E+01  0.35736928703E+01 -0.51574472996E+01  0.82063019972E+01  0.00000000000E+00 0. -1.
</event>
<event>
 7    1  0.1427898E-010  0.4778724E+02  0.7816164E-02  0.1312668E+00
        -11   -1    0    0    0    0  0.00000000000E+00  0.00000000000E+00  0.45593999997E+02  0.45594000000E+02  0.51100000000E-03 0.  1.
         11   -1    0    0    0    0 -0.00000000000E+00 -0.00000000000E+00 -0.45593999997E+02  0.45594000000E+02  0.51100000000E-03 0. -1.
    9900012    2    1    2    0    0 -0.94216316576E+01  0.24852553756E+01 -0.42292818960E+02  0.47787237645E+02  0.19999847720E+02 0.  0.
        -12    1    1    2    0    0  0.94216316576E+01 -0.24852553756E+01  0.42292818960E+02  0.43400762355E+02  0.00000000000E+00 0.  1.
         11    1    3    3    0    0 -0.65887886482E+01 -0.18919194759E-01 -0.16441194285E+02  0.17712294136E+02  0.51100000000E-03 0. -1.
        -11    1    3    3    0    0  0.49613167590E+01  0.41486843777E+01 -0.16884194113E+02  0.18080438522E+02  0.51100000000E-03 0.  1.
        -12    1    3    3    0    0 -0.77941597684E+01 -0.16445098073E+01 -0.89674305618E+01  0.11994504987E+02  0.00000000000E+00 0.  1.
</event>
<event>
 7    1  0.1427898E-010  0.4778727E+02  0.7816164E-02  0.1312668E+00
        -11   -1    0    0    0    0  0.00000000000E+00  0.00000000000E+00  0.45593999997E+02  0.45594000000E+02  0.51100000000E-03 0. -1.
         11   -1    0    0    0    0 -0.00000000000E+00 -0.00000000000E+00 -0.45593999997E+02  0.45594000000E+02  0.51100000000E-03 0.  1.
    9900012    2    1    2    0    0  0.15188755750E+02  0.37040349636E+02  0.16761185957E+02  0.47787272390E+02  0.20000006136E+02 0.  0.
        -12    1    1    2    0    0 -0.15188755750E+02 -0.37040349636E+02 -0.16761185957E+02  0.43400727610E+02  0.00000000000E+00 0.  1.
         11    1    3    3    0    0  0.90924055686E+01  0.85910386513E+01  0.45191958277E+01  0.13300410344E+02  0.51100000000E-03 0. -1.
        -11    1    3    3    0    0  0.58396654585E+01  0.28437009050E+02  0.78305831812E+01  0.30067976480E+02  0.51100000000E-03 0.  1.
         12    1    3    3    0    0  0.25668472303E+00  0.12301934478E-01  0.44114069484E+01  0.44188855664E+01  0.00000000000E+00 0. -1.
</event>
<event>
 7    1  0.1427898E-010  0.4778728E+02  0.7816164E-02  0.1312668E+00
        -11   -1    0    0    0    0  0.00000000000E+00  0.00000000000E+00  0.45593999997E+02  0.45594000000E+02  0.51100000000E-03 0.  1.
         11   -1    0    0    0    0 -0.00000000000E+00 -0.00000000000E+00 -0.45593999997E+02  0.45594000000E+02  0.51100000000E-03 0. -1.
    9900012    2    1    2    0    0 -0.35998286057E+02 -0.91992624050E+01 -0.22430330869E+02  0.47787276841E+02  0.20000026430E+02 0.  0.
        -12    1    1    2    0    0  0.35998286057E+02  0.91992624050E+01  0.22430330869E+02  0.43400723159E+02  0.00000000000E+00 0.  1.
         11    1    3    3    0    0 -0.12139440998E+02 -0.13178523567E+01 -0.14866575413E+02  0.19238446594E+02  0.51100000000E-03 0. -1.
        -11    1    3    3    0    0 -0.13719141448E+02 -0.10138952156E+02 -0.57607743671E+01  0.18005546770E+02  0.51100000000E-03 0.  1.
        -12    1    3    3    0    0 -0.10139703611E+02  0.22575421079E+01 -0.18029810886E+01  0.10543283478E+02  0.00000000000E+00 0.  1.
</event>
<event>
 7    1  0.1427898E-010  0.4778727E+02  0.7816164E-02  0.1312668E+00
        -11   -1    0    0    0    0  0.00000000000E+00  0.00000000000E+00  0.45593999997E+02  0.45594000000E+02  0.51100000000E-03 0.  1.
         11   -1    0    0    0    0 -0.00000000000E+00 -0.00000000000E+00 -0.45593999997E+02  0.45594000000E+02  0.51100000000E-03 0. -1.
    9900012    2    1    2    0    0  0.11502287023E+02 -0.69605952098E+01 -0.41265852761E+02  0.47787273087E+02  0.20000009313E+02 0.  0.
        -12    1    1    2    0    0 -0.11502287023E+02  0.69605952098E+01  0.41265852761E+02  0.43400726913E+02  0.00000000000E+00 0.  1.
         11    1    3    3    0    0  0.58268277676E+00 -0.35278347559E+00  0.34331567460E+00  0.76278523356E+00  0.51100000000E-03 0. -1.
        -11    1    3    3    0    0  0.81569888809E+01 -0.77381633448E+01 -0.93379079542E+01  0.14615476892E+02  0.51100000000E-03 0.  1.
         12    1    3    3    0    0  0.27626153657E+01  0.11303516105E+01 -0.32271260482E+02  0.32409010962E+02  0.00000000000E+00 0. -1.
</event>
<event>
 7    1  0.1427898E-010  0.4778727E+02  0.7816164E-02  0.1312668E+00
        -11   -1    0    0    0    0  0.00000000000E+00  0.00000000000E+00  0.45593999997E+02  0.45594000000E+02  0.51100000000E-03 0. -1.
         11   -1    0    0    0    0 -0.00000000000E+00 -0.00000000000E+00 -0.45593999997E+02  0.45594000000E+02  0.51100000000E-03 0.  1.
    9900012    2    1    2    0    0 -0.14404242487E+02 -0.26704178581E+02  0.31032692643E+02  0.47787269960E+02  0.19999995057E+02 0.  0.
        -12    1    1    2    0    0  0.14404242487E+02  0.26704178581E+02 -0.31032692643E+02  0.43400730040E+02  0.00000000000E+00 0.  1.
         11    1    3    3    0    0 -0.31441707141E+01 -0.11380729072E+02  0.44744949909E+01  0.12626476523E+02  0.51100000000E-03 0. -1.
        -11    1    3    3    0    0 -0.70969107309E+00  0.20543162764E+01  0.53882489420E+01  0.58100863767E+01  0.51100000000E-03 0.  1.
         12    1    3    3    0    0 -0.10550380699E+02 -0.17377765786E+02  0.21169948710E+02  0.29350707061E+02  0.00000000000E+00 0. -1.
</event>
<event>
 7    1  0.1427898E-010  0.4778727E+02  0.7816164E-02  0.1312668E+00
        -11   -1    0    0    0    0  0.00000000000E+00  0.00000000000E+00  0.45593999997E+02  0.45594000000E+02  0.51100000000E-03 0.  1.
         11   -1    0    0    0    0 -0.00000000000E+00 -0.00000000000E+00 -0.45593999997E+02  0.45594000000E+02  0.51100000000E-03 0. -1.
    9900012    2    1    2    0    0  0.41358648962E+02 -0.12730335651E+02 -0.33202915924E+01  0.47787266987E+02  0.19999981503E+02 0.  0.
        -12    1    1    2    0    0 -0.41358648962E+02  0.12730335651E+02  0.33202915924E+01  0.43400733013E+02  0.00000000000E+00 0.  1.
         11    1    3    3    0    0  0.19838461276E+02 -0.22685720673E+01 -0.49286571642E+01  0.20567027659E+02  0.51100000000E-03 0. -1.
        -11    1    3    3    0    0  0.17132108786E+02 -0.13192929595E+02 -0.52276517298E+00  0.21629512857E+02  0.51100000000E-03 0.  1.
         12    1    3    3    0    0  0.43880789003E+01  0.27311660121E+01  0.21311307447E+01  0.55907264709E+01  0.00000000000E+00 0. -1.
</event>
<event>
 7    1  0.1427898E-010  0.4778726E+02  0.7816164E-02  0.1312668E+00
        -11   -1    0    0    0    0  0.00000000000E+00  0.00000000000E+00  0.45593999997E+02  0.45594000000E+02  0.51100000000E-03 0. -1.
         11   -1    0    0    0    0 -0.00000000000E+00 -0.00000000000E+00 -0.45593999997E+02  0.45594000000E+02  0.51100000000E-03 0.  1.
    9900012    2    1    2    0    0 -0.38580614349E+02  0.17823948534E+02 -0.88015412848E+01  0.47787261828E+02  0.19999957977E+02 0.  0.
        -12    1    1    2    0    0  0.38580614349E+02 -0.17823948534E+02  0.88015412848E+01  0.43400738172E+02  0.00000000000E+00 0.  1.
         11    1    3    3    0    0 -0.75648561237E+01 -0.14561952801E+00 -0.56306456865E+01  0.94314592893E+01  0.51100000000E-03 0. -1.
        -11    1    3    3    0    0 -0.31392981392E+02  0.18950749706E+02 -0.41696744310E+01  0.36905777058E+02  0.51100000000E-03 0.  1.
         12    1    3    3    0    0  0.37722316680E+00 -0.98118164442E+00  0.99877883266E+00  0.14500254803E+01  0.00000000000E+00 0. -1.
</event>
<event>
 7    1  0.1427898E-010  0.4778727E+02  0.7816164E-02  0.1312668E+00
        -11   -1    0    0    0    0  0.00000000000E+00  0.00000000000E+00  0.45593999997E+02  0.45594000000E+02  0.51100000000E-03 0.  1.
         11   -1    0    0    0    0 -0.00000000000E+00 -0.00000000000E+00 -0.45593999997E+02  0.45594000000E+02  0.51100000000E-03 0. -1.
    9900012    2    1    2    0    0  0.30323520626E+01  0.43018565701E+02 -0.48817343082E+01  0.47787268625E+02  0.19999988971E+02 0.  0.
        -12    1    1    2    0    0 -0.30323520626E+01 -0.43018565701E+02  0.48817343082E+01  0.43400731375E+02  0.00000000000E+00 0.  1.
         11    1    3    3    0    0  0.55653122655E+01  0.23383466468E+02 -0.28492510882E+01  0.24204905220E+02  0.51100000000E-03 0. -1.
        -11    1    3    3    0    0  0.12764226959E-01 -0.11155988979E+01  0.20005707586E+01  0.22906347259E+01  0.51100000000E-03 0.  1.
         12    1    3    3    0    0 -0.25457244298E+01  0.20750698131E+02 -0.40330539785E+01  0.21291728680E+02  0.00000000000E+00 0. -1.
</event>
<event>
 7    1  0.1427898E-010  0.4778727E+02  0.7816164E-02  0.1312668E+00
        -11   -1    0    0    0    0  0.00000000000E+00  0.00000000000E+00  0.45593999997E+02  0.45594000000E+02  0.51100000000E-03 0. -1.
         11   -1    0    0    0    0 -0.00000000000E+00 -0.00000000000E+00 -0.45593999997E+02  0.45594000000E+02  0.51100000000E-03 0.  1.
    9900012    2    1    2    0    0  0.31889027552E+02  0.25358596594E+02  0.14955090973E+02  0.47787271372E+02  0.20000001495E+02 0.  0.
        -12    1    1    2    0    0 -0.31889027552E+02 -0.25358596594E+02 -0.14955090973E+02  0.43400728628E+02  0.00000000000E+00 0.  1.
         11    1    3    3    0    0  0.10697597073E+02  0.41381860515E+01  0.76447202844E+01  0.13784227052E+02  0.51100000000E-03 0. -1.
        -11    1    3    3    0    0  0.18434620555E+02  0.23326237096E+02  0.67672449299E+01  0.30491706680E+02  0.51100000000E-03 0.  1.
         12    1    3    3    0    0  0.27568099239E+01 -0.21058265540E+01  0.54312575856E+00  0.35113376399E+01  0.00000000000E+00 0. -1.
</event>
<event>
 7    1  0.1427898E-010  0.4778727E+02  0.7816164E-02  0.1312668E+00
        -11   -1    0    0    0    0  0.00000000000E+00  0.00000000000E+00  0.45593999997E+02  0.45594000000E+02  0.51100000000E-03 0.  1.
         11   -1    0    0    0    0 -0.00000000000E+00 -0.00000000000E+00 -0.45593999997E+02  0.45594000000E+02  0.51100000000E-03 0. -1.
    9900012    2    1    2    0    0  0.38108818545E+02 -0.13432037658E+02 -0.15840507951E+02  0.47787269837E+02  0.19999994494E+02 0.  0.
        -12    1    1    2    0    0 -0.38108818545E+02  0.13432037658E+02  0.15840507951E+02  0.43400730163E+02  0.00000000000E+00 0.  1.
         11    1    3    3    0    0  0.24084500436E+02 -0.10829783188E+02 -0.13069039224E+02  0.29464336946E+02  0.51100000000E-03 0. -1.
        -11    1    3    3    0    0  0.13340427995E+02 -0.58010378355E+01 -0.35207902455E+01  0.14967131431E+02  0.51100000000E-03 0.  1.
        -12    1    3    3    0    0  0.68389011387E+00  0.31987833651E+01  0.74932151802E+00  0.33558014604E+01  0.00000000000E+00 0.  1.
</event>
<event>
 7    1  0.1427898E-010  0.4778728E+02  0.7816164E-02  0.1312668E+00
        -11   -1    0    0    0    0  0.00000000000E+00  0.00000000000E+00  0.45593999997E+02  0.45594000000E+02  0.51100000000E-03 0.  1.
         11   -1    0    0    0    0 -0.00000000000E+00 -0.00000000000E+00 -0.45593999997E+02  0.45594000000E+02  0.51100000000E-03 0. -1.
    9900012    2    1    2    0    0 -0.60940559972E+00 -0.40613554483E+02 -0.15290214356E+02  0.47787276066E+02  0.20000022897E+02 0.  0.
        -12    1    1    2    0    0  0.60940559972E+00  0.40613554483E+02  0.15290214356E+02  0.43400723934E+02  0.00000000000E+00 0.  1.
         11    1    3    3    0    0 -0.26004767192E+01 -0.30411422834E+01  0.17156201995E+01  0.43536626517E+01  0.51100000000E-03 0. -1.
        -11    1    3    3    0    0  0.28028638282E+01 -0.19140828578E+01  0.91754095966E+00  0.35159124704E+01  0.51100000000E-03 0.  1.
         12    1    3    3    0    0 -0.81179270874E+00 -0.35658329342E+02 -0.17923375515E+02  0.39917700944E+02  0.00000000000E+00 0. -1.
</event>
<event>
 7    1  0.1427898E-010  0.4778727E+02  0.7816164E-02  0.1312668E+00
        -11   -1    0    0    0    0  0.00000000000E+00  0.00000000000E+00  0.45593999997E+02  0.45594000000E+02  0.51100000000E-03 0.  1.
         11   -1    0    0    0    0 -0.00000000000E+00 -0.00000000000E+00 -0.45593999997E+02  0.45594000000E+02  0.51100000000E-03 0. -1.
    9900012    2    1    2    0    0 -0.42672721429E+02  0.78231931173E+01 -0.12081721701E+01  0.47787272072E+02  0.20000004684E+02 0.  0.
        -12    1    1    2    0    0  0.42672721429E+02 -0.78231931173E+01  0.12081721701E+01  0.43400727928E+02  0.00000000000E+00 0.  1.
         11    1    3    3    0    0 -0.27422800239E+02  0.35189245293E+01  0.17626467019E+01  0.27703785417E+02  0.51100000000E-03 0. -1.
        -11    1    3    3    0    0 -0.11485150273E+02  0.84328023866E+01 -0.16640933400E+01  0.14345383919E+02  0.51100000000E-03 0.  1.
        -12    1    3    3    0    0 -0.37647709170E+01 -0.41285337986E+01 -0.13067255321E+01  0.57381027352E+01  0.00000000000E+00 0.  1.
</event>
<event>
 7    1  0.1427898E-010  0.4778727E+02  0.7816164E-02  0.1312668E+00
        -11   -1    0    0    0    0  0.00000000000E+00  0.00000000000E+00  0.45593999997E+02  0.45594000000E+02  0.51100000000E-03 0.  1.
         11   -1    0    0    0    0 -0.00000000000E+00 -0.00000000000E+00 -0.45593999997E+02  0.45594000000E+02  0.51100000000E-03 0. -1.
    9900012    2    1    2    0    0 -0.35278094109E+02 -0.13161139344E+02 -0.21583888965E+02  0.47787265263E+02  0.19999973642E+02 0.  0.
        -12    1    1    2    0    0  0.35278094109E+02  0.13161139344E+02  0.21583888965E+02  0.43400734737E+02  0.00000000000E+00 0.  1.
         11    1    3    3    0    0 -0.15212190731E+02 -0.75494806341E+01 -0.19929620847E+02  0.26183872748E+02  0.51100000000E-03 0. -1.
        -11    1    3    3    0    0 -0.89681142550E+01 -0.53287681537E+01 -0.53118046335E+00  0.10445333708E+02  0.51100000000E-03 0.  1.
         12    1    3    3    0    0 -0.11097789123E+02 -0.28289055658E+00 -0.11230876550E+01  0.11158058808E+02  0.00000000000E+00 0. -1.
</event>
<event>
 7    1  0.1427898E-010  0.4778727E+02  0.7816164E-02  0.1312668E+00
        -11   -1    0    0    0    0  0.00000000000E+00  0.00000000000E+00  0.45593999997E+02  0.45594000000E+02  0.51100000000E-03 0. -1.
         11   -1    0    0    0    0 -0.00000000000E+00 -0.00000000000E+00 -0.45593999997E+02  0.45594000000E+02  0.51100000000E-03 0.  1.
    9900012    2    1    2    0    0 -0.38740951211E+02  0.70290221227E+01 -0.18258008425E+02  0.47787270463E+02  0.19999997347E+02 0.  0.
        -12    1    1    2    0    0  0.38740951211E+02 -0.70290221227E+01  0.18258008425E+02  0.43400729537E+02  0.00000000000E+00 0.  1.
         11    1    3    3    0    0 -0.23416869152E+02 -0.11659051794E+01 -0.48037867736E+01  0.23932936790E+02  0.51100000000E-03 0. -1.
        -11    1    3    3    0    0 -0.82636486144E+00 -0.72765680001E+00 -0.44739991870E+01  0.46074973998E+01  0.51100000000E-03 0.  1.
        -12    1    3    3    0    0 -0.14497717198E+02  0.89225841021E+01 -0.89802224646E+01  0.19246836273E+02  0.00000000000E+00 0.  1.
</event>
<event>
 7    1  0.1427898E-010  0.4778727E+02  0.7816164E-02  0.1312668E+00
        -11   -1    0    0    0    0  0.00000000000E+00  0.00000000000E+00  0.45593999997E+02  0.45594000000E+02  0.51100000000E-03 0. -1.
         11   -1    0    0    0    0 -0.00000000000E+00 -0.00000000000E+00 -0.45593999997E+02  0.45594000000E+02  0.51100000000E-03 0.  1.
    9900012    2    1    2    0    0  0.18025945012E+02 -0.34583969174E+02  0.19043059621E+02  0.47787265707E+02  0.19999975666E+02 0.  0.
        -12    1    1    2    0    0 -0.18025945012E+02  0.34583969174E+02 -0.19043059621E+02  0.43400734293E+02  0.00000000000E+00 0.  1.
         11    1    3    3    0    0  0.11315587453E+02 -0.28497878861E+02  0.13666496852E+02  0.33569997847E+02  0.51100000000E-03 0. -1.
        -11    1    3    3    0    0  0.67218980008E+01 -0.40921391718E+01 -0.62385078365E+00  0.78942197712E+01  0.51100000000E-03 0.  1.
        -12    1    3    3    0    0 -0.11540441733E-01 -0.19939511413E+01  0.60004135526E+01  0.63230480892E+01  0.00000000000E+00 0.  1.
</event>
<event>
 7    1  0.1427898E-010  0.4778727E+02  0.7816164E-02  0.1312668E+00
        -11   -1    0    0    0    0  0.00000000000E+00  0.00000000000E+00  0.45593999997E+02  0.45594000000E+02  0.51100000000E-03 0.  1.
         11   -1    0    0    0    0 -0.00000000000E+00 -0.00000000000E+00 -0.45593999997E+02  0.45594000000E+02  0.51100000000E-03 0. -1.
    9900012    2    1    2    0    0  0.43560463217E+01 -0.31077741214E+01 -0.43069592784E+02  0.47787271641E+02  0.20000002720E+02 0.  0.
        -12    1    1    2    0    0 -0.43560463217E+01  0.31077741214E+01  0.43069592784E+02  0.43400728359E+02  0.00000000000E+00 0.  1.
         11    1    3    3    0    0 -0.13002488398E+01 -0.93376660701E+01 -0.17011440419E+02  0.19449209754E+02  0.51100000000E-03 0. -1.
        -11    1    3    3    0    0 -0.50399815993E+00  0.31440609813E+01 -0.34120520709E+01  0.46670368752E+01  0.51100000000E-03 0.  1.
         12    1    3    3    0    0  0.61602933215E+01  0.30858309673E+01 -0.22646100294E+02  0.23671025011E+02  0.00000000000E+00 0. -1.
</event>
<event>
 7    1  0.1427898E-010  0.4778731E+02  0.7816164E-02  0.1312668E+00
        -11   -1    0    0    0    0  0.00000000000E+00  0.00000000000E+00  0.45593999997E+02  0.45594000000E+02  0.51100000000E-03 0. -1.
         11   -1    0    0    0    0 -0.00000000000E+00 -0.00000000000E+00 -0.45593999997E+02  0.45594000000E+02  0.51100000000E-03 0.  1.
    9900012    2    1    2    0    0  0.36962261334E+02 -0.20326324977E+02  0.10210369868E+02  0.47787309881E+02  0.20000177070E+02 0.  0.
        -12    1    1    2    0    0 -0.36962261334E+02  0.20326324977E+02 -0.10210369868E+02  0.43400690119E+02  0.00000000000E+00 0.  1.
         11    1    3    3    0    0  0.25332309158E+02 -0.72833624860E+01  0.54974988638E+01  0.26925745123E+02  0.51100000000E-03 0. -1.
        -11    1    3    3    0    0  0.11786420145E+02 -0.13311809393E+02  0.17314752097E+01  0.17863985441E+02  0.51100000000E-03 0.  1.
         12    1    3    3    0    0 -0.15646796967E+00  0.26884690234E+00  0.29813957943E+01  0.29975793175E+01  0.00000000000E+00 0. -1.
</event>
<event>
 7    1  0.1427898E-010  0.4778727E+02  0.7816164E-02  0.1312668E+00
        -11   -1    0    0    0    0  0.00000000000E+00  0.00000000000E+00  0.45593999997E+02  0.45594000000E+02  0.51100000000E-03 0. -1.
         11   -1    0    0    0    0 -0.00000000000E+00 -0.00000000000E+00 -0.45593999997E+02  0.45594000000E+02  0.51100000000E-03 0.  1.
    9900012    2    1    2    0    0  0.20281553603E+02 -0.16826060866E+02  0.34484280241E+02  0.47787270460E+02  0.19999997336E+02 0.  0.
        -12    1    1    2    0    0 -0.20281553603E+02  0.16826060866E+02 -0.34484280241E+02  0.43400729540E+02  0.00000000000E+00 0.  1.
         11    1    3    3    0    0  0.11312686881E+02 -0.36827805909E+01  0.56820299483E+01  0.13184279349E+02  0.51100000000E-03 0. -1.
        -11    1    3    3    0    0  0.10813110772E+02 -0.12774299686E+02  0.22603257948E+02  0.28124959860E+02  0.51100000000E-03 0.  1.
        -12    1    3    3    0    0 -0.18442440503E+01 -0.36898058956E+00  0.61989923456E+01  0.64780312514E+01  0.00000000000E+00 0.  1.
</event>
<event>
 7    1  0.1427898E-010  0.4778727E+02  0.7816164E-02  0.1312668E+00
        -11   -1    0    0    0    0  0.00000000000E+00  0.00000000000E+00  0.45593999997E+02  0.45594000000E+02  0.51100000000E-03 0.  1.
         11   -1    0    0    0    0 -0.00000000000E+00 -0.00000000000E+00 -0.45593999997E+02  0.45594000000E+02  0.51100000000E-03 0. -1.
    9900012    2    1    2    0    0  0.21266086166E+02  0.18926866656E+02 -0.32758973518E+02  0.47787273645E+02  0.20000011855E+02 0.  0.
        -12    1    1    2    0    0 -0.21266086166E+02 -0.18926866656E+02  0.32758973518E+02  0.43400726355E+02  0.00000000000E+00 0.  1.
         11    1    3    3    0    0  0.58522285811E+01  0.34893344397E+00 -0.86762576828E+01  0.10471283663E+02  0.51100000000E-03 0. -1.
        -11    1    3    3    0    0 -0.17966515321E+01  0.67401350916E+01 -0.28636006236E+01  0.75403969772E+01  0.51100000000E-03 0.  1.
        -12    1    3    3    0    0  0.17210509117E+02  0.11837798120E+02 -0.21219115212E+02  0.29775593004E+02  0.00000000000E+00 0.  1.
</event>
<event>
 7    1  0.1427898E-010  0.4778727E+02  0.7816164E-02  0.1312668E+00
        -11   -1    0    0    0    0  0.00000000000E+00  0.00000000000E+00  0.45593999997E+02  0.45594000000E+02  0.51100000000E-03 0. -1.
         11   -1    0    0    0    0 -0.00000000000E+00 -0.00000000000E+00 -0.45593999997E+02  0.45594000000E+02  0.51100000000E-03 0.  1.
    9900012    2    1    2    0    0 -0.70795729591E+00 -0.24033025448E+02  0.36132199028E+02  0.47787270486E+02  0.19999997454E+02 0.  0.
        -12    1    1    2    0    0  0.70795729591E+00  0.24033025448E+02 -0.36132199028E+02  0.43400729514E+02  0.00000000000E+00 0.  1.
         11    1    3    3    0    0 -0.41589787621E+01 -0.23590152530E+02  0.24607736205E+02  0.34341419338E+02  0.51100000000E-03 0. -1.
        -11    1    3    3    0    0  0.28311123155E+01 -0.26917878294E+01  0.97848126410E+01  0.10535818779E+02  0.51100000000E-03 0.  1.
         12    1    3    3    0    0  0.61990915071E+00  0.22489149114E+01  0.17396501819E+01  0.29100323691E+01  0.00000000000E+00 0. -1.
</event>
<event>
 7    1  0.1427898E-010  0.4778727E+02  0.7816164E-02  0.1312668E+00
        -11   -1    0    0    0    0  0.00000000000E+00  0.00000000000E+00  0.45593999997E+02  0.45594000000E+02  0.51100000000E-03 0.  1.
         11   -1    0    0    0    0 -0.00000000000E+00 -0.00000000000E+00 -0.45593999997E+02  0.45594000000E+02  0.51100000000E-03 0. -1.
    9900012    2    1    2    0    0  0.13101745224E+02 -0.19369780937E+02 -0.36561991905E+02  0.47787269666E+02  0.19999993714E+02 0.  0.
        -12    1    1    2    0    0 -0.13101745224E+02  0.19369780937E+02  0.36561991905E+02  0.43400730334E+02  0.00000000000E+00 0.  1.
         11    1    3    3    0    0  0.68876306601E+01 -0.11897847323E+02 -0.56283719304E+01  0.14855194306E+02  0.51100000000E-03 0.  1.
        -11    1    3    3    0    0  0.50054393512E+01 -0.74242045757E+01 -0.19770277276E+02  0.21703389148E+02  0.51100000000E-03 0. -1.
        -12    1    3    3    0    0  0.12086752129E+01 -0.47729038792E-01 -0.11163342698E+02  0.11228686211E+02  0.00000000000E+00 0.  1.
</event>
<event>
 7    1  0.1427898E-010  0.4778727E+02  0.7816164E-02  0.1312668E+00
        -11   -1    0    0    0    0  0.00000000000E+00  0.00000000000E+00  0.45593999997E+02  0.45594000000E+02  0.51100000000E-03 0. -1.
         11   -1    0    0    0    0 -0.00000000000E+00 -0.00000000000E+00 -0.45593999997E+02  0.45594000000E+02  0.51100000000E-03 0.  1.
    9900012    2    1    2    0    0 -0.31200230508E+02 -0.30164718866E+02  0.50831566797E+00  0.47787273821E+02  0.20000012661E+02 0.  0.
        -12    1    1    2    0    0  0.31200230508E+02  0.30164718866E+02 -0.50831566797E+00  0.43400726179E+02  0.00000000000E+00 0.  1.
         11    1    3    3    0    0 -0.19748995494E+02 -0.14779220317E+02  0.20626839181E+01  0.24752835017E+02  0.51100000000E-03 0. -1.
        -11    1    3    3    0    0 -0.13825093794E+02 -0.10881542900E+02  0.35382904838E+00  0.17597340412E+02  0.51100000000E-03 0.  1.
        -12    1    3    3    0    0  0.23738587801E+01 -0.45039556495E+01 -0.19081972985E+01  0.54370983926E+01  0.00000000000E+00 0.  1.
</event>
<event>
 7    1  0.1427898E-010  0.4778728E+02  0.7816164E-02  0.1312668E+00
        -11   -1    0    0    0    0  0.00000000000E+00  0.00000000000E+00  0.45593999997E+02  0.45594000000E+02  0.51100000000E-03 0. -1.
         11   -1    0    0    0    0 -0.00000000000E+00 -0.00000000000E+00 -0.45593999997E+02  0.45594000000E+02  0.51100000000E-03 0.  1.
    9900012    2    1    2    0    0 -0.37337593869E+01  0.22010843122E+02  0.37218337720E+02  0.47787276080E+02  0.20000022960E+02 0.  0.
        -12    1    1    2    0    0  0.37337593869E+01 -0.22010843122E+02 -0.37218337720E+02  0.43400723920E+02  0.00000000000E+00 0.  1.
         11    1    3    3    0    0 -0.28394543190E+01 -0.87997352857E+00  0.11494535014E+02  0.11872707765E+02  0.51100000000E-03 0. -1.
        -11    1    3    3    0    0 -0.44971804726E+01  0.83048457923E+01  0.62770404260E+01  0.11340032302E+02  0.51100000000E-03 0.  1.
         12    1    3    3    0    0  0.36028754046E+01  0.14585970858E+02  0.19446762281E+02  0.24574536013E+02  0.00000000000E+00 0. -1.
</event>
<event>
 7    1  0.1427898E-010  0.4778727E+02  0.7816164E-02  0.1312668E+00
        -11   -1    0    0    0    0  0.00000000000E+00  0.00000000000E+00  0.45593999997E+02  0.45594000000E+02  0.51100000000E-03 0.  1.
         11   -1    0    0    0    0 -0.00000000000E+00 -0.00000000000E+00 -0.45593999997E+02  0.45594000000E+02  0.51100000000E-03 0. -1.
    9900012    2    1    2    0    0  0.25521124489E+02 -0.29459315882E+02  0.19090425838E+02  0.47787269060E+02  0.19999990954E+02 0.  0.
        -12    1    1    2    0    0 -0.25521124489E+02  0.29459315882E+02 -0.19090425838E+02  0.43400730940E+02  0.00000000000E+00 0.  1.
         11    1    3    3    0    0  0.49857249143E+01 -0.11450726307E+02 -0.16678235303E+00  0.12490172236E+02  0.51100000000E-03 0. -1.
        -11    1    3    3    0    0  0.21128424649E+01 -0.21874234599E+01  0.79462471267E+01  0.85083352270E+01  0.51100000000E-03 0.  1.
        -12    1    3    3    0    0  0.18422557110E+02 -0.15821166115E+02  0.11310961064E+02  0.26788761597E+02  0.00000000000E+00 0.  1.
</event>
<event>
 7    1  0.1427898E-010  0.4778727E+02  0.7816164E-02  0.1312668E+00
        -11   -1    0    0    0    0  0.00000000000E+00  0.00000000000E+00  0.45593999997E+02  0.45594000000E+02  0.51100000000E-03 0.  1.
         11   -1    0    0    0    0 -0.00000000000E+00 -0.00000000000E+00 -0.45593999997E+02  0.45594000000E+02  0.51100000000E-03 0. -1.
    9900012    2    1    2    0    0 -0.15387791084E+02  0.28668319415E+02 -0.28722227336E+02  0.47787274249E+02  0.20000014613E+02 0.  0.
        -12    1    1    2    0    0  0.15387791084E+02 -0.28668319415E+02  0.28722227336E+02  0.43400725751E+02  0.00000000000E+00 0.  1.
         11    1    3    3    0    0 -0.88503743416E+01  0.36397130763E+01 -0.11543709031E+02  0.14994460835E+02  0.51100000000E-03 0. -1.
        -11    1    3    3    0    0  0.18410540352E+01  0.53417404332E+01 -0.51459686131E+00  0.56734893149E+01  0.51100000000E-03 0.  1.
        -12    1    3    3    0    0 -0.83784707774E+01  0.19686865906E+02 -0.16663921444E+02  0.27119324100E+02  0.00000000000E+00 0.  1.
</event>
<event>
 7    1  0.1427898E-010  0.4778727E+02  0.7816164E-02  0.1312668E+00
        -11   -1    0    0    0    0  0.00000000000E+00  0.00000000000E+00  0.45593999997E+02  0.45594000000E+02  0.51100000000E-03 0.  1.
         11   -1    0    0    0    0 -0.00000000000E+00 -0.00000000000E+00 -0.45593999997E+02  0.45594000000E+02  0.51100000000E-03 0. -1.
    9900012    2    1    2    0    0  0.14525352869E+02 -0.26091353866E+02 -0.31494103674E+02  0.47787272025E+02  0.20000004469E+02 0.  0.
        -12    1    1    2    0    0 -0.14525352869E+02  0.26091353866E+02  0.31494103674E+02  0.43400727975E+02  0.00000000000E+00 0.  1.
         11    1    3    3    0    0  0.30720007936E+01 -0.14697720852E+02 -0.14011704250E+02  0.20537478992E+02  0.51100000000E-03 0. -1.
        -11    1    3    3    0    0 -0.51168371204E+00 -0.78865402204E+01 -0.39026555768E+01  0.88141963718E+01  0.51100000000E-03 0.  1.
         12    1    3    3    0    0  0.11965035787E+02 -0.35070927941E+01 -0.13579743848E+02  0.18435596661E+02  0.00000000000E+00 0. -1.
</event>
<event>
 7    1  0.1427898E-010  0.4778727E+02  0.7816164E-02  0.1312668E+00
        -11   -1    0    0    0    0  0.00000000000E+00  0.00000000000E+00  0.45593999997E+02  0.45594000000E+02  0.51100000000E-03 0. -1.
         11   -1    0    0    0    0 -0.00000000000E+00 -0.00000000000E+00 -0.45593999997E+02  0.45594000000E+02  0.51100000000E-03 0.  1.
    9900012    2    1    2    0    0  0.32110497553E+02 -0.27967656316E+02 -0.83874563392E+01  0.47787271011E+02  0.19999999848E+02 0.  0.
        -12    1    1    2    0    0 -0.32110497553E+02  0.27967656316E+02  0.83874563392E+01  0.43400728989E+02  0.00000000000E+00 0.  1.
         11    1    3    3    0    0  0.12521579767E+01 -0.34381842693E+00  0.36301122019E+01  0.38553632214E+01  0.51100000000E-03 0. -1.
        -11    1    3    3    0    0  0.91646542305E+01 -0.59500984612E+01 -0.66758155406E+01  0.12804728512E+02  0.51100000000E-03 0.  1.
         12    1    3    3    0    0  0.21693685346E+02 -0.21673739428E+02 -0.53417530005E+01  0.31127179278E+02  0.00000000000E+00 0. -1.
</event>
<event>
 7    1  0.1427898E-010  0.4778727E+02  0.7816164E-02  0.1312668E+00
        -11   -1    0    0    0    0  0.00000000000E+00  0.00000000000E+00  0.45593999997E+02  0.45594000000E+02  0.51100000000E-03 0.  1.
         11   -1    0    0    0    0 -0.00000000000E+00 -0.00000000000E+00 -0.45593999997E+02  0.45594000000E+02  0.51100000000E-03 0. -1.
    9900012    2    1    2    0    0 -0.39468462045E+02 -0.63936794857E+01  0.16881490646E+02  0.47787270052E+02  0.19999995476E+02 0.  0.
        -12    1    1    2    0    0  0.39468462045E+02  0.63936794857E+01 -0.16881490646E+02  0.43400729948E+02  0.00000000000E+00 0.  1.
         11    1    3    3    0    0 -0.11312410641E+02 -0.35302851958E+01 -0.39573616744E+01  0.12493768837E+02  0.51100000000E-03 0. -1.
        -11    1    3    3    0    0 -0.85551176055E+01 -0.17113914893E+01  0.79730987858E+01  0.11819018681E+02  0.51100000000E-03 0.  1.
         12    1    3    3    0    0 -0.19600933799E+02 -0.11520028005E+01  0.12865753534E+02  0.23474482534E+02  0.00000000000E+00 0. -1.
</event>
<event>
 7    1  0.1427898E-010  0.4778734E+02  0.7816164E-02  0.1312667E+00
        -11   -1    0    0    0    0  0.00000000000E+00  0.00000000000E+00  0.45593999997E+02  0.45594000000E+02  0.51100000000E-03 0.  1.
         11   -1    0    0    0    0 -0.00000000000E+00 -0.00000000000E+00 -0.45593999997E+02  0.45594000000E+02  0.51100000000E-03 0. -1.
    9900012    2    1    2    0    0 -0.23311518222E+02  0.33443522541E+02 -0.14890317689E+02  0.47787335920E+02  0.20000295791E+02 0.  0.
        -12    1    1    2    0    0  0.23311518222E+02 -0.33443522541E+02  0.14890317689E+02  0.43400664080E+02  0.00000000000E+00 0.  1.
         11    1    3    3    0    0 -0.11026705169E+02  0.22358197594E+02 -0.32847468697E+01  0.25144915764E+02  0.51100000000E-03 0. -1.
        -11    1    3    3    0    0 -0.82776587809E+00  0.62260780152E+01 -0.69181762004E+01  0.93440037457E+01  0.51100000000E-03 0.  1.
         12    1    3    3    0    0 -0.11457047175E+02  0.48592469317E+01 -0.46873946186E+01  0.13298416410E+02  0.00000000000E+00 0. -1.
</event>
<event>
 7    1  0.1427898E-010  0.4778728E+02  0.7816164E-02  0.1312668E+00
        -11   -1    0    0    0    0  0.00000000000E+00  0.00000000000E+00  0.45593999997E+02  0.45594000000E+02  0.51100000000E-03 0.  1.
         11   -1    0    0    0    0 -0.00000000000E+00 -0.00000000000E+00 -0.45593999997E+02  0.45594000000E+02  0.51100000000E-03 0. -1.
    9900012    2    1    2    0    0 -0.26571374280E+02 -0.30965045299E+02 -0.14790225902E+02  0.47787277152E+02  0.20000027846E+02 0.  0.
        -12    1    1    2    0    0  0.26571374280E+02  0.30965045299E+02  0.14790225902E+02  0.43400722848E+02  0.00000000000E+00 0.  1.
         11    1    3    3    0    0 -0.15649283862E+02 -0.19658721594E+02 -0.85353929203E+01  0.26537112742E+02  0.51100000000E-03 0. -1.
        -11    1    3    3    0    0  0.17963426194E+00 -0.84326235141E+01 -0.47614697153E+01  0.96857112237E+01  0.51100000000E-03 0.  1.
        -12    1    3    3    0    0 -0.11101724680E+02 -0.28737001911E+01 -0.14933632664E+01  0.11564453186E+02  0.00000000000E+00 0.  1.
</event>
<event>
 7    1  0.1427898E-010  0.4778728E+02  0.7816164E-02  0.1312668E+00
        -11   -1    0    0    0    0  0.00000000000E+00  0.00000000000E+00  0.45593999997E+02  0.45594000000E+02  0.51100000000E-03 0.  1.
         11   -1    0    0    0    0 -0.00000000000E+00 -0.00000000000E+00 -0.45593999997E+02  0.45594000000E+02  0.51100000000E-03 0. -1.
    9900012    2    1    2    0    0 -0.89336174266E+01  0.34891576775E+02 -0.24215501816E+02  0.47787283665E+02  0.20000057542E+02 0.  0.
        -12    1    1    2    0    0  0.89336174266E+01 -0.34891576775E+02  0.24215501816E+02  0.43400716335E+02  0.00000000000E+00 0.  1.
         11    1    3    3    0    0  0.18273500660E+01  0.93948759677E+01 -0.40204625822E+00  0.95793811996E+01  0.51100000000E-03 0. -1.
        -11    1    3    3    0    0  0.12636591679E+01  0.89777273316E+00  0.46000629193E+00  0.16169218975E+01  0.51100000000E-03 0.  1.
         12    1    3    3    0    0 -0.12024626660E+02  0.24598928074E+02 -0.24273461850E+02  0.36590980568E+02  0.00000000000E+00 0. -1.
</event>
<event>
 7    1  0.1427898E-010  0.4778727E+02  0.7816164E-02  0.1312668E+00
        -11   -1    0    0    0    0  0.00000000000E+00  0.00000000000E+00  0.45593999997E+02  0.45594000000E+02  0.51100000000E-03 0.  1.
         11   -1    0    0    0    0 -0.00000000000E+00 -0.00000000000E+00 -0.45593999997E+02  0.45594000000E+02  0.51100000000E-03 0. -1.
    9900012    2    1    2    0    0  0.14647953920E+02  0.12739313222E+02 -0.38817140640E+02  0.47787273475E+02  0.20000011081E+02 0.  0.
        -12    1    1    2    0    0 -0.14647953920E+02 -0.12739313222E+02  0.38817140640E+02  0.43400726525E+02  0.00000000000E+00 0.  1.
         11    1    3    3    0    0  0.46469938430E+01  0.86411937946E+01 -0.66154723858E+01  0.11833395841E+02  0.51100000000E-03 0. -1.
        -11    1    3    3    0    0  0.20598501031E+01 -0.39289627012E+01 -0.63732284218E+01  0.77651639476E+01  0.51100000000E-03 0.  1.
         12    1    3    3    0    0  0.79411099743E+01  0.80270821282E+01 -0.25828439833E+02  0.28188713687E+02  0.00000000000E+00 0. -1.
</event>
<event>
 7    1  0.1427898E-010  0.4778727E+02  0.7816164E-02  0.1312668E+00
        -11   -1    0    0    0    0  0.00000000000E+00  0.00000000000E+00  0.45593999997E+02  0.45594000000E+02  0.51100000000E-03 0. -1.
         11   -1    0    0    0    0 -0.00000000000E+00 -0.00000000000E+00 -0.45593999997E+02  0.45594000000E+02  0.51100000000E-03 0.  1.
    9900012    2    1    2    0    0  0.26372760191E+02  0.34467827108E+02 -0.26372288068E+00  0.47787272639E+02  0.20000007272E+02 0.  0.
        -12    1    1    2    0    0 -0.26372760191E+02 -0.34467827108E+02  0.26372288068E+00  0.43400727361E+02  0.00000000000E+00 0.  1.
         11    1    3    3    0    0  0.63282928275E+01  0.17830723910E+02 -0.32001778132E+01  0.19189141293E+02  0.51100000000E-03 0. -1.
        -11    1    3    3    0    0  0.10707852483E+02  0.12771363958E+02  0.64913145966E+01  0.17885832595E+02  0.51100000000E-03 0.  1.
         12    1    3    3    0    0  0.93366148812E+01  0.38657392398E+01 -0.35548596641E+01  0.10712298752E+02  0.00000000000E+00 0. -1.
</event>
<event>
 7    1  0.1427898E-010  0.4778727E+02  0.7816164E-02  0.1312668E+00
        -11   -1    0    0    0    0  0.00000000000E+00  0.00000000000E+00  0.45593999997E+02  0.45594000000E+02  0.51100000000E-03 0.  1.
         11   -1    0    0    0    0 -0.00000000000E+00 -0.00000000000E+00 -0.45593999997E+02  0.45594000000E+02  0.51100000000E-03 0. -1.
    9900012    2    1    2    0    0 -0.12493323751E+02  0.40215867916E+02 -0.10498786364E+02  0.47787266300E+02  0.19999978367E+02 0.  0.
        -12    1    1    2    0    0  0.12493323751E+02 -0.40215867916E+02  0.10498786364E+02  0.43400733700E+02  0.00000000000E+00 0.  1.
         11    1    3    3    0    0 -0.30516053357E+01  0.10148231053E+01  0.15862681444E+01  0.35858622320E+01  0.51100000000E-03 0.  1.
        -11    1    3    3    0    0 -0.10406894547E+02  0.19430012324E+02 -0.10291357403E+02  0.24325724460E+02  0.51100000000E-03 0. -1.
         12    1    3    3    0    0  0.96517613241E+00  0.19771032487E+02 -0.17936971048E+01  0.19875679608E+02  0.00000000000E+00 0. -1.
</event>
<event>
 7    1  0.1427898E-010  0.4778727E+02  0.7816164E-02  0.1312668E+00
        -11   -1    0    0    0    0  0.00000000000E+00  0.00000000000E+00  0.45593999997E+02  0.45594000000E+02  0.51100000000E-03 0.  1.
         11   -1    0    0    0    0 -0.00000000000E+00 -0.00000000000E+00 -0.45593999997E+02  0.45594000000E+02  0.51100000000E-03 0. -1.
    9900012    2    1    2    0    0 -0.41705729308E+02 -0.17356393318E+01  0.11884585729E+02  0.47787266378E+02  0.19999978723E+02 0.  0.
        -12    1    1    2    0    0  0.41705729308E+02  0.17356393318E+01 -0.11884585729E+02  0.43400733622E+02  0.00000000000E+00 0.  1.
         11    1    3    3    0    0 -0.35229357611E+02  0.59531061454E+01  0.10329033912E+02  0.37191881537E+02  0.51100000000E-03 0. -1.
        -11    1    3    3    0    0 -0.17352118531E+01 -0.27240315090E+01  0.18538722904E+01  0.37239965854E+01  0.51100000000E-03 0.  1.
        -12    1    3    3    0    0 -0.47411598438E+01 -0.49647139682E+01 -0.29832047366E+00  0.68713882554E+01  0.00000000000E+00 0.  1.
</event>
<event>
 7    1  0.1427898E-010  0.4778727E+02  0.7816164E-02  0.1312668E+00
        -11   -1    0    0    0    0  0.00000000000E+00  0.00000000000E+00  0.45593999997E+02  0.45594000000E+02  0.51100000000E-03 0. -1.
         11   -1    0    0    0    0 -0.00000000000E+00 -0.00000000000E+00 -0.45593999997E+02  0.45594000000E+02  0.51100000000E-03 0.  1.
    9900012    2    1    2    0    0  0.26544861311E+02  0.33872578512E+02  0.56251416258E+01  0.47787268953E+02  0.19999990466E+02 0.  0.
        -12    1    1    2    0    0 -0.26544861311E+02 -0.33872578512E+02 -0.56251416258E+01  0.43400731047E+02  0.00000000000E+00 0.  1.
         11    1    3    3    0    0  0.21440233304E+02  0.18022258169E+02  0.32795587965E+01  0.28200015954E+02  0.51100000000E-03 0. -1.
        -11    1    3    3    0    0  0.71587409389E+01  0.13662279078E+02 -0.52661050938E+00  0.15433170780E+02  0.51100000000E-03 0.  1.
        -12    1    3    3    0    0 -0.20541129316E+01  0.21880412653E+01  0.28721933387E+01  0.41540822199E+01  0.00000000000E+00 0.  1.
</event>
<event>
 7    1  0.1427898E-010  0.4778728E+02  0.7816164E-02  0.1312668E+00
        -11   -1    0    0    0    0  0.00000000000E+00  0.00000000000E+00  0.45593999997E+02  0.45594000000E+02  0.51100000000E-03 0.  1.
         11   -1    0    0    0    0 -0.00000000000E+00 -0.00000000000E+00 -0.45593999997E+02  0.45594000000E+02  0.51100000000E-03 0. -1.
    9900012    2    1    2    0    0 -0.33106314362E+02  0.68933372540E+01 -0.27204349935E+02  0.47787276451E+02  0.20000024651E+02 0.  0.
        -12    1    1    2    0    0  0.33106314362E+02 -0.68933372540E+01  0.27204349935E+02  0.43400723549E+02  0.00000000000E+00 0.  1.
         11    1    3    3    0    0 -0.55323231396E+01 -0.30319041605E+01 -0.38500465706E+01  0.73906630972E+01  0.51100000000E-03 0.  1.
        -11    1    3    3    0    0 -0.14383122943E+02  0.73504243246E+01 -0.36740046147E+01  0.16565061833E+02  0.51100000000E-03 0. -1.
         12    1    3    3    0    0 -0.13190868279E+02  0.25748170899E+01 -0.19680298750E+02  0.23831551521E+02  0.00000000000E+00 0. -1.
</event>
<event>
 7    1  0.1427898E-010  0.4778725E+02  0.7816164E-02  0.1312668E+00
        -11   -1    0    0    0    0  0.00000000000E+00  0.00000000000E+00  0.45593999997E+02  0.45594000000E+02  0.51100000000E-03 0. -1.
         11   -1    0    0    0    0 -0.00000000000E+00 -0.00000000000E+00 -0.45593999997E+02  0.45594000000E+02  0.51100000000E-03 0.  1.
    9900012    2    1    2    0    0  0.92037877314E+01 -0.41090356295E+02 -0.10511783303E+02  0.47787254876E+02  0.19999926284E+02 0.  0.
        -12    1    1    2    0    0 -0.92037877314E+01  0.41090356295E+02  0.10511783303E+02  0.43400745124E+02  0.00000000000E+00 0.  1.
         11    1    3    3    0    0  0.17450418054E+01 -0.10351398657E+02  0.58159679651E+01  0.12000921160E+02  0.51100000000E-03 0. -1.
        -11    1    3    3    0    0  0.44923663247E+01 -0.19498301590E+02 -0.83207846617E+01  0.21670269443E+02  0.51100000000E-03 0.  1.
         12    1    3    3    0    0  0.29663796012E+01 -0.11240656048E+02 -0.80069666061E+01  0.14116064273E+02  0.00000000000E+00 0. -1.
</event>
<event>
 7    1  0.1427898E-010  0.4778727E+02  0.7816164E-02  0.1312668E+00
        -11   -1    0    0    0    0  0.00000000000E+00  0.00000000000E+00  0.45593999997E+02  0.45594000000E+02  0.51100000000E-03 0.  1.
         11   -1    0    0    0    0 -0.00000000000E+00 -0.00000000000E+00 -0.45593999997E+02  0.45594000000E+02  0.51100000000E-03 0. -1.
    9900012    2    1    2    0    0 -0.41456496943E+02 -0.35276364687E+01 -0.12350625199E+02  0.47787270736E+02  0.19999998595E+02 0.  0.
        -12    1    1    2    0    0  0.41456496943E+02  0.35276364687E+01  0.12350625199E+02  0.43400729264E+02  0.00000000000E+00 0.  1.
         11    1    3    3    0    0 -0.21184707656E+02  0.39156766841E+01 -0.13372525036E+01  0.21585008846E+02  0.51100000000E-03 0. -1.
        -11    1    3    3    0    0 -0.65776950479E+01 -0.52147724644E+01  0.14867162588E+00  0.83953574976E+01  0.51100000000E-03 0.  1.
        -12    1    3    3    0    0 -0.13694094239E+02 -0.22285406883E+01 -0.11162044322E+02  0.17806904393E+02  0.00000000000E+00 0.  1.
</event>
<event>
 7    1  0.1427898E-010  0.4778728E+02  0.7816164E-02  0.1312668E+00
        -11   -1    0    0    0    0  0.00000000000E+00  0.00000000000E+00  0.45593999997E+02  0.45594000000E+02  0.51100000000E-03 0.  1.
         11   -1    0    0    0    0 -0.00000000000E+00 -0.00000000000E+00 -0.45593999997E+02  0.45594000000E+02  0.51100000000E-03 0. -1.
    9900012    2    1    2    0    0 -0.33669874557E+02  0.27229827453E+02 -0.29151924340E+01  0.47787282233E+02  0.20000051013E+02 0.  0.
        -12    1    1    2    0    0  0.33669874557E+02 -0.27229827453E+02  0.29151924340E+01  0.43400717767E+02  0.00000000000E+00 0.  1.
         11    1    3    3    0    0 -0.17142915338E+02  0.18693503702E+02  0.18805326803E+01  0.25433502126E+02  0.51100000000E-03 0. -1.
        -11    1    3    3    0    0 -0.11016877802E+02  0.21829408982E+01  0.21638759312E+01  0.11437621552E+02  0.51100000000E-03 0.  1.
        -12    1    3    3    0    0 -0.55100814165E+01  0.63533828520E+01 -0.69596010455E+01  0.10916158555E+02  0.00000000000E+00 0.  1.
</event>
<event>
 7    1  0.1427898E-010  0.4778728E+02  0.7816164E-02  0.1312668E+00
        -11   -1    0    0    0    0  0.00000000000E+00  0.00000000000E+00  0.45593999997E+02  0.45594000000E+02  0.51100000000E-03 0.  1.
         11   -1    0    0    0    0 -0.00000000000E+00 -0.00000000000E+00 -0.45593999997E+02  0.45594000000E+02  0.51100000000E-03 0. -1.
    9900012    2    1    2    0    0 -0.32245623143E+02  0.28513923047E+02 -0.55496209730E+01  0.47787282121E+02  0.20000050503E+02 0.  0.
        -12    1    1    2    0    0  0.32245623143E+02 -0.28513923047E+02  0.55496209730E+01  0.43400717879E+02  0.00000000000E+00 0.  1.
         11    1    3    3    0    0 -0.84414461940E+01  0.11134551870E+02  0.23076218291E+01  0.14161969424E+02  0.51100000000E-03 0. -1.
        -11    1    3    3    0    0 -0.27388460434E+01  0.59218783753E+01  0.31440012156E+01  0.72425592884E+01  0.51100000000E-03 0.  1.
         12    1    3    3    0    0 -0.21065330906E+02  0.11457492802E+02 -0.11001244018E+02  0.26382753409E+02  0.00000000000E+00 0. -1.
</event>
<event>
 7    1  0.1427898E-010  0.4778730E+02  0.7816164E-02  0.1312668E+00
        -11   -1    0    0    0    0  0.00000000000E+00  0.00000000000E+00  0.45593999997E+02  0.45594000000E+02  0.51100000000E-03 0.  1.
         11   -1    0    0    0    0 -0.00000000000E+00 -0.00000000000E+00 -0.45593999997E+02  0.45594000000E+02  0.51100000000E-03 0. -1.
    9900012    2    1    2    0    0 -0.26007778603E+02 -0.13464852558E+02 -0.32029896207E+02  0.47787296627E+02  0.20000116639E+02 0.  0.
        -12    1    1    2    0    0  0.26007778603E+02  0.13464852558E+02  0.32029896207E+02  0.43400703373E+02  0.00000000000E+00 0.  1.
         11    1    3    3    0    0 -0.13757436959E+02 -0.10475451281E+02 -0.11566348139E+02  0.20803426659E+02  0.51100000000E-03 0. -1.
        -11    1    3    3    0    0 -0.11839231629E+02 -0.39604511243E+01 -0.21896140595E+02  0.25205030290E+02  0.51100000000E-03 0.  1.
        -12    1    3    3    0    0 -0.41111001493E+00  0.97104984770E+00  0.14325925269E+01  0.17788396778E+01  0.00000000000E+00 0.  1.
</event>
<event>
 7    1  0.1427898E-010  0.4778726E+02  0.7816164E-02  0.1312668E+00
        -11   -1    0    0    0    0  0.00000000000E+00  0.00000000000E+00  0.45593999997E+02  0.45594000000E+02  0.51100000000E-03 0.  1.
         11   -1    0    0    0    0 -0.00000000000E+00 -0.00000000000E+00 -0.45593999997E+02  0.45594000000E+02  0.51100000000E-03 0. -1.
    9900012    2    1    2    0    0  0.31378061078E+01 -0.76612889334E+01 -0.42603793598E+02  0.47787258022E+02  0.19999940627E+02 0.  0.
        -12    1    1    2    0    0 -0.31378061078E+01  0.76612889334E+01  0.42603793598E+02  0.43400741978E+02  0.00000000000E+00 0.  1.
         11    1    3    3    0    0  0.62698736713E+01 -0.28136776704E+01 -0.75641055526E+01  0.10219774506E+02  0.51100000000E-03 0. -1.
        -11    1    3    3    0    0 -0.47676429737E+01 -0.37417153117E+01 -0.62348765815E+01  0.86950870752E+01  0.51100000000E-03 0.  1.
         12    1    3    3    0    0  0.16355754101E+01 -0.11058959514E+01 -0.28804811464E+02  0.28872396441E+02  0.00000000000E+00 0. -1.
</event>
<event>
 7    1  0.1427898E-010  0.4778727E+02  0.7816164E-02  0.1312668E+00
        -11   -1    0    0    0    0  0.00000000000E+00  0.00000000000E+00  0.45593999997E+02  0.45594000000E+02  0.51100000000E-03 0.  1.
         11   -1    0    0    0    0 -0.00000000000E+00 -0.00000000000E+00 -0.45593999997E+02  0.45594000000E+02  0.51100000000E-03 0. -1.
    9900012    2    1    2    0    0 -0.34079797911E+02 -0.88719715833E+01  0.25366887912E+02  0.47787268350E+02  0.19999987715E+02 0.  0.
        -12    1    1    2    0    0  0.34079797911E+02  0.88719715833E+01 -0.25366887912E+02  0.43400731650E+02  0.00000000000E+00 0.  1.
         11    1    3    3    0    0 -0.10477422062E+02 -0.10534526862E+02  0.97289321670E+01  0.17759638246E+02  0.51100000000E-03 0. -1.
        -11    1    3    3    0    0 -0.16843954181E+01  0.27791093788E+01  0.41043925311E+01  0.52351385058E+01  0.51100000000E-03 0.  1.
         12    1    3    3    0    0 -0.21917980431E+02 -0.11165541000E+01  0.11533563214E+02  0.24792491598E+02  0.00000000000E+00 0. -1.
</event>
<event>
 7    1  0.1427898E-010  0.4778728E+02  0.7816164E-02  0.1312668E+00
        -11   -1    0    0    0    0  0.00000000000E+00  0.00000000000E+00  0.45593999997E+02  0.45594000000E+02  0.51100000000E-03 0.  1.
         11   -1    0    0    0    0 -0.00000000000E+00 -0.00000000000E+00 -0.45593999997E+02  0.45594000000E+02  0.51100000000E-03 0. -1.
    9900012    2    1    2    0    0 -0.13742310595E+02 -0.14753630864E+02 -0.38433080615E+02  0.47787280999E+02  0.20000045389E+02 0.  0.
        -12    1    1    2    0    0  0.13742310595E+02  0.14753630864E+02  0.38433080615E+02  0.43400719001E+02  0.00000000000E+00 0.  1.
         11    1    3    3    0    0 -0.75136889010E+01 -0.11906356909E+02 -0.22613352416E+02  0.26637953441E+02  0.51100000000E-03 0. -1.
        -11    1    3    3    0    0 -0.51346128458E+01 -0.65793226579E+00 -0.35742424152E-01  0.51767172730E+01  0.51100000000E-03 0.  1.
         12    1    3    3    0    0 -0.10940088485E+01 -0.21893416895E+01 -0.15783985775E+02  0.15972610286E+02  0.00000000000E+00 0. -1.
</event>
<event>
 7    1  0.1427898E-010  0.4778727E+02  0.7816164E-02  0.1312668E+00
        -11   -1    0    0    0    0  0.00000000000E+00  0.00000000000E+00  0.45593999997E+02  0.45594000000E+02  0.51100000000E-03 0.  1.
         11   -1    0    0    0    0 -0.00000000000E+00 -0.00000000000E+00 -0.45593999997E+02  0.45594000000E+02  0.51100000000E-03 0. -1.
    9900012    2    1    2    0    0  0.19810014109E+01 -0.26143904546E+02 -0.34586054322E+02  0.47787271146E+02  0.20000000462E+02 0.  0.
        -12    1    1    2    0    0 -0.19810014109E+01  0.26143904546E+02  0.34586054322E+02  0.43400728854E+02  0.00000000000E+00 0.  1.
         11    1    3    3    0    0 -0.46631894399E+01 -0.16382177306E+02 -0.11579285227E+02  0.20596138368E+02  0.51100000000E-03 0. -1.
        -11    1    3    3    0    0  0.52018671216E+01 -0.10122549592E+02 -0.13904889875E+02  0.17968622498E+02  0.51100000000E-03 0.  1.
        -12    1    3    3    0    0  0.14423237291E+01  0.36082235241E+00 -0.91018792204E+01  0.92225102793E+01  0.00000000000E+00 0.  1.
</event>
<event>
 7    1  0.1427898E-010  0.4778727E+02  0.7816164E-02  0.1312668E+00
        -11   -1    0    0    0    0  0.00000000000E+00  0.00000000000E+00  0.45593999997E+02  0.45594000000E+02  0.51100000000E-03 0. -1.
         11   -1    0    0    0    0 -0.00000000000E+00 -0.00000000000E+00 -0.45593999997E+02  0.45594000000E+02  0.51100000000E-03 0.  1.
    9900012    2    1    2    0    0  0.16624238015E+02 -0.61275001525E+01  0.39619586558E+02  0.47787272049E+02  0.20000004579E+02 0.  0.
        -12    1    1    2    0    0 -0.16624238015E+02  0.61275001525E+01 -0.39619586558E+02  0.43400727951E+02  0.00000000000E+00 0.  1.
         11    1    3    3    0    0  0.10566264870E+01 -0.59401404728E+01  0.27542513472E+01  0.66323170245E+01  0.51100000000E-03 0.  1.
        -11    1    3    3    0    0  0.11598501684E+02 -0.43115101505E+01  0.22259730564E+02  0.25467822171E+02  0.51100000000E-03 0. -1.
         12    1    3    3    0    0  0.39691098437E+01  0.41241504708E+01  0.14605604647E+02  0.15687132853E+02  0.00000000000E+00 0. -1.
</event>
<event>
 7    1  0.1427898E-010  0.4778727E+02  0.7816164E-02  0.1312668E+00
        -11   -1    0    0    0    0  0.00000000000E+00  0.00000000000E+00  0.45593999997E+02  0.45594000000E+02  0.51100000000E-03 0.  1.
         11   -1    0    0    0    0 -0.00000000000E+00 -0.00000000000E+00 -0.45593999997E+02  0.45594000000E+02  0.51100000000E-03 0. -1.
    9900012    2    1    2    0    0  0.39155297467E+02  0.18398960928E+02 -0.34589067081E+01  0.47787272833E+02  0.20000008156E+02 0.  0.
        -12    1    1    2    0    0 -0.39155297467E+02 -0.18398960928E+02  0.34589067081E+01  0.43400727167E+02  0.00000000000E+00 0.  1.
         11    1    3    3    0    0  0.96716383303E+01  0.54314132886E+01  0.20762419288E+01  0.11285017462E+02  0.51100000000E-03 0. -1.
        -11    1    3    3    0    0  0.27061274192E+01  0.42923496533E+01  0.43353693871E+01  0.66740406905E+01  0.51100000000E-03 0.  1.
         12    1    3    3    0    0  0.26777531718E+02  0.86751979861E+01 -0.98705180240E+01  0.29828214681E+02  0.00000000000E+00 0. -1.
</event>
<event>
 7    1  0.1427898E-010  0.4778727E+02  0.7816164E-02  0.1312668E+00
        -11   -1    0    0    0    0  0.00000000000E+00  0.00000000000E+00  0.45593999997E+02  0.45594000000E+02  0.51100000000E-03 0.  1.
         11   -1    0    0    0    0 -0.00000000000E+00 -0.00000000000E+00 -0.45593999997E+02  0.45594000000E+02  0.51100000000E-03 0. -1.
    9900012    2    1    2    0    0 -0.18274726790E+02 -0.30331003205E+02 -0.25093581901E+02  0.47787271350E+02  0.20000001395E+02 0.  0.
        -12    1    1    2    0    0  0.18274726790E+02  0.30331003205E+02  0.25093581901E+02  0.43400728650E+02  0.00000000000E+00 0.  1.
         11    1    3    3    0    0 -0.88674740553E+01 -0.21252446513E+02 -0.25143522690E+02  0.34095385500E+02  0.51100000000E-03 0. -1.
        -11    1    3    3    0    0 -0.67077700680E+01 -0.56043521035E+01 -0.17911570610E+01  0.89225100540E+01  0.51100000000E-03 0.  1.
        -12    1    3    3    0    0 -0.26994826670E+01 -0.34742045889E+01  0.18410978496E+01  0.47693757964E+01  0.00000000000E+00 0.  1.
</event>
<event>
 7    1  0.1633827E-010  0.4778728E+02  0.7816164E-02  0.1312668E+00
        -11   -1    0    0    0    0  0.00000000000E+00  0.00000000000E+00  0.45593999997E+02  0.45594000000E+02  0.51100000000E-03 0. -1.
         11   -1    0    0    0    0 -0.00000000000E+00 -0.00000000000E+00 -0.45593999997E+02  0.45594000000E+02  0.51100000000E-03 0.  1.
    9900012    2    1    2    0    0 -0.17978911548E+02  0.35918402499E+02  0.16439280891E+02  0.47787275873E+02  0.20000022018E+02 0.  0.
        -12    1    1    2    0    0  0.17978911548E+02 -0.35918402499E+02 -0.16439280891E+02  0.43400724127E+02  0.00000000000E+00 0.  1.
         11    1    3    3    0    0 -0.12737619137E+02  0.31443970493E+02  0.14456058523E+02  0.36877470764E+02  0.51100000000E-03 0. -1.
        -11    1    3    3    0    0  0.18290588387E+01  0.14977856980E+01  0.22084144562E+01  0.32351063203E+01  0.51100000000E-03 0.  1.
         12    1    3    3    0    0 -0.70703512495E+01  0.29766463073E+01 -0.22519208796E+00  0.76746987893E+01  0.00000000000E+00 0. -1.
</event>
<event>
 7    1  0.1427898E-010  0.4778727E+02  0.7816164E-02  0.1312668E+00
        -11   -1    0    0    0    0  0.00000000000E+00  0.00000000000E+00  0.45593999997E+02  0.45594000000E+02  0.51100000000E-03 0.  1.
         11   -1    0    0    0    0 -0.00000000000E+00 -0.00000000000E+00 -0.45593999997E+02  0.45594000000E+02  0.51100000000E-03 0. -1.
    9900012    2    1    2    0    0 -0.65599142890E+01  0.34523685417E+02 -0.25469711273E+02  0.47787268179E+02  0.19999986935E+02 0.  0.
        -12    1    1    2    0    0  0.65599142890E+01 -0.34523685417E+02  0.25469711273E+02  0.43400731821E+02  0.00000000000E+00 0.  1.
         11    1    3    3    0    0  0.58091225365E+01  0.19760048068E+02 -0.15526541263E+02  0.25793000759E+02  0.51100000000E-03 0. -1.
        -11    1    3    3    0    0 -0.47981148692E+01  0.78943219162E+01 -0.61128329105E+01  0.11077407245E+02  0.51100000000E-03 0.  1.
         12    1    3    3    0    0 -0.75709219563E+01  0.68693154337E+01 -0.38303370995E+01  0.10916860176E+02  0.00000000000E+00 0. -1.
</event>
<event>
 7    1  0.1427898E-010  0.4778727E+02  0.7816164E-02  0.1312668E+00
        -11   -1    0    0    0    0  0.00000000000E+00  0.00000000000E+00  0.45593999997E+02  0.45594000000E+02  0.51100000000E-03 0.  1.
         11   -1    0    0    0    0 -0.00000000000E+00 -0.00000000000E+00 -0.45593999997E+02  0.45594000000E+02  0.51100000000E-03 0. -1.
    9900012    2    1    2    0    0  0.23032702604E+02  0.84235375577E+01 -0.35807290512E+02  0.47787269269E+02  0.19999991904E+02 0.  0.
        -12    1    1    2    0    0 -0.23032702604E+02 -0.84235375577E+01  0.35807290512E+02  0.43400730731E+02  0.00000000000E+00 0.  1.
         11    1    3    3    0    0  0.35396944143E+01  0.55081588881E+01 -0.17599758794E+02  0.18778199082E+02  0.51100000000E-03 0. -1.
        -11    1    3    3    0    0  0.22371581487E+01  0.44777707207E+01 -0.23833054953E+01  0.55439563990E+01  0.51100000000E-03 0.  1.
         12    1    3    3    0    0  0.17255850041E+02 -0.15623920511E+01 -0.15824226222E+02  0.23465113788E+02  0.00000000000E+00 0. -1.
</event>
<event>
 7    1  0.1427898E-010  0.4778728E+02  0.7816164E-02  0.1312668E+00
        -11   -1    0    0    0    0  0.00000000000E+00  0.00000000000E+00  0.45593999997E+02  0.45594000000E+02  0.51100000000E-03 0.  1.
         11   -1    0    0    0    0 -0.00000000000E+00 -0.00000000000E+00 -0.45593999997E+02  0.45594000000E+02  0.51100000000E-03 0. -1.
    9900012    2    1    2    0    0  0.13507454881E+02 -0.12230574479E+02 -0.39390153258E+02  0.47787280385E+02  0.20000042587E+02 0.  0.
        -12    1    1    2    0    0 -0.13507454881E+02  0.12230574479E+02  0.39390153258E+02  0.43400719615E+02  0.00000000000E+00 0.  1.
         11    1    3    3    0    0  0.55361111598E+01 -0.16628824108E+02 -0.26343438959E+02  0.31640845349E+02  0.51100000000E-03 0. -1.
        -11    1    3    3    0    0  0.32425014114E+01  0.20242026300E+01 -0.32727789235E+01  0.50321261743E+01  0.51100000000E-03 0.  1.
         12    1    3    3    0    0  0.47288423102E+01  0.23740469988E+01 -0.97739353750E+01  0.11114308861E+02  0.00000000000E+00 0. -1.
</event>
<event>
 7    1  0.1427898E-010  0.4778727E+02  0.7816164E-02  0.1312668E+00
        -11   -1    0    0    0    0  0.00000000000E+00  0.00000000000E+00  0.45593999997E+02  0.45594000000E+02  0.51100000000E-03 0.  1.
         11   -1    0    0    0    0 -0.00000000000E+00 -0.00000000000E+00 -0.45593999997E+02  0.45594000000E+02  0.51100000000E-03 0. -1.
    9900012    2    1    2    0    0  0.16554757091E+02  0.12019098208E+02 -0.38276686119E+02  0.47787269542E+02  0.19999993148E+02 0.  0.
        -12    1    1    2    0    0 -0.16554757091E+02 -0.12019098208E+02  0.38276686119E+02  0.43400730458E+02  0.00000000000E+00 0.  1.
         11    1    3    3    0    0  0.12008214540E+02  0.36437988205E+01 -0.28727214526E+02  0.31348482276E+02  0.51100000000E-03 0. -1.
        -11    1    3    3    0    0  0.44391372716E+01  0.46236303180E+01 -0.10734853905E+02  0.12502839104E+02  0.51100000000E-03 0.  1.
        -12    1    3    3    0    0  0.10740527902E+00  0.37516690697E+01  0.11853823129E+01  0.39359481615E+01  0.00000000000E+00 0.  1.
</event>
<event>
 7    1  0.1427898E-010  0.4778727E+02  0.7816164E-02  0.1312668E+00
        -11   -1    0    0    0    0  0.00000000000E+00  0.00000000000E+00  0.45593999997E+02  0.45594000000E+02  0.51100000000E-03 0.  1.
         11   -1    0    0    0    0 -0.00000000000E+00 -0.00000000000E+00 -0.45593999997E+02  0.45594000000E+02  0.51100000000E-03 0. -1.
    9900012    2    1    2    0    0 -0.14372141198E+02  0.40067241749E+01 -0.40755504139E+02  0.47787269604E+02  0.19999993433E+02 0.  0.
        -12    1    1    2    0    0  0.14372141198E+02 -0.40067241749E+01  0.40755504139E+02  0.43400730396E+02  0.00000000000E+00 0.  1.
         11    1    3    3    0    0 -0.96144639361E+01  0.77176615848E+01 -0.16246641166E+02  0.20394939729E+02  0.51100000000E-03 0. -1.
        -11    1    3    3    0    0  0.74505705736E+00 -0.10516740102E+01  0.69068595390E+00  0.14622501805E+01  0.51100000000E-03 0.  1.
         12    1    3    3    0    0 -0.55027343194E+01 -0.26592633996E+01 -0.25199548927E+02  0.25930079694E+02  0.00000000000E+00 0. -1.
</event>
<event>
 7    1  0.1427898E-010  0.4778727E+02  0.7816164E-02  0.1312668E+00
        -11   -1    0    0    0    0  0.00000000000E+00  0.00000000000E+00  0.45593999997E+02  0.45594000000E+02  0.51100000000E-03 0.  1.
         11   -1    0    0    0    0 -0.00000000000E+00 -0.00000000000E+00 -0.45593999997E+02  0.45594000000E+02  0.51100000000E-03 0. -1.
    9900012    2    1    2    0    0 -0.46825997958E+01 -0.52416415963E+01 -0.42827813530E+02  0.47787272365E+02  0.20000006023E+02 0.  0.
        -12    1    1    2    0    0  0.46825997958E+01  0.52416415963E+01  0.42827813530E+02  0.43400727635E+02  0.00000000000E+00 0.  1.
         11    1    3    3    0    0 -0.61369690302E+00 -0.28969278922E+01 -0.16910342170E+02  0.17167658188E+02  0.51100000000E-03 0. -1.
        -11    1    3    3    0    0  0.28831888003E+00 -0.31786654962E+01  0.99557284240E+00  0.33433826671E+01  0.51100000000E-03 0.  1.
        -12    1    3    3    0    0 -0.43572217728E+01  0.83395179208E+00 -0.26913044202E+02  0.27276231510E+02  0.00000000000E+00 0.  1.
</event>
<event>
 7    1  0.1448390E-010  0.4778727E+02  0.7816164E-02  0.1312668E+00
        -11   -1    0    0    0    0  0.00000000000E+00  0.00000000000E+00  0.45593999997E+02  0.45594000000E+02  0.51100000000E-03 0.  1.
         11   -1    0    0    0    0 -0.00000000000E+00 -0.00000000000E+00 -0.45593999997E+02  0.45594000000E+02  0.51100000000E-03 0. -1.
    9900012    2    1    2    0    0 -0.85683101861E+01 -0.36538191197E+02 -0.21798345980E+02  0.47787271402E+02  0.20000001629E+02 0.  0.
        -12    1    1    2    0    0  0.85683101861E+01  0.36538191197E+02  0.21798345980E+02  0.43400728598E+02  0.00000000000E+00 0.  1.
         11    1    3    3    0    0 -0.89968100140E+01 -0.11729876928E+02 -0.36254907108E+01  0.15220932506E+02  0.51100000000E-03 0. -1.
        -11    1    3    3    0    0  0.25724527506E+01 -0.10886009532E+02 -0.24400791825E+01  0.11448873454E+02  0.51100000000E-03 0.  1.
         12    1    3    3    0    0 -0.21439529227E+01 -0.13922304736E+02 -0.15732776087E+02  0.21117465442E+02  0.00000000000E+00 0. -1.
</event>
<event>
 7    1  0.1427898E-010  0.4778726E+02  0.7816164E-02  0.1312668E+00
        -11   -1    0    0    0    0  0.00000000000E+00  0.00000000000E+00  0.45593999997E+02  0.45594000000E+02  0.51100000000E-03 0.  1.
         11   -1    0    0    0    0 -0.00000000000E+00 -0.00000000000E+00 -0.45593999997E+02  0.45594000000E+02  0.51100000000E-03 0. -1.
    9900012    2    1    2    0    0 -0.17844028268E+02  0.38366233146E+02  0.96564384078E+01  0.47787262755E+02  0.19999962206E+02 0.  0.
        -12    1    1    2    0    0  0.17844028268E+02 -0.38366233146E+02 -0.96564384078E+01  0.43400737245E+02  0.00000000000E+00 0.  1.
         11    1    3    3    0    0 -0.15875291043E+02  0.22009503595E+02  0.48309556344E+01  0.27564129712E+02  0.51100000000E-03 0. -1.
        -11    1    3    3    0    0 -0.28109267389E+01  0.65100134592E+01  0.71508627710E+01  0.10070572129E+02  0.51100000000E-03 0.  1.
         12    1    3    3    0    0  0.84218951435E+00  0.98467160922E+01 -0.23253799976E+01  0.10152560914E+02  0.00000000000E+00 0. -1.
</event>
<event>
 7    1  0.1427898E-010  0.4778726E+02  0.7816164E-02  0.1312668E+00
        -11   -1    0    0    0    0  0.00000000000E+00  0.00000000000E+00  0.45593999997E+02  0.45594000000E+02  0.51100000000E-03 0.  1.
         11   -1    0    0    0    0 -0.00000000000E+00 -0.00000000000E+00 -0.45593999997E+02  0.45594000000E+02  0.51100000000E-03 0. -1.
    9900012    2    1    2    0    0  0.13497000792E+02  0.30051376751E+02 -0.28255436909E+02  0.47787262795E+02  0.19999962388E+02 0.  0.
        -12    1    1    2    0    0 -0.13497000792E+02 -0.30051376751E+02  0.28255436909E+02  0.43400737205E+02  0.00000000000E+00 0.  1.
         11    1    3    3    0    0  0.65660564232E+01  0.23169556605E+02 -0.20929257453E+02  0.31905724690E+02  0.51100000000E-03 0. -1.
        -11    1    3    3    0    0  0.80339279841E+01  0.75523468205E+01 -0.30872921062E+01  0.11450472224E+02  0.51100000000E-03 0.  1.
         12    1    3    3    0    0 -0.11029836156E+01 -0.67052667381E+00 -0.42388873494E+01  0.44310658805E+01  0.00000000000E+00 0. -1.
</event>
<event>
 7    1  0.1447753E-010  0.4778727E+02  0.7816164E-02  0.1312668E+00
        -11   -1    0    0    0    0  0.00000000000E+00  0.00000000000E+00  0.45593999997E+02  0.45594000000E+02  0.51100000000E-03 0. -1.
         11   -1    0    0    0    0 -0.00000000000E+00 -0.00000000000E+00 -0.45593999997E+02  0.45594000000E+02  0.51100000000E-03 0.  1.
    9900012    2    1    2    0    0  0.16393264799E+02  0.14487841660E+02  0.37483154641E+02  0.47787267649E+02  0.19999984519E+02 0.  0.
        -12    1    1    2    0    0 -0.16393264799E+02 -0.14487841660E+02 -0.37483154641E+02  0.43400732351E+02  0.00000000000E+00 0.  1.
         11    1    3    3    0    0  0.63867185757E+01  0.10413281243E+02  0.25479325398E+02  0.28256373147E+02  0.51100000000E-03 0. -1.
        -11    1    3    3    0    0 -0.17717706156E+01 -0.15249620368E+01  0.22577472264E+01  0.32499389420E+01  0.51100000000E-03 0.  1.
         12    1    3    3    0    0  0.11778316839E+02  0.55995224538E+01  0.97460820163E+01  0.16280955560E+02  0.00000000000E+00 0. -1.
</event>
<event>
 7    1  0.1427898E-010  0.4778727E+02  0.7816164E-02  0.1312668E+00
        -11   -1    0    0    0    0  0.00000000000E+00  0.00000000000E+00  0.45593999997E+02  0.45594000000E+02  0.51100000000E-03 0.  1.
         11   -1    0    0    0    0 -0.00000000000E+00 -0.00000000000E+00 -0.45593999997E+02  0.45594000000E+02  0.51100000000E-03 0. -1.
    9900012    2    1    2    0    0  0.34104240039E+01  0.19649835776E+02 -0.38547067914E+02  0.47787268639E+02  0.19999989033E+02 0.  0.
        -12    1    1    2    0    0 -0.34104240039E+01 -0.19649835776E+02  0.38547067914E+02  0.43400731361E+02  0.00000000000E+00 0.  1.
         11    1    3    3    0    0  0.82335461388E+00  0.51487414938E+01 -0.19732393317E+02  0.20409674129E+02  0.51100000000E-03 0. -1.
        -11    1    3    3    0    0  0.42403523131E+01  0.16232778880E+02 -0.18480483265E+02  0.24960207529E+02  0.51100000000E-03 0.  1.
        -12    1    3    3    0    0 -0.16532829232E+01 -0.17316845978E+01 -0.33419133217E+00  0.24173869812E+01  0.00000000000E+00 0.  1.
</event>
<event>
 7    1  0.1427898E-010  0.4778727E+02  0.7816164E-02  0.1312668E+00
        -11   -1    0    0    0    0  0.00000000000E+00  0.00000000000E+00  0.45593999997E+02  0.45594000000E+02  0.51100000000E-03 0. -1.
         11   -1    0    0    0    0 -0.00000000000E+00 -0.00000000000E+00 -0.45593999997E+02  0.45594000000E+02  0.51100000000E-03 0.  1.
    9900012    2    1    2    0    0  0.17557429241E+02  0.83760634889E+01  0.38796928259E+02  0.47787269552E+02  0.19999993195E+02 0.  0.
        -12    1    1    2    0    0 -0.17557429241E+02 -0.83760634889E+01 -0.38796928259E+02  0.43400730448E+02  0.00000000000E+00 0.  1.
         11    1    3    3    0    0 -0.57678308899E+00 -0.37469481184E+01  0.22277129981E+01  0.43971586732E+01  0.51100000000E-03 0.  1.
        -11    1    3    3    0    0  0.73081138169E+01  0.37624533436E+01  0.21607038821E+02  0.23117714195E+02  0.51100000000E-03 0. -1.
        -12    1    3    3    0    0  0.10826098513E+02  0.83605582637E+01  0.14962176439E+02  0.20272396684E+02  0.00000000000E+00 0.  1.
</event>
<event>
 7    1  0.1427898E-010  0.4778727E+02  0.7816164E-02  0.1312668E+00
        -11   -1    0    0    0    0  0.00000000000E+00  0.00000000000E+00  0.45593999997E+02  0.45594000000E+02  0.51100000000E-03 0. -1.
         11   -1    0    0    0    0 -0.00000000000E+00 -0.00000000000E+00 -0.45593999997E+02  0.45594000000E+02  0.51100000000E-03 0.  1.
    9900012    2    1    2    0    0 -0.37976959280E+02 -0.79585913171E+01  0.19443113670E+02  0.47787270961E+02  0.19999999621E+02 0.  0.
        -12    1    1    2    0    0  0.37976959280E+02  0.79585913171E+01 -0.19443113670E+02  0.43400729039E+02  0.00000000000E+00 0.  1.
         11    1    3    3    0    0 -0.90624606640E+01  0.32761497839E+01  0.42615229158E+01  0.10536694383E+02  0.51100000000E-03 0. -1.
        -11    1    3    3    0    0 -0.30030749967E+02 -0.87918824791E+01  0.13481345282E+02  0.34071833118E+02  0.51100000000E-03 0.  1.
        -12    1    3    3    0    0  0.11162513512E+01 -0.24428586219E+01  0.17002454721E+01  0.31787434611E+01  0.00000000000E+00 0.  1.
</event>
<event>
 7    1  0.1427898E-010  0.4778727E+02  0.7816164E-02  0.1312668E+00
        -11   -1    0    0    0    0  0.00000000000E+00  0.00000000000E+00  0.45593999997E+02  0.45594000000E+02  0.51100000000E-03 0.  1.
         11   -1    0    0    0    0 -0.00000000000E+00 -0.00000000000E+00 -0.45593999997E+02  0.45594000000E+02  0.51100000000E-03 0. -1.
    9900012    2    1    2    0    0 -0.97575718028E-02 -0.14406477969E+02 -0.40939916652E+02  0.47787268691E+02  0.19999989268E+02 0.  0.
        -12    1    1    2    0    0  0.97575718028E-02  0.14406477969E+02  0.40939916652E+02  0.43400731309E+02  0.00000000000E+00 0.  1.
         11    1    3    3    0    0  0.33030005599E+01 -0.15091207270E+02 -0.39658325474E+02  0.42560981300E+02  0.51100000000E-03 0. -1.
        -11    1    3    3    0    0 -0.30386031550E+01  0.24450766159E+00 -0.24739804966E+01  0.39259996038E+01  0.51100000000E-03 0.  1.
         12    1    3    3    0    0 -0.27415497666E+00  0.44022163885E+00  0.11923893182E+01  0.13002877869E+01  0.00000000000E+00 0. -1.
</event>
<event>
 7    1  0.1427898E-010  0.4778727E+02  0.7816164E-02  0.1312668E+00
        -11   -1    0    0    0    0  0.00000000000E+00  0.00000000000E+00  0.45593999997E+02  0.45594000000E+02  0.51100000000E-03 0.  1.
         11   -1    0    0    0    0 -0.00000000000E+00 -0.00000000000E+00 -0.45593999997E+02  0.45594000000E+02  0.51100000000E-03 0. -1.
    9900012    2    1    2    0    0  0.18759267412E+02 -0.16372855341E+02 -0.35547758621E+02  0.47787266724E+02  0.19999980304E+02 0.  0.
        -12    1    1    2    0    0 -0.18759267412E+02  0.16372855341E+02  0.35547758621E+02  0.43400733276E+02  0.00000000000E+00 0.  1.
         11    1    3    3    0    0  0.12139531621E+02 -0.10885425384E+02 -0.27233950056E+02  0.31741908413E+02  0.51100000000E-03 0. -1.
        -11    1    3    3    0    0  0.91230843943E+01 -0.24648278843E+01 -0.41432911381E+01  0.10318570981E+02  0.51100000000E-03 0.  1.
        -12    1    3    3    0    0 -0.25033486037E+01 -0.30226020735E+01 -0.41705174270E+01  0.57267873311E+01  0.00000000000E+00 0.  1.
</event>
<event>
 7    1  0.1427898E-010  0.4778727E+02  0.7816164E-02  0.1312668E+00
        -11   -1    0    0    0    0  0.00000000000E+00  0.00000000000E+00  0.45593999997E+02  0.45594000000E+02  0.51100000000E-03 0.  1.
         11   -1    0    0    0    0 -0.00000000000E+00 -0.00000000000E+00 -0.45593999997E+02  0.45594000000E+02  0.51100000000E-03 0. -1.
    9900012    2    1    2    0    0 -0.37289756663E+02 -0.20669613102E+02 -0.81156774485E+01  0.47787273299E+02  0.20000010279E+02 0.  0.
        -12    1    1    2    0    0  0.37289756663E+02  0.20669613102E+02  0.81156774485E+01  0.43400726701E+02  0.00000000000E+00 0.  1.
         11    1    3    3    0    0 -0.27869770522E+02 -0.85463032263E+01 -0.91171829458E+01  0.30543189632E+02  0.51100000000E-03 0. -1.
        -11    1    3    3    0    0 -0.77299534347E+01 -0.49058698021E+01  0.28790591767E+01  0.95973288274E+01  0.51100000000E-03 0.  1.
         12    1    3    3    0    0 -0.16900327065E+01 -0.72174400732E+01 -0.18775536793E+01  0.76467548397E+01  0.00000000000E+00 0. -1.
</event>
<event>
 7    1  0.1588055E-010  0.4778727E+02  0.7816164E-02  0.1312668E+00
        -11   -1    0    0    0    0  0.00000000000E+00  0.00000000000E+00  0.45593999997E+02  0.45594000000E+02  0.51100000000E-03 0.  1.
         11   -1    0    0    0    0 -0.00000000000E+00 -0.00000000000E+00 -0.45593999997E+02  0.45594000000E+02  0.51100000000E-03 0. -1.
    9900012    2    1    2    0    0 -0.29595374635E+02  0.30106699120E+02  0.10065986747E+02  0.47787267047E+02  0.19999981774E+02 0.  0.
        -12    1    1    2    0    0  0.29595374635E+02 -0.30106699120E+02 -0.10065986747E+02  0.43400732953E+02  0.00000000000E+00 0.  1.
         11    1    3    3    0    0 -0.16575073538E+02  0.10407181520E+02  0.13025068684E+02  0.23509464146E+02  0.51100000000E-03 0. -1.
        -11    1    3    3    0    0 -0.40008640084E+01  0.35938878326E+01 -0.21774107727E+01  0.58020738104E+01  0.51100000000E-03 0.  1.
         12    1    3    3    0    0 -0.90194370883E+01  0.16105629768E+02 -0.78167116395E+00  0.18475729090E+02  0.00000000000E+00 0. -1.
</event>
<event>
 7    1  0.1427898E-010  0.4778727E+02  0.7816164E-02  0.1312668E+00
        -11   -1    0    0    0    0  0.00000000000E+00  0.00000000000E+00  0.45593999997E+02  0.45594000000E+02  0.51100000000E-03 0. -1.
         11   -1    0    0    0    0 -0.00000000000E+00 -0.00000000000E+00 -0.45593999997E+02  0.45594000000E+02  0.51100000000E-03 0.  1.
    9900012    2    1    2    0    0  0.35555060115E+02 -0.11502973975E+02  0.22071306614E+02  0.47787270908E+02  0.19999999379E+02 0.  0.
        -12    1    1    2    0    0 -0.35555060115E+02  0.11502973975E+02 -0.22071306614E+02  0.43400729092E+02  0.00000000000E+00 0.  1.
         11    1    3    3    0    0  0.36674566073E+01  0.33833429459E+01  0.41254895686E+01  0.64743271386E+01  0.51100000000E-03 0. -1.
        -11    1    3    3    0    0  0.25226175321E+00  0.84299438295E+00 -0.91022892217E+00  0.12660144050E+01  0.51100000000E-03 0.  1.
         12    1    3    3    0    0  0.31635341755E+02 -0.15729311304E+02  0.18856045967E+02  0.40046929365E+02  0.00000000000E+00 0. -1.
</event>
<event>
 7    1  0.1427898E-010  0.4778727E+02  0.7816164E-02  0.1312668E+00
        -11   -1    0    0    0    0  0.00000000000E+00  0.00000000000E+00  0.45593999997E+02  0.45594000000E+02  0.51100000000E-03 0.  1.
         11   -1    0    0    0    0 -0.00000000000E+00 -0.00000000000E+00 -0.45593999997E+02  0.45594000000E+02  0.51100000000E-03 0. -1.
    9900012    2    1    2    0    0 -0.32060638274E+02 -0.12881550940E+02 -0.26264127021E+02  0.47787271327E+02  0.20000001288E+02 0.  0.
        -12    1    1    2    0    0  0.32060638274E+02  0.12881550940E+02  0.26264127021E+02  0.43400728673E+02  0.00000000000E+00 0.  1.
         11    1    3    3    0    0 -0.16065892924E+01  0.78553114217E-01  0.12001288176E+01  0.20068904270E+01  0.51100000000E-03 0. -1.
        -11    1    3    3    0    0 -0.26761074930E+01 -0.39678131519E+01  0.11256102681E+01  0.49165121030E+01  0.51100000000E-03 0.  1.
         12    1    3    3    0    0 -0.27777941489E+02 -0.89922909024E+01 -0.28589866107E+02  0.40863868797E+02  0.00000000000E+00 0. -1.
</event>
<event>
 7    1  0.1427898E-010  0.4778726E+02  0.7816164E-02  0.1312668E+00
        -11   -1    0    0    0    0  0.00000000000E+00  0.00000000000E+00  0.45593999997E+02  0.45594000000E+02  0.51100000000E-03 0.  1.
         11   -1    0    0    0    0 -0.00000000000E+00 -0.00000000000E+00 -0.45593999997E+02  0.45594000000E+02  0.51100000000E-03 0. -1.
    9900012    2    1    2    0    0  0.18185511939E+02 -0.24265117505E+02 -0.31050202083E+02  0.47787264737E+02  0.19999971242E+02 0.  0.
        -12    1    1    2    0    0 -0.18185511939E+02  0.24265117505E+02  0.31050202083E+02  0.43400735263E+02  0.00000000000E+00 0.  1.
         11    1    3    3    0    0  0.26243613168E+01 -0.63848986577E+01 -0.11751954498E+02  0.13629476805E+02  0.51100000000E-03 0. -1.
        -11    1    3    3    0    0  0.35522469388E+01 -0.10800133954E+02 -0.13762717958E+01  0.11452313131E+02  0.51100000000E-03 0.  1.
        -12    1    3    3    0    0  0.12008903683E+02 -0.70800848931E+01 -0.17921975789E+02  0.22705474801E+02  0.00000000000E+00 0.  1.
</event>
<event>
 7    1  0.1427898E-010  0.4778727E+02  0.7816164E-02  0.1312668E+00
        -11   -1    0    0    0    0  0.00000000000E+00  0.00000000000E+00  0.45593999997E+02  0.45594000000E+02  0.51100000000E-03 0.  1.
         11   -1    0    0    0    0 -0.00000000000E+00 -0.00000000000E+00 -0.45593999997E+02  0.45594000000E+02  0.51100000000E-03 0. -1.
    9900012    2    1    2    0    0 -0.16210475602E+02  0.32678398511E+02 -0.23515228943E+02  0.47787271426E+02  0.20000001742E+02 0.  0.
        -12    1    1    2    0    0  0.16210475602E+02 -0.32678398511E+02  0.23515228943E+02  0.43400728574E+02  0.00000000000E+00 0.  1.
         11    1    3    3    0    0 -0.69874186784E+01  0.11123264857E+02 -0.43052128478E+01  0.13823382321E+02  0.51100000000E-03 0.  1.
        -11    1    3    3    0    0 -0.12973015842E+02  0.11978120277E+02 -0.13260847612E+02  0.22082223282E+02  0.51100000000E-03 0. -1.
        -12    1    3    3    0    0  0.37499589187E+01  0.95770133763E+01 -0.59491684832E+01  0.11881665824E+02  0.00000000000E+00 0.  1.
</event>
<event>
 7    1  0.1427898E-010  0.4778727E+02  0.7816164E-02  0.1312668E+00
        -11   -1    0    0    0    0  0.00000000000E+00  0.00000000000E+00  0.45593999997E+02  0.45594000000E+02  0.51100000000E-03 0.  1.
         11   -1    0    0    0    0 -0.00000000000E+00 -0.00000000000E+00 -0.45593999997E+02  0.45594000000E+02  0.51100000000E-03 0. -1.
    9900012    2    1    2    0    0  0.42064352745E+02  0.91219758133E+01  0.55680466955E+01  0.47787270069E+02  0.19999995551E+02 0.  0.
        -12    1    1    2    0    0 -0.42064352745E+02 -0.91219758133E+01 -0.55680466955E+01  0.43400729931E+02  0.00000000000E+00 0.  1.
         11    1    3    3    0    0  0.10759240840E+02  0.68631934192E+01  0.58140621281E+00  0.12775082027E+02  0.51100000000E-03 0. -1.
        -11    1    3    3    0    0  0.24169188281E+02 -0.27667441150E+01  0.82592545644E+01  0.25690850928E+02  0.51100000000E-03 0.  1.
         12    1    3    3    0    0  0.71359236235E+01  0.50255265090E+01 -0.32726140817E+01  0.93213371133E+01  0.00000000000E+00 0. -1.
</event>
<event>
 7    1  0.1427898E-010  0.4778727E+02  0.7816164E-02  0.1312668E+00
        -11   -1    0    0    0    0  0.00000000000E+00  0.00000000000E+00  0.45593999997E+02  0.45594000000E+02  0.51100000000E-03 0. -1.
         11   -1    0    0    0    0 -0.00000000000E+00 -0.00000000000E+00 -0.45593999997E+02  0.45594000000E+02  0.51100000000E-03 0.  1.
    9900012    2    1    2    0    0 -0.37957918242E+02  0.20402075561E+02 -0.51550747721E+01  0.47787273735E+02  0.20000012266E+02 0.  0.
        -12    1    1    2    0    0  0.37957918242E+02 -0.20402075561E+02  0.51550747721E+01  0.43400726265E+02  0.00000000000E+00 0.  1.
         11    1    3    3    0    0 -0.27085143463E+02  0.10470500317E+02 -0.43252538325E+01  0.29358886121E+02  0.51100000000E-03 0. -1.
        -11    1    3    3    0    0 -0.12909753114E+02  0.95035404609E+01 -0.18011594975E+01  0.16131434609E+02  0.51100000000E-03 0.  1.
         12    1    3    3    0    0  0.20369783348E+01  0.42803478369E+00  0.97133855785E+00  0.22969530049E+01  0.00000000000E+00 0. -1.
</event>
<event>
 7    1  0.1427898E-010  0.4778727E+02  0.7816164E-02  0.1312668E+00
        -11   -1    0    0    0    0  0.00000000000E+00  0.00000000000E+00  0.45593999997E+02  0.45594000000E+02  0.51100000000E-03 0.  1.
         11   -1    0    0    0    0 -0.00000000000E+00 -0.00000000000E+00 -0.45593999997E+02  0.45594000000E+02  0.51100000000E-03 0. -1.
    9900012    2    1    2    0    0  0.34182785781E+00  0.18701566391E+02 -0.39163220268E+02  0.47787271279E+02  0.20000001068E+02 0.  0.
        -12    1    1    2    0    0 -0.34182785781E+00 -0.18701566391E+02  0.39163220268E+02  0.43400728721E+02  0.00000000000E+00 0.  1.
         11    1    3    3    0    0  0.34013877121E+01  0.58941509846E+01 -0.31934460299E+01  0.75172170385E+01  0.51100000000E-03 0. -1.
        -11    1    3    3    0    0 -0.86214043819E-01 -0.83519294526E+00  0.66082763225E+00  0.10684912437E+01  0.51100000000E-03 0.  1.
         12    1    3    3    0    0 -0.29733458104E+01  0.13642608352E+02 -0.36630601871E+02  0.39201562996E+02  0.00000000000E+00 0. -1.
</event>
<event>
 7    1  0.1427898E-010  0.4778727E+02  0.7816164E-02  0.1312668E+00
        -11   -1    0    0    0    0  0.00000000000E+00  0.00000000000E+00  0.45593999997E+02  0.45594000000E+02  0.51100000000E-03 0. -1.
         11   -1    0    0    0    0 -0.00000000000E+00 -0.00000000000E+00 -0.45593999997E+02  0.45594000000E+02  0.51100000000E-03 0.  1.
    9900012    2    1    2    0    0 -0.25441730023E+02  0.55177420050E+01  0.34726016562E+02  0.47787270402E+02  0.19999997073E+02 0.  0.
        -12    1    1    2    0    0  0.25441730023E+02 -0.55177420050E+01 -0.34726016562E+02  0.43400729598E+02  0.00000000000E+00 0.  1.
         11    1    3    3    0    0 -0.13792093648E+02  0.12021836475E+02  0.16553438495E+02  0.24673117470E+02  0.51100000000E-03 0. -1.
        -11    1    3    3    0    0 -0.91220344396E+00 -0.23779992329E+01  0.18602793013E+01  0.31539871298E+01  0.51100000000E-03 0.  1.
         12    1    3    3    0    0 -0.10737432931E+02 -0.41260952377E+01  0.16312298765E+02  0.19960165802E+02  0.00000000000E+00 0. -1.
</event>
<event>
 7    1  0.1427898E-010  0.4778727E+02  0.7816164E-02  0.1312668E+00
        -11   -1    0    0    0    0  0.00000000000E+00  0.00000000000E+00  0.45593999997E+02  0.45594000000E+02  0.51100000000E-03 0. -1.
         11   -1    0    0    0    0 -0.00000000000E+00 -0.00000000000E+00 -0.45593999997E+02  0.45594000000E+02  0.51100000000E-03 0.  1.
    9900012    2    1    2    0    0 -0.13741841347E+02  0.25305228842E+02  0.32471997290E+02  0.47787269380E+02  0.19999992410E+02 0.  0.
        -12    1    1    2    0    0  0.13741841347E+02 -0.25305228842E+02 -0.32471997290E+02  0.43400730620E+02  0.00000000000E+00 0.  1.
         11    1    3    3    0    0  0.90930319979E+00 -0.12403360735E+01 -0.38824833408E-01  0.15384321607E+01  0.51100000000E-03 0.  1.
        -11    1    3    3    0    0 -0.48406311357E+01  0.15148727307E+02  0.24503877177E+02  0.29212251639E+02  0.51100000000E-03 0. -1.
         12    1    3    3    0    0 -0.98105134113E+01  0.11396837609E+02  0.80069449461E+01  0.17036585580E+02  0.00000000000E+00 0. -1.
</event>
<event>
 7    1  0.1427898E-010  0.4778726E+02  0.7816164E-02  0.1312668E+00
        -11   -1    0    0    0    0  0.00000000000E+00  0.00000000000E+00  0.45593999997E+02  0.45594000000E+02  0.51100000000E-03 0. -1.
         11   -1    0    0    0    0 -0.00000000000E+00 -0.00000000000E+00 -0.45593999997E+02  0.45594000000E+02  0.51100000000E-03 0.  1.
    9900012    2    1    2    0    0  0.27648436051E+02 -0.33294031774E+02 -0.32703588000E+01  0.47787264816E+02  0.19999971600E+02 0.  0.
        -12    1    1    2    0    0 -0.27648436051E+02  0.33294031774E+02  0.32703588000E+01  0.43400735184E+02  0.00000000000E+00 0.  1.
         11    1    3    3    0    0  0.25100913772E+02 -0.29425324663E+02 -0.58646769608E+01  0.39119049578E+02  0.51100000000E-03 0. -1.
        -11    1    3    3    0    0  0.46048915323E+01 -0.96211835932E+00  0.16330084698E+01  0.49797002605E+01  0.51100000000E-03 0.  1.
         12    1    3    3    0    0 -0.20573692533E+01 -0.29065887515E+01  0.96130969107E+00  0.36885149772E+01  0.00000000000E+00 0. -1.
</event>
<event>
 7    1  0.1427898E-010  0.4778727E+02  0.7816164E-02  0.1312668E+00
        -11   -1    0    0    0    0  0.00000000000E+00  0.00000000000E+00  0.45593999997E+02  0.45594000000E+02  0.51100000000E-03 0. -1.
         11   -1    0    0    0    0 -0.00000000000E+00 -0.00000000000E+00 -0.45593999997E+02  0.45594000000E+02  0.51100000000E-03 0.  1.
    9900012    2    1    2    0    0 -0.18987132181E+02  0.39012019131E+02 -0.10838316318E+01  0.47787268254E+02  0.19999987276E+02 0.  0.
        -12    1    1    2    0    0  0.18987132181E+02 -0.39012019131E+02  0.10838316318E+01  0.43400731746E+02  0.00000000000E+00 0.  1.
         11    1    3    3    0    0  0.22162768770E+01 -0.79995115967E+00 -0.30256015297E+00  0.23755731858E+01  0.51100000000E-03 0.  1.
        -11    1    3    3    0    0 -0.79699883342E+01  0.11954524719E+02  0.17161492993E+01  0.14469849480E+02  0.51100000000E-03 0. -1.
        -12    1    3    3    0    0 -0.13233420724E+02  0.27857445572E+02 -0.24974207782E+01  0.30941845588E+02  0.00000000000E+00 0.  1.
</event>
<event>
 7    1  0.1427898E-010  0.4778723E+02  0.7816164E-02  0.1312668E+00
        -11   -1    0    0    0    0  0.00000000000E+00  0.00000000000E+00  0.45593999997E+02  0.45594000000E+02  0.51100000000E-03 0.  1.
         11   -1    0    0    0    0 -0.00000000000E+00 -0.00000000000E+00 -0.45593999997E+02  0.45594000000E+02  0.51100000000E-03 0. -1.
    9900012    2    1    2    0    0 -0.11221135916E+02  0.12105914330E+02 -0.40139251096E+02  0.47787233515E+02  0.19999828886E+02 0.  0.
        -12    1    1    2    0    0  0.11221135916E+02 -0.12105914330E+02  0.40139251096E+02  0.43400766485E+02  0.00000000000E+00 0.  1.
         11    1    3    3    0    0  0.29133975662E+01 -0.57333736071E+00 -0.29939896869E+01  0.42167019831E+01  0.51100000000E-03 0. -1.
        -11    1    3    3    0    0 -0.90609269593E+01  0.11409492373E+02 -0.15378767973E+02  0.21184508921E+02  0.51100000000E-03 0.  1.
         12    1    3    3    0    0 -0.50736065228E+01  0.12697593177E+01 -0.21766493435E+02  0.22386022611E+02  0.00000000000E+00 0. -1.
</event>
<event>
 7    1  0.1998503E-010  0.4778727E+02  0.7816164E-02  0.1312668E+00
        -11   -1    0    0    0    0  0.00000000000E+00  0.00000000000E+00  0.45593999997E+02  0.45594000000E+02  0.51100000000E-03 0.  1.
         11   -1    0    0    0    0 -0.00000000000E+00 -0.00000000000E+00 -0.45593999997E+02  0.45594000000E+02  0.51100000000E-03 0. -1.
    9900012    2    1    2    0    0 -0.64466828171E+00  0.37879164294E+02 -0.21174909879E+02  0.47787268518E+02  0.19999988480E+02 0.  0.
        -12    1    1    2    0    0  0.64466828171E+00 -0.37879164294E+02  0.21174909879E+02  0.43400731482E+02  0.00000000000E+00 0.  1.
         11    1    3    3    0    0  0.16562273759E+01  0.20531226818E+02 -0.43313912257E+01  0.21048404072E+02  0.51100000000E-03 0. -1.
        -11    1    3    3    0    0 -0.50248124085E+01  0.37827957121E+01 -0.23842480734E+01  0.67262859199E+01  0.51100000000E-03 0.  1.
         12    1    3    3    0    0  0.27239167509E+01  0.13565141764E+02 -0.14459270580E+02  0.20012578526E+02  0.00000000000E+00 0. -1.
</event>
<event>
 7    1  0.1427898E-010  0.4778727E+02  0.7816164E-02  0.1312668E+00
        -11   -1    0    0    0    0  0.00000000000E+00  0.00000000000E+00  0.45593999997E+02  0.45594000000E+02  0.51100000000E-03 0. -1.
         11   -1    0    0    0    0 -0.00000000000E+00 -0.00000000000E+00 -0.45593999997E+02  0.45594000000E+02  0.51100000000E-03 0.  1.
    9900012    2    1    2    0    0 -0.11182837449E+02  0.20530590078E+02 -0.36565863315E+02  0.47787270256E+02  0.19999996406E+02 0.  0.
        -12    1    1    2    0    0  0.11182837449E+02 -0.20530590078E+02  0.36565863315E+02  0.43400729744E+02  0.00000000000E+00 0.  1.
         11    1    3    3    0    0 -0.71748429673E+01  0.88554064358E+01 -0.19170448713E+02  0.22302526737E+02  0.51100000000E-03 0. -1.
        -11    1    3    3    0    0  0.35117228293E+01 -0.12023598054E+01 -0.34076808280E+01  0.50388644771E+01  0.51100000000E-03 0.  1.
         12    1    3    3    0    0 -0.75197173108E+01  0.12877543447E+02 -0.13987733774E+02  0.20445879042E+02  0.00000000000E+00 0. -1.
</event>
<event>
 7    1  0.1427898E-010  0.4778728E+02  0.7816164E-02  0.1312668E+00
        -11   -1    0    0    0    0  0.00000000000E+00  0.00000000000E+00  0.45593999997E+02  0.45594000000E+02  0.51100000000E-03 0.  1.
         11   -1    0    0    0    0 -0.00000000000E+00 -0.00000000000E+00 -0.45593999997E+02  0.45594000000E+02  0.51100000000E-03 0. -1.
    9900012    2    1    2    0    0  0.34923133034E+02  0.16103007623E+02 -0.20116927306E+02  0.47787276047E+02  0.20000022807E+02 0.  0.
        -12    1    1    2    0    0 -0.34923133034E+02 -0.16103007623E+02  0.20116927306E+02  0.43400723953E+02  0.00000000000E+00 0.  1.
         11    1    3    3    0    0  0.82370497863E+01  0.10092127934E+02 -0.13745386091E+02  0.18937678698E+02  0.51100000000E-03 0. -1.
        -11    1    3    3    0    0  0.96024495175E+01  0.49647070486E+01 -0.75633493084E+00  0.10836392186E+02  0.51100000000E-03 0.  1.
         12    1    3    3    0    0  0.17083633730E+02  0.10461726406E+01 -0.56152062848E+01  0.18013205163E+02  0.00000000000E+00 0. -1.
</event>
<event>
 7    1  0.1427898E-010  0.4778727E+02  0.7816164E-02  0.1312668E+00
        -11   -1    0    0    0    0  0.00000000000E+00  0.00000000000E+00  0.45593999997E+02  0.45594000000E+02  0.51100000000E-03 0.  1.
         11   -1    0    0    0    0 -0.00000000000E+00 -0.00000000000E+00 -0.45593999997E+02  0.45594000000E+02  0.51100000000E-03 0. -1.
    9900012    2    1    2    0    0  0.46785616940E+01  0.69483523830E+01 -0.42584677901E+02  0.47787270372E+02  0.19999996932E+02 0.  0.
        -12    1    1    2    0    0 -0.46785616940E+01 -0.69483523830E+01  0.42584677901E+02  0.43400729628E+02  0.00000000000E+00 0.  1.
         11    1    3    3    0    0  0.38967663609E+01  0.82388624451E+01 -0.23437116401E+02  0.25146810293E+02  0.51100000000E-03 0. -1.
        -11    1    3    3    0    0  0.68214817394E+00  0.39914461533E+01 -0.15970433824E+02  0.16475792100E+02  0.51100000000E-03 0.  1.
        -12    1    3    3    0    0  0.99647159125E-01 -0.52819562154E+01 -0.31771276753E+01  0.61646679784E+01  0.00000000000E+00 0.  1.
</event>
<event>
 7    1  0.1427898E-010  0.4778727E+02  0.7816164E-02  0.1312668E+00
        -11   -1    0    0    0    0  0.00000000000E+00  0.00000000000E+00  0.45593999997E+02  0.45594000000E+02  0.51100000000E-03 0. -1.
         11   -1    0    0    0    0 -0.00000000000E+00 -0.00000000000E+00 -0.45593999997E+02  0.45594000000E+02  0.51100000000E-03 0.  1.
    9900012    2    1    2    0    0 -0.55389104054E+01  0.18927517221E+02  0.38661258904E+02  0.47787269861E+02  0.19999994603E+02 0.  0.
        -12    1    1    2    0    0  0.55389104054E+01 -0.18927517221E+02 -0.38661258904E+02  0.43400730139E+02  0.00000000000E+00 0.  1.
         11    1    3    3    0    0 -0.36604081905E+01  0.60455555393E+01  0.35943173119E+01  0.79288364278E+01  0.51100000000E-03 0.  1.
        -11    1    3    3    0    0 -0.23015898347E+01  0.12536914681E+02  0.36319928939E+02  0.38491671618E+02  0.51100000000E-03 0. -1.
         12    1    3    3    0    0  0.42308761980E+00  0.34504699988E+00 -0.12529873476E+01  0.13667618152E+01  0.00000000000E+00 0. -1.
</event>
<event>
 7    1  0.1427898E-010  0.4778727E+02  0.7816164E-02  0.1312668E+00
        -11   -1    0    0    0    0  0.00000000000E+00  0.00000000000E+00  0.45593999997E+02  0.45594000000E+02  0.51100000000E-03 0. -1.
         11   -1    0    0    0    0 -0.00000000000E+00 -0.00000000000E+00 -0.45593999997E+02  0.45594000000E+02  0.51100000000E-03 0.  1.
    9900012    2    1    2    0    0 -0.61752959793E+01 -0.29244365132E+02 -0.31468334105E+02  0.47787271622E+02  0.20000002631E+02 0.  0.
        -12    1    1    2    0    0  0.61752959793E+01  0.29244365132E+02  0.31468334105E+02  0.43400728378E+02  0.00000000000E+00 0.  1.
         11    1    3    3    0    0  0.32557232606E+01 -0.69200751582E+01 -0.49486656418E+01  0.91091418937E+01  0.51100000000E-03 0.  1.
        -11    1    3    3    0    0 -0.88298410240E+01 -0.11591640525E+02 -0.65012286577E+01  0.15956133519E+02  0.51100000000E-03 0. -1.
         12    1    3    3    0    0 -0.60117821593E+00 -0.10732649449E+02 -0.20018439806E+02  0.22721996209E+02  0.00000000000E+00 0. -1.
</event>
<event>
 7    1  0.1427898E-010  0.4778727E+02  0.7816164E-02  0.1312668E+00
        -11   -1    0    0    0    0  0.00000000000E+00  0.00000000000E+00  0.45593999997E+02  0.45594000000E+02  0.51100000000E-03 0.  1.
         11   -1    0    0    0    0 -0.00000000000E+00 -0.00000000000E+00 -0.45593999997E+02  0.45594000000E+02  0.51100000000E-03 0. -1.
    9900012    2    1    2    0    0 -0.45394298489E+01 -0.26860686505E+02 -0.33786394091E+02  0.47787270415E+02  0.19999997128E+02 0.  0.
        -12    1    1    2    0    0  0.45394298489E+01  0.26860686505E+02  0.33786394091E+02  0.43400729585E+02  0.00000000000E+00 0.  1.
         11    1    3    3    0    0 -0.46906943651E+01 -0.55668658784E+01 -0.16442564082E+02  0.17981949927E+02  0.51100000000E-03 0. -1.
        -11    1    3    3    0    0  0.44404834335E+01 -0.13025045107E+02 -0.14669952375E+02  0.20114104407E+02  0.51100000000E-03 0.  1.
        -12    1    3    3    0    0 -0.42892189172E+01 -0.82687755191E+01 -0.26738776345E+01  0.96912160800E+01  0.00000000000E+00 0.  1.
</event>
<event>
 7    1  0.1427898E-010  0.4778727E+02  0.7816164E-02  0.1312668E+00
        -11   -1    0    0    0    0  0.00000000000E+00  0.00000000000E+00  0.45593999997E+02  0.45594000000E+02  0.51100000000E-03 0.  1.
         11   -1    0    0    0    0 -0.00000000000E+00 -0.00000000000E+00 -0.45593999997E+02  0.45594000000E+02  0.51100000000E-03 0. -1.
    9900012    2    1    2    0    0 -0.16842827207E+02 -0.13798956943E+02 -0.37543721729E+02  0.47787273252E+02  0.20000010064E+02 0.  0.
        -12    1    1    2    0    0  0.16842827207E+02  0.13798956943E+02  0.37543721729E+02  0.43400726748E+02  0.00000000000E+00 0.  1.
         11    1    3    3    0    0 -0.99597375981E+00 -0.30108710390E+01 -0.90390477089E+01  0.95792323225E+01  0.51100000000E-03 0. -1.
        -11    1    3    3    0    0 -0.16651117985E+02 -0.10599753337E+02 -0.15290974455E+02  0.24968548236E+02  0.51100000000E-03 0.  1.
        -12    1    3    3    0    0  0.80426453737E+00 -0.18833256632E+00 -0.13213699564E+02  0.13239492693E+02  0.00000000000E+00 0.  1.
</event>
<event>
 7    1  0.1427898E-010  0.4778728E+02  0.7816164E-02  0.1312668E+00
        -11   -1    0    0    0    0  0.00000000000E+00  0.00000000000E+00  0.45593999997E+02  0.45594000000E+02  0.51100000000E-03 0. -1.
         11   -1    0    0    0    0 -0.00000000000E+00 -0.00000000000E+00 -0.45593999997E+02  0.45594000000E+02  0.51100000000E-03 0.  1.
    9900012    2    1    2    0    0  0.42708421742E+02  0.55212464471E+01 -0.53971519101E+01  0.47787277670E+02  0.20000030209E+02 0.  0.
        -12    1    1    2    0    0 -0.42708421742E+02 -0.55212464471E+01  0.53971519101E+01  0.43400722330E+02  0.00000000000E+00 0.  1.
         11    1    3    3    0    0  0.16897507793E+02  0.14338355674E+01 -0.43536553876E+01  0.17508168652E+02  0.51100000000E-03 0. -1.
        -11    1    3    3    0    0  0.12255454222E+02  0.32267872704E+01 -0.80319098888E+01  0.15003995835E+02  0.51100000000E-03 0.  1.
         12    1    3    3    0    0  0.13555459726E+02  0.86062360934E+00  0.69884133662E+01  0.15275113184E+02  0.00000000000E+00 0. -1.
</event>
<event>
 7    1  0.1427898E-010  0.4778727E+02  0.7816164E-02  0.1312668E+00
        -11   -1    0    0    0    0  0.00000000000E+00  0.00000000000E+00  0.45593999997E+02  0.45594000000E+02  0.51100000000E-03 0. -1.
         11   -1    0    0    0    0 -0.00000000000E+00 -0.00000000000E+00 -0.45593999997E+02  0.45594000000E+02  0.51100000000E-03 0.  1.
    9900012    2    1    2    0    0 -0.29200142313E+02  0.22082320360E+02 -0.23309790888E+02  0.47787268038E+02  0.19999986293E+02 0.  0.
        -12    1    1    2    0    0  0.29200142313E+02 -0.22082320360E+02  0.23309790888E+02  0.43400731962E+02  0.00000000000E+00 0.  1.
         11    1    3    3    0    0 -0.25465384649E+02  0.12175047536E+02 -0.19380328442E+02  0.34239081889E+02  0.51100000000E-03 0. -1.
        -11    1    3    3    0    0 -0.43065802386E+01  0.24084755936E+01  0.25681880881E+00  0.49409861565E+01  0.51100000000E-03 0.  1.
        -12    1    3    3    0    0  0.57182257462E+00  0.74987972310E+01 -0.41862812546E+01  0.86071999925E+01  0.00000000000E+00 0.  1.
</event>
<event>
 7    1  0.1427898E-010  0.4778726E+02  0.7816164E-02  0.1312668E+00
        -11   -1    0    0    0    0  0.00000000000E+00  0.00000000000E+00  0.45593999997E+02  0.45594000000E+02  0.51100000000E-03 0.  1.
         11   -1    0    0    0    0 -0.00000000000E+00 -0.00000000000E+00 -0.45593999997E+02  0.45594000000E+02  0.51100000000E-03 0. -1.
    9900012    2    1    2    0    0 -0.23125677885E+02  0.28382335818E+02 -0.23308155416E+02  0.47787261837E+02  0.19999958021E+02 0.  0.
        -12    1    1    2    0    0  0.23125677885E+02 -0.28382335818E+02  0.23308155416E+02  0.43400738163E+02  0.00000000000E+00 0.  1.
         11    1    3    3    0    0 -0.16066524839E+02  0.13421839272E+02 -0.15331436783E+02  0.25948640503E+02  0.51100000000E-03 0. -1.
        -11    1    3    3    0    0  0.48525303367E+00 -0.17920512408E+01 -0.13952900076E+01  0.23224453972E+01  0.51100000000E-03 0.  1.
         12    1    3    3    0    0 -0.75444060792E+01  0.16752547787E+02 -0.65814286254E+01  0.19516175937E+02  0.00000000000E+00 0. -1.
</event>
<event>
 7    1  0.1427898E-010  0.4778727E+02  0.7816164E-02  0.1312668E+00
        -11   -1    0    0    0    0  0.00000000000E+00  0.00000000000E+00  0.45593999997E+02  0.45594000000E+02  0.51100000000E-03 0.  1.
         11   -1    0    0    0    0 -0.00000000000E+00 -0.00000000000E+00 -0.45593999997E+02  0.45594000000E+02  0.51100000000E-03 0. -1.
    9900012    2    1    2    0    0 -0.33744808598E+02 -0.27292032186E+02  0.23661392766E+00  0.47787272883E+02  0.20000008381E+02 0.  0.
        -12    1    1    2    0    0  0.33744808598E+02  0.27292032186E+02 -0.23661392766E+00  0.43400727117E+02  0.00000000000E+00 0.  1.
         11    1    3    3    0    0 -0.21595949833E+02 -0.10822593868E+02 -0.11836232013E+01  0.24185006748E+02  0.51100000000E-03 0. -1.
        -11    1    3    3    0    0 -0.11509388996E+02 -0.13404582601E+02  0.54591982385E+01  0.18491936498E+02  0.51100000000E-03 0.  1.
         12    1    3    3    0    0 -0.63946976805E+00 -0.30648557169E+01 -0.40389611095E+01  0.51103296365E+01  0.00000000000E+00 0. -1.
</event>
<event>
 7    1  0.1427898E-010  0.4778727E+02  0.7816164E-02  0.1312668E+00
        -11   -1    0    0    0    0  0.00000000000E+00  0.00000000000E+00  0.45593999997E+02  0.45594000000E+02  0.51100000000E-03 0. -1.
         11   -1    0    0    0    0 -0.00000000000E+00 -0.00000000000E+00 -0.45593999997E+02  0.45594000000E+02  0.51100000000E-03 0.  1.
    9900012    2    1    2    0    0  0.13609871740E+02  0.35573617750E+02 -0.20806551851E+02  0.47787268571E+02  0.19999988724E+02 0.  0.
        -12    1    1    2    0    0 -0.13609871740E+02 -0.35573617750E+02  0.20806551851E+02  0.43400731429E+02  0.00000000000E+00 0.  1.
         11    1    3    3    0    0  0.15396228926E+02  0.32406265029E+02 -0.12888101450E+02  0.38122343022E+02  0.51100000000E-03 0. -1.
        -11    1    3    3    0    0  0.98482293968E-01 -0.97188552398E+00 -0.17004145611E+01  0.19610380350E+01  0.51100000000E-03 0.  1.
        -12    1    3    3    0    0 -0.18848394796E+01  0.41392382448E+01 -0.62180358407E+01  0.77038875139E+01  0.00000000000E+00 0.  1.
</event>
<event>
 7    1  0.1427898E-010  0.4778727E+02  0.7816164E-02  0.1312668E+00
        -11   -1    0    0    0    0  0.00000000000E+00  0.00000000000E+00  0.45593999997E+02  0.45594000000E+02  0.51100000000E-03 0. -1.
         11   -1    0    0    0    0 -0.00000000000E+00 -0.00000000000E+00 -0.45593999997E+02  0.45594000000E+02  0.51100000000E-03 0.  1.
    9900012    2    1    2    0    0 -0.30927210764E+02  0.29986161117E+02 -0.52878091848E+01  0.47787272470E+02  0.20000006500E+02 0.  0.
        -12    1    1    2    0    0  0.30927210764E+02 -0.29986161117E+02  0.52878091848E+01  0.43400727530E+02  0.00000000000E+00 0.  1.
         11    1    3    3    0    0 -0.20808673850E+02  0.26149264871E+02 -0.17044692805E+01  0.33461771867E+02  0.51100000000E-03 0. -1.
        -11    1    3    3    0    0 -0.10952366698E+02  0.39912268080E+01 -0.49923450019E+01  0.12680999038E+02  0.51100000000E-03 0.  1.
        -12    1    3    3    0    0  0.83382978405E+00 -0.15433056283E+00  0.14090050976E+01  0.16445015648E+01  0.00000000000E+00 0.  1.
</event>
<event>
 7    1  0.1427898E-010  0.4778727E+02  0.7816164E-02  0.1312668E+00
        -11   -1    0    0    0    0  0.00000000000E+00  0.00000000000E+00  0.45593999997E+02  0.45594000000E+02  0.51100000000E-03 0. -1.
         11   -1    0    0    0    0 -0.00000000000E+00 -0.00000000000E+00 -0.45593999997E+02  0.45594000000E+02  0.51100000000E-03 0.  1.
    9900012    2    1    2    0    0  0.31965603395E+01 -0.35386072371E+02 -0.24924512965E+02  0.47787268872E+02  0.19999990096E+02 0.  0.
        -12    1    1    2    0    0 -0.31965603395E+01  0.35386072371E+02  0.24924512965E+02  0.43400731128E+02  0.00000000000E+00 0.  1.
         11    1    3    3    0    0 -0.12669186946E+01 -0.17127899763E+01 -0.50954314558E+01  0.55228755611E+01  0.51100000000E-03 0.  1.
        -11    1    3    3    0    0  0.77741350276E+01 -0.33035442193E+02 -0.18370939095E+02  0.38591048442E+02  0.51100000000E-03 0. -1.
         12    1    3    3    0    0 -0.33106559935E+01 -0.63784020172E+00 -0.14581424145E+01  0.36733448696E+01  0.00000000000E+00 0. -1.
</event>
<event>
 7    1  0.1427898E-010  0.4778727E+02  0.7816164E-02  0.1312668E+00
        -11   -1    0    0    0    0  0.00000000000E+00  0.00000000000E+00  0.45593999997E+02  0.45594000000E+02  0.51100000000E-03 0. -1.
         11   -1    0    0    0    0 -0.00000000000E+00 -0.00000000000E+00 -0.45593999997E+02  0.45594000000E+02  0.51100000000E-03 0.  1.
    9900012    2    1    2    0    0 -0.20505275907E+01 -0.14579695126E+02  0.40827087564E+02  0.47787271292E+02  0.20000001130E+02 0.  0.
        -12    1    1    2    0    0  0.20505275907E+01  0.14579695126E+02 -0.40827087564E+02  0.43400728708E+02  0.00000000000E+00 0.  1.
         11    1    3    3    0    0 -0.47118606013E+01 -0.62796426317E+01  0.79191077760E+01  0.11151134926E+02  0.51100000000E-03 0. -1.
        -11    1    3    3    0    0  0.79587514216E+01 -0.60649368800E+01  0.17067533453E+02  0.19784485891E+02  0.51100000000E-03 0.  1.
         12    1    3    3    0    0 -0.52974184111E+01 -0.22351156140E+01  0.15840446336E+02  0.16851650475E+02  0.00000000000E+00 0. -1.
</event>
<event>
 7    1  0.1427898E-010  0.4778727E+02  0.7816164E-02  0.1312668E+00
        -11   -1    0    0    0    0  0.00000000000E+00  0.00000000000E+00  0.45593999997E+02  0.45594000000E+02  0.51100000000E-03 0. -1.
         11   -1    0    0    0    0 -0.00000000000E+00 -0.00000000000E+00 -0.45593999997E+02  0.45594000000E+02  0.51100000000E-03 0.  1.
    9900012    2    1    2    0    0  0.92250772037E+01 -0.13494210310E+02  0.40204825348E+02  0.47787265645E+02  0.19999975383E+02 0.  0.
        -12    1    1    2    0    0 -0.92250772037E+01  0.13494210310E+02 -0.40204825348E+02  0.43400734355E+02  0.00000000000E+00 0.  1.
         11    1    3    3    0    0  0.49805027541E+01 -0.84816914995E+01  0.30991904309E+02  0.32515267665E+02  0.51100000000E-03 0. -1.
        -11    1    3    3    0    0  0.60935829930E+01 -0.70900585012E+01  0.76629182563E+01  0.12088051940E+02  0.51100000000E-03 0.  1.
         12    1    3    3    0    0 -0.18490085434E+01  0.20775396909E+01  0.15500027820E+01  0.31839460399E+01  0.00000000000E+00 0. -1.
</event>
<event>
 7    1  0.1427898E-010  0.4778727E+02  0.7816164E-02  0.1312668E+00
        -11   -1    0    0    0    0  0.00000000000E+00  0.00000000000E+00  0.45593999997E+02  0.45594000000E+02  0.51100000000E-03 0. -1.
         11   -1    0    0    0    0 -0.00000000000E+00 -0.00000000000E+00 -0.45593999997E+02  0.45594000000E+02  0.51100000000E-03 0.  1.
    9900012    2    1    2    0    0 -0.32703700888E+02 -0.21479042709E+02  0.18781433691E+02  0.47787267530E+02  0.19999983977E+02 0.  0.
        -12    1    1    2    0    0  0.32703700888E+02  0.21479042709E+02 -0.18781433691E+02  0.43400732470E+02  0.00000000000E+00 0.  1.
         11    1    3    3    0    0 -0.22705559437E+02 -0.12244717623E+02  0.12051527348E+02  0.28473054818E+02  0.51100000000E-03 0. -1.
        -11    1    3    3    0    0 -0.29586818033E+01 -0.90334103335E+01  0.76637826698E+01  0.12210236089E+02  0.51100000000E-03 0.  1.
         12    1    3    3    0    0 -0.70394596480E+01 -0.20091475267E+00 -0.93387632726E+00  0.71039766235E+01  0.00000000000E+00 0. -1.
</event>
<event>
 7    1  0.1427898E-010  0.4778726E+02  0.7816164E-02  0.1312668E+00
        -11   -1    0    0    0    0  0.00000000000E+00  0.00000000000E+00  0.45593999997E+02  0.45594000000E+02  0.51100000000E-03 0.  1.
         11   -1    0    0    0    0 -0.00000000000E+00 -0.00000000000E+00 -0.45593999997E+02  0.45594000000E+02  0.51100000000E-03 0. -1.
    9900012    2    1    2    0    0  0.26604911031E+02 -0.42683672361E+01 -0.34023282457E+02  0.47787262691E+02  0.19999961911E+02 0.  0.
        -12    1    1    2    0    0 -0.26604911031E+02  0.42683672361E+01  0.34023282457E+02  0.43400737309E+02  0.00000000000E+00 0.  1.
         11    1    3    3    0    0  0.88846455470E+01 -0.41138588694E+01 -0.20455147551E+02  0.22677606199E+02  0.51100000000E-03 0. -1.
        -11    1    3    3    0    0  0.13970512165E+02  0.41877392565E+01 -0.12636057464E+02  0.19297210128E+02  0.51100000000E-03 0.  1.
        -12    1    3    3    0    0  0.37497533189E+01 -0.43422476232E+01 -0.93207744224E+00  0.58124463638E+01  0.00000000000E+00 0.  1.
</event>
<event>
 7    1  0.1427898E-010  0.4778727E+02  0.7816164E-02  0.1312668E+00
        -11   -1    0    0    0    0  0.00000000000E+00  0.00000000000E+00  0.45593999997E+02  0.45594000000E+02  0.51100000000E-03 0. -1.
         11   -1    0    0    0    0 -0.00000000000E+00 -0.00000000000E+00 -0.45593999997E+02  0.45594000000E+02  0.51100000000E-03 0.  1.
    9900012    2    1    2    0    0  0.42777556333E+02  0.53737858859E+01  0.49826147303E+01  0.47787270166E+02  0.19999995996E+02 0.  0.
        -12    1    1    2    0    0 -0.42777556333E+02 -0.53737858859E+01 -0.49826147303E+01  0.43400729834E+02  0.00000000000E+00 0.  1.
         11    1    3    3    0    0  0.21727242316E+02 -0.13082551455E+01  0.33539506676E+01  0.22023477825E+02  0.51100000000E-03 0. -1.
        -11    1    3    3    0    0  0.15634503232E+02  0.61074213465E+00 -0.36487327292E+01  0.16066236275E+02  0.51100000000E-03 0.  1.
         12    1    3    3    0    0  0.54158107852E+01  0.60712988967E+01  0.52773967919E+01  0.96975560660E+01  0.00000000000E+00 0. -1.
</event>
<event>
 7    1  0.1427898E-010  0.4778727E+02  0.7816164E-02  0.1312668E+00
        -11   -1    0    0    0    0  0.00000000000E+00  0.00000000000E+00  0.45593999997E+02  0.45594000000E+02  0.51100000000E-03 0.  1.
         11   -1    0    0    0    0 -0.00000000000E+00 -0.00000000000E+00 -0.45593999997E+02  0.45594000000E+02  0.51100000000E-03 0. -1.
    9900012    2    1    2    0    0 -0.67356894687E+01  0.24597272121E+00 -0.42874157405E+02  0.47787269726E+02  0.19999993987E+02 0.  0.
        -12    1    1    2    0    0  0.67356894687E+01 -0.24597272121E+00  0.42874157405E+02  0.43400730274E+02  0.00000000000E+00 0.  1.
         11    1    3    3    0    0 -0.13294379590E+01  0.21957194616E+01 -0.34221743613E+02  0.34317871808E+02  0.51100000000E-03 0. -1.
        -11    1    3    3    0    0 -0.12598097033E+01 -0.49972766553E+00 -0.89638249372E+01  0.90657049365E+01  0.51100000000E-03 0.  1.
        -12    1    3    3    0    0 -0.41464418065E+01 -0.14500190749E+01  0.31141114580E+00  0.44036929813E+01  0.00000000000E+00 0.  1.
</event>
<event>
 7    1  0.1427898E-010  0.4778726E+02  0.7816164E-02  0.1312668E+00
        -11   -1    0    0    0    0  0.00000000000E+00  0.00000000000E+00  0.45593999997E+02  0.45594000000E+02  0.51100000000E-03 0.  1.
         11   -1    0    0    0    0 -0.00000000000E+00 -0.00000000000E+00 -0.45593999997E+02  0.45594000000E+02  0.51100000000E-03 0. -1.
    9900012    2    1    2    0    0  0.40455719013E+02 -0.11704796846E+02 -0.10486007622E+02  0.47787264685E+02  0.19999971004E+02 0.  0.
        -12    1    1    2    0    0 -0.40455719013E+02  0.11704796846E+02  0.10486007622E+02  0.43400735315E+02  0.00000000000E+00 0.  1.
         11    1    3    3    0    0  0.80286410874E+01 -0.54437217553E+01  0.28661182419E+01  0.10114732735E+02  0.51100000000E-03 0.  1.
        -11    1    3    3    0    0  0.27903988082E+02 -0.83065020830E+01 -0.76300905836E+01  0.30097322312E+02  0.51100000000E-03 0. -1.
        -12    1    3    3    0    0  0.45230898430E+01  0.20454269927E+01 -0.57220352808E+01  0.75752096383E+01  0.00000000000E+00 0.  1.
</event>
<event>
 7    1  0.1427898E-010  0.4778727E+02  0.7816164E-02  0.1312668E+00
        -11   -1    0    0    0    0  0.00000000000E+00  0.00000000000E+00  0.45593999997E+02  0.45594000000E+02  0.51100000000E-03 0.  1.
         11   -1    0    0    0    0 -0.00000000000E+00 -0.00000000000E+00 -0.45593999997E+02  0.45594000000E+02  0.51100000000E-03 0. -1.
    9900012    2    1    2    0    0 -0.33570424889E+02 -0.21127447503E+02 -0.17614790291E+02  0.47787270718E+02  0.19999998512E+02 0.  0.
        -12    1    1    2    0    0  0.33570424889E+02  0.21127447503E+02  0.17614790291E+02  0.43400729282E+02  0.00000000000E+00 0.  1.
         11    1    3    3    0    0 -0.41362419820E+01 -0.91344345620E+01 -0.51906247430E+01  0.11291101717E+02  0.51100000000E-03 0. -1.
        -11    1    3    3    0    0 -0.75365170991E+01  0.13657908704E+01 -0.67859904251E+01  0.10232992768E+02  0.51100000000E-03 0.  1.
        -12    1    3    3    0    0 -0.21897665808E+02 -0.13358803811E+02 -0.56381751226E+01  0.26263176233E+02  0.00000000000E+00 0.  1.
</event>
<event>
 7    1  0.1427898E-010  0.4778728E+02  0.7816164E-02  0.1312668E+00
        -11   -1    0    0    0    0  0.00000000000E+00  0.00000000000E+00  0.45593999997E+02  0.45594000000E+02  0.51100000000E-03 0.  1.
         11   -1    0    0    0    0 -0.00000000000E+00 -0.00000000000E+00 -0.45593999997E+02  0.45594000000E+02  0.51100000000E-03 0. -1.
    9900012    2    1    2    0    0 -0.15217128831E+01 -0.39771904685E+02 -0.17306138238E+02  0.47787280731E+02  0.20000044164E+02 0.  0.
        -12    1    1    2    0    0  0.15217128831E+01  0.39771904685E+02  0.17306138238E+02  0.43400719269E+02  0.00000000000E+00 0.  1.
         11    1    3    3    0    0  0.35121480434E+01 -0.15482165454E+02 -0.65195613944E+01  0.17162089385E+02  0.51100000000E-03 0. -1.
        -11    1    3    3    0    0 -0.11836133949E+01 -0.19805959593E+01  0.32515670636E+01  0.39870276715E+01  0.51100000000E-03 0.  1.
         12    1    3    3    0    0 -0.38502475316E+01 -0.22309143272E+02 -0.14038143907E+02  0.26638163674E+02  0.00000000000E+00 0. -1.
</event>
<event>
 7    1  0.1427898E-010  0.4778727E+02  0.7816164E-02  0.1312668E+00
        -11   -1    0    0    0    0  0.00000000000E+00  0.00000000000E+00  0.45593999997E+02  0.45594000000E+02  0.51100000000E-03 0.  1.
         11   -1    0    0    0    0 -0.00000000000E+00 -0.00000000000E+00 -0.45593999997E+02  0.45594000000E+02  0.51100000000E-03 0. -1.
    9900012    2    1    2    0    0 -0.35492086962E+02  0.24971591875E+02 -0.59536683520E+00  0.47787273055E+02  0.20000009167E+02 0.  0.
        -12    1    1    2    0    0  0.35492086962E+02 -0.24971591875E+02  0.59536683520E+00  0.43400726945E+02  0.00000000000E+00 0.  1.
         11    1    3    3    0    0 -0.59855995985E+01  0.12717859678E+00  0.20847097456E+01  0.63395261600E+01  0.51100000000E-03 0. -1.
        -11    1    3    3    0    0 -0.22310512166E+02  0.12016578378E+02  0.33303768262E+01  0.25558726868E+02  0.51100000000E-03 0.  1.
         12    1    3    3    0    0 -0.71959751970E+01  0.12827834901E+02 -0.60104534070E+01  0.15889020027E+02  0.00000000000E+00 0. -1.
</event>
<event>
 7    1  0.1427898E-010  0.4778725E+02  0.7816164E-02  0.1312668E+00
        -11   -1    0    0    0    0  0.00000000000E+00  0.00000000000E+00  0.45593999997E+02  0.45594000000E+02  0.51100000000E-03 0.  1.
         11   -1    0    0    0    0 -0.00000000000E+00 -0.00000000000E+00 -0.45593999997E+02  0.45594000000E+02  0.51100000000E-03 0. -1.
    9900012    2    1    2    0    0 -0.63908158189E+01  0.41560458264E+02 -0.10747580907E+02  0.47787254462E+02  0.19999924393E+02 0.  0.
        -12    1    1    2    0    0  0.63908158189E+01 -0.41560458264E+02  0.10747580907E+02  0.43400745538E+02  0.00000000000E+00 0.  1.
         11    1    3    3    0    0  0.16807615758E+01  0.10279669426E+02 -0.17592776605E+01  0.10563693536E+02  0.51100000000E-03 0. -1.
        -11    1    3    3    0    0 -0.11289066479E+02  0.15092058251E+02 -0.96592774438E+00  0.18871837772E+02  0.51100000000E-03 0.  1.
        -12    1    3    3    0    0  0.32174890842E+01  0.16188730587E+02 -0.80223755018E+01  0.18351723154E+02  0.00000000000E+00 0.  1.
</event>
<event>
 7    1  0.1427898E-010  0.4778728E+02  0.7816164E-02  0.1312668E+00
        -11   -1    0    0    0    0  0.00000000000E+00  0.00000000000E+00  0.45593999997E+02  0.45594000000E+02  0.51100000000E-03 0.  1.
         11   -1    0    0    0    0 -0.00000000000E+00 -0.00000000000E+00 -0.45593999997E+02  0.45594000000E+02  0.51100000000E-03 0. -1.
    9900012    2    1    2    0    0  0.80736957928E+01  0.11706288883E+02 -0.41004888244E+02  0.47787278542E+02  0.20000034184E+02 0.  0.
        -12    1    1    2    0    0 -0.80736957928E+01 -0.11706288883E+02  0.41004888244E+02  0.43400721458E+02  0.00000000000E+00 0.  1.
         11    1    3    3    0    0  0.73555224303E+01  0.76761900259E+01 -0.11564285914E+02  0.15708606320E+02  0.51100000000E-03 0. -1.
        -11    1    3    3    0    0  0.31983634601E+01 -0.30286490628E+01 -0.17001790750E+02  0.17563118542E+02  0.51100000000E-03 0.  1.
         12    1    3    3    0    0 -0.24801900976E+01  0.70587479201E+01 -0.12438811580E+02  0.14515553680E+02  0.00000000000E+00 0. -1.
</event>
<event>
 7    1  0.1427898E-010  0.4778727E+02  0.7816164E-02  0.1312668E+00
        -11   -1    0    0    0    0  0.00000000000E+00  0.00000000000E+00  0.45593999997E+02  0.45594000000E+02  0.51100000000E-03 0. -1.
         11   -1    0    0    0    0 -0.00000000000E+00 -0.00000000000E+00 -0.45593999997E+02  0.45594000000E+02  0.51100000000E-03 0.  1.
    9900012    2    1    2    0    0  0.19560219714E+02 -0.32783939794E+02  0.20645450589E+02  0.47787268051E+02  0.19999986353E+02 0.  0.
        -12    1    1    2    0    0 -0.19560219714E+02  0.32783939794E+02 -0.20645450589E+02  0.43400731949E+02  0.00000000000E+00 0.  1.
         11    1    3    3    0    0  0.92671695413E+01 -0.71763426852E+01  0.88189140380E+01  0.14668114082E+02  0.51100000000E-03 0. -1.
        -11    1    3    3    0    0  0.11615915760E+02 -0.12506803496E+02  0.31692838343E+01  0.17360702547E+02  0.51100000000E-03 0.  1.
         12    1    3    3    0    0 -0.13228655874E+01 -0.13100793612E+02  0.86572527168E+01  0.15758451423E+02  0.00000000000E+00 0. -1.
</event>
<event>
 7    1  0.1427898E-010  0.4778724E+02  0.7816164E-02  0.1312668E+00
        -11   -1    0    0    0    0  0.00000000000E+00  0.00000000000E+00  0.45593999997E+02  0.45594000000E+02  0.51100000000E-03 0.  1.
         11   -1    0    0    0    0 -0.00000000000E+00 -0.00000000000E+00 -0.45593999997E+02  0.45594000000E+02  0.51100000000E-03 0. -1.
    9900012    2    1    2    0    0  0.15297379350E+02 -0.56298199737E+01 -0.40223387794E+02  0.47787244091E+02  0.19999877106E+02 0.  0.
        -12    1    1    2    0    0 -0.15297379350E+02  0.56298199737E+01  0.40223387794E+02  0.43400755909E+02  0.00000000000E+00 0.  1.
         11    1    3    3    0    0  0.49408065514E+01  0.29958221564E+01 -0.10704433228E+02  0.12164349994E+02  0.51100000000E-03 0. -1.
        -11    1    3    3    0    0  0.48361206422E+01  0.34437837194E+01 -0.13974214846E+02  0.15183095534E+02  0.51100000000E-03 0.  1.
         12    1    3    3    0    0  0.55204521560E+01 -0.12069425850E+02 -0.15544739719E+02  0.20439798563E+02  0.00000000000E+00 0. -1.
</event>
<event>
 7    1  0.1427898E-010  0.4778727E+02  0.7816164E-02  0.1312668E+00
        -11   -1    0    0    0    0  0.00000000000E+00  0.00000000000E+00  0.45593999997E+02  0.45594000000E+02  0.51100000000E-03 0.  1.
         11   -1    0    0    0    0 -0.00000000000E+00 -0.00000000000E+00 -0.45593999997E+02  0.45594000000E+02  0.51100000000E-03 0. -1.
    9900012    2    1    2    0    0 -0.76180343885E+01 -0.31653864279E+02 -0.28698811605E+02  0.47787270061E+02  0.19999995515E+02 0.  0.
        -12    1    1    2    0    0  0.76180343885E+01  0.31653864279E+02  0.28698811605E+02  0.43400729939E+02  0.00000000000E+00 0.  1.
         11    1    3    3    0    0 -0.77785105893E+01 -0.17498531820E+02 -0.14014021836E+02  0.23729657628E+02  0.51100000000E-03 0. -1.
        -11    1    3    3    0    0 -0.32646098357E+01  0.74187938043E+00 -0.88194840395E+00  0.34620652280E+01  0.51100000000E-03 0.  1.
        -12    1    3    3    0    0  0.34250860365E+01 -0.14897211839E+02 -0.13802841364E+02  0.20595547205E+02  0.00000000000E+00 0.  1.
</event>
<event>
 7    1  0.1427898E-010  0.4778727E+02  0.7816164E-02  0.1312668E+00
        -11   -1    0    0    0    0  0.00000000000E+00  0.00000000000E+00  0.45593999997E+02  0.45594000000E+02  0.51100000000E-03 0. -1.
         11   -1    0    0    0    0 -0.00000000000E+00 -0.00000000000E+00 -0.45593999997E+02  0.45594000000E+02  0.51100000000E-03 0.  1.
    9900012    2    1    2    0    0 -0.31134848795E+02  0.10520717610E+02  0.28347113651E+02  0.47787272346E+02  0.20000005935E+02 0.  0.
        -12    1    1    2    0    0  0.31134848795E+02 -0.10520717610E+02 -0.28347113651E+02  0.43400727654E+02  0.00000000000E+00 0.  1.
         11    1    3    3    0    0 -0.16079847493E+02  0.30701384107E+01  0.16307080028E+02  0.23106451578E+02  0.51100000000E-03 0. -1.
        -11    1    3    3    0    0  0.31863898434E-01  0.42858438327E+01  0.74532076153E+01  0.85976611170E+01  0.51100000000E-03 0.  1.
        -12    1    3    3    0    0 -0.15086865201E+02  0.31647353669E+01  0.45868260083E+01  0.16083159651E+02  0.00000000000E+00 0.  1.
</event>
<event>
 7    1  0.1427898E-010  0.4778728E+02  0.7816164E-02  0.1312668E+00
        -11   -1    0    0    0    0  0.00000000000E+00  0.00000000000E+00  0.45593999997E+02  0.45594000000E+02  0.51100000000E-03 0.  1.
         11   -1    0    0    0    0 -0.00000000000E+00 -0.00000000000E+00 -0.45593999997E+02  0.45594000000E+02  0.51100000000E-03 0. -1.
    9900012    2    1    2    0    0  0.17372667856E+02  0.38700869303E+02  0.91682039253E+01  0.47787276084E+02  0.20000022975E+02 0.  0.
        -12    1    1    2    0    0 -0.17372667856E+02 -0.38700869303E+02 -0.91682039253E+01  0.43400723916E+02  0.00000000000E+00 0.  1.
         11    1    3    3    0    0 -0.20227851374E+01  0.83063241425E+01  0.10406017062E+01  0.86121735145E+01  0.51100000000E-03 0. -1.
        -11    1    3    3    0    0  0.90940840452E+01  0.24111595778E+02  0.84051798795E+01  0.27105690632E+02  0.51100000000E-03 0.  1.
        -12    1    3    3    0    0  0.10301368948E+02  0.62829493831E+01 -0.27757766047E+00  0.12069411937E+02  0.00000000000E+00 0.  1.
</event>
<event>
 7    1  0.1427898E-010  0.4778728E+02  0.7816164E-02  0.1312668E+00
        -11   -1    0    0    0    0  0.00000000000E+00  0.00000000000E+00  0.45593999997E+02  0.45594000000E+02  0.51100000000E-03 0.  1.
         11   -1    0    0    0    0 -0.00000000000E+00 -0.00000000000E+00 -0.45593999997E+02  0.45594000000E+02  0.51100000000E-03 0. -1.
    9900012    2    1    2    0    0 -0.42793946454E+02  0.34081601467E+01 -0.63784782657E+01  0.47787281184E+02  0.20000046232E+02 0.  0.
        -12    1    1    2    0    0  0.42793946454E+02 -0.34081601467E+01  0.63784782657E+01  0.43400718816E+02  0.00000000000E+00 0.  1.
         11    1    3    3    0    0 -0.11817307711E+02  0.59681857559E+00 -0.18481150143E+01  0.11975829128E+02  0.51100000000E-03 0. -1.
        -11    1    3    3    0    0  0.38791643196E+00 -0.33458596303E+01  0.65215701933E+00  0.34308256823E+01  0.51100000000E-03 0.  1.
        -12    1    3    3    0    0 -0.31364555176E+02  0.61572012014E+01 -0.51825202707E+01  0.32380626374E+02  0.00000000000E+00 0.  1.
</event>
<event>
 7    1  0.1427898E-010  0.4778727E+02  0.7816164E-02  0.1312668E+00
        -11   -1    0    0    0    0  0.00000000000E+00  0.00000000000E+00  0.45593999997E+02  0.45594000000E+02  0.51100000000E-03 0. -1.
         11   -1    0    0    0    0 -0.00000000000E+00 -0.00000000000E+00 -0.45593999997E+02  0.45594000000E+02  0.51100000000E-03 0.  1.
    9900012    2    1    2    0    0 -0.28849037939E+02 -0.26973368738E+02  0.17994270553E+02  0.47787269778E+02  0.19999994226E+02 0.  0.
        -12    1    1    2    0    0  0.28849037939E+02  0.26973368738E+02 -0.17994270553E+02  0.43400730222E+02  0.00000000000E+00 0.  1.
         11    1    3    3    0    0  0.15739291936E+00 -0.25119761011E+01 -0.60569212740E+00  0.25887563960E+01  0.51100000000E-03 0. -1.
        -11    1    3    3    0    0  0.80969764404E+00 -0.11038093980E+00  0.39100746049E+01  0.39945560333E+01  0.51100000000E-03 0.  1.
         12    1    3    3    0    0 -0.29816128502E+02 -0.24351011697E+02  0.14689888076E+02  0.41203957349E+02  0.00000000000E+00 0. -1.
</event>
<event>
 7    1  0.1427898E-010  0.4778727E+02  0.7816164E-02  0.1312668E+00
        -11   -1    0    0    0    0  0.00000000000E+00  0.00000000000E+00  0.45593999997E+02  0.45594000000E+02  0.51100000000E-03 0.  1.
         11   -1    0    0    0    0 -0.00000000000E+00 -0.00000000000E+00 -0.45593999997E+02  0.45594000000E+02  0.51100000000E-03 0. -1.
    9900012    2    1    2    0    0  0.73667771670E+01 -0.13189683425E+02 -0.40686440972E+02  0.47787266899E+02  0.19999981101E+02 0.  0.
        -12    1    1    2    0    0 -0.73667771670E+01  0.13189683425E+02  0.40686440972E+02  0.43400733101E+02  0.00000000000E+00 0.  1.
         11    1    3    3    0    0  0.47493045802E+01 -0.95717085010E+01 -0.13658750843E+02  0.17341711924E+02  0.51100000000E-03 0. -1.
        -11    1    3    3    0    0 -0.61739110283E-01 -0.83693205304E+01 -0.13834065422E+02  0.16168818888E+02  0.51100000000E-03 0.  1.
        -12    1    3    3    0    0  0.26792116971E+01  0.47513456065E+01 -0.13193624707E+02  0.14276736087E+02  0.00000000000E+00 0.  1.
</event>
<event>
 7    1  0.1427898E-010  0.4778727E+02  0.7816164E-02  0.1312668E+00
        -11   -1    0    0    0    0  0.00000000000E+00  0.00000000000E+00  0.45593999997E+02  0.45594000000E+02  0.51100000000E-03 0.  1.
         11   -1    0    0    0    0 -0.00000000000E+00 -0.00000000000E+00 -0.45593999997E+02  0.45594000000E+02  0.51100000000E-03 0. -1.
    9900012    2    1    2    0    0 -0.19746490188E+02 -0.18258842955E+01 -0.38605250855E+02  0.47787272797E+02  0.20000007991E+02 0.  0.
        -12    1    1    2    0    0  0.19746490188E+02  0.18258842955E+01  0.38605250855E+02  0.43400727203E+02  0.00000000000E+00 0.  1.
         11    1    3    3    0    0 -0.12191952439E+02  0.18831182963E+01 -0.19120882731E+02  0.22755175136E+02  0.51100000000E-03 0. -1.
        -11    1    3    3    0    0 -0.21152740114E+01  0.67053471998E+00  0.16556030677E+01  0.27685777455E+01  0.51100000000E-03 0.  1.
         12    1    3    3    0    0 -0.54392637378E+01 -0.43795373118E+01 -0.21139971191E+02  0.22263519916E+02  0.00000000000E+00 0. -1.
</event>
<event>
 7    1  0.1427898E-010  0.4778727E+02  0.7816164E-02  0.1312668E+00
        -11   -1    0    0    0    0  0.00000000000E+00  0.00000000000E+00  0.45593999997E+02  0.45594000000E+02  0.51100000000E-03 0. -1.
         11   -1    0    0    0    0 -0.00000000000E+00 -0.00000000000E+00 -0.45593999997E+02  0.45594000000E+02  0.51100000000E-03 0.  1.
    9900012    2    1    2    0    0 -0.12202300104E+01  0.21940724445E+02  0.37426445887E+02  0.47787271870E+02  0.20000003763E+02 0.  0.
        -12    1    1    2    0    0  0.12202300104E+01 -0.21940724445E+02 -0.37426445887E+02  0.43400728130E+02  0.00000000000E+00 0.  1.
         11    1    3    3    0    0 -0.86030749508E+00  0.13536409814E+02  0.15106796699E+02  0.20302458629E+02  0.51100000000E-03 0. -1.
        -11    1    3    3    0    0  0.51577376244E+01  0.51602001364E+01  0.18831363848E+02  0.20195301124E+02  0.51100000000E-03 0.  1.
         12    1    3    3    0    0 -0.55176601398E+01  0.32441144949E+01  0.34882853402E+01  0.72895121160E+01  0.00000000000E+00 0. -1.
</event>
<event>
 7    1  0.1427898E-010  0.4778727E+02  0.7816164E-02  0.1312668E+00
        -11   -1    0    0    0    0  0.00000000000E+00  0.00000000000E+00  0.45593999997E+02  0.45594000000E+02  0.51100000000E-03 0.  1.
         11   -1    0    0    0    0 -0.00000000000E+00 -0.00000000000E+00 -0.45593999997E+02  0.45594000000E+02  0.51100000000E-03 0. -1.
    9900012    2    1    2    0    0  0.24936302952E+02  0.22156982089E+02 -0.27764581182E+02  0.47787273873E+02  0.20000012894E+02 0.  0.
        -12    1    1    2    0    0 -0.24936302952E+02 -0.22156982089E+02  0.27764581182E+02  0.43400726127E+02  0.00000000000E+00 0.  1.
         11    1    3    3    0    0  0.27292623863E+01  0.59112818316E+01 -0.45039199647E+01  0.79169073113E+01  0.51100000000E-03 0. -1.
        -11    1    3    3    0    0  0.36537901907E+01  0.10827252000E+02 -0.28850711271E+01  0.11785720356E+02  0.51100000000E-03 0.  1.
         12    1    3    3    0    0  0.18553250375E+02  0.54184482575E+01 -0.20375590090E+02  0.28084646206E+02  0.00000000000E+00 0. -1.
</event>
<event>
 7    1  0.1427898E-010  0.4778727E+02  0.7816164E-02  0.1312668E+00
        -11   -1    0    0    0    0  0.00000000000E+00  0.00000000000E+00  0.45593999997E+02  0.45594000000E+02  0.51100000000E-03 0.  1.
         11   -1    0    0    0    0 -0.00000000000E+00 -0.00000000000E+00 -0.45593999997E+02  0.45594000000E+02  0.51100000000E-03 0. -1.
    9900012    2    1    2    0    0 -0.38065747554E+02 -0.19210187556E+02  0.80988328452E+01  0.47787268022E+02  0.19999986220E+02 0.  0.
        -12    1    1    2    0    0  0.38065747554E+02  0.19210187556E+02 -0.80988328452E+01  0.43400731978E+02  0.00000000000E+00 0.  1.
         11    1    3    3    0    0 -0.34079131718E+02 -0.12985985748E+02  0.20267055517E+01  0.36525752287E+02  0.51100000000E-03 0. -1.
        -11    1    3    3    0    0 -0.97147623578E-01 -0.22513215071E+01 -0.82750538756E+00  0.24005523566E+01  0.51100000000E-03 0.  1.
         12    1    3    3    0    0 -0.38894682120E+01 -0.39728803008E+01  0.68996326811E+01  0.88609633783E+01  0.00000000000E+00 0. -1.
</event>
<event>
 7    1  0.1427898E-010  0.4778727E+02  0.7816164E-02  0.1312668E+00
        -11   -1    0    0    0    0  0.00000000000E+00  0.00000000000E+00  0.45593999997E+02  0.45594000000E+02  0.51100000000E-03 0. -1.
         11   -1    0    0    0    0 -0.00000000000E+00 -0.00000000000E+00 -0.45593999997E+02  0.45594000000E+02  0.51100000000E-03 0.  1.
    9900012    2    1    2    0    0 -0.15491037266E+02 -0.20122908094E+02  0.35195449911E+02  0.47787270050E+02  0.19999995466E+02 0.  0.
        -12    1    1    2    0    0  0.15491037266E+02  0.20122908094E+02 -0.35195449911E+02  0.43400729950E+02  0.00000000000E+00 0.  1.
         11    1    3    3    0    0 -0.81385793817E+01 -0.82961919607E+01  0.88175540882E+01  0.14588095687E+02  0.51100000000E-03 0. -1.
        -11    1    3    3    0    0 -0.42571431162E+00  0.33435762892E+01  0.58427700288E+01  0.67452721922E+01  0.51100000000E-03 0.  1.
        -12    1    3    3    0    0 -0.69267435730E+01 -0.15170292423E+02  0.20535125794E+02  0.26453902171E+02  0.00000000000E+00 0.  1.
</event>
<event>
 7    1  0.1427898E-010  0.4778727E+02  0.7816164E-02  0.1312668E+00
        -11   -1    0    0    0    0  0.00000000000E+00  0.00000000000E+00  0.45593999997E+02  0.45594000000E+02  0.51100000000E-03 0.  1.
         11   -1    0    0    0    0 -0.00000000000E+00 -0.00000000000E+00 -0.45593999997E+02  0.45594000000E+02  0.51100000000E-03 0. -1.
    9900012    2    1    2    0    0 -0.18015764876E+02 -0.10859905412E+02 -0.37962061862E+02  0.47787268780E+02  0.19999989674E+02 0.  0.
        -12    1    1    2    0    0  0.18015764876E+02  0.10859905412E+02  0.37962061862E+02  0.43400731220E+02  0.00000000000E+00 0.  1.
         11    1    3    3    0    0 -0.52119244737E+01  0.35370333017E+00 -0.53913266052E+00  0.52516594570E+01  0.51100000000E-03 0. -1.
        -11    1    3    3    0    0  0.24294661371E-01 -0.10414058446E+01 -0.13539756170E+02  0.13579768546E+02  0.51100000000E-03 0.  1.
         12    1    3    3    0    0 -0.12828135064E+02 -0.10172202897E+02 -0.23883173032E+02  0.28955840776E+02  0.00000000000E+00 0. -1.
</event>
<event>
 7    1  0.1427898E-010  0.4778727E+02  0.7816164E-02  0.1312668E+00
        -11   -1    0    0    0    0  0.00000000000E+00  0.00000000000E+00  0.45593999997E+02  0.45594000000E+02  0.51100000000E-03 0.  1.
         11   -1    0    0    0    0 -0.00000000000E+00 -0.00000000000E+00 -0.45593999997E+02  0.45594000000E+02  0.51100000000E-03 0. -1.
    9900012    2    1    2    0    0 -0.26103149103E+02 -0.14887266129E+02 -0.31314830451E+02  0.47787266227E+02  0.19999978035E+02 0.  0.
        -12    1    1    2    0    0  0.26103149103E+02  0.14887266129E+02  0.31314830451E+02  0.43400733773E+02  0.00000000000E+00 0.  1.
         11    1    3    3    0    0 -0.10256191147E+02 -0.12005020118E+02 -0.18313323704E+02  0.24180318241E+02  0.51100000000E-03 0. -1.
        -11    1    3    3    0    0 -0.16950902621E+02 -0.26099390049E+01 -0.13964601706E+02  0.22116848382E+02  0.51100000000E-03 0.  1.
         12    1    3    3    0    0  0.11039446653E+01 -0.27230700588E+00  0.96309495936E+00  0.14900996041E+01  0.00000000000E+00 0. -1.
</event>
<event>
 7    1  0.1427898E-010  0.4778727E+02  0.7816164E-02  0.1312668E+00
        -11   -1    0    0    0    0  0.00000000000E+00  0.00000000000E+00  0.45593999997E+02  0.45594000000E+02  0.51100000000E-03 0. -1.
         11   -1    0    0    0    0 -0.00000000000E+00 -0.00000000000E+00 -0.45593999997E+02  0.45594000000E+02  0.51100000000E-03 0.  1.
    9900012    2    1    2    0    0 -0.68514909030E+00 -0.43390840940E+02  0.62362266849E+00  0.47787269453E+02  0.19999992746E+02 0.  0.
        -12    1    1    2    0    0  0.68514909030E+00  0.43390840940E+02 -0.62362266849E+00  0.43400730547E+02  0.00000000000E+00 0.  1.
         11    1    3    3    0    0 -0.61948607920E-01 -0.99966471131E+00 -0.22220512922E+01  0.24373508921E+01  0.51100000000E-03 0. -1.
        -11    1    3    3    0    0  0.45112381866E+01 -0.26249908641E+02 -0.42753744154E+01  0.26975689061E+02  0.51100000000E-03 0.  1.
         12    1    3    3    0    0 -0.51344386689E+01 -0.16141267587E+02  0.71210483761E+01  0.18374229501E+02  0.00000000000E+00 0. -1.
</event>
<event>
 7    1  0.1482418E-010  0.4778727E+02  0.7816164E-02  0.1312668E+00
        -11   -1    0    0    0    0  0.00000000000E+00  0.00000000000E+00  0.45593999997E+02  0.45594000000E+02  0.51100000000E-03 0. -1.
         11   -1    0    0    0    0 -0.00000000000E+00 -0.00000000000E+00 -0.45593999997E+02  0.45594000000E+02  0.51100000000E-03 0.  1.
    9900012    2    1    2    0    0 -0.18889002794E+02  0.25211694448E+02  0.29852962257E+02  0.47787270524E+02  0.19999997628E+02 0.  0.
        -12    1    1    2    0    0  0.18889002794E+02 -0.25211694448E+02 -0.29852962257E+02  0.43400729476E+02  0.00000000000E+00 0.  1.
         11    1    3    3    0    0 -0.10713784880E+02  0.10473212879E+02  0.63595192344E+01  0.16276266759E+02  0.51100000000E-03 0. -1.
        -11    1    3    3    0    0 -0.36012140891E+00 -0.22600722458E+01  0.27129436063E+01  0.35493206755E+01  0.51100000000E-03 0.  1.
         12    1    3    3    0    0 -0.78150965050E+01  0.16998553815E+02  0.20780499417E+02  0.27961683089E+02  0.00000000000E+00 0. -1.
</event>
<event>
 7    1  0.1427898E-010  0.4778727E+02  0.7816164E-02  0.1312668E+00
        -11   -1    0    0    0    0  0.00000000000E+00  0.00000000000E+00  0.45593999997E+02  0.45594000000E+02  0.51100000000E-03 0.  1.
         11   -1    0    0    0    0 -0.00000000000E+00 -0.00000000000E+00 -0.45593999997E+02  0.45594000000E+02  0.51100000000E-03 0. -1.
    9900012    2    1    2    0    0 -0.23241071309E+02  0.24942582550E+02 -0.26857835264E+02  0.47787272645E+02  0.20000007298E+02 0.  0.
        -12    1    1    2    0    0  0.23241071309E+02 -0.24942582550E+02  0.26857835264E+02  0.43400727355E+02  0.00000000000E+00 0.  1.
         11    1    3    3    0    0 -0.76613976864E+01  0.72659919325E+01 -0.17246887630E+02  0.20222432753E+02  0.51100000000E-03 0. -1.
        -11    1    3    3    0    0 -0.29307675621E+01  0.62180559256E+00  0.17637138371E+01  0.34765971090E+01  0.51100000000E-03 0.  1.
         12    1    3    3    0    0 -0.12648906060E+02  0.17054785025E+02 -0.11374661471E+02  0.24088242783E+02  0.00000000000E+00 0. -1.
</event>
<event>
 7    1  0.1427898E-010  0.4778727E+02  0.7816164E-02  0.1312668E+00
        -11   -1    0    0    0    0  0.00000000000E+00  0.00000000000E+00  0.45593999997E+02  0.45594000000E+02  0.51100000000E-03 0.  1.
         11   -1    0    0    0    0 -0.00000000000E+00 -0.00000000000E+00 -0.45593999997E+02  0.45594000000E+02  0.51100000000E-03 0. -1.
    9900012    2    1    2    0    0 -0.27863812739E+02  0.17426586797E+02 -0.28346868854E+02  0.47787274642E+02  0.20000016405E+02 0.  0.
        -12    1    1    2    0    0  0.27863812739E+02 -0.17426586797E+02  0.28346868854E+02  0.43400725358E+02  0.00000000000E+00 0.  1.
         11    1    3    3    0    0 -0.10868329687E+01  0.32435339282E+01 -0.95808103519E+01  0.10173182664E+02  0.51100000000E-03 0. -1.
        -11    1    3    3    0    0 -0.11045109807E+02 -0.17182734030E+00 -0.42264389911E+01  0.11827373423E+02  0.51100000000E-03 0.  1.
         12    1    3    3    0    0 -0.15731869963E+02  0.14354880209E+02 -0.14539619511E+02  0.25786718556E+02  0.00000000000E+00 0. -1.
</event>
<event>
 7    1  0.1427898E-010  0.4778729E+02  0.7816164E-02  0.1312668E+00
        -11   -1    0    0    0    0  0.00000000000E+00  0.00000000000E+00  0.45593999997E+02  0.45594000000E+02  0.51100000000E-03 0.  1.
         11   -1    0    0    0    0 -0.00000000000E+00 -0.00000000000E+00 -0.45593999997E+02  0.45594000000E+02  0.51100000000E-03 0. -1.
    9900012    2    1    2    0    0  0.28115053144E+02  0.12595802892E+02 -0.30569772194E+02  0.47787292221E+02  0.20000096552E+02 0.  0.
        -12    1    1    2    0    0 -0.28115053144E+02 -0.12595802892E+02  0.30569772194E+02  0.43400707779E+02  0.00000000000E+00 0.  1.
         11    1    3    3    0    0  0.15526533608E+01  0.28999769338E+01 -0.13187566100E+02  0.13591633403E+02  0.51100000000E-03 0. -1.
        -11    1    3    3    0    0  0.13561840474E+02  0.12638587951E+01 -0.10699418040E+02  0.17320461967E+02  0.51100000000E-03 0.  1.
        -12    1    3    3    0    0  0.13000559309E+02  0.84319671628E+01 -0.66827880545E+01  0.16875196851E+02  0.00000000000E+00 0.  1.
</event>
<event>
 7    1  0.1427898E-010  0.4778727E+02  0.7816164E-02  0.1312668E+00
        -11   -1    0    0    0    0  0.00000000000E+00  0.00000000000E+00  0.45593999997E+02  0.45594000000E+02  0.51100000000E-03 0.  1.
         11   -1    0    0    0    0 -0.00000000000E+00 -0.00000000000E+00 -0.45593999997E+02  0.45594000000E+02  0.51100000000E-03 0. -1.
    9900012    2    1    2    0    0 -0.14274096527E+02 -0.52392118253E+01 -0.40650022062E+02  0.47787268833E+02  0.19999989917E+02 0.  0.
        -12    1    1    2    0    0  0.14274096527E+02  0.52392118253E+01  0.40650022062E+02  0.43400731167E+02  0.00000000000E+00 0.  1.
         11    1    3    3    0    0 -0.12971354826E+01  0.85794413224E+00 -0.35520861446E+00  0.15952435598E+01  0.51100000000E-03 0. -1.
        -11    1    3    3    0    0 -0.19586798461E+01 -0.65340845103E+01 -0.32787259586E+01  0.75684034842E+01  0.51100000000E-03 0.  1.
         12    1    3    3    0    0 -0.11018281198E+02  0.43692855273E+00 -0.37016087489E+02  0.38623621789E+02  0.00000000000E+00 0. -1.
</event>
<event>
 7    1  0.1427898E-010  0.4778727E+02  0.7816164E-02  0.1312668E+00
        -11   -1    0    0    0    0  0.00000000000E+00  0.00000000000E+00  0.45593999997E+02  0.45594000000E+02  0.51100000000E-03 0.  1.
         11   -1    0    0    0    0 -0.00000000000E+00 -0.00000000000E+00 -0.45593999997E+02  0.45594000000E+02  0.51100000000E-03 0. -1.
    9900012    2    1    2    0    0 -0.13844775474E+02  0.72303348848E+01 -0.40492814639E+02  0.47787267427E+02  0.19999983508E+02 0.  0.
        -12    1    1    2    0    0  0.13844775474E+02 -0.72303348848E+01  0.40492814639E+02  0.43400732573E+02  0.00000000000E+00 0.  1.
         11    1    3    3    0    0 -0.16505433049E+01  0.43712329794E+01 -0.30246538869E+01  0.55660131475E+01  0.51100000000E-03 0. -1.
        -11    1    3    3    0    0 -0.90661105988E+00  0.26803532316E+00 -0.25675039240E+02  0.25692439097E+02  0.51100000000E-03 0.  1.
        -12    1    3    3    0    0 -0.11287621109E+02  0.25910665822E+01 -0.11793121512E+02  0.16528815182E+02  0.00000000000E+00 0.  1.
</event>
<event>
 7    1  0.1427898E-010  0.4778726E+02  0.7816164E-02  0.1312668E+00
        -11   -1    0    0    0    0  0.00000000000E+00  0.00000000000E+00  0.45593999997E+02  0.45594000000E+02  0.51100000000E-03 0.  1.
         11   -1    0    0    0    0 -0.00000000000E+00 -0.00000000000E+00 -0.45593999997E+02  0.45594000000E+02  0.51100000000E-03 0. -1.
    9900012    2    1    2    0    0 -0.90531294236E+01 -0.27532295719E+02 -0.32305377470E+02  0.47787264137E+02  0.19999968508E+02 0.  0.
        -12    1    1    2    0    0  0.90531294236E+01  0.27532295719E+02  0.32305377470E+02  0.43400735863E+02  0.00000000000E+00 0.  1.
         11    1    3    3    0    0 -0.13397910111E+02 -0.12170679837E+02 -0.19190771947E+02  0.26380204154E+02  0.51100000000E-03 0. -1.
        -11    1    3    3    0    0  0.77558287903E+00 -0.96670299138E+01 -0.10221452199E+02  0.14090105801E+02  0.51100000000E-03 0.  1.
         12    1    3    3    0    0  0.35691978085E+01 -0.56945859689E+01 -0.28931533238E+01  0.73169541825E+01  0.00000000000E+00 0. -1.
</event>
<event>
 7    1  0.1427898E-010  0.4778727E+02  0.7816164E-02  0.1312668E+00
        -11   -1    0    0    0    0  0.00000000000E+00  0.00000000000E+00  0.45593999997E+02  0.45594000000E+02  0.51100000000E-03 0.  1.
         11   -1    0    0    0    0 -0.00000000000E+00 -0.00000000000E+00 -0.45593999997E+02  0.45594000000E+02  0.51100000000E-03 0. -1.
    9900012    2    1    2    0    0 -0.11113480088E+02  0.13531395763E+02 -0.39711648760E+02  0.47787272377E+02  0.20000006075E+02 0.  0.
        -12    1    1    2    0    0  0.11113480088E+02 -0.13531395763E+02  0.39711648760E+02  0.43400727623E+02  0.00000000000E+00 0.  1.
         11    1    3    3    0    0  0.17513766814E+00  0.76038574820E+01 -0.73962764915E+01  0.10609157743E+02  0.51100000000E-03 0.  1.
        -11    1    3    3    0    0 -0.88715326529E+01 -0.16739859752E+01 -0.99622337327E+01  0.13444419729E+02  0.51100000000E-03 0. -1.
         12    1    3    3    0    0 -0.24170851031E+01  0.76015242557E+01 -0.22353138536E+02  0.23733694905E+02  0.00000000000E+00 0. -1.
</event>
<event>
 7    1  0.1427898E-010  0.4778727E+02  0.7816164E-02  0.1312668E+00
        -11   -1    0    0    0    0  0.00000000000E+00  0.00000000000E+00  0.45593999997E+02  0.45594000000E+02  0.51100000000E-03 0.  1.
         11   -1    0    0    0    0 -0.00000000000E+00 -0.00000000000E+00 -0.45593999997E+02  0.45594000000E+02  0.51100000000E-03 0. -1.
    9900012    2    1    2    0    0  0.26574855128E+02  0.29386738544E+02 -0.17714962297E+02  0.47787271705E+02  0.20000003013E+02 0.  0.
        -12    1    1    2    0    0 -0.26574855128E+02 -0.29386738544E+02  0.17714962297E+02  0.43400728295E+02  0.00000000000E+00 0.  1.
         11    1    3    3    0    0  0.82469068308E+01  0.12877023708E+02 -0.51421946929E+01  0.16132928388E+02  0.51100000000E-03 0. -1.
        -11    1    3    3    0    0  0.88805173274E+01  0.15659098340E+02 -0.31340306233E+01  0.18272741913E+02  0.51100000000E-03 0.  1.
        -12    1    3    3    0    0  0.94474309698E+01  0.85061649628E+00 -0.94387369804E+01  0.13381601404E+02  0.00000000000E+00 0.  1.
</event>
<event>
 7    1  0.1427898E-010  0.4778727E+02  0.7816164E-02  0.1312668E+00
        -11   -1    0    0    0    0  0.00000000000E+00  0.00000000000E+00  0.45593999997E+02  0.45594000000E+02  0.51100000000E-03 0.  1.
         11   -1    0    0    0    0 -0.00000000000E+00 -0.00000000000E+00 -0.45593999997E+02  0.45594000000E+02  0.51100000000E-03 0. -1.
    9900012    2    1    2    0    0 -0.27853236169E+01  0.97821878451E+01 -0.42192109451E+02  0.47787270437E+02  0.19999997231E+02 0.  0.
        -12    1    1    2    0    0  0.27853236169E+01 -0.97821878451E+01  0.42192109451E+02  0.43400729563E+02  0.00000000000E+00 0.  1.
         11    1    3    3    0    0  0.73994242819E+00  0.55787608179E-01 -0.32717761907E+00  0.81097010413E+00  0.51100000000E-03 0. -1.
        -11    1    3    3    0    0  0.19083935247E+01 -0.49489009514E+01 -0.71998900277E+01  0.89427067012E+01  0.51100000000E-03 0.  1.
         12    1    3    3    0    0 -0.54336595698E+01  0.14675301188E+02 -0.34665041804E+02  0.38033593632E+02  0.00000000000E+00 0. -1.
</event>
<event>
 7    1  0.1427898E-010  0.4778726E+02  0.7816164E-02  0.1312668E+00
        -11   -1    0    0    0    0  0.00000000000E+00  0.00000000000E+00  0.45593999997E+02  0.45594000000E+02  0.51100000000E-03 0.  1.
         11   -1    0    0    0    0 -0.00000000000E+00 -0.00000000000E+00 -0.45593999997E+02  0.45594000000E+02  0.51100000000E-03 0. -1.
    9900012    2    1    2    0    0 -0.84549083299E+01 -0.33320958072E+02 -0.26492498150E+02  0.47787260606E+02  0.19999952408E+02 0.  0.
        -12    1    1    2    0    0  0.84549083299E+01  0.33320958072E+02  0.26492498150E+02  0.43400739394E+02  0.00000000000E+00 0.  1.
         11    1    3    3    0    0 -0.49570688819E+01 -0.85537008959E+01  0.52578493727E+00  0.99002414606E+01  0.51100000000E-03 0. -1.
        -11    1    3    3    0    0  0.21557724019E+01 -0.10865806162E+02 -0.80174913732E+01  0.13674548123E+02  0.51100000000E-03 0.  1.
        -12    1    3    3    0    0 -0.56536118499E+01 -0.13901451014E+02 -0.19000791714E+02  0.24212471023E+02  0.00000000000E+00 0.  1.
</event>
<event>
 7    1  0.1427898E-010  0.4778726E+02  0.7816164E-02  0.1312668E+00
        -11   -1    0    0    0    0  0.00000000000E+00  0.00000000000E+00  0.45593999997E+02  0.45594000000E+02  0.51100000000E-03 0.  1.
         11   -1    0    0    0    0 -0.00000000000E+00 -0.00000000000E+00 -0.45593999997E+02  0.45594000000E+02  0.51100000000E-03 0. -1.
    9900012    2    1    2    0    0  0.25310006687E+02  0.14604184163E+02 -0.32089643148E+02  0.47787264627E+02  0.19999970740E+02 0.  0.
        -12    1    1    2    0    0 -0.25310006687E+02 -0.14604184163E+02  0.32089643148E+02  0.43400735373E+02  0.00000000000E+00 0.  1.
         11    1    3    3    0    0  0.79054718439E+01  0.94305815082E+01 -0.15700680675E+02  0.19948526927E+02  0.51100000000E-03 0. -1.
        -11    1    3    3    0    0  0.47568519771E+01  0.46763150865E+01  0.54991601381E+00  0.66931286708E+01  0.51100000000E-03 0.  1.
         12    1    3    3    0    0  0.12647682866E+02  0.49728756813E+00 -0.16938878487E+02  0.21145609029E+02  0.00000000000E+00 0. -1.
</event>
<event>
 7    1  0.1427898E-010  0.4778729E+02  0.7816164E-02  0.1312668E+00
        -11   -1    0    0    0    0  0.00000000000E+00  0.00000000000E+00  0.45593999997E+02  0.45594000000E+02  0.51100000000E-03 0. -1.
         11   -1    0    0    0    0 -0.00000000000E+00 -0.00000000000E+00 -0.45593999997E+02  0.45594000000E+02  0.51100000000E-03 0.  1.
    9900012    2    1    2    0    0  0.28172937997E+02 -0.13375871478E+02  0.30182668186E+02  0.47787287656E+02  0.20000075738E+02 0.  0.
        -12    1    1    2    0    0 -0.28172937997E+02  0.13375871478E+02 -0.30182668186E+02  0.43400712344E+02  0.00000000000E+00 0.  1.
         11    1    3    3    0    0  0.19506517067E+02 -0.78504735596E+01  0.15108907554E+02  0.25892339233E+02  0.51100000000E-03 0. -1.
        -11    1    3    3    0    0  0.39888665585E+01  0.37280869867E+01  0.43767109509E+01  0.69975201330E+01  0.51100000000E-03 0.  1.
        -12    1    3    3    0    0  0.46775543711E+01 -0.92534849053E+01  0.10697049681E+02  0.14897428290E+02  0.00000000000E+00 0.  1.
</event>
<event>
 7    1  0.1427898E-010  0.4778727E+02  0.7816164E-02  0.1312668E+00
        -11   -1    0    0    0    0  0.00000000000E+00  0.00000000000E+00  0.45593999997E+02  0.45594000000E+02  0.51100000000E-03 0.  1.
         11   -1    0    0    0    0 -0.00000000000E+00 -0.00000000000E+00 -0.45593999997E+02  0.45594000000E+02  0.51100000000E-03 0. -1.
    9900012    2    1    2    0    0 -0.64003782034E+01 -0.41005792972E+02 -0.12695819861E+02  0.47787265670E+02  0.19999975496E+02 0.  0.
        -12    1    1    2    0    0  0.64003782034E+01  0.41005792972E+02  0.12695819861E+02  0.43400734330E+02  0.00000000000E+00 0.  1.
         11    1    3    3    0    0 -0.46657580425E+00 -0.18286748571E+02 -0.19022327400E+01  0.18391339156E+02  0.51100000000E-03 0. -1.
        -11    1    3    3    0    0  0.33129935091E+01 -0.49151946715E+01 -0.66542044175E+01  0.89114253260E+01  0.51100000000E-03 0.  1.
         12    1    3    3    0    0 -0.92467959083E+01 -0.17803849729E+02 -0.41393827032E+01  0.20484501188E+02  0.00000000000E+00 0. -1.
</event>
<event>
 7    1  0.1427898E-010  0.4778727E+02  0.7816164E-02  0.1312668E+00
        -11   -1    0    0    0    0  0.00000000000E+00  0.00000000000E+00  0.45593999997E+02  0.45594000000E+02  0.51100000000E-03 0.  1.
         11   -1    0    0    0    0 -0.00000000000E+00 -0.00000000000E+00 -0.45593999997E+02  0.45594000000E+02  0.51100000000E-03 0. -1.
    9900012    2    1    2    0    0  0.26815856182E+02 -0.34044830732E+02  0.23414675306E+01  0.47787272903E+02  0.20000008475E+02 0.  0.
        -12    1    1    2    0    0 -0.26815856182E+02  0.34044830732E+02 -0.23414675306E+01  0.43400727097E+02  0.00000000000E+00 0.  1.
         11    1    3    3    0    0  0.10486487374E+01 -0.76599451538E+01  0.43763785433E+01  0.88840932767E+01  0.51100000000E-03 0. -1.
        -11    1    3    3    0    0  0.15294136753E+02 -0.75269978843E+01  0.12129545037E+01  0.17089106912E+02  0.51100000000E-03 0.  1.
         12    1    3    3    0    0  0.10473070692E+02 -0.18857887694E+02 -0.32478655163E+01  0.21814072715E+02  0.00000000000E+00 0. -1.
</event>
<event>
 7    1  0.1427898E-010  0.4778727E+02  0.7816164E-02  0.1312668E+00
        -11   -1    0    0    0    0  0.00000000000E+00  0.00000000000E+00  0.45593999997E+02  0.45594000000E+02  0.51100000000E-03 0. -1.
         11   -1    0    0    0    0 -0.00000000000E+00 -0.00000000000E+00 -0.45593999997E+02  0.45594000000E+02  0.51100000000E-03 0.  1.
    9900012    2    1    2    0    0  0.29567154439E+02  0.20314096235E+02  0.24428347603E+02  0.47787270812E+02  0.19999998941E+02 0.  0.
        -12    1    1    2    0    0 -0.29567154439E+02 -0.20314096235E+02 -0.24428347603E+02  0.43400729188E+02  0.00000000000E+00 0.  1.
         11    1    3    3    0    0 -0.11662091387E+01  0.31138532711E+01  0.19787556586E+01  0.38693152065E+01  0.51100000000E-03 0. -1.
        -11    1    3    3    0    0  0.28980239858E+01 -0.20556436031E+01  0.52721210888E+00  0.35919585903E+01  0.51100000000E-03 0.  1.
         12    1    3    3    0    0  0.27835339592E+02  0.19255886567E+02  0.21922379836E+02  0.40325997015E+02  0.00000000000E+00 0. -1.
</event>
<event>
 7    1  0.1427898E-010  0.4778727E+02  0.7816164E-02  0.1312668E+00
        -11   -1    0    0    0    0  0.00000000000E+00  0.00000000000E+00  0.45593999997E+02  0.45594000000E+02  0.51100000000E-03 0. -1.
         11   -1    0    0    0    0 -0.00000000000E+00 -0.00000000000E+00 -0.45593999997E+02  0.45594000000E+02  0.51100000000E-03 0.  1.
    9900012    2    1    2    0    0  0.82805024935E+01 -0.38634512524E+02  0.17956355291E+02  0.47787274490E+02  0.20000015708E+02 0.  0.
        -12    1    1    2    0    0 -0.82805024935E+01  0.38634512524E+02 -0.17956355291E+02  0.43400725510E+02  0.00000000000E+00 0.  1.
         11    1    3    3    0    0  0.80214534661E+00 -0.16683149537E+02  0.11547224501E+02  0.20305400996E+02  0.51100000000E-03 0. -1.
        -11    1    3    3    0    0 -0.22929875273E+01 -0.21065651365E+00 -0.10155264312E+01  0.25166370738E+01  0.51100000000E-03 0.  1.
        -12    1    3    3    0    0  0.97713446742E+01 -0.21740706473E+02  0.74246572207E+01  0.24965236420E+02  0.00000000000E+00 0.  1.
</event>
<event>
 7    1  0.1427898E-010  0.4778727E+02  0.7816164E-02  0.1312668E+00
        -11   -1    0    0    0    0  0.00000000000E+00  0.00000000000E+00  0.45593999997E+02  0.45594000000E+02  0.51100000000E-03 0.  1.
         11   -1    0    0    0    0 -0.00000000000E+00 -0.00000000000E+00 -0.45593999997E+02  0.45594000000E+02  0.51100000000E-03 0. -1.
    9900012    2    1    2    0    0  0.37783696356E+02  0.96878418695E+01 -0.19030534178E+02  0.47787271647E+02  0.20000002749E+02 0.  0.
        -12    1    1    2    0    0 -0.37783696356E+02 -0.96878418695E+01  0.19030534178E+02  0.43400728353E+02  0.00000000000E+00 0.  1.
         11    1    3    3    0    0  0.22205847905E+02  0.61925841533E+01 -0.17379322101E+02  0.28870202920E+02  0.51100000000E-03 0. -1.
        -11    1    3    3    0    0  0.10887779938E+02  0.69886736932E+01 -0.18280626681E+01  0.13066259042E+02  0.51100000000E-03 0.  1.
        -12    1    3    3    0    0  0.46900685123E+01 -0.34934159770E+01  0.17685059102E+00  0.58508096850E+01  0.00000000000E+00 0.  1.
</event>
<event>
 7    1  0.1427898E-010  0.4778727E+02  0.7816164E-02  0.1312668E+00
        -11   -1    0    0    0    0  0.00000000000E+00  0.00000000000E+00  0.45593999997E+02  0.45594000000E+02  0.51100000000E-03 0.  1.
         11   -1    0    0    0    0 -0.00000000000E+00 -0.00000000000E+00 -0.45593999997E+02  0.45594000000E+02  0.51100000000E-03 0. -1.
    9900012    2    1    2    0    0  0.37650212199E+01 -0.26237839401E+02 -0.34366027912E+02  0.47787268719E+02  0.19999989399E+02 0.  0.
        -12    1    1    2    0    0 -0.37650212199E+01  0.26237839401E+02  0.34366027912E+02  0.43400731281E+02  0.00000000000E+00 0.  1.
         11    1    3    3    0    0  0.32193984478E+01 -0.58799855176E+01 -0.40569182306E+00  0.67159021858E+01  0.51100000000E-03 0. -1.
        -11    1    3    3    0    0 -0.41008190316E+01 -0.16639515166E+02 -0.25735649183E+02  0.30919473166E+02  0.51100000000E-03 0.  1.
         12    1    3    3    0    0  0.46464418036E+01 -0.37183387173E+01 -0.82246869059E+01  0.10151893368E+02  0.00000000000E+00 0. -1.
</event>
<event>
 7    1  0.1427898E-010  0.4778725E+02  0.7816164E-02  0.1312668E+00
        -11   -1    0    0    0    0  0.00000000000E+00  0.00000000000E+00  0.45593999997E+02  0.45594000000E+02  0.51100000000E-03 0.  1.
         11   -1    0    0    0    0 -0.00000000000E+00 -0.00000000000E+00 -0.45593999997E+02  0.45594000000E+02  0.51100000000E-03 0. -1.
    9900012    2    1    2    0    0 -0.13686977102E+02  0.13850933055E+02 -0.38787156536E+02  0.47787248845E+02  0.19999898783E+02 0.  0.
        -12    1    1    2    0    0  0.13686977102E+02 -0.13850933055E+02  0.38787156536E+02  0.43400751155E+02  0.00000000000E+00 0.  1.
         11    1    3    3    0    0  0.20509772106E+01  0.33059760604E+01 -0.12460468653E+02  0.13053706927E+02  0.51100000000E-03 0.  1.
        -11    1    3    3    0    0 -0.97729991641E+01  0.12595341296E+02 -0.21626174556E+02  0.26867183723E+02  0.51100000000E-03 0. -1.
        -12    1    3    3    0    0 -0.59649551489E+01 -0.20503843010E+01 -0.47005133270E+01  0.78663581947E+01  0.00000000000E+00 0.  1.
</event>
<event>
 7    1  0.1427898E-010  0.4778728E+02  0.7816164E-02  0.1312668E+00
        -11   -1    0    0    0    0  0.00000000000E+00  0.00000000000E+00  0.45593999997E+02  0.45594000000E+02  0.51100000000E-03 0.  1.
         11   -1    0    0    0    0 -0.00000000000E+00 -0.00000000000E+00 -0.45593999997E+02  0.45594000000E+02  0.51100000000E-03 0. -1.
    9900012    2    1    2    0    0  0.11769738100E+02 -0.39880509825E+02  0.12435474770E+02  0.47787276140E+02  0.20000023234E+02 0.  0.
        -12    1    1    2    0    0 -0.11769738100E+02  0.39880509825E+02 -0.12435474770E+02  0.43400723860E+02  0.00000000000E+00 0.  1.
         11    1    3    3    0    0  0.11528451829E+02 -0.23579993783E+02  0.84237091311E-01  0.26247445676E+02  0.51100000000E-03 0. -1.
        -11    1    3    3    0    0  0.30223510775E+01 -0.11547171308E+02  0.68805525552E+01  0.13777292004E+02  0.51100000000E-03 0.  1.
        -12    1    3    3    0    0 -0.27810648070E+01 -0.47533447343E+01  0.54706851232E+01  0.77625384599E+01  0.00000000000E+00 0.  1.
</event>
<event>
 7    1  0.1427898E-010  0.4778727E+02  0.7816164E-02  0.1312668E+00
        -11   -1    0    0    0    0  0.00000000000E+00  0.00000000000E+00  0.45593999997E+02  0.45594000000E+02  0.51100000000E-03 0. -1.
         11   -1    0    0    0    0 -0.00000000000E+00 -0.00000000000E+00 -0.45593999997E+02  0.45594000000E+02  0.51100000000E-03 0.  1.
    9900012    2    1    2    0    0 -0.32165036893E+02  0.28593938661E+02  0.56053872092E+01  0.47787270833E+02  0.19999999035E+02 0.  0.
        -12    1    1    2    0    0  0.32165036893E+02 -0.28593938661E+02 -0.56053872092E+01  0.43400729167E+02  0.00000000000E+00 0.  1.
         11    1    3    3    0    0 -0.85198746596E+01  0.88459139118E+01  0.47048302347E+01  0.13151953655E+02  0.51100000000E-03 0. -1.
        -11    1    3    3    0    0 -0.41450788295E+01 -0.38984216725E+00 -0.44537136578E+01  0.60966565447E+01  0.51100000000E-03 0.  1.
        -12    1    3    3    0    0 -0.19500083404E+02  0.20137866917E+02  0.53542706322E+01  0.28538660633E+02  0.00000000000E+00 0.  1.
</event>
<event>
 7    1  0.1427898E-010  0.4778727E+02  0.7816164E-02  0.1312668E+00
        -11   -1    0    0    0    0  0.00000000000E+00  0.00000000000E+00  0.45593999997E+02  0.45594000000E+02  0.51100000000E-03 0.  1.
         11   -1    0    0    0    0 -0.00000000000E+00 -0.00000000000E+00 -0.45593999997E+02  0.45594000000E+02  0.51100000000E-03 0. -1.
    9900012    2    1    2    0    0 -0.18167121056E+02  0.19263993603E+02 -0.34387169228E+02  0.47787272535E+02  0.20000006794E+02 0.  0.
        -12    1    1    2    0    0  0.18167121056E+02 -0.19263993603E+02  0.34387169228E+02  0.43400727465E+02  0.00000000000E+00 0.  1.
         11    1    3    3    0    0 -0.40881057942E+01  0.19699471203E+01 -0.98393673352E+01  0.10835425717E+02  0.51100000000E-03 0. -1.
        -11    1    3    3    0    0 -0.11828642684E+02  0.16843779220E+02 -0.11247459795E+02  0.23454957647E+02  0.51100000000E-03 0.  1.
        -12    1    3    3    0    0 -0.22503725770E+01  0.45026726315E+00 -0.13300342099E+02  0.13496889171E+02  0.00000000000E+00 0.  1.
</event>
<event>
 7    1  0.1692933E-010  0.4778727E+02  0.7816164E-02  0.1312668E+00
        -11   -1    0    0    0    0  0.00000000000E+00  0.00000000000E+00  0.45593999997E+02  0.45594000000E+02  0.51100000000E-03 0. -1.
         11   -1    0    0    0    0 -0.00000000000E+00 -0.00000000000E+00 -0.45593999997E+02  0.45594000000E+02  0.51100000000E-03 0.  1.
    9900012    2    1    2    0    0 -0.24693318349E+02 -0.32498744168E+02  0.14754486879E+02  0.47787271589E+02  0.20000002481E+02 0.  0.
        -12    1    1    2    0    0  0.24693318349E+02  0.32498744168E+02 -0.14754486879E+02  0.43400728411E+02  0.00000000000E+00 0.  1.
         11    1    3    3    0    0 -0.11512198546E+02 -0.90211240115E+01  0.10270449132E+02  0.17871584133E+02  0.51100000000E-03 0. -1.
        -11    1    3    3    0    0  0.43437787066E+00 -0.49200232349E+00 -0.22672086516E+01  0.23602935732E+01  0.51100000000E-03 0.  1.
         12    1    3    3    0    0 -0.13615497674E+02 -0.22985617833E+02  0.67512463982E+01  0.27555393882E+02  0.00000000000E+00 0. -1.
</event>
<event>
 7    1  0.1427898E-010  0.4778727E+02  0.7816164E-02  0.1312668E+00
        -11   -1    0    0    0    0  0.00000000000E+00  0.00000000000E+00  0.45593999997E+02  0.45594000000E+02  0.51100000000E-03 0. -1.
         11   -1    0    0    0    0 -0.00000000000E+00 -0.00000000000E+00 -0.45593999997E+02  0.45594000000E+02  0.51100000000E-03 0.  1.
    9900012    2    1    2    0    0  0.20404711302E+02 -0.28855396556E+02 -0.25192000501E+02  0.47787273705E+02  0.20000012129E+02 0.  0.
        -12    1    1    2    0    0 -0.20404711302E+02  0.28855396556E+02  0.25192000501E+02  0.43400726295E+02  0.00000000000E+00 0.  1.
         11    1    3    3    0    0  0.93995069325E+01 -0.44015072667E+01 -0.19315288545E+01  0.10557215578E+02  0.51100000000E-03 0. -1.
        -11    1    3    3    0    0  0.11551978616E+02 -0.19320515410E+02 -0.13664052351E+02  0.26333189184E+02  0.51100000000E-03 0.  1.
        -12    1    3    3    0    0 -0.54677424694E+00 -0.51333738790E+01 -0.95964192953E+01  0.10896868943E+02  0.00000000000E+00 0.  1.
</event>
<event>
 7    1  0.1427898E-010  0.4778727E+02  0.7816164E-02  0.1312668E+00
        -11   -1    0    0    0    0  0.00000000000E+00  0.00000000000E+00  0.45593999997E+02  0.45594000000E+02  0.51100000000E-03 0.  1.
         11   -1    0    0    0    0 -0.00000000000E+00 -0.00000000000E+00 -0.45593999997E+02  0.45594000000E+02  0.51100000000E-03 0. -1.
    9900012    2    1    2    0    0  0.98455591145E+01  0.22074207136E+02 -0.36047435339E+02  0.47787271326E+02  0.20000001282E+02 0.  0.
        -12    1    1    2    0    0 -0.98455591145E+01 -0.22074207136E+02  0.36047435339E+02  0.43400728674E+02  0.00000000000E+00 0.  1.
         11    1    3    3    0    0 -0.98378083358E+00  0.48302136033E+01  0.35295690422E+00  0.49420003055E+01  0.51100000000E-03 0. -1.
        -11    1    3    3    0    0 -0.33883570775E-02 -0.12040543720E+01 -0.18197548126E+01  0.21820325962E+01  0.51100000000E-03 0.  1.
         12    1    3    3    0    0  0.10832728305E+02  0.18448047905E+02 -0.34580637430E+02  0.40663238424E+02  0.00000000000E+00 0. -1.
</event>
<event>
 7    1  0.1427898E-010  0.4778724E+02  0.7816164E-02  0.1312668E+00
        -11   -1    0    0    0    0  0.00000000000E+00  0.00000000000E+00  0.45593999997E+02  0.45594000000E+02  0.51100000000E-03 0. -1.
         11   -1    0    0    0    0 -0.00000000000E+00 -0.00000000000E+00 -0.45593999997E+02  0.45594000000E+02  0.51100000000E-03 0.  1.
    9900012    2    1    2    0    0 -0.56817460853E+01 -0.36986966273E+02  0.21984266620E+02  0.47787240888E+02  0.19999862503E+02 0.  0.
        -12    1    1    2    0    0  0.56817460853E+01  0.36986966273E+02 -0.21984266620E+02  0.43400759112E+02  0.00000000000E+00 0.  1.
         11    1    3    3    0    0  0.69140282107E+01 -0.16692892371E+02  0.82809293005E+01  0.19875367472E+02  0.51100000000E-03 0. -1.
        -11    1    3    3    0    0 -0.57783177883E+01 -0.91990587093E+01  0.36485639988E+01  0.11459653447E+02  0.51100000000E-03 0.  1.
        -12    1    3    3    0    0 -0.68174565077E+01 -0.11095015193E+02  0.10054773321E+02  0.16452219969E+02  0.00000000000E+00 0.  1.
</event>
<event>
 7    1  0.1472992E-010  0.4778727E+02  0.7816164E-02  0.1312668E+00
        -11   -1    0    0    0    0  0.00000000000E+00  0.00000000000E+00  0.45593999997E+02  0.45594000000E+02  0.51100000000E-03 0.  1.
         11   -1    0    0    0    0 -0.00000000000E+00 -0.00000000000E+00 -0.45593999997E+02  0.45594000000E+02  0.51100000000E-03 0. -1.
    9900012    2    1    2    0    0  0.42478683091E+02 -0.38690517662E+01 -0.80134533941E+01  0.47787268278E+02  0.19999987385E+02 0.  0.
        -12    1    1    2    0    0 -0.42478683091E+02  0.38690517662E+01  0.80134533941E+01  0.43400731722E+02  0.00000000000E+00 0.  1.
         11    1    3    3    0    0  0.26928466503E+02  0.85671814293E+00 -0.10202682814E+02  0.28809217466E+02  0.51100000000E-03 0. -1.
        -11    1    3    3    0    0 -0.13118355715E+01  0.18753212530E-01 -0.82324386321E-01  0.13145500429E+01  0.51100000000E-03 0.  1.
        -12    1    3    3    0    0  0.16862052160E+02 -0.47445231216E+01  0.22715538059E+01  0.17663500768E+02  0.00000000000E+00 0.  1.
</event>
<event>
 7    1  0.2094154E-010  0.4778726E+02  0.7816164E-02  0.1312668E+00
        -11   -1    0    0    0    0  0.00000000000E+00  0.00000000000E+00  0.45593999997E+02  0.45594000000E+02  0.51100000000E-03 0.  1.
         11   -1    0    0    0    0 -0.00000000000E+00 -0.00000000000E+00 -0.45593999997E+02  0.45594000000E+02  0.51100000000E-03 0. -1.
    9900012    2    1    2    0    0 -0.81847497759E+00  0.43122346503E+02 -0.48391376441E+01  0.47787263574E+02  0.19999965937E+02 0.  0.
        -12    1    1    2    0    0  0.81847497759E+00 -0.43122346503E+02  0.48391376441E+01  0.43400736426E+02  0.00000000000E+00 0.  1.
         11    1    3    3    0    0  0.21650477067E+01  0.26206855912E+02 -0.10551822183E+02  0.28334213948E+02  0.51100000000E-03 0. -1.
        -11    1    3    3    0    0  0.17490826699E+01  0.23909023340E+01  0.24220388340E+01  0.38264835726E+01  0.51100000000E-03 0.  1.
         12    1    3    3    0    0 -0.47326053542E+01  0.14524588257E+02  0.32906457049E+01  0.15626566053E+02  0.00000000000E+00 0. -1.
</event>
<event>
 7    1  0.1427898E-010  0.4778727E+02  0.7816164E-02  0.1312668E+00
        -11   -1    0    0    0    0  0.00000000000E+00  0.00000000000E+00  0.45593999997E+02  0.45594000000E+02  0.51100000000E-03 0.  1.
         11   -1    0    0    0    0 -0.00000000000E+00 -0.00000000000E+00 -0.45593999997E+02  0.45594000000E+02  0.51100000000E-03 0. -1.
    9900012    2    1    2    0    0 -0.60041892178E+01 -0.15995916111E+01 -0.42953626317E+02  0.47787274254E+02  0.20000014633E+02 0.  0.
        -12    1    1    2    0    0  0.60041892178E+01  0.15995916111E+01  0.42953626317E+02  0.43400725746E+02  0.00000000000E+00 0.  1.
         11    1    3    3    0    0 -0.43263764763E+00 -0.31945908233E+01 -0.62213468570E+00  0.32832358567E+01  0.51100000000E-03 0. -1.
        -11    1    3    3    0    0 -0.65222648721E+01  0.48739439094E+01 -0.16004321635E+02  0.17956435602E+02  0.51100000000E-03 0.  1.
         12    1    3    3    0    0  0.95071330190E+00 -0.32789446972E+01 -0.26327169997E+02  0.26547602795E+02  0.00000000000E+00 0. -1.
</event>
<event>
 7    1  0.1427898E-010  0.4778727E+02  0.7816164E-02  0.1312668E+00
        -11   -1    0    0    0    0  0.00000000000E+00  0.00000000000E+00  0.45593999997E+02  0.45594000000E+02  0.51100000000E-03 0.  1.
         11   -1    0    0    0    0 -0.00000000000E+00 -0.00000000000E+00 -0.45593999997E+02  0.45594000000E+02  0.51100000000E-03 0. -1.
    9900012    2    1    2    0    0  0.37141056792E+02  0.11321031334E+02 -0.19390709894E+02  0.47787268667E+02  0.19999989160E+02 0.  0.
        -12    1    1    2    0    0 -0.37141056792E+02 -0.11321031334E+02  0.19390709894E+02  0.43400731333E+02  0.00000000000E+00 0.  1.
         11    1    3    3    0    0  0.10206551280E+02  0.78159695508E+01 -0.45379767189E+01  0.13632912455E+02  0.51100000000E-03 0.  1.
        -11    1    3    3    0    0  0.10437526703E+02 -0.17177474729E+01 -0.12987456634E+02  0.16750123885E+02  0.51100000000E-03 0. -1.
         12    1    3    3    0    0  0.16496978808E+02  0.52228092557E+01 -0.18652765410E+01  0.17404232327E+02  0.00000000000E+00 0. -1.
</event>
<event>
 7    1  0.1427898E-010  0.4778727E+02  0.7816164E-02  0.1312668E+00
        -11   -1    0    0    0    0  0.00000000000E+00  0.00000000000E+00  0.45593999997E+02  0.45594000000E+02  0.51100000000E-03 0.  1.
         11   -1    0    0    0    0 -0.00000000000E+00 -0.00000000000E+00 -0.45593999997E+02  0.45594000000E+02  0.51100000000E-03 0. -1.
    9900012    2    1    2    0    0  0.12493937435E+02 -0.16879953774E+02 -0.37981465548E+02  0.47787273771E+02  0.20000012432E+02 0.  0.
        -12    1    1    2    0    0 -0.12493937435E+02  0.16879953774E+02  0.37981465548E+02  0.43400726229E+02  0.00000000000E+00 0.  1.
         11    1    3    3    0    0  0.40051298416E+01 -0.11239241975E+02 -0.23566644624E+02  0.26414926923E+02  0.51100000000E-03 0. -1.
        -11    1    3    3    0    0  0.89097643385E+01 -0.84184520610E+01 -0.87861045143E+01  0.15081441193E+02  0.51100000000E-03 0.  1.
         12    1    3    3    0    0 -0.42095674512E+00  0.27777402624E+01 -0.56287164092E+01  0.62909056551E+01  0.00000000000E+00 0. -1.
</event>
<event>
 7    1  0.1427898E-010  0.4778728E+02  0.7816164E-02  0.1312668E+00
        -11   -1    0    0    0    0  0.00000000000E+00  0.00000000000E+00  0.45593999997E+02  0.45594000000E+02  0.51100000000E-03 0.  1.
         11   -1    0    0    0    0 -0.00000000000E+00 -0.00000000000E+00 -0.45593999997E+02  0.45594000000E+02  0.51100000000E-03 0. -1.
    9900012    2    1    2    0    0  0.55449272457E+01 -0.41911679247E+02  0.98126303707E+01  0.47787276616E+02  0.20000025402E+02 0.  0.
        -12    1    1    2    0    0 -0.55449272457E+01  0.41911679247E+02 -0.98126303707E+01  0.43400723384E+02  0.00000000000E+00 0.  1.
         11    1    3    3    0    0  0.76625015053E+00 -0.34752505709E+02  0.13755956195E+02  0.37383821680E+02  0.51100000000E-03 0. -1.
        -11    1    3    3    0    0  0.14772302095E+01 -0.19820749695E+01  0.84977734242E+00  0.26139915971E+01  0.51100000000E-03 0.  1.
        -12    1    3    3    0    0  0.33014468856E+01 -0.51770985690E+01 -0.47931031667E+01  0.77894633383E+01  0.00000000000E+00 0.  1.
</event>
<event>
 7    1  0.1427898E-010  0.4778727E+02  0.7816164E-02  0.1312668E+00
        -11   -1    0    0    0    0  0.00000000000E+00  0.00000000000E+00  0.45593999997E+02  0.45594000000E+02  0.51100000000E-03 0. -1.
         11   -1    0    0    0    0 -0.00000000000E+00 -0.00000000000E+00 -0.45593999997E+02  0.45594000000E+02  0.51100000000E-03 0.  1.
    9900012    2    1    2    0    0 -0.39903568447E+01 -0.24912304878E+02  0.35313980144E+02  0.47787273328E+02  0.20000010411E+02 0.  0.
        -12    1    1    2    0    0  0.39903568447E+01  0.24912304878E+02 -0.35313980144E+02  0.43400726672E+02  0.00000000000E+00 0.  1.
         11    1    3    3    0    0 -0.41837656063E+01 -0.11095677874E+02  0.11878795207E+02  0.16784628026E+02  0.51100000000E-03 0. -1.
        -11    1    3    3    0    0 -0.16064535142E+01 -0.19704544930E+00  0.14554447049E+02  0.14644160917E+02  0.51100000000E-03 0.  1.
        -12    1    3    3    0    0  0.17998622758E+01 -0.13619581555E+02  0.88807378879E+01  0.16358484385E+02  0.00000000000E+00 0.  1.
</event>
<event>
 7    1  0.1427898E-010  0.4778727E+02  0.7816164E-02  0.1312668E+00
        -11   -1    0    0    0    0  0.00000000000E+00  0.00000000000E+00  0.45593999997E+02  0.45594000000E+02  0.51100000000E-03 0.  1.
         11   -1    0    0    0    0 -0.00000000000E+00 -0.00000000000E+00 -0.45593999997E+02  0.45594000000E+02  0.51100000000E-03 0. -1.
    9900012    2    1    2    0    0  0.76261868983E+01  0.70945572135E+01 -0.42132313323E+02  0.47787270805E+02  0.19999998910E+02 0.  0.
        -12    1    1    2    0    0 -0.76261868983E+01 -0.70945572135E+01  0.42132313323E+02  0.43400729195E+02  0.00000000000E+00 0.  1.
         11    1    3    3    0    0  0.91628737889E+00  0.16089287611E+00  0.14087128221E+01  0.16881768730E+01  0.51100000000E-03 0. -1.
        -11    1    3    3    0    0 -0.26541298590E+01  0.11314156636E+01 -0.18751060878E+02  0.18971736637E+02  0.51100000000E-03 0.  1.
         12    1    3    3    0    0  0.93640293784E+01  0.58022486738E+01 -0.24789965268E+02  0.27127357295E+02  0.00000000000E+00 0. -1.
</event>
<event>
 7    1  0.1427898E-010  0.4778726E+02  0.7816164E-02  0.1312668E+00
        -11   -1    0    0    0    0  0.00000000000E+00  0.00000000000E+00  0.45593999997E+02  0.45594000000E+02  0.51100000000E-03 0.  1.
         11   -1    0    0    0    0 -0.00000000000E+00 -0.00000000000E+00 -0.45593999997E+02  0.45594000000E+02  0.51100000000E-03 0. -1.
    9900012    2    1    2    0    0 -0.26316981829E+02  0.23962284047E+02 -0.24836452713E+02  0.47787262993E+02  0.19999963292E+02 0.  0.
        -12    1    1    2    0    0  0.26316981829E+02 -0.23962284047E+02  0.24836452713E+02  0.43400737007E+02  0.00000000000E+00 0.  1.
         11    1    3    3    0    0 -0.18385116881E+01  0.84427491265E+01 -0.23524301770E+01  0.89551139601E+01  0.51100000000E-03 0. -1.
        -11    1    3    3    0    0 -0.64620539657E+01  0.34494632645E+01 -0.13499393371E+02  0.15358729112E+02  0.51100000000E-03 0.  1.
         12    1    3    3    0    0 -0.18016416175E+02  0.12070071656E+02 -0.89846291650E+01  0.23473419922E+02  0.00000000000E+00 0. -1.
</event>
<event>
 7    1  0.1427898E-010  0.4778728E+02  0.7816164E-02  0.1312668E+00
        -11   -1    0    0    0    0  0.00000000000E+00  0.00000000000E+00  0.45593999997E+02  0.45594000000E+02  0.51100000000E-03 0. -1.
         11   -1    0    0    0    0 -0.00000000000E+00 -0.00000000000E+00 -0.45593999997E+02  0.45594000000E+02  0.51100000000E-03 0.  1.
    9900012    2    1    2    0    0  0.41063319202E+02 -0.95946804268E+01 -0.10264919762E+02  0.47787278184E+02  0.20000032553E+02 0.  0.
        -12    1    1    2    0    0 -0.41063319202E+02  0.95946804268E+01  0.10264919762E+02  0.43400721816E+02  0.00000000000E+00 0.  1.
         11    1    3    3    0    0  0.13383468929E+02  0.14442873207E+01 -0.83952052824E+01  0.15864510028E+02  0.51100000000E-03 0. -1.
        -11    1    3    3    0    0  0.56792556788E+01  0.19998863051E+01 -0.20115386893E+01  0.63482106501E+01  0.51100000000E-03 0.  1.
         12    1    3    3    0    0  0.22000594595E+02 -0.13038854053E+02  0.14182420940E+00  0.25574557506E+02  0.00000000000E+00 0. -1.
</event>
<event>
 7    1  0.1427898E-010  0.4778726E+02  0.7816164E-02  0.1312668E+00
        -11   -1    0    0    0    0  0.00000000000E+00  0.00000000000E+00  0.45593999997E+02  0.45594000000E+02  0.51100000000E-03 0.  1.
         11   -1    0    0    0    0 -0.00000000000E+00 -0.00000000000E+00 -0.45593999997E+02  0.45594000000E+02  0.51100000000E-03 0. -1.
    9900012    2    1    2    0    0 -0.83279886167E+01 -0.21894632383E+02 -0.36536199825E+02  0.47787260154E+02  0.19999950344E+02 0.  0.
        -12    1    1    2    0    0  0.83279886167E+01  0.21894632383E+02  0.36536199825E+02  0.43400739846E+02  0.00000000000E+00 0.  1.
         11    1    3    3    0    0 -0.51635884494E+01 -0.14385518029E+02 -0.18387022596E+02  0.23910005747E+02  0.51100000000E-03 0.  1.
        -11    1    3    3    0    0  0.37376192149E+01 -0.53590481727E+01 -0.32073228658E+01  0.72784692718E+01  0.51100000000E-03 0. -1.
         12    1    3    3    0    0 -0.69020193822E+01 -0.21500661813E+01 -0.14941854363E+02  0.16598785134E+02  0.00000000000E+00 0. -1.
</event>
<event>
 7    1  0.1427898E-010  0.4778727E+02  0.7816164E-02  0.1312668E+00
        -11   -1    0    0    0    0  0.00000000000E+00  0.00000000000E+00  0.45593999997E+02  0.45594000000E+02  0.51100000000E-03 0.  1.
         11   -1    0    0    0    0 -0.00000000000E+00 -0.00000000000E+00 -0.45593999997E+02  0.45594000000E+02  0.51100000000E-03 0. -1.
    9900012    2    1    2    0    0 -0.36960876697E+01  0.41027116202E+02 -0.13665210595E+02  0.47787270646E+02  0.19999998182E+02 0.  0.
        -12    1    1    2    0    0  0.36960876697E+01 -0.41027116202E+02  0.13665210595E+02  0.43400729354E+02  0.00000000000E+00 0.  1.
         11    1    3    3    0    0  0.11380672730E+01  0.29512051783E+01 -0.71584543108E+01  0.78261278742E+01  0.51100000000E-03 0. -1.
        -11    1    3    3    0    0  0.10726362668E+01  0.18061668657E+01 -0.20657203536E+01  0.29461819611E+01  0.51100000000E-03 0.  1.
        -12    1    3    3    0    0 -0.59067912095E+01  0.36269744158E+02 -0.44410359308E+01  0.37014960810E+02  0.00000000000E+00 0.  1.
</event>
<event>
 7    1  0.1427898E-010  0.4778727E+02  0.7816164E-02  0.1312668E+00
        -11   -1    0    0    0    0  0.00000000000E+00  0.00000000000E+00  0.45593999997E+02  0.45594000000E+02  0.51100000000E-03 0.  1.
         11   -1    0    0    0    0 -0.00000000000E+00 -0.00000000000E+00 -0.45593999997E+02  0.45594000000E+02  0.51100000000E-03 0. -1.
    9900012    2    1    2    0    0 -0.96104204118E+01 -0.29150386053E+02 -0.30684165476E+02  0.47787271913E+02  0.20000003961E+02 0.  0.
        -12    1    1    2    0    0  0.96104204118E+01  0.29150386053E+02  0.30684165476E+02  0.43400728087E+02  0.00000000000E+00 0.  1.
         11    1    3    3    0    0 -0.11280787702E+02 -0.27644673336E+02 -0.21872716178E+02  0.37012158115E+02  0.51100000000E-03 0. -1.
        -11    1    3    3    0    0 -0.14716657182E+01  0.71658034386E+00 -0.66768718806E+00  0.17677934884E+01  0.51100000000E-03 0.  1.
         12    1    3    3    0    0  0.31420330082E+01 -0.22222930605E+01 -0.81437621094E+01  0.90073203099E+01  0.00000000000E+00 0. -1.
</event>
<event>
 7    1  0.1427898E-010  0.4778727E+02  0.7816164E-02  0.1312668E+00
        -11   -1    0    0    0    0  0.00000000000E+00  0.00000000000E+00  0.45593999997E+02  0.45594000000E+02  0.51100000000E-03 0.  1.
         11   -1    0    0    0    0 -0.00000000000E+00 -0.00000000000E+00 -0.45593999997E+02  0.45594000000E+02  0.51100000000E-03 0. -1.
    9900012    2    1    2    0    0  0.30639296332E+02  0.11809261334E+02 -0.28379545071E+02  0.47787266004E+02  0.19999977021E+02 0.  0.
        -12    1    1    2    0    0 -0.30639296332E+02 -0.11809261334E+02  0.28379545071E+02  0.43400733996E+02  0.00000000000E+00 0.  1.
         11    1    3    3    0    0  0.15682928581E+01 -0.23273693117E+01 -0.38313108586E+01  0.47492245218E+01  0.51100000000E-03 0. -1.
        -11    1    3    3    0    0  0.25761958045E+02  0.15161397392E+02 -0.16200389464E+02  0.33999986356E+02  0.51100000000E-03 0.  1.
        -12    1    3    3    0    0  0.33090454285E+01 -0.10247667463E+01 -0.83478447481E+01  0.90380551266E+01  0.00000000000E+00 0.  1.
</event>
<event>
 7    1  0.1427898E-010  0.4778728E+02  0.7816164E-02  0.1312668E+00
        -11   -1    0    0    0    0  0.00000000000E+00  0.00000000000E+00  0.45593999997E+02  0.45594000000E+02  0.51100000000E-03 0. -1.
         11   -1    0    0    0    0 -0.00000000000E+00 -0.00000000000E+00 -0.45593999997E+02  0.45594000000E+02  0.51100000000E-03 0.  1.
    9900012    2    1    2    0    0 -0.14801625728E+02 -0.44644853352E+01  0.40553704321E+02  0.47787277798E+02  0.20000030793E+02 0.  0.
        -12    1    1    2    0    0  0.14801625728E+02  0.44644853352E+01 -0.40553704321E+02  0.43400722202E+02  0.00000000000E+00 0.  1.
         11    1    3    3    0    0 -0.17725810812E+02 -0.46119300946E+01  0.25524306087E+02  0.31415990668E+02  0.51100000000E-03 0. -1.
        -11    1    3    3    0    0  0.27879042752E+01  0.52867920779E+00  0.23470159925E+01  0.36824443353E+01  0.51100000000E-03 0.  1.
        -12    1    3    3    0    0  0.13628080915E+00 -0.38123444845E+00  0.12682382241E+02  0.12688842795E+02  0.00000000000E+00 0.  1.
</event>
<event>
 7    1  0.1427898E-010  0.4778728E+02  0.7816164E-02  0.1312668E+00
        -11   -1    0    0    0    0  0.00000000000E+00  0.00000000000E+00  0.45593999997E+02  0.45594000000E+02  0.51100000000E-03 0. -1.
         11   -1    0    0    0    0 -0.00000000000E+00 -0.00000000000E+00 -0.45593999997E+02  0.45594000000E+02  0.51100000000E-03 0.  1.
    9900012    2    1    2    0    0  0.18422272687E+02 -0.35262693132E+02  0.17343140921E+02  0.47787283475E+02  0.20000056676E+02 0.  0.
        -12    1    1    2    0    0 -0.18422272687E+02  0.35262693132E+02 -0.17343140921E+02  0.43400716525E+02  0.00000000000E+00 0.  1.
         11    1    3    3    0    0  0.11219050091E+02 -0.13017112224E+02 -0.12949677244E+01  0.17233375678E+02  0.51100000000E-03 0. -1.
        -11    1    3    3    0    0 -0.83322790249E+00 -0.62758672912E+01  0.50488775316E+01  0.80976504978E+01  0.51100000000E-03 0.  1.
        -12    1    3    3    0    0  0.80364504982E+01 -0.15969713617E+02  0.13589231114E+02  0.22456257299E+02  0.00000000000E+00 0.  1.
</event>
<event>
 7    1  0.1427898E-010  0.4778728E+02  0.7816164E-02  0.1312668E+00
        -11   -1    0    0    0    0  0.00000000000E+00  0.00000000000E+00  0.45593999997E+02  0.45594000000E+02  0.51100000000E-03 0.  1.
         11   -1    0    0    0    0 -0.00000000000E+00 -0.00000000000E+00 -0.45593999997E+02  0.45594000000E+02  0.51100000000E-03 0. -1.
    9900012    2    1    2    0    0 -0.31663973610E+02 -0.65969102903E+01 -0.28939531174E+02  0.47787275182E+02  0.20000018865E+02 0.  0.
        -12    1    1    2    0    0  0.31663973610E+02  0.65969102903E+01  0.28939531174E+02  0.43400724818E+02  0.00000000000E+00 0.  1.
         11    1    3    3    0    0 -0.50139072752E+01 -0.79997942429E+01 -0.23886442170E+01  0.97386649778E+01  0.51100000000E-03 0. -1.
        -11    1    3    3    0    0 -0.90577172342E+01  0.25937713798E+01 -0.71168773142E+01  0.11807617644E+02  0.51100000000E-03 0.  1.
         12    1    3    3    0    0 -0.17592349100E+02 -0.11908874271E+01 -0.19434009643E+02  0.26240992560E+02  0.00000000000E+00 0. -1.
</event>
<event>
 7    1  0.1427898E-010  0.4778727E+02  0.7816164E-02  0.1312668E+00
        -11   -1    0    0    0    0  0.00000000000E+00  0.00000000000E+00  0.45593999997E+02  0.45594000000E+02  0.51100000000E-03 0.  1.
         11   -1    0    0    0    0 -0.00000000000E+00 -0.00000000000E+00 -0.45593999997E+02  0.45594000000E+02  0.51100000000E-03 0. -1.
    9900012    2    1    2    0    0  0.29339216544E+02 -0.31520662377E+02 -0.54112518289E+01  0.47787269241E+02  0.19999991776E+02 0.  0.
        -12    1    1    2    0    0 -0.29339216544E+02  0.31520662377E+02  0.54112518289E+01  0.43400730759E+02  0.00000000000E+00 0.  1.
         11    1    3    3    0    0  0.10390146850E+02 -0.20540166345E+02 -0.94597710242E+01  0.24886559689E+02  0.51100000000E-03 0. -1.
        -11    1    3    3    0    0  0.57665337529E+00  0.43443666467E+00 -0.38949579034E+00  0.82034843979E+00  0.51100000000E-03 0.  1.
         12    1    3    3    0    0  0.18372416318E+02 -0.11414932697E+02  0.44380149857E+01  0.22080361113E+02  0.00000000000E+00 0. -1.
</event>
<event>
 7    1  0.1427898E-010  0.4778727E+02  0.7816164E-02  0.1312668E+00
        -11   -1    0    0    0    0  0.00000000000E+00  0.00000000000E+00  0.45593999997E+02  0.45594000000E+02  0.51100000000E-03 0.  1.
         11   -1    0    0    0    0 -0.00000000000E+00 -0.00000000000E+00 -0.45593999997E+02  0.45594000000E+02  0.51100000000E-03 0. -1.
    9900012    2    1    2    0    0 -0.29390985401E+01  0.97490770946E+01 -0.42189339865E+02  0.47787271865E+02  0.20000003741E+02 0.  0.
        -12    1    1    2    0    0  0.29390985401E+01 -0.97490770946E+01  0.42189339865E+02  0.43400728135E+02  0.00000000000E+00 0.  1.
         11    1    3    3    0    0  0.35136804970E+01  0.88865849142E+01 -0.17066815178E+02  0.19559998023E+02  0.51100000000E-03 0. -1.
        -11    1    3    3    0    0  0.14068444036E+01 -0.29616202310E+01 -0.12151972093E+02  0.12586533739E+02  0.51100000000E-03 0.  1.
         12    1    3    3    0    0 -0.78596234407E+01  0.38241124114E+01 -0.12970552594E+02  0.15640740103E+02  0.00000000000E+00 0. -1.
</event>
<event>
 7    1  0.1427898E-010  0.4778728E+02  0.7816164E-02  0.1312668E+00
        -11   -1    0    0    0    0  0.00000000000E+00  0.00000000000E+00  0.45593999997E+02  0.45594000000E+02  0.51100000000E-03 0.  1.
         11   -1    0    0    0    0 -0.00000000000E+00 -0.00000000000E+00 -0.45593999997E+02  0.45594000000E+02  0.51100000000E-03 0. -1.
    9900012    2    1    2    0    0  0.28551163300E+02 -0.11943577114E+02 -0.30427038860E+02  0.47787278188E+02  0.20000032569E+02 0.  0.
        -12    1    1    2    0    0 -0.28551163300E+02  0.11943577114E+02  0.30427038860E+02  0.43400721812E+02  0.00000000000E+00 0.  1.
         11    1    3    3    0    0  0.35081528343E+00 -0.30649099706E+01 -0.39692787301E+01  0.50271182987E+01  0.51100000000E-03 0. -1.
        -11    1    3    3    0    0  0.26947010199E+02 -0.31741964481E+01 -0.24617492613E+02  0.36636564039E+02  0.51100000000E-03 0.  1.
        -12    1    3    3    0    0  0.12533378169E+01 -0.57044706956E+01 -0.18402675170E+01  0.61235958500E+01  0.00000000000E+00 0.  1.
</event>
<event>
 7    1  0.1427898E-010  0.4778727E+02  0.7816164E-02  0.1312668E+00
        -11   -1    0    0    0    0  0.00000000000E+00  0.00000000000E+00  0.45593999997E+02  0.45594000000E+02  0.51100000000E-03 0. -1.
         11   -1    0    0    0    0 -0.00000000000E+00 -0.00000000000E+00 -0.45593999997E+02  0.45594000000E+02  0.51100000000E-03 0.  1.
    9900012    2    1    2    0    0  0.34996456011E+02  0.17956587629E+02  0.18342088515E+02  0.47787272083E+02  0.20000004737E+02 0.  0.
        -12    1    1    2    0    0 -0.34996456011E+02 -0.17956587629E+02 -0.18342088515E+02  0.43400727917E+02  0.00000000000E+00 0.  1.
         11    1    3    3    0    0  0.19741435347E+02  0.68116499045E+01  0.10918779659E+02  0.23565707998E+02  0.51100000000E-03 0. -1.
        -11    1    3    3    0    0 -0.10046922413E+01 -0.15700708045E+01 -0.76615998137E+00  0.20153238472E+01  0.51100000000E-03 0.  1.
         12    1    3    3    0    0  0.16259712905E+02  0.12715008529E+02  0.81894688380E+01  0.22206240238E+02  0.00000000000E+00 0. -1.
</event>
<event>
 7    1  0.1427898E-010  0.4778728E+02  0.7816164E-02  0.1312668E+00
        -11   -1    0    0    0    0  0.00000000000E+00  0.00000000000E+00  0.45593999997E+02  0.45594000000E+02  0.51100000000E-03 0.  1.
         11   -1    0    0    0    0 -0.00000000000E+00 -0.00000000000E+00 -0.45593999997E+02  0.45594000000E+02  0.51100000000E-03 0. -1.
    9900012    2    1    2    0    0 -0.39776174134E+02  0.37755727673E+01 -0.16947674512E+02  0.47787278234E+02  0.20000032781E+02 0.  0.
        -12    1    1    2    0    0  0.39776174134E+02 -0.37755727673E+01  0.16947674512E+02  0.43400721766E+02  0.00000000000E+00 0.  1.
         11    1    3    3    0    0 -0.28305314571E+02 -0.36484098202E+00 -0.10839591746E+02  0.30312055215E+02  0.51100000000E-03 0. -1.
        -11    1    3    3    0    0 -0.10883789690E+02  0.73349399784E+01 -0.48579539642E+01  0.13994925491E+02  0.51100000000E-03 0.  1.
         12    1    3    3    0    0 -0.58706987262E+00 -0.31945262291E+01 -0.12501288017E+01  0.34802975282E+01  0.00000000000E+00 0. -1.
</event>
<event>
 7    1  0.1427898E-010  0.4778731E+02  0.7816164E-02  0.1312668E+00
        -11   -1    0    0    0    0  0.00000000000E+00  0.00000000000E+00  0.45593999997E+02  0.45594000000E+02  0.51100000000E-03 0.  1.
         11   -1    0    0    0    0 -0.00000000000E+00 -0.00000000000E+00 -0.45593999997E+02  0.45594000000E+02  0.51100000000E-03 0. -1.
    9900012    2    1    2    0    0  0.11616034385E+02 -0.32293761923E+02 -0.26566909684E+02  0.47787308714E+02  0.20000171748E+02 0.  0.
        -12    1    1    2    0    0 -0.11616034385E+02  0.32293761923E+02  0.26566909684E+02  0.43400691286E+02  0.00000000000E+00 0.  1.
         11    1    3    3    0    0  0.58819248055E+01 -0.24976003274E+02 -0.13953226825E+02  0.29207709908E+02  0.51100000000E-03 0. -1.
        -11    1    3    3    0    0 -0.19292846390E+01 -0.41903808228E+01 -0.76355356304E+01  0.89209212127E+01  0.51100000000E-03 0.  1.
        -12    1    3    3    0    0  0.76633942189E+01 -0.31273778259E+01 -0.49781472291E+01  0.96586775935E+01  0.00000000000E+00 0.  1.
</event>
<event>
 7    1  0.1427898E-010  0.4778727E+02  0.7816164E-02  0.1312668E+00
        -11   -1    0    0    0    0  0.00000000000E+00  0.00000000000E+00  0.45593999997E+02  0.45594000000E+02  0.51100000000E-03 0.  1.
         11   -1    0    0    0    0 -0.00000000000E+00 -0.00000000000E+00 -0.45593999997E+02  0.45594000000E+02  0.51100000000E-03 0. -1.
    9900012    2    1    2    0    0  0.22191647337E+02 -0.24735564192E+02 -0.27916047630E+02  0.47787273477E+02  0.20000011092E+02 0.  0.
        -12    1    1    2    0    0 -0.22191647337E+02  0.24735564192E+02  0.27916047630E+02  0.43400726523E+02  0.00000000000E+00 0.  1.
         11    1    3    3    0    0 -0.12098089990E+01 -0.29616658586E+01 -0.40063696227E+01  0.51269971999E+01  0.51100000000E-03 0. -1.
        -11    1    3    3    0    0  0.18223952956E+02 -0.23414127404E+02 -0.21866634028E+02  0.36857611255E+02  0.51100000000E-03 0.  1.
         12    1    3    3    0    0  0.51775033804E+01  0.16402290713E+01 -0.20430439788E+01  0.58026650222E+01  0.00000000000E+00 0. -1.
</event>
<event>
 7    1  0.1427898E-010  0.4778727E+02  0.7816164E-02  0.1312668E+00
        -11   -1    0    0    0    0  0.00000000000E+00  0.00000000000E+00  0.45593999997E+02  0.45594000000E+02  0.51100000000E-03 0.  1.
         11   -1    0    0    0    0 -0.00000000000E+00 -0.00000000000E+00 -0.45593999997E+02  0.45594000000E+02  0.51100000000E-03 0. -1.
    9900012    2    1    2    0    0 -0.24530098891E+02  0.23992171206E+02 -0.26575802202E+02  0.47787270818E+02  0.19999998969E+02 0.  0.
        -12    1    1    2    0    0  0.24530098891E+02 -0.23992171206E+02  0.26575802202E+02  0.43400729182E+02  0.00000000000E+00 0.  1.
         11    1    3    3    0    0 -0.40333107696E+01  0.69660109654E+01 -0.10054848891E+02  0.12879941422E+02  0.51100000000E-03 0. -1.
        -11    1    3    3    0    0 -0.43512386553E+01  0.13554372064E+02 -0.76348892430E+01  0.16153817317E+02  0.51100000000E-03 0.  1.
         12    1    3    3    0    0 -0.16145549467E+02  0.34717881769E+01 -0.88860640674E+01  0.18753512080E+02  0.00000000000E+00 0. -1.
</event>
<event>
 7    1  0.1427898E-010  0.4778725E+02  0.7816164E-02  0.1312668E+00
        -11   -1    0    0    0    0  0.00000000000E+00  0.00000000000E+00  0.45593999997E+02  0.45594000000E+02  0.51100000000E-03 0.  1.
         11   -1    0    0    0    0 -0.00000000000E+00 -0.00000000000E+00 -0.45593999997E+02  0.45594000000E+02  0.51100000000E-03 0. -1.
    9900012    2    1    2    0    0 -0.13272387924E+02 -0.36742942210E+02 -0.18905689631E+02  0.47787249040E+02  0.19999899672E+02 0.  0.
        -12    1    1    2    0    0  0.13272387924E+02  0.36742942210E+02  0.18905689631E+02  0.43400750960E+02  0.00000000000E+00 0.  1.
         11    1    3    3    0    0 -0.37638106070E+01 -0.56337678537E+01 -0.24865819269E+01  0.72172502004E+01  0.51100000000E-03 0. -1.
        -11    1    3    3    0    0 -0.96938940783E+01 -0.27496635666E+02 -0.63061615619E+01  0.29829586474E+02  0.51100000000E-03 0.  1.
         12    1    3    3    0    0  0.18531676104E+00 -0.36125386908E+01 -0.10112946142E+02  0.10740412365E+02  0.00000000000E+00 0. -1.
</event>
<event>
 7    1  0.1427898E-010  0.4778727E+02  0.7816164E-02  0.1312668E+00
        -11   -1    0    0    0    0  0.00000000000E+00  0.00000000000E+00  0.45593999997E+02  0.45594000000E+02  0.51100000000E-03 0. -1.
         11   -1    0    0    0    0 -0.00000000000E+00 -0.00000000000E+00 -0.45593999997E+02  0.45594000000E+02  0.51100000000E-03 0.  1.
    9900012    2    1    2    0    0  0.36107455202E+02  0.13901760048E+02  0.19662548235E+02  0.47787273546E+02  0.20000011406E+02 0.  0.
        -12    1    1    2    0    0 -0.36107455202E+02 -0.13901760048E+02 -0.19662548235E+02  0.43400726454E+02  0.00000000000E+00 0.  1.
         11    1    3    3    0    0  0.47143443664E+01 -0.30716569110E+01  0.33118640222E+01  0.65290552568E+01  0.51100000000E-03 0.  1.
        -11    1    3    3    0    0  0.27288348826E+02  0.88878196805E+01  0.13760767041E+02  0.31827755656E+02  0.51100000000E-03 0. -1.
         12    1    3    3    0    0  0.41047620103E+01  0.80855972786E+01  0.25899171726E+01  0.94304626330E+01  0.00000000000E+00 0. -1.
</event>
<event>
 7    1  0.1427898E-010  0.4778727E+02  0.7816164E-02  0.1312668E+00
        -11   -1    0    0    0    0  0.00000000000E+00  0.00000000000E+00  0.45593999997E+02  0.45594000000E+02  0.51100000000E-03 0.  1.
         11   -1    0    0    0    0 -0.00000000000E+00 -0.00000000000E+00 -0.45593999997E+02  0.45594000000E+02  0.51100000000E-03 0. -1.
    9900012    2    1    2    0    0  0.27167347624E+02 -0.27383711850E+02 -0.19891983445E+02  0.47787268935E+02  0.19999990381E+02 0.  0.
        -12    1    1    2    0    0 -0.27167347624E+02  0.27383711850E+02  0.19891983445E+02  0.43400731065E+02  0.00000000000E+00 0.  1.
         11    1    3    3    0    0  0.90432244597E+01 -0.18438731718E+02 -0.86926842637E+01  0.22300885542E+02  0.51100000000E-03 0. -1.
        -11    1    3    3    0    0  0.33288812763E+00 -0.35877200416E+01 -0.44324517236E+01  0.57121955626E+01  0.51100000000E-03 0.  1.
        -12    1    3    3    0    0  0.17791235037E+02 -0.53572600909E+01 -0.67668474573E+01  0.19774187830E+02  0.00000000000E+00 0.  1.
</event>
<event>
 7    1  0.1427898E-010  0.4778727E+02  0.7816164E-02  0.1312668E+00
        -11   -1    0    0    0    0  0.00000000000E+00  0.00000000000E+00  0.45593999997E+02  0.45594000000E+02  0.51100000000E-03 0. -1.
         11   -1    0    0    0    0 -0.00000000000E+00 -0.00000000000E+00 -0.45593999997E+02  0.45594000000E+02  0.51100000000E-03 0.  1.
    9900012    2    1    2    0    0 -0.14802413126E+02 -0.38055974299E+02  0.14705597175E+02  0.47787271867E+02  0.20000003750E+02 0.  0.
        -12    1    1    2    0    0  0.14802413126E+02  0.38055974299E+02 -0.14705597175E+02  0.43400728133E+02  0.00000000000E+00 0.  1.
         11    1    3    3    0    0 -0.69430262602E+01 -0.96929391440E+01  0.39355638613E+01  0.12555769433E+02  0.51100000000E-03 0. -1.
        -11    1    3    3    0    0  0.34519956017E+01 -0.10399575520E+02 -0.92238359465E+00  0.10996282844E+02  0.51100000000E-03 0.  1.
        -12    1    3    3    0    0 -0.11311382467E+02 -0.17963459635E+02  0.11692416909E+02  0.24235219590E+02  0.00000000000E+00 0.  1.
</event>
<event>
 7    1  0.1427898E-010  0.4778722E+02  0.7816164E-02  0.1312668E+00
        -11   -1    0    0    0    0  0.00000000000E+00  0.00000000000E+00  0.45593999997E+02  0.45594000000E+02  0.51100000000E-03 0.  1.
         11   -1    0    0    0    0 -0.00000000000E+00 -0.00000000000E+00 -0.45593999997E+02  0.45594000000E+02  0.51100000000E-03 0. -1.
    9900012    2    1    2    0    0 -0.16800881829E+02 -0.56520018849E+01 -0.39615816409E+02  0.47787220453E+02  0.19999769334E+02 0.  0.
        -12    1    1    2    0    0  0.16800881829E+02  0.56520018849E+01  0.39615816409E+02  0.43400779547E+02  0.00000000000E+00 0.  1.
         11    1    3    3    0    0 -0.75537048629E+01 -0.32428757971E+01 -0.21521700463E+02  0.23038192023E+02  0.51100000000E-03 0. -1.
        -11    1    3    3    0    0  0.35186488317E+01  0.82424088471E+00 -0.50815650790E+01  0.62355887091E+01  0.51100000000E-03 0.  1.
         12    1    3    3    0    0 -0.12765825798E+02 -0.32333669725E+01 -0.13012550866E+02  0.18513439721E+02  0.00000000000E+00 0. -1.
</event>
<event>
 7    1  0.1427898E-010  0.4778727E+02  0.7816164E-02  0.1312668E+00
        -11   -1    0    0    0    0  0.00000000000E+00  0.00000000000E+00  0.45593999997E+02  0.45594000000E+02  0.51100000000E-03 0.  1.
         11   -1    0    0    0    0 -0.00000000000E+00 -0.00000000000E+00 -0.45593999997E+02  0.45594000000E+02  0.51100000000E-03 0. -1.
    9900012    2    1    2    0    0  0.22822675024E+02  0.18800947455E+02 -0.31769063924E+02  0.47787267943E+02  0.19999985860E+02 0.  0.
        -12    1    1    2    0    0 -0.22822675024E+02 -0.18800947455E+02  0.31769063924E+02  0.43400732057E+02  0.00000000000E+00 0.  1.
         11    1    3    3    0    0  0.58601587019E+01  0.14035778945E+02 -0.10855670889E+02  0.18686630015E+02  0.51100000000E-03 0. -1.
        -11    1    3    3    0    0  0.13144771163E+01 -0.23406372483E+01 -0.11790502540E+01  0.29319946419E+01  0.51100000000E-03 0.  1.
        -12    1    3    3    0    0  0.15648039205E+02  0.71058057587E+01 -0.19734342781E+02  0.26168643287E+02  0.00000000000E+00 0.  1.
</event>
<event>
 7    1  0.1427898E-010  0.4778727E+02  0.7816164E-02  0.1312668E+00
        -11   -1    0    0    0    0  0.00000000000E+00  0.00000000000E+00  0.45593999997E+02  0.45594000000E+02  0.51100000000E-03 0.  1.
         11   -1    0    0    0    0 -0.00000000000E+00 -0.00000000000E+00 -0.45593999997E+02  0.45594000000E+02  0.51100000000E-03 0. -1.
    9900012    2    1    2    0    0 -0.13015353312E+02 -0.20297326112E+02 -0.36086601794E+02  0.47787266156E+02  0.19999977712E+02 0.  0.
        -12    1    1    2    0    0  0.13015353312E+02  0.20297326112E+02  0.36086601794E+02  0.43400733844E+02  0.00000000000E+00 0.  1.
         11    1    3    3    0    0 -0.77532035949E+01 -0.14911737688E+02 -0.24547236627E+02  0.29749603580E+02  0.51100000000E-03 0.  1.
        -11    1    3    3    0    0 -0.60037772005E+01 -0.84842678607E+01 -0.71570151305E+01  0.12619469388E+02  0.51100000000E-03 0. -1.
        -12    1    3    3    0    0  0.74162748318E+00  0.30986794371E+01 -0.43823500369E+01  0.54181931881E+01  0.00000000000E+00 0.  1.
</event>
<event>
 7    1  0.1427898E-010  0.4778726E+02  0.7816164E-02  0.1312668E+00
        -11   -1    0    0    0    0  0.00000000000E+00  0.00000000000E+00  0.45593999997E+02  0.45594000000E+02  0.51100000000E-03 0. -1.
         11   -1    0    0    0    0 -0.00000000000E+00 -0.00000000000E+00 -0.45593999997E+02  0.45594000000E+02  0.51100000000E-03 0.  1.
    9900012    2    1    2    0    0 -0.31200324171E+02  0.19133167661E+02 -0.23325652687E+02  0.47787257997E+02  0.19999940512E+02 0.  0.
        -12    1    1    2    0    0  0.31200324171E+02 -0.19133167661E+02  0.23325652687E+02  0.43400742003E+02  0.00000000000E+00 0.  1.
         11    1    3    3    0    0 -0.70097933232E+00  0.51528642903E+01 -0.21224098955E+01  0.56167612059E+01  0.51100000000E-03 0. -1.
        -11    1    3    3    0    0 -0.55622654699E+01  0.16704127666E+00 -0.10188739370E+02  0.11609354424E+02  0.51100000000E-03 0.  1.
         12    1    3    3    0    0 -0.24937079369E+02  0.13813262094E+02 -0.11014503422E+02  0.30561142367E+02  0.00000000000E+00 0. -1.
</event>
<event>
 7    1  0.1427898E-010  0.4778727E+02  0.7816164E-02  0.1312668E+00
        -11   -1    0    0    0    0  0.00000000000E+00  0.00000000000E+00  0.45593999997E+02  0.45594000000E+02  0.51100000000E-03 0. -1.
         11   -1    0    0    0    0 -0.00000000000E+00 -0.00000000000E+00 -0.45593999997E+02  0.45594000000E+02  0.51100000000E-03 0.  1.
    9900012    2    1    2    0    0  0.84996664323E+01  0.74890615724E+01  0.41896214082E+02  0.47787272735E+02  0.20000007709E+02 0.  0.
        -12    1    1    2    0    0 -0.84996664323E+01 -0.74890615724E+01 -0.41896214082E+02  0.43400727265E+02  0.00000000000E+00 0.  1.
         11    1    3    3    0    0  0.48470665806E+01 -0.28808390790E+01  0.10015254989E+02  0.11493416420E+02  0.51100000000E-03 0. -1.
        -11    1    3    3    0    0 -0.18209431897E+01 -0.17452316217E+01  0.12751335673E+02  0.12998393333E+02  0.51100000000E-03 0.  1.
        -12    1    3    3    0    0  0.54735430414E+01  0.12115132273E+02  0.19129623419E+02  0.23295462983E+02  0.00000000000E+00 0.  1.
</event>
<event>
 7    1  0.1427898E-010  0.4778727E+02  0.7816164E-02  0.1312668E+00
        -11   -1    0    0    0    0  0.00000000000E+00  0.00000000000E+00  0.45593999997E+02  0.45594000000E+02  0.51100000000E-03 0. -1.
         11   -1    0    0    0    0 -0.00000000000E+00 -0.00000000000E+00 -0.45593999997E+02  0.45594000000E+02  0.51100000000E-03 0.  1.
    9900012    2    1    2    0    0 -0.26785037004E+02  0.18143195359E+02  0.28931118078E+02  0.47787270301E+02  0.19999996612E+02 0.  0.
        -12    1    1    2    0    0  0.26785037004E+02 -0.18143195359E+02 -0.28931118078E+02  0.43400729699E+02  0.00000000000E+00 0.  1.
         11    1    3    3    0    0 -0.53070776786E+01  0.49230966832E+01  0.16929452119E+02  0.18412178137E+02  0.51100000000E-03 0. -1.
        -11    1    3    3    0    0 -0.16942199909E+02  0.90294295443E+01  0.12907327033E+02  0.23133694626E+02  0.51100000000E-03 0.  1.
        -12    1    3    3    0    0 -0.45357594169E+01  0.41906691311E+01 -0.90566107392E+00  0.62413975386E+01  0.00000000000E+00 0.  1.
</event>
<event>
 7    1  0.1427898E-010  0.4778728E+02  0.7816164E-02  0.1312668E+00
        -11   -1    0    0    0    0  0.00000000000E+00  0.00000000000E+00  0.45593999997E+02  0.45594000000E+02  0.51100000000E-03 0.  1.
         11   -1    0    0    0    0 -0.00000000000E+00 -0.00000000000E+00 -0.45593999997E+02  0.45594000000E+02  0.51100000000E-03 0. -1.
    9900012    2    1    2    0    0 -0.26957902525E+02  0.24807482487E+02 -0.23269787601E+02  0.47787277530E+02  0.20000029571E+02 0.  0.
        -12    1    1    2    0    0  0.26957902525E+02 -0.24807482487E+02  0.23269787601E+02  0.43400722470E+02  0.00000000000E+00 0.  1.
         11    1    3    3    0    0 -0.17713269745E+02  0.60222849778E+01 -0.77089907657E+01  0.20235028547E+02  0.51100000000E-03 0. -1.
        -11    1    3    3    0    0  0.10183358210E+01  0.33570545441E+01 -0.53434826035E+01  0.63921537569E+01  0.51100000000E-03 0.  1.
        -12    1    3    3    0    0 -0.10262968601E+02  0.15428142965E+02 -0.10217314232E+02  0.21160095226E+02  0.00000000000E+00 0.  1.
</event>
<event>
 7    1  0.1427898E-010  0.4778727E+02  0.7816164E-02  0.1312668E+00
        -11   -1    0    0    0    0  0.00000000000E+00  0.00000000000E+00  0.45593999997E+02  0.45594000000E+02  0.51100000000E-03 0. -1.
         11   -1    0    0    0    0 -0.00000000000E+00 -0.00000000000E+00 -0.45593999997E+02  0.45594000000E+02  0.51100000000E-03 0.  1.
    9900012    2    1    2    0    0  0.40569410505E+02  0.51259897308E+01 -0.14542020214E+02  0.47787271996E+02  0.20000004337E+02 0.  0.
        -12    1    1    2    0    0 -0.40569410505E+02 -0.51259897308E+01  0.14542020214E+02  0.43400728004E+02  0.00000000000E+00 0.  1.
         11    1    3    3    0    0  0.81981301082E+00  0.39824116464E+01 -0.19952990023E+01  0.45291184864E+01  0.51100000000E-03 0. -1.
        -11    1    3    3    0    0  0.23587320028E+02  0.62916566816E+01 -0.66733548321E+01  0.25307711767E+02  0.51100000000E-03 0.  1.
        -12    1    3    3    0    0  0.16162277466E+02 -0.51480785972E+01 -0.58733663793E+01  0.17950441743E+02  0.00000000000E+00 0.  1.
</event>
<event>
 7    1  0.1427898E-010  0.4778724E+02  0.7816164E-02  0.1312668E+00
        -11   -1    0    0    0    0  0.00000000000E+00  0.00000000000E+00  0.45593999997E+02  0.45594000000E+02  0.51100000000E-03 0.  1.
         11   -1    0    0    0    0 -0.00000000000E+00 -0.00000000000E+00 -0.45593999997E+02  0.45594000000E+02  0.51100000000E-03 0. -1.
    9900012    2    1    2    0    0 -0.39133647496E+02 -0.14657392579E+02  0.11719419912E+02  0.47787235875E+02  0.19999839646E+02 0.  0.
        -12    1    1    2    0    0  0.39133647496E+02  0.14657392579E+02 -0.11719419912E+02  0.43400764125E+02  0.00000000000E+00 0.  1.
         11    1    3    3    0    0 -0.22979628019E+02 -0.71437547966E+01  0.58121540359E+00  0.24071442584E+02  0.51100000000E-03 0. -1.
        -11    1    3    3    0    0 -0.17686365141E+02 -0.63563520880E+01  0.11032084570E+02  0.21792604571E+02  0.51100000000E-03 0.  1.
         12    1    3    3    0    0  0.15323456632E+01 -0.11572856943E+01  0.10611993851E+00  0.19231887196E+01  0.00000000000E+00 0. -1.
</event>
<event>
 7    1  0.1427898E-010  0.4778726E+02  0.7816164E-02  0.1312668E+00
        -11   -1    0    0    0    0  0.00000000000E+00  0.00000000000E+00  0.45593999997E+02  0.45594000000E+02  0.51100000000E-03 0.  1.
         11   -1    0    0    0    0 -0.00000000000E+00 -0.00000000000E+00 -0.45593999997E+02  0.45594000000E+02  0.51100000000E-03 0. -1.
    9900012    2    1    2    0    0  0.35965722884E+02 -0.14214379512E+02 -0.19698786663E+02  0.47787262639E+02  0.19999961678E+02 0.  0.
        -12    1    1    2    0    0 -0.35965722884E+02  0.14214379512E+02  0.19698786663E+02  0.43400737361E+02  0.00000000000E+00 0.  1.
         11    1    3    3    0    0  0.34864869286E+01 -0.67577138126E+00 -0.82580309322E+00  0.36461224709E+01  0.51100000000E-03 0. -1.
        -11    1    3    3    0    0  0.28144641467E+02 -0.12860205298E+02 -0.73405612190E+01  0.31802351531E+02  0.51100000000E-03 0.  1.
        -12    1    3    3    0    0  0.43345944880E+01 -0.67840283323E+00 -0.11532422350E+02  0.12338788638E+02  0.00000000000E+00 0.  1.
</event>
<event>
 7    1  0.1427898E-010  0.4778727E+02  0.7816164E-02  0.1312668E+00
        -11   -1    0    0    0    0  0.00000000000E+00  0.00000000000E+00  0.45593999997E+02  0.45594000000E+02  0.51100000000E-03 0.  1.
         11   -1    0    0    0    0 -0.00000000000E+00 -0.00000000000E+00 -0.45593999997E+02  0.45594000000E+02  0.51100000000E-03 0. -1.
    9900012    2    1    2    0    0  0.17914391797E+02  0.35026639189E+02 -0.18325721395E+02  0.47787274764E+02  0.20000016961E+02 0.  0.
        -12    1    1    2    0    0 -0.17914391797E+02 -0.35026639189E+02  0.18325721395E+02  0.43400725236E+02  0.00000000000E+00 0.  1.
         11    1    3    3    0    0  0.50941819285E+01 -0.11512304701E+01 -0.16475811570E+01  0.54763623918E+01  0.51100000000E-03 0. -1.
        -11    1    3    3    0    0  0.62429677331E+01  0.17643708511E+02 -0.11528094727E+02  0.21981175229E+02  0.51100000000E-03 0.  1.
        -12    1    3    3    0    0  0.65772421352E+01  0.18534161148E+02 -0.51500455107E+01  0.20329737144E+02  0.00000000000E+00 0.  1.
</event>
<event>
 7    1  0.1427898E-010  0.4778727E+02  0.7816164E-02  0.1312668E+00
        -11   -1    0    0    0    0  0.00000000000E+00  0.00000000000E+00  0.45593999997E+02  0.45594000000E+02  0.51100000000E-03 0.  1.
         11   -1    0    0    0    0 -0.00000000000E+00 -0.00000000000E+00 -0.45593999997E+02  0.45594000000E+02  0.51100000000E-03 0. -1.
    9900012    2    1    2    0    0 -0.63215532241E+01 -0.30910935727E+02 -0.29802270711E+02  0.47787270488E+02  0.19999997462E+02 0.  0.
        -12    1    1    2    0    0  0.63215532241E+01  0.30910935727E+02  0.29802270711E+02  0.43400729512E+02  0.00000000000E+00 0.  1.
         11    1    3    3    0    0 -0.55065404862E+01 -0.44651308765E+01 -0.43575563608E+01  0.83215190662E+01  0.51100000000E-03 0.  1.
        -11    1    3    3    0    0 -0.36526823769E+01 -0.42947566404E+01 -0.12353970541E+02  0.13579676415E+02  0.51100000000E-03 0. -1.
         12    1    3    3    0    0  0.28376696390E+01 -0.22151048210E+02 -0.13090743809E+02  0.25886075007E+02  0.00000000000E+00 0. -1.
</event>
<event>
 7    1  0.1427898E-010  0.4778727E+02  0.7816164E-02  0.1312668E+00
        -11   -1    0    0    0    0  0.00000000000E+00  0.00000000000E+00  0.45593999997E+02  0.45594000000E+02  0.51100000000E-03 0.  1.
         11   -1    0    0    0    0 -0.00000000000E+00 -0.00000000000E+00 -0.45593999997E+02  0.45594000000E+02  0.51100000000E-03 0. -1.
    9900012    2    1    2    0    0  0.36770348528E+00 -0.27852442041E+02 -0.33282575181E+02  0.47787267930E+02  0.19999985800E+02 0.  0.
        -12    1    1    2    0    0 -0.36770348528E+00  0.27852442041E+02  0.33282575181E+02  0.43400732070E+02  0.00000000000E+00 0.  1.
         11    1    3    3    0    0 -0.42292722250E+00 -0.15191612796E+02 -0.25171589370E+02  0.29403620159E+02  0.51100000000E-03 0. -1.
        -11    1    3    3    0    0 -0.34610215153E+01 -0.11326340900E+02 -0.71194234911E+01  0.13818496995E+02  0.51100000000E-03 0.  1.
         12    1    3    3    0    0  0.42516522231E+01 -0.13344883456E+01 -0.99156232051E+00  0.45651507758E+01  0.00000000000E+00 0. -1.
</event>
<event>
 7    1  0.1427898E-010  0.4778727E+02  0.7816164E-02  0.1312668E+00
        -11   -1    0    0    0    0  0.00000000000E+00  0.00000000000E+00  0.45593999997E+02  0.45594000000E+02  0.51100000000E-03 0.  1.
         11   -1    0    0    0    0 -0.00000000000E+00 -0.00000000000E+00 -0.45593999997E+02  0.45594000000E+02  0.51100000000E-03 0. -1.
    9900012    2    1    2    0    0  0.23413269476E+02  0.32587545536E+02 -0.16537652643E+02  0.47787271129E+02  0.20000000384E+02 0.  0.
        -12    1    1    2    0    0 -0.23413269476E+02 -0.32587545536E+02  0.16537652643E+02  0.43400728871E+02  0.00000000000E+00 0.  1.
         11    1    3    3    0    0  0.22978683667E+02  0.29694040454E+02 -0.13379467532E+02  0.39859328811E+02  0.51100000000E-03 0. -1.
        -11    1    3    3    0    0  0.13979759005E+01  0.17062752757E+01 -0.50410235433E+01  0.55025112958E+01  0.51100000000E-03 0.  1.
         12    1    3    3    0    0 -0.96339009180E+00  0.11872298065E+01  0.18828384318E+01  0.24254310221E+01  0.00000000000E+00 0. -1.
</event>
<event>
 7    1  0.1427898E-010  0.4778727E+02  0.7816164E-02  0.1312668E+00
        -11   -1    0    0    0    0  0.00000000000E+00  0.00000000000E+00  0.45593999997E+02  0.45594000000E+02  0.51100000000E-03 0. -1.
         11   -1    0    0    0    0 -0.00000000000E+00 -0.00000000000E+00 -0.45593999997E+02  0.45594000000E+02  0.51100000000E-03 0.  1.
    9900012    2    1    2    0    0 -0.22838163478E+02  0.37499995417E+01  0.36714837418E+02  0.47787268506E+02  0.19999988425E+02 0.  0.
        -12    1    1    2    0    0  0.22838163478E+02 -0.37499995417E+01 -0.36714837418E+02  0.43400731494E+02  0.00000000000E+00 0.  1.
         11    1    3    3    0    0  0.21018483827E+01  0.48493866540E+01  0.73307121216E+01  0.90373479525E+01  0.51100000000E-03 0.  1.
        -11    1    3    3    0    0 -0.11519717706E+02 -0.16674517333E+00  0.10674385289E+02  0.15705865195E+02  0.51100000000E-03 0. -1.
        -12    1    3    3    0    0 -0.13420294155E+02 -0.93264193900E+00  0.18709740007E+02  0.23044055358E+02  0.00000000000E+00 0.  1.
</event>
<event>
 7    1  0.1457191E-010  0.4778728E+02  0.7816164E-02  0.1312668E+00
        -11   -1    0    0    0    0  0.00000000000E+00  0.00000000000E+00  0.45593999997E+02  0.45594000000E+02  0.51100000000E-03 0.  1.
         11   -1    0    0    0    0 -0.00000000000E+00 -0.00000000000E+00 -0.45593999997E+02  0.45594000000E+02  0.51100000000E-03 0. -1.
    9900012    2    1    2    0    0 -0.41506165764E+02  0.73822703080E+01 -0.10313254033E+02  0.47787275120E+02  0.20000018584E+02 0.  0.
        -12    1    1    2    0    0  0.41506165764E+02 -0.73822703080E+01  0.10313254033E+02  0.43400724880E+02  0.00000000000E+00 0.  1.
         11    1    3    3    0    0 -0.22759480390E+02 -0.54840886995E+00 -0.93465701772E+00  0.22785264623E+02  0.51100000000E-03 0. -1.
        -11    1    3    3    0    0 -0.83894899945E-01 -0.14064582666E+01 -0.27778810672E+01  0.31147691238E+01  0.51100000000E-03 0.  1.
         12    1    3    3    0    0 -0.18662790474E+02  0.93371374446E+01 -0.66007159482E+01  0.21887241374E+02  0.00000000000E+00 0. -1.
</event>
<event>
 7    1  0.1427898E-010  0.4778727E+02  0.7816164E-02  0.1312668E+00
        -11   -1    0    0    0    0  0.00000000000E+00  0.00000000000E+00  0.45593999997E+02  0.45594000000E+02  0.51100000000E-03 0.  1.
         11   -1    0    0    0    0 -0.00000000000E+00 -0.00000000000E+00 -0.45593999997E+02  0.45594000000E+02  0.51100000000E-03 0. -1.
    9900012    2    1    2    0    0 -0.17613930562E+02  0.11724232449E+02 -0.37893468850E+02  0.47787272381E+02  0.20000006094E+02 0.  0.
        -12    1    1    2    0    0  0.17613930562E+02 -0.11724232449E+02  0.37893468850E+02  0.43400727619E+02  0.00000000000E+00 0.  1.
         11    1    3    3    0    0 -0.16404660370E+02  0.87119068810E+01 -0.27137276033E+02  0.32885284766E+02  0.51100000000E-03 0. -1.
        -11    1    3    3    0    0 -0.25958761279E+01  0.27661633407E+01  0.25414620503E+00  0.38019499015E+01  0.51100000000E-03 0.  1.
        -12    1    3    3    0    0  0.13866059363E+01  0.24616222686E+00 -0.11010339022E+02  0.11100037713E+02  0.00000000000E+00 0.  1.
</event>
<event>
 7    1  0.1427898E-010  0.4778727E+02  0.7816164E-02  0.1312668E+00
        -11   -1    0    0    0    0  0.00000000000E+00  0.00000000000E+00  0.45593999997E+02  0.45594000000E+02  0.51100000000E-03 0.  1.
         11   -1    0    0    0    0 -0.00000000000E+00 -0.00000000000E+00 -0.45593999997E+02  0.45594000000E+02  0.51100000000E-03 0. -1.
    9900012    2    1    2    0    0  0.14754367453E+02 -0.87027911623E+01 -0.39877228440E+02  0.47787270962E+02  0.19999999625E+02 0.  0.
        -12    1    1    2    0    0 -0.14754367453E+02  0.87027911623E+01  0.39877228440E+02  0.43400729038E+02  0.00000000000E+00 0.  1.
         11    1    3    3    0    0  0.42921819845E+01  0.46536929878E+01 -0.85026013133E+01  0.10600656299E+02  0.51100000000E-03 0. -1.
        -11    1    3    3    0    0 -0.12033992719E+01 -0.41020458175E+01 -0.12080811480E+02  0.12814872452E+02  0.51100000000E-03 0.  1.
         12    1    3    3    0    0  0.11665584741E+02 -0.92544383326E+01 -0.19293815647E+02  0.24371742211E+02  0.00000000000E+00 0. -1.
</event>
<event>
 7    1  0.1427898E-010  0.4778727E+02  0.7816164E-02  0.1312668E+00
        -11   -1    0    0    0    0  0.00000000000E+00  0.00000000000E+00  0.45593999997E+02  0.45594000000E+02  0.51100000000E-03 0.  1.
         11   -1    0    0    0    0 -0.00000000000E+00 -0.00000000000E+00 -0.45593999997E+02  0.45594000000E+02  0.51100000000E-03 0. -1.
    9900012    2    1    2    0    0  0.38478434169E+02 -0.20872149706E+01 -0.19966895054E+02  0.47787271198E+02  0.20000000702E+02 0.  0.
        -12    1    1    2    0    0 -0.38478434169E+02  0.20872149706E+01  0.19966895054E+02  0.43400728802E+02  0.00000000000E+00 0.  1.
         11    1    3    3    0    0  0.11846805865E+02 -0.64368267067E+01 -0.95707957535E+01  0.16534197255E+02  0.51100000000E-03 0. -1.
        -11    1    3    3    0    0  0.16795273874E+02 -0.19181980344E+00 -0.85744464174E+00  0.16818241017E+02  0.51100000000E-03 0.  1.
         12    1    3    3    0    0  0.98363544293E+01  0.45414315395E+01 -0.95386546593E+01  0.14434832926E+02  0.00000000000E+00 0. -1.
</event>
<event>
 7    1  0.1427898E-010  0.4778727E+02  0.7816164E-02  0.1312668E+00
        -11   -1    0    0    0    0  0.00000000000E+00  0.00000000000E+00  0.45593999997E+02  0.45594000000E+02  0.51100000000E-03 0.  1.
         11   -1    0    0    0    0 -0.00000000000E+00 -0.00000000000E+00 -0.45593999997E+02  0.45594000000E+02  0.51100000000E-03 0. -1.
    9900012    2    1    2    0    0  0.24796080860E+02  0.30486574882E+02  0.18421356896E+02  0.47787271159E+02  0.20000000522E+02 0.  0.
        -12    1    1    2    0    0 -0.24796080860E+02 -0.30486574882E+02 -0.18421356896E+02  0.43400728841E+02  0.00000000000E+00 0.  1.
         11    1    3    3    0    0  0.16807826270E+02  0.12924942846E+02  0.78495975009E+01  0.22609143121E+02  0.51100000000E-03 0. -1.
        -11    1    3    3    0    0  0.49930169267E+01  0.81497342791E+01  0.11844184246E+02  0.15219496955E+02  0.51100000000E-03 0.  1.
         12    1    3    3    0    0  0.29952376641E+01  0.94118977563E+01 -0.12724248513E+01  0.99586310827E+01  0.00000000000E+00 0. -1.
</event>
<event>
 7    1  0.1427898E-010  0.4778727E+02  0.7816164E-02  0.1312668E+00
        -11   -1    0    0    0    0  0.00000000000E+00  0.00000000000E+00  0.45593999997E+02  0.45594000000E+02  0.51100000000E-03 0.  1.
         11   -1    0    0    0    0 -0.00000000000E+00 -0.00000000000E+00 -0.45593999997E+02  0.45594000000E+02  0.51100000000E-03 0. -1.
    9900012    2    1    2    0    0  0.23391926174E+02  0.14877733745E+02 -0.33393024161E+02  0.47787271502E+02  0.20000002087E+02 0.  0.
        -12    1    1    2    0    0 -0.23391926174E+02 -0.14877733745E+02  0.33393024161E+02  0.43400728498E+02  0.00000000000E+00 0.  1.
         11    1    3    3    0    0  0.67484410998E+01  0.12131325884E+02 -0.82326898309E+01  0.16139631566E+02  0.51100000000E-03 0. -1.
        -11    1    3    3    0    0  0.13207255240E+02  0.58060663065E+01 -0.20762616085E+02  0.25282963116E+02  0.51100000000E-03 0.  1.
        -12    1    3    3    0    0  0.34362298344E+01 -0.30596584448E+01 -0.43977182446E+01  0.63646768207E+01  0.00000000000E+00 0.  1.
</event>
<event>
 7    1  0.1621794E-010  0.4778726E+02  0.7816164E-02  0.1312668E+00
        -11   -1    0    0    0    0  0.00000000000E+00  0.00000000000E+00  0.45593999997E+02  0.45594000000E+02  0.51100000000E-03 0. -1.
         11   -1    0    0    0    0 -0.00000000000E+00 -0.00000000000E+00 -0.45593999997E+02  0.45594000000E+02  0.51100000000E-03 0.  1.
    9900012    2    1    2    0    0  0.71408823142E+01  0.53025876704E+01  0.42479574808E+02  0.47787263691E+02  0.19999966474E+02 0.  0.
        -12    1    1    2    0    0 -0.71408823142E+01 -0.53025876704E+01 -0.42479574808E+02  0.43400736309E+02  0.00000000000E+00 0.  1.
         11    1    3    3    0    0  0.72870686712E+01  0.38663836850E+00  0.15118418585E+02  0.16787419093E+02  0.51100000000E-03 0. -1.
        -11    1    3    3    0    0  0.86298289287E-01  0.28620314377E+01 -0.63053667226E+00  0.29319358965E+01  0.51100000000E-03 0.  1.
         12    1    3    3    0    0 -0.23248464630E+00  0.20539178643E+01  0.27991692896E+02  0.28067908702E+02  0.00000000000E+00 0. -1.
</event>
<event>
 7    1  0.1427898E-010  0.4778727E+02  0.7816164E-02  0.1312668E+00
        -11   -1    0    0    0    0  0.00000000000E+00  0.00000000000E+00  0.45593999997E+02  0.45594000000E+02  0.51100000000E-03 0.  1.
         11   -1    0    0    0    0 -0.00000000000E+00 -0.00000000000E+00 -0.45593999997E+02  0.45594000000E+02  0.51100000000E-03 0. -1.
    9900012    2    1    2    0    0 -0.22558744388E+02  0.27788271487E+02 -0.24546654339E+02  0.47787271667E+02  0.20000002837E+02 0.  0.
        -12    1    1    2    0    0  0.22558744388E+02 -0.27788271487E+02  0.24546654339E+02  0.43400728333E+02  0.00000000000E+00 0.  1.
         11    1    3    3    0    0 -0.17552168359E+02  0.11027438667E+02 -0.15497775402E+02  0.25881732174E+02  0.51100000000E-03 0. -1.
        -11    1    3    3    0    0 -0.11454897542E+01  0.68196610038E+01 -0.88600199061E+01  0.11239211537E+02  0.51100000000E-03 0.  1.
        -12    1    3    3    0    0 -0.38610862750E+01  0.99411718167E+01 -0.18885903041E+00  0.10666327955E+02  0.00000000000E+00 0.  1.
</event>
<event>
 7    1  0.1427898E-010  0.4778728E+02  0.7816164E-02  0.1312668E+00
        -11   -1    0    0    0    0  0.00000000000E+00  0.00000000000E+00  0.45593999997E+02  0.45594000000E+02  0.51100000000E-03 0.  1.
         11   -1    0    0    0    0 -0.00000000000E+00 -0.00000000000E+00 -0.45593999997E+02  0.45594000000E+02  0.51100000000E-03 0. -1.
    9900012    2    1    2    0    0 -0.13133034902E+01  0.14916635264E+02 -0.40735635787E+02  0.47787276543E+02  0.20000025069E+02 0.  0.
        -12    1    1    2    0    0  0.13133034902E+01 -0.14916635264E+02  0.40735635787E+02  0.43400723457E+02  0.00000000000E+00 0.  1.
         11    1    3    3    0    0  0.20987820261E+01  0.79447953030E+01 -0.74191723524E+01  0.11071078405E+02  0.51100000000E-03 0. -1.
        -11    1    3    3    0    0 -0.14070900411E+01 -0.38119848126E+01 -0.56901263824E+01  0.69920432711E+01  0.51100000000E-03 0.  1.
         12    1    3    3    0    0 -0.20049954752E+01  0.10783824774E+02 -0.27626337052E+02  0.29724154866E+02  0.00000000000E+00 0. -1.
</event>
<event>
 7    1  0.1427898E-010  0.4778727E+02  0.7816164E-02  0.1312668E+00
        -11   -1    0    0    0    0  0.00000000000E+00  0.00000000000E+00  0.45593999997E+02  0.45594000000E+02  0.51100000000E-03 0.  1.
         11   -1    0    0    0    0 -0.00000000000E+00 -0.00000000000E+00 -0.45593999997E+02  0.45594000000E+02  0.51100000000E-03 0. -1.
    9900012    2    1    2    0    0  0.27387103685E+02  0.17289979162E+02 -0.28889900580E+02  0.47787272089E+02  0.20000004765E+02 0.  0.
        -12    1    1    2    0    0 -0.27387103685E+02 -0.17289979162E+02  0.28889900580E+02  0.43400727911E+02  0.00000000000E+00 0.  1.
         11    1    3    3    0    0  0.73848670063E+01  0.87609309898E+01 -0.59137739166E+01  0.12894296984E+02  0.51100000000E-03 0. -1.
        -11    1    3    3    0    0  0.49193894715E+01 -0.32631513292E+01 -0.14384939524E+01  0.60760031667E+01  0.51100000000E-03 0.  1.
        -12    1    3    3    0    0  0.15082847207E+02  0.11792199502E+02 -0.21537632710E+02  0.28816971939E+02  0.00000000000E+00 0.  1.
</event>
<event>
 7    1  0.1427898E-010  0.4778727E+02  0.7816164E-02  0.1312668E+00
        -11   -1    0    0    0    0  0.00000000000E+00  0.00000000000E+00  0.45593999997E+02  0.45594000000E+02  0.51100000000E-03 0.  1.
         11   -1    0    0    0    0 -0.00000000000E+00 -0.00000000000E+00 -0.45593999997E+02  0.45594000000E+02  0.51100000000E-03 0. -1.
    9900012    2    1    2    0    0 -0.25723049798E+02 -0.21670843890E+02 -0.27428495951E+02  0.47787272403E+02  0.20000006192E+02 0.  0.
        -12    1    1    2    0    0  0.25723049798E+02  0.21670843890E+02  0.27428495951E+02  0.43400727597E+02  0.00000000000E+00 0.  1.
         11    1    3    3    0    0 -0.13912791817E+02 -0.19039988664E+02 -0.14781681110E+02  0.27831367935E+02  0.51100000000E-03 0. -1.
        -11    1    3    3    0    0 -0.18602345472E+01 -0.95727580104E+00 -0.89799981502E+01  0.92204781096E+01  0.51100000000E-03 0.  1.
        -12    1    3    3    0    0 -0.99500234343E+01 -0.16735794254E+01 -0.36668166914E+01  0.10735426358E+02  0.00000000000E+00 0.  1.
</event>
<event>
 7    1  0.1427898E-010  0.4778727E+02  0.7816164E-02  0.1312668E+00
        -11   -1    0    0    0    0  0.00000000000E+00  0.00000000000E+00  0.45593999997E+02  0.45594000000E+02  0.51100000000E-03 0.  1.
         11   -1    0    0    0    0 -0.00000000000E+00 -0.00000000000E+00 -0.45593999997E+02  0.45594000000E+02  0.51100000000E-03 0. -1.
    9900012    2    1    2    0    0  0.15537373013E+02 -0.18051489015E+02 -0.36281633926E+02  0.47787272170E+02  0.20000005134E+02 0.  0.
        -12    1    1    2    0    0 -0.15537373013E+02  0.18051489015E+02  0.36281633926E+02  0.43400727830E+02  0.00000000000E+00 0.  1.
         11    1    3    3    0    0  0.43190358306E+01 -0.68607917467E+00 -0.24300394629E+01  0.50029858278E+01  0.51100000000E-03 0. -1.
        -11    1    3    3    0    0  0.10239885582E+02 -0.15146649793E+02 -0.35445047567E+02  0.39882673606E+02  0.51100000000E-03 0.  1.
        -12    1    3    3    0    0  0.97845160108E+00 -0.22187600473E+01  0.15934531036E+01  0.29016127371E+01  0.00000000000E+00 0.  1.
</event>
<event>
 7    1  0.1427898E-010  0.4778727E+02  0.7816164E-02  0.1312668E+00
        -11   -1    0    0    0    0  0.00000000000E+00  0.00000000000E+00  0.45593999997E+02  0.45594000000E+02  0.51100000000E-03 0. -1.
         11   -1    0    0    0    0 -0.00000000000E+00 -0.00000000000E+00 -0.45593999997E+02  0.45594000000E+02  0.51100000000E-03 0.  1.
    9900012    2    1    2    0    0  0.34284314032E+02  0.19733500308E+02  0.17854916099E+02  0.47787271297E+02  0.20000001151E+02 0.  0.
        -12    1    1    2    0    0 -0.34284314032E+02 -0.19733500308E+02 -0.17854916099E+02  0.43400728703E+02  0.00000000000E+00 0.  1.
         11    1    3    3    0    0  0.14450688814E+02  0.28251266501E+01  0.78429555640E+01  0.16682796529E+02  0.51100000000E-03 0. -1.
        -11    1    3    3    0    0  0.13877558047E+01 -0.23821980717E+01  0.10372220835E+01  0.29456007431E+01  0.51100000000E-03 0.  1.
         12    1    3    3    0    0  0.18445869413E+02  0.19290571729E+02  0.89747384519E+01  0.28158874025E+02  0.00000000000E+00 0. -1.
</event>
<event>
 7    1  0.1427898E-010  0.4778727E+02  0.7816164E-02  0.1312668E+00
        -11   -1    0    0    0    0  0.00000000000E+00  0.00000000000E+00  0.45593999997E+02  0.45594000000E+02  0.51100000000E-03 0. -1.
         11   -1    0    0    0    0 -0.00000000000E+00 -0.00000000000E+00 -0.45593999997E+02  0.45594000000E+02  0.51100000000E-03 0.  1.
    9900012    2    1    2    0    0  0.21558438108E+02 -0.37617962017E+02 -0.19354457901E+01  0.47787271085E+02  0.20000000183E+02 0.  0.
        -12    1    1    2    0    0 -0.21558438108E+02  0.37617962017E+02  0.19354457901E+01  0.43400728915E+02  0.00000000000E+00 0.  1.
         11    1    3    3    0    0  0.48734714349E+01 -0.84718003047E+01  0.76930469420E+00  0.98037724475E+01  0.51100000000E-03 0. -1.
        -11    1    3    3    0    0  0.50582874412E+01  0.13739963866E+00 -0.39991431207E+01  0.64496741359E+01  0.51100000000E-03 0.  1.
         12    1    3    3    0    0  0.11626679232E+02 -0.29283561351E+02  0.12943926363E+01  0.31533824501E+02  0.00000000000E+00 0. -1.
</event>
<event>
 7    1  0.1427898E-010  0.4778727E+02  0.7816164E-02  0.1312668E+00
        -11   -1    0    0    0    0  0.00000000000E+00  0.00000000000E+00  0.45593999997E+02  0.45594000000E+02  0.51100000000E-03 0.  1.
         11   -1    0    0    0    0 -0.00000000000E+00 -0.00000000000E+00 -0.45593999997E+02  0.45594000000E+02  0.51100000000E-03 0. -1.
    9900012    2    1    2    0    0  0.12138355307E+02 -0.39791717387E+02 -0.12365385330E+02  0.47787271936E+02  0.20000004063E+02 0.  0.
        -12    1    1    2    0    0 -0.12138355307E+02  0.39791717387E+02  0.12365385330E+02  0.43400728064E+02  0.00000000000E+00 0.  1.
         11    1    3    3    0    0  0.68814846897E+01 -0.23225070752E+02 -0.11362757426E+01  0.24249739499E+02  0.51100000000E-03 0. -1.
        -11    1    3    3    0    0 -0.14314744146E+01  0.44554292030E+00  0.75605583839E+00  0.16790616979E+01  0.51100000000E-03 0.  1.
         12    1    3    3    0    0  0.66883450323E+01 -0.17012189556E+02 -0.11985165426E+02  0.21858470739E+02  0.00000000000E+00 0. -1.
</event>
<event>
 7    1  0.1427898E-010  0.4778728E+02  0.7816164E-02  0.1312668E+00
        -11   -1    0    0    0    0  0.00000000000E+00  0.00000000000E+00  0.45593999997E+02  0.45594000000E+02  0.51100000000E-03 0. -1.
         11   -1    0    0    0    0 -0.00000000000E+00 -0.00000000000E+00 -0.45593999997E+02  0.45594000000E+02  0.51100000000E-03 0.  1.
    9900012    2    1    2    0    0 -0.36274568141E+02  0.22110218138E+02 -0.88834718389E+01  0.47787284432E+02  0.20000061038E+02 0.  0.
        -12    1    1    2    0    0  0.36274568141E+02 -0.22110218138E+02  0.88834718389E+01  0.43400715568E+02  0.00000000000E+00 0.  1.
         11    1    3    3    0    0 -0.11435102587E+02  0.12794118066E+02 -0.17029949750E+01  0.17243874866E+02  0.51100000000E-03 0. -1.
        -11    1    3    3    0    0 -0.95158860588E+01  0.59835179884E-01  0.29636295129E+01  0.99668835592E+01  0.51100000000E-03 0.  1.
         12    1    3    3    0    0 -0.15323579495E+02  0.92562648920E+01 -0.10144106377E+02  0.20576526006E+02  0.00000000000E+00 0. -1.
</event>
<event>
 7    1  0.1427898E-010  0.4778727E+02  0.7816164E-02  0.1312668E+00
        -11   -1    0    0    0    0  0.00000000000E+00  0.00000000000E+00  0.45593999997E+02  0.45594000000E+02  0.51100000000E-03 0. -1.
         11   -1    0    0    0    0 -0.00000000000E+00 -0.00000000000E+00 -0.45593999997E+02  0.45594000000E+02  0.51100000000E-03 0.  1.
    9900012    2    1    2    0    0 -0.27625039555E+02 -0.76970479803E+01  0.32576612747E+02  0.47787273553E+02  0.20000011439E+02 0.  0.
        -12    1    1    2    0    0  0.27625039555E+02  0.76970479803E+01 -0.32576612747E+02  0.43400726447E+02  0.00000000000E+00 0.  1.
         11    1    3    3    0    0 -0.21110546254E+02 -0.37675452375E+01  0.20867263178E+02  0.29921434342E+02  0.51100000000E-03 0. -1.
        -11    1    3    3    0    0 -0.30842807571E+01  0.72039053544E+00  0.11665102230E+02  0.12087446405E+02  0.51100000000E-03 0.  1.
        -12    1    3    3    0    0 -0.34302125445E+01 -0.46498932782E+01  0.44247338846E-01  0.57783928065E+01  0.00000000000E+00 0.  1.
</event>
<event>
 7    1  0.1427898E-010  0.4778726E+02  0.7816164E-02  0.1312668E+00
        -11   -1    0    0    0    0  0.00000000000E+00  0.00000000000E+00  0.45593999997E+02  0.45594000000E+02  0.51100000000E-03 0. -1.
         11   -1    0    0    0    0 -0.00000000000E+00 -0.00000000000E+00 -0.45593999997E+02  0.45594000000E+02  0.51100000000E-03 0.  1.
    9900012    2    1    2    0    0  0.34183044790E+02 -0.20833345085E+02  0.16766487918E+02  0.47787263421E+02  0.19999965241E+02 0.  0.
        -12    1    1    2    0    0 -0.34183044790E+02  0.20833345085E+02 -0.16766487918E+02  0.43400736579E+02  0.00000000000E+00 0.  1.
         11    1    3    3    0    0  0.72304801125E+01 -0.59359630791E+01 -0.29533007935E+01  0.98100706507E+01  0.51100000000E-03 0.  1.
        -11    1    3    3    0    0  0.35395357243E+01 -0.53348830647E+01  0.75858707886E+01  0.99264659542E+01  0.51100000000E-03 0. -1.
        -12    1    3    3    0    0  0.23413028953E+02 -0.95624989408E+01  0.12133917923E+02  0.28050726816E+02  0.00000000000E+00 0.  1.
</event>
<event>
 7    1  0.1427898E-010  0.4778727E+02  0.7816164E-02  0.1312668E+00
        -11   -1    0    0    0    0  0.00000000000E+00  0.00000000000E+00  0.45593999997E+02  0.45594000000E+02  0.51100000000E-03 0. -1.
         11   -1    0    0    0    0 -0.00000000000E+00 -0.00000000000E+00 -0.45593999997E+02  0.45594000000E+02  0.51100000000E-03 0.  1.
    9900012    2    1    2    0    0 -0.50705690886E+01  0.39010571097E+02  0.18332701069E+02  0.47787271243E+02  0.20000000904E+02 0.  0.
        -12    1    1    2    0    0  0.50705690886E+01 -0.39010571097E+02 -0.18332701069E+02  0.43400728757E+02  0.00000000000E+00 0.  1.
         11    1    3    3    0    0 -0.58287751138E+00  0.19227933696E+02  0.59459027679E+01  0.20134719775E+02  0.51100000000E-03 0. -1.
        -11    1    3    3    0    0  0.24999192150E+01  0.81006498480E+00  0.58343307626E+01  0.63988449793E+01  0.51100000000E-03 0.  1.
         12    1    3    3    0    0 -0.69876107922E+01  0.18972572416E+02  0.65524675380E+01  0.21253706488E+02  0.00000000000E+00 0. -1.
</event>
<event>
 7    1  0.1427898E-010  0.4778727E+02  0.7816164E-02  0.1312668E+00
        -11   -1    0    0    0    0  0.00000000000E+00  0.00000000000E+00  0.45593999997E+02  0.45594000000E+02  0.51100000000E-03 0. -1.
         11   -1    0    0    0    0 -0.00000000000E+00 -0.00000000000E+00 -0.45593999997E+02  0.45594000000E+02  0.51100000000E-03 0.  1.
    9900012    2    1    2    0    0 -0.31642107184E+02  0.14271106557E+02  0.26052555413E+02  0.47787273359E+02  0.20000010554E+02 0.  0.
        -12    1    1    2    0    0  0.31642107184E+02 -0.14271106557E+02 -0.26052555413E+02  0.43400726641E+02  0.00000000000E+00 0.  1.
         11    1    3    3    0    0 -0.55857678223E+01  0.23915860538E+01  0.92992635751E+01  0.11108410747E+02  0.51100000000E-03 0. -1.
        -11    1    3    3    0    0 -0.73066352933E+01  0.41783178971E+01 -0.24404695446E+01  0.87636266248E+01  0.51100000000E-03 0.  1.
        -12    1    3    3    0    0 -0.18749704068E+02  0.77012026060E+01  0.19193761383E+02  0.27915235988E+02  0.00000000000E+00 0.  1.
</event>
<event>
 7    1  0.1427898E-010  0.4778727E+02  0.7816164E-02  0.1312668E+00
        -11   -1    0    0    0    0  0.00000000000E+00  0.00000000000E+00  0.45593999997E+02  0.45594000000E+02  0.51100000000E-03 0. -1.
         11   -1    0    0    0    0 -0.00000000000E+00 -0.00000000000E+00 -0.45593999997E+02  0.45594000000E+02  0.51100000000E-03 0.  1.
    9900012    2    1    2    0    0  0.46156914527E+01  0.27667985766E+02  0.33117993734E+02  0.47787267830E+02  0.19999985343E+02 0.  0.
        -12    1    1    2    0    0 -0.46156914527E+01 -0.27667985766E+02 -0.33117993734E+02  0.43400732170E+02  0.00000000000E+00 0.  1.
         11    1    3    3    0    0  0.19346821615E+01  0.13968427262E+02  0.20777883127E+02  0.25111359635E+02  0.51100000000E-03 0. -1.
        -11    1    3    3    0    0  0.65026524298E+01  0.36067452967E+01  0.19324452339E+01  0.76829320641E+01  0.51100000000E-03 0.  1.
        -12    1    3    3    0    0 -0.38216431387E+01  0.10092813208E+02  0.10407665374E+02  0.14992976131E+02  0.00000000000E+00 0.  1.
</event>
<event>
 7    1  0.1427898E-010  0.4778727E+02  0.7816164E-02  0.1312668E+00
        -11   -1    0    0    0    0  0.00000000000E+00  0.00000000000E+00  0.45593999997E+02  0.45594000000E+02  0.51100000000E-03 0. -1.
         11   -1    0    0    0    0 -0.00000000000E+00 -0.00000000000E+00 -0.45593999997E+02  0.45594000000E+02  0.51100000000E-03 0.  1.
    9900012    2    1    2    0    0  0.36378511628E+02 -0.18486898629E+02  0.14780455356E+02  0.47787269710E+02  0.19999993914E+02 0.  0.
        -12    1    1    2    0    0 -0.36378511628E+02  0.18486898629E+02 -0.14780455356E+02  0.43400730290E+02  0.00000000000E+00 0.  1.
         11    1    3    3    0    0  0.67824243853E+01 -0.85675839855E+01 -0.24879000229E+01  0.11206891749E+02  0.51100000000E-03 0. -1.
        -11    1    3    3    0    0  0.10571155712E+02 -0.70877992727E+01  0.92881139622E+01  0.15756119219E+02  0.51100000000E-03 0.  1.
         12    1    3    3    0    0  0.19024931531E+02 -0.28315153711E+01  0.79802414167E+01  0.20824258741E+02  0.00000000000E+00 0. -1.
</event>
<event>
 7    1  0.1427898E-010  0.4778728E+02  0.7816164E-02  0.1312668E+00
        -11   -1    0    0    0    0  0.00000000000E+00  0.00000000000E+00  0.45593999997E+02  0.45594000000E+02  0.51100000000E-03 0.  1.
         11   -1    0    0    0    0 -0.00000000000E+00 -0.00000000000E+00 -0.45593999997E+02  0.45594000000E+02  0.51100000000E-03 0. -1.
    9900012    2    1    2    0    0 -0.10095865971E+02 -0.39068897243E+02 -0.15978648753E+02  0.47787280450E+02  0.20000042882E+02 0.  0.
        -12    1    1    2    0    0  0.10095865971E+02  0.39068897243E+02  0.15978648753E+02  0.43400719550E+02  0.00000000000E+00 0.  1.
         11    1    3    3    0    0 -0.49671453771E+01 -0.41241030654E+01  0.18917970006E+00  0.64588349190E+01  0.51100000000E-03 0. -1.
        -11    1    3    3    0    0  0.35277377435E+01 -0.18050069758E+02 -0.41283220103E+01  0.18849217350E+02  0.51100000000E-03 0.  1.
         12    1    3    3    0    0 -0.86564583377E+01 -0.16894724420E+02 -0.12039506443E+02  0.22479228180E+02  0.00000000000E+00 0. -1.
</event>
<event>
 7    1  0.1427898E-010  0.4778727E+02  0.7816164E-02  0.1312668E+00
        -11   -1    0    0    0    0  0.00000000000E+00  0.00000000000E+00  0.45593999997E+02  0.45594000000E+02  0.51100000000E-03 0. -1.
         11   -1    0    0    0    0 -0.00000000000E+00 -0.00000000000E+00 -0.45593999997E+02  0.45594000000E+02  0.51100000000E-03 0.  1.
    9900012    2    1    2    0    0  0.31108005826E+01 -0.25079527196E+02  0.35284042237E+02  0.47787269577E+02  0.19999993308E+02 0.  0.
        -12    1    1    2    0    0 -0.31108005826E+01  0.25079527196E+02 -0.35284042237E+02  0.43400730423E+02  0.00000000000E+00 0.  1.
         11    1    3    3    0    0  0.28894556387E+00 -0.46823901320E+01  0.16215978529E+02  0.16880942710E+02  0.51100000000E-03 0. -1.
        -11    1    3    3    0    0  0.74909869014E+01 -0.76181116717E+01  0.75844082015E+01  0.13102433294E+02  0.51100000000E-03 0.  1.
         12    1    3    3    0    0 -0.46691318827E+01 -0.12779025393E+02  0.11483655507E+02  0.17803893572E+02  0.00000000000E+00 0. -1.
</event>
<event>
 7    1  0.1427898E-010  0.4778728E+02  0.7816164E-02  0.1312668E+00
        -11   -1    0    0    0    0  0.00000000000E+00  0.00000000000E+00  0.45593999997E+02  0.45594000000E+02  0.51100000000E-03 0. -1.
         11   -1    0    0    0    0 -0.00000000000E+00 -0.00000000000E+00 -0.45593999997E+02  0.45594000000E+02  0.51100000000E-03 0.  1.
    9900012    2    1    2    0    0 -0.19361225346E+02 -0.22895783194E+02  0.31377522136E+02  0.47787276154E+02  0.20000023295E+02 0.  0.
        -12    1    1    2    0    0  0.19361225346E+02  0.22895783194E+02 -0.31377522136E+02  0.43400723846E+02  0.00000000000E+00 0.  1.
         11    1    3    3    0    0 -0.88009664891E+01 -0.40707303296E+01  0.16355030041E+02  0.19013544237E+02  0.51100000000E-03 0. -1.
        -11    1    3    3    0    0 -0.98833806914E+00 -0.75595274376E+00  0.65048478790E+01  0.66227881500E+01  0.51100000000E-03 0.  1.
        -12    1    3    3    0    0 -0.95719207882E+01 -0.18069100121E+02  0.85176442161E+01  0.22150943767E+02  0.00000000000E+00 0.  1.
</event>
<event>
 7    1  0.1427898E-010  0.4778727E+02  0.7816164E-02  0.1312668E+00
        -11   -1    0    0    0    0  0.00000000000E+00  0.00000000000E+00  0.45593999997E+02  0.45594000000E+02  0.51100000000E-03 0. -1.
         11   -1    0    0    0    0 -0.00000000000E+00 -0.00000000000E+00 -0.45593999997E+02  0.45594000000E+02  0.51100000000E-03 0.  1.
    9900012    2    1    2    0    0  0.26354148594E+02  0.20717033972E+02  0.27566045011E+02  0.47787268644E+02  0.19999989054E+02 0.  0.
        -12    1    1    2    0    0 -0.26354148594E+02 -0.20717033972E+02 -0.27566045011E+02  0.43400731356E+02  0.00000000000E+00 0.  1.
         11    1    3    3    0    0  0.10417144982E+02  0.10921461741E+02  0.38416281023E+01  0.15574124145E+02  0.51100000000E-03 0. -1.
        -11    1    3    3    0    0  0.25914644698E+01  0.33282190960E+01 -0.19791552085E-01  0.42181894713E+01  0.51100000000E-03 0.  1.
        -12    1    3    3    0    0  0.13345539142E+02  0.64673531354E+01  0.23744208461E+02  0.27994955028E+02  0.00000000000E+00 0.  1.
</event>
<event>
 7    1  0.1427898E-010  0.4778727E+02  0.7816164E-02  0.1312668E+00
        -11   -1    0    0    0    0  0.00000000000E+00  0.00000000000E+00  0.45593999997E+02  0.45594000000E+02  0.51100000000E-03 0.  1.
         11   -1    0    0    0    0 -0.00000000000E+00 -0.00000000000E+00 -0.45593999997E+02  0.45594000000E+02  0.51100000000E-03 0. -1.
    9900012    2    1    2    0    0 -0.22011132710E+02  0.30932350755E+02 -0.21031474456E+02  0.47787271847E+02  0.20000003661E+02 0.  0.
        -12    1    1    2    0    0  0.22011132710E+02 -0.30932350755E+02  0.21031474456E+02  0.43400728153E+02  0.00000000000E+00 0.  1.
         11    1    3    3    0    0 -0.10694688831E+02  0.20597479976E+02 -0.14089030988E+02  0.27150199723E+02  0.51100000000E-03 0. -1.
        -11    1    3    3    0    0 -0.40276773492E+01  0.80735207639E+01 -0.89889022703E+01  0.12735944670E+02  0.51100000000E-03 0.  1.
        -12    1    3    3    0    0 -0.72887665300E+01  0.22613500149E+01  0.20464588025E+01  0.79011274543E+01  0.00000000000E+00 0.  1.
</event>
<event>
 7    1  0.1427898E-010  0.4778728E+02  0.7816164E-02  0.1312668E+00
        -11   -1    0    0    0    0  0.00000000000E+00  0.00000000000E+00  0.45593999997E+02  0.45594000000E+02  0.51100000000E-03 0.  1.
         11   -1    0    0    0    0 -0.00000000000E+00 -0.00000000000E+00 -0.45593999997E+02  0.45594000000E+02  0.51100000000E-03 0. -1.
    9900012    2    1    2    0    0 -0.34070802728E+02 -0.53522100614E+01 -0.26346857238E+02  0.47787278377E+02  0.20000033434E+02 0.  0.
        -12    1    1    2    0    0  0.34070802728E+02  0.53522100614E+01  0.26346857238E+02  0.43400721623E+02  0.00000000000E+00 0.  1.
         11    1    3    3    0    0 -0.95056295027E+01 -0.33445425223E+01 -0.17552773767E+00  0.10078381178E+02  0.51100000000E-03 0. -1.
        -11    1    3    3    0    0 -0.86949276282E+01  0.46864437576E+01 -0.84897098555E+01  0.13024580425E+02  0.51100000000E-03 0.  1.
         12    1    3    3    0    0 -0.15870245597E+02 -0.66941112967E+01 -0.17681619645E+02  0.24684316774E+02  0.00000000000E+00 0. -1.
</event>
<event>
 7    1  0.1427898E-010  0.4778726E+02  0.7816164E-02  0.1312668E+00
        -11   -1    0    0    0    0  0.00000000000E+00  0.00000000000E+00  0.45593999997E+02  0.45594000000E+02  0.51100000000E-03 0.  1.
         11   -1    0    0    0    0 -0.00000000000E+00 -0.00000000000E+00 -0.45593999997E+02  0.45594000000E+02  0.51100000000E-03 0. -1.
    9900012    2    1    2    0    0  0.21496289797E+02 -0.22660526792E+00 -0.37702547109E+02  0.47787264021E+02  0.19999967979E+02 0.  0.
        -12    1    1    2    0    0 -0.21496289797E+02  0.22660526792E+00  0.37702547109E+02  0.43400735979E+02  0.00000000000E+00 0.  1.
         11    1    3    3    0    0  0.34901735114E+01 -0.10323158383E+01 -0.24287632220E+02  0.24558828683E+02  0.51100000000E-03 0. -1.
        -11    1    3    3    0    0  0.93761087880E+01  0.33373326613E+01 -0.65536114155E+01  0.11916334510E+02  0.51100000000E-03 0.  1.
         12    1    3    3    0    0  0.86300074977E+01 -0.25316220910E+01 -0.68613034729E+01  0.11312100829E+02  0.00000000000E+00 0. -1.
</event>
<event>
 7    1  0.1427898E-010  0.4778728E+02  0.7816164E-02  0.1312668E+00
        -11   -1    0    0    0    0  0.00000000000E+00  0.00000000000E+00  0.45593999997E+02  0.45594000000E+02  0.51100000000E-03 0. -1.
         11   -1    0    0    0    0 -0.00000000000E+00 -0.00000000000E+00 -0.45593999997E+02  0.45594000000E+02  0.51100000000E-03 0.  1.
    9900012    2    1    2    0    0  0.79538182570E+00  0.32967878549E+02  0.28215408127E+02  0.47787275305E+02  0.20000019426E+02 0.  0.
        -12    1    1    2    0    0 -0.79538182570E+00 -0.32967878549E+02 -0.28215408127E+02  0.43400724695E+02  0.00000000000E+00 0.  1.
         11    1    3    3    0    0  0.55643180111E+01  0.12269519926E+02  0.10928905034E+02  0.17347729525E+02  0.51100000000E-03 0. -1.
        -11    1    3    3    0    0 -0.18384968231E+01  0.13716360873E+02  0.28378529912E+01  0.14126996709E+02  0.51100000000E-03 0.  1.
         12    1    3    3    0    0 -0.29304393623E+01  0.69819977497E+01  0.14448650102E+02  0.16312549071E+02  0.00000000000E+00 0. -1.
</event>
<event>
 7    1  0.1427898E-010  0.4778727E+02  0.7816164E-02  0.1312668E+00
        -11   -1    0    0    0    0  0.00000000000E+00  0.00000000000E+00  0.45593999997E+02  0.45594000000E+02  0.51100000000E-03 0.  1.
         11   -1    0    0    0    0 -0.00000000000E+00 -0.00000000000E+00 -0.45593999997E+02  0.45594000000E+02  0.51100000000E-03 0. -1.
    9900012    2    1    2    0    0 -0.20179268669E+02 -0.38410546396E+02 -0.10249404074E+01  0.47787268886E+02  0.19999990157E+02 0.  0.
        -12    1    1    2    0    0  0.20179268669E+02  0.38410546396E+02  0.10249404074E+01  0.43400731114E+02  0.00000000000E+00 0.  1.
         11    1    3    3    0    0 -0.10443863551E+02 -0.16456807865E+02 -0.78478901835E+01  0.21011667987E+02  0.51100000000E-03 0. -1.
        -11    1    3    3    0    0 -0.11645960474E+02 -0.17332121072E+02  0.57879003443E+01  0.21668654940E+02  0.51100000000E-03 0.  1.
        -12    1    3    3    0    0  0.19105553571E+01 -0.46216174584E+01  0.10350494318E+01  0.51069459593E+01  0.00000000000E+00 0.  1.
</event>
<event>
 7    1  0.1427898E-010  0.4778727E+02  0.7816164E-02  0.1312668E+00
        -11   -1    0    0    0    0  0.00000000000E+00  0.00000000000E+00  0.45593999997E+02  0.45594000000E+02  0.51100000000E-03 0.  1.
         11   -1    0    0    0    0 -0.00000000000E+00 -0.00000000000E+00 -0.45593999997E+02  0.45594000000E+02  0.51100000000E-03 0. -1.
    9900012    2    1    2    0    0 -0.20295883635E+02  0.15507208237E+02 -0.35088843810E+02  0.47787270055E+02  0.19999995490E+02 0.  0.
        -12    1    1    2    0    0  0.20295883635E+02 -0.15507208237E+02  0.35088843810E+02  0.43400729945E+02  0.00000000000E+00 0.  1.
         11    1    3    3    0    0 -0.83159782332E+01  0.39057555098E+01 -0.18545030611E+02  0.20696100615E+02  0.51100000000E-03 0. -1.
        -11    1    3    3    0    0  0.10607943992E+01  0.39097902147E+01 -0.96295232075E+01  0.10446983380E+02  0.51100000000E-03 0.  1.
        -12    1    3    3    0    0 -0.13040699801E+02  0.76916625122E+01 -0.69142899918E+01  0.16644186060E+02  0.00000000000E+00 0.  1.
</event>
<event>
 7    1  0.1427898E-010  0.4778728E+02  0.7816164E-02  0.1312668E+00
        -11   -1    0    0    0    0  0.00000000000E+00  0.00000000000E+00  0.45593999997E+02  0.45594000000E+02  0.51100000000E-03 0.  1.
         11   -1    0    0    0    0 -0.00000000000E+00 -0.00000000000E+00 -0.45593999997E+02  0.45594000000E+02  0.51100000000E-03 0. -1.
    9900012    2    1    2    0    0 -0.23020230463E+01 -0.30718079033E+02 -0.30573239939E+02  0.47787277772E+02  0.20000030672E+02 0.  0.
        -12    1    1    2    0    0  0.23020230463E+01  0.30718079033E+02  0.30573239939E+02  0.43400722228E+02  0.00000000000E+00 0.  1.
         11    1    3    3    0    0 -0.18814261216E-01 -0.11591513021E+02 -0.53063906809E+01  0.12748384620E+02  0.51100000000E-03 0. -1.
        -11    1    3    3    0    0  0.10272835262E+00 -0.91394933269E+01 -0.16518787699E+01  0.92881427163E+01  0.51100000000E-03 0.  1.
         12    1    3    3    0    0 -0.23859371377E+01 -0.99870726851E+01 -0.23614970488E+02  0.25750750435E+02  0.00000000000E+00 0. -1.
</event>
<event>
 7    1  0.1427898E-010  0.4778727E+02  0.7816164E-02  0.1312668E+00
        -11   -1    0    0    0    0  0.00000000000E+00  0.00000000000E+00  0.45593999997E+02  0.45594000000E+02  0.51100000000E-03 0.  1.
         11   -1    0    0    0    0 -0.00000000000E+00 -0.00000000000E+00 -0.45593999997E+02  0.45594000000E+02  0.51100000000E-03 0. -1.
    9900012    2    1    2    0    0  0.28088774287E+01  0.42783363152E+02 -0.67318060119E+01  0.47787272273E+02  0.20000005602E+02 0.  0.
        -12    1    1    2    0    0 -0.28088774287E+01 -0.42783363152E+02  0.67318060119E+01  0.43400727727E+02  0.00000000000E+00 0.  1.
         11    1    3    3    0    0  0.33772157693E+01  0.67410760900E+00  0.14262403448E+01  0.37274883237E+01  0.51100000000E-03 0.  1.
        -11    1    3    3    0    0  0.45982469241E+01  0.25215060093E+02 -0.47288124310E+01  0.26063476314E+02  0.51100000000E-03 0. -1.
         12    1    3    3    0    0 -0.51665852648E+01  0.16894195450E+02 -0.34292339257E+01  0.17996307636E+02  0.00000000000E+00 0. -1.
</event>
<event>
 7    1  0.1427898E-010  0.4778727E+02  0.7816164E-02  0.1312668E+00
        -11   -1    0    0    0    0  0.00000000000E+00  0.00000000000E+00  0.45593999997E+02  0.45594000000E+02  0.51100000000E-03 0.  1.
         11   -1    0    0    0    0 -0.00000000000E+00 -0.00000000000E+00 -0.45593999997E+02  0.45594000000E+02  0.51100000000E-03 0. -1.
    9900012    2    1    2    0    0 -0.79127385882E+01 -0.26865369500E+02 -0.33155146206E+02  0.47787271547E+02  0.20000002292E+02 0.  0.
        -12    1    1    2    0    0  0.79127385882E+01  0.26865369500E+02  0.33155146206E+02  0.43400728453E+02  0.00000000000E+00 0.  1.
         11    1    3    3    0    0 -0.15446976432E+00 -0.22192215459E+02 -0.29980015191E+02  0.37300396767E+02  0.51100000000E-03 0. -1.
        -11    1    3    3    0    0 -0.71972783684E+00  0.79619049076E+00 -0.21606692906E+00  0.10948116896E+01  0.51100000000E-03 0.  1.
         12    1    3    3    0    0 -0.70385409870E+01 -0.54693445313E+01 -0.29590640860E+01  0.93920630903E+01  0.00000000000E+00 0. -1.
</event>
<event>
 7    1  0.1427898E-010  0.4778727E+02  0.7816164E-02  0.1312668E+00
        -11   -1    0    0    0    0  0.00000000000E+00  0.00000000000E+00  0.45593999997E+02  0.45594000000E+02  0.51100000000E-03 0.  1.
         11   -1    0    0    0    0 -0.00000000000E+00 -0.00000000000E+00 -0.45593999997E+02  0.45594000000E+02  0.51100000000E-03 0. -1.
    9900012    2    1    2    0    0 -0.84080761768E+00 -0.37152737130E+02 -0.22418529777E+02  0.47787270616E+02  0.19999998047E+02 0.  0.
        -12    1    1    2    0    0  0.84080761768E+00  0.37152737130E+02  0.22418529777E+02  0.43400729384E+02  0.00000000000E+00 0.  1.
         11    1    3    3    0    0  0.94073636922E+00 -0.22483978280E+02 -0.75783126103E+01  0.23745422432E+02  0.51100000000E-03 0. -1.
        -11    1    3    3    0    0  0.39850511410E+01 -0.13616316463E+01 -0.19596344709E+01  0.46448725340E+01  0.51100000000E-03 0.  1.
         12    1    3    3    0    0 -0.57665951279E+01 -0.13307127204E+02 -0.12880582695E+02  0.19396975650E+02  0.00000000000E+00 0. -1.
</event>
<event>
 7    1  0.1427898E-010  0.4778727E+02  0.7816164E-02  0.1312668E+00
        -11   -1    0    0    0    0  0.00000000000E+00  0.00000000000E+00  0.45593999997E+02  0.45594000000E+02  0.51100000000E-03 0.  1.
         11   -1    0    0    0    0 -0.00000000000E+00 -0.00000000000E+00 -0.45593999997E+02  0.45594000000E+02  0.51100000000E-03 0. -1.
    9900012    2    1    2    0    0 -0.15069545767E+01  0.20093502955E+02 -0.38439606142E+02  0.47787273123E+02  0.20000009478E+02 0.  0.
        -12    1    1    2    0    0  0.15069545767E+01 -0.20093502955E+02  0.38439606142E+02  0.43400726877E+02  0.00000000000E+00 0.  1.
         11    1    3    3    0    0 -0.25476634092E+01 -0.16381886964E+01 -0.13324496804E+01  0.33090290817E+01  0.51100000000E-03 0. -1.
        -11    1    3    3    0    0  0.15844216795E+00  0.15643155715E+02 -0.15538931084E+02  0.22049757462E+02  0.51100000000E-03 0.  1.
         12    1    3    3    0    0  0.88226666448E+00  0.60885359367E+01 -0.21568225377E+02  0.22428486579E+02  0.00000000000E+00 0. -1.
</event>
<event>
 7    1  0.1849092E-010  0.4778725E+02  0.7816164E-02  0.1312668E+00
        -11   -1    0    0    0    0  0.00000000000E+00  0.00000000000E+00  0.45593999997E+02  0.45594000000E+02  0.51100000000E-03 0.  1.
         11   -1    0    0    0    0 -0.00000000000E+00 -0.00000000000E+00 -0.45593999997E+02  0.45594000000E+02  0.51100000000E-03 0. -1.
    9900012    2    1    2    0    0 -0.15522443296E+02 -0.37232922260E+02 -0.16012142930E+02  0.47787245777E+02  0.19999884796E+02 0.  0.
        -12    1    1    2    0    0  0.15522443296E+02  0.37232922260E+02  0.16012142930E+02  0.43400754223E+02  0.00000000000E+00 0.  1.
         11    1    3    3    0    0 -0.80625931946E+01 -0.25903957777E+02 -0.15175706942E+02  0.31085728542E+02  0.51100000000E-03 0. -1.
        -11    1    3    3    0    0 -0.24953952853E+01  0.36389982548E+00 -0.28877370922E+01  0.38338553034E+01  0.51100000000E-03 0.  1.
         12    1    3    3    0    0 -0.49644548160E+01 -0.11692864309E+02  0.20513011046E+01  0.12867661932E+02  0.00000000000E+00 0. -1.
</event>
<event>
 7    1  0.1427898E-010  0.4778727E+02  0.7816164E-02  0.1312668E+00
        -11   -1    0    0    0    0  0.00000000000E+00  0.00000000000E+00  0.45593999997E+02  0.45594000000E+02  0.51100000000E-03 0. -1.
         11   -1    0    0    0    0 -0.00000000000E+00 -0.00000000000E+00 -0.45593999997E+02  0.45594000000E+02  0.51100000000E-03 0.  1.
    9900012    2    1    2    0    0  0.13261050428E+02 -0.34112143693E+02  0.23326584587E+02  0.47787270118E+02  0.19999995774E+02 0.  0.
        -12    1    1    2    0    0 -0.13261050428E+02  0.34112143693E+02 -0.23326584587E+02  0.43400729882E+02  0.00000000000E+00 0.  1.
         11    1    3    3    0    0  0.12078725024E+02 -0.24003660028E+02  0.17837231964E+02  0.32252722945E+02  0.51100000000E-03 0. -1.
        -11    1    3    3    0    0  0.30983503318E+01  0.23510976547E+00  0.37534531077E+01  0.48727263286E+01  0.51100000000E-03 0.  1.
        -12    1    3    3    0    0 -0.19160249280E+01 -0.10343593431E+02  0.17358995153E+01  0.10661820844E+02  0.00000000000E+00 0.  1.
</event>
<event>
 7    1  0.1427898E-010  0.4778727E+02  0.7816164E-02  0.1312668E+00
        -11   -1    0    0    0    0  0.00000000000E+00  0.00000000000E+00  0.45593999997E+02  0.45594000000E+02  0.51100000000E-03 0. -1.
         11   -1    0    0    0    0 -0.00000000000E+00 -0.00000000000E+00 -0.45593999997E+02  0.45594000000E+02  0.51100000000E-03 0.  1.
    9900012    2    1    2    0    0  0.24127825025E+02  0.70396728991E+01  0.35382403622E+02  0.47787269349E+02  0.19999992268E+02 0.  0.
        -12    1    1    2    0    0 -0.24127825025E+02 -0.70396728991E+01 -0.35382403622E+02  0.43400730651E+02  0.00000000000E+00 0.  1.
         11    1    3    3    0    0  0.34648719526E+01  0.61780846237E+01  0.35603423742E+01  0.79278058344E+01  0.51100000000E-03 0. -1.
        -11    1    3    3    0    0  0.32400501541E+01 -0.94591859106E+00  0.15681080973E+02  0.16040230289E+02  0.51100000000E-03 0.  1.
         12    1    3    3    0    0  0.17422902919E+02  0.18075068665E+01  0.16140980275E+02  0.23819233225E+02  0.00000000000E+00 0. -1.
</event>
<event>
 7    1  0.1427898E-010  0.4778725E+02  0.7816164E-02  0.1312668E+00
        -11   -1    0    0    0    0  0.00000000000E+00  0.00000000000E+00  0.45593999997E+02  0.45594000000E+02  0.51100000000E-03 0. -1.
         11   -1    0    0    0    0 -0.00000000000E+00 -0.00000000000E+00 -0.45593999997E+02  0.45594000000E+02  0.51100000000E-03 0.  1.
    9900012    2    1    2    0    0  0.12693034967E+02 -0.32977143786E+02  0.25199594774E+02  0.47787254318E+02  0.19999923738E+02 0.  0.
        -12    1    1    2    0    0 -0.12693034967E+02  0.32977143786E+02 -0.25199594774E+02  0.43400745682E+02  0.00000000000E+00 0.  1.
         11    1    3    3    0    0  0.10993404317E+00 -0.76035826617E-01 -0.23722524267E+01  0.23760153151E+01  0.51100000000E-03 0.  1.
        -11    1    3    3    0    0  0.82770894237E+01 -0.11925942416E+02  0.13215748701E+02  0.19631462651E+02  0.51100000000E-03 0. -1.
        -12    1    3    3    0    0  0.43060115002E+01 -0.20975165544E+02  0.14356098499E+02  0.25779776352E+02  0.00000000000E+00 0.  1.
</event>
<event>
 7    1  0.1427898E-010  0.4778727E+02  0.7816164E-02  0.1312668E+00
        -11   -1    0    0    0    0  0.00000000000E+00  0.00000000000E+00  0.45593999997E+02  0.45594000000E+02  0.51100000000E-03 0.  1.
         11   -1    0    0    0    0 -0.00000000000E+00 -0.00000000000E+00 -0.45593999997E+02  0.45594000000E+02  0.51100000000E-03 0. -1.
    9900012    2    1    2    0    0 -0.17385527945E+02 -0.38306583279E+02  0.10675785646E+02  0.47787270702E+02  0.19999998438E+02 0.  0.
        -12    1    1    2    0    0  0.17385527945E+02  0.38306583279E+02 -0.10675785646E+02  0.43400729298E+02  0.00000000000E+00 0.  1.
         11    1    3    3    0    0 -0.15652888783E+02 -0.17921367076E+02 -0.10717427666E+01  0.23818836200E+02  0.51100000000E-03 0. -1.
        -11    1    3    3    0    0  0.81786151155E+00 -0.18931138378E+01  0.21477469625E+01  0.29775148582E+01  0.51100000000E-03 0.  1.
         12    1    3    3    0    0 -0.25505006734E+01 -0.18492102366E+02  0.95997814505E+01  0.20990919644E+02  0.00000000000E+00 0. -1.
</event>
<event>
 7    1  0.1427898E-010  0.4778728E+02  0.7816164E-02  0.1312668E+00
        -11   -1    0    0    0    0  0.00000000000E+00  0.00000000000E+00  0.45593999997E+02  0.45594000000E+02  0.51100000000E-03 0. -1.
         11   -1    0    0    0    0 -0.00000000000E+00 -0.00000000000E+00 -0.45593999997E+02  0.45594000000E+02  0.51100000000E-03 0.  1.
    9900012    2    1    2    0    0  0.19780134582E+02  0.42619919912E+01  0.38395372314E+02  0.47787275180E+02  0.20000018855E+02 0.  0.
        -12    1    1    2    0    0 -0.19780134582E+02 -0.42619919912E+01 -0.38395372314E+02  0.43400724820E+02  0.00000000000E+00 0.  1.
         11    1    3    3    0    0  0.81148851139E+01  0.41930158943E+01  0.11386308429E+02  0.14597286138E+02  0.51100000000E-03 0. -1.
        -11    1    3    3    0    0  0.10021405133E+02 -0.68593451590E+01  0.17828492981E+02  0.21571609561E+02  0.51100000000E-03 0.  1.
         12    1    3    3    0    0  0.16438443355E+01  0.69283212559E+01  0.91805709040E+01  0.11618379480E+02  0.00000000000E+00 0. -1.
</event>
<event>
 7    1  0.1427898E-010  0.4778727E+02  0.7816164E-02  0.1312668E+00
        -11   -1    0    0    0    0  0.00000000000E+00  0.00000000000E+00  0.45593999997E+02  0.45594000000E+02  0.51100000000E-03 0. -1.
         11   -1    0    0    0    0 -0.00000000000E+00 -0.00000000000E+00 -0.45593999997E+02  0.45594000000E+02  0.51100000000E-03 0.  1.
    9900012    2    1    2    0    0  0.16940622898E+01 -0.17233025173E+02  0.39796688200E+02  0.47787269645E+02  0.19999993620E+02 0.  0.
        -12    1    1    2    0    0 -0.16940622898E+01  0.17233025173E+02 -0.39796688200E+02  0.43400730355E+02  0.00000000000E+00 0.  1.
         11    1    3    3    0    0 -0.19071771980E+01 -0.39812196762E+01  0.88437695224E+01  0.98843155859E+01  0.51100000000E-03 0.  1.
        -11    1    3    3    0    0 -0.61738414950E+01 -0.30169651524E+01  0.15462663191E+02  0.16920766849E+02  0.51100000000E-03 0. -1.
         12    1    3    3    0    0  0.97750809828E+01 -0.10234840344E+02  0.15490255486E+02  0.20982187210E+02  0.00000000000E+00 0. -1.
</event>
<event>
 7    1  0.1427898E-010  0.4778727E+02  0.7816164E-02  0.1312668E+00
        -11   -1    0    0    0    0  0.00000000000E+00  0.00000000000E+00  0.45593999997E+02  0.45594000000E+02  0.51100000000E-03 0.  1.
         11   -1    0    0    0    0 -0.00000000000E+00 -0.00000000000E+00 -0.45593999997E+02  0.45594000000E+02  0.51100000000E-03 0. -1.
    9900012    2    1    2    0    0 -0.98997576818E+01  0.32604064487E+02 -0.26881090290E+02  0.47787271453E+02  0.20000001861E+02 0.  0.
        -12    1    1    2    0    0  0.98997576818E+01 -0.32604064487E+02  0.26881090290E+02  0.43400728547E+02  0.00000000000E+00 0.  1.
         11    1    3    3    0    0 -0.10709667431E+01  0.23771886492E+02 -0.22676875961E+02  0.32870811684E+02  0.51100000000E-03 0. -1.
        -11    1    3    3    0    0 -0.76393715011E+01  0.80251846739E+01 -0.60128283209E+01  0.12606256013E+02  0.51100000000E-03 0.  1.
        -12    1    3    3    0    0 -0.11894194377E+01  0.80699332144E+00  0.18086139921E+01  0.23102037555E+01  0.00000000000E+00 0.  1.
</event>
<event>
 7    1  0.1427898E-010  0.4778727E+02  0.7816164E-02  0.1312668E+00
        -11   -1    0    0    0    0  0.00000000000E+00  0.00000000000E+00  0.45593999997E+02  0.45594000000E+02  0.51100000000E-03 0.  1.
         11   -1    0    0    0    0 -0.00000000000E+00 -0.00000000000E+00 -0.45593999997E+02  0.45594000000E+02  0.51100000000E-03 0. -1.
    9900012    2    1    2    0    0  0.10034823030E+02 -0.39973341839E+02 -0.13603576424E+02  0.47787273940E+02  0.20000013203E+02 0.  0.
        -12    1    1    2    0    0 -0.10034823030E+02  0.39973341839E+02  0.13603576424E+02  0.43400726060E+02  0.00000000000E+00 0.  1.
         11    1    3    3    0    0 -0.13140430623E+01 -0.12836075916E+02 -0.47945056047E+01  0.13765131251E+02  0.51100000000E-03 0. -1.
        -11    1    3    3    0    0  0.31059768696E+01 -0.23006357110E+02 -0.37834371111E+01  0.23521351075E+02  0.51100000000E-03 0.  1.
        -12    1    3    3    0    0  0.82428892227E+01 -0.41309088129E+01 -0.50256337079E+01  0.10500791614E+02  0.00000000000E+00 0.  1.
</event>
<event>
 7    1  0.1427898E-010  0.4778727E+02  0.7816164E-02  0.1312668E+00
        -11   -1    0    0    0    0  0.00000000000E+00  0.00000000000E+00  0.45593999997E+02  0.45594000000E+02  0.51100000000E-03 0.  1.
         11   -1    0    0    0    0 -0.00000000000E+00 -0.00000000000E+00 -0.45593999997E+02  0.45594000000E+02  0.51100000000E-03 0. -1.
    9900012    2    1    2    0    0 -0.25995333435E+02 -0.28239877987E+02 -0.20257719377E+02  0.47787271164E+02  0.20000000544E+02 0.  0.
        -12    1    1    2    0    0  0.25995333435E+02  0.28239877987E+02  0.20257719377E+02  0.43400728836E+02  0.00000000000E+00 0.  1.
         11    1    3    3    0    0 -0.18357501747E+02 -0.26360564604E+02 -0.12551956637E+02  0.34488097256E+02  0.51100000000E-03 0. -1.
        -11    1    3    3    0    0  0.12566644972E+01 -0.13258597333E+01 -0.20425370260E+01  0.27402677706E+01  0.51100000000E-03 0.  1.
        -12    1    3    3    0    0 -0.88944961857E+01 -0.55345365004E+00 -0.56632257136E+01  0.10558906138E+02  0.00000000000E+00 0.  1.
</event>
<event>
 7    1  0.1427898E-010  0.4778729E+02  0.7816164E-02  0.1312668E+00
        -11   -1    0    0    0    0  0.00000000000E+00  0.00000000000E+00  0.45593999997E+02  0.45594000000E+02  0.51100000000E-03 0.  1.
         11   -1    0    0    0    0 -0.00000000000E+00 -0.00000000000E+00 -0.45593999997E+02  0.45594000000E+02  0.51100000000E-03 0. -1.
    9900012    2    1    2    0    0  0.32042809688E+02 -0.62046973410E+01 -0.28607377947E+02  0.47787285780E+02  0.20000067186E+02 0.  0.
        -12    1    1    2    0    0 -0.32042809688E+02  0.62046973410E+01  0.28607377947E+02  0.43400714220E+02  0.00000000000E+00 0.  1.
         11    1    3    3    0    0  0.70490752669E+01 -0.51745689459E+00 -0.26910416299E+01  0.75629973603E+01  0.51100000000E-03 0. -1.
        -11    1    3    3    0    0  0.20665760309E+02 -0.11308433795E+02 -0.18427216206E+02  0.29908470730E+02  0.51100000000E-03 0.  1.
         12    1    3    3    0    0  0.43279741118E+01  0.56211933484E+01 -0.74891201112E+01  0.10315817690E+02  0.00000000000E+00 0. -1.
</event>
<event>
 7    1  0.1427898E-010  0.4778727E+02  0.7816164E-02  0.1312668E+00
        -11   -1    0    0    0    0  0.00000000000E+00  0.00000000000E+00  0.45593999997E+02  0.45594000000E+02  0.51100000000E-03 0.  1.
         11   -1    0    0    0    0 -0.00000000000E+00 -0.00000000000E+00 -0.45593999997E+02  0.45594000000E+02  0.51100000000E-03 0. -1.
    9900012    2    1    2    0    0  0.45585906229E+01  0.26219497413E+02 -0.34283827363E+02  0.47787267152E+02  0.19999982254E+02 0.  0.
        -12    1    1    2    0    0 -0.45585906229E+01 -0.26219497413E+02  0.34283827363E+02  0.43400732848E+02  0.00000000000E+00 0.  1.
         11    1    3    3    0    0  0.63092650720E+01  0.96432390904E+01 -0.24709449701E+02  0.27264551907E+02  0.51100000000E-03 0. -1.
        -11    1    3    3    0    0 -0.36436197011E+01  0.43580684263E+01 -0.19960346526E+01  0.60210364166E+01  0.51100000000E-03 0.  1.
        -12    1    3    3    0    0  0.18929452520E+01  0.12218189896E+02 -0.75783430093E+01  0.14501678828E+02  0.00000000000E+00 0.  1.
</event>
<event>
 7    1  0.1427898E-010  0.4778722E+02  0.7816164E-02  0.1312668E+00
        -11   -1    0    0    0    0  0.00000000000E+00  0.00000000000E+00  0.45593999997E+02  0.45594000000E+02  0.51100000000E-03 0.  1.
         11   -1    0    0    0    0 -0.00000000000E+00 -0.00000000000E+00 -0.45593999997E+02  0.45594000000E+02  0.51100000000E-03 0. -1.
    9900012    2    1    2    0    0  0.19353842612E+01  0.21155456165E+02 -0.37846116131E+02  0.47787221850E+02  0.19999775703E+02 0.  0.
        -12    1    1    2    0    0 -0.19353842612E+01 -0.21155456165E+02  0.37846116131E+02  0.43400778150E+02  0.00000000000E+00 0.  1.
         11    1    3    3    0    0  0.12178172180E+01  0.29481433948E+01 -0.35462250543E+01  0.47697317167E+01  0.51100000000E-03 0. -1.
        -11    1    3    3    0    0  0.65023559649E+01  0.11260071737E+02 -0.81421517599E+01  0.15341593273E+02  0.51100000000E-03 0.  1.
         12    1    3    3    0    0 -0.57847889218E+01  0.69472410326E+01 -0.26157739317E+02  0.27675896860E+02  0.00000000000E+00 0. -1.
</event>
<event>
 7    1  0.1427898E-010  0.4778727E+02  0.7816164E-02  0.1312668E+00
        -11   -1    0    0    0    0  0.00000000000E+00  0.00000000000E+00  0.45593999997E+02  0.45594000000E+02  0.51100000000E-03 0.  1.
         11   -1    0    0    0    0 -0.00000000000E+00 -0.00000000000E+00 -0.45593999997E+02  0.45594000000E+02  0.51100000000E-03 0. -1.
    9900012    2    1    2    0    0  0.39742117602E+02 -0.14685445806E+02  0.94087878146E+01  0.47787268230E+02  0.19999987169E+02 0.  0.
        -12    1    1    2    0    0 -0.39742117602E+02  0.14685445806E+02 -0.94087878146E+01  0.43400731770E+02  0.00000000000E+00 0.  1.
         11    1    3    3    0    0  0.10056408251E+02 -0.50135991629E+01  0.39768149642E+01  0.11919839806E+02  0.51100000000E-03 0. -1.
        -11    1    3    3    0    0  0.11389426363E+02  0.38534036220E+01 -0.14154750322E+01  0.12106664371E+02  0.51100000000E-03 0.  1.
        -12    1    3    3    0    0  0.18296282987E+02 -0.13525250265E+02  0.68474478826E+01  0.23760764053E+02  0.00000000000E+00 0.  1.
</event>
<event>
 7    1  0.1427898E-010  0.4778727E+02  0.7816164E-02  0.1312668E+00
        -11   -1    0    0    0    0  0.00000000000E+00  0.00000000000E+00  0.45593999997E+02  0.45594000000E+02  0.51100000000E-03 0.  1.
         11   -1    0    0    0    0 -0.00000000000E+00 -0.00000000000E+00 -0.45593999997E+02  0.45594000000E+02  0.51100000000E-03 0. -1.
    9900012    2    1    2    0    0 -0.70800249327E+01 -0.26596188554E+02 -0.33558000791E+02  0.47787269410E+02  0.19999992547E+02 0.  0.
        -12    1    1    2    0    0  0.70800249327E+01  0.26596188554E+02  0.33558000791E+02  0.43400730590E+02  0.00000000000E+00 0.  1.
         11    1    3    3    0    0 -0.14037837031E+01 -0.38537397735E+01 -0.15265533444E+02  0.15806910847E+02  0.51100000000E-03 0. -1.
        -11    1    3    3    0    0 -0.44526834971E+01 -0.12838044022E+01 -0.43845582165E+01  0.63795685656E+01  0.51100000000E-03 0.  1.
         12    1    3    3    0    0 -0.12235577325E+01 -0.21458644379E+02 -0.13907909130E+02  0.25600789997E+02  0.00000000000E+00 0. -1.
</event>
<event>
 7    1  0.1427898E-010  0.4778729E+02  0.7816164E-02  0.1312668E+00
        -11   -1    0    0    0    0  0.00000000000E+00  0.00000000000E+00  0.45593999997E+02  0.45594000000E+02  0.51100000000E-03 0.  1.
         11   -1    0    0    0    0 -0.00000000000E+00 -0.00000000000E+00 -0.45593999997E+02  0.45594000000E+02  0.51100000000E-03 0. -1.
    9900012    2    1    2    0    0 -0.11916707102E+02  0.28151507856E+02 -0.30807575717E+02  0.47787285440E+02  0.20000065635E+02 0.  0.
        -12    1    1    2    0    0  0.11916707102E+02 -0.28151507856E+02  0.30807575717E+02  0.43400714560E+02  0.00000000000E+00 0.  1.
         11    1    3    3    0    0 -0.33242586137E+01 -0.10906766938E+01  0.72947717258E-01  0.34993703165E+01  0.51100000000E-03 0.  1.
        -11    1    3    3    0    0 -0.59223183258E+01  0.11712142168E+02 -0.18411974168E+02  0.22610814261E+02  0.51100000000E-03 0. -1.
        -12    1    3    3    0    0 -0.26701301628E+01  0.17530042382E+02 -0.12468549267E+02  0.21677100863E+02  0.00000000000E+00 0.  1.
</event>
<event>
 7    1  0.1427898E-010  0.4778727E+02  0.7816164E-02  0.1312668E+00
        -11   -1    0    0    0    0  0.00000000000E+00  0.00000000000E+00  0.45593999997E+02  0.45594000000E+02  0.51100000000E-03 0. -1.
         11   -1    0    0    0    0 -0.00000000000E+00 -0.00000000000E+00 -0.45593999997E+02  0.45594000000E+02  0.51100000000E-03 0.  1.
    9900012    2    1    2    0    0  0.38783026469E+02 -0.10337534207E+02 -0.16511682995E+02  0.47787269235E+02  0.19999991752E+02 0.  0.
        -12    1    1    2    0    0 -0.38783026469E+02  0.10337534207E+02  0.16511682995E+02  0.43400730765E+02  0.00000000000E+00 0.  1.
         11    1    3    3    0    0  0.12622802903E+02 -0.68102456137E+01 -0.13371427154E+02  0.19608917942E+02  0.51100000000E-03 0. -1.
        -11    1    3    3    0    0  0.76200629765E+01  0.31970652922E+01 -0.13802259620E+01  0.83780433406E+01  0.51100000000E-03 0.  1.
        -12    1    3    3    0    0  0.18540160589E+02 -0.67243538859E+01 -0.17600298786E+01  0.19800307953E+02  0.00000000000E+00 0.  1.
</event>
<event>
 7    1  0.1427898E-010  0.4778727E+02  0.7816164E-02  0.1312668E+00
        -11   -1    0    0    0    0  0.00000000000E+00  0.00000000000E+00  0.45593999997E+02  0.45594000000E+02  0.51100000000E-03 0.  1.
         11   -1    0    0    0    0 -0.00000000000E+00 -0.00000000000E+00 -0.45593999997E+02  0.45594000000E+02  0.51100000000E-03 0. -1.
    9900012    2    1    2    0    0 -0.93739574401E+01  0.28491934447E+02 -0.31368170465E+02  0.47787268152E+02  0.19999986812E+02 0.  0.
        -12    1    1    2    0    0  0.93739574401E+01 -0.28491934447E+02  0.31368170465E+02  0.43400731848E+02  0.00000000000E+00 0.  1.
         11    1    3    3    0    0 -0.64886408574E+01  0.18306743106E+02 -0.22997061245E+02  0.30101563572E+02  0.51100000000E-03 0. -1.
        -11    1    3    3    0    0  0.33212521744E+01  0.22252413467E+01 -0.61745648874E+01  0.73557913827E+01  0.51100000000E-03 0.  1.
         12    1    3    3    0    0 -0.62065687570E+01  0.79599499950E+01 -0.21965443322E+01  0.10329913197E+02  0.00000000000E+00 0. -1.
</event>
<event>
 7    1  0.1427898E-010  0.4778728E+02  0.7816164E-02  0.1312668E+00
        -11   -1    0    0    0    0  0.00000000000E+00  0.00000000000E+00  0.45593999997E+02  0.45594000000E+02  0.51100000000E-03 0.  1.
         11   -1    0    0    0    0 -0.00000000000E+00 -0.00000000000E+00 -0.45593999997E+02  0.45594000000E+02  0.51100000000E-03 0. -1.
    9900012    2    1    2    0    0  0.32892724660E+02  0.16045241233E+02 -0.23328986508E+02  0.47787277503E+02  0.20000029446E+02 0.  0.
        -12    1    1    2    0    0 -0.32892724660E+02 -0.16045241233E+02  0.23328986508E+02  0.43400722497E+02  0.00000000000E+00 0.  1.
         11    1    3    3    0    0  0.37877863460E+01 -0.15436421385E+01 -0.27456155216E+01  0.49263131557E+01  0.51100000000E-03 0. -1.
        -11    1    3    3    0    0  0.16179967036E+02  0.17192858063E+02 -0.82991497234E+01  0.25025219041E+02  0.51100000000E-03 0.  1.
        -12    1    3    3    0    0  0.12924971278E+02  0.39602530866E+00 -0.12284221264E+02  0.17835745307E+02  0.00000000000E+00 0.  1.
</event>
<event>
 7    1  0.1427898E-010  0.4778727E+02  0.7816164E-02  0.1312668E+00
        -11   -1    0    0    0    0  0.00000000000E+00  0.00000000000E+00  0.45593999997E+02  0.45594000000E+02  0.51100000000E-03 0.  1.
         11   -1    0    0    0    0 -0.00000000000E+00 -0.00000000000E+00 -0.45593999997E+02  0.45594000000E+02  0.51100000000E-03 0. -1.
    9900012    2    1    2    0    0  0.23970128948E+02 -0.34610775386E+02 -0.10542785660E+02  0.47787272078E+02  0.20000004715E+02 0.  0.
        -12    1    1    2    0    0 -0.23970128948E+02  0.34610775386E+02  0.10542785660E+02  0.43400727922E+02  0.00000000000E+00 0.  1.
         11    1    3    3    0    0  0.12477973327E+02 -0.23730638957E+02 -0.51417877311E+01  0.27299835622E+02  0.51100000000E-03 0. -1.
        -11    1    3    3    0    0  0.43484717898E+01  0.61061660987E+00 -0.53962361515E+01  0.69571132242E+01  0.51100000000E-03 0.  1.
        -12    1    3    3    0    0  0.71436838313E+01 -0.11490753040E+02 -0.47617771648E-02  0.13530323232E+02  0.00000000000E+00 0.  1.
</event>
<event>
 7    1  0.1427898E-010  0.4778727E+02  0.7816164E-02  0.1312668E+00
        -11   -1    0    0    0    0  0.00000000000E+00  0.00000000000E+00  0.45593999997E+02  0.45594000000E+02  0.51100000000E-03 0.  1.
         11   -1    0    0    0    0 -0.00000000000E+00 -0.00000000000E+00 -0.45593999997E+02  0.45594000000E+02  0.51100000000E-03 0. -1.
    9900012    2    1    2    0    0 -0.18455351973E+02  0.16575887889E+02 -0.35612683761E+02  0.47787270508E+02  0.19999997555E+02 0.  0.
        -12    1    1    2    0    0  0.18455351973E+02 -0.16575887889E+02  0.35612683761E+02  0.43400729492E+02  0.00000000000E+00 0.  1.
         11    1    3    3    0    0 -0.10021667587E+01  0.59459638976E+00 -0.10410934862E+02  0.10475946164E+02  0.51100000000E-03 0. -1.
        -11    1    3    3    0    0 -0.12600857500E+02  0.30706090040E+01 -0.79051474862E+01  0.15188864554E+02  0.51100000000E-03 0.  1.
         12    1    3    3    0    0 -0.48523277139E+01  0.12910682495E+02 -0.17296601414E+02  0.22122459791E+02  0.00000000000E+00 0. -1.
</event>
<event>
 7    1  0.1427898E-010  0.4778727E+02  0.7816164E-02  0.1312668E+00
        -11   -1    0    0    0    0  0.00000000000E+00  0.00000000000E+00  0.45593999997E+02  0.45594000000E+02  0.51100000000E-03 0. -1.
         11   -1    0    0    0    0 -0.00000000000E+00 -0.00000000000E+00 -0.45593999997E+02  0.45594000000E+02  0.51100000000E-03 0.  1.
    9900012    2    1    2    0    0  0.27150436321E+02 -0.18257820377E+02  0.28515414703E+02  0.47787273359E+02  0.20000010551E+02 0.  0.
        -12    1    1    2    0    0 -0.27150436321E+02  0.18257820377E+02 -0.28515414703E+02  0.43400726641E+02  0.00000000000E+00 0.  1.
         11    1    3    3    0    0  0.23863936514E+02 -0.13426123362E+02  0.25774145388E+02  0.37603920344E+02  0.51100000000E-03 0. -1.
        -11    1    3    3    0    0  0.45139618142E+01 -0.14737086580E+00 -0.19434075371E+00  0.45205462083E+01  0.51100000000E-03 0.  1.
         12    1    3    3    0    0 -0.12274620076E+01 -0.46843261491E+01  0.29356100686E+01  0.56628068064E+01  0.00000000000E+00 0. -1.
</event>
<event>
 7    1  0.1427898E-010  0.4778727E+02  0.7816164E-02  0.1312668E+00
        -11   -1    0    0    0    0  0.00000000000E+00  0.00000000000E+00  0.45593999997E+02  0.45594000000E+02  0.51100000000E-03 0. -1.
         11   -1    0    0    0    0 -0.00000000000E+00 -0.00000000000E+00 -0.45593999997E+02  0.45594000000E+02  0.51100000000E-03 0.  1.
    9900012    2    1    2    0    0  0.36568560188E+02  0.14647851310E+02  0.18215485563E+02  0.47787273548E+02  0.20000011417E+02 0.  0.
        -12    1    1    2    0    0 -0.36568560188E+02 -0.14647851310E+02 -0.18215485563E+02  0.43400726452E+02  0.00000000000E+00 0.  1.
         11    1    3    3    0    0  0.33393346644E+02  0.57060293782E+01  0.13491126237E+02  0.36464844148E+02  0.51100000000E-03 0. -1.
        -11    1    3    3    0    0  0.16580513682E+01  0.41830619811E+01  0.77512027639E-01  0.45003500145E+01  0.51100000000E-03 0.  1.
        -12    1    3    3    0    0  0.15171621761E+01  0.47587599504E+01  0.46468472976E+01  0.68220793855E+01  0.00000000000E+00 0.  1.
</event>
<event>
 7    1  0.1427898E-010  0.4778727E+02  0.7816164E-02  0.1312668E+00
        -11   -1    0    0    0    0  0.00000000000E+00  0.00000000000E+00  0.45593999997E+02  0.45594000000E+02  0.51100000000E-03 0.  1.
         11   -1    0    0    0    0 -0.00000000000E+00 -0.00000000000E+00 -0.45593999997E+02  0.45594000000E+02  0.51100000000E-03 0. -1.
    9900012    2    1    2    0    0  0.17160694599E+01 -0.66169964081E+01 -0.42859000015E+02  0.47787269382E+02  0.19999992422E+02 0.  0.
        -12    1    1    2    0    0 -0.17160694599E+01  0.66169964081E+01  0.42859000015E+02  0.43400730618E+02  0.00000000000E+00 0.  1.
         11    1    3    3    0    0 -0.29749620708E+01  0.24587798653E+01 -0.13133851556E+02  0.13689194816E+02  0.51100000000E-03 0. -1.
        -11    1    3    3    0    0 -0.11601026088E+01 -0.77897657397E+01 -0.68064152875E+01  0.10409302458E+02  0.51100000000E-03 0.  1.
         12    1    3    3    0    0  0.58511341395E+01 -0.12860105337E+01 -0.22918733171E+02  0.23688772108E+02  0.00000000000E+00 0. -1.
</event>
<event>
 7    1  0.1427898E-010  0.4778729E+02  0.7816164E-02  0.1312668E+00
        -11   -1    0    0    0    0  0.00000000000E+00  0.00000000000E+00  0.45593999997E+02  0.45594000000E+02  0.51100000000E-03 0.  1.
         11   -1    0    0    0    0 -0.00000000000E+00 -0.00000000000E+00 -0.45593999997E+02  0.45594000000E+02  0.51100000000E-03 0. -1.
    9900012    2    1    2    0    0 -0.40128226849E+01  0.41617261863E+02 -0.11641422236E+02  0.47787286382E+02  0.20000069932E+02 0.  0.
        -12    1    1    2    0    0  0.40128226849E+01 -0.41617261863E+02  0.11641422236E+02  0.43400713618E+02  0.00000000000E+00 0.  1.
         11    1    3    3    0    0 -0.62018692948E+01  0.25469065020E+02 -0.45116059868E+01  0.26598703814E+02  0.51100000000E-03 0. -1.
        -11    1    3    3    0    0 -0.36486844746E+01  0.16558302290E+01 -0.30645421631E+01  0.50444118659E+01  0.51100000000E-03 0.  1.
         12    1    3    3    0    0  0.58377310844E+01  0.14492366614E+02 -0.40652740857E+01  0.16144170703E+02  0.00000000000E+00 0. -1.
</event>
<event>
 7    1  0.1427898E-010  0.4778728E+02  0.7816164E-02  0.1312668E+00
        -11   -1    0    0    0    0  0.00000000000E+00  0.00000000000E+00  0.45593999997E+02  0.45594000000E+02  0.51100000000E-03 0.  1.
         11   -1    0    0    0    0 -0.00000000000E+00 -0.00000000000E+00 -0.45593999997E+02  0.45594000000E+02  0.51100000000E-03 0. -1.
    9900012    2    1    2    0    0 -0.30622474521E+01 -0.34567377184E+02 -0.26064185517E+02  0.47787277753E+02  0.20000030589E+02 0.  0.
        -12    1    1    2    0    0  0.30622474521E+01  0.34567377184E+02  0.26064185517E+02  0.43400722247E+02  0.00000000000E+00 0.  1.
         11    1    3    3    0    0 -0.55815810844E+01 -0.19174989112E+01 -0.80533667098E+01  0.99843660340E+01  0.51100000000E-03 0.  1.
        -11    1    3    3    0    0 -0.38946870619E+00 -0.17744115422E+02 -0.12224743495E+02  0.21551094444E+02  0.51100000000E-03 0. -1.
        -12    1    3    3    0    0  0.29088023385E+01 -0.14905762851E+02 -0.57860753126E+01  0.16251817275E+02  0.00000000000E+00 0.  1.
</event>
<event>
 7    1  0.1427898E-010  0.4778728E+02  0.7816164E-02  0.1312668E+00
        -11   -1    0    0    0    0  0.00000000000E+00  0.00000000000E+00  0.45593999997E+02  0.45594000000E+02  0.51100000000E-03 0.  1.
         11   -1    0    0    0    0 -0.00000000000E+00 -0.00000000000E+00 -0.45593999997E+02  0.45594000000E+02  0.51100000000E-03 0. -1.
    9900012    2    1    2    0    0 -0.52110387797E+01 -0.37324207051E+02 -0.21526057652E+02  0.47787279784E+02  0.20000039849E+02 0.  0.
        -12    1    1    2    0    0  0.52110387797E+01  0.37324207051E+02  0.21526057652E+02  0.43400720216E+02  0.00000000000E+00 0.  1.
         11    1    3    3    0    0  0.12363285005E+01 -0.16151103771E+02 -0.11249157079E+02  0.19721313253E+02  0.51100000000E-03 0. -1.
        -11    1    3    3    0    0 -0.75950885132E+01 -0.19682492778E+02 -0.39478788277E+01  0.21463262543E+02  0.51100000000E-03 0.  1.
        -12    1    3    3    0    0  0.11477212329E+01 -0.14906105019E+01 -0.63290217457E+01  0.66027039881E+01  0.00000000000E+00 0.  1.
</event>
<event>
 7    1  0.1427898E-010  0.4778726E+02  0.7816164E-02  0.1312668E+00
        -11   -1    0    0    0    0  0.00000000000E+00  0.00000000000E+00  0.45593999997E+02  0.45594000000E+02  0.51100000000E-03 0. -1.
         11   -1    0    0    0    0 -0.00000000000E+00 -0.00000000000E+00 -0.45593999997E+02  0.45594000000E+02  0.51100000000E-03 0.  1.
    9900012    2    1    2    0    0 -0.21214931933E+02  0.20807801125E+02 -0.31632041466E+02  0.47787263003E+02  0.19999963334E+02 0.  0.
        -12    1    1    2    0    0  0.21214931933E+02 -0.20807801125E+02  0.31632041466E+02  0.43400736997E+02  0.00000000000E+00 0.  1.
         11    1    3    3    0    0 -0.10087301846E+02  0.21426313216E+02 -0.20777119389E+02  0.31504432179E+02  0.51100000000E-03 0. -1.
        -11    1    3    3    0    0 -0.57990812154E+01 -0.11603467648E+01 -0.26409825424E+01  0.64769233905E+01  0.51100000000E-03 0.  1.
        -12    1    3    3    0    0 -0.53285488722E+01  0.54183467349E+00 -0.82139395350E+01  0.98059074328E+01  0.00000000000E+00 0.  1.
</event>
<event>
 7    1  0.1596766E-010  0.4778727E+02  0.7816164E-02  0.1312668E+00
        -11   -1    0    0    0    0  0.00000000000E+00  0.00000000000E+00  0.45593999997E+02  0.45594000000E+02  0.51100000000E-03 0.  1.
         11   -1    0    0    0    0 -0.00000000000E+00 -0.00000000000E+00 -0.45593999997E+02  0.45594000000E+02  0.51100000000E-03 0. -1.
    9900012    2    1    2    0    0  0.42573594838E+02  0.73191720998E+01 -0.41883244883E+01  0.47787270517E+02  0.19999997596E+02 0.  0.
        -12    1    1    2    0    0 -0.42573594838E+02 -0.73191720998E+01  0.41883244883E+01  0.43400729483E+02  0.00000000000E+00 0.  1.
         11    1    3    3    0    0  0.11673313791E+02  0.79745819696E+01 -0.41249634198E+01  0.14726694671E+02  0.51100000000E-03 0. -1.
        -11    1    3    3    0    0  0.29515111018E+01 -0.34702840262E+01  0.18235722046E+01  0.49071075852E+01  0.51100000000E-03 0.  1.
         12    1    3    3    0    0  0.27948769945E+02  0.28148741565E+01 -0.18869332731E+01  0.28153468261E+02  0.00000000000E+00 0. -1.
</event>
<event>
 7    1  0.1427898E-010  0.4778727E+02  0.7816164E-02  0.1312668E+00
        -11   -1    0    0    0    0  0.00000000000E+00  0.00000000000E+00  0.45593999997E+02  0.45594000000E+02  0.51100000000E-03 0.  1.
         11   -1    0    0    0    0 -0.00000000000E+00 -0.00000000000E+00 -0.45593999997E+02  0.45594000000E+02  0.51100000000E-03 0. -1.
    9900012    2    1    2    0    0  0.53442952111E+01 -0.22660141994E+02 -0.36627583163E+02  0.47787269881E+02  0.19999994695E+02 0.  0.
        -12    1    1    2    0    0 -0.53442952111E+01  0.22660141994E+02  0.36627583163E+02  0.43400730119E+02  0.00000000000E+00 0.  1.
         11    1    3    3    0    0  0.42686207321E+01 -0.68899051566E+01 -0.19420428762E+02  0.21043881999E+02  0.51100000000E-03 0. -1.
        -11    1    3    3    0    0  0.70277976711E+01 -0.95002365424E+01 -0.10350618744E+02  0.15709224778E+02  0.51100000000E-03 0.  1.
        -12    1    3    3    0    0 -0.59521231921E+01 -0.62700002954E+01 -0.68565356562E+01  0.11034163104E+02  0.00000000000E+00 0.  1.
</event>
<event>
 7    1  0.1427898E-010  0.4778727E+02  0.7816164E-02  0.1312668E+00
        -11   -1    0    0    0    0  0.00000000000E+00  0.00000000000E+00  0.45593999997E+02  0.45594000000E+02  0.51100000000E-03 0.  1.
         11   -1    0    0    0    0 -0.00000000000E+00 -0.00000000000E+00 -0.45593999997E+02  0.45594000000E+02  0.51100000000E-03 0. -1.
    9900012    2    1    2    0    0  0.40735829821E+01  0.21416132957E+02 -0.37528371406E+02  0.47787268559E+02  0.19999988670E+02 0.  0.
        -12    1    1    2    0    0 -0.40735829821E+01 -0.21416132957E+02  0.37528371406E+02  0.43400731441E+02  0.00000000000E+00 0.  1.
         11    1    3    3    0    0 -0.32443329183E+01  0.51587864403E+01 -0.33968470188E+01  0.69769150455E+01  0.51100000000E-03 0. -1.
        -11    1    3    3    0    0  0.47454467695E+00  0.10842050751E+02 -0.28313118692E+02  0.30321740509E+02  0.51100000000E-03 0.  1.
         12    1    3    3    0    0  0.68433712235E+01  0.54152957664E+01 -0.58184056953E+01  0.10488613005E+02  0.00000000000E+00 0. -1.
</event>
<event>
 7    1  0.1427898E-010  0.4778727E+02  0.7816164E-02  0.1312668E+00
        -11   -1    0    0    0    0  0.00000000000E+00  0.00000000000E+00  0.45593999997E+02  0.45594000000E+02  0.51100000000E-03 0.  1.
         11   -1    0    0    0    0 -0.00000000000E+00 -0.00000000000E+00 -0.45593999997E+02  0.45594000000E+02  0.51100000000E-03 0. -1.
    9900012    2    1    2    0    0 -0.36496255596E+02  0.21257159745E+02 -0.99889842380E+01  0.47787270524E+02  0.19999997626E+02 0.  0.
        -12    1    1    2    0    0  0.36496255596E+02 -0.21257159745E+02  0.99889842380E+01  0.43400729476E+02  0.00000000000E+00 0.  1.
         11    1    3    3    0    0 -0.94792750289E+01  0.87585189849E+00 -0.80407289740E+01  0.12461023004E+02  0.51100000000E-03 0. -1.
        -11    1    3    3    0    0 -0.10313185914E+02  0.12166110600E+02 -0.44146822836E+01  0.16548881254E+02  0.51100000000E-03 0.  1.
        -12    1    3    3    0    0 -0.16703794653E+02  0.82151972466E+01  0.24664270196E+01  0.18777366265E+02  0.00000000000E+00 0.  1.
</event>
<event>
 7    1  0.1427898E-010  0.4778727E+02  0.7816164E-02  0.1312668E+00
        -11   -1    0    0    0    0  0.00000000000E+00  0.00000000000E+00  0.45593999997E+02  0.45594000000E+02  0.51100000000E-03 0.  1.
         11   -1    0    0    0    0 -0.00000000000E+00 -0.00000000000E+00 -0.45593999997E+02  0.45594000000E+02  0.51100000000E-03 0. -1.
    9900012    2    1    2    0    0 -0.31537912482E+02  0.17140939287E+02 -0.24396133829E+02  0.47787273403E+02  0.20000010752E+02 0.  0.
        -12    1    1    2    0    0  0.31537912482E+02 -0.17140939287E+02  0.24396133829E+02  0.43400726597E+02  0.00000000000E+00 0.  1.
         11    1    3    3    0    0 -0.12437623587E+02  0.84719718336E+01 -0.14092594877E+02  0.20617226241E+02  0.51100000000E-03 0. -1.
        -11    1    3    3    0    0 -0.15127448259E+02  0.98363168726E+01 -0.23413054667E+01  0.18195453608E+02  0.51100000000E-03 0.  1.
         12    1    3    3    0    0 -0.39728406365E+01 -0.11673494187E+01 -0.79622334852E+01  0.89745935541E+01  0.00000000000E+00 0. -1.
</event>
<event>
 7    1  0.1427898E-010  0.4778727E+02  0.7816164E-02  0.1312668E+00
        -11   -1    0    0    0    0  0.00000000000E+00  0.00000000000E+00  0.45593999997E+02  0.45594000000E+02  0.51100000000E-03 0.  1.
         11   -1    0    0    0    0 -0.00000000000E+00 -0.00000000000E+00 -0.45593999997E+02  0.45594000000E+02  0.51100000000E-03 0. -1.
    9900012    2    1    2    0    0 -0.45893878765E+01 -0.20629343506E+02 -0.37907663569E+02  0.47787271298E+02  0.20000001156E+02 0.  0.
        -12    1    1    2    0    0  0.45893878765E+01  0.20629343506E+02  0.37907663569E+02  0.43400728702E+02  0.00000000000E+00 0.  1.
         11    1    3    3    0    0  0.26316578914E+01 -0.56735508207E+00 -0.18177921154E+01  0.32483662790E+01  0.51100000000E-03 0. -1.
        -11    1    3    3    0    0  0.13854447940E+01 -0.10051848206E+02 -0.62705541015E+01  0.11928074389E+02  0.51100000000E-03 0.  1.
         12    1    3    3    0    0 -0.86064905619E+01 -0.10010140218E+02 -0.29819317352E+02  0.32610830629E+02  0.00000000000E+00 0. -1.
</event>
<event>
 7    1  0.1427898E-010  0.4778727E+02  0.7816164E-02  0.1312668E+00
        -11   -1    0    0    0    0  0.00000000000E+00  0.00000000000E+00  0.45593999997E+02  0.45594000000E+02  0.51100000000E-03 0.  1.
         11   -1    0    0    0    0 -0.00000000000E+00 -0.00000000000E+00 -0.45593999997E+02  0.45594000000E+02  0.51100000000E-03 0. -1.
    9900012    2    1    2    0    0  0.78015836617E+01  0.91918247885E+01 -0.41692549364E+02  0.47787273934E+02  0.20000013175E+02 0.  0.
        -12    1    1    2    0    0 -0.78015836617E+01 -0.91918247885E+01  0.41692549364E+02  0.43400726066E+02  0.00000000000E+00 0.  1.
         11    1    3    3    0    0  0.24722931455E+01  0.13475863541E+00 -0.10400500202E+01  0.26855348802E+01  0.51100000000E-03 0.  1.
        -11    1    3    3    0    0  0.11171545618E+02  0.75991332787E+01 -0.28274926458E+02  0.31337225859E+02  0.51100000000E-03 0. -1.
         12    1    3    3    0    0 -0.58422551019E+01  0.14579328744E+01 -0.12377572886E+02  0.13764513195E+02  0.00000000000E+00 0. -1.
</event>
<event>
 7    1  0.1427898E-010  0.4778727E+02  0.7816164E-02  0.1312668E+00
        -11   -1    0    0    0    0  0.00000000000E+00  0.00000000000E+00  0.45593999997E+02  0.45594000000E+02  0.51100000000E-03 0.  1.
         11   -1    0    0    0    0 -0.00000000000E+00 -0.00000000000E+00 -0.45593999997E+02  0.45594000000E+02  0.51100000000E-03 0. -1.
    9900012    2    1    2    0    0 -0.17235885202E+02  0.38869686497E+02 -0.87002831910E+01  0.47787271957E+02  0.20000004159E+02 0.  0.
        -12    1    1    2    0    0  0.17235885202E+02 -0.38869686497E+02  0.87002831910E+01  0.43400728043E+02  0.00000000000E+00 0.  1.
         11    1    3    3    0    0 -0.81254036914E+01  0.14501065900E+02 -0.11419966282E+01  0.16661550166E+02  0.51100000000E-03 0.  1.
        -11    1    3    3    0    0 -0.65193363749E+01  0.25151591692E+02 -0.34570553940E+01  0.26211744384E+02  0.51100000000E-03 0. -1.
        -12    1    3    3    0    0 -0.25911451357E+01 -0.78297109465E+00 -0.41012311687E+01  0.49139774062E+01  0.00000000000E+00 0.  1.
</event>
<event>
 7    1  0.1427898E-010  0.4778729E+02  0.7816164E-02  0.1312668E+00
        -11   -1    0    0    0    0  0.00000000000E+00  0.00000000000E+00  0.45593999997E+02  0.45594000000E+02  0.51100000000E-03 0. -1.
         11   -1    0    0    0    0 -0.00000000000E+00 -0.00000000000E+00 -0.45593999997E+02  0.45594000000E+02  0.51100000000E-03 0.  1.
    9900012    2    1    2    0    0  0.13859239349E+02  0.26580816742E+02  0.31384764421E+02  0.47787288350E+02  0.20000078901E+02 0.  0.
        -12    1    1    2    0    0 -0.13859239349E+02 -0.26580816742E+02 -0.31384764421E+02  0.43400711650E+02  0.00000000000E+00 0.  1.
         11    1    3    3    0    0  0.56185125649E+01  0.58987563878E+01 -0.70705740852E+00  0.81769762629E+01  0.51100000000E-03 0. -1.
        -11    1    3    3    0    0 -0.80811461148E+00  0.43914497368E+01  0.78835436763E+01  0.90602506132E+01  0.51100000000E-03 0.  1.
         12    1    3    3    0    0  0.90488413958E+01  0.16290610617E+02  0.24208278153E+02  0.30550061473E+02  0.00000000000E+00 0. -1.
</event>
<event>
 7    1  0.1427898E-010  0.4778727E+02  0.7816164E-02  0.1312668E+00
        -11   -1    0    0    0    0  0.00000000000E+00  0.00000000000E+00  0.45593999997E+02  0.45594000000E+02  0.51100000000E-03 0. -1.
         11   -1    0    0    0    0 -0.00000000000E+00 -0.00000000000E+00 -0.45593999997E+02  0.45594000000E+02  0.51100000000E-03 0.  1.
    9900012    2    1    2    0    0  0.17034720597E+02  0.27767834008E+02  0.28677327147E+02  0.47787269549E+02  0.19999993182E+02 0.  0.
        -12    1    1    2    0    0 -0.17034720597E+02 -0.27767834008E+02 -0.28677327147E+02  0.43400730451E+02  0.00000000000E+00 0.  1.
         11    1    3    3    0    0  0.13930706714E+02  0.18462327633E+02  0.13816250066E+02  0.26940877813E+02  0.51100000000E-03 0. -1.
        -11    1    3    3    0    0 -0.11214971745E+01  0.48425881993E+01  0.22906569288E+00  0.49760313235E+01  0.51100000000E-03 0.  1.
        -12    1    3    3    0    0  0.42255110575E+01  0.44629181759E+01  0.14632011389E+02  0.15870360412E+02  0.00000000000E+00 0.  1.
</event>
<event>
 7    1  0.1427898E-010  0.4778729E+02  0.7816164E-02  0.1312668E+00
        -11   -1    0    0    0    0  0.00000000000E+00  0.00000000000E+00  0.45593999997E+02  0.45594000000E+02  0.51100000000E-03 0.  1.
         11   -1    0    0    0    0 -0.00000000000E+00 -0.00000000000E+00 -0.45593999997E+02  0.45594000000E+02  0.51100000000E-03 0. -1.
    9900012    2    1    2    0    0  0.83375213388E+01 -0.42227416951E+02  0.55634978327E+01  0.47787291335E+02  0.20000092514E+02 0.  0.
        -12    1    1    2    0    0 -0.83375213388E+01  0.42227416951E+02 -0.55634978327E+01  0.43400708665E+02  0.00000000000E+00 0.  1.
         11    1    3    3    0    0  0.11674791991E+01 -0.52592710641E+01  0.21974034989E+01  0.58182060985E+01  0.51100000000E-03 0. -1.
        -11    1    3    3    0    0  0.61950115851E+01 -0.22294464590E+01  0.29489149374E+01  0.72142012463E+01  0.51100000000E-03 0.  1.
         12    1    3    3    0    0  0.97503055465E+00 -0.34738699428E+02  0.41717939636E+00  0.34754883991E+02  0.00000000000E+00 0. -1.
</event>
<event>
 7    1  0.1427898E-010  0.4778727E+02  0.7816164E-02  0.1312668E+00
        -11   -1    0    0    0    0  0.00000000000E+00  0.00000000000E+00  0.45593999997E+02  0.45594000000E+02  0.51100000000E-03 0. -1.
         11   -1    0    0    0    0 -0.00000000000E+00 -0.00000000000E+00 -0.45593999997E+02  0.45594000000E+02  0.51100000000E-03 0.  1.
    9900012    2    1    2    0    0  0.31943520337E+02  0.27707873363E+01  0.29249916595E+02  0.47787269882E+02  0.19999994698E+02 0.  0.
        -12    1    1    2    0    0 -0.31943520337E+02 -0.27707873363E+01 -0.29249916595E+02  0.43400730118E+02  0.00000000000E+00 0.  1.
         11    1    3    3    0    0  0.78047572686E+01  0.53077931074E+00  0.89940669113E+01  0.11920117557E+02  0.51100000000E-03 0. -1.
        -11    1    3    3    0    0  0.22000588968E+02  0.53265759097E+01  0.22142268662E+02  0.31665097310E+02  0.51100000000E-03 0.  1.
        -12    1    3    3    0    0  0.21381741006E+01 -0.30865678841E+01 -0.18864189786E+01  0.42020550152E+01  0.00000000000E+00 0.  1.
</event>
<event>
 7    1  0.1989082E-010  0.4778727E+02  0.7816164E-02  0.1312668E+00
        -11   -1    0    0    0    0  0.00000000000E+00  0.00000000000E+00  0.45593999997E+02  0.45594000000E+02  0.51100000000E-03 0.  1.
         11   -1    0    0    0    0 -0.00000000000E+00 -0.00000000000E+00 -0.45593999997E+02  0.45594000000E+02  0.51100000000E-03 0. -1.
    9900012    2    1    2    0    0 -0.43372001498E+02 -0.58158425775E-01  0.15778708851E+01  0.47787267600E+02  0.19999984294E+02 0.  0.
        -12    1    1    2    0    0  0.43372001498E+02  0.58158425775E-01 -0.15778708851E+01  0.43400732400E+02  0.00000000000E+00 0.  1.
         11    1    3    3    0    0 -0.30411040686E+02 -0.44055584149E+01  0.84049690858E-01  0.30728608904E+02  0.51100000000E-03 0. -1.
        -11    1    3    3    0    0 -0.22236175041E+01 -0.14631898921E+01  0.37944835964E+01  0.46350302577E+01  0.51100000000E-03 0.  1.
        -12    1    3    3    0    0 -0.10737343308E+02  0.58105898813E+01 -0.23006624022E+01  0.12423628438E+02  0.00000000000E+00 0.  1.
</event>
<event>
 7    1  0.1427898E-010  0.4778727E+02  0.7816164E-02  0.1312668E+00
        -11   -1    0    0    0    0  0.00000000000E+00  0.00000000000E+00  0.45593999997E+02  0.45594000000E+02  0.51100000000E-03 0.  1.
         11   -1    0    0    0    0 -0.00000000000E+00 -0.00000000000E+00 -0.45593999997E+02  0.45594000000E+02  0.51100000000E-03 0. -1.
    9900012    2    1    2    0    0  0.31348564157E+02 -0.15943418726E+02 -0.25430264746E+02  0.47787269126E+02  0.19999991253E+02 0.  0.
        -12    1    1    2    0    0 -0.31348564157E+02  0.15943418726E+02  0.25430264746E+02  0.43400730874E+02  0.00000000000E+00 0.  1.
         11    1    3    3    0    0  0.24765762833E+02 -0.17033874071E+02 -0.25386427137E+02  0.39344206150E+02  0.51100000000E-03 0. -1.
        -11    1    3    3    0    0  0.60024497873E+01  0.15694016631E+01 -0.18601280381E+01  0.64770750813E+01  0.51100000000E-03 0.  1.
        -12    1    3    3    0    0  0.58035153600E+00 -0.47894631752E+00  0.18162904285E+01  0.19659878944E+01  0.00000000000E+00 0.  1.
</event>
<event>
 7    1  0.1427898E-010  0.4778727E+02  0.7816164E-02  0.1312668E+00
        -11   -1    0    0    0    0  0.00000000000E+00  0.00000000000E+00  0.45593999997E+02  0.45594000000E+02  0.51100000000E-03 0. -1.
         11   -1    0    0    0    0 -0.00000000000E+00 -0.00000000000E+00 -0.45593999997E+02  0.45594000000E+02  0.51100000000E-03 0.  1.
    9900012    2    1    2    0    0 -0.59880114145E+01  0.60226989961E+01  0.42561651583E+02  0.47787269944E+02  0.19999994982E+02 0.  0.
        -12    1    1    2    0    0  0.59880114145E+01 -0.60226989961E+01 -0.42561651583E+02  0.43400730056E+02  0.00000000000E+00 0.  1.
         11    1    3    3    0    0  0.25873189300E+01 -0.37111989393E+01  0.10691477215E+02  0.11609259326E+02  0.51100000000E-03 0.  1.
        -11    1    3    3    0    0 -0.50536981204E+01  0.33283631767E+01  0.26301736504E+02  0.26988871957E+02  0.51100000000E-03 0. -1.
        -12    1    3    3    0    0 -0.35216322241E+01  0.64055347587E+01  0.55684378645E+01  0.91891386602E+01  0.00000000000E+00 0.  1.
</event>
<event>
 7    1  0.1427898E-010  0.4778727E+02  0.7816164E-02  0.1312668E+00
        -11   -1    0    0    0    0  0.00000000000E+00  0.00000000000E+00  0.45593999997E+02  0.45594000000E+02  0.51100000000E-03 0. -1.
         11   -1    0    0    0    0 -0.00000000000E+00 -0.00000000000E+00 -0.45593999997E+02  0.45594000000E+02  0.51100000000E-03 0.  1.
    9900012    2    1    2    0    0  0.48732235371E+01 -0.34001043463E+02  0.26529313870E+02  0.47787265460E+02  0.19999974537E+02 0.  0.
        -12    1    1    2    0    0 -0.48732235371E+01  0.34001043463E+02 -0.26529313870E+02  0.43400734540E+02  0.00000000000E+00 0.  1.
         11    1    3    3    0    0 -0.36014882510E+01 -0.18715576787E+02  0.21588140578E+02  0.28797419085E+02  0.51100000000E-03 0. -1.
        -11    1    3    3    0    0  0.55345864931E+01 -0.88272275659E+01  0.56610124092E+01  0.11857430409E+02  0.51100000000E-03 0.  1.
        -12    1    3    3    0    0  0.29401252950E+01 -0.64582391101E+01 -0.71983911666E+00  0.71324159657E+01  0.00000000000E+00 0.  1.
</event>
<event>
 7    1  0.1427898E-010  0.4778727E+02  0.7816164E-02  0.1312668E+00
        -11   -1    0    0    0    0  0.00000000000E+00  0.00000000000E+00  0.45593999997E+02  0.45594000000E+02  0.51100000000E-03 0.  1.
         11   -1    0    0    0    0 -0.00000000000E+00 -0.00000000000E+00 -0.45593999997E+02  0.45594000000E+02  0.51100000000E-03 0. -1.
    9900012    2    1    2    0    0 -0.13616876582E+02  0.52602524075E+01 -0.40872163631E+02  0.47787270246E+02  0.19999996361E+02 0.  0.
        -12    1    1    2    0    0  0.13616876582E+02 -0.52602524075E+01  0.40872163631E+02  0.43400729754E+02  0.00000000000E+00 0.  1.
         11    1    3    3    0    0 -0.56600389355E+01  0.51307721313E+01 -0.62883586356E+01  0.98946610860E+01  0.51100000000E-03 0. -1.
        -11    1    3    3    0    0 -0.24509043573E+01 -0.10960305328E+01 -0.31198996481E+02  0.31314303390E+02  0.51100000000E-03 0.  1.
         12    1    3    3    0    0 -0.55059332893E+01  0.12255108090E+01 -0.33848085144E+01  0.65783057704E+01  0.00000000000E+00 0. -1.
</event>
<event>
 7    1  0.1427898E-010  0.4778727E+02  0.7816164E-02  0.1312668E+00
        -11   -1    0    0    0    0  0.00000000000E+00  0.00000000000E+00  0.45593999997E+02  0.45594000000E+02  0.51100000000E-03 0. -1.
         11   -1    0    0    0    0 -0.00000000000E+00 -0.00000000000E+00 -0.45593999997E+02  0.45594000000E+02  0.51100000000E-03 0.  1.
    9900012    2    1    2    0    0 -0.98454297452E+01  0.41988966442E+02  0.48597989617E+01  0.47787269180E+02  0.19999991500E+02 0.  0.
        -12    1    1    2    0    0  0.98454297452E+01 -0.41988966442E+02 -0.48597989617E+01  0.43400730820E+02  0.00000000000E+00 0.  1.
         11    1    3    3    0    0 -0.48943810990E+01  0.66094328434E+01  0.52275613331E+01  0.97450996201E+01  0.51100000000E-03 0. -1.
        -11    1    3    3    0    0  0.12550644583E+01  0.47874793397E+00  0.21166768158E+01  0.25069318663E+01  0.51100000000E-03 0.  1.
        -12    1    3    3    0    0 -0.62061131045E+01  0.34900785665E+02 -0.24844391871E+01  0.35535237694E+02  0.00000000000E+00 0.  1.
</event>
<event>
 7    1  0.1427898E-010  0.4778722E+02  0.7816164E-02  0.1312668E+00
        -11   -1    0    0    0    0  0.00000000000E+00  0.00000000000E+00  0.45593999997E+02  0.45594000000E+02  0.51100000000E-03 0.  1.
         11   -1    0    0    0    0 -0.00000000000E+00 -0.00000000000E+00 -0.45593999997E+02  0.45594000000E+02  0.51100000000E-03 0. -1.
    9900012    2    1    2    0    0  0.23946547735E+02  0.35559731944E+02 -0.67598946195E+01  0.47787218214E+02  0.19999759124E+02 0.  0.
        -12    1    1    2    0    0 -0.23946547735E+02 -0.35559731944E+02  0.67598946195E+01  0.43400781786E+02  0.00000000000E+00 0.  1.
         11    1    3    3    0    0  0.60117121699E+01  0.28156583007E+01  0.13908619476E+01  0.67825594062E+01  0.51100000000E-03 0. -1.
        -11    1    3    3    0    0  0.86347170398E+01  0.12797542257E+02 -0.10795511705E+02  0.18838219115E+02  0.51100000000E-03 0.  1.
        -12    1    3    3    0    0  0.93001185256E+01  0.19946531386E+02  0.26447551379E+01  0.22166439693E+02  0.00000000000E+00 0.  1.
</event>
<event>
 7    1  0.1427898E-010  0.4778727E+02  0.7816164E-02  0.1312668E+00
        -11   -1    0    0    0    0  0.00000000000E+00  0.00000000000E+00  0.45593999997E+02  0.45594000000E+02  0.51100000000E-03 0. -1.
         11   -1    0    0    0    0 -0.00000000000E+00 -0.00000000000E+00 -0.45593999997E+02  0.45594000000E+02  0.51100000000E-03 0.  1.
    9900012    2    1    2    0    0  0.15642893605E+02 -0.20842312576E+02  0.34706208068E+02  0.47787274289E+02  0.20000014793E+02 0.  0.
        -12    1    1    2    0    0 -0.15642893605E+02  0.20842312576E+02 -0.34706208068E+02  0.43400725711E+02  0.00000000000E+00 0.  1.
         11    1    3    3    0    0 -0.54494358616E+00 -0.90601840339E+00  0.51257037174E+01  0.52336098172E+01  0.51100000000E-03 0.  1.
        -11    1    3    3    0    0  0.18931964611E+02 -0.16410888658E+02  0.20272451282E+02  0.32229006063E+02  0.51100000000E-03 0. -1.
         12    1    3    3    0    0 -0.27441274199E+01 -0.35254055139E+01  0.93080530678E+01  0.10324658408E+02  0.00000000000E+00 0. -1.
</event>
<event>
 7    1  0.1427898E-010  0.4778727E+02  0.7816164E-02  0.1312668E+00
        -11   -1    0    0    0    0  0.00000000000E+00  0.00000000000E+00  0.45593999997E+02  0.45594000000E+02  0.51100000000E-03 0. -1.
         11   -1    0    0    0    0 -0.00000000000E+00 -0.00000000000E+00 -0.45593999997E+02  0.45594000000E+02  0.51100000000E-03 0.  1.
    9900012    2    1    2    0    0 -0.37688156800E+01 -0.14139239812E+02  0.40859532728E+02  0.47787268568E+02  0.19999988709E+02 0.  0.
        -12    1    1    2    0    0  0.37688156800E+01  0.14139239812E+02 -0.40859532728E+02  0.43400731432E+02  0.00000000000E+00 0.  1.
         11    1    3    3    0    0 -0.34607851633E+01 -0.10569241635E+02  0.36186515664E+02  0.37856965262E+02  0.51100000000E-03 0. -1.
        -11    1    3    3    0    0 -0.14984253684E+01  0.23058246661E+01  0.17595031752E+01  0.32646527626E+01  0.51100000000E-03 0.  1.
         12    1    3    3    0    0  0.11903948517E+01 -0.58758228431E+01  0.29135138884E+01  0.66656505432E+01  0.00000000000E+00 0. -1.
</event>
<event>
 7    1  0.1427898E-010  0.4778729E+02  0.7816164E-02  0.1312668E+00
        -11   -1    0    0    0    0  0.00000000000E+00  0.00000000000E+00  0.45593999997E+02  0.45594000000E+02  0.51100000000E-03 0.  1.
         11   -1    0    0    0    0 -0.00000000000E+00 -0.00000000000E+00 -0.45593999997E+02  0.45594000000E+02  0.51100000000E-03 0. -1.
    9900012    2    1    2    0    0  0.17248048546E+02 -0.22096721539E+02 -0.33133991803E+02  0.47787289243E+02  0.20000082975E+02 0.  0.
        -12    1    1    2    0    0 -0.17248048546E+02  0.22096721539E+02  0.33133991803E+02  0.43400710757E+02  0.00000000000E+00 0.  1.
         11    1    3    3    0    0  0.15814265256E+02 -0.14916168138E+02 -0.19019832964E+02  0.28884894041E+02  0.51100000000E-03 0. -1.
        -11    1    3    3    0    0  0.45446436910E+00 -0.63212160428E+01 -0.18961451847E+01  0.66151097455E+01  0.51100000000E-03 0.  1.
        -12    1    3    3    0    0  0.97931892088E+00 -0.85933735795E+00 -0.12218013654E+02  0.12287285457E+02  0.00000000000E+00 0.  1.
</event>
<event>
 7    1  0.1427898E-010  0.4778726E+02  0.7816164E-02  0.1312668E+00
        -11   -1    0    0    0    0  0.00000000000E+00  0.00000000000E+00  0.45593999997E+02  0.45594000000E+02  0.51100000000E-03 0. -1.
         11   -1    0    0    0    0 -0.00000000000E+00 -0.00000000000E+00 -0.45593999997E+02  0.45594000000E+02  0.51100000000E-03 0.  1.
    9900012    2    1    2    0    0 -0.70532263936E+01  0.32694714697E+02  0.27657408522E+02  0.47787255561E+02  0.19999929407E+02 0.  0.
        -12    1    1    2    0    0  0.70532263936E+01 -0.32694714697E+02 -0.27657408522E+02  0.43400744439E+02  0.00000000000E+00 0.  1.
         11    1    3    3    0    0  0.38842915604E+01  0.68722961584E+01  0.40583384131E+01  0.88761639435E+01  0.51100000000E-03 0. -1.
        -11    1    3    3    0    0 -0.45321751132E+01  0.29666322186E+01  0.10463686946E+02  0.11782625461E+02  0.51100000000E-03 0.  1.
         12    1    3    3    0    0 -0.64053428408E+01  0.22855786320E+02  0.13135383162E+02  0.27128466157E+02  0.00000000000E+00 0. -1.
</event>
<event>
 7    1  0.1427898E-010  0.4778726E+02  0.7816164E-02  0.1312668E+00
        -11   -1    0    0    0    0  0.00000000000E+00  0.00000000000E+00  0.45593999997E+02  0.45594000000E+02  0.51100000000E-03 0. -1.
         11   -1    0    0    0    0 -0.00000000000E+00 -0.00000000000E+00 -0.45593999997E+02  0.45594000000E+02  0.51100000000E-03 0.  1.
    9900012    2    1    2    0    0 -0.15530728292E+02  0.12006357148E+02  0.38707465077E+02  0.47787262841E+02  0.19999962595E+02 0.  0.
        -12    1    1    2    0    0  0.15530728292E+02 -0.12006357148E+02 -0.38707465077E+02  0.43400737159E+02  0.00000000000E+00 0.  1.
         11    1    3    3    0    0 -0.93032425678E+01 -0.23811220662E+01  0.19214166239E+02  0.21480322369E+02  0.51100000000E-03 0. -1.
        -11    1    3    3    0    0  0.57737532729E+00  0.48399255114E+01  0.10344751812E+02  0.11435564330E+02  0.51100000000E-03 0.  1.
         12    1    3    3    0    0 -0.68048610518E+01  0.95475537032E+01  0.91485470262E+01  0.14871376142E+02  0.00000000000E+00 0. -1.
</event>
<event>
 7    1  0.1427898E-010  0.4778727E+02  0.7816164E-02  0.1312668E+00
        -11   -1    0    0    0    0  0.00000000000E+00  0.00000000000E+00  0.45593999997E+02  0.45594000000E+02  0.51100000000E-03 0.  1.
         11   -1    0    0    0    0 -0.00000000000E+00 -0.00000000000E+00 -0.45593999997E+02  0.45594000000E+02  0.51100000000E-03 0. -1.
    9900012    2    1    2    0    0  0.30451171435E+02 -0.82513666183E+01 -0.29803770873E+02  0.47787266699E+02  0.19999980189E+02 0.  0.
        -12    1    1    2    0    0 -0.30451171435E+02  0.82513666183E+01  0.29803770873E+02  0.43400733301E+02  0.00000000000E+00 0.  1.
         11    1    3    3    0    0  0.33209376947E+02 -0.68638990583E+01 -0.26306811655E+02  0.42918809015E+02  0.51100000000E-03 0. -1.
        -11    1    3    3    0    0 -0.67035852053E+00 -0.31506831552E+00 -0.18733471115E+01  0.20144672374E+01  0.51100000000E-03 0.  1.
         12    1    3    3    0    0 -0.20878469923E+01 -0.10723992445E+01 -0.16236121057E+01  0.28539904472E+01  0.00000000000E+00 0. -1.
</event>
<event>
 7    1  0.1427898E-010  0.4778727E+02  0.7816164E-02  0.1312668E+00
        -11   -1    0    0    0    0  0.00000000000E+00  0.00000000000E+00  0.45593999997E+02  0.45594000000E+02  0.51100000000E-03 0. -1.
         11   -1    0    0    0    0 -0.00000000000E+00 -0.00000000000E+00 -0.45593999997E+02  0.45594000000E+02  0.51100000000E-03 0.  1.
    9900012    2    1    2    0    0  0.11107331647E+02  0.17595994422E+02 -0.38087158381E+02  0.47787268790E+02  0.19999989722E+02 0.  0.
        -12    1    1    2    0    0 -0.11107331647E+02 -0.17595994422E+02  0.38087158381E+02  0.43400731210E+02  0.00000000000E+00 0.  1.
         11    1    3    3    0    0  0.56315008528E+01  0.10570371559E+01 -0.20503106915E+02  0.21288694719E+02  0.51100000000E-03 0.  1.
        -11    1    3    3    0    0  0.47884389827E+01  0.53862456999E+01 -0.22990242695E+01  0.75648069033E+01  0.51100000000E-03 0. -1.
        -12    1    3    3    0    0  0.68739181179E+00  0.11152711566E+02 -0.15285027196E+02  0.18933767168E+02  0.00000000000E+00 0.  1.
</event>
<event>
 7    1  0.1427898E-010  0.4778728E+02  0.7816164E-02  0.1312668E+00
        -11   -1    0    0    0    0  0.00000000000E+00  0.00000000000E+00  0.45593999997E+02  0.45594000000E+02  0.51100000000E-03 0.  1.
         11   -1    0    0    0    0 -0.00000000000E+00 -0.00000000000E+00 -0.45593999997E+02  0.45594000000E+02  0.51100000000E-03 0. -1.
    9900012    2    1    2    0    0 -0.27579291263E+02 -0.29776011392E+01 -0.33378728214E+02  0.47787275210E+02  0.20000018991E+02 0.  0.
        -12    1    1    2    0    0  0.27579291263E+02  0.29776011392E+01  0.33378728214E+02  0.43400724790E+02  0.00000000000E+00 0.  1.
         11    1    3    3    0    0 -0.64938290744E+01  0.17941786801E+00 -0.27837380402E+01  0.70676166107E+01  0.51100000000E-03 0. -1.
        -11    1    3    3    0    0 -0.15652382290E+02  0.12157573610E+01 -0.91549823399E+01  0.18173850424E+02  0.51100000000E-03 0.  1.
        -12    1    3    3    0    0 -0.54330798986E+01 -0.43727763681E+01 -0.21440007834E+02  0.22545808175E+02  0.00000000000E+00 0.  1.
</event>
<event>
 7    1  0.1427898E-010  0.4778727E+02  0.7816164E-02  0.1312668E+00
        -11   -1    0    0    0    0  0.00000000000E+00  0.00000000000E+00  0.45593999997E+02  0.45594000000E+02  0.51100000000E-03 0.  1.
         11   -1    0    0    0    0 -0.00000000000E+00 -0.00000000000E+00 -0.45593999997E+02  0.45594000000E+02  0.51100000000E-03 0. -1.
    9900012    2    1    2    0    0  0.42015131593E+02  0.10168581909E+02  0.38667581535E+01  0.47787272363E+02  0.20000006013E+02 0.  0.
        -12    1    1    2    0    0 -0.42015131593E+02 -0.10168581909E+02 -0.38667581535E+01  0.43400727637E+02  0.00000000000E+00 0.  1.
         11    1    3    3    0    0  0.14058309427E+02  0.65997237996E+01 -0.70180351306E+00  0.15546219689E+02  0.51100000000E-03 0. -1.
        -11    1    3    3    0    0  0.63953108571E+01 -0.51229918980E-01  0.78580116303E+01  0.10131681623E+02  0.51100000000E-03 0.  1.
         12    1    3    3    0    0  0.21561511308E+02  0.36200880281E+01 -0.32894499638E+01  0.22109371052E+02  0.00000000000E+00 0. -1.
</event>
<event>
 7    1  0.1427898E-010  0.4778727E+02  0.7816164E-02  0.1312668E+00
        -11   -1    0    0    0    0  0.00000000000E+00  0.00000000000E+00  0.45593999997E+02  0.45594000000E+02  0.51100000000E-03 0.  1.
         11   -1    0    0    0    0 -0.00000000000E+00 -0.00000000000E+00 -0.45593999997E+02  0.45594000000E+02  0.51100000000E-03 0. -1.
    9900012    2    1    2    0    0  0.28703419790E+02  0.17587049906E+02 -0.27394024538E+02  0.47787271753E+02  0.20000003229E+02 0.  0.
        -12    1    1    2    0    0 -0.28703419790E+02 -0.17587049906E+02  0.27394024538E+02  0.43400728247E+02  0.00000000000E+00 0.  1.
         11    1    3    3    0    0  0.29184104970E+02  0.17563219793E+02 -0.22869070112E+02  0.41026491934E+02  0.51100000000E-03 0. -1.
        -11    1    3    3    0    0  0.17177237971E+01 -0.13090142666E+01 -0.32212790040E+01  0.38782382696E+01  0.51100000000E-03 0.  1.
        -12    1    3    3    0    0 -0.21984089775E+01  0.13328443800E+01 -0.13036754220E+01  0.28825415486E+01  0.00000000000E+00 0.  1.
</event>
<event>
 7    1  0.1427898E-010  0.4778727E+02  0.7816164E-02  0.1312668E+00
        -11   -1    0    0    0    0  0.00000000000E+00  0.00000000000E+00  0.45593999997E+02  0.45594000000E+02  0.51100000000E-03 0.  1.
         11   -1    0    0    0    0 -0.00000000000E+00 -0.00000000000E+00 -0.45593999997E+02  0.45594000000E+02  0.51100000000E-03 0. -1.
    9900012    2    1    2    0    0  0.34656634667E+02  0.35430090072E+01 -0.25884126669E+02  0.47787271289E+02  0.20000001113E+02 0.  0.
        -12    1    1    2    0    0 -0.34656634667E+02 -0.35430090072E+01  0.25884126669E+02  0.43400728711E+02  0.00000000000E+00 0.  1.
         11    1    3    3    0    0  0.76058233793E+01 -0.36683994810E+01 -0.87426562364E+01  0.12154823831E+02  0.51100000000E-03 0. -1.
        -11    1    3    3    0    0  0.17883076228E+02  0.79032054916E+01 -0.17765651906E+02  0.26417483989E+02  0.51100000000E-03 0.  1.
        -12    1    3    3    0    0  0.91677350597E+01 -0.69179700347E+00  0.62418147293E+00  0.92149634687E+01  0.00000000000E+00 0.  1.
</event>
<event>
 7    1  0.1427898E-010  0.4778725E+02  0.7816164E-02  0.1312668E+00
        -11   -1    0    0    0    0  0.00000000000E+00  0.00000000000E+00  0.45593999997E+02  0.45594000000E+02  0.51100000000E-03 0. -1.
         11   -1    0    0    0    0 -0.00000000000E+00 -0.00000000000E+00 -0.45593999997E+02  0.45594000000E+02  0.51100000000E-03 0.  1.
    9900012    2    1    2    0    0 -0.63078208843E+01 -0.33772728352E+02  0.26518651855E+02  0.47787254836E+02  0.19999926097E+02 0.  0.
        -12    1    1    2    0    0  0.63078208843E+01  0.33772728352E+02 -0.26518651855E+02  0.43400745164E+02  0.00000000000E+00 0.  1.
         11    1    3    3    0    0  0.17548237538E+01 -0.10418323771E+02  0.32696871610E+01  0.11059463414E+02  0.51100000000E-03 0. -1.
        -11    1    3    3    0    0 -0.86283656389E+01 -0.11357566086E+02  0.19473154475E+02  0.24138076694E+02  0.51100000000E-03 0.  1.
        -12    1    3    3    0    0  0.56572100079E+00 -0.11996838495E+02  0.37758102182E+01  0.12589714728E+02  0.00000000000E+00 0.  1.
</event>
<event>
 7    1  0.1427898E-010  0.4778725E+02  0.7816164E-02  0.1312668E+00
        -11   -1    0    0    0    0  0.00000000000E+00  0.00000000000E+00  0.45593999997E+02  0.45594000000E+02  0.51100000000E-03 0. -1.
         11   -1    0    0    0    0 -0.00000000000E+00 -0.00000000000E+00 -0.45593999997E+02  0.45594000000E+02  0.51100000000E-03 0.  1.
    9900012    2    1    2    0    0  0.11580691954E+02 -0.36274666846E+02  0.20824538657E+02  0.47787247804E+02  0.19999894035E+02 0.  0.
        -12    1    1    2    0    0 -0.11580691954E+02  0.36274666846E+02 -0.20824538657E+02  0.43400752196E+02  0.00000000000E+00 0.  1.
         11    1    3    3    0    0  0.51289608667E+01 -0.25523711595E+02  0.21759543871E+02  0.33929984423E+02  0.51100000000E-03 0. -1.
        -11    1    3    3    0    0 -0.80364958739E+00 -0.22950117434E+01 -0.12010976012E+01  0.27121149073E+01  0.51100000000E-03 0.  1.
         12    1    3    3    0    0  0.72553806747E+01 -0.84559435075E+01  0.26609238667E+00  0.11145148473E+02  0.00000000000E+00 0. -1.
</event>
<event>
 7    1  0.1427898E-010  0.4778726E+02  0.7816164E-02  0.1312668E+00
        -11   -1    0    0    0    0  0.00000000000E+00  0.00000000000E+00  0.45593999997E+02  0.45594000000E+02  0.51100000000E-03 0.  1.
         11   -1    0    0    0    0 -0.00000000000E+00 -0.00000000000E+00 -0.45593999997E+02  0.45594000000E+02  0.51100000000E-03 0. -1.
    9900012    2    1    2    0    0  0.18424460717E+01  0.24164768535E+02 -0.36004074339E+02  0.47787262508E+02  0.19999961079E+02 0.  0.
        -12    1    1    2    0    0 -0.18424460717E+01 -0.24164768535E+02  0.36004074339E+02  0.43400737492E+02  0.00000000000E+00 0.  1.
         11    1    3    3    0    0 -0.12926069729E+01  0.15608651488E+02 -0.16082344942E+02  0.22448667069E+02  0.51100000000E-03 0. -1.
        -11    1    3    3    0    0 -0.45636291905E+01  0.59810676467E+01 -0.10167029730E+02  0.12647860505E+02  0.51100000000E-03 0.  1.
         12    1    3    3    0    0  0.76986822352E+01  0.25750493999E+01 -0.97546996669E+01  0.12690734934E+02  0.00000000000E+00 0. -1.
</event>
<event>
 7    1  0.1427898E-010  0.4778727E+02  0.7816164E-02  0.1312668E+00
        -11   -1    0    0    0    0  0.00000000000E+00  0.00000000000E+00  0.45593999997E+02  0.45594000000E+02  0.51100000000E-03 0.  1.
         11   -1    0    0    0    0 -0.00000000000E+00 -0.00000000000E+00 -0.45593999997E+02  0.45594000000E+02  0.51100000000E-03 0. -1.
    9900012    2    1    2    0    0  0.22120270150E+02 -0.20490943847E+02 -0.31215991593E+02  0.47787271177E+02  0.20000000602E+02 0.  0.
        -12    1    1    2    0    0 -0.22120270150E+02  0.20490943847E+02  0.31215991593E+02  0.43400728823E+02  0.00000000000E+00 0.  1.
         11    1    3    3    0    0  0.46960870689E+01 -0.10346913464E+02 -0.99053248558E+01  0.15074060924E+02  0.51100000000E-03 0. -1.
        -11    1    3    3    0    0  0.19079056245E+02 -0.86597847634E+01 -0.14322103800E+02  0.25379616169E+02  0.51100000000E-03 0.  1.
        -12    1    3    3    0    0 -0.16548731638E+01 -0.14842456192E+01 -0.69885629377E+01  0.73335940834E+01  0.00000000000E+00 0.  1.
</event>
<event>
 7    1  0.1427898E-010  0.4778727E+02  0.7816164E-02  0.1312668E+00
        -11   -1    0    0    0    0  0.00000000000E+00  0.00000000000E+00  0.45593999997E+02  0.45594000000E+02  0.51100000000E-03 0. -1.
         11   -1    0    0    0    0 -0.00000000000E+00 -0.00000000000E+00 -0.45593999997E+02  0.45594000000E+02  0.51100000000E-03 0.  1.
    9900012    2    1    2    0    0  0.31759220895E+02 -0.17634014528E+02  0.23749041134E+02  0.47787268036E+02  0.19999986282E+02 0.  0.
        -12    1    1    2    0    0 -0.31759220895E+02  0.17634014528E+02 -0.23749041134E+02  0.43400731964E+02  0.00000000000E+00 0.  1.
         11    1    3    3    0    0  0.25689198697E+02 -0.15630213104E+02  0.16697186618E+02  0.34395269044E+02  0.51100000000E-03 0. -1.
        -11    1    3    3    0    0  0.19172729143E+01 -0.31728083246E+01  0.81385584703E+01  0.89430857274E+01  0.51100000000E-03 0.  1.
        -12    1    3    3    0    0  0.41527492841E+01  0.11690069007E+01 -0.10867039546E+01  0.44489132645E+01  0.00000000000E+00 0.  1.
</event>
<event>
 7    1  0.1427898E-010  0.4778728E+02  0.7816164E-02  0.1312668E+00
        -11   -1    0    0    0    0  0.00000000000E+00  0.00000000000E+00  0.45593999997E+02  0.45594000000E+02  0.51100000000E-03 0.  1.
         11   -1    0    0    0    0 -0.00000000000E+00 -0.00000000000E+00 -0.45593999997E+02  0.45594000000E+02  0.51100000000E-03 0. -1.
    9900012    2    1    2    0    0 -0.12052998151E+02  0.24075170053E+02 -0.34040184941E+02  0.47787276869E+02  0.20000026555E+02 0.  0.
        -12    1    1    2    0    0  0.12052998151E+02 -0.24075170053E+02  0.34040184941E+02  0.43400723131E+02  0.00000000000E+00 0.  1.
         11    1    3    3    0    0 -0.84898578059E+01  0.19649267872E+02 -0.17314268631E+02  0.27530988212E+02  0.51100000000E-03 0. -1.
        -11    1    3    3    0    0  0.30003752172E+01  0.23220271438E+01 -0.27909628544E+01  0.47099400651E+01  0.51100000000E-03 0.  1.
        -12    1    3    3    0    0 -0.65635155625E+01  0.21038750373E+01 -0.13934953456E+02  0.15546348591E+02  0.00000000000E+00 0.  1.
</event>
<event>
 7    1  0.1427898E-010  0.4778727E+02  0.7816164E-02  0.1312668E+00
        -11   -1    0    0    0    0  0.00000000000E+00  0.00000000000E+00  0.45593999997E+02  0.45594000000E+02  0.51100000000E-03 0.  1.
         11   -1    0    0    0    0 -0.00000000000E+00 -0.00000000000E+00 -0.45593999997E+02  0.45594000000E+02  0.51100000000E-03 0. -1.
    9900012    2    1    2    0    0  0.25165670064E+02 -0.29970701555E+02 -0.18763512148E+02  0.47787270863E+02  0.19999999173E+02 0.  0.
        -12    1    1    2    0    0 -0.25165670064E+02  0.29970701555E+02  0.18763512148E+02  0.43400729137E+02  0.00000000000E+00 0.  1.
         11    1    3    3    0    0  0.25127793067E+01 -0.45664483713E+01 -0.42522135944E+01  0.67266508223E+01  0.51100000000E-03 0. -1.
        -11    1    3    3    0    0  0.82090225662E+01 -0.19021075096E+02 -0.18113941164E+01  0.20795925038E+02  0.51100000000E-03 0.  1.
        -12    1    3    3    0    0  0.14443868191E+02 -0.63831780886E+01 -0.12699904437E+02  0.20264695003E+02  0.00000000000E+00 0.  1.
</event>
<event>
 7    1  0.1427898E-010  0.4778723E+02  0.7816164E-02  0.1312668E+00
        -11   -1    0    0    0    0  0.00000000000E+00  0.00000000000E+00  0.45593999997E+02  0.45594000000E+02  0.51100000000E-03 0.  1.
         11   -1    0    0    0    0 -0.00000000000E+00 -0.00000000000E+00 -0.45593999997E+02  0.45594000000E+02  0.51100000000E-03 0. -1.
    9900012    2    1    2    0    0 -0.17380025004E+02 -0.29431025922E+02 -0.26746515374E+02  0.47787232258E+02  0.19999823155E+02 0.  0.
        -12    1    1    2    0    0  0.17380025004E+02  0.29431025922E+02  0.26746515374E+02  0.43400767742E+02  0.00000000000E+00 0.  1.
         11    1    3    3    0    0 -0.92227759760E+01 -0.88342292965E+01 -0.17487560102E+02  0.21654513676E+02  0.51100000000E-03 0. -1.
        -11    1    3    3    0    0 -0.52760590441E+01 -0.27862165892E+01 -0.26329536329E+00  0.59723635713E+01  0.51100000000E-03 0.  1.
        -12    1    3    3    0    0 -0.28811899842E+01 -0.17810580036E+02 -0.89956599087E+01  0.20160355011E+02  0.00000000000E+00 0.  1.
</event>
<event>
 7    1  0.1427898E-010  0.4778730E+02  0.7816164E-02  0.1312668E+00
        -11   -1    0    0    0    0  0.00000000000E+00  0.00000000000E+00  0.45593999997E+02  0.45594000000E+02  0.51100000000E-03 0.  1.
         11   -1    0    0    0    0 -0.00000000000E+00 -0.00000000000E+00 -0.45593999997E+02  0.45594000000E+02  0.51100000000E-03 0. -1.
    9900012    2    1    2    0    0 -0.28392460214E+02  0.40551166321E+01 -0.32573683247E+02  0.47787301755E+02  0.20000140020E+02 0.  0.
        -12    1    1    2    0    0  0.28392460214E+02 -0.40551166321E+01  0.32573683247E+02  0.43400698245E+02  0.00000000000E+00 0.  1.
         11    1    3    3    0    0 -0.30397507358E+01  0.53966544894E+01 -0.53768463891E+01  0.82020998267E+01  0.51100000000E-03 0.  1.
        -11    1    3    3    0    0 -0.16690797383E+02 -0.23465209218E+01 -0.25705461520E+02  0.30738569094E+02  0.51100000000E-03 0. -1.
         12    1    3    3    0    0 -0.86619120956E+01  0.10049830646E+01 -0.14913753379E+01  0.88466328346E+01  0.00000000000E+00 0. -1.
</event>
<event>
 7    1  0.1427898E-010  0.4778727E+02  0.7816164E-02  0.1312668E+00
        -11   -1    0    0    0    0  0.00000000000E+00  0.00000000000E+00  0.45593999997E+02  0.45594000000E+02  0.51100000000E-03 0.  1.
         11   -1    0    0    0    0 -0.00000000000E+00 -0.00000000000E+00 -0.45593999997E+02  0.45594000000E+02  0.51100000000E-03 0. -1.
    9900012    2    1    2    0    0  0.21730828466E+02 -0.81562405392E+01 -0.36672469564E+02  0.47787272016E+02  0.20000004430E+02 0.  0.
        -12    1    1    2    0    0 -0.21730828466E+02  0.81562405392E+01  0.36672469564E+02  0.43400727984E+02  0.00000000000E+00 0.  1.
         11    1    3    3    0    0  0.21048389327E+02 -0.62600857020E+01 -0.33756634078E+02  0.40270755031E+02  0.51100000000E-03 0. -1.
        -11    1    3    3    0    0  0.11685998332E+01  0.23652362694E+01 -0.10586186325E+01  0.28426469796E+01  0.51100000000E-03 0.  1.
         12    1    3    3    0    0 -0.48616069379E+00 -0.42613911066E+01 -0.18572168543E+01  0.46738700054E+01  0.00000000000E+00 0. -1.
</event>
<event>
 7    1  0.1427898E-010  0.4778728E+02  0.7816164E-02  0.1312668E+00
        -11   -1    0    0    0    0  0.00000000000E+00  0.00000000000E+00  0.45593999997E+02  0.45594000000E+02  0.51100000000E-03 0.  1.
         11   -1    0    0    0    0 -0.00000000000E+00 -0.00000000000E+00 -0.45593999997E+02  0.45594000000E+02  0.51100000000E-03 0. -1.
    9900012    2    1    2    0    0  0.19716000665E+02 -0.38569906360E+02 -0.26952640150E+01  0.47787276423E+02  0.20000024525E+02 0.  0.
        -12    1    1    2    0    0 -0.19716000665E+02  0.38569906360E+02  0.26952640150E+01  0.43400723577E+02  0.00000000000E+00 0.  1.
         11    1    3    3    0    0  0.65210128439E+01 -0.17068038439E+02  0.35369734815E+01  0.18610527298E+02  0.51100000000E-03 0. -1.
        -11    1    3    3    0    0 -0.86096901893E+00 -0.88264583241E+01 -0.50669370987E+01  0.10213789014E+02  0.51100000000E-03 0.  1.
         12    1    3    3    0    0  0.14055956840E+02 -0.12675409597E+02 -0.11653003978E+01  0.18962960111E+02  0.00000000000E+00 0. -1.
</event>
<event>
 7    1  0.1427898E-010  0.4778726E+02  0.7816164E-02  0.1312668E+00
        -11   -1    0    0    0    0  0.00000000000E+00  0.00000000000E+00  0.45593999997E+02  0.45594000000E+02  0.51100000000E-03 0.  1.
         11   -1    0    0    0    0 -0.00000000000E+00 -0.00000000000E+00 -0.45593999997E+02  0.45594000000E+02  0.51100000000E-03 0. -1.
    9900012    2    1    2    0    0 -0.17380026080E+02 -0.93710613410E+00 -0.39757775377E+02  0.47787260635E+02  0.19999952541E+02 0.  0.
        -12    1    1    2    0    0  0.17380026080E+02  0.93710613410E+00  0.39757775377E+02  0.43400739365E+02  0.00000000000E+00 0.  1.
         11    1    3    3    0    0 -0.12093363768E+02  0.35279061538E+00 -0.10428224080E+02  0.15972531614E+02  0.51100000000E-03 0. -1.
        -11    1    3    3    0    0 -0.55377044952E+01  0.28971783331E+00 -0.51046342723E+01  0.75370683169E+01  0.51100000000E-03 0.  1.
        -12    1    3    3    0    0  0.25104218300E+00 -0.15796145828E+01 -0.24224917025E+02  0.24277660705E+02  0.00000000000E+00 0.  1.
</event>
<event>
 7    1  0.1427898E-010  0.4778727E+02  0.7816164E-02  0.1312668E+00
        -11   -1    0    0    0    0  0.00000000000E+00  0.00000000000E+00  0.45593999997E+02  0.45594000000E+02  0.51100000000E-03 0.  1.
         11   -1    0    0    0    0 -0.00000000000E+00 -0.00000000000E+00 -0.45593999997E+02  0.45594000000E+02  0.51100000000E-03 0. -1.
    9900012    2    1    2    0    0  0.34533822216E+02 -0.26287599710E+02 -0.21351178173E-01  0.47787271536E+02  0.20000002239E+02 0.  0.
        -12    1    1    2    0    0 -0.34533822216E+02  0.26287599710E+02  0.21351178173E-01  0.43400728464E+02  0.00000000000E+00 0.  1.
         11    1    3    3    0    0  0.11770044788E+02 -0.14671595719E+02  0.29115921656E+01  0.19033314069E+02  0.51100000000E-03 0. -1.
        -11    1    3    3    0    0 -0.31694080528E-01 -0.11434494706E+00 -0.32174283466E+01  0.32196156150E+01  0.51100000000E-03 0.  1.
         12    1    3    3    0    0  0.22795471509E+02 -0.11501659044E+02  0.28448500280E+00  0.25534341852E+02  0.00000000000E+00 0. -1.
</event>
<event>
 7    1  0.1427898E-010  0.4778729E+02  0.7816164E-02  0.1312668E+00
        -11   -1    0    0    0    0  0.00000000000E+00  0.00000000000E+00  0.45593999997E+02  0.45594000000E+02  0.51100000000E-03 0.  1.
         11   -1    0    0    0    0 -0.00000000000E+00 -0.00000000000E+00 -0.45593999997E+02  0.45594000000E+02  0.51100000000E-03 0. -1.
    9900012    2    1    2    0    0  0.70965223707E+01  0.21412204002E+02 -0.37078002833E+02  0.47787292586E+02  0.20000098214E+02 0.  0.
        -12    1    1    2    0    0 -0.70965223707E+01 -0.21412204002E+02  0.37078002833E+02  0.43400707414E+02  0.00000000000E+00 0.  1.
         11    1    3    3    0    0  0.58404287999E+01  0.12982516644E+02 -0.35329818895E+02  0.38090057107E+02  0.51100000000E-03 0. -1.
        -11    1    3    3    0    0  0.22098839469E+01  0.18844183262E+01 -0.24774780592E+00  0.29147896534E+01  0.51100000000E-03 0.  1.
         12    1    3    3    0    0 -0.95379037607E+00  0.65452690322E+01 -0.15004361316E+01  0.67824458251E+01  0.00000000000E+00 0. -1.
</event>
<event>
 7    1  0.1427898E-010  0.4778727E+02  0.7816164E-02  0.1312668E+00
        -11   -1    0    0    0    0  0.00000000000E+00  0.00000000000E+00  0.45593999997E+02  0.45594000000E+02  0.51100000000E-03 0.  1.
         11   -1    0    0    0    0 -0.00000000000E+00 -0.00000000000E+00 -0.45593999997E+02  0.45594000000E+02  0.51100000000E-03 0. -1.
    9900012    2    1    2    0    0  0.29276946162E+01  0.24159165134E+02 -0.35935870901E+02  0.47787268749E+02  0.19999989532E+02 0.  0.
        -12    1    1    2    0    0 -0.29276946162E+01 -0.24159165134E+02  0.35935870901E+02  0.43400731251E+02  0.00000000000E+00 0.  1.
         11    1    3    3    0    0  0.85211894087E+01  0.19634557976E+02 -0.21861576945E+02  0.30595017284E+02  0.51100000000E-03 0. -1.
        -11    1    3    3    0    0  0.27135162536E+00 -0.11764598700E+01 -0.42015404759E+01  0.43715709032E+01  0.51100000000E-03 0.  1.
         12    1    3    3    0    0 -0.58648464179E+01  0.57010670286E+01 -0.98727534800E+01  0.12820680561E+02  0.00000000000E+00 0. -1.
</event>
<event>
 7    1  0.1427898E-010  0.4778728E+02  0.7816164E-02  0.1312668E+00
        -11   -1    0    0    0    0  0.00000000000E+00  0.00000000000E+00  0.45593999997E+02  0.45594000000E+02  0.51100000000E-03 0.  1.
         11   -1    0    0    0    0 -0.00000000000E+00 -0.00000000000E+00 -0.45593999997E+02  0.45594000000E+02  0.51100000000E-03 0. -1.
    9900012    2    1    2    0    0  0.10457862389E+02 -0.37313737600E+02  0.19543310109E+02  0.47787275704E+02  0.20000021245E+02 0.  0.
        -12    1    1    2    0    0 -0.10457862389E+02  0.37313737600E+02 -0.19543310109E+02  0.43400724296E+02  0.00000000000E+00 0.  1.
         11    1    3    3    0    0  0.10561648143E+02 -0.19402416616E+02  0.95304214911E+01  0.24058909287E+02  0.51100000000E-03 0. -1.
        -11    1    3    3    0    0 -0.52349296379E+00  0.76508883881E-03  0.51317437195E+01  0.51583756487E+01  0.51100000000E-03 0.  1.
         12    1    3    3    0    0  0.41970721044E+00 -0.17912086072E+02  0.48811448980E+01  0.18569990768E+02  0.00000000000E+00 0. -1.
</event>
<event>
 7    1  0.1427898E-010  0.4778726E+02  0.7816164E-02  0.1312668E+00
        -11   -1    0    0    0    0  0.00000000000E+00  0.00000000000E+00  0.45593999997E+02  0.45594000000E+02  0.51100000000E-03 0.  1.
         11   -1    0    0    0    0 -0.00000000000E+00 -0.00000000000E+00 -0.45593999997E+02  0.45594000000E+02  0.51100000000E-03 0. -1.
    9900012    2    1    2    0    0  0.15307674168E+02  0.13218669112E+02 -0.38400077271E+02  0.47787262265E+02  0.19999959969E+02 0.  0.
        -12    1    1    2    0    0 -0.15307674168E+02 -0.13218669112E+02  0.38400077271E+02  0.43400737735E+02  0.00000000000E+00 0.  1.
         11    1    3    3    0    0  0.87567602110E+01  0.77997302830E+01 -0.15877448041E+02  0.19738540940E+02  0.51100000000E-03 0. -1.
        -11    1    3    3    0    0 -0.49377712817E+00  0.23541198552E+01  0.14951514052E+01  0.28321677441E+01  0.51100000000E-03 0.  1.
        -12    1    3    3    0    0  0.70446910849E+01  0.30648189740E+01 -0.24017780636E+02  0.25216553581E+02  0.00000000000E+00 0.  1.
</event>
<event>
 7    1  0.1871794E-010  0.4778728E+02  0.7816164E-02  0.1312668E+00
        -11   -1    0    0    0    0  0.00000000000E+00  0.00000000000E+00  0.45593999997E+02  0.45594000000E+02  0.51100000000E-03 0.  1.
         11   -1    0    0    0    0 -0.00000000000E+00 -0.00000000000E+00 -0.45593999997E+02  0.45594000000E+02  0.51100000000E-03 0. -1.
    9900012    2    1    2    0    0  0.33371833477E+02  0.18688222275E+02 -0.20510824055E+02  0.47787276218E+02  0.20000023586E+02 0.  0.
        -12    1    1    2    0    0 -0.33371833477E+02 -0.18688222275E+02  0.20510824055E+02  0.43400723782E+02  0.00000000000E+00 0.  1.
         11    1    3    3    0    0  0.73946010976E+01  0.91324052456E+01 -0.12992602125E+02  0.17518237959E+02  0.51100000000E-03 0. -1.
        -11    1    3    3    0    0  0.51796758588E+01  0.46722596886E+01  0.14074462022E+01  0.71161757759E+01  0.51100000000E-03 0.  1.
         12    1    3    3    0    0  0.20797556520E+02  0.48835573413E+01 -0.89256681328E+01  0.23152862483E+02  0.00000000000E+00 0. -1.
</event>
<event>
 7    1  0.1427898E-010  0.4778729E+02  0.7816164E-02  0.1312668E+00
        -11   -1    0    0    0    0  0.00000000000E+00  0.00000000000E+00  0.45593999997E+02  0.45594000000E+02  0.51100000000E-03 0.  1.
         11   -1    0    0    0    0 -0.00000000000E+00 -0.00000000000E+00 -0.45593999997E+02  0.45594000000E+02  0.51100000000E-03 0. -1.
    9900012    2    1    2    0    0 -0.33109125419E+02 -0.24756295732E+02  0.13211100701E+02  0.47787290949E+02  0.20000090754E+02 0.  0.
        -12    1    1    2    0    0  0.33109125419E+02  0.24756295732E+02 -0.13211100701E+02  0.43400709051E+02  0.00000000000E+00 0.  1.
         11    1    3    3    0    0  0.96897216392E+00 -0.15121707246E+01 -0.34258605724E+00  0.18283688968E+01  0.51100000000E-03 0. -1.
        -11    1    3    3    0    0 -0.52223784550E+01 -0.49586654143E+01 -0.32351829668E+01  0.78948089596E+01  0.51100000000E-03 0.  1.
        -12    1    3    3    0    0 -0.28855719128E+02 -0.18285459593E+02  0.16788869725E+02  0.38064113093E+02  0.00000000000E+00 0.  1.
</event>
<event>
 7    1  0.1427898E-010  0.4778726E+02  0.7816164E-02  0.1312668E+00
        -11   -1    0    0    0    0  0.00000000000E+00  0.00000000000E+00  0.45593999997E+02  0.45594000000E+02  0.51100000000E-03 0. -1.
         11   -1    0    0    0    0 -0.00000000000E+00 -0.00000000000E+00 -0.45593999997E+02  0.45594000000E+02  0.51100000000E-03 0.  1.
    9900012    2    1    2    0    0 -0.22760660207E+02 -0.32648803187E+02  0.17309878809E+02  0.47787263751E+02  0.19999966745E+02 0.  0.
        -12    1    1    2    0    0  0.22760660207E+02  0.32648803187E+02 -0.17309878809E+02  0.43400736249E+02  0.00000000000E+00 0.  1.
         11    1    3    3    0    0 -0.54553419579E+01 -0.56150405619E+01  0.74632067443E+01  0.10816140326E+02  0.51100000000E-03 0.  1.
        -11    1    3    3    0    0 -0.12484790997E+02 -0.27224667451E+02  0.54474772240E+01  0.30442199862E+02  0.51100000000E-03 0. -1.
         12    1    3    3    0    0 -0.48205272522E+01  0.19090482594E+00  0.43991948404E+01  0.65289235626E+01  0.00000000000E+00 0. -1.
</event>
<event>
 7    1  0.1427898E-010  0.4778727E+02  0.7816164E-02  0.1312668E+00
        -11   -1    0    0    0    0  0.00000000000E+00  0.00000000000E+00  0.45593999997E+02  0.45594000000E+02  0.51100000000E-03 0. -1.
         11   -1    0    0    0    0 -0.00000000000E+00 -0.00000000000E+00 -0.45593999997E+02  0.45594000000E+02  0.51100000000E-03 0.  1.
    9900012    2    1    2    0    0  0.28648413778E+02 -0.17089287810E+02  0.27764148398E+02  0.47787270673E+02  0.19999998307E+02 0.  0.
        -12    1    1    2    0    0 -0.28648413778E+02  0.17089287810E+02 -0.27764148398E+02  0.43400729327E+02  0.00000000000E+00 0.  1.
         11    1    3    3    0    0  0.28099196469E+02 -0.12014511675E+02  0.23750706441E+02  0.38704126262E+02  0.51100000000E-03 0. -1.
        -11    1    3    3    0    0  0.33433347141E+01 -0.21681995967E+01  0.11820187392E+01  0.41564582354E+01  0.51100000000E-03 0.  1.
        -12    1    3    3    0    0 -0.27941174045E+01 -0.29065765378E+01  0.28314232176E+01  0.49266861761E+01  0.00000000000E+00 0.  1.
</event>
<event>
 7    1  0.1427898E-010  0.4778727E+02  0.7816164E-02  0.1312668E+00
        -11   -1    0    0    0    0  0.00000000000E+00  0.00000000000E+00  0.45593999997E+02  0.45594000000E+02  0.51100000000E-03 0.  1.
         11   -1    0    0    0    0 -0.00000000000E+00 -0.00000000000E+00 -0.45593999997E+02  0.45594000000E+02  0.51100000000E-03 0. -1.
    9900012    2    1    2    0    0  0.56407833785E-01  0.34965826479E+02 -0.25710136856E+02  0.47787270278E+02  0.19999996506E+02 0.  0.
        -12    1    1    2    0    0 -0.56407833785E-01 -0.34965826479E+02  0.25710136856E+02  0.43400729722E+02  0.00000000000E+00 0.  1.
         11    1    3    3    0    0 -0.29270873172E+01  0.49160497087E+00 -0.24962318902E+00  0.29785613318E+01  0.51100000000E-03 0. -1.
        -11    1    3    3    0    0  0.71444450931E+01  0.11686173940E+02 -0.89424699527E+01  0.16357797106E+02  0.51100000000E-03 0.  1.
         12    1    3    3    0    0 -0.41609499422E+01  0.22788047568E+02 -0.16518043714E+02  0.28450911840E+02  0.00000000000E+00 0. -1.
</event>
<event>
 7    1  0.1427898E-010  0.4778728E+02  0.7816164E-02  0.1312668E+00
        -11   -1    0    0    0    0  0.00000000000E+00  0.00000000000E+00  0.45593999997E+02  0.45594000000E+02  0.51100000000E-03 0.  1.
         11   -1    0    0    0    0 -0.00000000000E+00 -0.00000000000E+00 -0.45593999997E+02  0.45594000000E+02  0.51100000000E-03 0. -1.
    9900012    2    1    2    0    0 -0.10548647182E+02 -0.36078740844E+02 -0.21695009277E+02  0.47787275055E+02  0.20000018285E+02 0.  0.
        -12    1    1    2    0    0  0.10548647182E+02  0.36078740844E+02  0.21695009277E+02  0.43400724945E+02  0.00000000000E+00 0.  1.
         11    1    3    3    0    0 -0.44761608843E+01 -0.31896640047E+02 -0.14519423790E+02  0.35330515564E+02  0.51100000000E-03 0. -1.
        -11    1    3    3    0    0 -0.22073741873E+01 -0.39729035176E+01 -0.72826735018E+01  0.85845091157E+01  0.51100000000E-03 0.  1.
         12    1    3    3    0    0 -0.38651121101E+01 -0.20919727931E+00  0.10708801535E+00  0.38722503753E+01  0.00000000000E+00 0. -1.
</event>
<event>
 7    1  0.1427898E-010  0.4778728E+02  0.7816164E-02  0.1312668E+00
        -11   -1    0    0    0    0  0.00000000000E+00  0.00000000000E+00  0.45593999997E+02  0.45594000000E+02  0.51100000000E-03 0.  1.
         11   -1    0    0    0    0 -0.00000000000E+00 -0.00000000000E+00 -0.45593999997E+02  0.45594000000E+02  0.51100000000E-03 0. -1.
    9900012    2    1    2    0    0  0.21735729769E+02 -0.33379488823E+02 -0.17233396416E+02  0.47787283708E+02  0.20000057738E+02 0.  0.
        -12    1    1    2    0    0 -0.21735729769E+02  0.33379488823E+02  0.17233396416E+02  0.43400716292E+02  0.00000000000E+00 0.  1.
         11    1    3    3    0    0  0.11759150090E+02 -0.27286946168E+02 -0.98053103311E+01  0.31288962159E+02  0.51100000000E-03 0. -1.
        -11    1    3    3    0    0  0.86356903221E+00 -0.13624087018E+01 -0.59015006142E+01  0.61179750494E+01  0.51100000000E-03 0.  1.
        -12    1    3    3    0    0  0.91130106467E+01 -0.47301339526E+01 -0.15265854704E+01  0.10380346500E+02  0.00000000000E+00 0.  1.
</event>
<event>
 7    1  0.1427898E-010  0.4778727E+02  0.7816164E-02  0.1312668E+00
        -11   -1    0    0    0    0  0.00000000000E+00  0.00000000000E+00  0.45593999997E+02  0.45594000000E+02  0.51100000000E-03 0. -1.
         11   -1    0    0    0    0 -0.00000000000E+00 -0.00000000000E+00 -0.45593999997E+02  0.45594000000E+02  0.51100000000E-03 0.  1.
    9900012    2    1    2    0    0 -0.41087707363E+02 -0.45918086476E+00 -0.13971856035E+02  0.47787270692E+02  0.19999998392E+02 0.  0.
        -12    1    1    2    0    0  0.41087707363E+02  0.45918086476E+00  0.13971856035E+02  0.43400729308E+02  0.00000000000E+00 0.  1.
         11    1    3    3    0    0 -0.10535158117E+02  0.44349304840E+01 -0.47084685862E+01  0.12362355828E+02  0.51100000000E-03 0. -1.
        -11    1    3    3    0    0 -0.41097466486E+01 -0.63824048914E+01 -0.32989229802E+01  0.82769561316E+01  0.51100000000E-03 0.  1.
         12    1    3    3    0    0 -0.26442802598E+02  0.14882935426E+01 -0.59644644682E+01  0.27147958732E+02  0.00000000000E+00 0. -1.
</event>
<event>
 7    1  0.1427898E-010  0.4778722E+02  0.7816164E-02  0.1312668E+00
        -11   -1    0    0    0    0  0.00000000000E+00  0.00000000000E+00  0.45593999997E+02  0.45594000000E+02  0.51100000000E-03 0. -1.
         11   -1    0    0    0    0 -0.00000000000E+00 -0.00000000000E+00 -0.45593999997E+02  0.45594000000E+02  0.51100000000E-03 0.  1.
    9900012    2    1    2    0    0  0.69527431528E+01  0.88914481391E+01  0.41907386554E+02  0.47787221952E+02  0.19999776169E+02 0.  0.
        -12    1    1    2    0    0 -0.69527431528E+01 -0.88914481391E+01 -0.41907386554E+02  0.43400778048E+02  0.00000000000E+00 0.  1.
         11    1    3    3    0    0  0.52036831331E+01  0.98084553486E+01  0.13767650903E+02  0.17687066634E+02  0.51100000000E-03 0. -1.
        -11    1    3    3    0    0  0.38753294224E+01 -0.18957558502E+00  0.31175866394E+01  0.49772948225E+01  0.51100000000E-03 0.  1.
        -12    1    3    3    0    0 -0.21262694026E+01 -0.72743162453E+00  0.25022149011E+02  0.25122860496E+02  0.00000000000E+00 0.  1.
</event>
<event>
 7    1  0.1427898E-010  0.4778727E+02  0.7816164E-02  0.1312668E+00
        -11   -1    0    0    0    0  0.00000000000E+00  0.00000000000E+00  0.45593999997E+02  0.45594000000E+02  0.51100000000E-03 0. -1.
         11   -1    0    0    0    0 -0.00000000000E+00 -0.00000000000E+00 -0.45593999997E+02  0.45594000000E+02  0.51100000000E-03 0.  1.
    9900012    2    1    2    0    0  0.32335975237E+02  0.28857419575E+02 -0.22928409651E+01  0.47787273292E+02  0.20000010250E+02 0.  0.
        -12    1    1    2    0    0 -0.32335975237E+02 -0.28857419575E+02  0.22928409651E+01  0.43400726708E+02  0.00000000000E+00 0.  1.
         11    1    3    3    0    0  0.14954349458E+02  0.35103859459E+01 -0.29433261259E+01  0.15640285999E+02  0.51100000000E-03 0. -1.
        -11    1    3    3    0    0 -0.10044541217E+01  0.29166888719E+01  0.60751335367E+00  0.31440538790E+01  0.51100000000E-03 0.  1.
        -12    1    3    3    0    0  0.18386079900E+02  0.22430344758E+02  0.42971807124E-01  0.29002933414E+02  0.00000000000E+00 0.  1.
</event>
<event>
 7    1  0.1427898E-010  0.4778727E+02  0.7816164E-02  0.1312668E+00
        -11   -1    0    0    0    0  0.00000000000E+00  0.00000000000E+00  0.45593999997E+02  0.45594000000E+02  0.51100000000E-03 0. -1.
         11   -1    0    0    0    0 -0.00000000000E+00 -0.00000000000E+00 -0.45593999997E+02  0.45594000000E+02  0.51100000000E-03 0.  1.
    9900012    2    1    2    0    0 -0.10401256817E+02 -0.40774049225E+02  0.10626117025E+02  0.47787267326E+02  0.19999983048E+02 0.  0.
        -12    1    1    2    0    0  0.10401256817E+02  0.40774049225E+02 -0.10626117025E+02  0.43400732674E+02  0.00000000000E+00 0.  1.
         11    1    3    3    0    0 -0.22079541607E+01 -0.34190158883E+02  0.94065939941E+01  0.35529227924E+02  0.51100000000E-03 0. -1.
        -11    1    3    3    0    0 -0.56523370337E+00 -0.82067291289E+00 -0.19467122209E+01  0.21869343615E+01  0.51100000000E-03 0.  1.
        -12    1    3    3    0    0 -0.76280689526E+01 -0.57632174292E+01  0.31662352514E+01  0.10071105041E+02  0.00000000000E+00 0.  1.
</event>
<event>
 7    1  0.1427898E-010  0.4778727E+02  0.7816164E-02  0.1312668E+00
        -11   -1    0    0    0    0  0.00000000000E+00  0.00000000000E+00  0.45593999997E+02  0.45594000000E+02  0.51100000000E-03 0.  1.
         11   -1    0    0    0    0 -0.00000000000E+00 -0.00000000000E+00 -0.45593999997E+02  0.45594000000E+02  0.51100000000E-03 0. -1.
    9900012    2    1    2    0    0 -0.56765504793E+01  0.23421204943E+02 -0.36094973669E+02  0.47787272005E+02  0.20000004380E+02 0.  0.
        -12    1    1    2    0    0  0.56765504793E+01 -0.23421204943E+02  0.36094973669E+02  0.43400727995E+02  0.00000000000E+00 0.  1.
         11    1    3    3    0    0 -0.93482408783E+00  0.26217874290E+01  0.13892676434E+00  0.27869277538E+01  0.51100000000E-03 0.  1.
        -11    1    3    3    0    0  0.39358711580E+00  0.19686781241E+02 -0.34000994482E+02  0.39291117221E+02  0.51100000000E-03 0. -1.
         12    1    3    3    0    0 -0.51353135072E+01  0.11126362724E+01 -0.22329059515E+01  0.57092270300E+01  0.00000000000E+00 0. -1.
</event>
<event>
 7    1  0.1427898E-010  0.4778726E+02  0.7816164E-02  0.1312668E+00
        -11   -1    0    0    0    0  0.00000000000E+00  0.00000000000E+00  0.45593999997E+02  0.45594000000E+02  0.51100000000E-03 0.  1.
         11   -1    0    0    0    0 -0.00000000000E+00 -0.00000000000E+00 -0.45593999997E+02  0.45594000000E+02  0.51100000000E-03 0. -1.
    9900012    2    1    2    0    0  0.27289551509E+02  0.93602807411E+01 -0.32423593579E+02  0.47787263858E+02  0.19999967234E+02 0.  0.
        -12    1    1    2    0    0 -0.27289551509E+02 -0.93602807411E+01  0.32423593579E+02  0.43400736142E+02  0.00000000000E+00 0.  1.
         11    1    3    3    0    0  0.22639768031E+02  0.96433143316E+00 -0.17762810344E+02  0.28792472336E+02  0.51100000000E-03 0. -1.
        -11    1    3    3    0    0  0.43739082062E+01  0.57088720319E+01 -0.45058814627E+01  0.84867697560E+01  0.51100000000E-03 0.  1.
         12    1    3    3    0    0  0.27587527183E+00  0.26870772760E+01 -0.10154901772E+02  0.10508021766E+02  0.00000000000E+00 0. -1.
</event>
