<event>
 7    1  0.2430096E-009  0.4778727E+02  0.7816164E-02  0.1312668E+00
        -11   -1    0    0    0    0  0.00000000000E+00  0.00000000000E+00  0.45593999997E+02  0.45594000000E+02  0.51100000000E-03 0.  1.
         11   -1    0    0    0    0 -0.00000000000E+00 -0.00000000000E+00 -0.45593999997E+02  0.45594000000E+02  0.51100000000E-03 0. -1.
    9900012    2    1    2    0    0 -0.37720435644E+02 -0.53411585581E+01 -0.20790960351E+02  0.47787271064E+02  0.20000000087E+02 0.  0.
        -12    1    1    2    0    0  0.37720435644E+02  0.53411585581E+01  0.20790960351E+02  0.43400728936E+02  0.00000000000E+00 0.  1.
         11    1    3    3    0    0 -0.21950262476E+02 -0.36049762920E+01 -0.31701719860E+01  0.22469086931E+02  0.51100000000E-03 0.  1.
        -11    1    3    3    0    0 -0.14357116777E+02 -0.45119563676E+01 -0.14188342453E+02  0.20683172248E+02  0.51100000000E-03 0. -1.
         12    1    3    3    0    0 -0.14130563898E+01  0.27757741015E+01 -0.34324459124E+01  0.46350118840E+01  0.00000000000E+00 0. -1.
</event>
<event>
 7    1  0.2430096E-009  0.4778727E+02  0.7816164E-02  0.1312668E+00
        -11   -1    0    0    0    0  0.00000000000E+00  0.00000000000E+00  0.45593999997E+02  0.45594000000E+02  0.51100000000E-03 0.  1.
         11   -1    0    0    0    0 -0.00000000000E+00 -0.00000000000E+00 -0.45593999997E+02  0.45594000000E+02  0.51100000000E-03 0. -1.
    9900012    2    1    2    0    0  0.12206801588E+02  0.94105384475E+01 -0.40571657636E+02  0.47787266801E+02  0.19999980652E+02 0.  0.
        -12    1    1    2    0    0 -0.12206801588E+02 -0.94105384475E+01  0.40571657636E+02  0.43400733199E+02  0.00000000000E+00 0.  1.
         11    1    3    3    0    0  0.98101695114E+01  0.81355879798E+01 -0.80410535355E+01  0.15069364945E+02  0.51100000000E-03 0. -1.
        -11    1    3    3    0    0  0.58864567149E+00  0.12648784369E+01 -0.21011793790E+02  0.21058060208E+02  0.51100000000E-03 0.  1.
         12    1    3    3    0    0  0.18079864050E+01  0.10072030893E-01 -0.11518810310E+02  0.11659841648E+02  0.00000000000E+00 0. -1.
</event>
<event>
 7    1  0.2430096E-009  0.4778727E+02  0.7816164E-02  0.1312668E+00
        -11   -1    0    0    0    0  0.00000000000E+00  0.00000000000E+00  0.45593999997E+02  0.45594000000E+02  0.51100000000E-03 0.  1.
         11   -1    0    0    0    0 -0.00000000000E+00 -0.00000000000E+00 -0.45593999997E+02  0.45594000000E+02  0.51100000000E-03 0. -1.
    9900012    2    1    2    0    0 -0.39052639839E+02 -0.13098120718E+02 -0.13673108790E+02  0.47787270182E+02  0.19999996069E+02 0.  0.
        -12    1    1    2    0    0  0.39052639839E+02  0.13098120718E+02  0.13673108790E+02  0.43400729818E+02  0.00000000000E+00 0.  1.
         11    1    3    3    0    0 -0.28585830161E+02 -0.12935285945E+02 -0.10370095976E+02  0.33045577605E+02  0.51100000000E-03 0. -1.
        -11    1    3    3    0    0 -0.69662565182E+01  0.24632810966E+01 -0.60714427782E+01  0.95634147305E+01  0.51100000000E-03 0.  1.
        -12    1    3    3    0    0 -0.35005531599E+01 -0.26261158699E+01  0.27684299642E+01  0.51782778464E+01  0.00000000000E+00 0.  1.
</event>
<event>
 7    1  0.2430096E-009  0.4778727E+02  0.7816164E-02  0.1312668E+00
        -11   -1    0    0    0    0  0.00000000000E+00  0.00000000000E+00  0.45593999997E+02  0.45594000000E+02  0.51100000000E-03 0.  1.
         11   -1    0    0    0    0 -0.00000000000E+00 -0.00000000000E+00 -0.45593999997E+02  0.45594000000E+02  0.51100000000E-03 0. -1.
    9900012    2    1    2    0    0 -0.32409012452E+02 -0.23478539950E+02 -0.16793965737E+02  0.47787271763E+02  0.20000003277E+02 0.  0.
        -12    1    1    2    0    0  0.32409012452E+02  0.23478539950E+02  0.16793965737E+02  0.43400728237E+02  0.00000000000E+00 0.  1.
         11    1    3    3    0    0 -0.20937020761E+02 -0.22316581512E+02 -0.12255745510E+02  0.32963494156E+02  0.51100000000E-03 0. -1.
        -11    1    3    3    0    0 -0.32633133452E+01  0.42019855573E+00 -0.54998279549E+01  0.64088913714E+01  0.51100000000E-03 0.  1.
         12    1    3    3    0    0 -0.82086783457E+01 -0.15821569941E+01  0.96160772718E+00  0.84148862356E+01  0.00000000000E+00 0. -1.
</event>
<event>
 7    1  0.2430096E-009  0.4778728E+02  0.7816164E-02  0.1312668E+00
        -11   -1    0    0    0    0  0.00000000000E+00  0.00000000000E+00  0.45593999997E+02  0.45594000000E+02  0.51100000000E-03 0. -1.
         11   -1    0    0    0    0 -0.00000000000E+00 -0.00000000000E+00 -0.45593999997E+02  0.45594000000E+02  0.51100000000E-03 0.  1.
    9900012    2    1    2    0    0 -0.35067045648E+02  0.15061948272E+02  0.20665490347E+02  0.47787280334E+02  0.20000042354E+02 0.  0.
        -12    1    1    2    0    0  0.35067045648E+02 -0.15061948272E+02 -0.20665490347E+02  0.43400719666E+02  0.00000000000E+00 0.  1.
         11    1    3    3    0    0 -0.21468451561E+02  0.44242710816E+01  0.13717289635E+02  0.25857931515E+02  0.51100000000E-03 0. -1.
        -11    1    3    3    0    0 -0.72141897653E+01  0.41617655820E+01  0.93521960446E+01  0.12523114543E+02  0.51100000000E-03 0.  1.
        -12    1    3    3    0    0 -0.63844043223E+01  0.64759116079E+01 -0.24039953325E+01  0.94062342764E+01  0.00000000000E+00 0.  1.
</event>
<event>
 7    1  0.2430096E-009  0.4778730E+02  0.7816164E-02  0.1312668E+00
        -11   -1    0    0    0    0  0.00000000000E+00  0.00000000000E+00  0.45593999997E+02  0.45594000000E+02  0.51100000000E-03 0. -1.
         11   -1    0    0    0    0 -0.00000000000E+00 -0.00000000000E+00 -0.45593999997E+02  0.45594000000E+02  0.51100000000E-03 0.  1.
    9900012    2    1    2    0    0  0.33376221111E+02  0.10996142553E+02 -0.25470249911E+02  0.47787298195E+02  0.20000123790E+02 0.  0.
        -12    1    1    2    0    0 -0.33376221111E+02 -0.10996142553E+02  0.25470249911E+02  0.43400701805E+02  0.00000000000E+00 0.  1.
         11    1    3    3    0    0  0.14743904049E+02  0.12769828006E+02 -0.18838481242E+02  0.27117145677E+02  0.51100000000E-03 0. -1.
        -11    1    3    3    0    0  0.74365815859E+01 -0.34799371507E+01 -0.21224958409E+01  0.84804302433E+01  0.51100000000E-03 0.  1.
         12    1    3    3    0    0  0.11195735476E+02  0.17062516977E+01 -0.45092728278E+01  0.12189722275E+02  0.00000000000E+00 0. -1.
</event>
<event>
 7    1  0.2430096E-009  0.4778727E+02  0.7816164E-02  0.1312668E+00
        -11   -1    0    0    0    0  0.00000000000E+00  0.00000000000E+00  0.45593999997E+02  0.45594000000E+02  0.51100000000E-03 0. -1.
         11   -1    0    0    0    0 -0.00000000000E+00 -0.00000000000E+00 -0.45593999997E+02  0.45594000000E+02  0.51100000000E-03 0.  1.
    9900012    2    1    2    0    0  0.20075062551E+02 -0.26248366955E+02  0.28136071472E+02  0.47787269337E+02  0.19999992216E+02 0.  0.
        -12    1    1    2    0    0 -0.20075062551E+02  0.26248366955E+02 -0.28136071472E+02  0.43400730663E+02  0.00000000000E+00 0.  1.
         11    1    3    3    0    0  0.18887148997E+02 -0.19917985141E+02  0.19616881201E+02  0.33738295121E+02  0.51100000000E-03 0. -1.
        -11    1    3    3    0    0  0.30307920505E+01 -0.42183177714E+01  0.12129724482E+00  0.51956345672E+01  0.51100000000E-03 0.  1.
         12    1    3    3    0    0 -0.18428784969E+01 -0.21120640419E+01  0.83978930254E+01  0.88533396488E+01  0.00000000000E+00 0. -1.
</event>
<event>
 7    1  0.2430096E-009  0.4778727E+02  0.7816164E-02  0.1312668E+00
        -11   -1    0    0    0    0  0.00000000000E+00  0.00000000000E+00  0.45593999997E+02  0.45594000000E+02  0.51100000000E-03 0.  1.
         11   -1    0    0    0    0 -0.00000000000E+00 -0.00000000000E+00 -0.45593999997E+02  0.45594000000E+02  0.51100000000E-03 0. -1.
    9900012    2    1    2    0    0  0.89202996930E+00 -0.42416722742E+02 -0.91459746125E+01  0.47787274923E+02  0.20000017683E+02 0.  0.
        -12    1    1    2    0    0 -0.89202996930E+00  0.42416722742E+02  0.91459746125E+01  0.43400725077E+02  0.00000000000E+00 0.  1.
         11    1    3    3    0    0  0.11964199083E+01  0.37876993429E+00  0.16552105790E+01  0.20771638313E+01  0.51100000000E-03 0. -1.
        -11    1    3    3    0    0  0.32392339686E+01 -0.36932226993E+01 -0.27526978889E+01  0.56311523278E+01  0.51100000000E-03 0.  1.
         12    1    3    3    0    0 -0.35436239076E+01 -0.39102269977E+02 -0.80484873026E+01  0.40078958764E+02  0.00000000000E+00 0. -1.
</event>
<event>
 7    1  0.2430096E-009  0.4778727E+02  0.7816164E-02  0.1312668E+00
        -11   -1    0    0    0    0  0.00000000000E+00  0.00000000000E+00  0.45593999997E+02  0.45594000000E+02  0.51100000000E-03 0. -1.
         11   -1    0    0    0    0 -0.00000000000E+00 -0.00000000000E+00 -0.45593999997E+02  0.45594000000E+02  0.51100000000E-03 0.  1.
    9900012    2    1    2    0    0  0.35135916886E+01  0.24951493345E+02  0.35336958754E+02  0.47787274191E+02  0.20000014347E+02 0.  0.
        -12    1    1    2    0    0 -0.35135916886E+01 -0.24951493345E+02 -0.35336958754E+02  0.43400725809E+02  0.00000000000E+00 0.  1.
         11    1    3    3    0    0 -0.33088275611E+01  0.18051459852E+02  0.20572669882E+02  0.27568791938E+02  0.51100000000E-03 0. -1.
        -11    1    3    3    0    0  0.51343099323E+01  0.20847182526E+01  0.14002709185E+02  0.15059317828E+02  0.51100000000E-03 0.  1.
         12    1    3    3    0    0  0.16881093174E+01  0.48153152411E+01  0.76157968738E+00  0.51591644245E+01  0.00000000000E+00 0. -1.
</event>
<event>
 7    1  0.2430096E-009  0.4778727E+02  0.7816164E-02  0.1312668E+00
        -11   -1    0    0    0    0  0.00000000000E+00  0.00000000000E+00  0.45593999997E+02  0.45594000000E+02  0.51100000000E-03 0.  1.
         11   -1    0    0    0    0 -0.00000000000E+00 -0.00000000000E+00 -0.45593999997E+02  0.45594000000E+02  0.51100000000E-03 0. -1.
    9900012    2    1    2    0    0 -0.61231624472E+01  0.29675300156E+02 -0.31072611119E+02  0.47787265911E+02  0.19999976595E+02 0.  0.
        -12    1    1    2    0    0  0.61231624472E+01 -0.29675300156E+02  0.31072611119E+02  0.43400734089E+02  0.00000000000E+00 0.  1.
         11    1    3    3    0    0  0.48919657720E+01  0.18208071889E+02 -0.13166734692E+02  0.22996263039E+02  0.51100000000E-03 0. -1.
        -11    1    3    3    0    0 -0.57748074002E+01  0.29918566207E+01 -0.38387822748E+01  0.75522086944E+01  0.51100000000E-03 0.  1.
         12    1    3    3    0    0 -0.52403208189E+01  0.84753716458E+01 -0.14067094152E+02  0.17238794178E+02  0.00000000000E+00 0. -1.
</event>
<event>
 7    1  0.2430096E-009  0.4778727E+02  0.7816164E-02  0.1312668E+00
        -11   -1    0    0    0    0  0.00000000000E+00  0.00000000000E+00  0.45593999997E+02  0.45594000000E+02  0.51100000000E-03 0. -1.
         11   -1    0    0    0    0 -0.00000000000E+00 -0.00000000000E+00 -0.45593999997E+02  0.45594000000E+02  0.51100000000E-03 0.  1.
    9900012    2    1    2    0    0 -0.37715143040E+02  0.18927087471E+02 -0.10146761551E+02  0.47787269308E+02  0.19999992083E+02 0.  0.
        -12    1    1    2    0    0  0.37715143040E+02 -0.18927087471E+02  0.10146761551E+02  0.43400730692E+02  0.00000000000E+00 0.  1.
         11    1    3    3    0    0 -0.28003334556E+02  0.68904522809E+01 -0.12960212916E+02  0.31616960606E+02  0.51100000000E-03 0. -1.
        -11    1    3    3    0    0 -0.16346607677E+00  0.12969986648E+01 -0.53891861068E+00  0.14139873496E+01  0.51100000000E-03 0.  1.
         12    1    3    3    0    0 -0.95483424071E+01  0.10739636525E+02  0.33523699753E+01  0.14756321353E+02  0.00000000000E+00 0. -1.
</event>
<event>
 7    1  0.2430096E-009  0.4778728E+02  0.7816164E-02  0.1312668E+00
        -11   -1    0    0    0    0  0.00000000000E+00  0.00000000000E+00  0.45593999997E+02  0.45594000000E+02  0.51100000000E-03 0. -1.
         11   -1    0    0    0    0 -0.00000000000E+00 -0.00000000000E+00 -0.45593999997E+02  0.45594000000E+02  0.51100000000E-03 0.  1.
    9900012    2    1    2    0    0 -0.23551032280E+02 -0.30619178403E+02  0.19784784770E+02  0.47787275168E+02  0.20000018803E+02 0.  0.
        -12    1    1    2    0    0  0.23551032280E+02  0.30619178403E+02 -0.19784784770E+02  0.43400724832E+02  0.00000000000E+00 0.  1.
         11    1    3    3    0    0 -0.45185241619E+01 -0.48542596365E+01  0.47524489271E+01  0.81588398860E+01  0.51100000000E-03 0. -1.
        -11    1    3    3    0    0 -0.19164260522E+02 -0.25327572952E+02  0.18080207333E+02  0.36546528296E+02  0.51100000000E-03 0.  1.
        -12    1    3    3    0    0  0.13175240475E+00 -0.43734581427E+00 -0.30478714895E+01  0.30819069866E+01  0.00000000000E+00 0.  1.
</event>
<event>
 7    1  0.2430096E-009  0.4778727E+02  0.7816164E-02  0.1312668E+00
        -11   -1    0    0    0    0  0.00000000000E+00  0.00000000000E+00  0.45593999997E+02  0.45594000000E+02  0.51100000000E-03 0. -1.
         11   -1    0    0    0    0 -0.00000000000E+00 -0.00000000000E+00 -0.45593999997E+02  0.45594000000E+02  0.51100000000E-03 0.  1.
    9900012    2    1    2    0    0 -0.18124785247E+02 -0.38294249442E+02  0.94162485584E+01  0.47787272846E+02  0.20000008214E+02 0.  0.
        -12    1    1    2    0    0  0.18124785247E+02  0.38294249442E+02 -0.94162485584E+01  0.43400727154E+02  0.00000000000E+00 0.  1.
         11    1    3    3    0    0 -0.10673490273E+02 -0.14862846069E+02  0.13230991066E+02  0.22580671220E+02  0.51100000000E-03 0. -1.
        -11    1    3    3    0    0  0.27126249377E+00 -0.98779311511E-01 -0.23006118207E+00  0.36914644997E+00  0.51100000000E-03 0.  1.
         12    1    3    3    0    0 -0.77225574681E+01 -0.23332624061E+02 -0.35846813255E+01  0.24837455176E+02  0.00000000000E+00 0. -1.
</event>
<event>
 7    1  0.2430096E-009  0.4778727E+02  0.7816164E-02  0.1312668E+00
        -11   -1    0    0    0    0  0.00000000000E+00  0.00000000000E+00  0.45593999997E+02  0.45594000000E+02  0.51100000000E-03 0.  1.
         11   -1    0    0    0    0 -0.00000000000E+00 -0.00000000000E+00 -0.45593999997E+02  0.45594000000E+02  0.51100000000E-03 0. -1.
    9900012    2    1    2    0    0  0.78330873793E+01  0.24330921141E+02 -0.35075238105E+02  0.47787270633E+02  0.19999998124E+02 0.  0.
        -12    1    1    2    0    0 -0.78330873793E+01 -0.24330921141E+02  0.35075238105E+02  0.43400729367E+02  0.00000000000E+00 0.  1.
         11    1    3    3    0    0 -0.28934351144E+01  0.77539352627E+01 -0.25722661395E+01  0.86667198047E+01  0.51100000000E-03 0. -1.
        -11    1    3    3    0    0  0.51889214807E+01  0.74828972291E+01 -0.70044885055E+01  0.11488320876E+02  0.51100000000E-03 0.  1.
         12    1    3    3    0    0  0.55376010130E+01  0.90940886488E+01 -0.25498483460E+02  0.27632229952E+02  0.00000000000E+00 0. -1.
</event>
<event>
 7    1  0.2430096E-009  0.4778727E+02  0.7816164E-02  0.1312668E+00
        -11   -1    0    0    0    0  0.00000000000E+00  0.00000000000E+00  0.45593999997E+02  0.45594000000E+02  0.51100000000E-03 0.  1.
         11   -1    0    0    0    0 -0.00000000000E+00 -0.00000000000E+00 -0.45593999997E+02  0.45594000000E+02  0.51100000000E-03 0. -1.
    9900012    2    1    2    0    0  0.23094227091E+02  0.30387100736E+02 -0.20661657712E+02  0.47787270565E+02  0.19999997814E+02 0.  0.
        -12    1    1    2    0    0 -0.23094227091E+02 -0.30387100736E+02  0.20661657712E+02  0.43400729435E+02  0.00000000000E+00 0.  1.
         11    1    3    3    0    0  0.57783133041E+00  0.12019856833E+02 -0.98417792245E+01  0.15545786114E+02  0.51100000000E-03 0. -1.
        -11    1    3    3    0    0  0.80339201966E+01  0.26006360557E+01 -0.45711129967E+00  0.84567211507E+01  0.51100000000E-03 0.  1.
        -12    1    3    3    0    0  0.14482475564E+02  0.15766607847E+02 -0.10362767188E+02  0.23784763300E+02  0.00000000000E+00 0.  1.
</event>
<event>
 7    1  0.2430096E-009  0.4778726E+02  0.7816164E-02  0.1312668E+00
        -11   -1    0    0    0    0  0.00000000000E+00  0.00000000000E+00  0.45593999997E+02  0.45594000000E+02  0.51100000000E-03 0. -1.
         11   -1    0    0    0    0 -0.00000000000E+00 -0.00000000000E+00 -0.45593999997E+02  0.45594000000E+02  0.51100000000E-03 0.  1.
    9900012    2    1    2    0    0 -0.34404836910E+02 -0.25870969644E+02  0.55338963981E+01  0.47787264033E+02  0.19999968031E+02 0.  0.
        -12    1    1    2    0    0  0.34404836910E+02  0.25870969644E+02 -0.55338963981E+01  0.43400735967E+02  0.00000000000E+00 0.  1.
         11    1    3    3    0    0 -0.11398071792E+02 -0.16701123556E+01 -0.39225130636E+01  0.12169282019E+02  0.51100000000E-03 0. -1.
        -11    1    3    3    0    0 -0.15018478966E+02 -0.20064521205E+02  0.89329792507E+01  0.26607101312E+02  0.51100000000E-03 0.  1.
         12    1    3    3    0    0 -0.79882861525E+01 -0.41363360831E+01  0.52343021091E+00  0.90108807023E+01  0.00000000000E+00 0. -1.
</event>
<event>
 7    1  0.2430096E-009  0.4778727E+02  0.7816164E-02  0.1312668E+00
        -11   -1    0    0    0    0  0.00000000000E+00  0.00000000000E+00  0.45593999997E+02  0.45594000000E+02  0.51100000000E-03 0.  1.
         11   -1    0    0    0    0 -0.00000000000E+00 -0.00000000000E+00 -0.45593999997E+02  0.45594000000E+02  0.51100000000E-03 0. -1.
    9900012    2    1    2    0    0  0.45692386339E+01  0.26601725799E+02 -0.33986668233E+02  0.47787269882E+02  0.19999994701E+02 0.  0.
        -12    1    1    2    0    0 -0.45692386339E+01 -0.26601725799E+02  0.33986668233E+02  0.43400730118E+02  0.00000000000E+00 0.  1.
         11    1    3    3    0    0 -0.51905041039E+00  0.39187927970E+01 -0.61291833796E+01  0.72933695557E+01  0.51100000000E-03 0. -1.
        -11    1    3    3    0    0  0.26988826749E+01  0.17645424594E+02 -0.74575910109E+01  0.19345817138E+02  0.51100000000E-03 0.  1.
        -12    1    3    3    0    0  0.23894063693E+01  0.50375084082E+01 -0.20399893842E+02  0.21148083188E+02  0.00000000000E+00 0.  1.
</event>
<event>
 7    1  0.2430096E-009  0.4778726E+02  0.7816164E-02  0.1312668E+00
        -11   -1    0    0    0    0  0.00000000000E+00  0.00000000000E+00  0.45593999997E+02  0.45594000000E+02  0.51100000000E-03 0. -1.
         11   -1    0    0    0    0 -0.00000000000E+00 -0.00000000000E+00 -0.45593999997E+02  0.45594000000E+02  0.51100000000E-03 0.  1.
    9900012    2    1    2    0    0  0.22078220681E+02  0.25870306994E+02  0.26961150247E+02  0.47787259971E+02  0.19999949512E+02 0.  0.
        -12    1    1    2    0    0 -0.22078220681E+02 -0.25870306994E+02 -0.26961150247E+02  0.43400740029E+02  0.00000000000E+00 0.  1.
         11    1    3    3    0    0  0.32624137397E+01  0.17602440224E+02  0.11971721644E+02  0.21536280195E+02  0.51100000000E-03 0. -1.
        -11    1    3    3    0    0  0.28634029986E+01  0.10834561538E+01 -0.21890117369E+00  0.30693438964E+01  0.51100000000E-03 0.  1.
         12    1    3    3    0    0  0.15952403943E+02  0.71844106160E+01  0.15208329777E+02  0.23181635880E+02  0.00000000000E+00 0. -1.
</event>
<event>
 7    1  0.2430096E-009  0.4778727E+02  0.7816164E-02  0.1312668E+00
        -11   -1    0    0    0    0  0.00000000000E+00  0.00000000000E+00  0.45593999997E+02  0.45594000000E+02  0.51100000000E-03 0.  1.
         11   -1    0    0    0    0 -0.00000000000E+00 -0.00000000000E+00 -0.45593999997E+02  0.45594000000E+02  0.51100000000E-03 0. -1.
    9900012    2    1    2    0    0  0.39528517728E+02 -0.12266628333E+01 -0.17877776373E+02  0.47787270703E+02  0.19999998445E+02 0.  0.
        -12    1    1    2    0    0 -0.39528517728E+02  0.12266628333E+01  0.17877776373E+02  0.43400729297E+02  0.00000000000E+00 0.  1.
         11    1    3    3    0    0  0.12259779423E+02  0.61836194213E+00  0.78701666680E-02  0.12275366601E+02  0.51100000000E-03 0. -1.
        -11    1    3    3    0    0  0.49073996456E+00  0.22347408782E+01 -0.50364359633E+01  0.55317790971E+01  0.51100000000E-03 0.  1.
        -12    1    3    3    0    0  0.26777998340E+02 -0.40797656536E+01 -0.12849210576E+02  0.29980125005E+02  0.00000000000E+00 0.  1.
</event>
<event>
 7    1  0.2430096E-009  0.4778727E+02  0.7816164E-02  0.1312668E+00
        -11   -1    0    0    0    0  0.00000000000E+00  0.00000000000E+00  0.45593999997E+02  0.45594000000E+02  0.51100000000E-03 0.  1.
         11   -1    0    0    0    0 -0.00000000000E+00 -0.00000000000E+00 -0.45593999997E+02  0.45594000000E+02  0.51100000000E-03 0. -1.
    9900012    2    1    2    0    0 -0.17694490696E+02 -0.11234156400E+02 -0.38004241127E+02  0.47787267119E+02  0.19999982102E+02 0.  0.
        -12    1    1    2    0    0  0.17694490696E+02  0.11234156400E+02  0.38004241127E+02  0.43400732881E+02  0.00000000000E+00 0.  1.
         11    1    3    3    0    0 -0.15986295123E+02 -0.28726797953E+01 -0.13493261976E+02  0.21115919113E+02  0.51100000000E-03 0. -1.
        -11    1    3    3    0    0  0.21145225175E+01 -0.32010838237E+01 -0.64759228264E+01  0.75269993914E+01  0.51100000000E-03 0.  1.
         12    1    3    3    0    0 -0.38227180901E+01 -0.51603927808E+01 -0.18035056325E+02  0.19144348615E+02  0.00000000000E+00 0. -1.
</event>
<event>
 7    1  0.2430096E-009  0.4778729E+02  0.7816164E-02  0.1312668E+00
        -11   -1    0    0    0    0  0.00000000000E+00  0.00000000000E+00  0.45593999997E+02  0.45594000000E+02  0.51100000000E-03 0.  1.
         11   -1    0    0    0    0 -0.00000000000E+00 -0.00000000000E+00 -0.45593999997E+02  0.45594000000E+02  0.51100000000E-03 0. -1.
    9900012    2    1    2    0    0 -0.19628159290E+02  0.30392438483E+02 -0.23971993995E+02  0.47787292055E+02  0.20000095795E+02 0.  0.
        -12    1    1    2    0    0  0.19628159290E+02 -0.30392438483E+02  0.23971993995E+02  0.43400707945E+02  0.00000000000E+00 0.  1.
         11    1    3    3    0    0 -0.96026767408E+01  0.10641907248E+02 -0.32046360525E+01  0.14687793672E+02  0.51100000000E-03 0. -1.
        -11    1    3    3    0    0 -0.59925333765E+00  0.15195357387E+02 -0.10871188157E+02  0.18693333648E+02  0.51100000000E-03 0.  1.
        -12    1    3    3    0    0 -0.94262292117E+01  0.45551738472E+01 -0.98961697858E+01  0.14406164735E+02  0.00000000000E+00 0.  1.
</event>
<event>
 7    1  0.2430096E-009  0.4778728E+02  0.7816164E-02  0.1312668E+00
        -11   -1    0    0    0    0  0.00000000000E+00  0.00000000000E+00  0.45593999997E+02  0.45594000000E+02  0.51100000000E-03 0.  1.
         11   -1    0    0    0    0 -0.00000000000E+00 -0.00000000000E+00 -0.45593999997E+02  0.45594000000E+02  0.51100000000E-03 0. -1.
    9900012    2    1    2    0    0  0.80939309001E+01  0.42311779425E+02 -0.52748869145E+01  0.47787276187E+02  0.20000023448E+02 0.  0.
        -12    1    1    2    0    0 -0.80939309001E+01 -0.42311779425E+02  0.52748869145E+01  0.43400723813E+02  0.00000000000E+00 0.  1.
         11    1    3    3    0    0  0.75928296318E+00  0.38316885686E+01 -0.29652279813E+01  0.49041742575E+01  0.51100000000E-03 0. -1.
        -11    1    3    3    0    0  0.14038867346E+01  0.26365827823E+02 -0.89108119574E+01  0.27866294063E+02  0.51100000000E-03 0.  1.
        -12    1    3    3    0    0  0.59307612024E+01  0.12114263033E+02  0.66011530242E+01  0.15016807867E+02  0.00000000000E+00 0.  1.
</event>
<event>
 7    1  0.2430096E-009  0.4778728E+02  0.7816164E-02  0.1312668E+00
        -11   -1    0    0    0    0  0.00000000000E+00  0.00000000000E+00  0.45593999997E+02  0.45594000000E+02  0.51100000000E-03 0.  1.
         11   -1    0    0    0    0 -0.00000000000E+00 -0.00000000000E+00 -0.45593999997E+02  0.45594000000E+02  0.51100000000E-03 0. -1.
    9900012    2    1    2    0    0 -0.26531158288E+02 -0.18962134956E+02 -0.28638389548E+02  0.47787282517E+02  0.20000052307E+02 0.  0.
        -12    1    1    2    0    0  0.26531158288E+02  0.18962134956E+02  0.28638389548E+02  0.43400717483E+02  0.00000000000E+00 0.  1.
         11    1    3    3    0    0 -0.27691284506E+01 -0.69925509726E+01 -0.49233735883E+01  0.89890738806E+01  0.51100000000E-03 0. -1.
        -11    1    3    3    0    0 -0.47460696682E+01 -0.68811526496E+00  0.17213692155E+01  0.50952715482E+01  0.51100000000E-03 0.  1.
        -12    1    3    3    0    0 -0.19015960169E+02 -0.11281468718E+02 -0.25436385175E+02  0.33702937088E+02  0.00000000000E+00 0.  1.
</event>
<event>
 7    1  0.2430096E-009  0.4778727E+02  0.7816164E-02  0.1312668E+00
        -11   -1    0    0    0    0  0.00000000000E+00  0.00000000000E+00  0.45593999997E+02  0.45594000000E+02  0.51100000000E-03 0. -1.
         11   -1    0    0    0    0 -0.00000000000E+00 -0.00000000000E+00 -0.45593999997E+02  0.45594000000E+02  0.51100000000E-03 0.  1.
    9900012    2    1    2    0    0  0.34665563692E+02  0.25326533248E+02  0.63630675181E+01  0.47787271657E+02  0.20000002792E+02 0.  0.
        -12    1    1    2    0    0 -0.34665563692E+02 -0.25326533248E+02 -0.63630675181E+01  0.43400728343E+02  0.00000000000E+00 0.  1.
         11    1    3    3    0    0  0.47384315932E+01  0.28290361482E+01  0.60013837021E+00  0.55512472306E+01  0.51100000000E-03 0. -1.
        -11    1    3    3    0    0  0.30200683820E+02  0.14046280245E+02  0.35526720117E+01  0.33496279951E+02  0.51100000000E-03 0.  1.
        -12    1    3    3    0    0 -0.27355172070E+00  0.84512168554E+01  0.22102571362E+01  0.87397444750E+01  0.00000000000E+00 0.  1.
</event>
<event>
 7    1  0.2430096E-009  0.4778727E+02  0.7816164E-02  0.1312668E+00
        -11   -1    0    0    0    0  0.00000000000E+00  0.00000000000E+00  0.45593999997E+02  0.45594000000E+02  0.51100000000E-03 0.  1.
         11   -1    0    0    0    0 -0.00000000000E+00 -0.00000000000E+00 -0.45593999997E+02  0.45594000000E+02  0.51100000000E-03 0. -1.
    9900012    2    1    2    0    0  0.12825324797E+02 -0.11110229879E+02 -0.39946174744E+02  0.47787273730E+02  0.20000012245E+02 0.  0.
        -12    1    1    2    0    0 -0.12825324797E+02  0.11110229879E+02  0.39946174744E+02  0.43400726270E+02  0.00000000000E+00 0.  1.
         11    1    3    3    0    0  0.40544039061E+01 -0.11932894836E+02 -0.27048763535E+02  0.29840706748E+02  0.51100000000E-03 0. -1.
        -11    1    3    3    0    0  0.51320817177E+01  0.32591954589E+01 -0.23353715487E+01  0.65126475667E+01  0.51100000000E-03 0.  1.
        -12    1    3    3    0    0  0.36388391727E+01 -0.24365305020E+01 -0.10562039660E+02  0.11433919415E+02  0.00000000000E+00 0.  1.
</event>
<event>
 7    1  0.2430096E-009  0.4778728E+02  0.7816164E-02  0.1312668E+00
        -11   -1    0    0    0    0  0.00000000000E+00  0.00000000000E+00  0.45593999997E+02  0.45594000000E+02  0.51100000000E-03 0.  1.
         11   -1    0    0    0    0 -0.00000000000E+00 -0.00000000000E+00 -0.45593999997E+02  0.45594000000E+02  0.51100000000E-03 0. -1.
    9900012    2    1    2    0    0 -0.11675752369E+02  0.10870165630E+02 -0.40362591369E+02  0.47787280234E+02  0.20000041899E+02 0.  0.
        -12    1    1    2    0    0  0.11675752369E+02 -0.10870165630E+02  0.40362591369E+02  0.43400719766E+02  0.00000000000E+00 0.  1.
         11    1    3    3    0    0 -0.54845045804E+01  0.64887646320E+01 -0.33842583247E+02  0.34892754234E+02  0.51100000000E-03 0. -1.
        -11    1    3    3    0    0 -0.64225015116E+01  0.35571341461E+01 -0.11195683178E+01  0.74266521716E+01  0.51100000000E-03 0.  1.
         12    1    3    3    0    0  0.23125372289E+00  0.82426685192E+00 -0.54004398042E+01  0.54678738287E+01  0.00000000000E+00 0. -1.
</event>
<event>
 7    1  0.2430096E-009  0.4778727E+02  0.7816164E-02  0.1312668E+00
        -11   -1    0    0    0    0  0.00000000000E+00  0.00000000000E+00  0.45593999997E+02  0.45594000000E+02  0.51100000000E-03 0. -1.
         11   -1    0    0    0    0 -0.00000000000E+00 -0.00000000000E+00 -0.45593999997E+02  0.45594000000E+02  0.51100000000E-03 0.  1.
    9900012    2    1    2    0    0  0.13728643289E+02  0.10268154162E+02  0.39871203824E+02  0.47787268084E+02  0.19999986502E+02 0.  0.
        -12    1    1    2    0    0 -0.13728643289E+02 -0.10268154162E+02 -0.39871203824E+02  0.43400731916E+02  0.00000000000E+00 0.  1.
         11    1    3    3    0    0  0.86556639334E+01  0.64143595593E+01  0.10405090746E+02  0.14977664717E+02  0.51100000000E-03 0. -1.
        -11    1    3    3    0    0  0.10238187357E+01 -0.14444339904E+00  0.26255541282E+02  0.26275892316E+02  0.51100000000E-03 0.  1.
        -12    1    3    3    0    0  0.40491606194E+01  0.39982380021E+01  0.32105717964E+01  0.65337110514E+01  0.00000000000E+00 0.  1.
</event>
<event>
 7    1  0.2430096E-009  0.4778727E+02  0.7816164E-02  0.1312668E+00
        -11   -1    0    0    0    0  0.00000000000E+00  0.00000000000E+00  0.45593999997E+02  0.45594000000E+02  0.51100000000E-03 0. -1.
         11   -1    0    0    0    0 -0.00000000000E+00 -0.00000000000E+00 -0.45593999997E+02  0.45594000000E+02  0.51100000000E-03 0.  1.
    9900012    2    1    2    0    0 -0.38026486362E+02  0.19885084133E+02  0.64956177550E+01  0.47787270904E+02  0.19999999359E+02 0.  0.
        -12    1    1    2    0    0  0.38026486362E+02 -0.19885084133E+02 -0.64956177550E+01  0.43400729096E+02  0.00000000000E+00 0.  1.
         11    1    3    3    0    0 -0.62180190683E+01  0.38727608174E+01 -0.60699976179E+01  0.95135119080E+01  0.51100000000E-03 0. -1.
        -11    1    3    3    0    0 -0.26592804732E+01  0.11445708917E+01  0.30298578267E+01  0.41906865634E+01  0.51100000000E-03 0.  1.
         12    1    3    3    0    0 -0.29149186821E+02  0.14867752424E+02  0.95357575461E+01  0.34083072433E+02  0.00000000000E+00 0. -1.
</event>
<event>
 7    1  0.2430096E-009  0.4778727E+02  0.7816164E-02  0.1312668E+00
        -11   -1    0    0    0    0  0.00000000000E+00  0.00000000000E+00  0.45593999997E+02  0.45594000000E+02  0.51100000000E-03 0. -1.
         11   -1    0    0    0    0 -0.00000000000E+00 -0.00000000000E+00 -0.45593999997E+02  0.45594000000E+02  0.51100000000E-03 0.  1.
    9900012    2    1    2    0    0  0.35373654753E+02 -0.17057662006E+02 -0.18476037275E+02  0.47787271468E+02  0.20000001933E+02 0.  0.
        -12    1    1    2    0    0 -0.35373654753E+02  0.17057662006E+02  0.18476037275E+02  0.43400728532E+02  0.00000000000E+00 0.  1.
         11    1    3    3    0    0  0.30671256357E+02 -0.10515782589E+02 -0.13218361008E+02  0.35014750006E+02  0.51100000000E-03 0. -1.
        -11    1    3    3    0    0  0.17780860958E+01 -0.37142190287E+01 -0.71771439349E+01  0.82745639451E+01  0.51100000000E-03 0.  1.
        -12    1    3    3    0    0  0.29243122994E+01 -0.28276603887E+01  0.19194676678E+01  0.44979575171E+01  0.00000000000E+00 0.  1.
</event>
<event>
 7    1  0.2430096E-009  0.4778726E+02  0.7816164E-02  0.1312668E+00
        -11   -1    0    0    0    0  0.00000000000E+00  0.00000000000E+00  0.45593999997E+02  0.45594000000E+02  0.51100000000E-03 0.  1.
         11   -1    0    0    0    0 -0.00000000000E+00 -0.00000000000E+00 -0.45593999997E+02  0.45594000000E+02  0.51100000000E-03 0. -1.
    9900012    2    1    2    0    0 -0.20876373738E+02 -0.22952385801E+02 -0.30347801389E+02  0.47787262178E+02  0.19999959573E+02 0.  0.
        -12    1    1    2    0    0  0.20876373738E+02  0.22952385801E+02  0.30347801389E+02  0.43400737822E+02  0.00000000000E+00 0.  1.
         11    1    3    3    0    0 -0.10363211334E+01  0.38517345234E+00 -0.10774745080E+01  0.15437848478E+01  0.51100000000E-03 0. -1.
        -11    1    3    3    0    0 -0.19938743904E+02 -0.10756605243E+02 -0.22612554005E+02  0.32009149687E+02  0.51100000000E-03 0.  1.
        -12    1    3    3    0    0  0.98691299361E-01 -0.12580954010E+02 -0.66577728758E+01  0.14234327643E+02  0.00000000000E+00 0.  1.
</event>
<event>
 7    1  0.2430096E-009  0.4778726E+02  0.7816164E-02  0.1312668E+00
        -11   -1    0    0    0    0  0.00000000000E+00  0.00000000000E+00  0.45593999997E+02  0.45594000000E+02  0.51100000000E-03 0.  1.
         11   -1    0    0    0    0 -0.00000000000E+00 -0.00000000000E+00 -0.45593999997E+02  0.45594000000E+02  0.51100000000E-03 0. -1.
    9900012    2    1    2    0    0 -0.84030873715E+00 -0.22544133651E+02 -0.37076677313E+02  0.47787261741E+02  0.19999957584E+02 0.  0.
        -12    1    1    2    0    0  0.84030873715E+00  0.22544133651E+02  0.37076677313E+02  0.43400738259E+02  0.00000000000E+00 0.  1.
         11    1    3    3    0    0 -0.32312557338E+01 -0.60877603158E+00  0.10014294548E+01  0.34372202559E+01  0.51100000000E-03 0. -1.
        -11    1    3    3    0    0  0.39803386220E+01 -0.17786861755E+02 -0.31909249592E+02  0.36748003434E+02  0.51100000000E-03 0.  1.
         12    1    3    3    0    0 -0.15893916254E+01 -0.41484958645E+01 -0.61688571758E+01  0.76020380512E+01  0.00000000000E+00 0. -1.
</event>
<event>
 7    1  0.2430096E-009  0.4778727E+02  0.7816164E-02  0.1312668E+00
        -11   -1    0    0    0    0  0.00000000000E+00  0.00000000000E+00  0.45593999997E+02  0.45594000000E+02  0.51100000000E-03 0.  1.
         11   -1    0    0    0    0 -0.00000000000E+00 -0.00000000000E+00 -0.45593999997E+02  0.45594000000E+02  0.51100000000E-03 0. -1.
    9900012    2    1    2    0    0 -0.35765300724E+02 -0.23529383508E+02 -0.71298427624E+01  0.47787270951E+02  0.19999999575E+02 0.  0.
        -12    1    1    2    0    0  0.35765300724E+02  0.23529383508E+02  0.71298427624E+01  0.43400729049E+02  0.00000000000E+00 0.  1.
         11    1    3    3    0    0 -0.26664260292E+02 -0.19869406965E+02 -0.90504439024E+01  0.34462829906E+02  0.51100000000E-03 0. -1.
        -11    1    3    3    0    0  0.95056901694E-01 -0.31887070570E+01  0.25654774206E+01  0.40937224096E+01  0.51100000000E-03 0.  1.
         12    1    3    3    0    0 -0.91960973338E+01 -0.47126948570E+00 -0.64487628064E+00  0.92307186350E+01  0.00000000000E+00 0. -1.
</event>
<event>
 7    1  0.2430096E-009  0.4778727E+02  0.7816164E-02  0.1312668E+00
        -11   -1    0    0    0    0  0.00000000000E+00  0.00000000000E+00  0.45593999997E+02  0.45594000000E+02  0.51100000000E-03 0.  1.
         11   -1    0    0    0    0 -0.00000000000E+00 -0.00000000000E+00 -0.45593999997E+02  0.45594000000E+02  0.51100000000E-03 0. -1.
    9900012    2    1    2    0    0 -0.18747696001E+02  0.14816339484E+01 -0.39114599536E+02  0.47787271419E+02  0.20000001707E+02 0.  0.
        -12    1    1    2    0    0  0.18747696001E+02 -0.14816339484E+01  0.39114599536E+02  0.43400728581E+02  0.00000000000E+00 0.  1.
         11    1    3    3    0    0 -0.57200947915E+01 -0.13202688600E+01 -0.13522519941E+02  0.14741816038E+02  0.51100000000E-03 0. -1.
        -11    1    3    3    0    0 -0.48772134216E+01  0.17314195049E+01 -0.24151499031E+02  0.24699796153E+02  0.51100000000E-03 0.  1.
        -12    1    3    3    0    0 -0.81503877878E+01  0.10704833034E+01 -0.14405805645E+01  0.83456592284E+01  0.00000000000E+00 0.  1.
</event>
<event>
 7    1  0.2430096E-009  0.4778727E+02  0.7816164E-02  0.1312668E+00
        -11   -1    0    0    0    0  0.00000000000E+00  0.00000000000E+00  0.45593999997E+02  0.45594000000E+02  0.51100000000E-03 0.  1.
         11   -1    0    0    0    0 -0.00000000000E+00 -0.00000000000E+00 -0.45593999997E+02  0.45594000000E+02  0.51100000000E-03 0. -1.
    9900012    2    1    2    0    0 -0.43165603372E+01 -0.22733406831E+02 -0.36717608623E+02  0.47787271178E+02  0.20000000610E+02 0.  0.
        -12    1    1    2    0    0  0.43165603372E+01  0.22733406831E+02  0.36717608623E+02  0.43400728822E+02  0.00000000000E+00 0.  1.
         11    1    3    3    0    0 -0.31464438970E+00 -0.30216143190E+01 -0.40126084041E+01  0.50329097598E+01  0.51100000000E-03 0. -1.
        -11    1    3    3    0    0 -0.90465152747E+01 -0.17035874778E+02 -0.31471496637E+02  0.36912268542E+02  0.51100000000E-03 0.  1.
        -12    1    3    3    0    0  0.50445993272E+01 -0.26759177341E+01 -0.12335035816E+01  0.58420928765E+01  0.00000000000E+00 0.  1.
</event>
<event>
 7    1  0.2430096E-009  0.4778727E+02  0.7816164E-02  0.1312668E+00
        -11   -1    0    0    0    0  0.00000000000E+00  0.00000000000E+00  0.45593999997E+02  0.45594000000E+02  0.51100000000E-03 0.  1.
         11   -1    0    0    0    0 -0.00000000000E+00 -0.00000000000E+00 -0.45593999997E+02  0.45594000000E+02  0.51100000000E-03 0. -1.
    9900012    2    1    2    0    0 -0.16162859091E+02 -0.14900591518E+02 -0.37421354151E+02  0.47787269729E+02  0.19999994001E+02 0.  0.
        -12    1    1    2    0    0  0.16162859091E+02  0.14900591518E+02  0.37421354151E+02  0.43400730271E+02  0.00000000000E+00 0.  1.
         11    1    3    3    0    0 -0.39284555441E+01  0.15182718294E+01 -0.18069068250E+02  0.18553413163E+02  0.51100000000E-03 0. -1.
        -11    1    3    3    0    0 -0.92741152134E+00 -0.52941989358E+01 -0.20277775430E+01  0.57446076043E+01  0.51100000000E-03 0.  1.
         12    1    3    3    0    0 -0.11306992025E+02 -0.11124664412E+02 -0.17324508358E+02  0.23489248962E+02  0.00000000000E+00 0. -1.
</event>
<event>
 7    1  0.2430096E-009  0.4778725E+02  0.7816164E-02  0.1312668E+00
        -11   -1    0    0    0    0  0.00000000000E+00  0.00000000000E+00  0.45593999997E+02  0.45594000000E+02  0.51100000000E-03 0.  1.
         11   -1    0    0    0    0 -0.00000000000E+00 -0.00000000000E+00 -0.45593999997E+02  0.45594000000E+02  0.51100000000E-03 0. -1.
    9900012    2    1    2    0    0 -0.91022084472E+01 -0.29303373913E+02 -0.30693440237E+02  0.47787248914E+02  0.19999899096E+02 0.  0.
        -12    1    1    2    0    0  0.91022084472E+01  0.29303373913E+02  0.30693440237E+02  0.43400751086E+02  0.00000000000E+00 0.  1.
         11    1    3    3    0    0 -0.58135249045E+01 -0.72808947270E+01 -0.68018094836E+01  0.11535731982E+02  0.51100000000E-03 0. -1.
        -11    1    3    3    0    0 -0.59559079757E+01 -0.22560113794E+02 -0.17079486903E+02  0.28916093224E+02  0.51100000000E-03 0.  1.
        -12    1    3    3    0    0  0.26672244330E+01  0.53763460742E+00 -0.68121438496E+01  0.73354237079E+01  0.00000000000E+00 0.  1.
</event>
<event>
 7    1 -0.2430096E-009  0.4778727E+02  0.7816164E-02  0.1312668E+00
        -11   -1    0    0    0    0  0.00000000000E+00  0.00000000000E+00  0.45593999997E+02  0.45594000000E+02  0.51100000000E-03 0.  1.
         11   -1    0    0    0    0 -0.00000000000E+00 -0.00000000000E+00 -0.45593999997E+02  0.45594000000E+02  0.51100000000E-03 0. -1.
    9900012    2    1    2    0    0 -0.27886722282E+02 -0.15553530119E+02 -0.29394585891E+02  0.47787271221E+02  0.20000000807E+02 0.  0.
        -12    1    1    2    0    0  0.27886722282E+02  0.15553530119E+02  0.29394585891E+02  0.43400728779E+02  0.00000000000E+00 0.  1.
         11    1    3    3    0    0 -0.20750125465E+01 -0.14883253975E+01 -0.78587042884E+01  0.82631726904E+01  0.51100000000E-03 0. -1.
        -11    1    3    3    0    0 -0.55319564459E+01 -0.10328673799E+02 -0.37786477927E+01  0.12311061042E+02  0.51100000000E-03 0.  1.
        -12    1    3    3    0    0 -0.20279753290E+02 -0.37365309224E+01 -0.17757233810E+02  0.27213037490E+02  0.00000000000E+00 0.  1.
</event>
<event>
 7    1  0.2430096E-009  0.4778727E+02  0.7816164E-02  0.1312668E+00
        -11   -1    0    0    0    0  0.00000000000E+00  0.00000000000E+00  0.45593999997E+02  0.45594000000E+02  0.51100000000E-03 0.  1.
         11   -1    0    0    0    0 -0.00000000000E+00 -0.00000000000E+00 -0.45593999997E+02  0.45594000000E+02  0.51100000000E-03 0. -1.
    9900012    2    1    2    0    0  0.17404641554E+02  0.13521695329E+02 -0.37388036500E+02  0.47787273445E+02  0.20000010945E+02 0.  0.
        -12    1    1    2    0    0 -0.17404641554E+02 -0.13521695329E+02  0.37388036500E+02  0.43400726555E+02  0.00000000000E+00 0.  1.
         11    1    3    3    0    0  0.56973768189E+01  0.14880581857E+02 -0.25894366245E+02  0.30404111934E+02  0.51100000000E-03 0. -1.
        -11    1    3    3    0    0  0.25048286306E+01 -0.22429105106E+01 -0.12562608412E+01  0.35892904020E+01  0.51100000000E-03 0.  1.
         12    1    3    3    0    0  0.92024361048E+01  0.88402398250E+00 -0.10237409414E+02  0.13793871109E+02  0.00000000000E+00 0. -1.
</event>
<event>
 7    1  0.2430096E-009  0.4778727E+02  0.7816164E-02  0.1312668E+00
        -11   -1    0    0    0    0  0.00000000000E+00  0.00000000000E+00  0.45593999997E+02  0.45594000000E+02  0.51100000000E-03 0.  1.
         11   -1    0    0    0    0 -0.00000000000E+00 -0.00000000000E+00 -0.45593999997E+02  0.45594000000E+02  0.51100000000E-03 0. -1.
    9900012    2    1    2    0    0 -0.37593704805E+02 -0.36806541097E+01 -0.21372634403E+02  0.47787270088E+02  0.19999995637E+02 0.  0.
        -12    1    1    2    0    0  0.37593704805E+02  0.36806541097E+01  0.21372634403E+02  0.43400729912E+02  0.00000000000E+00 0.  1.
         11    1    3    3    0    0 -0.28389563058E+02  0.54749115576E+01 -0.13998731277E+02  0.32123300341E+02  0.51100000000E-03 0. -1.
        -11    1    3    3    0    0 -0.71382125598E+01 -0.59279904223E+01 -0.73412345666E+01  0.11831689407E+02  0.51100000000E-03 0.  1.
         12    1    3    3    0    0 -0.20659291873E+01 -0.32275752450E+01 -0.32668559407E-01  0.38322803399E+01  0.00000000000E+00 0. -1.
</event>
<event>
 7    1  0.2430096E-009  0.4778727E+02  0.7816164E-02  0.1312668E+00
        -11   -1    0    0    0    0  0.00000000000E+00  0.00000000000E+00  0.45593999997E+02  0.45594000000E+02  0.51100000000E-03 0.  1.
         11   -1    0    0    0    0 -0.00000000000E+00 -0.00000000000E+00 -0.45593999997E+02  0.45594000000E+02  0.51100000000E-03 0. -1.
    9900012    2    1    2    0    0 -0.32608930584E+02  0.39997352145E+01 -0.28359892060E+02  0.47787265982E+02  0.19999976918E+02 0.  0.
        -12    1    1    2    0    0  0.32608930584E+02 -0.39997352145E+01  0.28359892060E+02  0.43400734018E+02  0.00000000000E+00 0.  1.
         11    1    3    3    0    0 -0.13061121132E+02  0.65273470230E+01 -0.54490967336E+01  0.15584986361E+02  0.51100000000E-03 0. -1.
        -11    1    3    3    0    0 -0.15085685712E+02 -0.57842478558E+01 -0.12540334999E+02  0.20452272217E+02  0.51100000000E-03 0.  1.
         12    1    3    3    0    0 -0.44621237401E+01  0.32566360473E+01 -0.10370460327E+02  0.11750007405E+02  0.00000000000E+00 0. -1.
</event>
<event>
 7    1  0.2430096E-009  0.4778728E+02  0.7816164E-02  0.1312668E+00
        -11   -1    0    0    0    0  0.00000000000E+00  0.00000000000E+00  0.45593999997E+02  0.45594000000E+02  0.51100000000E-03 0.  1.
         11   -1    0    0    0    0 -0.00000000000E+00 -0.00000000000E+00 -0.45593999997E+02  0.45594000000E+02  0.51100000000E-03 0. -1.
    9900012    2    1    2    0    0 -0.29121458520E+02  0.30058854007E+02  0.11490345352E+02  0.47787284719E+02  0.20000062350E+02 0.  0.
        -12    1    1    2    0    0  0.29121458520E+02 -0.30058854007E+02 -0.11490345352E+02  0.43400715281E+02  0.00000000000E+00 0.  1.
         11    1    3    3    0    0 -0.23243197047E+02  0.25819332023E+02  0.13196242680E+02  0.37162143859E+02  0.51100000000E-03 0. -1.
        -11    1    3    3    0    0 -0.16271893719E+01 -0.18664243229E+01  0.10520593695E+01  0.26903743574E+01  0.51100000000E-03 0.  1.
         12    1    3    3    0    0 -0.42510721019E+01  0.61059463066E+01 -0.27579566972E+01  0.79347665031E+01  0.00000000000E+00 0. -1.
</event>
<event>
 7    1  0.2430096E-009  0.4778727E+02  0.7816164E-02  0.1312668E+00
        -11   -1    0    0    0    0  0.00000000000E+00  0.00000000000E+00  0.45593999997E+02  0.45594000000E+02  0.51100000000E-03 0. -1.
         11   -1    0    0    0    0 -0.00000000000E+00 -0.00000000000E+00 -0.45593999997E+02  0.45594000000E+02  0.51100000000E-03 0.  1.
    9900012    2    1    2    0    0  0.10978864525E+01 -0.33000777690E+02 -0.28166767222E+02  0.47787268917E+02  0.19999990300E+02 0.  0.
        -12    1    1    2    0    0 -0.10978864525E+01  0.33000777690E+02  0.28166767222E+02  0.43400731083E+02  0.00000000000E+00 0.  1.
         11    1    3    3    0    0 -0.20969917123E+01 -0.10601854617E+02 -0.13254869107E+02  0.17102287884E+02  0.51100000000E-03 0. -1.
        -11    1    3    3    0    0  0.78302406043E+01 -0.15487015625E+02 -0.56898442502E+01  0.18262931001E+02  0.51100000000E-03 0.  1.
        -12    1    3    3    0    0 -0.46353624395E+01 -0.69119074477E+01 -0.92220538648E+01  0.12422050032E+02  0.00000000000E+00 0.  1.
</event>
<event>
 7    1  0.2430096E-009  0.4778724E+02  0.7816164E-02  0.1312668E+00
        -11   -1    0    0    0    0  0.00000000000E+00  0.00000000000E+00  0.45593999997E+02  0.45594000000E+02  0.51100000000E-03 0. -1.
         11   -1    0    0    0    0 -0.00000000000E+00 -0.00000000000E+00 -0.45593999997E+02  0.45594000000E+02  0.51100000000E-03 0.  1.
    9900012    2    1    2    0    0  0.24795422097E+02 -0.76977871236E+01  0.34778689659E+02  0.47787238048E+02  0.19999849556E+02 0.  0.
        -12    1    1    2    0    0 -0.24795422097E+02  0.76977871236E+01 -0.34778689659E+02  0.43400761952E+02  0.00000000000E+00 0.  1.
         11    1    3    3    0    0  0.12052792438E+02  0.32164742259E+01  0.15195731563E+02  0.19660258645E+02  0.51100000000E-03 0. -1.
        -11    1    3    3    0    0 -0.15005761331E+01 -0.40630052160E+01  0.50825273303E+01  0.66777110180E+01  0.51100000000E-03 0.  1.
         12    1    3    3    0    0  0.14243205792E+02 -0.68512561336E+01  0.14500430766E+02  0.21449268385E+02  0.00000000000E+00 0. -1.
</event>
<event>
 7    1  0.2430096E-009  0.4778727E+02  0.7816164E-02  0.1312668E+00
        -11   -1    0    0    0    0  0.00000000000E+00  0.00000000000E+00  0.45593999997E+02  0.45594000000E+02  0.51100000000E-03 0. -1.
         11   -1    0    0    0    0 -0.00000000000E+00 -0.00000000000E+00 -0.45593999997E+02  0.45594000000E+02  0.51100000000E-03 0.  1.
    9900012    2    1    2    0    0  0.41662066989E+02  0.39338562361E+01 -0.11507410421E+02  0.47787267917E+02  0.19999985742E+02 0.  0.
        -12    1    1    2    0    0 -0.41662066989E+02 -0.39338562361E+01  0.11507410421E+02  0.43400732083E+02  0.00000000000E+00 0.  1.
         11    1    3    3    0    0  0.16435287751E+02  0.97403265668E+01 -0.48930296088E+01  0.19721419424E+02  0.51100000000E-03 0. -1.
        -11    1    3    3    0    0  0.11524380932E+02 -0.70175419469E+01 -0.26554871599E+01  0.13751685830E+02  0.51100000000E-03 0.  1.
         12    1    3    3    0    0  0.13702398306E+02  0.12110716162E+01 -0.39588936525E+01  0.14314162664E+02  0.00000000000E+00 0. -1.
</event>
<event>
 7    1  0.2430096E-009  0.4778726E+02  0.7816164E-02  0.1312668E+00
        -11   -1    0    0    0    0  0.00000000000E+00  0.00000000000E+00  0.45593999997E+02  0.45594000000E+02  0.51100000000E-03 0.  1.
         11   -1    0    0    0    0 -0.00000000000E+00 -0.00000000000E+00 -0.45593999997E+02  0.45594000000E+02  0.51100000000E-03 0. -1.
    9900012    2    1    2    0    0  0.35944900114E+02  0.20101074978E+02 -0.13694351385E+02  0.47787259000E+02  0.19999945085E+02 0.  0.
        -12    1    1    2    0    0 -0.35944900114E+02 -0.20101074978E+02  0.13694351385E+02  0.43400741000E+02  0.00000000000E+00 0.  1.
         11    1    3    3    0    0  0.55129872814E+01  0.54533653650E+01 -0.72344976629E+01  0.10605195862E+02  0.51100000000E-03 0. -1.
        -11    1    3    3    0    0  0.10824052016E+02 -0.11819203590E+01  0.91012057893E+00  0.10926360671E+02  0.51100000000E-03 0.  1.
        -12    1    3    3    0    0  0.19607860817E+02  0.15829629972E+02 -0.73699743013E+01  0.26255702468E+02  0.00000000000E+00 0.  1.
</event>
<event>
 7    1  0.2430096E-009  0.4778727E+02  0.7816164E-02  0.1312668E+00
        -11   -1    0    0    0    0  0.00000000000E+00  0.00000000000E+00  0.45593999997E+02  0.45594000000E+02  0.51100000000E-03 0. -1.
         11   -1    0    0    0    0 -0.00000000000E+00 -0.00000000000E+00 -0.45593999997E+02  0.45594000000E+02  0.51100000000E-03 0.  1.
    9900012    2    1    2    0    0 -0.20562808672E+02  0.35026373340E+02  0.15295328805E+02  0.47787274049E+02  0.20000013697E+02 0.  0.
        -12    1    1    2    0    0  0.20562808672E+02 -0.35026373340E+02 -0.15295328805E+02  0.43400725951E+02  0.00000000000E+00 0.  1.
         11    1    3    3    0    0 -0.49863754598E+01  0.17927688460E+02 -0.11617564499E+01  0.18644453117E+02  0.51100000000E-03 0. -1.
        -11    1    3    3    0    0 -0.37863229534E+01  0.45266576516E+01  0.80084662380E+01  0.99479848587E+01  0.51100000000E-03 0.  1.
         12    1    3    3    0    0 -0.11790110259E+02  0.12572027229E+02  0.84486190166E+01  0.19194836072E+02  0.00000000000E+00 0. -1.
</event>
<event>
 7    1  0.2430096E-009  0.4778727E+02  0.7816164E-02  0.1312668E+00
        -11   -1    0    0    0    0  0.00000000000E+00  0.00000000000E+00  0.45593999997E+02  0.45594000000E+02  0.51100000000E-03 0. -1.
         11   -1    0    0    0    0 -0.00000000000E+00 -0.00000000000E+00 -0.45593999997E+02  0.45594000000E+02  0.51100000000E-03 0.  1.
    9900012    2    1    2    0    0 -0.26755137659E+02 -0.33594238900E+02  0.62620559060E+01  0.47787267027E+02  0.19999981683E+02 0.  0.
        -12    1    1    2    0    0  0.26755137659E+02  0.33594238900E+02 -0.62620559060E+01  0.43400732973E+02  0.00000000000E+00 0.  1.
         11    1    3    3    0    0 -0.11254396175E+02 -0.10039893609E+02  0.16624313729E+01  0.15173153109E+02  0.51100000000E-03 0. -1.
        -11    1    3    3    0    0 -0.18563764360E+02 -0.19415868177E+02  0.22556054923E+01  0.26956947911E+02  0.51100000000E-03 0.  1.
        -12    1    3    3    0    0  0.30630228763E+01 -0.41384771142E+01  0.23440190408E+01  0.56571660069E+01  0.00000000000E+00 0.  1.
</event>
<event>
 7    1  0.2430096E-009  0.4778727E+02  0.7816164E-02  0.1312668E+00
        -11   -1    0    0    0    0  0.00000000000E+00  0.00000000000E+00  0.45593999997E+02  0.45594000000E+02  0.51100000000E-03 0.  1.
         11   -1    0    0    0    0 -0.00000000000E+00 -0.00000000000E+00 -0.45593999997E+02  0.45594000000E+02  0.51100000000E-03 0. -1.
    9900012    2    1    2    0    0 -0.36906667890E+02 -0.99854879165E+01 -0.20538041537E+02  0.47787271275E+02  0.20000001053E+02 0.  0.
        -12    1    1    2    0    0  0.36906667890E+02  0.99854879165E+01  0.20538041537E+02  0.43400728725E+02  0.00000000000E+00 0.  1.
         11    1    3    3    0    0 -0.24489746960E+02 -0.14295071589E+02 -0.12399731058E+02  0.30949153599E+02  0.51100000000E-03 0. -1.
        -11    1    3    3    0    0 -0.74718398196E+01  0.45367773079E+01 -0.20267275037E+01  0.89732025089E+01  0.51100000000E-03 0.  1.
         12    1    3    3    0    0 -0.49450811097E+01 -0.22719363554E+00 -0.61115829754E+01  0.78649151677E+01  0.00000000000E+00 0. -1.
</event>
<event>
 7    1  0.2430096E-009  0.4778727E+02  0.7816164E-02  0.1312668E+00
        -11   -1    0    0    0    0  0.00000000000E+00  0.00000000000E+00  0.45593999997E+02  0.45594000000E+02  0.51100000000E-03 0. -1.
         11   -1    0    0    0    0 -0.00000000000E+00 -0.00000000000E+00 -0.45593999997E+02  0.45594000000E+02  0.51100000000E-03 0.  1.
    9900012    2    1    2    0    0  0.28879312650E+02 -0.31776501638E+02  0.63136967423E+01  0.47787268185E+02  0.19999986963E+02 0.  0.
        -12    1    1    2    0    0 -0.28879312650E+02  0.31776501638E+02 -0.63136967423E+01  0.43400731815E+02  0.00000000000E+00 0.  1.
         11    1    3    3    0    0  0.24183960342E+02 -0.25846957697E+02  0.10343826984E+01  0.35411849823E+02  0.51100000000E-03 0. -1.
        -11    1    3    3    0    0  0.91050647498E+00  0.20593804160E+01  0.42932355089E+00  0.22922453427E+01  0.51100000000E-03 0.  1.
         12    1    3    3    0    0  0.37848458327E+01 -0.79889243573E+01  0.48499904930E+01  0.10083173020E+02  0.00000000000E+00 0. -1.
</event>
<event>
 7    1  0.2430096E-009  0.4778727E+02  0.7816164E-02  0.1312668E+00
        -11   -1    0    0    0    0  0.00000000000E+00  0.00000000000E+00  0.45593999997E+02  0.45594000000E+02  0.51100000000E-03 0.  1.
         11   -1    0    0    0    0 -0.00000000000E+00 -0.00000000000E+00 -0.45593999997E+02  0.45594000000E+02  0.51100000000E-03 0. -1.
    9900012    2    1    2    0    0 -0.22169873586E+02 -0.36851070590E+02  0.58411482732E+01  0.47787266001E+02  0.19999977006E+02 0.  0.
        -12    1    1    2    0    0  0.22169873586E+02  0.36851070590E+02 -0.58411482732E+01  0.43400733999E+02  0.00000000000E+00 0.  1.
         11    1    3    3    0    0 -0.41171172356E+01 -0.12959079545E+02  0.19897508498E+01  0.13742179801E+02  0.51100000000E-03 0. -1.
        -11    1    3    3    0    0  0.82410028732E+00 -0.90493918986E+01  0.42428917898E+01  0.10028597410E+02  0.51100000000E-03 0.  1.
        -12    1    3    3    0    0 -0.18876856638E+02 -0.14842599147E+02 -0.39149436643E+00  0.24016488790E+02  0.00000000000E+00 0.  1.
</event>
<event>
 7    1  0.2430096E-009  0.4778723E+02  0.7816164E-02  0.1312668E+00
        -11   -1    0    0    0    0  0.00000000000E+00  0.00000000000E+00  0.45593999997E+02  0.45594000000E+02  0.51100000000E-03 0.  1.
         11   -1    0    0    0    0 -0.00000000000E+00 -0.00000000000E+00 -0.45593999997E+02  0.45594000000E+02  0.51100000000E-03 0. -1.
    9900012    2    1    2    0    0 -0.20346333263E+02  0.65361148804E+01 -0.37774763865E+02  0.47787229730E+02  0.19999811631E+02 0.  0.
        -12    1    1    2    0    0  0.20346333263E+02 -0.65361148804E+01  0.37774763865E+02  0.43400770270E+02  0.00000000000E+00 0.  1.
         11    1    3    3    0    0  0.10147764599E+01  0.14352515393E+00 -0.17686327529E+02  0.17715997078E+02  0.51100000000E-03 0. -1.
        -11    1    3    3    0    0 -0.16280862363E+02  0.56409635765E+01 -0.15869288524E+02  0.23424800274E+02  0.51100000000E-03 0.  1.
         12    1    3    3    0    0 -0.50802473600E+01  0.75162614998E+00 -0.42191478109E+01  0.66464323782E+01  0.00000000000E+00 0. -1.
</event>
<event>
 7    1  0.2430096E-009  0.4778727E+02  0.7816164E-02  0.1312668E+00
        -11   -1    0    0    0    0  0.00000000000E+00  0.00000000000E+00  0.45593999997E+02  0.45594000000E+02  0.51100000000E-03 0.  1.
         11   -1    0    0    0    0 -0.00000000000E+00 -0.00000000000E+00 -0.45593999997E+02  0.45594000000E+02  0.51100000000E-03 0. -1.
    9900012    2    1    2    0    0 -0.40908957150E+02 -0.12618591377E+02 -0.71310331367E+01  0.47787271238E+02  0.20000000884E+02 0.  0.
        -12    1    1    2    0    0  0.40908957150E+02  0.12618591377E+02  0.71310331367E+01  0.43400728762E+02  0.00000000000E+00 0.  1.
         11    1    3    3    0    0 -0.31932367646E+01  0.37346341529E+01  0.21565994693E+01  0.53661135678E+01  0.51100000000E-03 0.  1.
        -11    1    3    3    0    0 -0.20938791516E+02 -0.11611475607E+02 -0.48103119325E+01  0.24421270587E+02  0.51100000000E-03 0. -1.
        -12    1    3    3    0    0 -0.16776928869E+02 -0.47417499235E+01 -0.44773206735E+01  0.17999887084E+02  0.00000000000E+00 0.  1.
</event>
<event>
 7    1  0.2430096E-009  0.4778727E+02  0.7816164E-02  0.1312668E+00
        -11   -1    0    0    0    0  0.00000000000E+00  0.00000000000E+00  0.45593999997E+02  0.45594000000E+02  0.51100000000E-03 0. -1.
         11   -1    0    0    0    0 -0.00000000000E+00 -0.00000000000E+00 -0.45593999997E+02  0.45594000000E+02  0.51100000000E-03 0.  1.
    9900012    2    1    2    0    0 -0.13129907289E+02 -0.37993680773E+02  0.16361815242E+02  0.47787271410E+02  0.20000001666E+02 0.  0.
        -12    1    1    2    0    0  0.13129907289E+02  0.37993680773E+02 -0.16361815242E+02  0.43400728590E+02  0.00000000000E+00 0.  1.
         11    1    3    3    0    0 -0.11821190766E+01 -0.13681147425E+02  0.72058567493E+01  0.15507919658E+02  0.51100000000E-03 0. -1.
        -11    1    3    3    0    0 -0.93580003225E+01 -0.91527196402E+01  0.10584412908E+02  0.16833723406E+02  0.51100000000E-03 0.  1.
        -12    1    3    3    0    0 -0.25897878904E+01 -0.15159813708E+02 -0.14284544145E+01  0.15445628346E+02  0.00000000000E+00 0.  1.
</event>
<event>
 7    1  0.2430096E-009  0.4778727E+02  0.7816164E-02  0.1312668E+00
        -11   -1    0    0    0    0  0.00000000000E+00  0.00000000000E+00  0.45593999997E+02  0.45594000000E+02  0.51100000000E-03 0. -1.
         11   -1    0    0    0    0 -0.00000000000E+00 -0.00000000000E+00 -0.45593999997E+02  0.45594000000E+02  0.51100000000E-03 0.  1.
    9900012    2    1    2    0    0  0.42486886644E+02 -0.69240711188E+01  0.55267675479E+01  0.47787268933E+02  0.19999990375E+02 0.  0.
        -12    1    1    2    0    0 -0.42486886644E+02  0.69240711188E+01 -0.55267675479E+01  0.43400731067E+02  0.00000000000E+00 0.  1.
         11    1    3    3    0    0  0.21289041097E+02 -0.59727534208E+01  0.58489746019E+01  0.22871544732E+02  0.51100000000E-03 0. -1.
        -11    1    3    3    0    0  0.12504422307E+02 -0.14485741278E+00 -0.66211123946E+01  0.14149936060E+02  0.51100000000E-03 0.  1.
        -12    1    3    3    0    0  0.86934232406E+01 -0.80646028524E+00  0.62989053405E+01  0.10765788142E+02  0.00000000000E+00 0.  1.
</event>
<event>
 7    1  0.2430096E-009  0.4778727E+02  0.7816164E-02  0.1312668E+00
        -11   -1    0    0    0    0  0.00000000000E+00  0.00000000000E+00  0.45593999997E+02  0.45594000000E+02  0.51100000000E-03 0.  1.
         11   -1    0    0    0    0 -0.00000000000E+00 -0.00000000000E+00 -0.45593999997E+02  0.45594000000E+02  0.51100000000E-03 0. -1.
    9900012    2    1    2    0    0 -0.27114776517E+02 -0.33533503103E+01 -0.33721906742E+02  0.47787273529E+02  0.20000011329E+02 0.  0.
        -12    1    1    2    0    0  0.27114776517E+02  0.33533503103E+01  0.33721906742E+02  0.43400726471E+02  0.00000000000E+00 0.  1.
         11    1    3    3    0    0 -0.10482360505E+02 -0.53770809299E+01 -0.10999538324E+02  0.16117776666E+02  0.51100000000E-03 0. -1.
        -11    1    3    3    0    0 -0.17934453549E+02  0.49367933305E+01 -0.17441243577E+02  0.25499284897E+02  0.51100000000E-03 0.  1.
        -12    1    3    3    0    0  0.13020375369E+01 -0.29130627109E+01 -0.52811248416E+01  0.61702119654E+01  0.00000000000E+00 0.  1.
</event>
<event>
 7    1  0.2430096E-009  0.4778727E+02  0.7816164E-02  0.1312668E+00
        -11   -1    0    0    0    0  0.00000000000E+00  0.00000000000E+00  0.45593999997E+02  0.45594000000E+02  0.51100000000E-03 0. -1.
         11   -1    0    0    0    0 -0.00000000000E+00 -0.00000000000E+00 -0.45593999997E+02  0.45594000000E+02  0.51100000000E-03 0.  1.
    9900012    2    1    2    0    0  0.40706797590E+02  0.13833303110E+02 -0.59346147854E+01  0.47787270771E+02  0.19999998756E+02 0.  0.
        -12    1    1    2    0    0 -0.40706797590E+02 -0.13833303110E+02  0.59346147854E+01  0.43400729229E+02  0.00000000000E+00 0.  1.
         11    1    3    3    0    0  0.33658209367E+01 -0.29089906239E+01  0.28305993195E+01  0.52728805976E+01  0.51100000000E-03 0. -1.
        -11    1    3    3    0    0  0.22996348154E+02  0.14170022666E+02 -0.62562613591E+01  0.27726564469E+02  0.51100000000E-03 0.  1.
         12    1    3    3    0    0  0.14344628498E+02  0.25722710676E+01 -0.25089527458E+01  0.14787825705E+02  0.00000000000E+00 0. -1.
</event>
<event>
 7    1  0.2430096E-009  0.4778727E+02  0.7816164E-02  0.1312668E+00
        -11   -1    0    0    0    0  0.00000000000E+00  0.00000000000E+00  0.45593999997E+02  0.45594000000E+02  0.51100000000E-03 0.  1.
         11   -1    0    0    0    0 -0.00000000000E+00 -0.00000000000E+00 -0.45593999997E+02  0.45594000000E+02  0.51100000000E-03 0. -1.
    9900012    2    1    2    0    0 -0.35564719947E+02  0.22602618046E+02 -0.10387277833E+02  0.47787272031E+02  0.20000004497E+02 0.  0.
        -12    1    1    2    0    0  0.35564719947E+02 -0.22602618046E+02  0.10387277833E+02  0.43400727969E+02  0.00000000000E+00 0.  1.
         11    1    3    3    0    0 -0.29645090670E+02  0.22157338108E+02 -0.60751841914E+01  0.37505824829E+02  0.51100000000E-03 0. -1.
        -11    1    3    3    0    0  0.95102523731E+00  0.63818768649E+00  0.10578506249E+01  0.15590961262E+01  0.51100000000E-03 0.  1.
         12    1    3    3    0    0 -0.68706545150E+01 -0.19290774874E+00 -0.53699442667E+01  0.87223510760E+01  0.00000000000E+00 0. -1.
</event>
<event>
 7    1  0.2430096E-009  0.4778727E+02  0.7816164E-02  0.1312668E+00
        -11   -1    0    0    0    0  0.00000000000E+00  0.00000000000E+00  0.45593999997E+02  0.45594000000E+02  0.51100000000E-03 0. -1.
         11   -1    0    0    0    0 -0.00000000000E+00 -0.00000000000E+00 -0.45593999997E+02  0.45594000000E+02  0.51100000000E-03 0.  1.
    9900012    2    1    2    0    0 -0.16112276285E+02  0.39715271095E+02 -0.68348428484E+01  0.47787270951E+02  0.19999999574E+02 0.  0.
        -12    1    1    2    0    0  0.16112276285E+02 -0.39715271095E+02  0.68348428484E+01  0.43400729049E+02  0.00000000000E+00 0.  1.
         11    1    3    3    0    0 -0.16743575848E+02  0.33161279665E+02 -0.46426338102E+00  0.37151491786E+02  0.51100000000E-03 0. -1.
        -11    1    3    3    0    0 -0.31160134221E+00  0.37101258049E+01 -0.66555333270E+01  0.76261558476E+01  0.51100000000E-03 0.  1.
        -12    1    3    3    0    0  0.94290090462E+00  0.28438656251E+01  0.28495385962E+00  0.30096233172E+01  0.00000000000E+00 0.  1.
</event>
<event>
 7    1  0.2430096E-009  0.4778726E+02  0.7816164E-02  0.1312668E+00
        -11   -1    0    0    0    0  0.00000000000E+00  0.00000000000E+00  0.45593999997E+02  0.45594000000E+02  0.51100000000E-03 0.  1.
         11   -1    0    0    0    0 -0.00000000000E+00 -0.00000000000E+00 -0.45593999997E+02  0.45594000000E+02  0.51100000000E-03 0. -1.
    9900012    2    1    2    0    0 -0.15948622015E+02 -0.39383219936E+02 -0.88446165858E+01  0.47787264992E+02  0.19999972404E+02 0.  0.
        -12    1    1    2    0    0  0.15948622015E+02  0.39383219936E+02  0.88446165858E+01  0.43400735008E+02  0.00000000000E+00 0.  1.
         11    1    3    3    0    0 -0.67622340873E+01 -0.32286010899E+02 -0.11344621373E+02  0.34882871785E+02  0.51100000000E-03 0. -1.
        -11    1    3    3    0    0 -0.49409322430E+01 -0.58945432982E+01  0.33860500684E+01  0.84037960144E+01  0.51100000000E-03 0.  1.
         12    1    3    3    0    0 -0.42454556844E+01 -0.12026657386E+01 -0.88604528126E+00  0.45005971923E+01  0.00000000000E+00 0. -1.
</event>
<event>
 7    1  0.2430096E-009  0.4778727E+02  0.7816164E-02  0.1312668E+00
        -11   -1    0    0    0    0  0.00000000000E+00  0.00000000000E+00  0.45593999997E+02  0.45594000000E+02  0.51100000000E-03 0. -1.
         11   -1    0    0    0    0 -0.00000000000E+00 -0.00000000000E+00 -0.45593999997E+02  0.45594000000E+02  0.51100000000E-03 0.  1.
    9900012    2    1    2    0    0 -0.33664384797E+02  0.18726169837E+02  0.19991572927E+02  0.47787271566E+02  0.20000002377E+02 0.  0.
        -12    1    1    2    0    0  0.33664384797E+02 -0.18726169837E+02 -0.19991572927E+02  0.43400728434E+02  0.00000000000E+00 0.  1.
         11    1    3    3    0    0 -0.59835731774E+01  0.22145273024E+01  0.41610281836E+01  0.76171802491E+01  0.51100000000E-03 0. -1.
        -11    1    3    3    0    0 -0.21213058636E+02  0.51633102275E+01  0.16064860591E+02  0.27105965677E+02  0.51100000000E-03 0.  1.
        -12    1    3    3    0    0 -0.64677529837E+01  0.11348332307E+02 -0.23431584829E+00  0.13064125640E+02  0.00000000000E+00 0.  1.
</event>
<event>
 7    1  0.2430096E-009  0.4778727E+02  0.7816164E-02  0.1312668E+00
        -11   -1    0    0    0    0  0.00000000000E+00  0.00000000000E+00  0.45593999997E+02  0.45594000000E+02  0.51100000000E-03 0.  1.
         11   -1    0    0    0    0 -0.00000000000E+00 -0.00000000000E+00 -0.45593999997E+02  0.45594000000E+02  0.51100000000E-03 0. -1.
    9900012    2    1    2    0    0  0.17499365927E+02 -0.23712989160E+02 -0.31860470488E+02  0.47787271406E+02  0.20000001648E+02 0.  0.
        -12    1    1    2    0    0 -0.17499365927E+02  0.23712989160E+02  0.31860470488E+02  0.43400728594E+02  0.00000000000E+00 0.  1.
         11    1    3    3    0    0  0.50077611623E+01 -0.11429240509E+02 -0.13203946128E+02  0.18167261877E+02  0.51100000000E-03 0. -1.
        -11    1    3    3    0    0  0.14880261285E+02 -0.69845032259E+01 -0.16833516198E+02  0.23528126340E+02  0.51100000000E-03 0.  1.
        -12    1    3    3    0    0 -0.23886565194E+01 -0.52992454245E+01 -0.18230081623E+01  0.60918831897E+01  0.00000000000E+00 0.  1.
</event>
<event>
 7    1  0.2430096E-009  0.4778727E+02  0.7816164E-02  0.1312668E+00
        -11   -1    0    0    0    0  0.00000000000E+00  0.00000000000E+00  0.45593999997E+02  0.45594000000E+02  0.51100000000E-03 0.  1.
         11   -1    0    0    0    0 -0.00000000000E+00 -0.00000000000E+00 -0.45593999997E+02  0.45594000000E+02  0.51100000000E-03 0. -1.
    9900012    2    1    2    0    0 -0.22643108730E+02  0.37024887430E+02  0.26569494730E+00  0.47787271251E+02  0.20000000942E+02 0.  0.
        -12    1    1    2    0    0  0.22643108730E+02 -0.37024887430E+02 -0.26569494730E+00  0.43400728749E+02  0.00000000000E+00 0.  1.
         11    1    3    3    0    0 -0.22994311712E+02  0.30178687397E+02 -0.19171756569E+01  0.37989039299E+02  0.51100000000E-03 0. -1.
        -11    1    3    3    0    0 -0.15370092240E+01  0.44560560624E+00 -0.14851748356E+01  0.21832787876E+01  0.51100000000E-03 0.  1.
         12    1    3    3    0    0  0.18882122062E+01  0.64005944263E+01  0.36680454398E+01  0.76149531643E+01  0.00000000000E+00 0. -1.
</event>
<event>
 7    1  0.2430096E-009  0.4778727E+02  0.7816164E-02  0.1312668E+00
        -11   -1    0    0    0    0  0.00000000000E+00  0.00000000000E+00  0.45593999997E+02  0.45594000000E+02  0.51100000000E-03 0. -1.
         11   -1    0    0    0    0 -0.00000000000E+00 -0.00000000000E+00 -0.45593999997E+02  0.45594000000E+02  0.51100000000E-03 0.  1.
    9900012    2    1    2    0    0 -0.93622919594E+01  0.27275604009E+02  0.32434734627E+02  0.47787273104E+02  0.20000009388E+02 0.  0.
        -12    1    1    2    0    0  0.93622919594E+01 -0.27275604009E+02 -0.32434734627E+02  0.43400726896E+02  0.00000000000E+00 0.  1.
         11    1    3    3    0    0  0.92581208866E+00  0.11872249817E+02  0.15765787172E+02  0.19757719736E+02  0.51100000000E-03 0. -1.
        -11    1    3    3    0    0 -0.13109339430E+02  0.13768410866E+02  0.15617574753E+02  0.24603507057E+02  0.51100000000E-03 0.  1.
        -12    1    3    3    0    0  0.28212353824E+01  0.16349433264E+01  0.10513727015E+01  0.34260463104E+01  0.00000000000E+00 0.  1.
</event>
<event>
 7    1  0.2430096E-009  0.4778727E+02  0.7816164E-02  0.1312668E+00
        -11   -1    0    0    0    0  0.00000000000E+00  0.00000000000E+00  0.45593999997E+02  0.45594000000E+02  0.51100000000E-03 0. -1.
         11   -1    0    0    0    0 -0.00000000000E+00 -0.00000000000E+00 -0.45593999997E+02  0.45594000000E+02  0.51100000000E-03 0.  1.
    9900012    2    1    2    0    0  0.16323621998E+02 -0.22779701820E+02  0.33139824492E+02  0.47787269390E+02  0.19999992456E+02 0.  0.
        -12    1    1    2    0    0 -0.16323621998E+02  0.22779701820E+02 -0.33139824492E+02  0.43400730610E+02  0.00000000000E+00 0.  1.
         11    1    3    3    0    0  0.81288456624E+00 -0.13385136123E+02  0.62867491880E+01  0.14810329705E+02  0.51100000000E-03 0. -1.
        -11    1    3    3    0    0  0.21255319423E+01 -0.25126164799E+01  0.18015767245E+01  0.37519070575E+01  0.51100000000E-03 0.  1.
         12    1    3    3    0    0  0.13385205489E+02 -0.68819492176E+01  0.25051498579E+02  0.29225032628E+02  0.00000000000E+00 0. -1.
</event>
<event>
 7    1  0.2430096E-009  0.4778727E+02  0.7816164E-02  0.1312668E+00
        -11   -1    0    0    0    0  0.00000000000E+00  0.00000000000E+00  0.45593999997E+02  0.45594000000E+02  0.51100000000E-03 0.  1.
         11   -1    0    0    0    0 -0.00000000000E+00 -0.00000000000E+00 -0.45593999997E+02  0.45594000000E+02  0.51100000000E-03 0. -1.
    9900012    2    1    2    0    0  0.41426920825E+02  0.12345746318E+02  0.38750190953E+01  0.47787274267E+02  0.20000014693E+02 0.  0.
        -12    1    1    2    0    0 -0.41426920825E+02 -0.12345746318E+02 -0.38750190953E+01  0.43400725733E+02  0.00000000000E+00 0.  1.
         11    1    3    3    0    0  0.21372736003E+02  0.29959311390E+01 -0.57883441733E+00  0.21589453379E+02  0.51100000000E-03 0. -1.
        -11    1    3    3    0    0  0.81713958896E+01  0.11107695424E+02  0.19384299217E+01  0.13925161372E+02  0.51100000000E-03 0.  1.
        -12    1    3    3    0    0  0.11882788932E+02 -0.17578802451E+01  0.25154235910E+01  0.12272659516E+02  0.00000000000E+00 0.  1.
</event>
<event>
 7    1  0.2430096E-009  0.4778727E+02  0.7816164E-02  0.1312668E+00
        -11   -1    0    0    0    0  0.00000000000E+00  0.00000000000E+00  0.45593999997E+02  0.45594000000E+02  0.51100000000E-03 0. -1.
         11   -1    0    0    0    0 -0.00000000000E+00 -0.00000000000E+00 -0.45593999997E+02  0.45594000000E+02  0.51100000000E-03 0.  1.
    9900012    2    1    2    0    0 -0.31962216885E+02 -0.13536106501E+02  0.26054056155E+02  0.47787270403E+02  0.19999997075E+02 0.  0.
        -12    1    1    2    0    0  0.31962216885E+02  0.13536106501E+02 -0.26054056155E+02  0.43400729597E+02  0.00000000000E+00 0.  1.
         11    1    3    3    0    0 -0.13352616237E+02 -0.11394312278E+02  0.30459020604E+01  0.17815729911E+02  0.51100000000E-03 0. -1.
        -11    1    3    3    0    0 -0.84360066391E+01  0.63974028505E+00  0.12411563043E+02  0.15020731443E+02  0.51100000000E-03 0.  1.
         12    1    3    3    0    0 -0.10173594010E+02 -0.27815345080E+01  0.10596591052E+02  0.14950809049E+02  0.00000000000E+00 0. -1.
</event>
<event>
 7    1  0.2430096E-009  0.4778727E+02  0.7816164E-02  0.1312668E+00
        -11   -1    0    0    0    0  0.00000000000E+00  0.00000000000E+00  0.45593999997E+02  0.45594000000E+02  0.51100000000E-03 0. -1.
         11   -1    0    0    0    0 -0.00000000000E+00 -0.00000000000E+00 -0.45593999997E+02  0.45594000000E+02  0.51100000000E-03 0.  1.
    9900012    2    1    2    0    0  0.24227351992E+02 -0.35929171667E+02 -0.23986069275E+01  0.47787271015E+02  0.19999999867E+02 0.  0.
        -12    1    1    2    0    0 -0.24227351992E+02  0.35929171667E+02  0.23986069275E+01  0.43400728985E+02  0.00000000000E+00 0.  1.
         11    1    3    3    0    0  0.11829403433E+01 -0.82249320236E+01  0.72968981909E-01  0.83098844386E+01  0.51100000000E-03 0. -1.
        -11    1    3    3    0    0  0.20010337598E+02 -0.28569100521E+02  0.85805096283E+00  0.34890448078E+02  0.51100000000E-03 0.  1.
        -12    1    3    3    0    0  0.30340740509E+01  0.86486087791E+00 -0.33296268722E+01  0.45869384989E+01  0.00000000000E+00 0.  1.
</event>
<event>
 7    1  0.2430096E-009  0.4778727E+02  0.7816164E-02  0.1312668E+00
        -11   -1    0    0    0    0  0.00000000000E+00  0.00000000000E+00  0.45593999997E+02  0.45594000000E+02  0.51100000000E-03 0. -1.
         11   -1    0    0    0    0 -0.00000000000E+00 -0.00000000000E+00 -0.45593999997E+02  0.45594000000E+02  0.51100000000E-03 0.  1.
    9900012    2    1    2    0    0 -0.33294980756E+02 -0.84746195002E+01  0.26518835538E+02  0.47787267776E+02  0.19999985100E+02 0.  0.
        -12    1    1    2    0    0  0.33294980756E+02  0.84746195002E+01 -0.26518835538E+02  0.43400732224E+02  0.00000000000E+00 0.  1.
         11    1    3    3    0    0  0.19512423861E+01 -0.61700901518E+00  0.19127022756E+00  0.20553908473E+01  0.51100000000E-03 0. -1.
        -11    1    3    3    0    0 -0.19401956634E+02  0.56349611656E+00  0.12621787848E+02  0.23153033879E+02  0.51100000000E-03 0.  1.
         12    1    3    3    0    0 -0.15844266509E+02 -0.84211066016E+01  0.13705777463E+02  0.22578843050E+02  0.00000000000E+00 0. -1.
</event>
<event>
 7    1  0.2430096E-009  0.4778727E+02  0.7816164E-02  0.1312668E+00
        -11   -1    0    0    0    0  0.00000000000E+00  0.00000000000E+00  0.45593999997E+02  0.45594000000E+02  0.51100000000E-03 0.  1.
         11   -1    0    0    0    0 -0.00000000000E+00 -0.00000000000E+00 -0.45593999997E+02  0.45594000000E+02  0.51100000000E-03 0. -1.
    9900012    2    1    2    0    0 -0.12257685470E+02  0.87103767427E+01 -0.40712425771E+02  0.47787272722E+02  0.20000007649E+02 0.  0.
        -12    1    1    2    0    0  0.12257685470E+02 -0.87103767427E+01  0.40712425771E+02  0.43400727278E+02  0.00000000000E+00 0.  1.
         11    1    3    3    0    0 -0.20411357772E+01  0.12531748535E+02 -0.26289463135E+02  0.29194979514E+02  0.51100000000E-03 0. -1.
        -11    1    3    3    0    0 -0.82940484511E+01 -0.14951830023E+01 -0.86422133929E+01  0.12071232932E+02  0.51100000000E-03 0.  1.
         12    1    3    3    0    0 -0.19225012414E+01 -0.23261887902E+01 -0.57807492432E+01  0.65210602760E+01  0.00000000000E+00 0. -1.
</event>
<event>
 7    1  0.2430096E-009  0.4778728E+02  0.7816164E-02  0.1312668E+00
        -11   -1    0    0    0    0  0.00000000000E+00  0.00000000000E+00  0.45593999997E+02  0.45594000000E+02  0.51100000000E-03 0. -1.
         11   -1    0    0    0    0 -0.00000000000E+00 -0.00000000000E+00 -0.45593999997E+02  0.45594000000E+02  0.51100000000E-03 0.  1.
    9900012    2    1    2    0    0 -0.37370914851E+02  0.19166429054E+02  0.10940069144E+02  0.47787281200E+02  0.20000046305E+02 0.  0.
        -12    1    1    2    0    0  0.37370914851E+02 -0.19166429054E+02 -0.10940069144E+02  0.43400718800E+02  0.00000000000E+00 0.  1.
         11    1    3    3    0    0 -0.31850635941E+02  0.18648770488E+02  0.57499734123E+01  0.37353739372E+02  0.51100000000E-03 0. -1.
        -11    1    3    3    0    0 -0.16104563953E+01  0.60572218394E+00  0.61670274965E+01  0.64025539880E+01  0.51100000000E-03 0.  1.
         12    1    3    3    0    0 -0.39098225145E+01 -0.88063618269E-01 -0.97693176517E+00  0.40309878404E+01  0.00000000000E+00 0. -1.
</event>
<event>
 7    1  0.2430096E-009  0.4778728E+02  0.7816164E-02  0.1312668E+00
        -11   -1    0    0    0    0  0.00000000000E+00  0.00000000000E+00  0.45593999997E+02  0.45594000000E+02  0.51100000000E-03 0. -1.
         11   -1    0    0    0    0 -0.00000000000E+00 -0.00000000000E+00 -0.45593999997E+02  0.45594000000E+02  0.51100000000E-03 0.  1.
    9900012    2    1    2    0    0 -0.13020299144E+01 -0.43256449918E+02  0.32873256440E+01  0.47787282825E+02  0.20000053713E+02 0.  0.
        -12    1    1    2    0    0  0.13020299144E+01  0.43256449918E+02 -0.32873256440E+01  0.43400717175E+02  0.00000000000E+00 0.  1.
         11    1    3    3    0    0 -0.21427877310E+01 -0.26772579123E+02  0.28340841573E+01  0.27007305779E+02  0.51100000000E-03 0. -1.
        -11    1    3    3    0    0  0.37204188243E+01 -0.34460776834E+00 -0.19434466018E+01  0.42115621446E+01  0.51100000000E-03 0.  1.
        -12    1    3    3    0    0 -0.28796610077E+01 -0.16139263026E+02  0.23966880886E+01  0.16568414901E+02  0.00000000000E+00 0.  1.
</event>
<event>
 7    1  0.2430096E-009  0.4778727E+02  0.7816164E-02  0.1312668E+00
        -11   -1    0    0    0    0  0.00000000000E+00  0.00000000000E+00  0.45593999997E+02  0.45594000000E+02  0.51100000000E-03 0.  1.
         11   -1    0    0    0    0 -0.00000000000E+00 -0.00000000000E+00 -0.45593999997E+02  0.45594000000E+02  0.51100000000E-03 0. -1.
    9900012    2    1    2    0    0  0.37978644528E+01 -0.30200252793E+02 -0.30937747437E+02  0.47787271209E+02  0.20000000750E+02 0.  0.
        -12    1    1    2    0    0 -0.37978644528E+01  0.30200252793E+02  0.30937747437E+02  0.43400728791E+02  0.00000000000E+00 0.  1.
         11    1    3    3    0    0  0.14202147933E+01  0.14971897634E+01 -0.69214843531E+01  0.72225710906E+01  0.51100000000E-03 0. -1.
        -11    1    3    3    0    0  0.32771977917E+00 -0.22527968421E+02 -0.12725245070E+02  0.25875637649E+02  0.51100000000E-03 0.  1.
         12    1    3    3    0    0  0.20499298804E+01 -0.91694741352E+01 -0.11291018014E+02  0.14689062469E+02  0.00000000000E+00 0. -1.
</event>
<event>
 7    1  0.2430096E-009  0.4778727E+02  0.7816164E-02  0.1312668E+00
        -11   -1    0    0    0    0  0.00000000000E+00  0.00000000000E+00  0.45593999997E+02  0.45594000000E+02  0.51100000000E-03 0.  1.
         11   -1    0    0    0    0 -0.00000000000E+00 -0.00000000000E+00 -0.45593999997E+02  0.45594000000E+02  0.51100000000E-03 0. -1.
    9900012    2    1    2    0    0  0.13716648797E+02  0.12636660078E+02 -0.39189175697E+02  0.47787272771E+02  0.20000007874E+02 0.  0.
        -12    1    1    2    0    0 -0.13716648797E+02 -0.12636660078E+02  0.39189175697E+02  0.43400727229E+02  0.00000000000E+00 0.  1.
         11    1    3    3    0    0  0.54703958210E+01 -0.38707813274E+01 -0.54153742299E+01  0.86159420166E+01  0.51100000000E-03 0. -1.
        -11    1    3    3    0    0  0.52509163475E+01  0.11162693916E+02 -0.28618831850E+02  0.31164328882E+02  0.51100000000E-03 0.  1.
        -12    1    3    3    0    0  0.29953366283E+01  0.53447474885E+01 -0.51549696176E+01  0.80070018728E+01  0.00000000000E+00 0.  1.
</event>
<event>
 7    1  0.2430096E-009  0.4778727E+02  0.7816164E-02  0.1312668E+00
        -11   -1    0    0    0    0  0.00000000000E+00  0.00000000000E+00  0.45593999997E+02  0.45594000000E+02  0.51100000000E-03 0.  1.
         11   -1    0    0    0    0 -0.00000000000E+00 -0.00000000000E+00 -0.45593999997E+02  0.45594000000E+02  0.51100000000E-03 0. -1.
    9900012    2    1    2    0    0 -0.31537283798E+02 -0.25363420139E+02 -0.15675449823E+02  0.47787273305E+02  0.20000010305E+02 0.  0.
        -12    1    1    2    0    0  0.31537283798E+02  0.25363420139E+02  0.15675449823E+02  0.43400726695E+02  0.00000000000E+00 0.  1.
         11    1    3    3    0    0 -0.90929094809E+01 -0.13619920399E+02 -0.72548048620E+01  0.17911321234E+02  0.51100000000E-03 0. -1.
        -11    1    3    3    0    0 -0.40894704022E+01  0.28560376489E+01 -0.29433833282E+01  0.57917376408E+01  0.51100000000E-03 0.  1.
        -12    1    3    3    0    0 -0.18354903915E+02 -0.14599537389E+02 -0.54772616331E+01  0.24084214430E+02  0.00000000000E+00 0.  1.
</event>
<event>
 7    1  0.2430096E-009  0.4778727E+02  0.7816164E-02  0.1312668E+00
        -11   -1    0    0    0    0  0.00000000000E+00  0.00000000000E+00  0.45593999997E+02  0.45594000000E+02  0.51100000000E-03 0. -1.
         11   -1    0    0    0    0 -0.00000000000E+00 -0.00000000000E+00 -0.45593999997E+02  0.45594000000E+02  0.51100000000E-03 0.  1.
    9900012    2    1    2    0    0  0.31736025784E+02  0.25540816076E+02  0.14970464950E+02  0.47787269140E+02  0.19999991317E+02 0.  0.
        -12    1    1    2    0    0 -0.31736025784E+02 -0.25540816076E+02 -0.14970464950E+02  0.43400730860E+02  0.00000000000E+00 0.  1.
         11    1    3    3    0    0  0.29907602801E+02  0.23628672531E+02  0.17639711077E+02  0.41999265208E+02  0.51100000000E-03 0. -1.
        -11    1    3    3    0    0 -0.57611303319E+00 -0.11204718643E+01 -0.77389601784E+00  0.14786070246E+01  0.51100000000E-03 0.  1.
         12    1    3    3    0    0  0.24045360158E+01  0.30326154090E+01 -0.18953501089E+01  0.43093969074E+01  0.00000000000E+00 0. -1.
</event>
<event>
 7    1  0.2430096E-009  0.4778727E+02  0.7816164E-02  0.1312668E+00
        -11   -1    0    0    0    0  0.00000000000E+00  0.00000000000E+00  0.45593999997E+02  0.45594000000E+02  0.51100000000E-03 0. -1.
         11   -1    0    0    0    0 -0.00000000000E+00 -0.00000000000E+00 -0.45593999997E+02  0.45594000000E+02  0.51100000000E-03 0.  1.
    9900012    2    1    2    0    0  0.26308730839E+02  0.34426024792E+02  0.25145968994E+01  0.47787266148E+02  0.19999977675E+02 0.  0.
        -12    1    1    2    0    0 -0.26308730839E+02 -0.34426024792E+02 -0.25145968994E+01  0.43400733852E+02  0.00000000000E+00 0.  1.
         11    1    3    3    0    0  0.10634527369E+02  0.17605555226E+01  0.11958279989E+01  0.10845401467E+02  0.51100000000E-03 0. -1.
        -11    1    3    3    0    0  0.44193598427E+01  0.13812616595E+02 -0.23162640240E+01  0.14686190722E+02  0.51100000000E-03 0.  1.
         12    1    3    3    0    0  0.11254843627E+02  0.18852852674E+02  0.36350329245E+01  0.22255673960E+02  0.00000000000E+00 0. -1.
</event>
<event>
 7    1  0.2430096E-009  0.4778727E+02  0.7816164E-02  0.1312668E+00
        -11   -1    0    0    0    0  0.00000000000E+00  0.00000000000E+00  0.45593999997E+02  0.45594000000E+02  0.51100000000E-03 0.  1.
         11   -1    0    0    0    0 -0.00000000000E+00 -0.00000000000E+00 -0.45593999997E+02  0.45594000000E+02  0.51100000000E-03 0. -1.
    9900012    2    1    2    0    0 -0.13657433498E+02  0.34241982231E+02 -0.22903808601E+02  0.47787270914E+02  0.19999999403E+02 0.  0.
        -12    1    1    2    0    0  0.13657433498E+02 -0.34241982231E+02  0.22903808601E+02  0.43400729086E+02  0.00000000000E+00 0.  1.
         11    1    3    3    0    0 -0.51114606197E+01  0.23041679025E+02 -0.20048979292E+02  0.30967847404E+02  0.51100000000E-03 0. -1.
        -11    1    3    3    0    0 -0.59983874078E+01  0.12689324542E+01  0.15746807892E+00  0.61331588537E+01  0.51100000000E-03 0.  1.
        -12    1    3    3    0    0 -0.25475854705E+01  0.99313707518E+01 -0.30122973872E+01  0.10686264656E+02  0.00000000000E+00 0.  1.
</event>
<event>
 7    1  0.2430096E-009  0.4778727E+02  0.7816164E-02  0.1312668E+00
        -11   -1    0    0    0    0  0.00000000000E+00  0.00000000000E+00  0.45593999997E+02  0.45594000000E+02  0.51100000000E-03 0.  1.
         11   -1    0    0    0    0 -0.00000000000E+00 -0.00000000000E+00 -0.45593999997E+02  0.45594000000E+02  0.51100000000E-03 0. -1.
    9900012    2    1    2    0    0 -0.29133538954E+02  0.31667544604E+02 -0.56592346269E+01  0.47787269478E+02  0.19999992860E+02 0.  0.
        -12    1    1    2    0    0  0.29133538954E+02 -0.31667544604E+02  0.56592346269E+01  0.43400730522E+02  0.00000000000E+00 0.  1.
         11    1    3    3    0    0 -0.30157174910E+02  0.24852550300E+02 -0.64889935262E+01  0.39613274192E+02  0.51100000000E-03 0. -1.
        -11    1    3    3    0    0  0.15592624247E+01  0.72651165770E+01  0.71324077799E+00  0.74647123759E+01  0.51100000000E-03 0.  1.
         12    1    3    3    0    0 -0.53562646859E+00 -0.45012227286E+00  0.11651812136E+00  0.70928291040E+00  0.00000000000E+00 0. -1.
</event>
<event>
 7    1  0.2430096E-009  0.4778727E+02  0.7816164E-02  0.1312668E+00
        -11   -1    0    0    0    0  0.00000000000E+00  0.00000000000E+00  0.45593999997E+02  0.45594000000E+02  0.51100000000E-03 0.  1.
         11   -1    0    0    0    0 -0.00000000000E+00 -0.00000000000E+00 -0.45593999997E+02  0.45594000000E+02  0.51100000000E-03 0. -1.
    9900012    2    1    2    0    0  0.10720568951E+02 -0.33360117163E+02 -0.25608496128E+02  0.47787273166E+02  0.20000009673E+02 0.  0.
        -12    1    1    2    0    0 -0.10720568951E+02  0.33360117163E+02  0.25608496128E+02  0.43400726834E+02  0.00000000000E+00 0.  1.
         11    1    3    3    0    0  0.69204559145E+01 -0.98500561355E+01 -0.14544913393E+02  0.18880434894E+02  0.51100000000E-03 0. -1.
        -11    1    3    3    0    0 -0.38973600618E+01 -0.11987603774E+02 -0.33294649100E+01  0.13037537978E+02  0.51100000000E-03 0.  1.
        -12    1    3    3    0    0  0.76974730984E+01 -0.11522457254E+02 -0.77341178252E+01  0.15869300294E+02  0.00000000000E+00 0.  1.
</event>
<event>
 7    1  0.2430096E-009  0.4778727E+02  0.7816164E-02  0.1312668E+00
        -11   -1    0    0    0    0  0.00000000000E+00  0.00000000000E+00  0.45593999997E+02  0.45594000000E+02  0.51100000000E-03 0. -1.
         11   -1    0    0    0    0 -0.00000000000E+00 -0.00000000000E+00 -0.45593999997E+02  0.45594000000E+02  0.51100000000E-03 0.  1.
    9900012    2    1    2    0    0 -0.26766249962E+02  0.32237238272E+02  0.11311569745E+02  0.47787270990E+02  0.19999999753E+02 0.  0.
        -12    1    1    2    0    0  0.26766249962E+02 -0.32237238272E+02 -0.11311569745E+02  0.43400729010E+02  0.00000000000E+00 0.  1.
         11    1    3    3    0    0 -0.18626038611E+02  0.91392474465E+01  0.70600566229E+01  0.21915737679E+02  0.51100000000E-03 0.  1.
        -11    1    3    3    0    0 -0.80505432486E+01  0.19310195285E+02  0.59035981946E+01  0.21738154486E+02  0.51100000000E-03 0. -1.
        -12    1    3    3    0    0 -0.89668102249E-01  0.37877955405E+01 -0.16520850722E+01  0.41333788250E+01  0.00000000000E+00 0.  1.
</event>
<event>
 7    1  0.2430096E-009  0.4778727E+02  0.7816164E-02  0.1312668E+00
        -11   -1    0    0    0    0  0.00000000000E+00  0.00000000000E+00  0.45593999997E+02  0.45594000000E+02  0.51100000000E-03 0.  1.
         11   -1    0    0    0    0 -0.00000000000E+00 -0.00000000000E+00 -0.45593999997E+02  0.45594000000E+02  0.51100000000E-03 0. -1.
    9900012    2    1    2    0    0 -0.68320748728E+01  0.26277683853E+02 -0.33858963496E+02  0.47787270458E+02  0.19999997328E+02 0.  0.
        -12    1    1    2    0    0  0.68320748728E+01 -0.26277683853E+02  0.33858963496E+02  0.43400729542E+02  0.00000000000E+00 0.  1.
         11    1    3    3    0    0 -0.10113882966E+02  0.11527189115E+02 -0.14914189281E+02  0.21391581516E+02  0.51100000000E-03 0. -1.
        -11    1    3    3    0    0  0.36058589486E+01  0.15586473777E+02 -0.13663388509E+02  0.21038739729E+02  0.51100000000E-03 0.  1.
         12    1    3    3    0    0 -0.32405085491E+00 -0.83597903963E+00 -0.52813857056E+01  0.53569492141E+01  0.00000000000E+00 0. -1.
</event>
<event>
 7    1  0.2430096E-009  0.4778727E+02  0.7816164E-02  0.1312668E+00
        -11   -1    0    0    0    0  0.00000000000E+00  0.00000000000E+00  0.45593999997E+02  0.45594000000E+02  0.51100000000E-03 0.  1.
         11   -1    0    0    0    0 -0.00000000000E+00 -0.00000000000E+00 -0.45593999997E+02  0.45594000000E+02  0.51100000000E-03 0. -1.
    9900012    2    1    2    0    0 -0.17343171581E+02  0.53170335304E+01 -0.39427994871E+02  0.47787271601E+02  0.20000002536E+02 0.  0.
        -12    1    1    2    0    0  0.17343171581E+02 -0.53170335304E+01  0.39427994871E+02  0.43400728399E+02  0.00000000000E+00 0.  1.
         11    1    3    3    0    0 -0.16190807515E+02  0.72744027225E+01 -0.25248290645E+02  0.30863171641E+02  0.51100000000E-03 0. -1.
        -11    1    3    3    0    0 -0.49984718306E+01 -0.18464462149E+01 -0.91906982579E+01  0.10623700814E+02  0.51100000000E-03 0.  1.
         12    1    3    3    0    0  0.38461077649E+01 -0.11092297722E+00 -0.49890059679E+01  0.63003991456E+01  0.00000000000E+00 0. -1.
</event>
<event>
 7    1  0.2430096E-009  0.4778728E+02  0.7816164E-02  0.1312668E+00
        -11   -1    0    0    0    0  0.00000000000E+00  0.00000000000E+00  0.45593999997E+02  0.45594000000E+02  0.51100000000E-03 0.  1.
         11   -1    0    0    0    0 -0.00000000000E+00 -0.00000000000E+00 -0.45593999997E+02  0.45594000000E+02  0.51100000000E-03 0. -1.
    9900012    2    1    2    0    0 -0.34497825511E+02 -0.14874505090E+02 -0.21731811527E+02  0.47787279973E+02  0.20000040707E+02 0.  0.
        -12    1    1    2    0    0  0.34497825511E+02  0.14874505090E+02  0.21731811527E+02  0.43400720027E+02  0.00000000000E+00 0.  1.
         11    1    3    3    0    0 -0.19993413298E+02 -0.80353811400E+01 -0.15843205928E+02  0.26745300517E+02  0.51100000000E-03 0. -1.
        -11    1    3    3    0    0 -0.40418072060E+01 -0.71092928257E+01  0.13880440795E+01  0.82948729104E+01  0.51100000000E-03 0.  1.
        -12    1    3    3    0    0 -0.10462605007E+02  0.27016887555E+00 -0.72766496784E+01  0.12747106546E+02  0.00000000000E+00 0.  1.
</event>
<event>
 7    1  0.2430096E-009  0.4778724E+02  0.7816164E-02  0.1312668E+00
        -11   -1    0    0    0    0  0.00000000000E+00  0.00000000000E+00  0.45593999997E+02  0.45594000000E+02  0.51100000000E-03 0.  1.
         11   -1    0    0    0    0 -0.00000000000E+00 -0.00000000000E+00 -0.45593999997E+02  0.45594000000E+02  0.51100000000E-03 0. -1.
    9900012    2    1    2    0    0 -0.31123024089E+02  0.27672593215E+02 -0.12215178386E+02  0.47787243939E+02  0.19999876415E+02 0.  0.
        -12    1    1    2    0    0  0.31123024089E+02 -0.27672593215E+02  0.12215178386E+02  0.43400756061E+02  0.00000000000E+00 0.  1.
         11    1    3    3    0    0 -0.12275984494E+02  0.14507584820E+02 -0.69046453131E+01  0.20219889707E+02  0.51100000000E-03 0. -1.
        -11    1    3    3    0    0 -0.91490361762E+00 -0.28450087800E+01 -0.23128197578E+00  0.29974347701E+01  0.51100000000E-03 0.  1.
        -12    1    3    3    0    0 -0.17932135977E+02  0.16010017175E+02 -0.50792510971E+01  0.24569919462E+02  0.00000000000E+00 0.  1.
</event>
<event>
 7    1  0.2430096E-009  0.4778726E+02  0.7816164E-02  0.1312668E+00
        -11   -1    0    0    0    0  0.00000000000E+00  0.00000000000E+00  0.45593999997E+02  0.45594000000E+02  0.51100000000E-03 0. -1.
         11   -1    0    0    0    0 -0.00000000000E+00 -0.00000000000E+00 -0.45593999997E+02  0.45594000000E+02  0.51100000000E-03 0.  1.
    9900012    2    1    2    0    0 -0.13244728934E+02 -0.20694902886E+02  0.35775998377E+02  0.47787263717E+02  0.19999966593E+02 0.  0.
        -12    1    1    2    0    0  0.13244728934E+02  0.20694902886E+02 -0.35775998377E+02  0.43400736283E+02  0.00000000000E+00 0.  1.
         11    1    3    3    0    0  0.15813180203E+01 -0.60829682840E+01  0.39901235009E+01  0.74447401324E+01  0.51100000000E-03 0. -1.
        -11    1    3    3    0    0 -0.69159402329E+01  0.13329393094E+01  0.88746845413E+01  0.11329915378E+02  0.51100000000E-03 0.  1.
        -12    1    3    3    0    0 -0.79101067217E+01 -0.15944873911E+02  0.22911190335E+02  0.29012608207E+02  0.00000000000E+00 0.  1.
</event>
<event>
 7    1  0.2430096E-009  0.4778727E+02  0.7816164E-02  0.1312668E+00
        -11   -1    0    0    0    0  0.00000000000E+00  0.00000000000E+00  0.45593999997E+02  0.45594000000E+02  0.51100000000E-03 0.  1.
         11   -1    0    0    0    0 -0.00000000000E+00 -0.00000000000E+00 -0.45593999997E+02  0.45594000000E+02  0.51100000000E-03 0. -1.
    9900012    2    1    2    0    0  0.28585011969E+02  0.17481370353E+02 -0.27584816767E+02  0.47787270343E+02  0.19999996803E+02 0.  0.
        -12    1    1    2    0    0 -0.28585011969E+02 -0.17481370353E+02  0.27584816767E+02  0.43400729657E+02  0.00000000000E+00 0.  1.
         11    1    3    3    0    0  0.39037570484E+01  0.32985462065E+01  0.98318266406E-01  0.51116917857E+01  0.51100000000E-03 0. -1.
        -11    1    3    3    0    0  0.84135348517E+01 -0.15797783622E+01 -0.27547037276E+01  0.89928672437E+01  0.51100000000E-03 0.  1.
        -12    1    3    3    0    0  0.16267720069E+02  0.15762602508E+02 -0.24928431306E+02  0.33682711314E+02  0.00000000000E+00 0.  1.
</event>
<event>
 7    1  0.2430096E-009  0.4778726E+02  0.7816164E-02  0.1312668E+00
        -11   -1    0    0    0    0  0.00000000000E+00  0.00000000000E+00  0.45593999997E+02  0.45594000000E+02  0.51100000000E-03 0. -1.
         11   -1    0    0    0    0 -0.00000000000E+00 -0.00000000000E+00 -0.45593999997E+02  0.45594000000E+02  0.51100000000E-03 0.  1.
    9900012    2    1    2    0    0 -0.43114679865E+02  0.41125352500E+01  0.27991786276E+01  0.47787263059E+02  0.19999963590E+02 0.  0.
        -12    1    1    2    0    0  0.43114679865E+02 -0.41125352500E+01 -0.27991786276E+01  0.43400736941E+02  0.00000000000E+00 0.  1.
         11    1    3    3    0    0 -0.11519919197E+02  0.95622989060E+01  0.23934126307E+01  0.15161613468E+02  0.51100000000E-03 0. -1.
        -11    1    3    3    0    0 -0.81359514167E+01 -0.38511603476E+01 -0.10777194109E+01  0.90656836955E+01  0.51100000000E-03 0.  1.
         12    1    3    3    0    0 -0.23458809251E+02 -0.15986033084E+01  0.14834854079E+01  0.23559965895E+02  0.00000000000E+00 0. -1.
</event>
<event>
 7    1  0.2430096E-009  0.4778727E+02  0.7816164E-02  0.1312668E+00
        -11   -1    0    0    0    0  0.00000000000E+00  0.00000000000E+00  0.45593999997E+02  0.45594000000E+02  0.51100000000E-03 0.  1.
         11   -1    0    0    0    0 -0.00000000000E+00 -0.00000000000E+00 -0.45593999997E+02  0.45594000000E+02  0.51100000000E-03 0. -1.
    9900012    2    1    2    0    0  0.15240828392E+01  0.11298904336E+02 -0.41876428315E+02  0.47787270558E+02  0.19999997780E+02 0.  0.
        -12    1    1    2    0    0 -0.15240828392E+01 -0.11298904336E+02  0.41876428315E+02  0.43400729442E+02  0.00000000000E+00 0.  1.
         11    1    3    3    0    0  0.46040653819E+01 -0.10920208452E+00 -0.13486832145E+01  0.47987800336E+01  0.51100000000E-03 0. -1.
        -11    1    3    3    0    0  0.11875037053E+00  0.14162160305E+01 -0.35014121246E+00  0.14636832394E+01  0.51100000000E-03 0.  1.
         12    1    3    3    0    0 -0.31987329132E+01  0.99918903899E+01 -0.40177603888E+02  0.41524807285E+02  0.00000000000E+00 0. -1.
</event>
<event>
 7    1  0.2430096E-009  0.4778727E+02  0.7816164E-02  0.1312668E+00
        -11   -1    0    0    0    0  0.00000000000E+00  0.00000000000E+00  0.45593999997E+02  0.45594000000E+02  0.51100000000E-03 0. -1.
         11   -1    0    0    0    0 -0.00000000000E+00 -0.00000000000E+00 -0.45593999997E+02  0.45594000000E+02  0.51100000000E-03 0.  1.
    9900012    2    1    2    0    0  0.17295008572E+02  0.22861029610E+02  0.32586484977E+02  0.47787274205E+02  0.20000014411E+02 0.  0.
        -12    1    1    2    0    0 -0.17295008572E+02 -0.22861029610E+02 -0.32586484977E+02  0.43400725795E+02  0.00000000000E+00 0.  1.
         11    1    3    3    0    0 -0.23480152734E+01  0.49129550139E+01  0.10541954185E+02  0.11865205476E+02  0.51100000000E-03 0. -1.
        -11    1    3    3    0    0  0.17009604108E+02  0.17410020146E+02  0.15523742646E+02  0.28869049507E+02  0.51100000000E-03 0.  1.
        -12    1    3    3    0    0  0.26334197370E+01  0.53805444991E+00  0.65207881461E+01  0.70530192222E+01  0.00000000000E+00 0.  1.
</event>
<event>
 7    1  0.2884570E-009  0.4778727E+02  0.7816164E-02  0.1312668E+00
        -11   -1    0    0    0    0  0.00000000000E+00  0.00000000000E+00  0.45593999997E+02  0.45594000000E+02  0.51100000000E-03 0.  1.
         11   -1    0    0    0    0 -0.00000000000E+00 -0.00000000000E+00 -0.45593999997E+02  0.45594000000E+02  0.51100000000E-03 0. -1.
    9900012    2    1    2    0    0 -0.31483295411E+02  0.29754277963E+02  0.26661455076E+01  0.47787270987E+02  0.19999999737E+02 0.  0.
        -12    1    1    2    0    0  0.31483295411E+02 -0.29754277963E+02 -0.26661455076E+01  0.43400729013E+02  0.00000000000E+00 0.  1.
         11    1    3    3    0    0 -0.11731190816E+02  0.17940425152E+02  0.17126816723E+00  0.21436161635E+02  0.51100000000E-03 0. -1.
        -11    1    3    3    0    0 -0.16874802501E+02  0.54588697876E+01  0.57615218401E+01  0.18648146100E+02  0.51100000000E-03 0.  1.
        -12    1    3    3    0    0 -0.28773020941E+01  0.63549830230E+01 -0.32666444997E+01  0.77029632513E+01  0.00000000000E+00 0.  1.
</event>
<event>
 7    1  0.2430096E-009  0.4778726E+02  0.7816164E-02  0.1312668E+00
        -11   -1    0    0    0    0  0.00000000000E+00  0.00000000000E+00  0.45593999997E+02  0.45594000000E+02  0.51100000000E-03 0.  1.
         11   -1    0    0    0    0 -0.00000000000E+00 -0.00000000000E+00 -0.45593999997E+02  0.45594000000E+02  0.51100000000E-03 0. -1.
    9900012    2    1    2    0    0  0.74954835264E+01  0.27869839178E+02 -0.32414718273E+02  0.47787260723E+02  0.19999952938E+02 0.  0.
        -12    1    1    2    0    0 -0.74954835264E+01 -0.27869839178E+02  0.32414718273E+02  0.43400739277E+02  0.00000000000E+00 0.  1.
         11    1    3    3    0    0  0.29488516467E+01  0.10455346110E+02 -0.11694940368E+02  0.15961880177E+02  0.51100000000E-03 0. -1.
        -11    1    3    3    0    0  0.74372209695E+01  0.19035693587E+02 -0.15531827679E+02  0.25669194717E+02  0.51100000000E-03 0.  1.
        -12    1    3    3    0    0 -0.28905890897E+01 -0.16212005194E+01 -0.51879502261E+01  0.61561858287E+01  0.00000000000E+00 0.  1.
</event>
<event>
 7    1  0.2430096E-009  0.4778727E+02  0.7816164E-02  0.1312668E+00
        -11   -1    0    0    0    0  0.00000000000E+00  0.00000000000E+00  0.45593999997E+02  0.45594000000E+02  0.51100000000E-03 0.  1.
         11   -1    0    0    0    0 -0.00000000000E+00 -0.00000000000E+00 -0.45593999997E+02  0.45594000000E+02  0.51100000000E-03 0. -1.
    9900012    2    1    2    0    0 -0.51973198943E+01 -0.41711548032E+02 -0.10805470750E+02  0.47787267616E+02  0.19999984370E+02 0.  0.
        -12    1    1    2    0    0  0.51973198943E+01  0.41711548032E+02  0.10805470750E+02  0.43400732384E+02  0.00000000000E+00 0.  1.
         11    1    3    3    0    0  0.47888909047E+01 -0.28479224961E+02 -0.74741887440E+01  0.29830575390E+02  0.51100000000E-03 0. -1.
        -11    1    3    3    0    0 -0.65351393858E+01 -0.46616776457E+01  0.29090103682E+00  0.80326775697E+01  0.51100000000E-03 0.  1.
         12    1    3    3    0    0 -0.34510714132E+01 -0.85706454254E+01 -0.36221830431E+01  0.99240146566E+01  0.00000000000E+00 0. -1.
</event>
<event>
 7    1  0.2430096E-009  0.4778727E+02  0.7816164E-02  0.1312668E+00
        -11   -1    0    0    0    0  0.00000000000E+00  0.00000000000E+00  0.45593999997E+02  0.45594000000E+02  0.51100000000E-03 0.  1.
         11   -1    0    0    0    0 -0.00000000000E+00 -0.00000000000E+00 -0.45593999997E+02  0.45594000000E+02  0.51100000000E-03 0. -1.
    9900012    2    1    2    0    0  0.37740999960E+02  0.21194477769E+02  0.31677100247E+01  0.47787270136E+02  0.19999995859E+02 0.  0.
        -12    1    1    2    0    0 -0.37740999960E+02 -0.21194477769E+02 -0.31677100247E+01  0.43400729864E+02  0.00000000000E+00 0.  1.
         11    1    3    3    0    0  0.20857367866E+02  0.62321318870E+01 -0.58213622876E+01  0.22533475571E+02  0.51100000000E-03 0. -1.
        -11    1    3    3    0    0  0.14707280560E+02  0.15042249217E+02  0.66630798522E+01  0.22067396683E+02  0.51100000000E-03 0.  1.
         12    1    3    3    0    0  0.21763515338E+01 -0.79903334481E-01  0.23259924601E+01  0.31863978826E+01  0.00000000000E+00 0. -1.
</event>
<event>
 7    1  0.2430096E-009  0.4778727E+02  0.7816164E-02  0.1312668E+00
        -11   -1    0    0    0    0  0.00000000000E+00  0.00000000000E+00  0.45593999997E+02  0.45594000000E+02  0.51100000000E-03 0.  1.
         11   -1    0    0    0    0 -0.00000000000E+00 -0.00000000000E+00 -0.45593999997E+02  0.45594000000E+02  0.51100000000E-03 0. -1.
    9900012    2    1    2    0    0 -0.69999740530E+01  0.29698864657E+02 -0.30864232369E+02  0.47787273757E+02  0.20000012369E+02 0.  0.
        -12    1    1    2    0    0  0.69999740530E+01 -0.29698864657E+02  0.30864232369E+02  0.43400726243E+02  0.00000000000E+00 0.  1.
         11    1    3    3    0    0  0.40581073720E+01  0.13717955165E+02 -0.94414467082E+01  0.17140345550E+02  0.51100000000E-03 0. -1.
        -11    1    3    3    0    0 -0.66207010256E+01  0.26141113352E+01 -0.37404622747E+01  0.80410396363E+01  0.51100000000E-03 0.  1.
        -12    1    3    3    0    0 -0.44373803995E+01  0.13366798157E+02 -0.17682323386E+02  0.22605888572E+02  0.00000000000E+00 0.  1.
</event>
<event>
 7    1  0.2430096E-009  0.4778727E+02  0.7816164E-02  0.1312668E+00
        -11   -1    0    0    0    0  0.00000000000E+00  0.00000000000E+00  0.45593999997E+02  0.45594000000E+02  0.51100000000E-03 0.  1.
         11   -1    0    0    0    0 -0.00000000000E+00 -0.00000000000E+00 -0.45593999997E+02  0.45594000000E+02  0.51100000000E-03 0. -1.
    9900012    2    1    2    0    0  0.12951258556E+02  0.37187628197E+02 -0.18247416747E+02  0.47787274118E+02  0.20000014013E+02 0.  0.
        -12    1    1    2    0    0 -0.12951258556E+02 -0.37187628197E+02  0.18247416747E+02  0.43400725882E+02  0.00000000000E+00 0.  1.
         11    1    3    3    0    0  0.26945711258E+01  0.10010156211E+02 -0.12235533599E+02  0.16036590150E+02  0.51100000000E-03 0. -1.
        -11    1    3    3    0    0  0.45304710981E+01  0.24312102690E+02 -0.40995694228E+01  0.25068106736E+02  0.51100000000E-03 0.  1.
         12    1    3    3    0    0  0.57262163321E+01  0.28653692961E+01 -0.19123137261E+01  0.66825772328E+01  0.00000000000E+00 0. -1.
</event>
<event>
 7    1  0.2430096E-009  0.4778727E+02  0.7816164E-02  0.1312668E+00
        -11   -1    0    0    0    0  0.00000000000E+00  0.00000000000E+00  0.45593999997E+02  0.45594000000E+02  0.51100000000E-03 0.  1.
         11   -1    0    0    0    0 -0.00000000000E+00 -0.00000000000E+00 -0.45593999997E+02  0.45594000000E+02  0.51100000000E-03 0. -1.
    9900012    2    1    2    0    0 -0.20811541066E+02  0.28196262596E+02 -0.25602225106E+02  0.47787269634E+02  0.19999993567E+02 0.  0.
        -12    1    1    2    0    0  0.20811541066E+02 -0.28196262596E+02  0.25602225106E+02  0.43400730366E+02  0.00000000000E+00 0.  1.
         11    1    3    3    0    0 -0.73781792472E+01  0.14646560087E+02 -0.18380073708E+02  0.24633033941E+02  0.51100000000E-03 0. -1.
        -11    1    3    3    0    0 -0.14292548522E+02  0.14729704515E+02 -0.65232012452E+01  0.21535860631E+02  0.51100000000E-03 0.  1.
        -12    1    3    3    0    0  0.85918670291E+00 -0.11800020056E+01 -0.69895015301E+00  0.16183750616E+01  0.00000000000E+00 0.  1.
</event>
<event>
 7    1  0.2430096E-009  0.4778728E+02  0.7816164E-02  0.1312668E+00
        -11   -1    0    0    0    0  0.00000000000E+00  0.00000000000E+00  0.45593999997E+02  0.45594000000E+02  0.51100000000E-03 0.  1.
         11   -1    0    0    0    0 -0.00000000000E+00 -0.00000000000E+00 -0.45593999997E+02  0.45594000000E+02  0.51100000000E-03 0. -1.
    9900012    2    1    2    0    0  0.36850362778E+02  0.10096668227E+02 -0.20584712593E+02  0.47787281818E+02  0.20000049123E+02 0.  0.
        -12    1    1    2    0    0 -0.36850362778E+02 -0.10096668227E+02  0.20584712593E+02  0.43400718182E+02  0.00000000000E+00 0.  1.
         11    1    3    3    0    0  0.76865464496E+01 -0.32900594373E+01 -0.81581262351E+01  0.11681716969E+02  0.51100000000E-03 0. -1.
        -11    1    3    3    0    0 -0.87320200840E+00 -0.15781176151E+00 -0.70427123986E+00  0.11328656319E+01  0.51100000000E-03 0.  1.
         12    1    3    3    0    0  0.30037018337E+02  0.13544539425E+02 -0.11722315118E+02  0.34972699217E+02  0.00000000000E+00 0. -1.
</event>
<event>
 7    1  0.2430096E-009  0.4778728E+02  0.7816164E-02  0.1312668E+00
        -11   -1    0    0    0    0  0.00000000000E+00  0.00000000000E+00  0.45593999997E+02  0.45594000000E+02  0.51100000000E-03 0.  1.
         11   -1    0    0    0    0 -0.00000000000E+00 -0.00000000000E+00 -0.45593999997E+02  0.45594000000E+02  0.51100000000E-03 0. -1.
    9900012    2    1    2    0    0 -0.28668448186E+02  0.21080583213E+02 -0.24846555044E+02  0.47787283329E+02  0.20000056008E+02 0.  0.
        -12    1    1    2    0    0  0.28668448186E+02 -0.21080583213E+02  0.24846555044E+02  0.43400716671E+02  0.00000000000E+00 0.  1.
         11    1    3    3    0    0 -0.66254465312E+01  0.16539617563E+02 -0.89327177285E+01  0.19931104765E+02  0.51100000000E-03 0. -1.
        -11    1    3    3    0    0 -0.11780202124E+02  0.41348606184E+00 -0.86936539016E+01  0.14646629347E+02  0.51100000000E-03 0.  1.
         12    1    3    3    0    0 -0.10262799531E+02  0.41274795881E+01 -0.72201834144E+01  0.13209549217E+02  0.00000000000E+00 0. -1.
</event>
<event>
 7    1  0.2430096E-009  0.4778727E+02  0.7816164E-02  0.1312668E+00
        -11   -1    0    0    0    0  0.00000000000E+00  0.00000000000E+00  0.45593999997E+02  0.45594000000E+02  0.51100000000E-03 0.  1.
         11   -1    0    0    0    0 -0.00000000000E+00 -0.00000000000E+00 -0.45593999997E+02  0.45594000000E+02  0.51100000000E-03 0. -1.
    9900012    2    1    2    0    0 -0.65367240173E+01 -0.37554873622E+02 -0.20749124288E+02  0.47787268988E+02  0.19999990622E+02 0.  0.
        -12    1    1    2    0    0  0.65367240173E+01  0.37554873622E+02  0.20749124288E+02  0.43400731012E+02  0.00000000000E+00 0.  1.
         11    1    3    3    0    0 -0.73403658067E+00 -0.17333855184E+02 -0.20014059739E+02  0.26487052171E+02  0.51100000000E-03 0. -1.
        -11    1    3    3    0    0 -0.37383123407E+01 -0.74114452567E+01  0.59072370580E-01  0.83010836495E+01  0.51100000000E-03 0.  1.
         12    1    3    3    0    0 -0.20643750959E+01 -0.12809573182E+02 -0.79413692014E+00  0.12999133167E+02  0.00000000000E+00 0. -1.
</event>
<event>
 7    1  0.2430096E-009  0.4778727E+02  0.7816164E-02  0.1312668E+00
        -11   -1    0    0    0    0  0.00000000000E+00  0.00000000000E+00  0.45593999997E+02  0.45594000000E+02  0.51100000000E-03 0. -1.
         11   -1    0    0    0    0 -0.00000000000E+00 -0.00000000000E+00 -0.45593999997E+02  0.45594000000E+02  0.51100000000E-03 0.  1.
    9900012    2    1    2    0    0  0.41363986009E+02 -0.26895513273E+01  0.12861195034E+02  0.47787270022E+02  0.19999995339E+02 0.  0.
        -12    1    1    2    0    0 -0.41363986009E+02  0.26895513273E+01 -0.12861195034E+02  0.43400729978E+02  0.00000000000E+00 0.  1.
         11    1    3    3    0    0  0.58615983427E+01 -0.16364855182E+01  0.73174726828E+01  0.95174485398E+01  0.51100000000E-03 0. -1.
        -11    1    3    3    0    0  0.29638623814E+02 -0.49716999361E+01  0.13898669975E+01  0.30084839244E+02  0.51100000000E-03 0.  1.
        -12    1    3    3    0    0  0.58637638529E+01  0.39186341270E+01  0.41538553532E+01  0.81849822381E+01  0.00000000000E+00 0.  1.
</event>
<event>
 7    1  0.2430096E-009  0.4778727E+02  0.7816164E-02  0.1312668E+00
        -11   -1    0    0    0    0  0.00000000000E+00  0.00000000000E+00  0.45593999997E+02  0.45594000000E+02  0.51100000000E-03 0.  1.
         11   -1    0    0    0    0 -0.00000000000E+00 -0.00000000000E+00 -0.45593999997E+02  0.45594000000E+02  0.51100000000E-03 0. -1.
    9900012    2    1    2    0    0 -0.25740293234E+02  0.15571516350E+02 -0.31282404323E+02  0.47787266856E+02  0.19999980904E+02 0.  0.
        -12    1    1    2    0    0  0.25740293234E+02 -0.15571516350E+02  0.31282404323E+02  0.43400733144E+02  0.00000000000E+00 0.  1.
         11    1    3    3    0    0 -0.41063007807E+01  0.57571516359E+01 -0.11498774422E+02  0.13499196810E+02  0.51100000000E-03 0. -1.
        -11    1    3    3    0    0 -0.10416514372E+02  0.28367946685E+01 -0.36523092075E+00  0.10802063208E+02  0.51100000000E-03 0.  1.
        -12    1    3    3    0    0 -0.11217478081E+02  0.69775700452E+01 -0.19418398980E+02  0.23486006838E+02  0.00000000000E+00 0.  1.
</event>
<event>
 7    1  0.2430096E-009  0.4778726E+02  0.7816164E-02  0.1312668E+00
        -11   -1    0    0    0    0  0.00000000000E+00  0.00000000000E+00  0.45593999997E+02  0.45594000000E+02  0.51100000000E-03 0. -1.
         11   -1    0    0    0    0 -0.00000000000E+00 -0.00000000000E+00 -0.45593999997E+02  0.45594000000E+02  0.51100000000E-03 0.  1.
    9900012    2    1    2    0    0  0.12667569689E+02  0.33543988856E+02  0.24453165421E+02  0.47787264876E+02  0.19999971875E+02 0.  0.
        -12    1    1    2    0    0 -0.12667569689E+02 -0.33543988856E+02 -0.24453165421E+02  0.43400735124E+02  0.00000000000E+00 0.  1.
         11    1    3    3    0    0 -0.20343399100E+01  0.11942876162E+02  0.13561331633E+02  0.18184623884E+02  0.51100000000E-03 0. -1.
        -11    1    3    3    0    0  0.59478057633E+01  0.83678048501E+01  0.89456533649E+01  0.13616947741E+02  0.51100000000E-03 0.  1.
         12    1    3    3    0    0  0.87541038356E+01  0.13233307844E+02  0.19461804235E+01  0.15985693250E+02  0.00000000000E+00 0. -1.
</event>
<event>
 7    1  0.2430096E-009  0.4778726E+02  0.7816164E-02  0.1312668E+00
        -11   -1    0    0    0    0  0.00000000000E+00  0.00000000000E+00  0.45593999997E+02  0.45594000000E+02  0.51100000000E-03 0.  1.
         11   -1    0    0    0    0 -0.00000000000E+00 -0.00000000000E+00 -0.45593999997E+02  0.45594000000E+02  0.51100000000E-03 0. -1.
    9900012    2    1    2    0    0 -0.25137864071E+02 -0.13547612956E+02 -0.32682928925E+02  0.47787264178E+02  0.19999968691E+02 0.  0.
        -12    1    1    2    0    0  0.25137864071E+02  0.13547612956E+02  0.32682928925E+02  0.43400735822E+02  0.00000000000E+00 0.  1.
         11    1    3    3    0    0 -0.74541853009E+01 -0.66766467247E+01 -0.90204563697E+01  0.13472606406E+02  0.51100000000E-03 0. -1.
        -11    1    3    3    0    0 -0.20533285527E+02 -0.75264420052E+01 -0.21587657256E+02  0.30729303439E+02  0.51100000000E-03 0.  1.
        -12    1    3    3    0    0  0.28496067577E+01  0.65547577388E+00 -0.20748152995E+01  0.35853543327E+01  0.00000000000E+00 0.  1.
</event>
<event>
 7    1  0.2430096E-009  0.4778727E+02  0.7816164E-02  0.1312668E+00
        -11   -1    0    0    0    0  0.00000000000E+00  0.00000000000E+00  0.45593999997E+02  0.45594000000E+02  0.51100000000E-03 0.  1.
         11   -1    0    0    0    0 -0.00000000000E+00 -0.00000000000E+00 -0.45593999997E+02  0.45594000000E+02  0.51100000000E-03 0. -1.
    9900012    2    1    2    0    0 -0.10820190775E+02  0.41849555086E+02 -0.38938226792E+01  0.47787266776E+02  0.19999980540E+02 0.  0.
        -12    1    1    2    0    0  0.10820190775E+02 -0.41849555086E+02  0.38938226792E+01  0.43400733224E+02  0.00000000000E+00 0.  1.
         11    1    3    3    0    0 -0.31576236632E+01  0.19320428319E+02 -0.25991195142E+01  0.19748543241E+02  0.51100000000E-03 0. -1.
        -11    1    3    3    0    0 -0.44547121821E+01  0.48866080342E+01 -0.65959917198E+01  0.93397272837E+01  0.51100000000E-03 0.  1.
        -12    1    3    3    0    0 -0.32078549296E+01  0.17642518733E+02  0.53012885549E+01  0.18698996252E+02  0.00000000000E+00 0.  1.
</event>
<event>
 7    1  0.2430096E-009  0.4778727E+02  0.7816164E-02  0.1312668E+00
        -11   -1    0    0    0    0  0.00000000000E+00  0.00000000000E+00  0.45593999997E+02  0.45594000000E+02  0.51100000000E-03 0. -1.
         11   -1    0    0    0    0 -0.00000000000E+00 -0.00000000000E+00 -0.45593999997E+02  0.45594000000E+02  0.51100000000E-03 0.  1.
    9900012    2    1    2    0    0  0.33305450603E+02 -0.48481368680E+01  0.27401929235E+02  0.47787271933E+02  0.20000004051E+02 0.  0.
        -12    1    1    2    0    0 -0.33305450603E+02  0.48481368680E+01 -0.27401929235E+02  0.43400728067E+02  0.00000000000E+00 0.  1.
         11    1    3    3    0    0  0.10417615279E+02 -0.62909968179E+01  0.16995288211E+02  0.20903185659E+02  0.51100000000E-03 0. -1.
        -11    1    3    3    0    0  0.21150399413E+02 -0.16774332054E+01  0.89008909763E+01  0.23008238479E+02  0.51100000000E-03 0.  1.
         12    1    3    3    0    0  0.17374359105E+01  0.31202931554E+01  0.15057500478E+01  0.38758477944E+01  0.00000000000E+00 0. -1.
</event>
<event>
 7    1  0.2430096E-009  0.4778728E+02  0.7816164E-02  0.1312668E+00
        -11   -1    0    0    0    0  0.00000000000E+00  0.00000000000E+00  0.45593999997E+02  0.45594000000E+02  0.51100000000E-03 0.  1.
         11   -1    0    0    0    0 -0.00000000000E+00 -0.00000000000E+00 -0.45593999997E+02  0.45594000000E+02  0.51100000000E-03 0. -1.
    9900012    2    1    2    0    0  0.11533846206E+02 -0.38211368085E+02 -0.17043601989E+02  0.47787278485E+02  0.20000033927E+02 0.  0.
        -12    1    1    2    0    0 -0.11533846206E+02  0.38211368085E+02  0.17043601989E+02  0.43400721515E+02  0.00000000000E+00 0.  1.
         11    1    3    3    0    0  0.38760224773E+01 -0.13166433479E+02  0.28270809637E+00  0.13728016788E+02  0.51100000000E-03 0. -1.
        -11    1    3    3    0    0  0.86990413457E+01 -0.91476233135E+01 -0.11558850840E+02  0.17116055785E+02  0.51100000000E-03 0.  1.
        -12    1    3    3    0    0 -0.10412176174E+01 -0.15897311292E+02 -0.57674592449E+01  0.16943205913E+02  0.00000000000E+00 0.  1.
</event>
<event>
 7    1  0.2430096E-009  0.4778727E+02  0.7816164E-02  0.1312668E+00
        -11   -1    0    0    0    0  0.00000000000E+00  0.00000000000E+00  0.45593999997E+02  0.45594000000E+02  0.51100000000E-03 0. -1.
         11   -1    0    0    0    0 -0.00000000000E+00 -0.00000000000E+00 -0.45593999997E+02  0.45594000000E+02  0.51100000000E-03 0.  1.
    9900012    2    1    2    0    0  0.81489007649E+01 -0.38130663283E+02  0.19059675808E+02  0.47787270652E+02  0.19999998211E+02 0.  0.
        -12    1    1    2    0    0 -0.81489007649E+01  0.38130663283E+02 -0.19059675808E+02  0.43400729348E+02  0.00000000000E+00 0.  1.
         11    1    3    3    0    0  0.74358327125E+01 -0.30618516338E+02  0.10030502583E+02  0.33066540992E+02  0.51100000000E-03 0. -1.
        -11    1    3    3    0    0  0.45152809911E+01 -0.38352543830E+01  0.66936112530E+01  0.89387566517E+01  0.51100000000E-03 0.  1.
         12    1    3    3    0    0 -0.38022129388E+01 -0.36768925617E+01  0.23355619719E+01  0.57819730082E+01  0.00000000000E+00 0. -1.
</event>
<event>
 7    1  0.2430096E-009  0.4778728E+02  0.7816164E-02  0.1312668E+00
        -11   -1    0    0    0    0  0.00000000000E+00  0.00000000000E+00  0.45593999997E+02  0.45594000000E+02  0.51100000000E-03 0.  1.
         11   -1    0    0    0    0 -0.00000000000E+00 -0.00000000000E+00 -0.45593999997E+02  0.45594000000E+02  0.51100000000E-03 0. -1.
    9900012    2    1    2    0    0  0.14780257260E+02  0.12156352509E+02 -0.38953689517E+02  0.47787276066E+02  0.20000022894E+02 0.  0.
        -12    1    1    2    0    0 -0.14780257260E+02 -0.12156352509E+02  0.38953689517E+02  0.43400723934E+02  0.00000000000E+00 0.  1.
         11    1    3    3    0    0  0.16095050404E+02  0.94715120088E+01 -0.19779398927E+02  0.27202661807E+02  0.51100000000E-03 0. -1.
        -11    1    3    3    0    0 -0.79444734582E+00 -0.35699260228E+00 -0.16435437765E+02  0.16458499479E+02  0.51100000000E-03 0.  1.
        -12    1    3    3    0    0 -0.52034579827E+00  0.30418331024E+01 -0.27388528252E+01  0.41261147792E+01  0.00000000000E+00 0.  1.
</event>
<event>
 7    1  0.2430096E-009  0.4778727E+02  0.7816164E-02  0.1312668E+00
        -11   -1    0    0    0    0  0.00000000000E+00  0.00000000000E+00  0.45593999997E+02  0.45594000000E+02  0.51100000000E-03 0.  1.
         11   -1    0    0    0    0 -0.00000000000E+00 -0.00000000000E+00 -0.45593999997E+02  0.45594000000E+02  0.51100000000E-03 0. -1.
    9900012    2    1    2    0    0  0.14646074165E+02 -0.35785758786E+02 -0.19710282990E+02  0.47787271021E+02  0.19999999895E+02 0.  0.
        -12    1    1    2    0    0 -0.14646074165E+02  0.35785758786E+02  0.19710282990E+02  0.43400728979E+02  0.00000000000E+00 0.  1.
         11    1    3    3    0    0  0.13560175001E+02 -0.16619975972E+02 -0.11053480006E+02  0.24130506995E+02  0.51100000000E-03 0. -1.
        -11    1    3    3    0    0 -0.31810537513E+01 -0.63496797745E+01 -0.71291219354E+01  0.10062897994E+02  0.51100000000E-03 0.  1.
        -12    1    3    3    0    0  0.42669529152E+01 -0.12816103040E+02 -0.15276810485E+01  0.13593866032E+02  0.00000000000E+00 0.  1.
</event>
<event>
 7    1  0.2430096E-009  0.4778727E+02  0.7816164E-02  0.1312668E+00
        -11   -1    0    0    0    0  0.00000000000E+00  0.00000000000E+00  0.45593999997E+02  0.45594000000E+02  0.51100000000E-03 0.  1.
         11   -1    0    0    0    0 -0.00000000000E+00 -0.00000000000E+00 -0.45593999997E+02  0.45594000000E+02  0.51100000000E-03 0. -1.
    9900012    2    1    2    0    0 -0.28867104254E+02  0.83894335929E+01 -0.31303852055E+02  0.47787268929E+02  0.19999990354E+02 0.  0.
        -12    1    1    2    0    0  0.28867104254E+02 -0.83894335929E+01  0.31303852055E+02  0.43400731071E+02  0.00000000000E+00 0.  1.
         11    1    3    3    0    0 -0.67038258675E+01  0.77841957474E+00 -0.36149330681E+01  0.76560407290E+01  0.51100000000E-03 0. -1.
        -11    1    3    3    0    0 -0.34572241441E+01 -0.52101883806E+01 -0.75373776701E+01  0.97933918612E+01  0.51100000000E-03 0.  1.
        -12    1    3    3    0    0 -0.18706054243E+02  0.12821202399E+02 -0.20151541317E+02  0.30337836339E+02  0.00000000000E+00 0.  1.
</event>
<event>
 7    1  0.2430096E-009  0.4778726E+02  0.7816164E-02  0.1312668E+00
        -11   -1    0    0    0    0  0.00000000000E+00  0.00000000000E+00  0.45593999997E+02  0.45594000000E+02  0.51100000000E-03 0.  1.
         11   -1    0    0    0    0 -0.00000000000E+00 -0.00000000000E+00 -0.45593999997E+02  0.45594000000E+02  0.51100000000E-03 0. -1.
    9900012    2    1    2    0    0 -0.19123769862E+02  0.28561256948E+01 -0.38855479195E+02  0.47787259325E+02  0.19999946565E+02 0.  0.
        -12    1    1    2    0    0  0.19123769862E+02 -0.28561256948E+01  0.38855479195E+02  0.43400740675E+02  0.00000000000E+00 0.  1.
         11    1    3    3    0    0 -0.11742334442E+02 -0.51223786393E+01 -0.11462340910E+02  0.17190300767E+02  0.51100000000E-03 0.  1.
        -11    1    3    3    0    0 -0.31368793900E+01 -0.94518143488E-01 -0.22808084466E+01  0.38795661378E+01  0.51100000000E-03 0. -1.
         12    1    3    3    0    0 -0.42445560304E+01  0.80730224776E+01 -0.25112329838E+02  0.26717392420E+02  0.00000000000E+00 0. -1.
</event>
<event>
 7    1  0.2430096E-009  0.4778722E+02  0.7816164E-02  0.1312668E+00
        -11   -1    0    0    0    0  0.00000000000E+00  0.00000000000E+00  0.45593999997E+02  0.45594000000E+02  0.51100000000E-03 0.  1.
         11   -1    0    0    0    0 -0.00000000000E+00 -0.00000000000E+00 -0.45593999997E+02  0.45594000000E+02  0.51100000000E-03 0. -1.
    9900012    2    1    2    0    0  0.24417527228E+02  0.24727596874E+02 -0.25999188738E+02  0.47787222378E+02  0.19999778110E+02 0.  0.
        -12    1    1    2    0    0 -0.24417527228E+02 -0.24727596874E+02  0.25999188738E+02  0.43400777622E+02  0.00000000000E+00 0.  1.
         11    1    3    3    0    0  0.25561966626E+01  0.13575761603E+02 -0.91201739010E+01  0.16553338537E+02  0.51100000000E-03 0. -1.
        -11    1    3    3    0    0  0.76519427315E+01 -0.75686830693E+00 -0.40741577596E+01  0.87019445478E+01  0.51100000000E-03 0.  1.
         12    1    3    3    0    0  0.14209387834E+02  0.11908703578E+02 -0.12804857078E+02  0.22531939293E+02  0.00000000000E+00 0. -1.
</event>
<event>
 7    1  0.2430096E-009  0.4778727E+02  0.7816164E-02  0.1312668E+00
        -11   -1    0    0    0    0  0.00000000000E+00  0.00000000000E+00  0.45593999997E+02  0.45594000000E+02  0.51100000000E-03 0.  1.
         11   -1    0    0    0    0 -0.00000000000E+00 -0.00000000000E+00 -0.45593999997E+02  0.45594000000E+02  0.51100000000E-03 0. -1.
    9900012    2    1    2    0    0  0.20007891687E+02  0.10249262699E+02 -0.37124927058E+02  0.47787270459E+02  0.19999997331E+02 0.  0.
        -12    1    1    2    0    0 -0.20007891687E+02 -0.10249262699E+02  0.37124927058E+02  0.43400729541E+02  0.00000000000E+00 0.  1.
         11    1    3    3    0    0  0.48139581389E+01 -0.55561530822E+00 -0.22176247604E+02  0.22699534343E+02  0.51100000000E-03 0. -1.
        -11    1    3    3    0    0  0.63660496940E+01  0.27369748213E+01 -0.14984368279E+01  0.70896356089E+01  0.51100000000E-03 0.  1.
         12    1    3    3    0    0  0.88278838538E+01  0.80679031862E+01 -0.13450242626E+02  0.17998100507E+02  0.00000000000E+00 0. -1.
</event>
<event>
 7    1  0.2430096E-009  0.4778727E+02  0.7816164E-02  0.1312668E+00
        -11   -1    0    0    0    0  0.00000000000E+00  0.00000000000E+00  0.45593999997E+02  0.45594000000E+02  0.51100000000E-03 0.  1.
         11   -1    0    0    0    0 -0.00000000000E+00 -0.00000000000E+00 -0.45593999997E+02  0.45594000000E+02  0.51100000000E-03 0. -1.
    9900012    2    1    2    0    0 -0.37846164328E+02 -0.57594408730E+01 -0.20447973768E+02  0.47787274837E+02  0.20000017290E+02 0.  0.
        -12    1    1    2    0    0  0.37846164328E+02  0.57594408730E+01  0.20447973768E+02  0.43400725163E+02  0.00000000000E+00 0.  1.
         11    1    3    3    0    0 -0.20780041039E+01 -0.41865581864E+01 -0.71231246379E+01  0.85196405659E+01  0.51100000000E-03 0. -1.
        -11    1    3    3    0    0 -0.12872419711E+02  0.18745835592E+01 -0.10222814360E+01  0.13048306877E+02  0.51100000000E-03 0.  1.
         12    1    3    3    0    0 -0.22895740512E+02 -0.34474662458E+01 -0.12302567694E+02  0.26219327394E+02  0.00000000000E+00 0. -1.
</event>
<event>
 7    1  0.2430096E-009  0.4778727E+02  0.7816164E-02  0.1312668E+00
        -11   -1    0    0    0    0  0.00000000000E+00  0.00000000000E+00  0.45593999997E+02  0.45594000000E+02  0.51100000000E-03 0.  1.
         11   -1    0    0    0    0 -0.00000000000E+00 -0.00000000000E+00 -0.45593999997E+02  0.45594000000E+02  0.51100000000E-03 0. -1.
    9900012    2    1    2    0    0 -0.23336135528E+02  0.27210222336E+02 -0.24467362818E+02  0.47787271156E+02  0.20000000507E+02 0.  0.
        -12    1    1    2    0    0  0.23336135528E+02 -0.27210222336E+02  0.24467362818E+02  0.43400728844E+02  0.00000000000E+00 0.  1.
         11    1    3    3    0    0 -0.16877292885E+02  0.86028594579E+01 -0.12814038762E+02  0.22870325656E+02  0.51100000000E-03 0. -1.
        -11    1    3    3    0    0  0.74154878959E-01 -0.11151370992E+01 -0.12657686599E+01  0.16885497498E+01  0.51100000000E-03 0.  1.
         12    1    3    3    0    0 -0.65329975218E+01  0.19722499978E+02 -0.10387555396E+02  0.23228395749E+02  0.00000000000E+00 0. -1.
</event>
<event>
 7    1  0.2430096E-009  0.4778727E+02  0.7816164E-02  0.1312668E+00
        -11   -1    0    0    0    0  0.00000000000E+00  0.00000000000E+00  0.45593999997E+02  0.45594000000E+02  0.51100000000E-03 0. -1.
         11   -1    0    0    0    0 -0.00000000000E+00 -0.00000000000E+00 -0.45593999997E+02  0.45594000000E+02  0.51100000000E-03 0.  1.
    9900012    2    1    2    0    0  0.88708495281E+01 -0.49348523811E+01  0.42196902876E+02  0.47787270148E+02  0.19999995912E+02 0.  0.
        -12    1    1    2    0    0 -0.88708495281E+01  0.49348523811E+01 -0.42196902876E+02  0.43400729852E+02  0.00000000000E+00 0.  1.
         11    1    3    3    0    0  0.11193864429E+02 -0.61957603536E+01  0.27936105583E+02  0.30726471366E+02  0.51100000000E-03 0. -1.
        -11    1    3    3    0    0  0.50502266058E+00 -0.12252489432E+01  0.13033008097E+02  0.13100213097E+02  0.51100000000E-03 0.  1.
         12    1    3    3    0    0 -0.28280375613E+01  0.24861569157E+01  0.12277891957E+01  0.39605856848E+01  0.00000000000E+00 0. -1.
</event>
<event>
 7    1 -0.2430096E-009  0.4778728E+02  0.7816164E-02  0.1312668E+00
        -11   -1    0    0    0    0  0.00000000000E+00  0.00000000000E+00  0.45593999997E+02  0.45594000000E+02  0.51100000000E-03 0.  1.
         11   -1    0    0    0    0 -0.00000000000E+00 -0.00000000000E+00 -0.45593999997E+02  0.45594000000E+02  0.51100000000E-03 0. -1.
    9900012    2    1    2    0    0 -0.10734334021E+02 -0.22709938607E+02 -0.35392872061E+02  0.47787278449E+02  0.20000033762E+02 0.  0.
        -12    1    1    2    0    0  0.10734334021E+02  0.22709938607E+02  0.35392872061E+02  0.43400721551E+02  0.00000000000E+00 0.  1.
         11    1    3    3    0    0 -0.52897875305E+01 -0.88235648493E+01 -0.16207283967E+02  0.19196697701E+02  0.51100000000E-03 0. -1.
        -11    1    3    3    0    0  0.31228030223E+01 -0.11893117942E+02 -0.12571003244E+02  0.17584887715E+02  0.51100000000E-03 0.  1.
        -12    1    3    3    0    0 -0.85673495131E+01 -0.19932558149E+01 -0.66145848491E+01  0.11005693034E+02  0.00000000000E+00 0.  1.
</event>
<event>
 7    1  0.2430096E-009  0.4778726E+02  0.7816164E-02  0.1312668E+00
        -11   -1    0    0    0    0  0.00000000000E+00  0.00000000000E+00  0.45593999997E+02  0.45594000000E+02  0.51100000000E-03 0.  1.
         11   -1    0    0    0    0 -0.00000000000E+00 -0.00000000000E+00 -0.45593999997E+02  0.45594000000E+02  0.51100000000E-03 0. -1.
    9900012    2    1    2    0    0 -0.32826821785E+02 -0.12223732382E+01 -0.28364227450E+02  0.47787264710E+02  0.19999971120E+02 0.  0.
        -12    1    1    2    0    0  0.32826821785E+02  0.12223732382E+01  0.28364227450E+02  0.43400735290E+02  0.00000000000E+00 0.  1.
         11    1    3    3    0    0 -0.22011950211E+02 -0.49105059184E+01 -0.11551175994E+02  0.25339074323E+02  0.51100000000E-03 0. -1.
        -11    1    3    3    0    0 -0.25700602268E+01  0.58121352238E+01 -0.68928292615E+01  0.93753517757E+01  0.51100000000E-03 0.  1.
        -12    1    3    3    0    0 -0.82448113478E+01 -0.21240025435E+01 -0.99202221949E+01  0.13072838611E+02  0.00000000000E+00 0.  1.
</event>
<event>
 7    1  0.2430096E-009  0.4778724E+02  0.7816164E-02  0.1312668E+00
        -11   -1    0    0    0    0  0.00000000000E+00  0.00000000000E+00  0.45593999997E+02  0.45594000000E+02  0.51100000000E-03 0.  1.
         11   -1    0    0    0    0 -0.00000000000E+00 -0.00000000000E+00 -0.45593999997E+02  0.45594000000E+02  0.51100000000E-03 0. -1.
    9900012    2    1    2    0    0 -0.27329636471E+02 -0.16331825365E+02 -0.29495561488E+02  0.47787243130E+02  0.19999872724E+02 0.  0.
        -12    1    1    2    0    0  0.27329636471E+02  0.16331825365E+02  0.29495561488E+02  0.43400756870E+02  0.00000000000E+00 0.  1.
         11    1    3    3    0    0 -0.51194275998E+01  0.24813793401E+00  0.17942465068E+01  0.54304173111E+01  0.51100000000E-03 0. -1.
        -11    1    3    3    0    0 -0.15658430498E+02 -0.94238971456E+01 -0.24269636377E+02  0.30381104872E+02  0.51100000000E-03 0.  1.
        -12    1    3    3    0    0 -0.65517783737E+01 -0.71560661536E+01 -0.70201716178E+01  0.11975720947E+02  0.00000000000E+00 0.  1.
</event>
<event>
 7    1  0.2430096E-009  0.4778731E+02  0.7816164E-02  0.1312668E+00
        -11   -1    0    0    0    0  0.00000000000E+00  0.00000000000E+00  0.45593999997E+02  0.45594000000E+02  0.51100000000E-03 0.  1.
         11   -1    0    0    0    0 -0.00000000000E+00 -0.00000000000E+00 -0.45593999997E+02  0.45594000000E+02  0.51100000000E-03 0. -1.
    9900012    2    1    2    0    0 -0.18856238518E+02 -0.24572470241E+02 -0.30401580409E+02  0.47787307423E+02  0.20000165863E+02 0.  0.
        -12    1    1    2    0    0  0.18856238518E+02  0.24572470241E+02  0.30401580409E+02  0.43400692577E+02  0.00000000000E+00 0.  1.
         11    1    3    3    0    0 -0.13216830000E+02 -0.10664527481E+02 -0.25209946764E+02  0.30396680045E+02  0.51100000000E-03 0. -1.
        -11    1    3    3    0    0 -0.69344887408E+01 -0.11505479197E+02 -0.27152620136E+01  0.13705321365E+02  0.51100000000E-03 0.  1.
         12    1    3    3    0    0  0.12950802222E+01 -0.24024635637E+01 -0.24763716309E+01  0.36853060132E+01  0.00000000000E+00 0. -1.
</event>
<event>
 7    1  0.2430096E-009  0.4778728E+02  0.7816164E-02  0.1312668E+00
        -11   -1    0    0    0    0  0.00000000000E+00  0.00000000000E+00  0.45593999997E+02  0.45594000000E+02  0.51100000000E-03 0.  1.
         11   -1    0    0    0    0 -0.00000000000E+00 -0.00000000000E+00 -0.45593999997E+02  0.45594000000E+02  0.51100000000E-03 0. -1.
    9900012    2    1    2    0    0  0.18665922172E+02  0.39180451030E+02  0.31254888719E+00  0.47787284796E+02  0.20000062699E+02 0.  0.
        -12    1    1    2    0    0 -0.18665922172E+02 -0.39180451030E+02 -0.31254888719E+00  0.43400715204E+02  0.00000000000E+00 0.  1.
         11    1    3    3    0    0  0.11192508025E+02  0.27339873260E+02 -0.70268767230E+01  0.30366394295E+02  0.51100000000E-03 0. -1.
        -11    1    3    3    0    0 -0.71163231810E+00  0.29653856497E+01  0.37333850702E+01  0.48205909338E+01  0.51100000000E-03 0.  1.
         12    1    3    3    0    0  0.81850464645E+01  0.88751921204E+01  0.36060405400E+01  0.12600299567E+02  0.00000000000E+00 0. -1.
</event>
<event>
 7    1  0.2430096E-009  0.4778727E+02  0.7816164E-02  0.1312668E+00
        -11   -1    0    0    0    0  0.00000000000E+00  0.00000000000E+00  0.45593999997E+02  0.45594000000E+02  0.51100000000E-03 0. -1.
         11   -1    0    0    0    0 -0.00000000000E+00 -0.00000000000E+00 -0.45593999997E+02  0.45594000000E+02  0.51100000000E-03 0.  1.
    9900012    2    1    2    0    0  0.25548598091E+02  0.31959093567E+02  0.14474411384E+02  0.47787272921E+02  0.20000008558E+02 0.  0.
        -12    1    1    2    0    0 -0.25548598091E+02 -0.31959093567E+02 -0.14474411384E+02  0.43400727079E+02  0.00000000000E+00 0.  1.
         11    1    3    3    0    0  0.70062341702E+01  0.21292214107E+02  0.13463892607E+02  0.26148080297E+02  0.51100000000E-03 0. -1.
        -11    1    3    3    0    0  0.16854514993E+02  0.10519248401E+02  0.13408840171E+01  0.19912991558E+02  0.51100000000E-03 0.  1.
         12    1    3    3    0    0  0.16878489278E+01  0.14763105904E+00 -0.33036523945E+00  0.17262010671E+01  0.00000000000E+00 0. -1.
</event>
<event>
 7    1  0.2430096E-009  0.4778728E+02  0.7816164E-02  0.1312668E+00
        -11   -1    0    0    0    0  0.00000000000E+00  0.00000000000E+00  0.45593999997E+02  0.45594000000E+02  0.51100000000E-03 0.  1.
         11   -1    0    0    0    0 -0.00000000000E+00 -0.00000000000E+00 -0.45593999997E+02  0.45594000000E+02  0.51100000000E-03 0. -1.
    9900012    2    1    2    0    0 -0.30828356081E+02 -0.13441747560E+02 -0.27432728474E+02  0.47787277568E+02  0.20000029742E+02 0.  0.
        -12    1    1    2    0    0  0.30828356081E+02  0.13441747560E+02  0.27432728474E+02  0.43400722432E+02  0.00000000000E+00 0.  1.
         11    1    3    3    0    0 -0.15912927710E+02 -0.95872587622E+01 -0.15570315377E+02  0.24239874589E+02  0.51100000000E-03 0. -1.
        -11    1    3    3    0    0 -0.62283702014E+01  0.48689913817E+01 -0.59235689051E+01  0.98786811506E+01  0.51100000000E-03 0.  1.
        -12    1    3    3    0    0 -0.86870581699E+01 -0.87234801799E+01 -0.59388441913E+01  0.13668721829E+02  0.00000000000E+00 0.  1.
</event>
<event>
 7    1  0.2430096E-009  0.4778727E+02  0.7816164E-02  0.1312668E+00
        -11   -1    0    0    0    0  0.00000000000E+00  0.00000000000E+00  0.45593999997E+02  0.45594000000E+02  0.51100000000E-03 0. -1.
         11   -1    0    0    0    0 -0.00000000000E+00 -0.00000000000E+00 -0.45593999997E+02  0.45594000000E+02  0.51100000000E-03 0.  1.
    9900012    2    1    2    0    0 -0.10565869844E+02  0.24070996030E+02  0.34533646730E+02  0.47787271758E+02  0.20000003255E+02 0.  0.
        -12    1    1    2    0    0  0.10565869844E+02 -0.24070996030E+02 -0.34533646730E+02  0.43400728242E+02  0.00000000000E+00 0.  1.
         11    1    3    3    0    0 -0.16609427579E+01  0.69071436569E+01  0.22804199599E+02  0.23885118462E+02  0.51100000000E-03 0. -1.
        -11    1    3    3    0    0 -0.19445502632E+01  0.13651345688E+01 -0.86922796144E+00  0.25299062487E+01  0.51100000000E-03 0.  1.
         12    1    3    3    0    0 -0.69603768229E+01  0.15798717804E+02  0.12598675092E+02  0.21372247047E+02  0.00000000000E+00 0. -1.
</event>
<event>
 7    1  0.2430096E-009  0.4778727E+02  0.7816164E-02  0.1312668E+00
        -11   -1    0    0    0    0  0.00000000000E+00  0.00000000000E+00  0.45593999997E+02  0.45594000000E+02  0.51100000000E-03 0.  1.
         11   -1    0    0    0    0 -0.00000000000E+00 -0.00000000000E+00 -0.45593999997E+02  0.45594000000E+02  0.51100000000E-03 0. -1.
    9900012    2    1    2    0    0 -0.43943157184E+01 -0.43031540423E+02 -0.35496032581E+01  0.47787272297E+02  0.20000005712E+02 0.  0.
        -12    1    1    2    0    0  0.43943157184E+01  0.43031540423E+02  0.35496032581E+01  0.43400727703E+02  0.00000000000E+00 0.  1.
         11    1    3    3    0    0 -0.11175239109E+01 -0.88784102444E+01 -0.69384678625E+00  0.89753246060E+01  0.51100000000E-03 0. -1.
        -11    1    3    3    0    0  0.45830036203E+01 -0.28037687903E+02  0.14790257068E+00  0.28410169668E+02  0.51100000000E-03 0.  1.
        -12    1    3    3    0    0 -0.78597954279E+01 -0.61154422760E+01 -0.30036590425E+01  0.10401778023E+02  0.00000000000E+00 0.  1.
</event>
<event>
 7    1  0.2430096E-009  0.4778729E+02  0.7816164E-02  0.1312668E+00
        -11   -1    0    0    0    0  0.00000000000E+00  0.00000000000E+00  0.45593999997E+02  0.45594000000E+02  0.51100000000E-03 0.  1.
         11   -1    0    0    0    0 -0.00000000000E+00 -0.00000000000E+00 -0.45593999997E+02  0.45594000000E+02  0.51100000000E-03 0. -1.
    9900012    2    1    2    0    0  0.96938337325E+01  0.42244231687E+02 -0.22531171375E+01  0.47787285028E+02  0.20000063757E+02 0.  0.
        -12    1    1    2    0    0 -0.96938337325E+01 -0.42244231687E+02  0.22531171375E+01  0.43400714972E+02  0.00000000000E+00 0.  1.
         11    1    3    3    0    0  0.56740205124E+01  0.37850998119E+02  0.25128936609E+00  0.38274739895E+02  0.51100000000E-03 0. -1.
        -11    1    3    3    0    0  0.14539609953E+01  0.40709251411E+01 -0.45046230862E+01  0.62432414249E+01  0.51100000000E-03 0.  1.
         12    1    3    3    0    0  0.25658522248E+01  0.32230842655E+00  0.20002165826E+01  0.32693037086E+01  0.00000000000E+00 0. -1.
</event>
<event>
 7    1  0.2430096E-009  0.4778727E+02  0.7816164E-02  0.1312668E+00
        -11   -1    0    0    0    0  0.00000000000E+00  0.00000000000E+00  0.45593999997E+02  0.45594000000E+02  0.51100000000E-03 0.  1.
         11   -1    0    0    0    0 -0.00000000000E+00 -0.00000000000E+00 -0.45593999997E+02  0.45594000000E+02  0.51100000000E-03 0. -1.
    9900012    2    1    2    0    0  0.10999447759E+01  0.27922405122E+02 -0.33207718827E+02  0.47787272173E+02  0.20000005144E+02 0.  0.
        -12    1    1    2    0    0 -0.10999447759E+01 -0.27922405122E+02  0.33207718827E+02  0.43400727827E+02  0.00000000000E+00 0.  1.
         11    1    3    3    0    0 -0.31456324597E+01  0.14837642922E+02 -0.26749628375E+02  0.30750500313E+02  0.51100000000E-03 0. -1.
        -11    1    3    3    0    0  0.48854272267E+01  0.34037051884E+01 -0.34375868138E+01  0.68752899256E+01  0.51100000000E-03 0.  1.
         12    1    3    3    0    0 -0.63984999107E+00  0.96810570112E+01 -0.30205036378E+01  0.10161481934E+02  0.00000000000E+00 0. -1.
</event>
<event>
 7    1  0.2430096E-009  0.4778727E+02  0.7816164E-02  0.1312668E+00
        -11   -1    0    0    0    0  0.00000000000E+00  0.00000000000E+00  0.45593999997E+02  0.45594000000E+02  0.51100000000E-03 0. -1.
         11   -1    0    0    0    0 -0.00000000000E+00 -0.00000000000E+00 -0.45593999997E+02  0.45594000000E+02  0.51100000000E-03 0.  1.
    9900012    2    1    2    0    0 -0.16042266384E+02 -0.32225200129E+02  0.24244697630E+02  0.47787271927E+02  0.20000004025E+02 0.  0.
        -12    1    1    2    0    0  0.16042266384E+02  0.32225200129E+02 -0.24244697630E+02  0.43400728073E+02  0.00000000000E+00 0.  1.
         11    1    3    3    0    0  0.32200575411E-01  0.20338536969E+01  0.19025669094E+01  0.27852035551E+01  0.51100000000E-03 0. -1.
        -11    1    3    3    0    0 -0.12495598870E+00 -0.37221876870E+00 -0.85958598292E+00  0.94501276925E+00  0.51100000000E-03 0.  1.
         12    1    3    3    0    0 -0.15949510970E+02 -0.33886835057E+02  0.23201716704E+02  0.44057055603E+02  0.00000000000E+00 0. -1.
</event>
<event>
 7    1  0.2430096E-009  0.4778727E+02  0.7816164E-02  0.1312668E+00
        -11   -1    0    0    0    0  0.00000000000E+00  0.00000000000E+00  0.45593999997E+02  0.45594000000E+02  0.51100000000E-03 0.  1.
         11   -1    0    0    0    0 -0.00000000000E+00 -0.00000000000E+00 -0.45593999997E+02  0.45594000000E+02  0.51100000000E-03 0. -1.
    9900012    2    1    2    0    0  0.29730012689E+02  0.10995523137E+02 -0.29645374554E+02  0.47787269407E+02  0.19999992536E+02 0.  0.
        -12    1    1    2    0    0 -0.29730012689E+02 -0.10995523137E+02  0.29645374554E+02  0.43400730593E+02  0.00000000000E+00 0.  1.
         11    1    3    3    0    0  0.23666908033E+01  0.78833188589E+01 -0.21234788770E+01  0.85004178951E+01  0.51100000000E-03 0. -1.
        -11    1    3    3    0    0  0.15255092568E+02 -0.49378498152E+00 -0.16989202524E+02  0.22838447310E+02  0.51100000000E-03 0.  1.
         12    1    3    3    0    0  0.12108229318E+02  0.36059892597E+01 -0.10532693153E+02  0.16448404202E+02  0.00000000000E+00 0. -1.
</event>
<event>
 7    1  0.2430096E-009  0.4778727E+02  0.7816164E-02  0.1312668E+00
        -11   -1    0    0    0    0  0.00000000000E+00  0.00000000000E+00  0.45593999997E+02  0.45594000000E+02  0.51100000000E-03 0. -1.
         11   -1    0    0    0    0 -0.00000000000E+00 -0.00000000000E+00 -0.45593999997E+02  0.45594000000E+02  0.51100000000E-03 0.  1.
    9900012    2    1    2    0    0 -0.35172871195E+02  0.84172913193E+01  0.23992529149E+02  0.47787272861E+02  0.20000008281E+02 0.  0.
        -12    1    1    2    0    0  0.35172871195E+02 -0.84172913193E+01 -0.23992529149E+02  0.43400727139E+02  0.00000000000E+00 0.  1.
         11    1    3    3    0    0 -0.14584208843E+02  0.46807078834E+01  0.19103531182E+02  0.24485772967E+02  0.51100000000E-03 0. -1.
        -11    1    3    3    0    0 -0.91320445125E+01  0.32901306002E+01 -0.20210901866E+01  0.99148374746E+01  0.51100000000E-03 0.  1.
        -12    1    3    3    0    0 -0.11456617839E+02  0.44645283572E+00  0.69100881530E+01  0.13386662419E+02  0.00000000000E+00 0.  1.
</event>
<event>
 7    1  0.2430096E-009  0.4778727E+02  0.7816164E-02  0.1312668E+00
        -11   -1    0    0    0    0  0.00000000000E+00  0.00000000000E+00  0.45593999997E+02  0.45594000000E+02  0.51100000000E-03 0.  1.
         11   -1    0    0    0    0 -0.00000000000E+00 -0.00000000000E+00 -0.45593999997E+02  0.45594000000E+02  0.51100000000E-03 0. -1.
    9900012    2    1    2    0    0  0.13303438537E+02  0.30220787911E+02 -0.28166394120E+02  0.47787271243E+02  0.20000000907E+02 0.  0.
        -12    1    1    2    0    0 -0.13303438537E+02 -0.30220787911E+02  0.28166394120E+02  0.43400728757E+02  0.00000000000E+00 0.  1.
         11    1    3    3    0    0 -0.22850506025E+01  0.13845478292E+02 -0.11486726778E+02  0.18134597259E+02  0.51100000000E-03 0. -1.
        -11    1    3    3    0    0  0.11720202264E+02  0.16720355534E+02 -0.12471888104E+02  0.23926584032E+02  0.51100000000E-03 0.  1.
        -12    1    3    3    0    0  0.38682868753E+01 -0.34504591519E+00 -0.42077792375E+01  0.57260899525E+01  0.00000000000E+00 0.  1.
</event>
<event>
 7    1  0.2430096E-009  0.4778727E+02  0.7816164E-02  0.1312668E+00
        -11   -1    0    0    0    0  0.00000000000E+00  0.00000000000E+00  0.45593999997E+02  0.45594000000E+02  0.51100000000E-03 0.  1.
         11   -1    0    0    0    0 -0.00000000000E+00 -0.00000000000E+00 -0.45593999997E+02  0.45594000000E+02  0.51100000000E-03 0. -1.
    9900012    2    1    2    0    0  0.94775279003E+01  0.40434027596E+02 -0.12605118979E+02  0.47787272503E+02  0.20000006651E+02 0.  0.
        -12    1    1    2    0    0 -0.94775279003E+01 -0.40434027596E+02  0.12605118979E+02  0.43400727497E+02  0.00000000000E+00 0.  1.
         11    1    3    3    0    0  0.37728084689E+01 -0.26811802934E+00 -0.22921015073E+00  0.37892622732E+01  0.51100000000E-03 0. -1.
        -11    1    3    3    0    0  0.28091040093E+01  0.37490316146E+02 -0.12645689240E+02  0.39665202970E+02  0.51100000000E-03 0.  1.
         12    1    3    3    0    0  0.28956154220E+01  0.32118294796E+01  0.26978041105E+00  0.43328072596E+01  0.00000000000E+00 0. -1.
</event>
<event>
 7    1  0.2430096E-009  0.4778730E+02  0.7816164E-02  0.1312668E+00
        -11   -1    0    0    0    0  0.00000000000E+00  0.00000000000E+00  0.45593999997E+02  0.45594000000E+02  0.51100000000E-03 0. -1.
         11   -1    0    0    0    0 -0.00000000000E+00 -0.00000000000E+00 -0.45593999997E+02  0.45594000000E+02  0.51100000000E-03 0.  1.
    9900012    2    1    2    0    0  0.36786728612E+02  0.30656715973E+01  0.22824522903E+02  0.47787301963E+02  0.20000140970E+02 0.  0.
        -12    1    1    2    0    0 -0.36786728612E+02 -0.30656715973E+01 -0.22824522903E+02  0.43400698037E+02  0.00000000000E+00 0.  1.
         11    1    3    3    0    0  0.11478982233E+02  0.17295575942E+01  0.14742210307E+02  0.18764092506E+02  0.51100000000E-03 0. -1.
        -11    1    3    3    0    0  0.26464652272E+02  0.19157669010E+01  0.80524615843E+01  0.27728867999E+02  0.51100000000E-03 0.  1.
        -12    1    3    3    0    0 -0.11569058930E+01 -0.57965289792E+00  0.29851012487E-01  0.12943414582E+01  0.00000000000E+00 0.  1.
</event>
<event>
 7    1  0.2430096E-009  0.4778727E+02  0.7816164E-02  0.1312668E+00
        -11   -1    0    0    0    0  0.00000000000E+00  0.00000000000E+00  0.45593999997E+02  0.45594000000E+02  0.51100000000E-03 0.  1.
         11   -1    0    0    0    0 -0.00000000000E+00 -0.00000000000E+00 -0.45593999997E+02  0.45594000000E+02  0.51100000000E-03 0. -1.
    9900012    2    1    2    0    0 -0.26194233195E+02 -0.11181069268E+02 -0.32748571227E+02  0.47787273277E+02  0.20000010181E+02 0.  0.
        -12    1    1    2    0    0  0.26194233195E+02  0.11181069268E+02  0.32748571227E+02  0.43400726723E+02  0.00000000000E+00 0.  1.
         11    1    3    3    0    0 -0.16988407405E+02 -0.25428158776E+01 -0.72624575810E+01  0.18649803997E+02  0.51100000000E-03 0. -1.
        -11    1    3    3    0    0 -0.61448870542E+01 -0.17829475505E+01 -0.14292110147E+02  0.15658957551E+02  0.51100000000E-03 0.  1.
         12    1    3    3    0    0 -0.30609387360E+01 -0.68553058404E+01 -0.11194003499E+02  0.13478511729E+02  0.00000000000E+00 0. -1.
</event>
<event>
 7    1  0.2430096E-009  0.4778729E+02  0.7816164E-02  0.1312668E+00
        -11   -1    0    0    0    0  0.00000000000E+00  0.00000000000E+00  0.45593999997E+02  0.45594000000E+02  0.51100000000E-03 0.  1.
         11   -1    0    0    0    0 -0.00000000000E+00 -0.00000000000E+00 -0.45593999997E+02  0.45594000000E+02  0.51100000000E-03 0. -1.
    9900012    2    1    2    0    0  0.27542431657E+02  0.15608832119E+02 -0.29688384525E+02  0.47787293124E+02  0.20000100668E+02 0.  0.
        -12    1    1    2    0    0 -0.27542431657E+02 -0.15608832119E+02  0.29688384525E+02  0.43400706876E+02  0.00000000000E+00 0.  1.
         11    1    3    3    0    0  0.11797954031E+02  0.16120191248E+02 -0.10865181100E+02  0.22739930646E+02  0.51100000000E-03 0. -1.
        -11    1    3    3    0    0  0.13905706798E+02 -0.15807621431E+01 -0.14096146984E+02  0.19863757211E+02  0.51100000000E-03 0.  1.
        -12    1    3    3    0    0  0.18387708276E+01  0.10694030137E+01 -0.47270564409E+01  0.51836052663E+01  0.00000000000E+00 0.  1.
</event>
<event>
 7    1  0.2430096E-009  0.4778727E+02  0.7816164E-02  0.1312668E+00
        -11   -1    0    0    0    0  0.00000000000E+00  0.00000000000E+00  0.45593999997E+02  0.45594000000E+02  0.51100000000E-03 0. -1.
         11   -1    0    0    0    0 -0.00000000000E+00 -0.00000000000E+00 -0.45593999997E+02  0.45594000000E+02  0.51100000000E-03 0.  1.
    9900012    2    1    2    0    0 -0.20559885764E+02 -0.15445899828E+02  0.34961962197E+02  0.47787268154E+02  0.19999986821E+02 0.  0.
        -12    1    1    2    0    0  0.20559885764E+02  0.15445899828E+02 -0.34961962197E+02  0.43400731846E+02  0.00000000000E+00 0.  1.
         11    1    3    3    0    0 -0.95877119648E+01 -0.10348318708E+02  0.25753070535E+02  0.29363796809E+02  0.51100000000E-03 0. -1.
        -11    1    3    3    0    0 -0.20933993302E+00  0.26329793309E+01  0.93891311150E+00  0.28032055680E+01  0.51100000000E-03 0.  1.
         12    1    3    3    0    0 -0.10762833866E+02 -0.77305604513E+01  0.82699785499E+01  0.15620265777E+02  0.00000000000E+00 0. -1.
</event>
<event>
 7    1  0.2430096E-009  0.4778727E+02  0.7816164E-02  0.1312668E+00
        -11   -1    0    0    0    0  0.00000000000E+00  0.00000000000E+00  0.45593999997E+02  0.45594000000E+02  0.51100000000E-03 0.  1.
         11   -1    0    0    0    0 -0.00000000000E+00 -0.00000000000E+00 -0.45593999997E+02  0.45594000000E+02  0.51100000000E-03 0. -1.
    9900012    2    1    2    0    0 -0.28366696433E+02  0.16727651065E+02 -0.28269060729E+02  0.47787267620E+02  0.19999984385E+02 0.  0.
        -12    1    1    2    0    0  0.28366696433E+02 -0.16727651065E+02  0.28269060729E+02  0.43400732380E+02  0.00000000000E+00 0.  1.
         11    1    3    3    0    0 -0.28445821942E+01 -0.15219113934E+01 -0.26950406582E+01  0.42037015308E+01  0.51100000000E-03 0. -1.
        -11    1    3    3    0    0 -0.23139755469E+01  0.90378909593E+01 -0.11880493157E+02  0.15105762932E+02  0.51100000000E-03 0.  1.
        -12    1    3    3    0    0 -0.23208138692E+02  0.92116714987E+01 -0.13693526913E+02  0.28477803157E+02  0.00000000000E+00 0.  1.
</event>
<event>
 7    1  0.2430096E-009  0.4778727E+02  0.7816164E-02  0.1312668E+00
        -11   -1    0    0    0    0  0.00000000000E+00  0.00000000000E+00  0.45593999997E+02  0.45594000000E+02  0.51100000000E-03 0.  1.
         11   -1    0    0    0    0 -0.00000000000E+00 -0.00000000000E+00 -0.45593999997E+02  0.45594000000E+02  0.51100000000E-03 0. -1.
    9900012    2    1    2    0    0  0.15122910799E+02  0.28103973264E+02 -0.29412374050E+02  0.47787268537E+02  0.19999988569E+02 0.  0.
        -12    1    1    2    0    0 -0.15122910799E+02 -0.28103973264E+02  0.29412374050E+02  0.43400731463E+02  0.00000000000E+00 0.  1.
         11    1    3    3    0    0  0.60625064849E+01  0.85061153723E+01 -0.17653116210E+02  0.20511959823E+02  0.51100000000E-03 0. -1.
        -11    1    3    3    0    0  0.13822781711E+01  0.16108794607E+02 -0.73860988976E+01  0.17775219094E+02  0.51100000000E-03 0.  1.
        -12    1    3    3    0    0  0.76781261427E+01  0.34890632845E+01 -0.43731589427E+01  0.95000896209E+01  0.00000000000E+00 0.  1.
</event>
<event>
 7    1  0.2430096E-009  0.4778726E+02  0.7816164E-02  0.1312668E+00
        -11   -1    0    0    0    0  0.00000000000E+00  0.00000000000E+00  0.45593999997E+02  0.45594000000E+02  0.51100000000E-03 0.  1.
         11   -1    0    0    0    0 -0.00000000000E+00 -0.00000000000E+00 -0.45593999997E+02  0.45594000000E+02  0.51100000000E-03 0. -1.
    9900012    2    1    2    0    0 -0.22505264594E+02 -0.95086667034E+01 -0.35870909838E+02  0.47787264413E+02  0.19999969763E+02 0.  0.
        -12    1    1    2    0    0  0.22505264594E+02  0.95086667034E+01  0.35870909838E+02  0.43400735587E+02  0.00000000000E+00 0.  1.
         11    1    3    3    0    0 -0.10067327652E+02 -0.52500296593E+01 -0.54322312068E+01  0.12586621216E+02  0.51100000000E-03 0. -1.
        -11    1    3    3    0    0 -0.33420711762E+01  0.25612384936E+01 -0.17397737789E+02  0.17900018515E+02  0.51100000000E-03 0.  1.
         12    1    3    3    0    0 -0.90958657654E+01 -0.68198755377E+01 -0.13040940842E+02  0.17300624683E+02  0.00000000000E+00 0. -1.
</event>
<event>
 7    1  0.2430096E-009  0.4778727E+02  0.7816164E-02  0.1312668E+00
        -11   -1    0    0    0    0  0.00000000000E+00  0.00000000000E+00  0.45593999997E+02  0.45594000000E+02  0.51100000000E-03 0.  1.
         11   -1    0    0    0    0 -0.00000000000E+00 -0.00000000000E+00 -0.45593999997E+02  0.45594000000E+02  0.51100000000E-03 0. -1.
    9900012    2    1    2    0    0 -0.13912547339E+02 -0.93715850597E+01 -0.40027959912E+02  0.47787272417E+02  0.20000006257E+02 0.  0.
        -12    1    1    2    0    0  0.13912547339E+02  0.93715850597E+01  0.40027959912E+02  0.43400727583E+02  0.00000000000E+00 0.  1.
         11    1    3    3    0    0 -0.85558217221E+01 -0.10815938764E+02 -0.28651170694E+02  0.31797424410E+02  0.51100000000E-03 0. -1.
        -11    1    3    3    0    0 -0.69289268827E+01  0.41673904017E+01 -0.84213207463E+01  0.11674579816E+02  0.51100000000E-03 0.  1.
        -12    1    3    3    0    0  0.15722012653E+01 -0.27230366969E+01 -0.29554684718E+01  0.43152681909E+01  0.00000000000E+00 0.  1.
</event>
<event>
 7    1  0.2430096E-009  0.4778727E+02  0.7816164E-02  0.1312668E+00
        -11   -1    0    0    0    0  0.00000000000E+00  0.00000000000E+00  0.45593999997E+02  0.45594000000E+02  0.51100000000E-03 0.  1.
         11   -1    0    0    0    0 -0.00000000000E+00 -0.00000000000E+00 -0.45593999997E+02  0.45594000000E+02  0.51100000000E-03 0. -1.
    9900012    2    1    2    0    0  0.28273027093E+02  0.23356453471E+02 -0.23210668822E+02  0.47787272737E+02  0.20000007719E+02 0.  0.
        -12    1    1    2    0    0 -0.28273027093E+02 -0.23356453471E+02  0.23210668822E+02  0.43400727263E+02  0.00000000000E+00 0.  1.
         11    1    3    3    0    0  0.26943795645E+02  0.22297416393E+02 -0.23331270879E+02  0.42041540203E+02  0.51100000000E-03 0. -1.
        -11    1    3    3    0    0  0.55068908434E+00  0.10526306254E+01  0.27541874477E+01  0.29994730302E+01  0.51100000000E-03 0.  1.
         12    1    3    3    0    0  0.77854236358E+00  0.64064529094E-02 -0.26335853904E+01  0.27462595040E+01  0.00000000000E+00 0. -1.
</event>
<event>
 7    1  0.2430096E-009  0.4778726E+02  0.7816164E-02  0.1312668E+00
        -11   -1    0    0    0    0  0.00000000000E+00  0.00000000000E+00  0.45593999997E+02  0.45594000000E+02  0.51100000000E-03 0. -1.
         11   -1    0    0    0    0 -0.00000000000E+00 -0.00000000000E+00 -0.45593999997E+02  0.45594000000E+02  0.51100000000E-03 0.  1.
    9900012    2    1    2    0    0  0.39153649994E+02  0.12875584047E+02  0.13595402555E+02  0.47787263336E+02  0.19999964853E+02 0.  0.
        -12    1    1    2    0    0 -0.39153649994E+02 -0.12875584047E+02 -0.13595402555E+02  0.43400736664E+02  0.00000000000E+00 0.  1.
         11    1    3    3    0    0  0.26335090871E+02  0.11598951711E+02  0.10188121547E+02  0.30526554225E+02  0.51100000000E-03 0. -1.
        -11    1    3    3    0    0  0.11398052995E+02 -0.32043081088E+01  0.40561824451E+01  0.12515423238E+02  0.51100000000E-03 0.  1.
        -12    1    3    3    0    0  0.14205061276E+01  0.44809404455E+01 -0.64890143776E+00  0.47452858724E+01  0.00000000000E+00 0.  1.
</event>
<event>
 7    1  0.2430096E-009  0.4778727E+02  0.7816164E-02  0.1312668E+00
        -11   -1    0    0    0    0  0.00000000000E+00  0.00000000000E+00  0.45593999997E+02  0.45594000000E+02  0.51100000000E-03 0.  1.
         11   -1    0    0    0    0 -0.00000000000E+00 -0.00000000000E+00 -0.45593999997E+02  0.45594000000E+02  0.51100000000E-03 0. -1.
    9900012    2    1    2    0    0  0.25722674076E+02  0.34952684091E+02  0.52659914533E+00  0.47787269667E+02  0.19999993721E+02 0.  0.
        -12    1    1    2    0    0 -0.25722674076E+02 -0.34952684091E+02 -0.52659914533E+00  0.43400730333E+02  0.00000000000E+00 0.  1.
         11    1    3    3    0    0  0.11369563200E+02  0.18956576514E+02 -0.20982064029E+01  0.22204081401E+02  0.51100000000E-03 0. -1.
        -11    1    3    3    0    0 -0.65287000592E+00  0.59570660414E+01  0.44103413181E+01  0.74406979423E+01  0.51100000000E-03 0.  1.
        -12    1    3    3    0    0  0.15005980882E+02  0.10039041535E+02 -0.17855357699E+01  0.18142490324E+02  0.00000000000E+00 0.  1.
</event>
<event>
 7    1  0.2430096E-009  0.4778727E+02  0.7816164E-02  0.1312668E+00
        -11   -1    0    0    0    0  0.00000000000E+00  0.00000000000E+00  0.45593999997E+02  0.45594000000E+02  0.51100000000E-03 0.  1.
         11   -1    0    0    0    0 -0.00000000000E+00 -0.00000000000E+00 -0.45593999997E+02  0.45594000000E+02  0.51100000000E-03 0. -1.
    9900012    2    1    2    0    0 -0.56544608080E+01  0.17552371323E+02 -0.39288227668E+02  0.47787268446E+02  0.19999988154E+02 0.  0.
        -12    1    1    2    0    0  0.56544608080E+01 -0.17552371323E+02  0.39288227668E+02  0.43400731554E+02  0.00000000000E+00 0.  1.
         11    1    3    3    0    0 -0.22275560658E-01  0.14185042562E+02 -0.12918496326E+02  0.19186022941E+02  0.51100000000E-03 0.  1.
        -11    1    3    3    0    0 -0.35925697163E+01 -0.14230578964E+01 -0.20021664392E+02  0.20391142592E+02  0.51100000000E-03 0. -1.
         12    1    3    3    0    0 -0.20396155311E+01  0.47903866575E+01 -0.63480669501E+01  0.82101029132E+01  0.00000000000E+00 0. -1.
</event>
<event>
 7    1  0.2430096E-009  0.4778727E+02  0.7816164E-02  0.1312668E+00
        -11   -1    0    0    0    0  0.00000000000E+00  0.00000000000E+00  0.45593999997E+02  0.45594000000E+02  0.51100000000E-03 0.  1.
         11   -1    0    0    0    0 -0.00000000000E+00 -0.00000000000E+00 -0.45593999997E+02  0.45594000000E+02  0.51100000000E-03 0. -1.
    9900012    2    1    2    0    0 -0.42306720009E+01  0.43087646383E+02 -0.30297561541E+01  0.47787270988E+02  0.19999999741E+02 0.  0.
        -12    1    1    2    0    0  0.42306720009E+01 -0.43087646383E+02  0.30297561541E+01  0.43400729012E+02  0.00000000000E+00 0.  1.
         11    1    3    3    0    0  0.11987869262E+01  0.38305354070E+02 -0.37432308986E+01  0.38506480213E+02  0.51100000000E-03 0. -1.
        -11    1    3    3    0    0 -0.14638468719E+01  0.12388799979E+01  0.29443075459E+01  0.35137755335E+01  0.51100000000E-03 0.  1.
         12    1    3    3    0    0 -0.39656120552E+01  0.35434123154E+01 -0.22308328014E+01  0.57670152417E+01  0.00000000000E+00 0. -1.
</event>
<event>
 7    1  0.2430096E-009  0.4778726E+02  0.7816164E-02  0.1312668E+00
        -11   -1    0    0    0    0  0.00000000000E+00  0.00000000000E+00  0.45593999997E+02  0.45594000000E+02  0.51100000000E-03 0. -1.
         11   -1    0    0    0    0 -0.00000000000E+00 -0.00000000000E+00 -0.45593999997E+02  0.45594000000E+02  0.51100000000E-03 0.  1.
    9900012    2    1    2    0    0 -0.40383326737E+02 -0.15894553891E+02  0.41740851734E+00  0.47787260932E+02  0.19999953894E+02 0.  0.
        -12    1    1    2    0    0  0.40383326737E+02  0.15894553891E+02 -0.41740851734E+00  0.43400739068E+02  0.00000000000E+00 0.  1.
         11    1    3    3    0    0 -0.28342893187E+02 -0.11023692841E+02  0.19998766001E+00  0.30411862708E+02  0.51100000000E-03 0. -1.
        -11    1    3    3    0    0  0.13360184978E+01 -0.15731231281E+01  0.26773879840E+01  0.33805426311E+01  0.51100000000E-03 0.  1.
        -12    1    3    3    0    0 -0.13376452048E+02 -0.32977379220E+01 -0.24599671267E+01  0.13994855593E+02  0.00000000000E+00 0.  1.
</event>
<event>
 7    1  0.2430096E-009  0.4778727E+02  0.7816164E-02  0.1312668E+00
        -11   -1    0    0    0    0  0.00000000000E+00  0.00000000000E+00  0.45593999997E+02  0.45594000000E+02  0.51100000000E-03 0. -1.
         11   -1    0    0    0    0 -0.00000000000E+00 -0.00000000000E+00 -0.45593999997E+02  0.45594000000E+02  0.51100000000E-03 0.  1.
    9900012    2    1    2    0    0 -0.12236437710E+01  0.36259400892E+02  0.23819773445E+02  0.47787273461E+02  0.20000011017E+02 0.  0.
        -12    1    1    2    0    0  0.12236437710E+01 -0.36259400892E+02 -0.23819773445E+02  0.43400726539E+02  0.00000000000E+00 0.  1.
         11    1    3    3    0    0 -0.92410005490E+01  0.16999660783E+02  0.14474238131E+02  0.24163777180E+02  0.51100000000E-03 0. -1.
        -11    1    3    3    0    0  0.64321075179E+01  0.18912328959E+02  0.92036360524E+01  0.21994433628E+02  0.51100000000E-03 0.  1.
         12    1    3    3    0    0  0.15852492601E+01  0.34741114982E+00  0.14189926188E+00  0.16290626520E+01  0.00000000000E+00 0. -1.
</event>
<event>
 7    1  0.2430096E-009  0.4778727E+02  0.7816164E-02  0.1312668E+00
        -11   -1    0    0    0    0  0.00000000000E+00  0.00000000000E+00  0.45593999997E+02  0.45594000000E+02  0.51100000000E-03 0. -1.
         11   -1    0    0    0    0 -0.00000000000E+00 -0.00000000000E+00 -0.45593999997E+02  0.45594000000E+02  0.51100000000E-03 0.  1.
    9900012    2    1    2    0    0  0.41478585150E+02 -0.12454961256E+02  0.28327219320E+01  0.47787269598E+02  0.19999993405E+02 0.  0.
        -12    1    1    2    0    0 -0.41478585150E+02  0.12454961256E+02 -0.28327219320E+01  0.43400730402E+02  0.00000000000E+00 0.  1.
         11    1    3    3    0    0  0.48515233799E+01 -0.46880320980E+01 -0.50509341751E+01  0.84277434916E+01  0.51100000000E-03 0. -1.
        -11    1    3    3    0    0  0.75529677408E+00  0.13306361232E+01  0.43137987225E-01  0.15306622281E+01  0.51100000000E-03 0.  1.
         12    1    3    3    0    0  0.35871764996E+02 -0.90975652807E+01  0.78405181199E+01  0.37828863878E+02  0.00000000000E+00 0. -1.
</event>
<event>
 7    1  0.2430096E-009  0.4778727E+02  0.7816164E-02  0.1312668E+00
        -11   -1    0    0    0    0  0.00000000000E+00  0.00000000000E+00  0.45593999997E+02  0.45594000000E+02  0.51100000000E-03 0. -1.
         11   -1    0    0    0    0 -0.00000000000E+00 -0.00000000000E+00 -0.45593999997E+02  0.45594000000E+02  0.51100000000E-03 0.  1.
    9900012    2    1    2    0    0  0.38290948823E+02  0.17686180202E+02  0.10228665909E+02  0.47787270303E+02  0.19999996621E+02 0.  0.
        -12    1    1    2    0    0 -0.38290948823E+02 -0.17686180202E+02 -0.10228665909E+02  0.43400729697E+02  0.00000000000E+00 0.  1.
         11    1    3    3    0    0  0.12260321590E+02  0.15750819958E+02  0.23936829523E+01  0.20103072730E+02  0.51100000000E-03 0. -1.
        -11    1    3    3    0    0  0.19789877993E+02  0.30902447428E+01  0.72862722989E+01  0.21313813545E+02  0.51100000000E-03 0.  1.
         12    1    3    3    0    0  0.62407492402E+01 -0.11548844989E+01  0.54871065743E+00  0.63703840285E+01  0.00000000000E+00 0. -1.
</event>
<event>
 7    1  0.2430096E-009  0.4778728E+02  0.7816164E-02  0.1312668E+00
        -11   -1    0    0    0    0  0.00000000000E+00  0.00000000000E+00  0.45593999997E+02  0.45594000000E+02  0.51100000000E-03 0. -1.
         11   -1    0    0    0    0 -0.00000000000E+00 -0.00000000000E+00 -0.45593999997E+02  0.45594000000E+02  0.51100000000E-03 0.  1.
    9900012    2    1    2    0    0  0.29638211361E+02 -0.16688479595E+02  0.26957261731E+02  0.47787275537E+02  0.20000020484E+02 0.  0.
        -12    1    1    2    0    0 -0.29638211361E+02  0.16688479595E+02 -0.26957261731E+02  0.43400724463E+02  0.00000000000E+00 0.  1.
         11    1    3    3    0    0  0.14752259788E+02 -0.11626177717E+02  0.65639998024E+01  0.19896815595E+02  0.51100000000E-03 0. -1.
        -11    1    3    3    0    0  0.91440626054E+01 -0.80706043800E+01  0.10671901454E+02  0.16206110480E+02  0.51100000000E-03 0.  1.
         12    1    3    3    0    0  0.57418889671E+01  0.30083025022E+01  0.97213604748E+01  0.11684349461E+02  0.00000000000E+00 0. -1.
</event>
<event>
 7    1  0.2430096E-009  0.4778727E+02  0.7816164E-02  0.1312668E+00
        -11   -1    0    0    0    0  0.00000000000E+00  0.00000000000E+00  0.45593999997E+02  0.45594000000E+02  0.51100000000E-03 0. -1.
         11   -1    0    0    0    0 -0.00000000000E+00 -0.00000000000E+00 -0.45593999997E+02  0.45594000000E+02  0.51100000000E-03 0.  1.
    9900012    2    1    2    0    0 -0.76396033045E+01  0.41076952217E+02  0.11744946874E+02  0.47787270522E+02  0.19999997619E+02 0.  0.
        -12    1    1    2    0    0  0.76396033045E+01 -0.41076952217E+02 -0.11744946874E+02  0.43400729478E+02  0.00000000000E+00 0.  1.
         11    1    3    3    0    0 -0.13363750899E+02  0.29439962348E+02  0.73529048986E+01  0.33156695128E+02  0.51100000000E-03 0. -1.
        -11    1    3    3    0    0  0.43260671508E+01  0.31438335250E+01  0.17467046524E+01  0.56257909337E+01  0.51100000000E-03 0.  1.
         12    1    3    3    0    0  0.13980804436E+01  0.84931563449E+01  0.26453373230E+01  0.90047844604E+01  0.00000000000E+00 0. -1.
</event>
<event>
 7    1  0.2430096E-009  0.4778728E+02  0.7816164E-02  0.1312668E+00
        -11   -1    0    0    0    0  0.00000000000E+00  0.00000000000E+00  0.45593999997E+02  0.45594000000E+02  0.51100000000E-03 0.  1.
         11   -1    0    0    0    0 -0.00000000000E+00 -0.00000000000E+00 -0.45593999997E+02  0.45594000000E+02  0.51100000000E-03 0. -1.
    9900012    2    1    2    0    0 -0.20001755301E+02  0.36632357674E+02 -0.11900546301E+02  0.47787275972E+02  0.20000022467E+02 0.  0.
        -12    1    1    2    0    0  0.20001755301E+02 -0.36632357674E+02  0.11900546301E+02  0.43400724028E+02  0.00000000000E+00 0.  1.
         11    1    3    3    0    0 -0.70944175178E+01  0.11407640251E+02 -0.13203487635E+02  0.18836058558E+02  0.51100000000E-03 0. -1.
        -11    1    3    3    0    0 -0.43891972786E+01  0.52694638499E+01  0.22935321085E+01  0.72313616844E+01  0.51100000000E-03 0.  1.
         12    1    3    3    0    0 -0.85181405044E+01  0.19955253573E+02 -0.99059077403E+00  0.21719855729E+02  0.00000000000E+00 0. -1.
</event>
<event>
 7    1  0.2430096E-009  0.4778727E+02  0.7816164E-02  0.1312668E+00
        -11   -1    0    0    0    0  0.00000000000E+00  0.00000000000E+00  0.45593999997E+02  0.45594000000E+02  0.51100000000E-03 0.  1.
         11   -1    0    0    0    0 -0.00000000000E+00 -0.00000000000E+00 -0.45593999997E+02  0.45594000000E+02  0.51100000000E-03 0. -1.
    9900012    2    1    2    0    0  0.35157728485E+02  0.25335971368E+02  0.23761902265E+01  0.47787267317E+02  0.19999983006E+02 0.  0.
        -12    1    1    2    0    0 -0.35157728485E+02 -0.25335971368E+02 -0.23761902265E+01  0.43400732683E+02  0.00000000000E+00 0.  1.
         11    1    3    3    0    0  0.89687861118E+01  0.26140534439E+01 -0.47146808785E+01  0.10464254191E+02  0.51100000000E-03 0. -1.
        -11    1    3    3    0    0  0.25481322578E+02  0.22364295359E+02  0.91498527951E+01  0.35116652939E+02  0.51100000000E-03 0.  1.
        -12    1    3    3    0    0  0.70761979589E+00  0.35762256470E+00 -0.20589816902E+01  0.22063601870E+01  0.00000000000E+00 0.  1.
</event>
<event>
 7    1  0.2430096E-009  0.4778727E+02  0.7816164E-02  0.1312668E+00
        -11   -1    0    0    0    0  0.00000000000E+00  0.00000000000E+00  0.45593999997E+02  0.45594000000E+02  0.51100000000E-03 0.  1.
         11   -1    0    0    0    0 -0.00000000000E+00 -0.00000000000E+00 -0.45593999997E+02  0.45594000000E+02  0.51100000000E-03 0. -1.
    9900012    2    1    2    0    0 -0.11268261347E+02 -0.47299963406E+01 -0.41644649404E+02  0.47787269555E+02  0.19999993208E+02 0.  0.
        -12    1    1    2    0    0  0.11268261347E+02  0.47299963406E+01  0.41644649404E+02  0.43400730445E+02  0.00000000000E+00 0.  1.
         11    1    3    3    0    0 -0.77320075122E+00  0.13961228910E+01 -0.31066626881E+02  0.31107592394E+02  0.51100000000E-03 0. -1.
        -11    1    3    3    0    0 -0.10141234936E+02 -0.60680253019E+01 -0.10986642548E+02  0.16136043252E+02  0.51100000000E-03 0.  1.
         12    1    3    3    0    0 -0.35382566031E+00 -0.58093929718E-01  0.40862002474E+00  0.54363390915E+00  0.00000000000E+00 0. -1.
</event>
<event>
 7    1  0.2430096E-009  0.4778726E+02  0.7816164E-02  0.1312668E+00
        -11   -1    0    0    0    0  0.00000000000E+00  0.00000000000E+00  0.45593999997E+02  0.45594000000E+02  0.51100000000E-03 0. -1.
         11   -1    0    0    0    0 -0.00000000000E+00 -0.00000000000E+00 -0.45593999997E+02  0.45594000000E+02  0.51100000000E-03 0.  1.
    9900012    2    1    2    0    0 -0.35561619433E+02  0.24558144122E+02  0.39865712653E+01  0.47787263026E+02  0.19999963440E+02 0.  0.
        -12    1    1    2    0    0  0.35561619433E+02 -0.24558144122E+02 -0.39865712653E+01  0.43400736974E+02  0.00000000000E+00 0.  1.
         11    1    3    3    0    0 -0.13451040296E+02  0.14152981317E+02  0.57700921171E+01  0.20360042449E+02  0.51100000000E-03 0. -1.
        -11    1    3    3    0    0 -0.19835426461E+02  0.39708420868E+01  0.48663525712E+00  0.20234834911E+02  0.51100000000E-03 0.  1.
         12    1    3    3    0    0 -0.22751526766E+01  0.64343207183E+01 -0.22701561089E+01  0.71923856659E+01  0.00000000000E+00 0. -1.
</event>
<event>
 7    1  0.2430096E-009  0.4778727E+02  0.7816164E-02  0.1312668E+00
        -11   -1    0    0    0    0  0.00000000000E+00  0.00000000000E+00  0.45593999997E+02  0.45594000000E+02  0.51100000000E-03 0.  1.
         11   -1    0    0    0    0 -0.00000000000E+00 -0.00000000000E+00 -0.45593999997E+02  0.45594000000E+02  0.51100000000E-03 0. -1.
    9900012    2    1    2    0    0  0.36476503781E+02  0.64618303866E+01 -0.22612666065E+02  0.47787271359E+02  0.20000001433E+02 0.  0.
        -12    1    1    2    0    0 -0.36476503781E+02 -0.64618303866E+01  0.22612666065E+02  0.43400728641E+02  0.00000000000E+00 0.  1.
         11    1    3    3    0    0  0.22860112996E+02  0.42534289504E+01 -0.24310499725E+02  0.33640404593E+02  0.51100000000E-03 0. -1.
        -11    1    3    3    0    0  0.79919700956E+01  0.20297946259E+01 -0.77934902980E-01  0.82460733893E+01  0.51100000000E-03 0.  1.
         12    1    3    3    0    0  0.56244206889E+01  0.17860681027E+00  0.17757685634E+01  0.59007933762E+01  0.00000000000E+00 0. -1.
</event>
<event>
 7    1  0.2430096E-009  0.4778727E+02  0.7816164E-02  0.1312668E+00
        -11   -1    0    0    0    0  0.00000000000E+00  0.00000000000E+00  0.45593999997E+02  0.45594000000E+02  0.51100000000E-03 0. -1.
         11   -1    0    0    0    0 -0.00000000000E+00 -0.00000000000E+00 -0.45593999997E+02  0.45594000000E+02  0.51100000000E-03 0.  1.
    9900012    2    1    2    0    0 -0.30816410723E+02  0.70436303753E+01 -0.29738176399E+02  0.47787273805E+02  0.20000012587E+02 0.  0.
        -12    1    1    2    0    0  0.30816410723E+02 -0.70436303753E+01  0.29738176399E+02  0.43400726195E+02  0.00000000000E+00 0.  1.
         11    1    3    3    0    0 -0.29047301883E+02  0.27143137675E+01 -0.25816981398E+02  0.38956768021E+02  0.51100000000E-03 0. -1.
        -11    1    3    3    0    0 -0.15914456892E+00  0.54730552950E+01 -0.14442564739E+01  0.56626441067E+01  0.51100000000E-03 0.  1.
        -12    1    3    3    0    0 -0.16099642711E+01 -0.11437386873E+01 -0.24769385271E+01  0.31678616772E+01  0.00000000000E+00 0.  1.
</event>
<event>
 7    1  0.2430096E-009  0.4778726E+02  0.7816164E-02  0.1312668E+00
        -11   -1    0    0    0    0  0.00000000000E+00  0.00000000000E+00  0.45593999997E+02  0.45594000000E+02  0.51100000000E-03 0.  1.
         11   -1    0    0    0    0 -0.00000000000E+00 -0.00000000000E+00 -0.45593999997E+02  0.45594000000E+02  0.51100000000E-03 0. -1.
    9900012    2    1    2    0    0  0.51843524869E+01  0.11382239174E+02 -0.41559495708E+02  0.47787256195E+02  0.19999932297E+02 0.  0.
        -12    1    1    2    0    0 -0.51843524869E+01 -0.11382239174E+02  0.41559495708E+02  0.43400743805E+02  0.00000000000E+00 0.  1.
         11    1    3    3    0    0 -0.17522963487E+01  0.48336749943E+01 -0.18031257602E+02  0.18749965531E+02  0.51100000000E-03 0. -1.
        -11    1    3    3    0    0  0.10207473799E+02  0.80973069288E+00 -0.12238232378E+02  0.15956895599E+02  0.51100000000E-03 0.  1.
        -12    1    3    3    0    0 -0.32708249637E+01  0.57388334865E+01 -0.11290005727E+02  0.13080395065E+02  0.00000000000E+00 0.  1.
</event>
<event>
 7    1  0.2430096E-009  0.4778728E+02  0.7816164E-02  0.1312668E+00
        -11   -1    0    0    0    0  0.00000000000E+00  0.00000000000E+00  0.45593999997E+02  0.45594000000E+02  0.51100000000E-03 0.  1.
         11   -1    0    0    0    0 -0.00000000000E+00 -0.00000000000E+00 -0.45593999997E+02  0.45594000000E+02  0.51100000000E-03 0. -1.
    9900012    2    1    2    0    0  0.60923344342E+01 -0.20003204249E+02 -0.38031278154E+02  0.47787276076E+02  0.20000022941E+02 0.  0.
        -12    1    1    2    0    0 -0.60923344342E+01  0.20003204249E+02  0.38031278154E+02  0.43400723924E+02  0.00000000000E+00 0.  1.
         11    1    3    3    0    0 -0.28484743390E+01 -0.38787267104E+00 -0.72085229751E+01  0.77606091908E+01  0.51100000000E-03 0. -1.
        -11    1    3    3    0    0  0.45833611403E+01 -0.13355996168E+02 -0.86039474444E+01  0.16535348344E+02  0.51100000000E-03 0.  1.
        -12    1    3    3    0    0  0.43574476328E+01 -0.62593354102E+01 -0.22218807735E+02  0.23491318541E+02  0.00000000000E+00 0.  1.
</event>
<event>
 7    1  0.2430096E-009  0.4778732E+02  0.7816164E-02  0.1312668E+00
        -11   -1    0    0    0    0  0.00000000000E+00  0.00000000000E+00  0.45593999997E+02  0.45594000000E+02  0.51100000000E-03 0. -1.
         11   -1    0    0    0    0 -0.00000000000E+00 -0.00000000000E+00 -0.45593999997E+02  0.45594000000E+02  0.51100000000E-03 0.  1.
    9900012    2    1    2    0    0  0.39327217470E+02  0.18310131037E+02  0.13146936984E+01  0.47787316226E+02  0.20000206001E+02 0.  0.
        -12    1    1    2    0    0 -0.39327217470E+02 -0.18310131037E+02 -0.13146936984E+01  0.43400683774E+02  0.00000000000E+00 0.  1.
         11    1    3    3    0    0  0.14758538489E+02  0.84360725510E+01 -0.71026551062E+01  0.18423612247E+02  0.51100000000E-03 0. -1.
        -11    1    3    3    0    0 -0.40650682093E-03  0.10476188118E+00 -0.12181121868E+01  0.12226090045E+01  0.51100000000E-03 0.  1.
         12    1    3    3    0    0  0.24569085488E+02  0.97692966048E+01  0.96354609914E+01  0.28141094975E+02  0.00000000000E+00 0. -1.
</event>
<event>
 7    1  0.2430096E-009  0.4778727E+02  0.7816164E-02  0.1312668E+00
        -11   -1    0    0    0    0  0.00000000000E+00  0.00000000000E+00  0.45593999997E+02  0.45594000000E+02  0.51100000000E-03 0.  1.
         11   -1    0    0    0    0 -0.00000000000E+00 -0.00000000000E+00 -0.45593999997E+02  0.45594000000E+02  0.51100000000E-03 0. -1.
    9900012    2    1    2    0    0 -0.43152206845E+02  0.30929611182E+00  0.46275756960E+01  0.47787273318E+02  0.20000010368E+02 0.  0.
        -12    1    1    2    0    0  0.43152206845E+02 -0.30929611182E+00 -0.46275756960E+01  0.43400726682E+02  0.00000000000E+00 0.  1.
         11    1    3    3    0    0 -0.36388187534E+02 -0.38366947873E+01  0.91826841605E+00  0.36601415765E+02  0.51100000000E-03 0. -1.
        -11    1    3    3    0    0  0.85051300113E+00  0.15286570499E+01  0.24887843515E+01  0.30420737254E+01  0.51100000000E-03 0.  1.
        -12    1    3    3    0    0 -0.76145323125E+01  0.26173338492E+01  0.12205229284E+01  0.81437838278E+01  0.00000000000E+00 0.  1.
</event>
<event>
 7    1  0.2552128E-009  0.4778727E+02  0.7816164E-02  0.1312668E+00
        -11   -1    0    0    0    0  0.00000000000E+00  0.00000000000E+00  0.45593999997E+02  0.45594000000E+02  0.51100000000E-03 0.  1.
         11   -1    0    0    0    0 -0.00000000000E+00 -0.00000000000E+00 -0.45593999997E+02  0.45594000000E+02  0.51100000000E-03 0. -1.
    9900012    2    1    2    0    0  0.42881984142E+02 -0.64606002825E+01 -0.17375839443E+01  0.47787272841E+02  0.20000008193E+02 0.  0.
        -12    1    1    2    0    0 -0.42881984142E+02  0.64606002825E+01  0.17375839443E+01  0.43400727159E+02  0.00000000000E+00 0.  1.
         11    1    3    3    0    0  0.26240169034E+02  0.14463145643E+01 -0.36399018835E+01  0.26530872257E+02  0.51100000000E-03 0. -1.
        -11    1    3    3    0    0  0.36657500059E+00 -0.99578715051E+00  0.33513203076E+01  0.35152976184E+01  0.51100000000E-03 0.  1.
        -12    1    3    3    0    0  0.16275240107E+02 -0.69111276964E+01 -0.14490023685E+01  0.17741102966E+02  0.00000000000E+00 0.  1.
</event>
<event>
 7    1  0.2430096E-009  0.4778727E+02  0.7816164E-02  0.1312668E+00
        -11   -1    0    0    0    0  0.00000000000E+00  0.00000000000E+00  0.45593999997E+02  0.45594000000E+02  0.51100000000E-03 0. -1.
         11   -1    0    0    0    0 -0.00000000000E+00 -0.00000000000E+00 -0.45593999997E+02  0.45594000000E+02  0.51100000000E-03 0.  1.
    9900012    2    1    2    0    0  0.52882889154E+01 -0.67776486500E+01  0.42540811319E+02  0.47787272488E+02  0.20000006581E+02 0.  0.
        -12    1    1    2    0    0 -0.52882889154E+01  0.67776486500E+01 -0.42540811319E+02  0.43400727512E+02  0.00000000000E+00 0.  1.
         11    1    3    3    0    0 -0.70013468256E+00 -0.12612853624E+00  0.23505086957E+02  0.23515850189E+02  0.51100000000E-03 0. -1.
        -11    1    3    3    0    0  0.58994605322E+01 -0.38923863722E+01  0.24848636848E+01  0.74919192491E+01  0.51100000000E-03 0.  1.
        -12    1    3    3    0    0  0.88963065674E-01 -0.27591337416E+01  0.16550860678E+02  0.16779503050E+02  0.00000000000E+00 0.  1.
</event>
<event>
 7    1  0.2430096E-009  0.4778727E+02  0.7816164E-02  0.1312668E+00
        -11   -1    0    0    0    0  0.00000000000E+00  0.00000000000E+00  0.45593999997E+02  0.45594000000E+02  0.51100000000E-03 0.  1.
         11   -1    0    0    0    0 -0.00000000000E+00 -0.00000000000E+00 -0.45593999997E+02  0.45594000000E+02  0.51100000000E-03 0. -1.
    9900012    2    1    2    0    0  0.27102733046E+02  0.31580730355E+02  0.12317574559E+02  0.47787270613E+02  0.19999998032E+02 0.  0.
        -12    1    1    2    0    0 -0.27102733046E+02 -0.31580730355E+02 -0.12317574559E+02  0.43400729387E+02  0.00000000000E+00 0.  1.
         11    1    3    3    0    0  0.65294330837E+01  0.14236869192E+02 -0.23676028565E+01  0.15840690778E+02  0.51100000000E-03 0. -1.
        -11    1    3    3    0    0  0.16051039258E+02  0.16757997343E+02  0.14540636515E+02  0.27384237194E+02  0.51100000000E-03 0.  1.
        -12    1    3    3    0    0  0.45222607043E+01  0.58586382040E+00  0.14454090052E+00  0.45623426401E+01  0.00000000000E+00 0.  1.
</event>
<event>
 7    1  0.2430096E-009  0.4778728E+02  0.7816164E-02  0.1312668E+00
        -11   -1    0    0    0    0  0.00000000000E+00  0.00000000000E+00  0.45593999997E+02  0.45594000000E+02  0.51100000000E-03 0. -1.
         11   -1    0    0    0    0 -0.00000000000E+00 -0.00000000000E+00 -0.45593999997E+02  0.45594000000E+02  0.51100000000E-03 0.  1.
    9900012    2    1    2    0    0 -0.36420794433E+02  0.95929934197E+01  0.21566694592E+02  0.47787284504E+02  0.20000061369E+02 0.  0.
        -12    1    1    2    0    0  0.36420794433E+02 -0.95929934197E+01 -0.21566694592E+02  0.43400715496E+02  0.00000000000E+00 0.  1.
         11    1    3    3    0    0 -0.13556127348E+02  0.92181308095E+01  0.16122087464E+02  0.22992699467E+02  0.51100000000E-03 0. -1.
        -11    1    3    3    0    0 -0.21865355311E+02  0.12040821898E+01  0.67877691469E+01  0.22926347006E+02  0.51100000000E-03 0.  1.
        -12    1    3    3    0    0 -0.99931177424E+00 -0.82921957958E+00 -0.13431620190E+01  0.18682380316E+01  0.00000000000E+00 0.  1.
</event>
<event>
 7    1  0.2430096E-009  0.4778728E+02  0.7816164E-02  0.1312668E+00
        -11   -1    0    0    0    0  0.00000000000E+00  0.00000000000E+00  0.45593999997E+02  0.45594000000E+02  0.51100000000E-03 0.  1.
         11   -1    0    0    0    0 -0.00000000000E+00 -0.00000000000E+00 -0.45593999997E+02  0.45594000000E+02  0.51100000000E-03 0. -1.
    9900012    2    1    2    0    0  0.13554926389E+02 -0.21580857696E+02 -0.35130517679E+02  0.47787277417E+02  0.20000029055E+02 0.  0.
        -12    1    1    2    0    0 -0.13554926389E+02  0.21580857696E+02  0.35130517679E+02  0.43400722583E+02  0.00000000000E+00 0.  1.
         11    1    3    3    0    0 -0.45189130505E+01 -0.55897770639E+01 -0.79126867644E+01  0.10690032501E+02  0.51100000000E-03 0. -1.
        -11    1    3    3    0    0  0.15261841245E+02 -0.11922896312E+02 -0.17101524356E+02  0.25836822370E+02  0.51100000000E-03 0.  1.
         12    1    3    3    0    0  0.28119981948E+01 -0.40681843206E+01 -0.10116306559E+02  0.11260422546E+02  0.00000000000E+00 0. -1.
</event>
<event>
 7    1  0.2430096E-009  0.4778726E+02  0.7816164E-02  0.1312668E+00
        -11   -1    0    0    0    0  0.00000000000E+00  0.00000000000E+00  0.45593999997E+02  0.45594000000E+02  0.51100000000E-03 0.  1.
         11   -1    0    0    0    0 -0.00000000000E+00 -0.00000000000E+00 -0.45593999997E+02  0.45594000000E+02  0.51100000000E-03 0. -1.
    9900012    2    1    2    0    0 -0.42205202764E+02  0.91599224017E+01 -0.42942602643E+01  0.47787262795E+02  0.19999962387E+02 0.  0.
        -12    1    1    2    0    0  0.42205202764E+02 -0.91599224017E+01  0.42942602643E+01  0.43400737205E+02  0.00000000000E+00 0.  1.
         11    1    3    3    0    0 -0.23695139774E+02  0.21217894947E+01  0.34464831224E+01  0.24038300392E+02  0.51100000000E-03 0. -1.
        -11    1    3    3    0    0 -0.82233104358E+01 -0.10400893285E+01 -0.66449872009E+01  0.10623581105E+02  0.51100000000E-03 0.  1.
        -12    1    3    3    0    0 -0.10286752554E+02  0.80782222356E+01 -0.10957561858E+01  0.13125381298E+02  0.00000000000E+00 0.  1.
</event>
<event>
 7    1  0.2430096E-009  0.4778726E+02  0.7816164E-02  0.1312668E+00
        -11   -1    0    0    0    0  0.00000000000E+00  0.00000000000E+00  0.45593999997E+02  0.45594000000E+02  0.51100000000E-03 0.  1.
         11   -1    0    0    0    0 -0.00000000000E+00 -0.00000000000E+00 -0.45593999997E+02  0.45594000000E+02  0.51100000000E-03 0. -1.
    9900012    2    1    2    0    0 -0.89122048092E+01 -0.38274429204E+02 -0.18419136917E+02  0.47787263483E+02  0.19999965523E+02 0.  0.
        -12    1    1    2    0    0  0.89122048092E+01  0.38274429204E+02  0.18419136917E+02  0.43400736517E+02  0.00000000000E+00 0.  1.
         11    1    3    3    0    0  0.29521971661E+01 -0.10376952322E+02 -0.10024632797E+02  0.14727181352E+02  0.51100000000E-03 0. -1.
        -11    1    3    3    0    0 -0.52588995651E+01 -0.83193516471E+01 -0.75075221680E+01  0.12378631824E+02  0.51100000000E-03 0.  1.
         12    1    3    3    0    0 -0.66055024102E+01 -0.19578125235E+02 -0.88698195236E+00  0.20681450307E+02  0.00000000000E+00 0. -1.
</event>
<event>
 7    1  0.2430096E-009  0.4778726E+02  0.7816164E-02  0.1312668E+00
        -11   -1    0    0    0    0  0.00000000000E+00  0.00000000000E+00  0.45593999997E+02  0.45594000000E+02  0.51100000000E-03 0.  1.
         11   -1    0    0    0    0 -0.00000000000E+00 -0.00000000000E+00 -0.45593999997E+02  0.45594000000E+02  0.51100000000E-03 0. -1.
    9900012    2    1    2    0    0  0.28570932797E+02  0.30618625240E+01 -0.32526164342E+02  0.47787256115E+02  0.19999931928E+02 0.  0.
        -12    1    1    2    0    0 -0.28570932797E+02 -0.30618625240E+01  0.32526164342E+02  0.43400743885E+02  0.00000000000E+00 0.  1.
         11    1    3    3    0    0 -0.56458789218E+00  0.18862939206E+00 -0.40019976647E+01  0.40460259644E+01  0.51100000000E-03 0. -1.
        -11    1    3    3    0    0  0.93359870270E+01  0.28526909097E+00 -0.53009645256E+00  0.93553746442E+01  0.51100000000E-03 0.  1.
        -12    1    3    3    0    0  0.19799533662E+02  0.25879640410E+01 -0.27994070225E+02  0.34385855506E+02  0.00000000000E+00 0.  1.
</event>
<event>
 7    1  0.2430096E-009  0.4778727E+02  0.7816164E-02  0.1312668E+00
        -11   -1    0    0    0    0  0.00000000000E+00  0.00000000000E+00  0.45593999997E+02  0.45594000000E+02  0.51100000000E-03 0. -1.
         11   -1    0    0    0    0 -0.00000000000E+00 -0.00000000000E+00 -0.45593999997E+02  0.45594000000E+02  0.51100000000E-03 0.  1.
    9900012    2    1    2    0    0 -0.27950732186E+01  0.22411134529E+02  0.37061457490E+02  0.47787274010E+02  0.20000013522E+02 0.  0.
        -12    1    1    2    0    0  0.27950732186E+01 -0.22411134529E+02 -0.37061457490E+02  0.43400725990E+02  0.00000000000E+00 0.  1.
         11    1    3    3    0    0 -0.10331598670E+02  0.15211164213E+02  0.28057294934E+02  0.33545987048E+02  0.51100000000E-03 0. -1.
        -11    1    3    3    0    0  0.38330990992E+01  0.60361153457E+01  0.57345857740E+01  0.91658502841E+01  0.51100000000E-03 0.  1.
         12    1    3    3    0    0  0.37034263519E+01  0.11638549705E+01  0.32695767823E+01  0.50754366779E+01  0.00000000000E+00 0. -1.
</event>
<event>
 7    1  0.2430096E-009  0.4778727E+02  0.7816164E-02  0.1312668E+00
        -11   -1    0    0    0    0  0.00000000000E+00  0.00000000000E+00  0.45593999997E+02  0.45594000000E+02  0.51100000000E-03 0.  1.
         11   -1    0    0    0    0 -0.00000000000E+00 -0.00000000000E+00 -0.45593999997E+02  0.45594000000E+02  0.51100000000E-03 0. -1.
    9900012    2    1    2    0    0  0.41129277988E+02  0.86698878582E+01 -0.10809193216E+02  0.47787272803E+02  0.20000008017E+02 0.  0.
        -12    1    1    2    0    0 -0.41129277988E+02 -0.86698878582E+01  0.10809193216E+02  0.43400727197E+02  0.00000000000E+00 0.  1.
         11    1    3    3    0    0  0.13984629052E+02  0.28380954437E+01  0.39095914938E+01  0.14795591958E+02  0.51100000000E-03 0. -1.
        -11    1    3    3    0    0  0.10371117229E+02  0.11324478507E+01 -0.11037042138E+02  0.15187455684E+02  0.51100000000E-03 0.  1.
         12    1    3    3    0    0  0.16773531706E+02  0.46993445638E+01 -0.36817425714E+01  0.17804225161E+02  0.00000000000E+00 0. -1.
</event>
<event>
 7    1  0.2430096E-009  0.4778727E+02  0.7816164E-02  0.1312668E+00
        -11   -1    0    0    0    0  0.00000000000E+00  0.00000000000E+00  0.45593999997E+02  0.45594000000E+02  0.51100000000E-03 0. -1.
         11   -1    0    0    0    0 -0.00000000000E+00 -0.00000000000E+00 -0.45593999997E+02  0.45594000000E+02  0.51100000000E-03 0.  1.
    9900012    2    1    2    0    0 -0.43858037680E+00 -0.37893107450E+02  0.21155222634E+02  0.47787269711E+02  0.19999993920E+02 0.  0.
        -12    1    1    2    0    0  0.43858037680E+00  0.37893107450E+02 -0.21155222634E+02  0.43400730289E+02  0.00000000000E+00 0.  1.
         11    1    3    3    0    0 -0.51298901856E+01 -0.27695995258E+02  0.12916337454E+02  0.30987347420E+02  0.51100000000E-03 0. -1.
        -11    1    3    3    0    0  0.52818633447E+01 -0.41837822513E+01  0.83837842519E+01  0.10755926411E+02  0.51100000000E-03 0.  1.
        -12    1    3    3    0    0 -0.59055353593E+00 -0.60133299407E+01 -0.14489907254E+00  0.60439958799E+01  0.00000000000E+00 0.  1.
</event>
<event>
 7    1  0.2430096E-009  0.4778727E+02  0.7816164E-02  0.1312668E+00
        -11   -1    0    0    0    0  0.00000000000E+00  0.00000000000E+00  0.45593999997E+02  0.45594000000E+02  0.51100000000E-03 0.  1.
         11   -1    0    0    0    0 -0.00000000000E+00 -0.00000000000E+00 -0.45593999997E+02  0.45594000000E+02  0.51100000000E-03 0. -1.
    9900012    2    1    2    0    0 -0.73448025540E+01  0.37666930208E+02 -0.20270171212E+02  0.47787267323E+02  0.19999983034E+02 0.  0.
        -12    1    1    2    0    0  0.73448025540E+01 -0.37666930208E+02  0.20270171212E+02  0.43400732677E+02  0.00000000000E+00 0.  1.
         11    1    3    3    0    0  0.32540649038E+01  0.10571518958E+02 -0.10060304402E+02  0.14951778369E+02  0.51100000000E-03 0. -1.
        -11    1    3    3    0    0 -0.84837915122E+01  0.86667998858E+01 -0.11232698427E+01  0.12179896308E+02  0.51100000000E-03 0.  1.
        -12    1    3    3    0    0 -0.21150759456E+01  0.18428611365E+02 -0.90865969673E+01  0.20655592646E+02  0.00000000000E+00 0.  1.
</event>
<event>
 7    1  0.2430096E-009  0.4778727E+02  0.7816164E-02  0.1312668E+00
        -11   -1    0    0    0    0  0.00000000000E+00  0.00000000000E+00  0.45593999997E+02  0.45594000000E+02  0.51100000000E-03 0.  1.
         11   -1    0    0    0    0 -0.00000000000E+00 -0.00000000000E+00 -0.45593999997E+02  0.45594000000E+02  0.51100000000E-03 0. -1.
    9900012    2    1    2    0    0 -0.52030392359E+01  0.28753063417E+02 -0.32090700634E+02  0.47787270279E+02  0.19999996511E+02 0.  0.
        -12    1    1    2    0    0  0.52030392359E+01 -0.28753063417E+02  0.32090700634E+02  0.43400729721E+02  0.00000000000E+00 0.  1.
         11    1    3    3    0    0  0.38031493122E+01  0.12280776366E+02 -0.19053627426E+02  0.22985258998E+02  0.51100000000E-03 0. -1.
        -11    1    3    3    0    0 -0.78956575865E+01  0.17653977830E+02 -0.12726296669E+02  0.23150874046E+02  0.51100000000E-03 0.  1.
        -12    1    3    3    0    0 -0.11105309617E+01 -0.11816907785E+01 -0.31077653843E+00  0.16511372352E+01  0.00000000000E+00 0.  1.
</event>
<event>
 7    1  0.2430096E-009  0.4778727E+02  0.7816164E-02  0.1312668E+00
        -11   -1    0    0    0    0  0.00000000000E+00  0.00000000000E+00  0.45593999997E+02  0.45594000000E+02  0.51100000000E-03 0.  1.
         11   -1    0    0    0    0 -0.00000000000E+00 -0.00000000000E+00 -0.45593999997E+02  0.45594000000E+02  0.51100000000E-03 0. -1.
    9900012    2    1    2    0    0 -0.80502103056E+01 -0.35920562803E+02 -0.22989793207E+02  0.47787270631E+02  0.19999998117E+02 0.  0.
        -12    1    1    2    0    0  0.80502103056E+01  0.35920562803E+02  0.22989793207E+02  0.43400729369E+02  0.00000000000E+00 0.  1.
         11    1    3    3    0    0 -0.37275810848E+01 -0.26241046238E+02 -0.10467846834E+02  0.28496722374E+02  0.51100000000E-03 0. -1.
        -11    1    3    3    0    0 -0.72817829734E+01 -0.47032634851E+01 -0.58554340593E+01  0.10460934899E+02  0.51100000000E-03 0.  1.
         12    1    3    3    0    0  0.29591537526E+01 -0.49762530792E+01 -0.66665123133E+01  0.88296133587E+01  0.00000000000E+00 0. -1.
</event>
<event>
 7    1  0.2430096E-009  0.4778727E+02  0.7816164E-02  0.1312668E+00
        -11   -1    0    0    0    0  0.00000000000E+00  0.00000000000E+00  0.45593999997E+02  0.45594000000E+02  0.51100000000E-03 0.  1.
         11   -1    0    0    0    0 -0.00000000000E+00 -0.00000000000E+00 -0.45593999997E+02  0.45594000000E+02  0.51100000000E-03 0. -1.
    9900012    2    1    2    0    0 -0.36484746947E+02 -0.18079207658E+02 -0.15020943362E+02  0.47787271334E+02  0.20000001319E+02 0.  0.
        -12    1    1    2    0    0  0.36484746947E+02  0.18079207658E+02  0.15020943362E+02  0.43400728666E+02  0.00000000000E+00 0.  1.
         11    1    3    3    0    0 -0.11236582100E+02 -0.18477598437E+01 -0.10820075160E+02  0.15708246893E+02  0.51100000000E-03 0. -1.
        -11    1    3    3    0    0 -0.79300860015E+01 -0.79611783551E+01  0.29183432888E+01  0.11609623276E+02  0.51100000000E-03 0.  1.
        -12    1    3    3    0    0 -0.17318078845E+02 -0.82702694590E+01 -0.71192114908E+01  0.20469401165E+02  0.00000000000E+00 0.  1.
</event>
<event>
 7    1  0.2430096E-009  0.4778727E+02  0.7816164E-02  0.1312668E+00
        -11   -1    0    0    0    0  0.00000000000E+00  0.00000000000E+00  0.45593999997E+02  0.45594000000E+02  0.51100000000E-03 0.  1.
         11   -1    0    0    0    0 -0.00000000000E+00 -0.00000000000E+00 -0.45593999997E+02  0.45594000000E+02  0.51100000000E-03 0. -1.
    9900012    2    1    2    0    0  0.22667279518E+01  0.86803174400E+01 -0.42463364757E+02  0.47787270594E+02  0.19999997947E+02 0.  0.
        -12    1    1    2    0    0 -0.22667279518E+01 -0.86803174400E+01  0.42463364757E+02  0.43400729406E+02  0.00000000000E+00 0.  1.
         11    1    3    3    0    0 -0.40612125780E+01  0.30979166125E+00 -0.69720191139E+01  0.80745569081E+01  0.51100000000E-03 0. -1.
        -11    1    3    3    0    0  0.36969353267E+01  0.10350372892E+02 -0.13187168441E+02  0.17166798233E+02  0.51100000000E-03 0.  1.
        -12    1    3    3    0    0  0.26310052030E+01 -0.19798471131E+01 -0.22304177202E+02  0.22545915454E+02  0.00000000000E+00 0.  1.
</event>
<event>
 7    1  0.2430096E-009  0.4778727E+02  0.7816164E-02  0.1312668E+00
        -11   -1    0    0    0    0  0.00000000000E+00  0.00000000000E+00  0.45593999997E+02  0.45594000000E+02  0.51100000000E-03 0.  1.
         11   -1    0    0    0    0 -0.00000000000E+00 -0.00000000000E+00 -0.45593999997E+02  0.45594000000E+02  0.51100000000E-03 0. -1.
    9900012    2    1    2    0    0  0.11624876699E+02  0.26354022269E+02 -0.32464611983E+02  0.47787270983E+02  0.19999999719E+02 0.  0.
        -12    1    1    2    0    0 -0.11624876699E+02 -0.26354022269E+02  0.32464611983E+02  0.43400729017E+02  0.00000000000E+00 0.  1.
         11    1    3    3    0    0  0.19513306616E+01  0.18187809049E+02 -0.13562674266E+02  0.22771697847E+02  0.51100000000E-03 0. -1.
        -11    1    3    3    0    0  0.22401329375E+01 -0.25006208162E+01 -0.33159206071E+01  0.47187529897E+01  0.51100000000E-03 0.  1.
        -12    1    3    3    0    0  0.74334130996E+01  0.10666834037E+02 -0.15586017110E+02  0.20296820146E+02  0.00000000000E+00 0.  1.
</event>
<event>
 7    1  0.2430096E-009  0.4778726E+02  0.7816164E-02  0.1312668E+00
        -11   -1    0    0    0    0  0.00000000000E+00  0.00000000000E+00  0.45593999997E+02  0.45594000000E+02  0.51100000000E-03 0.  1.
         11   -1    0    0    0    0 -0.00000000000E+00 -0.00000000000E+00 -0.45593999997E+02  0.45594000000E+02  0.51100000000E-03 0. -1.
    9900012    2    1    2    0    0  0.30010606577E+02  0.25180047069E+02 -0.18680288018E+02  0.47787257634E+02  0.19999938855E+02 0.  0.
        -12    1    1    2    0    0 -0.30010606577E+02 -0.25180047069E+02  0.18680288018E+02  0.43400742366E+02  0.00000000000E+00 0.  1.
         11    1    3    3    0    0  0.58243125389E+01  0.13167724653E+02 -0.83543453312E+01  0.16646521416E+02  0.51100000000E-03 0. -1.
        -11    1    3    3    0    0  0.64431813731E+01 -0.65370194536E+00  0.10340825415E+01  0.65582954648E+01  0.51100000000E-03 0.  1.
         12    1    3    3    0    0  0.17743112665E+02  0.12666024362E+02 -0.11360025229E+02  0.24582440753E+02  0.00000000000E+00 0. -1.
</event>
<event>
 7    1  0.2430096E-009  0.4778727E+02  0.7816164E-02  0.1312668E+00
        -11   -1    0    0    0    0  0.00000000000E+00  0.00000000000E+00  0.45593999997E+02  0.45594000000E+02  0.51100000000E-03 0.  1.
         11   -1    0    0    0    0 -0.00000000000E+00 -0.00000000000E+00 -0.45593999997E+02  0.45594000000E+02  0.51100000000E-03 0. -1.
    9900012    2    1    2    0    0  0.73916061695E+00  0.33432264273E+02 -0.27665155077E+02  0.47787268920E+02  0.19999990312E+02 0.  0.
        -12    1    1    2    0    0 -0.73916061695E+00 -0.33432264273E+02  0.27665155077E+02  0.43400731080E+02  0.00000000000E+00 0.  1.
         11    1    3    3    0    0 -0.74336508565E+00  0.25883644999E+01 -0.10841131300E+02  0.11170602068E+02  0.51100000000E-03 0. -1.
        -11    1    3    3    0    0  0.15660438888E+01  0.27752093318E+02 -0.18207237940E+02  0.33228522246E+02  0.51100000000E-03 0.  1.
        -12    1    3    3    0    0 -0.83518186220E-01  0.30918064550E+01  0.13832141631E+01  0.33881446049E+01  0.00000000000E+00 0.  1.
</event>
<event>
 7    1  0.2430096E-009  0.4778727E+02  0.7816164E-02  0.1312668E+00
        -11   -1    0    0    0    0  0.00000000000E+00  0.00000000000E+00  0.45593999997E+02  0.45594000000E+02  0.51100000000E-03 0.  1.
         11   -1    0    0    0    0 -0.00000000000E+00 -0.00000000000E+00 -0.45593999997E+02  0.45594000000E+02  0.51100000000E-03 0. -1.
    9900012    2    1    2    0    0  0.35433175358E+02  0.25116821447E+01 -0.24936016947E+02  0.47787269542E+02  0.19999993149E+02 0.  0.
        -12    1    1    2    0    0 -0.35433175358E+02 -0.25116821447E+01  0.24936016947E+02  0.43400730458E+02  0.00000000000E+00 0.  1.
         11    1    3    3    0    0  0.12329706700E+02  0.73272368558E+01 -0.10174769129E+02  0.17585107174E+02  0.51100000000E-03 0. -1.
        -11    1    3    3    0    0  0.80300270110E+01 -0.44726878170E+01 -0.11594409162E+02  0.14795830297E+02  0.51100000000E-03 0.  1.
        -12    1    3    3    0    0  0.15073441647E+02 -0.34286689424E+00 -0.31668386559E+01  0.15406332070E+02  0.00000000000E+00 0.  1.
</event>
<event>
 7    1  0.2430096E-009  0.4778726E+02  0.7816164E-02  0.1312668E+00
        -11   -1    0    0    0    0  0.00000000000E+00  0.00000000000E+00  0.45593999997E+02  0.45594000000E+02  0.51100000000E-03 0. -1.
         11   -1    0    0    0    0 -0.00000000000E+00 -0.00000000000E+00 -0.45593999997E+02  0.45594000000E+02  0.51100000000E-03 0.  1.
    9900012    2    1    2    0    0  0.33645082137E+02 -0.24452838418E+02  0.12397218928E+02  0.47787263879E+02  0.19999967329E+02 0.  0.
        -12    1    1    2    0    0 -0.33645082137E+02  0.24452838418E+02 -0.12397218928E+02  0.43400736121E+02  0.00000000000E+00 0.  1.
         11    1    3    3    0    0  0.14957446291E+02 -0.16712469373E+02  0.86090374311E+01  0.24023891397E+02  0.51100000000E-03 0. -1.
        -11    1    3    3    0    0  0.14816672418E+02 -0.12205768240E+01  0.57356694263E+01  0.15934914288E+02  0.51100000000E-03 0.  1.
         12    1    3    3    0    0  0.38709634276E+01 -0.65197922209E+01 -0.19474879294E+01  0.78284581941E+01  0.00000000000E+00 0. -1.
</event>
<event>
 7    1  0.2430096E-009  0.4778727E+02  0.7816164E-02  0.1312668E+00
        -11   -1    0    0    0    0  0.00000000000E+00  0.00000000000E+00  0.45593999997E+02  0.45594000000E+02  0.51100000000E-03 0.  1.
         11   -1    0    0    0    0 -0.00000000000E+00 -0.00000000000E+00 -0.45593999997E+02  0.45594000000E+02  0.51100000000E-03 0. -1.
    9900012    2    1    2    0    0 -0.35217501881E+02 -0.10107129504E+02  0.23263632960E+02  0.47787272771E+02  0.20000007872E+02 0.  0.
        -12    1    1    2    0    0  0.35217501881E+02  0.10107129504E+02 -0.23263632960E+02  0.43400727229E+02  0.00000000000E+00 0.  1.
         11    1    3    3    0    0 -0.17887017928E+02  0.13684837679E+01  0.49358687794E+01  0.18605938811E+02  0.51100000000E-03 0. -1.
        -11    1    3    3    0    0 -0.11153597575E+00 -0.38261569184E+01  0.24789763823E+01  0.45603992372E+01  0.51100000000E-03 0.  1.
         12    1    3    3    0    0 -0.17218947977E+02 -0.76494563539E+01  0.15848787798E+02  0.24620934723E+02  0.00000000000E+00 0. -1.
</event>
<event>
 7    1  0.2430096E-009  0.4778727E+02  0.7816164E-02  0.1312668E+00
        -11   -1    0    0    0    0  0.00000000000E+00  0.00000000000E+00  0.45593999997E+02  0.45594000000E+02  0.51100000000E-03 0.  1.
         11   -1    0    0    0    0 -0.00000000000E+00 -0.00000000000E+00 -0.45593999997E+02  0.45594000000E+02  0.51100000000E-03 0. -1.
    9900012    2    1    2    0    0  0.40779649438E+02 -0.14736174257E+02 -0.18678648719E+01  0.47787267757E+02  0.19999985013E+02 0.  0.
        -12    1    1    2    0    0 -0.40779649438E+02  0.14736174257E+02  0.18678648719E+01  0.43400732243E+02  0.00000000000E+00 0.  1.
         11    1    3    3    0    0  0.29828612674E+02 -0.11085015100E+02  0.51288011464E-02  0.31821749172E+02  0.51100000000E-03 0. -1.
        -11    1    3    3    0    0  0.87958150854E+00 -0.25519170194E+01  0.35614361411E+01  0.44687550562E+01  0.51100000000E-03 0.  1.
        -12    1    3    3    0    0  0.10071455255E+02 -0.10992421380E+01 -0.54344298142E+01  0.11496763529E+02  0.00000000000E+00 0.  1.
</event>
<event>
 7    1  0.2430096E-009  0.4778728E+02  0.7816164E-02  0.1312668E+00
        -11   -1    0    0    0    0  0.00000000000E+00  0.00000000000E+00  0.45593999997E+02  0.45594000000E+02  0.51100000000E-03 0. -1.
         11   -1    0    0    0    0 -0.00000000000E+00 -0.00000000000E+00 -0.45593999997E+02  0.45594000000E+02  0.51100000000E-03 0.  1.
    9900012    2    1    2    0    0  0.29784905112E+02 -0.31421853417E+02 -0.30246736982E+01  0.47787284618E+02  0.20000061886E+02 0.  0.
        -12    1    1    2    0    0 -0.29784905112E+02  0.31421853417E+02  0.30246736982E+01  0.43400715382E+02  0.00000000000E+00 0.  1.
         11    1    3    3    0    0  0.17696449672E+02 -0.21543872287E+02 -0.11183665373E+02  0.30039592800E+02  0.51100000000E-03 0. -1.
        -11    1    3    3    0    0  0.97888566683E+01 -0.89604694847E+01  0.71481201221E+01  0.15073398747E+02  0.51100000000E-03 0.  1.
         12    1    3    3    0    0  0.22995987718E+01 -0.91751164508E+00  0.10108715530E+01  0.26742930705E+01  0.00000000000E+00 0. -1.
</event>
<event>
 7    1  0.2430096E-009  0.4778727E+02  0.7816164E-02  0.1312668E+00
        -11   -1    0    0    0    0  0.00000000000E+00  0.00000000000E+00  0.45593999997E+02  0.45594000000E+02  0.51100000000E-03 0.  1.
         11   -1    0    0    0    0 -0.00000000000E+00 -0.00000000000E+00 -0.45593999997E+02  0.45594000000E+02  0.51100000000E-03 0. -1.
    9900012    2    1    2    0    0  0.41343925115E+00 -0.31264512416E+02 -0.30099546637E+02  0.47787269864E+02  0.19999994617E+02 0.  0.
        -12    1    1    2    0    0 -0.41343925115E+00  0.31264512416E+02  0.30099546637E+02  0.43400730136E+02  0.00000000000E+00 0.  1.
         11    1    3    3    0    0 -0.37414669365E-01 -0.73144115683E+01 -0.42356669672E+01  0.84523896838E+01  0.51100000000E-03 0. -1.
        -11    1    3    3    0    0 -0.14162329740E+01 -0.10558370697E+02 -0.58737041233E+00  0.10669110172E+02  0.51100000000E-03 0.  1.
        -12    1    3    3    0    0  0.18670868945E+01 -0.13391730151E+02 -0.25276509257E+02  0.28665770008E+02  0.00000000000E+00 0.  1.
</event>
<event>
 7    1  0.2430096E-009  0.4778727E+02  0.7816164E-02  0.1312668E+00
        -11   -1    0    0    0    0  0.00000000000E+00  0.00000000000E+00  0.45593999997E+02  0.45594000000E+02  0.51100000000E-03 0.  1.
         11   -1    0    0    0    0 -0.00000000000E+00 -0.00000000000E+00 -0.45593999997E+02  0.45594000000E+02  0.51100000000E-03 0. -1.
    9900012    2    1    2    0    0 -0.53823396372E+01  0.11931578224E+02 -0.41379839327E+02  0.47787271416E+02  0.20000001693E+02 0.  0.
        -12    1    1    2    0    0  0.53823396372E+01 -0.11931578224E+02  0.41379839327E+02  0.43400728584E+02  0.00000000000E+00 0.  1.
         11    1    3    3    0    0  0.24459935320E+01 -0.24271780121E+01 -0.88145466274E+01  0.94641592320E+01  0.51100000000E-03 0. -1.
        -11    1    3    3    0    0 -0.67041625146E+01  0.91578925307E+01 -0.99603989467E+01  0.15100408540E+02  0.51100000000E-03 0.  1.
         12    1    3    3    0    0 -0.11241706546E+01  0.52008637057E+01 -0.22604893753E+02  0.23222703644E+02  0.00000000000E+00 0. -1.
</event>
<event>
 7    1  0.2430096E-009  0.4778727E+02  0.7816164E-02  0.1312668E+00
        -11   -1    0    0    0    0  0.00000000000E+00  0.00000000000E+00  0.45593999997E+02  0.45594000000E+02  0.51100000000E-03 0. -1.
         11   -1    0    0    0    0 -0.00000000000E+00 -0.00000000000E+00 -0.45593999997E+02  0.45594000000E+02  0.51100000000E-03 0.  1.
    9900012    2    1    2    0    0 -0.33091295385E+02 -0.23306712191E+02 -0.15664818264E+02  0.47787271957E+02  0.20000004160E+02 0.  0.
        -12    1    1    2    0    0  0.33091295385E+02  0.23306712191E+02  0.15664818264E+02  0.43400728043E+02  0.00000000000E+00 0.  1.
         11    1    3    3    0    0  0.16568945901E+01 -0.11705403828E+00 -0.28618869281E+01  0.33089875160E+01  0.51100000000E-03 0.  1.
        -11    1    3    3    0    0 -0.20702813956E+02 -0.15920134034E+02 -0.41288228693E+01  0.26440581535E+02  0.51100000000E-03 0. -1.
        -12    1    3    3    0    0 -0.14045376019E+02 -0.72695241188E+01 -0.86741084665E+01  0.18037702906E+02  0.00000000000E+00 0.  1.
</event>
<event>
 7    1  0.2430096E-009  0.4778727E+02  0.7816164E-02  0.1312668E+00
        -11   -1    0    0    0    0  0.00000000000E+00  0.00000000000E+00  0.45593999997E+02  0.45594000000E+02  0.51100000000E-03 0.  1.
         11   -1    0    0    0    0 -0.00000000000E+00 -0.00000000000E+00 -0.45593999997E+02  0.45594000000E+02  0.51100000000E-03 0. -1.
    9900012    2    1    2    0    0 -0.11231682248E+02  0.36660410559E+02 -0.20334376812E+02  0.47787271103E+02  0.20000000267E+02 0.  0.
        -12    1    1    2    0    0  0.11231682248E+02 -0.36660410559E+02  0.20334376812E+02  0.43400728897E+02  0.00000000000E+00 0.  1.
         11    1    3    3    0    0 -0.94472539357E+01  0.76730227089E+01 -0.81331287971E+00  0.12197842535E+02  0.51100000000E-03 0. -1.
        -11    1    3    3    0    0  0.17392254604E+01  0.18626299033E+02 -0.13751584278E+02  0.23217880852E+02  0.51100000000E-03 0.  1.
         12    1    3    3    0    0 -0.35236537730E+01  0.10361088817E+02 -0.57694796545E+01  0.12371547715E+02  0.00000000000E+00 0. -1.
</event>
<event>
 7    1  0.2430096E-009  0.4778727E+02  0.7816164E-02  0.1312668E+00
        -11   -1    0    0    0    0  0.00000000000E+00  0.00000000000E+00  0.45593999997E+02  0.45594000000E+02  0.51100000000E-03 0.  1.
         11   -1    0    0    0    0 -0.00000000000E+00 -0.00000000000E+00 -0.45593999997E+02  0.45594000000E+02  0.51100000000E-03 0. -1.
    9900012    2    1    2    0    0  0.12456781429E+02  0.11199990056E+01 -0.41559565978E+02  0.47787270448E+02  0.19999997280E+02 0.  0.
        -12    1    1    2    0    0 -0.12456781429E+02 -0.11199990056E+01  0.41559565978E+02  0.43400729552E+02  0.00000000000E+00 0.  1.
         11    1    3    3    0    0  0.45023529714E+01 -0.39075715443E+01 -0.18728480044E+02  0.19654420945E+02  0.51100000000E-03 0. -1.
        -11    1    3    3    0    0  0.12694529612E+00  0.74490151193E+01 -0.66092686618E+01  0.99592356062E+01  0.51100000000E-03 0.  1.
        -12    1    3    3    0    0  0.78274831618E+01 -0.24214445694E+01 -0.16221817273E+02  0.18173613897E+02  0.00000000000E+00 0.  1.
</event>
<event>
 7    1  0.2430096E-009  0.4778723E+02  0.7816164E-02  0.1312668E+00
        -11   -1    0    0    0    0  0.00000000000E+00  0.00000000000E+00  0.45593999997E+02  0.45594000000E+02  0.51100000000E-03 0.  1.
         11   -1    0    0    0    0 -0.00000000000E+00 -0.00000000000E+00 -0.45593999997E+02  0.45594000000E+02  0.51100000000E-03 0. -1.
    9900012    2    1    2    0    0 -0.10640196392E+02 -0.21216354265E+02  0.36335651035E+02  0.47787228075E+02  0.19999804086E+02 0.  0.
        -12    1    1    2    0    0  0.10640196392E+02  0.21216354265E+02 -0.36335651035E+02  0.43400771925E+02  0.00000000000E+00 0.  1.
         11    1    3    3    0    0  0.35418039030E+01 -0.60087854324E+01  0.15356891573E+02  0.16866653382E+02  0.51100000000E-03 0. -1.
        -11    1    3    3    0    0 -0.99583186382E+01 -0.40228909376E+01  0.10564088258E+02  0.15064916945E+02  0.51100000000E-03 0.  1.
         12    1    3    3    0    0 -0.42236816564E+01 -0.11184677895E+02  0.10414671204E+02  0.15855657748E+02  0.00000000000E+00 0. -1.
</event>
<event>
 7    1  0.2430096E-009  0.4778727E+02  0.7816164E-02  0.1312668E+00
        -11   -1    0    0    0    0  0.00000000000E+00  0.00000000000E+00  0.45593999997E+02  0.45594000000E+02  0.51100000000E-03 0.  1.
         11   -1    0    0    0    0 -0.00000000000E+00 -0.00000000000E+00 -0.45593999997E+02  0.45594000000E+02  0.51100000000E-03 0. -1.
    9900012    2    1    2    0    0  0.21226486448E+02 -0.27764739912E+01 -0.37753815772E+02  0.47787272585E+02  0.20000007026E+02 0.  0.
        -12    1    1    2    0    0 -0.21226486448E+02  0.27764739912E+01  0.37753815772E+02  0.43400727415E+02  0.00000000000E+00 0.  1.
         11    1    3    3    0    0  0.69348060964E+00  0.18134320053E+01 -0.45946340510E+01  0.49879969244E+01  0.51100000000E-03 0. -1.
        -11    1    3    3    0    0  0.32736157255E+01 -0.52901436761E+01 -0.20391233591E+02  0.21319113200E+02  0.51100000000E-03 0.  1.
        -12    1    3    3    0    0  0.17259390113E+02  0.70023767960E+00 -0.12767948130E+02  0.21480162461E+02  0.00000000000E+00 0.  1.
</event>
<event>
 7    1  0.2430096E-009  0.4778726E+02  0.7816164E-02  0.1312668E+00
        -11   -1    0    0    0    0  0.00000000000E+00  0.00000000000E+00  0.45593999997E+02  0.45594000000E+02  0.51100000000E-03 0.  1.
         11   -1    0    0    0    0 -0.00000000000E+00 -0.00000000000E+00 -0.45593999997E+02  0.45594000000E+02  0.51100000000E-03 0. -1.
    9900012    2    1    2    0    0 -0.34570008718E+02  0.26238520269E+02  0.28092954550E+00  0.47787258415E+02  0.19999942417E+02 0.  0.
        -12    1    1    2    0    0  0.34570008718E+02 -0.26238520269E+02 -0.28092954550E+00  0.43400741585E+02  0.00000000000E+00 0.  1.
         11    1    3    3    0    0  0.17549972273E+00  0.29537411048E+01  0.44577980369E+01  0.53504532767E+01  0.51100000000E-03 0.  1.
        -11    1    3    3    0    0 -0.19305358518E+02  0.13130101026E+02  0.57911384265E+00  0.23354481231E+02  0.51100000000E-03 0. -1.
         12    1    3    3    0    0 -0.15440149923E+02  0.10154678138E+02 -0.47559823340E+01  0.19082323907E+02  0.00000000000E+00 0. -1.
</event>
<event>
 7    1  0.2430096E-009  0.4778727E+02  0.7816164E-02  0.1312668E+00
        -11   -1    0    0    0    0  0.00000000000E+00  0.00000000000E+00  0.45593999997E+02  0.45594000000E+02  0.51100000000E-03 0.  1.
         11   -1    0    0    0    0 -0.00000000000E+00 -0.00000000000E+00 -0.45593999997E+02  0.45594000000E+02  0.51100000000E-03 0. -1.
    9900012    2    1    2    0    0  0.50388623532E+01  0.12028440815E+02 -0.41395047479E+02  0.47787268693E+02  0.19999989277E+02 0.  0.
        -12    1    1    2    0    0 -0.50388623532E+01 -0.12028440815E+02  0.41395047479E+02  0.43400731307E+02  0.00000000000E+00 0.  1.
         11    1    3    3    0    0  0.53675896287E+01  0.45795953264E+01 -0.11115714021E+02  0.13165971678E+02  0.51100000000E-03 0. -1.
        -11    1    3    3    0    0 -0.14260190808E+01  0.11904966862E+02 -0.19296508410E+02  0.22718208633E+02  0.51100000000E-03 0.  1.
        -12    1    3    3    0    0  0.10972918053E+01 -0.44561213730E+01 -0.10982825048E+02  0.11903088382E+02  0.00000000000E+00 0.  1.
</event>
<event>
 7    1  0.2430096E-009  0.4778728E+02  0.7816164E-02  0.1312668E+00
        -11   -1    0    0    0    0  0.00000000000E+00  0.00000000000E+00  0.45593999997E+02  0.45594000000E+02  0.51100000000E-03 0.  1.
         11   -1    0    0    0    0 -0.00000000000E+00 -0.00000000000E+00 -0.45593999997E+02  0.45594000000E+02  0.51100000000E-03 0. -1.
    9900012    2    1    2    0    0 -0.12494042094E+01 -0.23110092109E+01 -0.43321139149E+02  0.47787275678E+02  0.20000021128E+02 0.  0.
        -12    1    1    2    0    0  0.12494042094E+01  0.23110092109E+01  0.43321139149E+02  0.43400724322E+02  0.00000000000E+00 0.  1.
         11    1    3    3    0    0  0.67940564666E+01  0.33930429887E+01 -0.21865103784E+02  0.23146375693E+02  0.51100000000E-03 0. -1.
        -11    1    3    3    0    0 -0.64310229608E+01 -0.71980306769E+01 -0.15159027981E+02  0.17971250138E+02  0.51100000000E-03 0.  1.
        -12    1    3    3    0    0 -0.16124377152E+01  0.14939784773E+01 -0.62970073848E+01  0.66696498469E+01  0.00000000000E+00 0.  1.
</event>
<event>
 7    1  0.2430096E-009  0.4778727E+02  0.7816164E-02  0.1312668E+00
        -11   -1    0    0    0    0  0.00000000000E+00  0.00000000000E+00  0.45593999997E+02  0.45594000000E+02  0.51100000000E-03 0. -1.
         11   -1    0    0    0    0 -0.00000000000E+00 -0.00000000000E+00 -0.45593999997E+02  0.45594000000E+02  0.51100000000E-03 0.  1.
    9900012    2    1    2    0    0  0.29096534332E+02  0.25669026252E+02  0.19445210568E+02  0.47787269212E+02  0.19999991646E+02 0.  0.
        -12    1    1    2    0    0 -0.29096534332E+02 -0.25669026252E+02 -0.19445210568E+02  0.43400730788E+02  0.00000000000E+00 0.  1.
         11    1    3    3    0    0  0.15522700729E+02  0.21285876020E+02  0.14805123250E+02  0.30219768871E+02  0.51100000000E-03 0. -1.
        -11    1    3    3    0    0  0.30051940369E+01 -0.86000889781E+00  0.48474943257E+01  0.57679292647E+01  0.51100000000E-03 0.  1.
        -12    1    3    3    0    0  0.10568639566E+02  0.52431591293E+01 -0.20740700725E+00  0.11799571077E+02  0.00000000000E+00 0.  1.
</event>
<event>
 7    1  0.2430096E-009  0.4778727E+02  0.7816164E-02  0.1312668E+00
        -11   -1    0    0    0    0  0.00000000000E+00  0.00000000000E+00  0.45593999997E+02  0.45594000000E+02  0.51100000000E-03 0.  1.
         11   -1    0    0    0    0 -0.00000000000E+00 -0.00000000000E+00 -0.45593999997E+02  0.45594000000E+02  0.51100000000E-03 0. -1.
    9900012    2    1    2    0    0  0.74792077926E+01  0.22349622739E+02 -0.36444191257E+02  0.47787271180E+02  0.20000000616E+02 0.  0.
        -12    1    1    2    0    0 -0.74792077926E+01 -0.22349622739E+02  0.36444191257E+02  0.43400728820E+02  0.00000000000E+00 0.  1.
         11    1    3    3    0    0  0.53307686830E+01  0.15931598432E+02 -0.36897967644E+02  0.40542483149E+02  0.51100000000E-03 0. -1.
        -11    1    3    3    0    0 -0.42912239901E-01  0.36588300783E+01  0.64758462508E+00  0.37159447129E+01  0.51100000000E-03 0.  1.
        -12    1    3    3    0    0  0.21913513495E+01  0.27591942289E+01 -0.19380823778E+00  0.35288433180E+01  0.00000000000E+00 0.  1.
</event>
<event>
 7    1  0.2430096E-009  0.4778727E+02  0.7816164E-02  0.1312668E+00
        -11   -1    0    0    0    0  0.00000000000E+00  0.00000000000E+00  0.45593999997E+02  0.45594000000E+02  0.51100000000E-03 0.  1.
         11   -1    0    0    0    0 -0.00000000000E+00 -0.00000000000E+00 -0.45593999997E+02  0.45594000000E+02  0.51100000000E-03 0. -1.
    9900012    2    1    2    0    0 -0.94489938351E+01  0.19832218981E+02 -0.37430240226E+02  0.47787271002E+02  0.19999999806E+02 0.  0.
        -12    1    1    2    0    0  0.94489938351E+01 -0.19832218981E+02  0.37430240226E+02  0.43400728998E+02  0.00000000000E+00 0.  1.
         11    1    3    3    0    0 -0.97562683342E+01  0.10753476061E+02 -0.12928514817E+02  0.19441412367E+02  0.51100000000E-03 0. -1.
        -11    1    3    3    0    0  0.30859172192E+01  0.46911233448E+01 -0.21760610907E+02  0.22473400068E+02  0.51100000000E-03 0.  1.
         12    1    3    3    0    0 -0.27786427201E+01  0.43876195750E+01 -0.27411145024E+01  0.58724585665E+01  0.00000000000E+00 0. -1.
</event>
<event>
 7    1  0.2430096E-009  0.4778727E+02  0.7816164E-02  0.1312668E+00
        -11   -1    0    0    0    0  0.00000000000E+00  0.00000000000E+00  0.45593999997E+02  0.45594000000E+02  0.51100000000E-03 0. -1.
         11   -1    0    0    0    0 -0.00000000000E+00 -0.00000000000E+00 -0.45593999997E+02  0.45594000000E+02  0.51100000000E-03 0.  1.
    9900012    2    1    2    0    0 -0.17796787067E+02 -0.99425379249E+01  0.38315056124E+02  0.47787271710E+02  0.20000003034E+02 0.  0.
        -12    1    1    2    0    0  0.17796787067E+02  0.99425379249E+01 -0.38315056124E+02  0.43400728290E+02  0.00000000000E+00 0.  1.
         11    1    3    3    0    0 -0.57951275674E+01  0.46475348393E+01  0.10856365308E+02  0.13154609518E+02  0.51100000000E-03 0. -1.
        -11    1    3    3    0    0 -0.11732255917E+02 -0.15904162904E+02  0.25640797215E+02  0.32373425964E+02  0.51100000000E-03 0.  1.
         12    1    3    3    0    0 -0.26940358266E+00  0.13140901399E+01  0.18178936016E+01  0.22592362277E+01  0.00000000000E+00 0. -1.
</event>
<event>
 7    1  0.2430096E-009  0.4778727E+02  0.7816164E-02  0.1312668E+00
        -11   -1    0    0    0    0  0.00000000000E+00  0.00000000000E+00  0.45593999997E+02  0.45594000000E+02  0.51100000000E-03 0.  1.
         11   -1    0    0    0    0 -0.00000000000E+00 -0.00000000000E+00 -0.45593999997E+02  0.45594000000E+02  0.51100000000E-03 0. -1.
    9900012    2    1    2    0    0  0.31060955376E+02 -0.10060357994E+02 -0.28594222288E+02  0.47787270742E+02  0.19999998622E+02 0.  0.
        -12    1    1    2    0    0 -0.31060955376E+02  0.10060357994E+02  0.28594222288E+02  0.43400729258E+02  0.00000000000E+00 0.  1.
         11    1    3    3    0    0  0.21995091783E+02 -0.75113964410E+01 -0.27968369874E+02  0.36365297368E+02  0.51100000000E-03 0. -1.
        -11    1    3    3    0    0  0.10085443410E+02 -0.24609136318E+01 -0.55619706022E+00  0.10396231054E+02  0.51100000000E-03 0.  1.
        -12    1    3    3    0    0 -0.10195798168E+01 -0.88047920867E-01 -0.69655353531E-01  0.10257423202E+01  0.00000000000E+00 0.  1.
</event>
<event>
 7    1  0.2430096E-009  0.4778724E+02  0.7816164E-02  0.1312668E+00
        -11   -1    0    0    0    0  0.00000000000E+00  0.00000000000E+00  0.45593999997E+02  0.45594000000E+02  0.51100000000E-03 0.  1.
         11   -1    0    0    0    0 -0.00000000000E+00 -0.00000000000E+00 -0.45593999997E+02  0.45594000000E+02  0.51100000000E-03 0. -1.
    9900012    2    1    2    0    0  0.93413414840E+01 -0.39027595886E+02 -0.16529140596E+02  0.47787235143E+02  0.19999836310E+02 0.  0.
        -12    1    1    2    0    0 -0.93413414840E+01  0.39027595886E+02  0.16529140596E+02  0.43400764857E+02  0.00000000000E+00 0.  1.
         11    1    3    3    0    0 -0.32682291129E+01 -0.14906050497E+02 -0.49470249266E+01  0.16041967424E+02  0.51100000000E-03 0. -1.
        -11    1    3    3    0    0  0.13687804461E+02 -0.21021377563E+02 -0.68808399366E+01  0.26011540979E+02  0.51100000000E-03 0.  1.
        -12    1    3    3    0    0 -0.10782338640E+01 -0.31001678261E+01 -0.47012757326E+01  0.57337267400E+01  0.00000000000E+00 0.  1.
</event>
<event>
 7    1  0.2430096E-009  0.4778727E+02  0.7816164E-02  0.1312668E+00
        -11   -1    0    0    0    0  0.00000000000E+00  0.00000000000E+00  0.45593999997E+02  0.45594000000E+02  0.51100000000E-03 0.  1.
         11   -1    0    0    0    0 -0.00000000000E+00 -0.00000000000E+00 -0.45593999997E+02  0.45594000000E+02  0.51100000000E-03 0. -1.
    9900012    2    1    2    0    0  0.17801934846E+02  0.16994209430E+02 -0.35747881616E+02  0.47787273296E+02  0.20000010265E+02 0.  0.
        -12    1    1    2    0    0 -0.17801934846E+02 -0.16994209430E+02  0.35747881616E+02  0.43400726704E+02  0.00000000000E+00 0.  1.
         11    1    3    3    0    0  0.57391537024E+01  0.99068698286E+01 -0.25782190537E+02  0.28210021343E+02  0.51100000000E-03 0. -1.
        -11    1    3    3    0    0  0.11070415478E+01  0.14619032549E+01  0.17821507281E+01  0.25571006226E+01  0.51100000000E-03 0.  1.
         12    1    3    3    0    0  0.10955739596E+02  0.56254363469E+01 -0.11747841807E+02  0.17020151330E+02  0.00000000000E+00 0. -1.
</event>
<event>
 7    1  0.2430096E-009  0.4778727E+02  0.7816164E-02  0.1312668E+00
        -11   -1    0    0    0    0  0.00000000000E+00  0.00000000000E+00  0.45593999997E+02  0.45594000000E+02  0.51100000000E-03 0.  1.
         11   -1    0    0    0    0 -0.00000000000E+00 -0.00000000000E+00 -0.45593999997E+02  0.45594000000E+02  0.51100000000E-03 0. -1.
    9900012    2    1    2    0    0 -0.40686873280E+02  0.76975986811E+01 -0.12998012632E+02  0.47787274025E+02  0.20000013590E+02 0.  0.
        -12    1    1    2    0    0  0.40686873280E+02 -0.76975986811E+01  0.12998012632E+02  0.43400725975E+02  0.00000000000E+00 0.  1.
         11    1    3    3    0    0 -0.30384071838E+02  0.98317400253E+01 -0.14011835067E+02  0.34873864936E+02  0.51100000000E-03 0. -1.
        -11    1    3    3    0    0 -0.44305381795E+01 -0.37720125052E+01 -0.19472787102E+01  0.61359303725E+01  0.51100000000E-03 0.  1.
         12    1    3    3    0    0 -0.58722632627E+01  0.16378711610E+01  0.29611011445E+01  0.67774787167E+01  0.00000000000E+00 0. -1.
</event>
<event>
 7    1  0.2430096E-009  0.4778728E+02  0.7816164E-02  0.1312668E+00
        -11   -1    0    0    0    0  0.00000000000E+00  0.00000000000E+00  0.45593999997E+02  0.45594000000E+02  0.51100000000E-03 0. -1.
         11   -1    0    0    0    0 -0.00000000000E+00 -0.00000000000E+00 -0.45593999997E+02  0.45594000000E+02  0.51100000000E-03 0.  1.
    9900012    2    1    2    0    0  0.61281340534E+01 -0.12319415746E+02  0.41161882057E+02  0.47787279202E+02  0.20000037193E+02 0.  0.
        -12    1    1    2    0    0 -0.61281340534E+01  0.12319415746E+02 -0.41161882057E+02  0.43400720798E+02  0.00000000000E+00 0.  1.
         11    1    3    3    0    0  0.23919884186E+01 -0.61891004620E+01  0.13792087293E+02  0.15305170541E+02  0.51100000000E-03 0. -1.
        -11    1    3    3    0    0  0.94008994909E+01 -0.70210961372E+01  0.17563280619E+02  0.21122062602E+02  0.51100000000E-03 0.  1.
        -12    1    3    3    0    0 -0.56647538560E+01  0.89078085332E+00  0.98065141454E+01  0.11360046059E+02  0.00000000000E+00 0.  1.
</event>
<event>
 7    1  0.2430096E-009  0.4778727E+02  0.7816164E-02  0.1312668E+00
        -11   -1    0    0    0    0  0.00000000000E+00  0.00000000000E+00  0.45593999997E+02  0.45594000000E+02  0.51100000000E-03 0. -1.
         11   -1    0    0    0    0 -0.00000000000E+00 -0.00000000000E+00 -0.45593999997E+02  0.45594000000E+02  0.51100000000E-03 0.  1.
    9900012    2    1    2    0    0 -0.18341010053E+02 -0.39286060795E+02  0.19587059691E+01  0.47787265540E+02  0.19999974905E+02 0.  0.
        -12    1    1    2    0    0  0.18341010053E+02  0.39286060795E+02 -0.19587059691E+01  0.43400734460E+02  0.00000000000E+00 0.  1.
         11    1    3    3    0    0 -0.94407804116E+01 -0.38831459701E+01 -0.29248957852E+01  0.10618953480E+02  0.51100000000E-03 0. -1.
        -11    1    3    3    0    0 -0.96070695022E+00 -0.13580804317E+02  0.13918055464E+01  0.13685697888E+02  0.51100000000E-03 0.  1.
         12    1    3    3    0    0 -0.79395226912E+01 -0.21822110508E+02  0.34917962079E+01  0.23482614172E+02  0.00000000000E+00 0. -1.
</event>
<event>
 7    1  0.2430096E-009  0.4778727E+02  0.7816164E-02  0.1312668E+00
        -11   -1    0    0    0    0  0.00000000000E+00  0.00000000000E+00  0.45593999997E+02  0.45594000000E+02  0.51100000000E-03 0. -1.
         11   -1    0    0    0    0 -0.00000000000E+00 -0.00000000000E+00 -0.45593999997E+02  0.45594000000E+02  0.51100000000E-03 0.  1.
    9900012    2    1    2    0    0  0.21487380752E+02  0.32518605976E+02  0.19090729434E+02  0.47787271705E+02  0.20000003013E+02 0.  0.
        -12    1    1    2    0    0 -0.21487380752E+02 -0.32518605976E+02 -0.19090729434E+02  0.43400728295E+02  0.00000000000E+00 0.  1.
         11    1    3    3    0    0  0.12062944839E+02  0.57367898399E+01  0.21190410405E+01  0.13524634230E+02  0.51100000000E-03 0. -1.
        -11    1    3    3    0    0  0.93478413485E+01  0.25930324906E+02  0.13509441263E+02  0.30696398667E+02  0.51100000000E-03 0.  1.
        -12    1    3    3    0    0  0.76594564313E-01  0.85149122934E+00  0.34622471308E+01  0.35662388080E+01  0.00000000000E+00 0.  1.
</event>
<event>
 7    1  0.2430096E-009  0.4778728E+02  0.7816164E-02  0.1312668E+00
        -11   -1    0    0    0    0  0.00000000000E+00  0.00000000000E+00  0.45593999997E+02  0.45594000000E+02  0.51100000000E-03 0. -1.
         11   -1    0    0    0    0 -0.00000000000E+00 -0.00000000000E+00 -0.45593999997E+02  0.45594000000E+02  0.51100000000E-03 0.  1.
    9900012    2    1    2    0    0 -0.35312969561E+02  0.68797919971E+01  0.24275202841E+02  0.47787276157E+02  0.20000023312E+02 0.  0.
        -12    1    1    2    0    0  0.35312969561E+02 -0.68797919971E+01 -0.24275202841E+02  0.43400723843E+02  0.00000000000E+00 0.  1.
         11    1    3    3    0    0 -0.49694375683E+01  0.26754565748E+01  0.48313690605E+01  0.74293677314E+01  0.51100000000E-03 0. -1.
        -11    1    3    3    0    0 -0.15631222539E+02  0.91338071336E+01  0.16641562142E+02  0.24590712507E+02  0.51100000000E-03 0.  1.
        -12    1    3    3    0    0 -0.14712309453E+02 -0.49294717113E+01  0.28022716379E+01  0.15767195919E+02  0.00000000000E+00 0.  1.
</event>
<event>
 7    1  0.2430096E-009  0.4778727E+02  0.7816164E-02  0.1312668E+00
        -11   -1    0    0    0    0  0.00000000000E+00  0.00000000000E+00  0.45593999997E+02  0.45594000000E+02  0.51100000000E-03 0. -1.
         11   -1    0    0    0    0 -0.00000000000E+00 -0.00000000000E+00 -0.45593999997E+02  0.45594000000E+02  0.51100000000E-03 0.  1.
    9900012    2    1    2    0    0 -0.68079802074E+01 -0.15474334494E+02  0.39972733284E+02  0.47787273868E+02  0.20000012875E+02 0.  0.
        -12    1    1    2    0    0  0.68079802074E+01  0.15474334494E+02 -0.39972733284E+02  0.43400726132E+02  0.00000000000E+00 0.  1.
         11    1    3    3    0    0 -0.55780735486E+01 -0.15051338133E+02  0.15441518463E+02  0.22273261477E+02  0.51100000000E-03 0. -1.
        -11    1    3    3    0    0 -0.31638304757E+01  0.12704310675E+01  0.68995282177E+01  0.76959280314E+01  0.51100000000E-03 0.  1.
         12    1    3    3    0    0  0.19339238169E+01 -0.16934274288E+01  0.17631686603E+02  0.17818084360E+02  0.00000000000E+00 0. -1.
</event>
<event>
 7    1  0.2430096E-009  0.4778727E+02  0.7816164E-02  0.1312668E+00
        -11   -1    0    0    0    0  0.00000000000E+00  0.00000000000E+00  0.45593999997E+02  0.45594000000E+02  0.51100000000E-03 0. -1.
         11   -1    0    0    0    0 -0.00000000000E+00 -0.00000000000E+00 -0.45593999997E+02  0.45594000000E+02  0.51100000000E-03 0.  1.
    9900012    2    1    2    0    0 -0.19467457847E+02  0.23062219417E+02  0.31189345872E+02  0.47787272179E+02  0.20000005173E+02 0.  0.
        -12    1    1    2    0    0  0.19467457847E+02 -0.23062219417E+02 -0.31189345872E+02  0.43400727821E+02  0.00000000000E+00 0.  1.
         11    1    3    3    0    0 -0.74561172505E+01  0.27058725580E+00  0.17070895067E+01  0.76538262824E+01  0.51100000000E-03 0. -1.
        -11    1    3    3    0    0 -0.46322616752E+01  0.18415359925E+01  0.62008218851E+01  0.79560854288E+01  0.51100000000E-03 0.  1.
         12    1    3    3    0    0 -0.73790789212E+01  0.20950096169E+02  0.23281434480E+02  0.32177360468E+02  0.00000000000E+00 0. -1.
</event>
<event>
 7    1  0.2430096E-009  0.4778727E+02  0.7816164E-02  0.1312668E+00
        -11   -1    0    0    0    0  0.00000000000E+00  0.00000000000E+00  0.45593999997E+02  0.45594000000E+02  0.51100000000E-03 0. -1.
         11   -1    0    0    0    0 -0.00000000000E+00 -0.00000000000E+00 -0.45593999997E+02  0.45594000000E+02  0.51100000000E-03 0.  1.
    9900012    2    1    2    0    0  0.16900008966E+02  0.34833993103E+02  0.19611366436E+02  0.47787273369E+02  0.20000010601E+02 0.  0.
        -12    1    1    2    0    0 -0.16900008966E+02 -0.34833993103E+02 -0.19611366436E+02  0.43400726631E+02  0.00000000000E+00 0.  1.
         11    1    3    3    0    0  0.90966334254E+01  0.12841637838E+02  0.92714365691E+01  0.18265156401E+02  0.51100000000E-03 0. -1.
        -11    1    3    3    0    0 -0.24409399874E+01  0.14960976598E+02  0.46493397459E+01  0.15855767693E+02  0.51100000000E-03 0.  1.
        -12    1    3    3    0    0  0.10244315528E+02  0.70313786672E+01  0.56905901208E+01  0.13666349276E+02  0.00000000000E+00 0.  1.
</event>
<event>
 7    1  0.2430096E-009  0.4778727E+02  0.7816164E-02  0.1312668E+00
        -11   -1    0    0    0    0  0.00000000000E+00  0.00000000000E+00  0.45593999997E+02  0.45594000000E+02  0.51100000000E-03 0.  1.
         11   -1    0    0    0    0 -0.00000000000E+00 -0.00000000000E+00 -0.45593999997E+02  0.45594000000E+02  0.51100000000E-03 0. -1.
    9900012    2    1    2    0    0 -0.37577357271E+02 -0.71945082824E+01 -0.20489138723E+02  0.47787268041E+02  0.19999986308E+02 0.  0.
        -12    1    1    2    0    0  0.37577357271E+02  0.71945082824E+01  0.20489138723E+02  0.43400731959E+02  0.00000000000E+00 0.  1.
         11    1    3    3    0    0 -0.24533656577E+02 -0.29150818625E+01 -0.82090910407E+01  0.26034346223E+02  0.51100000000E-03 0. -1.
        -11    1    3    3    0    0 -0.50811515237E+01 -0.24572784884E+01 -0.12356126602E+02  0.13584188723E+02  0.51100000000E-03 0.  1.
        -12    1    3    3    0    0 -0.79625491708E+01 -0.18221479314E+01  0.76078919937E-01  0.81687330954E+01  0.00000000000E+00 0.  1.
</event>
<event>
 7    1  0.2430096E-009  0.4778727E+02  0.7816164E-02  0.1312668E+00
        -11   -1    0    0    0    0  0.00000000000E+00  0.00000000000E+00  0.45593999997E+02  0.45594000000E+02  0.51100000000E-03 0. -1.
         11   -1    0    0    0    0 -0.00000000000E+00 -0.00000000000E+00 -0.45593999997E+02  0.45594000000E+02  0.51100000000E-03 0.  1.
    9900012    2    1    2    0    0  0.33717296712E+02  0.15887418492E+01  0.27280815624E+02  0.47787273055E+02  0.20000009167E+02 0.  0.
        -12    1    1    2    0    0 -0.33717296712E+02 -0.15887418492E+01 -0.27280815624E+02  0.43400726945E+02  0.00000000000E+00 0.  1.
         11    1    3    3    0    0  0.10440414082E+02  0.54892909485E+01  0.16997306639E+02  0.20689199950E+02  0.51100000000E-03 0. -1.
        -11    1    3    3    0    0  0.10743710128E+02 -0.17258293213E+00  0.48096087985E+00  0.10755854955E+02  0.51100000000E-03 0.  1.
         12    1    3    3    0    0  0.12533172502E+02 -0.37279661671E+01  0.98025481053E+01  0.16342218150E+02  0.00000000000E+00 0. -1.
</event>
<event>
 7    1  0.2430096E-009  0.4778729E+02  0.7816164E-02  0.1312668E+00
        -11   -1    0    0    0    0  0.00000000000E+00  0.00000000000E+00  0.45593999997E+02  0.45594000000E+02  0.51100000000E-03 0. -1.
         11   -1    0    0    0    0 -0.00000000000E+00 -0.00000000000E+00 -0.45593999997E+02  0.45594000000E+02  0.51100000000E-03 0.  1.
    9900012    2    1    2    0    0 -0.35953863692E+02 -0.55336827492E+01 -0.23671069100E+02  0.47787291809E+02  0.20000094672E+02 0.  0.
        -12    1    1    2    0    0  0.35953863692E+02  0.55336827492E+01  0.23671069100E+02  0.43400708191E+02  0.00000000000E+00 0.  1.
         11    1    3    3    0    0 -0.53979702480E+01 -0.33674647684E+01 -0.46278319404E+01  0.78673204139E+01  0.51100000000E-03 0. -1.
        -11    1    3    3    0    0 -0.26693690317E+02 -0.75083902882E+01 -0.11828078420E+02  0.30146848374E+02  0.51100000000E-03 0.  1.
        -12    1    3    3    0    0 -0.38622031266E+01  0.53421723074E+01 -0.72151587394E+01  0.97731230211E+01  0.00000000000E+00 0.  1.
</event>
<event>
 7    1  0.2430096E-009  0.4778726E+02  0.7816164E-02  0.1312668E+00
        -11   -1    0    0    0    0  0.00000000000E+00  0.00000000000E+00  0.45593999997E+02  0.45594000000E+02  0.51100000000E-03 0.  1.
         11   -1    0    0    0    0 -0.00000000000E+00 -0.00000000000E+00 -0.45593999997E+02  0.45594000000E+02  0.51100000000E-03 0. -1.
    9900012    2    1    2    0    0 -0.65315549190E+01  0.33879454377E+02 -0.26327653856E+02  0.47787262724E+02  0.19999962064E+02 0.  0.
        -12    1    1    2    0    0  0.65315549190E+01 -0.33879454377E+02  0.26327653856E+02  0.43400737276E+02  0.00000000000E+00 0.  1.
         11    1    3    3    0    0 -0.48901728768E-01  0.51718256074E+01 -0.45020118335E+01  0.68569878448E+01  0.51100000000E-03 0. -1.
        -11    1    3    3    0    0  0.47256871639E+01  0.14721793870E+02 -0.15581017745E+02  0.21950659401E+02  0.51100000000E-03 0.  1.
        -12    1    3    3    0    0 -0.11208340354E+02  0.13985834899E+02 -0.62446242777E+01  0.18979615478E+02  0.00000000000E+00 0.  1.
</event>
<event>
 7    1  0.2430096E-009  0.4778727E+02  0.7816164E-02  0.1312668E+00
        -11   -1    0    0    0    0  0.00000000000E+00  0.00000000000E+00  0.45593999997E+02  0.45594000000E+02  0.51100000000E-03 0.  1.
         11   -1    0    0    0    0 -0.00000000000E+00 -0.00000000000E+00 -0.45593999997E+02  0.45594000000E+02  0.51100000000E-03 0. -1.
    9900012    2    1    2    0    0 -0.67246622194E+01 -0.42869446229E+02  0.78267645259E+00  0.47787273227E+02  0.20000009952E+02 0.  0.
        -12    1    1    2    0    0  0.67246622194E+01  0.42869446229E+02 -0.78267645259E+00  0.43400726773E+02  0.00000000000E+00 0.  1.
         11    1    3    3    0    0 -0.10452259144E+02 -0.29726725426E+02  0.20920821804E+01  0.31580131948E+02  0.51100000000E-03 0. -1.
        -11    1    3    3    0    0 -0.64326930070E+00 -0.43079508575E+01  0.31630810575E+01  0.53830584263E+01  0.51100000000E-03 0.  1.
         12    1    3    3    0    0  0.43708662252E+01 -0.88347699460E+01 -0.44724867853E+01  0.10824082853E+02  0.00000000000E+00 0. -1.
</event>
<event>
 7    1  0.2430096E-009  0.4778727E+02  0.7816164E-02  0.1312668E+00
        -11   -1    0    0    0    0  0.00000000000E+00  0.00000000000E+00  0.45593999997E+02  0.45594000000E+02  0.51100000000E-03 0. -1.
         11   -1    0    0    0    0 -0.00000000000E+00 -0.00000000000E+00 -0.45593999997E+02  0.45594000000E+02  0.51100000000E-03 0.  1.
    9900012    2    1    2    0    0  0.88809227566E+00 -0.41292796539E+02 -0.13331906355E+02  0.47787268659E+02  0.19999989124E+02 0.  0.
        -12    1    1    2    0    0 -0.88809227566E+00  0.41292796539E+02  0.13331906355E+02  0.43400731341E+02  0.00000000000E+00 0.  1.
         11    1    3    3    0    0  0.35547264906E+01 -0.13870070033E+02  0.27994281897E+01  0.14589438700E+02  0.51100000000E-03 0. -1.
        -11    1    3    3    0    0 -0.52655162939E+01 -0.99090725553E+01 -0.75311187298E+01  0.13514182562E+02  0.51100000000E-03 0.  1.
         12    1    3    3    0    0  0.25988820790E+01 -0.17513653951E+02 -0.86002158146E+01  0.19683647396E+02  0.00000000000E+00 0. -1.
</event>
<event>
 7    1  0.2430096E-009  0.4778727E+02  0.7816164E-02  0.1312668E+00
        -11   -1    0    0    0    0  0.00000000000E+00  0.00000000000E+00  0.45593999997E+02  0.45594000000E+02  0.51100000000E-03 0.  1.
         11   -1    0    0    0    0 -0.00000000000E+00 -0.00000000000E+00 -0.45593999997E+02  0.45594000000E+02  0.51100000000E-03 0. -1.
    9900012    2    1    2    0    0 -0.11050079374E+02 -0.29660287086E+02 -0.29694889258E+02  0.47787270372E+02  0.19999996934E+02 0.  0.
        -12    1    1    2    0    0  0.11050079374E+02  0.29660287086E+02  0.29694889258E+02  0.43400729628E+02  0.00000000000E+00 0.  1.
         11    1    3    3    0    0  0.18567663028E+01 -0.13031474967E+02 -0.20481646204E+02  0.24346760614E+02  0.51100000000E-03 0. -1.
        -11    1    3    3    0    0 -0.10073142095E+02 -0.96154460879E+01 -0.50993962649E+01  0.14829997898E+02  0.51100000000E-03 0.  1.
        -12    1    3    3    0    0 -0.28337035815E+01 -0.70133660318E+01 -0.41138467887E+01  0.86105118596E+01  0.00000000000E+00 0.  1.
</event>
<event>
 7    1  0.2430096E-009  0.4778727E+02  0.7816164E-02  0.1312668E+00
        -11   -1    0    0    0    0  0.00000000000E+00  0.00000000000E+00  0.45593999997E+02  0.45594000000E+02  0.51100000000E-03 0.  1.
         11   -1    0    0    0    0 -0.00000000000E+00 -0.00000000000E+00 -0.45593999997E+02  0.45594000000E+02  0.51100000000E-03 0. -1.
    9900012    2    1    2    0    0 -0.56000740967E-01 -0.53916780217E+01 -0.43064491114E+02  0.47787265872E+02  0.19999976415E+02 0.  0.
        -12    1    1    2    0    0  0.56000740967E-01  0.53916780217E+01  0.43064491114E+02  0.43400734128E+02  0.00000000000E+00 0.  1.
         11    1    3    3    0    0 -0.20368417473E+01  0.24581682868E+01 -0.19203666615E+02  0.19467206460E+02  0.51100000000E-03 0. -1.
        -11    1    3    3    0    0  0.65086873430E+01 -0.84321297839E+01 -0.15775631051E+02  0.19035082320E+02  0.51100000000E-03 0.  1.
        -12    1    3    3    0    0 -0.45278463367E+01  0.58228347531E+00 -0.80851934477E+01  0.92849770910E+01  0.00000000000E+00 0.  1.
</event>
<event>
 7    1  0.2430096E-009  0.4778727E+02  0.7816164E-02  0.1312668E+00
        -11   -1    0    0    0    0  0.00000000000E+00  0.00000000000E+00  0.45593999997E+02  0.45594000000E+02  0.51100000000E-03 0. -1.
         11   -1    0    0    0    0 -0.00000000000E+00 -0.00000000000E+00 -0.45593999997E+02  0.45594000000E+02  0.51100000000E-03 0.  1.
    9900012    2    1    2    0    0 -0.10480238922E+02  0.36271133582E+02  0.21405434605E+02  0.47787272243E+02  0.20000005466E+02 0.  0.
        -12    1    1    2    0    0  0.10480238922E+02 -0.36271133582E+02 -0.21405434605E+02  0.43400727757E+02  0.00000000000E+00 0.  1.
         11    1    3    3    0    0 -0.88600391913E+01  0.30737656733E+02  0.24276793804E+02  0.40158019792E+02  0.51100000000E-03 0. -1.
        -11    1    3    3    0    0 -0.30639160315E+00  0.31176635565E+01 -0.36120667849E+01  0.47812894272E+01  0.51100000000E-03 0.  1.
        -12    1    3    3    0    0 -0.13138081277E+01  0.24158132927E+01  0.74070758541E+00  0.28479630245E+01  0.00000000000E+00 0.  1.
</event>
<event>
 7    1  0.2430096E-009  0.4778727E+02  0.7816164E-02  0.1312668E+00
        -11   -1    0    0    0    0  0.00000000000E+00  0.00000000000E+00  0.45593999997E+02  0.45594000000E+02  0.51100000000E-03 0.  1.
         11   -1    0    0    0    0 -0.00000000000E+00 -0.00000000000E+00 -0.45593999997E+02  0.45594000000E+02  0.51100000000E-03 0. -1.
    9900012    2    1    2    0    0 -0.33841423758E+02 -0.20097836197E+02 -0.18288201106E+02  0.47787270957E+02  0.19999999601E+02 0.  0.
        -12    1    1    2    0    0  0.33841423758E+02  0.20097836197E+02  0.18288201106E+02  0.43400729043E+02  0.00000000000E+00 0.  1.
         11    1    3    3    0    0  0.21382369553E+01 -0.60690896963E+00  0.10570280260E+01  0.24612403952E+01  0.51100000000E-03 0. -1.
        -11    1    3    3    0    0 -0.39869985059E+01 -0.16629799330E+01 -0.13988338399E+01  0.45407483652E+01  0.51100000000E-03 0.  1.
         12    1    3    3    0    0 -0.31992662207E+02 -0.17827947294E+02 -0.17946395293E+02  0.40785282196E+02  0.00000000000E+00 0. -1.
</event>
<event>
 7    1  0.2430096E-009  0.4778726E+02  0.7816164E-02  0.1312668E+00
        -11   -1    0    0    0    0  0.00000000000E+00  0.00000000000E+00  0.45593999997E+02  0.45594000000E+02  0.51100000000E-03 0. -1.
         11   -1    0    0    0    0 -0.00000000000E+00 -0.00000000000E+00 -0.45593999997E+02  0.45594000000E+02  0.51100000000E-03 0.  1.
    9900012    2    1    2    0    0  0.31903560475E+02 -0.17020238292E+02 -0.24002052673E+02  0.47787260202E+02  0.19999950567E+02 0.  0.
        -12    1    1    2    0    0 -0.31903560475E+02  0.17020238292E+02  0.24002052673E+02  0.43400739798E+02  0.00000000000E+00 0.  1.
         11    1    3    3    0    0  0.31558374251E+01 -0.23746617537E+01  0.31215814371E+01  0.50341433459E+01  0.51100000000E-03 0. -1.
        -11    1    3    3    0    0  0.21011088274E+02 -0.93645022075E+01 -0.22963699705E+02  0.32503711118E+02  0.51100000000E-03 0.  1.
         12    1    3    3    0    0  0.77366347755E+01 -0.52810743304E+01 -0.41599344052E+01  0.10249405738E+02  0.00000000000E+00 0. -1.
</event>
<event>
 7    1  0.2509468E-009  0.4778727E+02  0.7816164E-02  0.1312668E+00
        -11   -1    0    0    0    0  0.00000000000E+00  0.00000000000E+00  0.45593999997E+02  0.45594000000E+02  0.51100000000E-03 0. -1.
         11   -1    0    0    0    0 -0.00000000000E+00 -0.00000000000E+00 -0.45593999997E+02  0.45594000000E+02  0.51100000000E-03 0.  1.
    9900012    2    1    2    0    0  0.36193622362E+02  0.21624224899E+02  0.10297473908E+02  0.47787269925E+02  0.19999994895E+02 0.  0.
        -12    1    1    2    0    0 -0.36193622362E+02 -0.21624224899E+02 -0.10297473908E+02  0.43400730075E+02  0.00000000000E+00 0.  1.
         11    1    3    3    0    0  0.18604999429E+02  0.13538100499E+02  0.91752808289E+01  0.24771191885E+02  0.51100000000E-03 0. -1.
        -11    1    3    3    0    0  0.80969896212E+00 -0.26412383569E+01 -0.11081670652E+01  0.29765394290E+01  0.51100000000E-03 0.  1.
        -12    1    3    3    0    0  0.16778923971E+02  0.10727362757E+02  0.22303601444E+01  0.20039538611E+02  0.00000000000E+00 0.  1.
</event>
<event>
 7    1  0.2430096E-009  0.4778727E+02  0.7816164E-02  0.1312668E+00
        -11   -1    0    0    0    0  0.00000000000E+00  0.00000000000E+00  0.45593999997E+02  0.45594000000E+02  0.51100000000E-03 0. -1.
         11   -1    0    0    0    0 -0.00000000000E+00 -0.00000000000E+00 -0.45593999997E+02  0.45594000000E+02  0.51100000000E-03 0.  1.
    9900012    2    1    2    0    0 -0.23004830155E+02 -0.24973615942E+01  0.36717358166E+02  0.47787269406E+02  0.19999992530E+02 0.  0.
        -12    1    1    2    0    0  0.23004830155E+02  0.24973615942E+01 -0.36717358166E+02  0.43400730594E+02  0.00000000000E+00 0.  1.
         11    1    3    3    0    0 -0.52963536142E+01  0.24455362575E+00 -0.58548774794E+00  0.53342257401E+01  0.51100000000E-03 0.  1.
        -11    1    3    3    0    0 -0.17425602199E+02 -0.48604309497E+01  0.34117569015E+02  0.38617145373E+02  0.51100000000E-03 0. -1.
         12    1    3    3    0    0 -0.28287434241E+00  0.21185157298E+01  0.31852768993E+01  0.38358982933E+01  0.00000000000E+00 0. -1.
</event>
<event>
 7    1  0.2430096E-009  0.4778727E+02  0.7816164E-02  0.1312668E+00
        -11   -1    0    0    0    0  0.00000000000E+00  0.00000000000E+00  0.45593999997E+02  0.45594000000E+02  0.51100000000E-03 0.  1.
         11   -1    0    0    0    0 -0.00000000000E+00 -0.00000000000E+00 -0.45593999997E+02  0.45594000000E+02  0.51100000000E-03 0. -1.
    9900012    2    1    2    0    0 -0.40445912485E+02 -0.15708557460E+02  0.99629480924E+00  0.47787271694E+02  0.20000002960E+02 0.  0.
        -12    1    1    2    0    0  0.40445912485E+02  0.15708557460E+02 -0.99629480924E+00  0.43400728306E+02  0.00000000000E+00 0.  1.
         11    1    3    3    0    0 -0.25635506259E+01 -0.72199495795E+01 -0.12845233637E+01  0.77684917632E+01  0.51100000000E-03 0. -1.
        -11    1    3    3    0    0 -0.20037991756E+02 -0.17639720931E+01  0.50748616374E+01  0.20745769016E+02  0.51100000000E-03 0.  1.
         12    1    3    3    0    0 -0.17844370103E+02 -0.67246357869E+01 -0.27940434645E+01  0.19273010914E+02  0.00000000000E+00 0. -1.
</event>
<event>
 7    1  0.2430096E-009  0.4778727E+02  0.7816164E-02  0.1312668E+00
        -11   -1    0    0    0    0  0.00000000000E+00  0.00000000000E+00  0.45593999997E+02  0.45594000000E+02  0.51100000000E-03 0.  1.
         11   -1    0    0    0    0 -0.00000000000E+00 -0.00000000000E+00 -0.45593999997E+02  0.45594000000E+02  0.51100000000E-03 0. -1.
    9900012    2    1    2    0    0  0.36823011379E+01 -0.16140930565E+02 -0.40119001597E+02  0.47787271085E+02  0.20000000186E+02 0.  0.
        -12    1    1    2    0    0 -0.36823011379E+01  0.16140930565E+02  0.40119001597E+02  0.43400728915E+02  0.00000000000E+00 0.  1.
         11    1    3    3    0    0 -0.51600507645E+00 -0.18598461086E+02 -0.36012039496E+02  0.40534380530E+02  0.51100000000E-03 0. -1.
        -11    1    3    3    0    0  0.20988770300E+01  0.10238894943E+01  0.10001988049E+00  0.23374427739E+01  0.51100000000E-03 0.  1.
         12    1    3    3    0    0  0.20994291843E+01  0.14336410273E+01 -0.42069819816E+01  0.49154477811E+01  0.00000000000E+00 0. -1.
</event>
<event>
 7    1  0.2430096E-009  0.4778727E+02  0.7816164E-02  0.1312668E+00
        -11   -1    0    0    0    0  0.00000000000E+00  0.00000000000E+00  0.45593999997E+02  0.45594000000E+02  0.51100000000E-03 0.  1.
         11   -1    0    0    0    0 -0.00000000000E+00 -0.00000000000E+00 -0.45593999997E+02  0.45594000000E+02  0.51100000000E-03 0. -1.
    9900012    2    1    2    0    0 -0.37708124660E+02  0.16633844489E+02 -0.13602776788E+02  0.47787274382E+02  0.20000015215E+02 0.  0.
        -12    1    1    2    0    0  0.37708124660E+02 -0.16633844489E+02  0.13602776788E+02  0.43400725618E+02  0.00000000000E+00 0.  1.
         11    1    3    3    0    0 -0.73673442500E+01 -0.30216160009E+01 -0.17093101821E+01  0.81443026782E+01  0.51100000000E-03 0. -1.
        -11    1    3    3    0    0 -0.11089718836E+02  0.12106474818E+02 -0.91160893772E+01  0.18779022396E+02  0.51100000000E-03 0.  1.
        -12    1    3    3    0    0 -0.19251061574E+02  0.75489856718E+01 -0.27773772286E+01  0.20863949307E+02  0.00000000000E+00 0.  1.
</event>
<event>
 7    1  0.2430096E-009  0.4778727E+02  0.7816164E-02  0.1312668E+00
        -11   -1    0    0    0    0  0.00000000000E+00  0.00000000000E+00  0.45593999997E+02  0.45594000000E+02  0.51100000000E-03 0.  1.
         11   -1    0    0    0    0 -0.00000000000E+00 -0.00000000000E+00 -0.45593999997E+02  0.45594000000E+02  0.51100000000E-03 0. -1.
    9900012    2    1    2    0    0 -0.28895663438E+02  0.10170400481E+02 -0.30744537451E+02  0.47787274262E+02  0.20000014671E+02 0.  0.
        -12    1    1    2    0    0  0.28895663438E+02 -0.10170400481E+02  0.30744537451E+02  0.43400725738E+02  0.00000000000E+00 0.  1.
         11    1    3    3    0    0 -0.14187951267E+02  0.23104949496E+01 -0.20896250731E+02  0.25363155225E+02  0.51100000000E-03 0. -1.
        -11    1    3    3    0    0 -0.91472356834E+01  0.47902322641E+01  0.43799116580E+00  0.10334896338E+02  0.51100000000E-03 0.  1.
        -12    1    3    3    0    0 -0.55604764875E+01  0.30696732675E+01 -0.10286277886E+02  0.12089222700E+02  0.00000000000E+00 0.  1.
</event>
<event>
 7    1  0.2430096E-009  0.4778728E+02  0.7816164E-02  0.1312668E+00
        -11   -1    0    0    0    0  0.00000000000E+00  0.00000000000E+00  0.45593999997E+02  0.45594000000E+02  0.51100000000E-03 0. -1.
         11   -1    0    0    0    0 -0.00000000000E+00 -0.00000000000E+00 -0.45593999997E+02  0.45594000000E+02  0.51100000000E-03 0.  1.
    9900012    2    1    2    0    0  0.26495673675E+01  0.14163454577E+02  0.40938967126E+02  0.47787277862E+02  0.20000031083E+02 0.  0.
        -12    1    1    2    0    0 -0.26495673675E+01 -0.14163454577E+02 -0.40938967126E+02  0.43400722138E+02  0.00000000000E+00 0.  1.
         11    1    3    3    0    0 -0.86608735086E-01  0.48549857157E+01  0.30397349896E+02  0.30782743028E+02  0.51100000000E-03 0. -1.
        -11    1    3    3    0    0  0.43752148770E+01  0.10005778555E+02  0.10604611165E+02  0.15222216919E+02  0.51100000000E-03 0.  1.
        -12    1    3    3    0    0 -0.16390387745E+01 -0.69730969305E+00 -0.62993935759E-01  0.17823179145E+01  0.00000000000E+00 0.  1.
</event>
<event>
 7    1  0.2430096E-009  0.4778727E+02  0.7816164E-02  0.1312668E+00
        -11   -1    0    0    0    0  0.00000000000E+00  0.00000000000E+00  0.45593999997E+02  0.45594000000E+02  0.51100000000E-03 0.  1.
         11   -1    0    0    0    0 -0.00000000000E+00 -0.00000000000E+00 -0.45593999997E+02  0.45594000000E+02  0.51100000000E-03 0. -1.
    9900012    2    1    2    0    0 -0.28772597123E+01  0.42140452026E+02 -0.99763258027E+01  0.47787269626E+02  0.19999993534E+02 0.  0.
        -12    1    1    2    0    0  0.28772597123E+01 -0.42140452026E+02  0.99763258027E+01  0.43400730374E+02  0.00000000000E+00 0.  1.
         11    1    3    3    0    0 -0.12012316300E+01  0.47197654744E+01 -0.46594618205E+01  0.67401578824E+01  0.51100000000E-03 0. -1.
        -11    1    3    3    0    0 -0.64891331636E+01  0.87279269294E+01 -0.49543638830E+01  0.11951204100E+02  0.51100000000E-03 0.  1.
        -12    1    3    3    0    0  0.48131050814E+01  0.28692759623E+02 -0.36250009924E+00  0.29095907644E+02  0.00000000000E+00 0.  1.
</event>
<event>
 7    1  0.2430096E-009  0.4778727E+02  0.7816164E-02  0.1312668E+00
        -11   -1    0    0    0    0  0.00000000000E+00  0.00000000000E+00  0.45593999997E+02  0.45594000000E+02  0.51100000000E-03 0. -1.
         11   -1    0    0    0    0 -0.00000000000E+00 -0.00000000000E+00 -0.45593999997E+02  0.45594000000E+02  0.51100000000E-03 0.  1.
    9900012    2    1    2    0    0 -0.39333388163E+02 -0.17057330191E+02  0.67494666968E+01  0.47787271454E+02  0.20000001868E+02 0.  0.
        -12    1    1    2    0    0  0.39333388163E+02  0.17057330191E+02 -0.67494666968E+01  0.43400728546E+02  0.00000000000E+00 0.  1.
         11    1    3    3    0    0 -0.24618929415E+02 -0.49311903882E+01  0.10507530248E+02  0.27217944749E+02  0.51100000000E-03 0. -1.
        -11    1    3    3    0    0 -0.12567496556E+01 -0.30215520356E+01 -0.27763041582E+01  0.42915103915E+01  0.51100000000E-03 0.  1.
         12    1    3    3    0    0 -0.13457709093E+02 -0.91045877670E+01 -0.98175939354E+00  0.16277816314E+02  0.00000000000E+00 0. -1.
</event>
<event>
 7    1  0.2430096E-009  0.4778727E+02  0.7816164E-02  0.1312668E+00
        -11   -1    0    0    0    0  0.00000000000E+00  0.00000000000E+00  0.45593999997E+02  0.45594000000E+02  0.51100000000E-03 0.  1.
         11   -1    0    0    0    0 -0.00000000000E+00 -0.00000000000E+00 -0.45593999997E+02  0.45594000000E+02  0.51100000000E-03 0. -1.
    9900012    2    1    2    0    0 -0.61991298557E+00 -0.77350123119E+01 -0.42701387143E+02  0.47787272224E+02  0.20000005379E+02 0.  0.
        -12    1    1    2    0    0  0.61991298557E+00  0.77350123119E+01  0.42701387143E+02  0.43400727776E+02  0.00000000000E+00 0.  1.
         11    1    3    3    0    0  0.18218930196E+01 -0.18816194535E+00 -0.46526334741E+01  0.50001697569E+01  0.51100000000E-03 0. -1.
        -11    1    3    3    0    0  0.77039785946E+01 -0.36792232928E+01 -0.19628967349E+02  0.21405240706E+02  0.51100000000E-03 0.  1.
        -12    1    3    3    0    0 -0.10145784600E+02 -0.38676270738E+01 -0.18419786319E+02  0.21381861761E+02  0.00000000000E+00 0.  1.
</event>
<event>
 7    1  0.2430096E-009  0.4778727E+02  0.7816164E-02  0.1312668E+00
        -11   -1    0    0    0    0  0.00000000000E+00  0.00000000000E+00  0.45593999997E+02  0.45594000000E+02  0.51100000000E-03 0.  1.
         11   -1    0    0    0    0 -0.00000000000E+00 -0.00000000000E+00 -0.45593999997E+02  0.45594000000E+02  0.51100000000E-03 0. -1.
    9900012    2    1    2    0    0  0.86421300515E+01  0.37408676639E+02 -0.20236790682E+02  0.47787271932E+02  0.20000004049E+02 0.  0.
        -12    1    1    2    0    0 -0.86421300515E+01 -0.37408676639E+02  0.20236790682E+02  0.43400728068E+02  0.00000000000E+00 0.  1.
         11    1    3    3    0    0  0.10811260164E+02  0.11755403719E+02 -0.11351428197E+02  0.19594075260E+02  0.51100000000E-03 0. -1.
        -11    1    3    3    0    0  0.81882242280E+00  0.21484887978E+02 -0.60619410549E+01  0.22338711047E+02  0.51100000000E-03 0.  1.
         12    1    3    3    0    0 -0.29879525352E+01  0.41683849417E+01 -0.28234214303E+01  0.58544856263E+01  0.00000000000E+00 0. -1.
</event>
<event>
 7    1  0.2430096E-009  0.4778727E+02  0.7816164E-02  0.1312668E+00
        -11   -1    0    0    0    0  0.00000000000E+00  0.00000000000E+00  0.45593999997E+02  0.45594000000E+02  0.51100000000E-03 0.  1.
         11   -1    0    0    0    0 -0.00000000000E+00 -0.00000000000E+00 -0.45593999997E+02  0.45594000000E+02  0.51100000000E-03 0. -1.
    9900012    2    1    2    0    0 -0.28509607035E+02 -0.29914299274E+02  0.13265008123E+02  0.47787269190E+02  0.19999991546E+02 0.  0.
        -12    1    1    2    0    0  0.28509607035E+02  0.29914299274E+02 -0.13265008123E+02  0.43400730810E+02  0.00000000000E+00 0.  1.
         11    1    3    3    0    0 -0.14672670430E+02 -0.10146622601E+02  0.14032851438E+02  0.22697183250E+02  0.51100000000E-03 0. -1.
        -11    1    3    3    0    0 -0.13068081645E+02 -0.13741882554E+02  0.28111541672E-01  0.18963514562E+02  0.51100000000E-03 0.  1.
        -12    1    3    3    0    0 -0.76885495926E+00 -0.60257941195E+01 -0.79595485691E+00  0.61265713783E+01  0.00000000000E+00 0.  1.
</event>
<event>
 7    1  0.2430096E-009  0.4778727E+02  0.7816164E-02  0.1312668E+00
        -11   -1    0    0    0    0  0.00000000000E+00  0.00000000000E+00  0.45593999997E+02  0.45594000000E+02  0.51100000000E-03 0.  1.
         11   -1    0    0    0    0 -0.00000000000E+00 -0.00000000000E+00 -0.45593999997E+02  0.45594000000E+02  0.51100000000E-03 0. -1.
    9900012    2    1    2    0    0 -0.89152805653E+01  0.24426588645E+02 -0.34748852315E+02  0.47787271923E+02  0.20000004007E+02 0.  0.
        -12    1    1    2    0    0  0.89152805653E+01 -0.24426588645E+02  0.34748852315E+02  0.43400728077E+02  0.00000000000E+00 0.  1.
         11    1    3    3    0    0 -0.32007057750E+00  0.23797999430E+02 -0.27779047844E+02  0.36580359777E+02  0.51100000000E-03 0. -1.
        -11    1    3    3    0    0 -0.45300362433E+01  0.95444657396E+00 -0.43980155698E+01  0.63855099907E+01  0.51100000000E-03 0.  1.
         12    1    3    3    0    0 -0.40651737444E+01 -0.32585735892E+00 -0.25717889011E+01  0.48214021552E+01  0.00000000000E+00 0. -1.
</event>
<event>
 7    1  0.2430096E-009  0.4778727E+02  0.7816164E-02  0.1312668E+00
        -11   -1    0    0    0    0  0.00000000000E+00  0.00000000000E+00  0.45593999997E+02  0.45594000000E+02  0.51100000000E-03 0.  1.
         11   -1    0    0    0    0 -0.00000000000E+00 -0.00000000000E+00 -0.45593999997E+02  0.45594000000E+02  0.51100000000E-03 0. -1.
    9900012    2    1    2    0    0 -0.68204024883E+01 -0.14604802929E+02 -0.40296464714E+02  0.47787271582E+02  0.20000002452E+02 0.  0.
        -12    1    1    2    0    0  0.68204024883E+01  0.14604802929E+02  0.40296464714E+02  0.43400728418E+02  0.00000000000E+00 0.  1.
         11    1    3    3    0    0 -0.86218947954E+01 -0.16980576496E+02 -0.33019273320E+02  0.38117574146E+02  0.51100000000E-03 0. -1.
        -11    1    3    3    0    0  0.30162699126E+01  0.16547318617E+01 -0.74888356007E+01  0.82412790655E+01  0.51100000000E-03 0.  1.
         12    1    3    3    0    0 -0.12147776055E+01  0.72104170484E+00  0.21164420599E+00  0.14284183704E+01  0.00000000000E+00 0. -1.
</event>
<event>
 7    1  0.2430096E-009  0.4778727E+02  0.7816164E-02  0.1312668E+00
        -11   -1    0    0    0    0  0.00000000000E+00  0.00000000000E+00  0.45593999997E+02  0.45594000000E+02  0.51100000000E-03 0.  1.
         11   -1    0    0    0    0 -0.00000000000E+00 -0.00000000000E+00 -0.45593999997E+02  0.45594000000E+02  0.51100000000E-03 0. -1.
    9900012    2    1    2    0    0 -0.39726037659E+02  0.14362486975E+02 -0.99591346434E+01  0.47787268865E+02  0.19999990063E+02 0.  0.
        -12    1    1    2    0    0  0.39726037659E+02 -0.14362486975E+02  0.99591346434E+01  0.43400731135E+02  0.00000000000E+00 0.  1.
         11    1    3    3    0    0 -0.15220855663E+02  0.54242181295E+01 -0.27231757923E+01  0.16386344196E+02  0.51100000000E-03 0. -1.
        -11    1    3    3    0    0 -0.21952866077E+02  0.10248773383E+01 -0.70645887688E+01  0.23084347885E+02  0.51100000000E-03 0.  1.
        -12    1    3    3    0    0 -0.25523159190E+01  0.79133915076E+01 -0.17137008223E+00  0.83165767842E+01  0.00000000000E+00 0.  1.
</event>
<event>
 7    1  0.2451699E-009  0.4778727E+02  0.7816164E-02  0.1312668E+00
        -11   -1    0    0    0    0  0.00000000000E+00  0.00000000000E+00  0.45593999997E+02  0.45594000000E+02  0.51100000000E-03 0. -1.
         11   -1    0    0    0    0 -0.00000000000E+00 -0.00000000000E+00 -0.45593999997E+02  0.45594000000E+02  0.51100000000E-03 0.  1.
    9900012    2    1    2    0    0 -0.39145425197E+02 -0.18720886027E+02  0.88737093867E+00  0.47787270575E+02  0.19999997858E+02 0.  0.
        -12    1    1    2    0    0  0.39145425197E+02  0.18720886027E+02 -0.88737093867E+00  0.43400729425E+02  0.00000000000E+00 0.  1.
         11    1    3    3    0    0 -0.21095263360E+02 -0.37363504784E+01 -0.49992837494E+01  0.21999165652E+02  0.51100000000E-03 0.  1.
        -11    1    3    3    0    0 -0.18851794694E+02 -0.14543507002E+02  0.46660279780E+01  0.24262637459E+02  0.51100000000E-03 0. -1.
        -12    1    3    3    0    0  0.80163285747E+00 -0.44102854682E+00  0.12206267101E+01  0.15254674637E+01  0.00000000000E+00 0.  1.
</event>
<event>
 7    1  0.2430096E-009  0.4778727E+02  0.7816164E-02  0.1312668E+00
        -11   -1    0    0    0    0  0.00000000000E+00  0.00000000000E+00  0.45593999997E+02  0.45594000000E+02  0.51100000000E-03 0.  1.
         11   -1    0    0    0    0 -0.00000000000E+00 -0.00000000000E+00 -0.45593999997E+02  0.45594000000E+02  0.51100000000E-03 0. -1.
    9900012    2    1    2    0    0 -0.24491641144E+02 -0.10828803300E+02 -0.34154349090E+02  0.47787273870E+02  0.20000012882E+02 0.  0.
        -12    1    1    2    0    0  0.24491641144E+02  0.10828803300E+02  0.34154349090E+02  0.43400726130E+02  0.00000000000E+00 0.  1.
         11    1    3    3    0    0 -0.19762657337E+02 -0.47928156082E+01 -0.16093930766E+02  0.25933536478E+02  0.51100000000E-03 0. -1.
        -11    1    3    3    0    0  0.26175688836E+01 -0.37118071874E+01 -0.77381324594E+01  0.89726179946E+01  0.51100000000E-03 0.  1.
        -12    1    3    3    0    0 -0.73465526906E+01 -0.23241805041E+01 -0.10322285865E+02  0.12881119397E+02  0.00000000000E+00 0.  1.
</event>
<event>
 7    1  0.2430096E-009  0.4778727E+02  0.7816164E-02  0.1312668E+00
        -11   -1    0    0    0    0  0.00000000000E+00  0.00000000000E+00  0.45593999997E+02  0.45594000000E+02  0.51100000000E-03 0.  1.
         11   -1    0    0    0    0 -0.00000000000E+00 -0.00000000000E+00 -0.45593999997E+02  0.45594000000E+02  0.51100000000E-03 0. -1.
    9900012    2    1    2    0    0  0.21594484881E+02  0.23257061142E+02 -0.29604233116E+02  0.47787270875E+02  0.19999999227E+02 0.  0.
        -12    1    1    2    0    0 -0.21594484881E+02 -0.23257061142E+02  0.29604233116E+02  0.43400729125E+02  0.00000000000E+00 0.  1.
         11    1    3    3    0    0  0.15522230965E+02  0.53755818101E+01 -0.17921930040E+02  0.24311151979E+02  0.51100000000E-03 0. -1.
        -11    1    3    3    0    0  0.56459899618E+00  0.11763485264E+02 -0.89865553745E+01  0.14814065457E+02  0.51100000000E-03 0.  1.
         12    1    3    3    0    0  0.55076549198E+01  0.61179940670E+01 -0.26957477020E+01  0.86620534397E+01  0.00000000000E+00 0. -1.
</event>
<event>
 7    1  0.2430096E-009  0.4778727E+02  0.7816164E-02  0.1312668E+00
        -11   -1    0    0    0    0  0.00000000000E+00  0.00000000000E+00  0.45593999997E+02  0.45594000000E+02  0.51100000000E-03 0.  1.
         11   -1    0    0    0    0 -0.00000000000E+00 -0.00000000000E+00 -0.45593999997E+02  0.45594000000E+02  0.51100000000E-03 0. -1.
    9900012    2    1    2    0    0  0.69409357546E+01 -0.18525721240E+02 -0.38629582976E+02  0.47787267086E+02  0.19999981951E+02 0.  0.
        -12    1    1    2    0    0 -0.69409357546E+01  0.18525721240E+02  0.38629582976E+02  0.43400732914E+02  0.00000000000E+00 0.  1.
         11    1    3    3    0    0 -0.24916112346E+01 -0.44822194650E+01 -0.12847421543E+02  0.13833100102E+02  0.51100000000E-03 0. -1.
        -11    1    3    3    0    0  0.95120576416E+01 -0.19087016630E+01 -0.14057720276E+02  0.17080453221E+02  0.51100000000E-03 0.  1.
        -12    1    3    3    0    0 -0.79510652395E-01 -0.12134800112E+02 -0.11724441157E+02  0.16873713763E+02  0.00000000000E+00 0.  1.
</event>
<event>
 7    1  0.2430096E-009  0.4778726E+02  0.7816164E-02  0.1312668E+00
        -11   -1    0    0    0    0  0.00000000000E+00  0.00000000000E+00  0.45593999997E+02  0.45594000000E+02  0.51100000000E-03 0.  1.
         11   -1    0    0    0    0 -0.00000000000E+00 -0.00000000000E+00 -0.45593999997E+02  0.45594000000E+02  0.51100000000E-03 0. -1.
    9900012    2    1    2    0    0  0.32653189241E+02 -0.23061669896E+02  0.16898303034E+02  0.47787262317E+02  0.19999960209E+02 0.  0.
        -12    1    1    2    0    0 -0.32653189241E+02  0.23061669896E+02 -0.16898303034E+02  0.43400737683E+02  0.00000000000E+00 0.  1.
         11    1    3    3    0    0  0.11381954276E+02 -0.63163664333E+01 -0.10526543970E+01  0.13059611387E+02  0.51100000000E-03 0. -1.
        -11    1    3    3    0    0  0.11498698530E+02 -0.13416257853E+02  0.16727216162E+02  0.24331374878E+02  0.51100000000E-03 0.  1.
        -12    1    3    3    0    0  0.97725364355E+01 -0.33290456094E+01  0.12237412697E+01  0.10396276052E+02  0.00000000000E+00 0.  1.
</event>
<event>
 7    1  0.2430096E-009  0.4778727E+02  0.7816164E-02  0.1312668E+00
        -11   -1    0    0    0    0  0.00000000000E+00  0.00000000000E+00  0.45593999997E+02  0.45594000000E+02  0.51100000000E-03 0. -1.
         11   -1    0    0    0    0 -0.00000000000E+00 -0.00000000000E+00 -0.45593999997E+02  0.45594000000E+02  0.51100000000E-03 0.  1.
    9900012    2    1    2    0    0  0.27558994258E+02  0.15184234238E+02  0.29892540128E+02  0.47787273172E+02  0.20000009701E+02 0.  0.
        -12    1    1    2    0    0 -0.27558994258E+02 -0.15184234238E+02 -0.29892540128E+02  0.43400726828E+02  0.00000000000E+00 0.  1.
         11    1    3    3    0    0  0.19415781918E+02  0.66247551900E+01  0.96175637831E+01  0.22657393986E+02  0.51100000000E-03 0. -1.
        -11    1    3    3    0    0 -0.11282075527E+01  0.37072505158E+01  0.28732060166E+01  0.48240928416E+01  0.51100000000E-03 0.  1.
         12    1    3    3    0    0  0.92714198923E+01  0.48522285319E+01  0.17401770328E+02  0.20305786345E+02  0.00000000000E+00 0. -1.
</event>
<event>
 7    1  0.2430096E-009  0.4778727E+02  0.7816164E-02  0.1312668E+00
        -11   -1    0    0    0    0  0.00000000000E+00  0.00000000000E+00  0.45593999997E+02  0.45594000000E+02  0.51100000000E-03 0. -1.
         11   -1    0    0    0    0 -0.00000000000E+00 -0.00000000000E+00 -0.45593999997E+02  0.45594000000E+02  0.51100000000E-03 0.  1.
    9900012    2    1    2    0    0  0.29896467739E+02  0.30958181399E+02  0.56049308599E+01  0.47787273868E+02  0.20000012875E+02 0.  0.
        -12    1    1    2    0    0 -0.29896467739E+02 -0.30958181399E+02 -0.56049308599E+01  0.43400726132E+02  0.00000000000E+00 0.  1.
         11    1    3    3    0    0 -0.10689019767E+01  0.34375288261E+01 -0.24434212294E+01  0.43508003208E+01  0.51100000000E-03 0.  1.
        -11    1    3    3    0    0  0.20036180234E+02  0.11760953057E+02  0.68447933467E+01  0.24220233925E+02  0.51100000000E-03 0. -1.
        -12    1    3    3    0    0  0.10929189482E+02  0.15759699516E+02  0.12035587427E+01  0.19216239622E+02  0.00000000000E+00 0.  1.
</event>
<event>
 7    1  0.2430096E-009  0.4778728E+02  0.7816164E-02  0.1312668E+00
        -11   -1    0    0    0    0  0.00000000000E+00  0.00000000000E+00  0.45593999997E+02  0.45594000000E+02  0.51100000000E-03 0.  1.
         11   -1    0    0    0    0 -0.00000000000E+00 -0.00000000000E+00 -0.45593999997E+02  0.45594000000E+02  0.51100000000E-03 0. -1.
    9900012    2    1    2    0    0 -0.36119209937E+02  0.17164605749E+02 -0.16864218796E+02  0.47787275437E+02  0.20000020027E+02 0.  0.
        -12    1    1    2    0    0  0.36119209937E+02 -0.17164605749E+02  0.16864218796E+02  0.43400724563E+02  0.00000000000E+00 0.  1.
         11    1    3    3    0    0 -0.25058200153E+02  0.35855105065E+01 -0.96423644112E+01  0.27087718106E+02  0.51100000000E-03 0. -1.
        -11    1    3    3    0    0 -0.20539577992E+01  0.73309674068E+01 -0.75162003589E-01  0.76136374585E+01  0.51100000000E-03 0.  1.
        -12    1    3    3    0    0 -0.90070519855E+01  0.62481278353E+01 -0.71466923814E+01  0.13085919873E+02  0.00000000000E+00 0.  1.
</event>
<event>
 7    1  0.2430096E-009  0.4778726E+02  0.7816164E-02  0.1312668E+00
        -11   -1    0    0    0    0  0.00000000000E+00  0.00000000000E+00  0.45593999997E+02  0.45594000000E+02  0.51100000000E-03 0.  1.
         11   -1    0    0    0    0 -0.00000000000E+00 -0.00000000000E+00 -0.45593999997E+02  0.45594000000E+02  0.51100000000E-03 0. -1.
    9900012    2    1    2    0    0 -0.92338142452E+01  0.12632697228E+02 -0.40481793566E+02  0.47787262966E+02  0.19999963167E+02 0.  0.
        -12    1    1    2    0    0  0.92338142452E+01 -0.12632697228E+02  0.40481793566E+02  0.43400737034E+02  0.00000000000E+00 0.  1.
         11    1    3    3    0    0 -0.10853256281E+02  0.46935989270E+01 -0.34188566688E+02  0.36175698131E+02  0.51100000000E-03 0. -1.
        -11    1    3    3    0    0 -0.15677596814E+01  0.33658775659E+01 -0.82636711155E+00  0.38039302138E+01  0.51100000000E-03 0.  1.
         12    1    3    3    0    0  0.31872017176E+01  0.45732207348E+01 -0.54668597666E+01  0.78076346216E+01  0.00000000000E+00 0. -1.
</event>
<event>
 7    1  0.2430096E-009  0.4778726E+02  0.7816164E-02  0.1312668E+00
        -11   -1    0    0    0    0  0.00000000000E+00  0.00000000000E+00  0.45593999997E+02  0.45594000000E+02  0.51100000000E-03 0.  1.
         11   -1    0    0    0    0 -0.00000000000E+00 -0.00000000000E+00 -0.45593999997E+02  0.45594000000E+02  0.51100000000E-03 0. -1.
    9900012    2    1    2    0    0 -0.14163071419E+02  0.40601283940E+02 -0.58794027578E+01  0.47787260071E+02  0.19999949969E+02 0.  0.
        -12    1    1    2    0    0  0.14163071419E+02 -0.40601283940E+02  0.58794027578E+01  0.43400739929E+02  0.00000000000E+00 0.  1.
         11    1    3    3    0    0 -0.31146375593E+01  0.18024836847E+02 -0.30379195603E+00  0.18294480050E+02  0.51100000000E-03 0. -1.
        -11    1    3    3    0    0 -0.12260783369E+02  0.20388342413E+02 -0.88399043180E+01  0.25380213234E+02  0.51100000000E-03 0.  1.
        -12    1    3    3    0    0  0.12123495093E+01  0.21881046800E+01  0.32642935163E+01  0.41125667877E+01  0.00000000000E+00 0.  1.
</event>
<event>
 7    1  0.2430096E-009  0.4778728E+02  0.7816164E-02  0.1312668E+00
        -11   -1    0    0    0    0  0.00000000000E+00  0.00000000000E+00  0.45593999997E+02  0.45594000000E+02  0.51100000000E-03 0. -1.
         11   -1    0    0    0    0 -0.00000000000E+00 -0.00000000000E+00 -0.45593999997E+02  0.45594000000E+02  0.51100000000E-03 0.  1.
    9900012    2    1    2    0    0  0.30597651064E+02 -0.29960700645E+02  0.70542666485E+01  0.47787279824E+02  0.20000040032E+02 0.  0.
        -12    1    1    2    0    0 -0.30597651064E+02  0.29960700645E+02 -0.70542666485E+01  0.43400720176E+02  0.00000000000E+00 0.  1.
         11    1    3    3    0    0  0.56584985847E+00 -0.27463214864E+01 -0.41037559792E+01  0.49702395483E+01  0.51100000000E-03 0. -1.
        -11    1    3    3    0    0  0.20920095413E+00 -0.90547644296E+00  0.17026897564E+01  0.19397951685E+01  0.51100000000E-03 0.  1.
         12    1    3    3    0    0  0.29822600252E+02 -0.26308902716E+02  0.94553328713E+01  0.40877245108E+02  0.00000000000E+00 0. -1.
</event>
<event>
 7    1  0.2430096E-009  0.4778727E+02  0.7816164E-02  0.1312668E+00
        -11   -1    0    0    0    0  0.00000000000E+00  0.00000000000E+00  0.45593999997E+02  0.45594000000E+02  0.51100000000E-03 0. -1.
         11   -1    0    0    0    0 -0.00000000000E+00 -0.00000000000E+00 -0.45593999997E+02  0.45594000000E+02  0.51100000000E-03 0.  1.
    9900012    2    1    2    0    0 -0.32434824390E+02  0.18087269572E+02  0.22460098788E+02  0.47787271995E+02  0.20000004334E+02 0.  0.
        -12    1    1    2    0    0  0.32434824390E+02 -0.18087269572E+02 -0.22460098788E+02  0.43400728005E+02  0.00000000000E+00 0.  1.
         11    1    3    3    0    0 -0.17768056182E+02  0.68618621651E+01  0.19206571324E+02  0.27049609150E+02  0.51100000000E-03 0. -1.
        -11    1    3    3    0    0 -0.25769353892E+01  0.71363420708E+01  0.85999472720E-01  0.75878435884E+01  0.51100000000E-03 0.  1.
         12    1    3    3    0    0 -0.12089832819E+02  0.40890653364E+01  0.31675279914E+01  0.13149819257E+02  0.00000000000E+00 0. -1.
</event>
<event>
 7    1  0.2430096E-009  0.4778727E+02  0.7816164E-02  0.1312668E+00
        -11   -1    0    0    0    0  0.00000000000E+00  0.00000000000E+00  0.45593999997E+02  0.45594000000E+02  0.51100000000E-03 0.  1.
         11   -1    0    0    0    0 -0.00000000000E+00 -0.00000000000E+00 -0.45593999997E+02  0.45594000000E+02  0.51100000000E-03 0. -1.
    9900012    2    1    2    0    0 -0.27596945738E+02  0.48669600356E+01 -0.33141278648E+02  0.47787273457E+02  0.20000010999E+02 0.  0.
        -12    1    1    2    0    0  0.27596945738E+02 -0.48669600356E+01  0.33141278648E+02  0.43400726543E+02  0.00000000000E+00 0.  1.
         11    1    3    3    0    0 -0.10952083505E+02 -0.37810053346E+01 -0.22247281539E+02  0.25083573720E+02  0.51100000000E-03 0. -1.
        -11    1    3    3    0    0 -0.11585926792E+02  0.35026574088E+01 -0.40633310082E+01  0.12767653179E+02  0.51100000000E-03 0.  1.
         12    1    3    3    0    0 -0.50589354405E+01  0.51453079613E+01 -0.68306661007E+01  0.99360465572E+01  0.00000000000E+00 0. -1.
</event>
<event>
 7    1  0.2430096E-009  0.4778728E+02  0.7816164E-02  0.1312668E+00
        -11   -1    0    0    0    0  0.00000000000E+00  0.00000000000E+00  0.45593999997E+02  0.45594000000E+02  0.51100000000E-03 0.  1.
         11   -1    0    0    0    0 -0.00000000000E+00 -0.00000000000E+00 -0.45593999997E+02  0.45594000000E+02  0.51100000000E-03 0. -1.
    9900012    2    1    2    0    0 -0.13041025094E+02 -0.94375811884E+01 -0.40304914418E+02  0.47787281107E+02  0.20000045880E+02 0.  0.
        -12    1    1    2    0    0  0.13041025094E+02  0.94375811884E+01  0.40304914418E+02  0.43400718893E+02  0.00000000000E+00 0.  1.
         11    1    3    3    0    0  0.25059116538E+01 -0.86478530192E+01 -0.14757564234E+02  0.17287297575E+02  0.51100000000E-03 0. -1.
        -11    1    3    3    0    0 -0.15246317430E+02 -0.40419127513E+00 -0.21150238393E+02  0.26075777075E+02  0.51100000000E-03 0.  1.
        -12    1    3    3    0    0 -0.30061931804E+00 -0.38553689407E+00 -0.43971117910E+01  0.44242064569E+01  0.00000000000E+00 0.  1.
</event>
<event>
 7    1  0.2430096E-009  0.4778727E+02  0.7816164E-02  0.1312668E+00
        -11   -1    0    0    0    0  0.00000000000E+00  0.00000000000E+00  0.45593999997E+02  0.45594000000E+02  0.51100000000E-03 0.  1.
         11   -1    0    0    0    0 -0.00000000000E+00 -0.00000000000E+00 -0.45593999997E+02  0.45594000000E+02  0.51100000000E-03 0. -1.
    9900012    2    1    2    0    0  0.17911940525E+02  0.45385412366E+01 -0.39270692678E+02  0.47787271050E+02  0.20000000027E+02 0.  0.
        -12    1    1    2    0    0 -0.17911940525E+02 -0.45385412366E+01  0.39270692678E+02  0.43400728950E+02  0.00000000000E+00 0.  1.
         11    1    3    3    0    0  0.15028940253E+02  0.10133244383E+02 -0.25658481753E+02  0.31415113767E+02  0.51100000000E-03 0. -1.
        -11    1    3    3    0    0 -0.18511167483E+01 -0.33154742221E+01 -0.65290339985E+01  0.75529654936E+01  0.51100000000E-03 0.  1.
         12    1    3    3    0    0  0.47341170211E+01 -0.22792289240E+01 -0.70831769262E+01  0.88191917898E+01  0.00000000000E+00 0. -1.
</event>
<event>
 7    1  0.2430096E-009  0.4778727E+02  0.7816164E-02  0.1312668E+00
        -11   -1    0    0    0    0  0.00000000000E+00  0.00000000000E+00  0.45593999997E+02  0.45594000000E+02  0.51100000000E-03 0. -1.
         11   -1    0    0    0    0 -0.00000000000E+00 -0.00000000000E+00 -0.45593999997E+02  0.45594000000E+02  0.51100000000E-03 0.  1.
    9900012    2    1    2    0    0 -0.11891967083E+02 -0.40835176816E+02  0.86425062817E+01  0.47787268883E+02  0.19999990145E+02 0.  0.
        -12    1    1    2    0    0  0.11891967083E+02  0.40835176816E+02 -0.86425062817E+01  0.43400731117E+02  0.00000000000E+00 0.  1.
         11    1    3    3    0    0  0.17452648917E+01 -0.17529524805E+02  0.27482315252E+01  0.17829272734E+02  0.51100000000E-03 0. -1.
        -11    1    3    3    0    0 -0.15399912909E+02 -0.22799338495E+02  0.52189574434E+01  0.28003654591E+02  0.51100000000E-03 0.  1.
        -12    1    3    3    0    0  0.17626809341E+01 -0.50631351534E+00  0.67531731318E+00  0.19543415578E+01  0.00000000000E+00 0.  1.
</event>
<event>
 7    1  0.2430096E-009  0.4778727E+02  0.7816164E-02  0.1312668E+00
        -11   -1    0    0    0    0  0.00000000000E+00  0.00000000000E+00  0.45593999997E+02  0.45594000000E+02  0.51100000000E-03 0.  1.
         11   -1    0    0    0    0 -0.00000000000E+00 -0.00000000000E+00 -0.45593999997E+02  0.45594000000E+02  0.51100000000E-03 0. -1.
    9900012    2    1    2    0    0  0.37883368095E+02 -0.15217153926E+02 -0.14727930950E+02  0.47787270722E+02  0.19999998529E+02 0.  0.
        -12    1    1    2    0    0 -0.37883368095E+02  0.15217153926E+02  0.14727930950E+02  0.43400729278E+02  0.00000000000E+00 0.  1.
         11    1    3    3    0    0  0.10901597304E+02 -0.30397592845E+01  0.32624294340E+01  0.11778302355E+02  0.51100000000E-03 0. -1.
        -11    1    3    3    0    0  0.14207691331E+02 -0.52599069888E+01 -0.14709594336E+02  0.21116279982E+02  0.51100000000E-03 0.  1.
         12    1    3    3    0    0  0.12774079460E+02 -0.69174876524E+01 -0.32807660478E+01  0.14892688385E+02  0.00000000000E+00 0. -1.
</event>
<event>
 7    1  0.2430096E-009  0.4778727E+02  0.7816164E-02  0.1312668E+00
        -11   -1    0    0    0    0  0.00000000000E+00  0.00000000000E+00  0.45593999997E+02  0.45594000000E+02  0.51100000000E-03 0. -1.
         11   -1    0    0    0    0 -0.00000000000E+00 -0.00000000000E+00 -0.45593999997E+02  0.45594000000E+02  0.51100000000E-03 0.  1.
    9900012    2    1    2    0    0  0.33524648066E+02 -0.27562971211E+02  0.63293477846E-01  0.47787269407E+02  0.19999992536E+02 0.  0.
        -12    1    1    2    0    0 -0.33524648066E+02  0.27562971211E+02 -0.63293477846E-01  0.43400730593E+02  0.00000000000E+00 0.  1.
         11    1    3    3    0    0  0.90851328586E+01 -0.17511216732E+02 -0.13596212808E+01  0.19774501784E+02  0.51100000000E-03 0. -1.
        -11    1    3    3    0    0  0.50179084179E+01 -0.37441513824E+01  0.40015809915E+01  0.74303919922E+01  0.51100000000E-03 0.  1.
         12    1    3    3    0    0  0.19421606789E+02 -0.63076030959E+01 -0.25786662328E+01  0.20582375632E+02  0.00000000000E+00 0. -1.
</event>
<event>
 7    1  0.2430096E-009  0.4778727E+02  0.7816164E-02  0.1312668E+00
        -11   -1    0    0    0    0  0.00000000000E+00  0.00000000000E+00  0.45593999997E+02  0.45594000000E+02  0.51100000000E-03 0. -1.
         11   -1    0    0    0    0 -0.00000000000E+00 -0.00000000000E+00 -0.45593999997E+02  0.45594000000E+02  0.51100000000E-03 0.  1.
    9900012    2    1    2    0    0 -0.27864765630E+02  0.10223150895E+02  0.31664891452E+02  0.47787270415E+02  0.19999997132E+02 0.  0.
        -12    1    1    2    0    0  0.27864765630E+02 -0.10223150895E+02 -0.31664891452E+02  0.43400729585E+02  0.00000000000E+00 0.  1.
         11    1    3    3    0    0 -0.16147103495E+02  0.12886014703E+02  0.24364657401E+02  0.31943933020E+02  0.51100000000E-03 0. -1.
        -11    1    3    3    0    0  0.54781967046E+00 -0.65265779177E+00 -0.66506828694E+00  0.10809184391E+01  0.51100000000E-03 0.  1.
         12    1    3    3    0    0 -0.12265481805E+02 -0.20102060155E+01  0.79653023370E+01  0.14762418957E+02  0.00000000000E+00 0. -1.
</event>
<event>
 7    1  0.2430096E-009  0.4778727E+02  0.7816164E-02  0.1312668E+00
        -11   -1    0    0    0    0  0.00000000000E+00  0.00000000000E+00  0.45593999997E+02  0.45594000000E+02  0.51100000000E-03 0. -1.
         11   -1    0    0    0    0 -0.00000000000E+00 -0.00000000000E+00 -0.45593999997E+02  0.45594000000E+02  0.51100000000E-03 0.  1.
    9900012    2    1    2    0    0 -0.14547512577E+00 -0.21256781839E+02  0.37838495469E+02  0.47787266406E+02  0.19999978851E+02 0.  0.
        -12    1    1    2    0    0  0.14547512577E+00  0.21256781839E+02 -0.37838495469E+02  0.43400733594E+02  0.00000000000E+00 0.  1.
         11    1    3    3    0    0 -0.40825179748E+01 -0.18901464526E+02  0.24401727612E+02  0.31134813713E+02  0.51100000000E-03 0. -1.
        -11    1    3    3    0    0 -0.71144521063E+00  0.26823380525E+01  0.55359363295E+01  0.61925506071E+01  0.51100000000E-03 0.  1.
         12    1    3    3    0    0  0.46484880597E+01 -0.50376553658E+01  0.79008315269E+01  0.10459902086E+02  0.00000000000E+00 0. -1.
</event>
<event>
 7    1  0.2430096E-009  0.4778722E+02  0.7816164E-02  0.1312668E+00
        -11   -1    0    0    0    0  0.00000000000E+00  0.00000000000E+00  0.45593999997E+02  0.45594000000E+02  0.51100000000E-03 0.  1.
         11   -1    0    0    0    0 -0.00000000000E+00 -0.00000000000E+00 -0.45593999997E+02  0.45594000000E+02  0.51100000000E-03 0. -1.
    9900012    2    1    2    0    0  0.84975963270E+01 -0.29189500513E+02 -0.30974045762E+02  0.47787221269E+02  0.19999773054E+02 0.  0.
        -12    1    1    2    0    0 -0.84975963270E+01  0.29189500513E+02  0.30974045762E+02  0.43400778731E+02  0.00000000000E+00 0.  1.
         11    1    3    3    0    0  0.41047904134E+01 -0.95670557977E+01 -0.14520513006E+02  0.17866817265E+02  0.51100000000E-03 0. -1.
        -11    1    3    3    0    0 -0.72967702653E-01 -0.87449264462E+01 -0.15903023023E+02  0.18148972543E+02  0.51100000000E-03 0.  1.
        -12    1    3    3    0    0  0.44657736163E+01 -0.10877518269E+02 -0.55050973398E+00  0.11771431462E+02  0.00000000000E+00 0.  1.
</event>
<event>
 7    1  0.2430096E-009  0.4778727E+02  0.7816164E-02  0.1312668E+00
        -11   -1    0    0    0    0  0.00000000000E+00  0.00000000000E+00  0.45593999997E+02  0.45594000000E+02  0.51100000000E-03 0. -1.
         11   -1    0    0    0    0 -0.00000000000E+00 -0.00000000000E+00 -0.45593999997E+02  0.45594000000E+02  0.51100000000E-03 0.  1.
    9900012    2    1    2    0    0 -0.26043458066E+02  0.20022192275E+02  0.28363243264E+02  0.47787268900E+02  0.19999990223E+02 0.  0.
        -12    1    1    2    0    0  0.26043458066E+02 -0.20022192275E+02 -0.28363243264E+02  0.43400731100E+02  0.00000000000E+00 0.  1.
         11    1    3    3    0    0 -0.85292593938E+01  0.36758439707E+01  0.11491647137E+02  0.14775589629E+02  0.51100000000E-03 0. -1.
        -11    1    3    3    0    0 -0.95650862472E+01  0.17631630822E+02  0.14004707774E+02  0.24464200793E+02  0.51100000000E-03 0.  1.
        -12    1    3    3    0    0 -0.79491124253E+01 -0.12852825175E+01  0.28668883527E+01  0.85474784777E+01  0.00000000000E+00 0.  1.
</event>
<event>
 7    1  0.2430096E-009  0.4778727E+02  0.7816164E-02  0.1312668E+00
        -11   -1    0    0    0    0  0.00000000000E+00  0.00000000000E+00  0.45593999997E+02  0.45594000000E+02  0.51100000000E-03 0.  1.
         11   -1    0    0    0    0 -0.00000000000E+00 -0.00000000000E+00 -0.45593999997E+02  0.45594000000E+02  0.51100000000E-03 0. -1.
    9900012    2    1    2    0    0  0.24799314555E+01 -0.37718666485E+02 -0.21325465669E+02  0.47787270197E+02  0.19999996136E+02 0.  0.
        -12    1    1    2    0    0 -0.24799314555E+01  0.37718666485E+02  0.21325465669E+02  0.43400729803E+02  0.00000000000E+00 0.  1.
         11    1    3    3    0    0 -0.26877178949E+01 -0.33667239057E+02 -0.22229547443E+02  0.40433397000E+02  0.51100000000E-03 0. -1.
        -11    1    3    3    0    0  0.55866700072E+01 -0.39719908053E+01  0.96753159911E+00  0.69226953121E+01  0.51100000000E-03 0.  1.
         12    1    3    3    0    0 -0.41902065686E+00 -0.79436623333E-01 -0.63449824864E-01  0.43117788473E+00  0.00000000000E+00 0. -1.
</event>
<event>
 7    1  0.2430096E-009  0.4778727E+02  0.7816164E-02  0.1312668E+00
        -11   -1    0    0    0    0  0.00000000000E+00  0.00000000000E+00  0.45593999997E+02  0.45594000000E+02  0.51100000000E-03 0. -1.
         11   -1    0    0    0    0 -0.00000000000E+00 -0.00000000000E+00 -0.45593999997E+02  0.45594000000E+02  0.51100000000E-03 0.  1.
    9900012    2    1    2    0    0 -0.35824531002E+02 -0.12205853921E+02 -0.21242490468E+02  0.47787270827E+02  0.19999999011E+02 0.  0.
        -12    1    1    2    0    0  0.35824531002E+02  0.12205853921E+02  0.21242490468E+02  0.43400729173E+02  0.00000000000E+00 0.  1.
         11    1    3    3    0    0 -0.23387546377E+02  0.13899614221E+01 -0.11546671718E+02  0.26119627606E+02  0.51100000000E-03 0. -1.
        -11    1    3    3    0    0 -0.69322267155E+01 -0.11580180868E+02 -0.71915816622E+01  0.15292978887E+02  0.51100000000E-03 0.  1.
         12    1    3    3    0    0 -0.55047579093E+01 -0.20156344754E+01 -0.25042370880E+01  0.63746643340E+01  0.00000000000E+00 0. -1.
</event>
<event>
 7    1  0.2430096E-009  0.4778727E+02  0.7816164E-02  0.1312668E+00
        -11   -1    0    0    0    0  0.00000000000E+00  0.00000000000E+00  0.45593999997E+02  0.45594000000E+02  0.51100000000E-03 0.  1.
         11   -1    0    0    0    0 -0.00000000000E+00 -0.00000000000E+00 -0.45593999997E+02  0.45594000000E+02  0.51100000000E-03 0. -1.
    9900012    2    1    2    0    0  0.16816622534E+02  0.13228701942E+02 -0.37760115792E+02  0.47787266214E+02  0.19999977978E+02 0.  0.
        -12    1    1    2    0    0 -0.16816622534E+02 -0.13228701942E+02  0.37760115792E+02  0.43400733786E+02  0.00000000000E+00 0.  1.
         11    1    3    3    0    0  0.11143267628E+02  0.87831725298E+01 -0.19184261486E+02  0.23861106893E+02  0.51100000000E-03 0. -1.
        -11    1    3    3    0    0 -0.27913752162E+01 -0.31697923923E+00  0.16909828702E+00  0.28143997455E+01  0.51100000000E-03 0.  1.
        -12    1    3    3    0    0  0.84647301220E+01  0.47625086513E+01 -0.18744952593E+02  0.21111759576E+02  0.00000000000E+00 0.  1.
</event>
<event>
 7    1  0.2430096E-009  0.4778726E+02  0.7816164E-02  0.1312668E+00
        -11   -1    0    0    0    0  0.00000000000E+00  0.00000000000E+00  0.45593999997E+02  0.45594000000E+02  0.51100000000E-03 0.  1.
         11   -1    0    0    0    0 -0.00000000000E+00 -0.00000000000E+00 -0.45593999997E+02  0.45594000000E+02  0.51100000000E-03 0. -1.
    9900012    2    1    2    0    0  0.90622244050E+01  0.40307882679E+02 -0.13295658916E+02  0.47787264254E+02  0.19999969041E+02 0.  0.
        -12    1    1    2    0    0 -0.90622244050E+01 -0.40307882679E+02  0.13295658916E+02  0.43400735746E+02  0.00000000000E+00 0.  1.
         11    1    3    3    0    0  0.61196403159E+01  0.27251141337E+02 -0.69816918860E+01  0.28789211931E+02  0.51100000000E-03 0. -1.
        -11    1    3    3    0    0 -0.19878082675E+01  0.20497217995E+01  0.27087631665E+01  0.39357514298E+01  0.51100000000E-03 0.  1.
        -12    1    3    3    0    0  0.49303923565E+01  0.11007019543E+02 -0.90227301966E+01  0.15062300893E+02  0.00000000000E+00 0.  1.
</event>
<event>
 7    1  0.2430096E-009  0.4778728E+02  0.7816164E-02  0.1312668E+00
        -11   -1    0    0    0    0  0.00000000000E+00  0.00000000000E+00  0.45593999997E+02  0.45594000000E+02  0.51100000000E-03 0.  1.
         11   -1    0    0    0    0 -0.00000000000E+00 -0.00000000000E+00 -0.45593999997E+02  0.45594000000E+02  0.51100000000E-03 0. -1.
    9900012    2    1    2    0    0  0.36772174311E+02 -0.14895026969E+02 -0.17594539305E+02  0.47787280590E+02  0.20000043521E+02 0.  0.
        -12    1    1    2    0    0 -0.36772174311E+02  0.14895026969E+02  0.17594539305E+02  0.43400719410E+02  0.00000000000E+00 0.  1.
         11    1    3    3    0    0  0.24790664042E+02 -0.82644579123E+00 -0.71832231137E+01  0.25823608014E+02  0.51100000000E-03 0. -1.
        -11    1    3    3    0    0  0.48192846313E+01 -0.99961477939E+01 -0.61654861820E+01  0.12694947625E+02  0.51100000000E-03 0.  1.
         12    1    3    3    0    0  0.71622256378E+01 -0.40724333842E+01 -0.42458300096E+01  0.92687249515E+01  0.00000000000E+00 0. -1.
</event>
<event>
 7    1  0.2430096E-009  0.4778727E+02  0.7816164E-02  0.1312668E+00
        -11   -1    0    0    0    0  0.00000000000E+00  0.00000000000E+00  0.45593999997E+02  0.45594000000E+02  0.51100000000E-03 0.  1.
         11   -1    0    0    0    0 -0.00000000000E+00 -0.00000000000E+00 -0.45593999997E+02  0.45594000000E+02  0.51100000000E-03 0. -1.
    9900012    2    1    2    0    0  0.32953704295E+02  0.25855895936E+02 -0.11364389469E+02  0.47787270404E+02  0.19999997080E+02 0.  0.
        -12    1    1    2    0    0 -0.32953704295E+02 -0.25855895936E+02  0.11364389469E+02  0.43400729596E+02  0.00000000000E+00 0.  1.
         11    1    3    3    0    0  0.28952398701E+01  0.35225549396E+01 -0.26520113858E+01  0.52748433019E+01  0.51100000000E-03 0. -1.
        -11    1    3    3    0    0  0.88056424217E+01  0.11639172663E+02 -0.11468332872E+02  0.18561582310E+02  0.51100000000E-03 0.  1.
        -12    1    3    3    0    0  0.21252822004E+02  0.10694168334E+02  0.27559547886E+01  0.23950844792E+02  0.00000000000E+00 0.  1.
</event>
<event>
 7    1  0.2430096E-009  0.4778727E+02  0.7816164E-02  0.1312668E+00
        -11   -1    0    0    0    0  0.00000000000E+00  0.00000000000E+00  0.45593999997E+02  0.45594000000E+02  0.51100000000E-03 0.  1.
         11   -1    0    0    0    0 -0.00000000000E+00 -0.00000000000E+00 -0.45593999997E+02  0.45594000000E+02  0.51100000000E-03 0. -1.
    9900012    2    1    2    0    0  0.15209644382E+02  0.21579201962E+02 -0.34447465150E+02  0.47787273107E+02  0.20000009405E+02 0.  0.
        -12    1    1    2    0    0 -0.15209644382E+02 -0.21579201962E+02  0.34447465150E+02  0.43400726893E+02  0.00000000000E+00 0.  1.
         11    1    3    3    0    0  0.11591820556E+02  0.16598723653E+02 -0.16256010387E+02  0.25964317913E+02  0.51100000000E-03 0. -1.
        -11    1    3    3    0    0  0.41725319892E+01  0.48843351513E+01 -0.19428958658E+02  0.20463410953E+02  0.51100000000E-03 0.  1.
         12    1    3    3    0    0 -0.55470816408E+00  0.96143157390E-01  0.12375038942E+01  0.13595442406E+01  0.00000000000E+00 0. -1.
</event>
<event>
 7    1  0.2430096E-009  0.4778727E+02  0.7816164E-02  0.1312668E+00
        -11   -1    0    0    0    0  0.00000000000E+00  0.00000000000E+00  0.45593999997E+02  0.45594000000E+02  0.51100000000E-03 0. -1.
         11   -1    0    0    0    0 -0.00000000000E+00 -0.00000000000E+00 -0.45593999997E+02  0.45594000000E+02  0.51100000000E-03 0.  1.
    9900012    2    1    2    0    0 -0.32640748777E+02 -0.16039407082E+02  0.23684216759E+02  0.47787272083E+02  0.20000004734E+02 0.  0.
        -12    1    1    2    0    0  0.32640748777E+02  0.16039407082E+02 -0.23684216759E+02  0.43400727917E+02  0.00000000000E+00 0.  1.
         11    1    3    3    0    0 -0.15341880266E+02 -0.66635307896E+01  0.59206315214E+00  0.16736979170E+02  0.51100000000E-03 0.  1.
        -11    1    3    3    0    0 -0.51392935891E+01 -0.62265306540E+01  0.10713594708E+02  0.13415033895E+02  0.51100000000E-03 0. -1.
        -12    1    3    3    0    0 -0.12159574922E+02 -0.31493456387E+01  0.12378558899E+02  0.17635259018E+02  0.00000000000E+00 0.  1.
</event>
<event>
 7    1  0.2430096E-009  0.4778727E+02  0.7816164E-02  0.1312668E+00
        -11   -1    0    0    0    0  0.00000000000E+00  0.00000000000E+00  0.45593999997E+02  0.45594000000E+02  0.51100000000E-03 0.  1.
         11   -1    0    0    0    0 -0.00000000000E+00 -0.00000000000E+00 -0.45593999997E+02  0.45594000000E+02  0.51100000000E-03 0. -1.
    9900012    2    1    2    0    0  0.25230017915E+02 -0.18952183556E+02 -0.29797382322E+02  0.47787273522E+02  0.20000011298E+02 0.  0.
        -12    1    1    2    0    0 -0.25230017915E+02  0.18952183556E+02  0.29797382322E+02  0.43400726478E+02  0.00000000000E+00 0.  1.
         11    1    3    3    0    0  0.16571397507E+02 -0.25938835644E+01 -0.10031937486E+02  0.19544288610E+02  0.51100000000E-03 0. -1.
        -11    1    3    3    0    0  0.37096461601E+01 -0.49968198824E+01 -0.12275300250E+02  0.13762727929E+02  0.51100000000E-03 0.  1.
         12    1    3    3    0    0  0.49489742477E+01 -0.11361480109E+02 -0.74901445857E+01  0.14480256983E+02  0.00000000000E+00 0. -1.
</event>
<event>
 7    1  0.2430096E-009  0.4778727E+02  0.7816164E-02  0.1312668E+00
        -11   -1    0    0    0    0  0.00000000000E+00  0.00000000000E+00  0.45593999997E+02  0.45594000000E+02  0.51100000000E-03 0. -1.
         11   -1    0    0    0    0 -0.00000000000E+00 -0.00000000000E+00 -0.45593999997E+02  0.45594000000E+02  0.51100000000E-03 0.  1.
    9900012    2    1    2    0    0  0.91238599123E+01  0.24062786619E+02  0.34947972674E+02  0.47787270587E+02  0.19999997915E+02 0.  0.
        -12    1    1    2    0    0 -0.91238599123E+01 -0.24062786619E+02 -0.34947972674E+02  0.43400729413E+02  0.00000000000E+00 0.  1.
         11    1    3    3    0    0  0.11505327552E+01  0.21650821264E+02  0.25635644521E+02  0.33574812841E+02  0.51100000000E-03 0. -1.
        -11    1    3    3    0    0  0.78694405662E+01  0.25660092821E+01  0.10296446103E+02  0.13210953829E+02  0.51100000000E-03 0.  1.
        -12    1    3    3    0    0  0.10388659093E+00 -0.15404392726E+00 -0.98411795060E+00  0.10015039171E+01  0.00000000000E+00 0.  1.
</event>
<event>
 7    1  0.2430096E-009  0.4778727E+02  0.7816164E-02  0.1312668E+00
        -11   -1    0    0    0    0  0.00000000000E+00  0.00000000000E+00  0.45593999997E+02  0.45594000000E+02  0.51100000000E-03 0.  1.
         11   -1    0    0    0    0 -0.00000000000E+00 -0.00000000000E+00 -0.45593999997E+02  0.45594000000E+02  0.51100000000E-03 0. -1.
    9900012    2    1    2    0    0 -0.16523837826E+02 -0.28363096515E+02 -0.28392262399E+02  0.47787273917E+02  0.20000013097E+02 0.  0.
        -12    1    1    2    0    0  0.16523837826E+02  0.28363096515E+02  0.28392262399E+02  0.43400726083E+02  0.00000000000E+00 0.  1.
         11    1    3    3    0    0 -0.80696889588E+01 -0.20261394771E+02 -0.22039585907E+02  0.31006246873E+02  0.51100000000E-03 0. -1.
        -11    1    3    3    0    0 -0.53405287985E+01  0.85588072335E+00 -0.76929202992E-01  0.54092234215E+01  0.51100000000E-03 0.  1.
        -12    1    3    3    0    0 -0.31136200686E+01 -0.89575824674E+01 -0.62757472896E+01  0.11371803623E+02  0.00000000000E+00 0.  1.
</event>
<event>
 7    1  0.2430096E-009  0.4778727E+02  0.7816164E-02  0.1312668E+00
        -11   -1    0    0    0    0  0.00000000000E+00  0.00000000000E+00  0.45593999997E+02  0.45594000000E+02  0.51100000000E-03 0. -1.
         11   -1    0    0    0    0 -0.00000000000E+00 -0.00000000000E+00 -0.45593999997E+02  0.45594000000E+02  0.51100000000E-03 0.  1.
    9900012    2    1    2    0    0 -0.32697619606E+02  0.27650905658E+02  0.70651539939E+01  0.47787270599E+02  0.19999997970E+02 0.  0.
        -12    1    1    2    0    0  0.32697619606E+02 -0.27650905658E+02 -0.70651539939E+01  0.43400729401E+02  0.00000000000E+00 0.  1.
         11    1    3    3    0    0 -0.23717662743E+01  0.94321169059E+01  0.59915811587E+01  0.11423184741E+02  0.51100000000E-03 0. -1.
        -11    1    3    3    0    0 -0.85033374378E+01  0.23119689686E+01 -0.24101631572E+01  0.91356901654E+01  0.51100000000E-03 0.  1.
         12    1    3    3    0    0 -0.21822515893E+02  0.15906819783E+02  0.34837359924E+01  0.27228395693E+02  0.00000000000E+00 0. -1.
</event>
<event>
 7    1  0.2430096E-009  0.4778727E+02  0.7816164E-02  0.1312668E+00
        -11   -1    0    0    0    0  0.00000000000E+00  0.00000000000E+00  0.45593999997E+02  0.45594000000E+02  0.51100000000E-03 0. -1.
         11   -1    0    0    0    0 -0.00000000000E+00 -0.00000000000E+00 -0.45593999997E+02  0.45594000000E+02  0.51100000000E-03 0.  1.
    9900012    2    1    2    0    0  0.60600768829E+00  0.31047176009E+02  0.30320441765E+02  0.47787267607E+02  0.19999984327E+02 0.  0.
        -12    1    1    2    0    0 -0.60600768829E+00 -0.31047176009E+02 -0.30320441765E+02  0.43400732393E+02  0.00000000000E+00 0.  1.
         11    1    3    3    0    0  0.33537304039E+01  0.89305824556E+01  0.19382312895E+02  0.21602705017E+02  0.51100000000E-03 0. -1.
        -11    1    3    3    0    0 -0.41709536389E+01  0.15240925817E+02  0.39701214860E+01  0.16292468778E+02  0.51100000000E-03 0.  1.
         12    1    3    3    0    0  0.14232309233E+01  0.68756677359E+01  0.69680073841E+01  0.98920938118E+01  0.00000000000E+00 0. -1.
</event>
<event>
 7    1  0.2430096E-009  0.4778727E+02  0.7816164E-02  0.1312668E+00
        -11   -1    0    0    0    0  0.00000000000E+00  0.00000000000E+00  0.45593999997E+02  0.45594000000E+02  0.51100000000E-03 0.  1.
         11   -1    0    0    0    0 -0.00000000000E+00 -0.00000000000E+00 -0.45593999997E+02  0.45594000000E+02  0.51100000000E-03 0. -1.
    9900012    2    1    2    0    0  0.66149417996E+01 -0.40096376069E+02 -0.15236357886E+02  0.47787269240E+02  0.19999991775E+02 0.  0.
        -12    1    1    2    0    0 -0.66149417996E+01  0.40096376069E+02  0.15236357886E+02  0.43400730760E+02  0.00000000000E+00 0.  1.
         11    1    3    3    0    0  0.12163610151E+02 -0.30960418707E+02 -0.70295964383E+01  0.33998767106E+02  0.51100000000E-03 0. -1.
        -11    1    3    3    0    0 -0.47871790461E+01 -0.52992637432E+01 -0.48335860884E+01  0.86233887871E+01  0.51100000000E-03 0.  1.
         12    1    3    3    0    0 -0.76148930520E+00 -0.38366936190E+01 -0.33731753587E+01  0.51651133472E+01  0.00000000000E+00 0. -1.
</event>
<event>
 7    1  0.2430096E-009  0.4778727E+02  0.7816164E-02  0.1312668E+00
        -11   -1    0    0    0    0  0.00000000000E+00  0.00000000000E+00  0.45593999997E+02  0.45594000000E+02  0.51100000000E-03 0.  1.
         11   -1    0    0    0    0 -0.00000000000E+00 -0.00000000000E+00 -0.45593999997E+02  0.45594000000E+02  0.51100000000E-03 0. -1.
    9900012    2    1    2    0    0  0.81329012710E+01  0.35219703625E+02 -0.24021907638E+02  0.47787266676E+02  0.19999980083E+02 0.  0.
        -12    1    1    2    0    0 -0.81329012710E+01 -0.35219703625E+02  0.24021907638E+02  0.43400733324E+02  0.00000000000E+00 0.  1.
         11    1    3    3    0    0  0.19843115774E+00  0.18473924042E+02 -0.83352619726E+01  0.20268247010E+02  0.51100000000E-03 0. -1.
        -11    1    3    3    0    0  0.98885358353E+01  0.14831950444E+02 -0.16866016816E+02  0.24540424170E+02  0.51100000000E-03 0.  1.
        -12    1    3    3    0    0 -0.19540657221E+01  0.19138291391E+01  0.11793711510E+01  0.29785954965E+01  0.00000000000E+00 0.  1.
</event>
<event>
 7    1  0.2430096E-009  0.4778730E+02  0.7816164E-02  0.1312668E+00
        -11   -1    0    0    0    0  0.00000000000E+00  0.00000000000E+00  0.45593999997E+02  0.45594000000E+02  0.51100000000E-03 0.  1.
         11   -1    0    0    0    0 -0.00000000000E+00 -0.00000000000E+00 -0.45593999997E+02  0.45594000000E+02  0.51100000000E-03 0. -1.
    9900012    2    1    2    0    0  0.98309463045E+01  0.16425004594E+01 -0.42240689838E+02  0.47787295041E+02  0.20000109408E+02 0.  0.
        -12    1    1    2    0    0 -0.98309463045E+01 -0.16425004594E+01  0.42240689838E+02  0.43400704959E+02  0.00000000000E+00 0.  1.
         11    1    3    3    0    0 -0.26770757366E-01 -0.64957136361E+01 -0.12565729406E+02  0.14145408021E+02  0.51100000000E-03 0.  1.
        -11    1    3    3    0    0  0.98718192222E+01  0.88214503668E+01 -0.20259222251E+02  0.24201381940E+02  0.51100000000E-03 0. -1.
         12    1    3    3    0    0 -0.14102160324E-01 -0.68323627138E+00 -0.94157381799E+01  0.94405050789E+01  0.00000000000E+00 0. -1.
</event>
<event>
 7    1  0.2430096E-009  0.4778727E+02  0.7816164E-02  0.1312668E+00
        -11   -1    0    0    0    0  0.00000000000E+00  0.00000000000E+00  0.45593999997E+02  0.45594000000E+02  0.51100000000E-03 0.  1.
         11   -1    0    0    0    0 -0.00000000000E+00 -0.00000000000E+00 -0.45593999997E+02  0.45594000000E+02  0.51100000000E-03 0. -1.
    9900012    2    1    2    0    0  0.29840572939E+02 -0.31473092258E+02  0.16149073608E+01  0.47787271257E+02  0.20000000970E+02 0.  0.
        -12    1    1    2    0    0 -0.29840572939E+02  0.31473092258E+02 -0.16149073608E+01  0.43400728743E+02  0.00000000000E+00 0.  1.
         11    1    3    3    0    0  0.19484287508E+01 -0.12747642741E+02 -0.13943029379E+01  0.12970846195E+02  0.51100000000E-03 0. -1.
        -11    1    3    3    0    0  0.25325396651E+02 -0.19488133629E+02  0.22576787999E+01  0.32035295873E+02  0.51100000000E-03 0.  1.
        -12    1    3    3    0    0  0.25667475371E+01  0.76268411195E+00  0.75153149884E+00  0.27811291893E+01  0.00000000000E+00 0.  1.
</event>
<event>
 7    1  0.2430096E-009  0.4778726E+02  0.7816164E-02  0.1312668E+00
        -11   -1    0    0    0    0  0.00000000000E+00  0.00000000000E+00  0.45593999997E+02  0.45594000000E+02  0.51100000000E-03 0.  1.
         11   -1    0    0    0    0 -0.00000000000E+00 -0.00000000000E+00 -0.45593999997E+02  0.45594000000E+02  0.51100000000E-03 0. -1.
    9900012    2    1    2    0    0 -0.91575552924E+01  0.27483892035E+02 -0.32317166123E+02  0.47787258456E+02  0.19999942604E+02 0.  0.
        -12    1    1    2    0    0  0.91575552924E+01 -0.27483892035E+02  0.32317166123E+02  0.43400741544E+02  0.00000000000E+00 0.  1.
         11    1    3    3    0    0 -0.60485558568E+01  0.27584523240E+02 -0.21443285734E+02  0.35458503263E+02  0.51100000000E-03 0. -1.
        -11    1    3    3    0    0 -0.16846920825E+01 -0.19524338551E+01 -0.23445604993E+01  0.34852761107E+01  0.51100000000E-03 0.  1.
         12    1    3    3    0    0 -0.14243073531E+01  0.18518026505E+01 -0.85293198905E+01  0.88434790828E+01  0.00000000000E+00 0. -1.
</event>
<event>
 7    1  0.2430096E-009  0.4778727E+02  0.7816164E-02  0.1312668E+00
        -11   -1    0    0    0    0  0.00000000000E+00  0.00000000000E+00  0.45593999997E+02  0.45594000000E+02  0.51100000000E-03 0.  1.
         11   -1    0    0    0    0 -0.00000000000E+00 -0.00000000000E+00 -0.45593999997E+02  0.45594000000E+02  0.51100000000E-03 0. -1.
    9900012    2    1    2    0    0 -0.41466380271E+02  0.12326402268E+02 -0.34960651575E+01  0.47787270084E+02  0.19999995622E+02 0.  0.
        -12    1    1    2    0    0  0.41466380271E+02 -0.12326402268E+02  0.34960651575E+01  0.43400729916E+02  0.00000000000E+00 0.  1.
         11    1    3    3    0    0 -0.11381424568E+02 -0.17561523295E+01 -0.61466585417E+01  0.13053823489E+02  0.51100000000E-03 0. -1.
        -11    1    3    3    0    0 -0.23903053160E+02  0.97358606223E+01  0.59512643069E+01  0.26486986985E+02  0.51100000000E-03 0.  1.
         12    1    3    3    0    0 -0.61819025432E+01  0.43466939748E+01 -0.33006709227E+01  0.82464596102E+01  0.00000000000E+00 0. -1.
</event>
<event>
 7    1  0.2430096E-009  0.4778727E+02  0.7816164E-02  0.1312668E+00
        -11   -1    0    0    0    0  0.00000000000E+00  0.00000000000E+00  0.45593999997E+02  0.45594000000E+02  0.51100000000E-03 0.  1.
         11   -1    0    0    0    0 -0.00000000000E+00 -0.00000000000E+00 -0.45593999997E+02  0.45594000000E+02  0.51100000000E-03 0. -1.
    9900012    2    1    2    0    0  0.77869292862E+01  0.42420275197E+02  0.48484153664E+01  0.47787272505E+02  0.20000006659E+02 0.  0.
        -12    1    1    2    0    0 -0.77869292862E+01 -0.42420275197E+02 -0.48484153664E+01  0.43400727495E+02  0.00000000000E+00 0.  1.
         11    1    3    3    0    0  0.53036762758E+01  0.23623374970E+02 -0.23877531258E+01  0.24328875688E+02  0.51100000000E-03 0. -1.
        -11    1    3    3    0    0 -0.29244193523E+01  0.74224482503E+00  0.27553429425E+01  0.40859602201E+01  0.51100000000E-03 0.  1.
         12    1    3    3    0    0  0.54076723627E+01  0.18054655402E+02  0.44808255497E+01  0.19372436597E+02  0.00000000000E+00 0. -1.
</event>
<event>
 7    1  0.2430096E-009  0.4778727E+02  0.7816164E-02  0.1312668E+00
        -11   -1    0    0    0    0  0.00000000000E+00  0.00000000000E+00  0.45593999997E+02  0.45594000000E+02  0.51100000000E-03 0.  1.
         11   -1    0    0    0    0 -0.00000000000E+00 -0.00000000000E+00 -0.45593999997E+02  0.45594000000E+02  0.51100000000E-03 0. -1.
    9900012    2    1    2    0    0  0.15048258399E+02  0.34352406151E+02 -0.21842285456E+02  0.47787270477E+02  0.19999997411E+02 0.  0.
        -12    1    1    2    0    0 -0.15048258399E+02 -0.34352406151E+02  0.21842285456E+02  0.43400729523E+02  0.00000000000E+00 0.  1.
         11    1    3    3    0    0  0.63248108289E+01  0.15389923685E+02 -0.12440512085E+02  0.20775450037E+02  0.51100000000E-03 0. -1.
        -11    1    3    3    0    0  0.41549259106E+00  0.81909831838E+01 -0.10546940473E+02  0.13360493749E+02  0.51100000000E-03 0.  1.
        -12    1    3    3    0    0  0.83079549795E+01  0.10771499282E+02  0.11451671019E+01  0.13651326691E+02  0.00000000000E+00 0.  1.
</event>
<event>
 7    1  0.2430096E-009  0.4778727E+02  0.7816164E-02  0.1312668E+00
        -11   -1    0    0    0    0  0.00000000000E+00  0.00000000000E+00  0.45593999997E+02  0.45594000000E+02  0.51100000000E-03 0. -1.
         11   -1    0    0    0    0 -0.00000000000E+00 -0.00000000000E+00 -0.45593999997E+02  0.45594000000E+02  0.51100000000E-03 0.  1.
    9900012    2    1    2    0    0  0.28462110789E+02  0.31160679163E+02 -0.10126377064E+02  0.47787272024E+02  0.20000004464E+02 0.  0.
        -12    1    1    2    0    0 -0.28462110789E+02 -0.31160679163E+02  0.10126377064E+02  0.43400727976E+02  0.00000000000E+00 0.  1.
         11    1    3    3    0    0  0.97521894986E+01  0.34173489465E+01 -0.46011492342E+01  0.11311677523E+02  0.51100000000E-03 0.  1.
        -11    1    3    3    0    0  0.86983111153E+01  0.22250782475E+02 -0.71587685858E+01  0.24940046210E+02  0.51100000000E-03 0. -1.
        -12    1    3    3    0    0  0.10011610175E+02  0.54925477410E+01  0.16335407556E+01  0.11535548291E+02  0.00000000000E+00 0.  1.
</event>
<event>
 7    1  0.2430096E-009  0.4778726E+02  0.7816164E-02  0.1312668E+00
        -11   -1    0    0    0    0  0.00000000000E+00  0.00000000000E+00  0.45593999997E+02  0.45594000000E+02  0.51100000000E-03 0.  1.
         11   -1    0    0    0    0 -0.00000000000E+00 -0.00000000000E+00 -0.45593999997E+02  0.45594000000E+02  0.51100000000E-03 0. -1.
    9900012    2    1    2    0    0 -0.31054887640E+01  0.20084803777E+02 -0.38348154455E+02  0.47787258608E+02  0.19999943297E+02 0.  0.
        -12    1    1    2    0    0  0.31054887640E+01 -0.20084803777E+02  0.38348154455E+02  0.43400741392E+02  0.00000000000E+00 0.  1.
         11    1    3    3    0    0  0.67914749646E+01  0.17418936039E+01 -0.11929388097E+02  0.13837218874E+02  0.51100000000E-03 0. -1.
        -11    1    3    3    0    0 -0.10097825396E+02  0.16121357401E+02 -0.22735740077E+02  0.29644191999E+02  0.51100000000E-03 0.  1.
         12    1    3    3    0    0  0.20086166731E+00  0.22215527724E+01 -0.36830262808E+01  0.43058477348E+01  0.00000000000E+00 0. -1.
</event>
<event>
 7    1  0.2430096E-009  0.4778727E+02  0.7816164E-02  0.1312668E+00
        -11   -1    0    0    0    0  0.00000000000E+00  0.00000000000E+00  0.45593999997E+02  0.45594000000E+02  0.51100000000E-03 0.  1.
         11   -1    0    0    0    0 -0.00000000000E+00 -0.00000000000E+00 -0.45593999997E+02  0.45594000000E+02  0.51100000000E-03 0. -1.
    9900012    2    1    2    0    0  0.15472601559E+02 -0.90336852453E+01 -0.39529921025E+02  0.47787268159E+02  0.19999986845E+02 0.  0.
        -12    1    1    2    0    0 -0.15472601559E+02  0.90336852453E+01  0.39529921025E+02  0.43400731841E+02  0.00000000000E+00 0.  1.
         11    1    3    3    0    0  0.64688477170E+01 -0.40291498893E+01 -0.18125665589E+02  0.19662649692E+02  0.51100000000E-03 0. -1.
        -11    1    3    3    0    0 -0.17237253262E+01  0.18145950706E+01  0.72384548162E+00  0.26053669248E+01  0.51100000000E-03 0.  1.
        -12    1    3    3    0    0  0.10727479168E+02 -0.68191304266E+01 -0.22128100918E+02  0.25519251543E+02  0.00000000000E+00 0.  1.
</event>
<event>
 7    1  0.2430096E-009  0.4778727E+02  0.7816164E-02  0.1312668E+00
        -11   -1    0    0    0    0  0.00000000000E+00  0.00000000000E+00  0.45593999997E+02  0.45594000000E+02  0.51100000000E-03 0.  1.
         11   -1    0    0    0    0 -0.00000000000E+00 -0.00000000000E+00 -0.45593999997E+02  0.45594000000E+02  0.51100000000E-03 0. -1.
    9900012    2    1    2    0    0  0.25365674359E+02 -0.15669604319E+02 -0.31538377526E+02  0.47787271986E+02  0.20000004291E+02 0.  0.
        -12    1    1    2    0    0 -0.25365674359E+02  0.15669604319E+02  0.31538377526E+02  0.43400728014E+02  0.00000000000E+00 0.  1.
         11    1    3    3    0    0  0.13847916161E+02 -0.40033437380E+01 -0.27254139274E+02  0.30831471760E+02  0.51100000000E-03 0. -1.
        -11    1    3    3    0    0  0.65833127537E+01 -0.62424257042E+01 -0.22929149564E+01  0.93576356386E+01  0.51100000000E-03 0.  1.
         12    1    3    3    0    0  0.49344454448E+01 -0.54238348768E+01 -0.19913232954E+01  0.75981645866E+01  0.00000000000E+00 0. -1.
</event>
<event>
 7    1  0.2430096E-009  0.4778727E+02  0.7816164E-02  0.1312668E+00
        -11   -1    0    0    0    0  0.00000000000E+00  0.00000000000E+00  0.45593999997E+02  0.45594000000E+02  0.51100000000E-03 0.  1.
         11   -1    0    0    0    0 -0.00000000000E+00 -0.00000000000E+00 -0.45593999997E+02  0.45594000000E+02  0.51100000000E-03 0. -1.
    9900012    2    1    2    0    0  0.35028733045E+01 -0.27286243785E+01 -0.43172995152E+02  0.47787273937E+02  0.20000013189E+02 0.  0.
        -12    1    1    2    0    0 -0.35028733045E+01  0.27286243785E+01  0.43172995152E+02  0.43400726063E+02  0.00000000000E+00 0.  1.
         11    1    3    3    0    0  0.86082332367E+01 -0.47917649828E+00 -0.33639044108E+02  0.34726309598E+02  0.51100000000E-03 0. -1.
        -11    1    3    3    0    0 -0.39042466289E+01  0.10307444921E+01 -0.15126422243E+01  0.43120369557E+01  0.51100000000E-03 0.  1.
        -12    1    3    3    0    0 -0.12011133033E+01 -0.32801923723E+01 -0.80213088203E+01  0.87489273832E+01  0.00000000000E+00 0.  1.
</event>
<event>
 7    1  0.2430096E-009  0.4778727E+02  0.7816164E-02  0.1312668E+00
        -11   -1    0    0    0    0  0.00000000000E+00  0.00000000000E+00  0.45593999997E+02  0.45594000000E+02  0.51100000000E-03 0.  1.
         11   -1    0    0    0    0 -0.00000000000E+00 -0.00000000000E+00 -0.45593999997E+02  0.45594000000E+02  0.51100000000E-03 0. -1.
    9900012    2    1    2    0    0 -0.38552347123E+02 -0.19869605646E+02  0.15932628371E+01  0.47787272083E+02  0.20000004736E+02 0.  0.
        -12    1    1    2    0    0  0.38552347123E+02  0.19869605646E+02 -0.15932628371E+01  0.43400727917E+02  0.00000000000E+00 0.  1.
         11    1    3    3    0    0 -0.16933999377E+02 -0.19031669723E+02  0.43488922507E+01  0.25843328954E+02  0.51100000000E-03 0. -1.
        -11    1    3    3    0    0 -0.14539747201E+02 -0.16956988715E+01 -0.19762344815E+01  0.14771091575E+02  0.51100000000E-03 0.  1.
         12    1    3    3    0    0 -0.70786005453E+01  0.85776294923E+00 -0.77939493214E+00  0.71728515541E+01  0.00000000000E+00 0. -1.
</event>
<event>
 7    1  0.2430096E-009  0.4778727E+02  0.7816164E-02  0.1312668E+00
        -11   -1    0    0    0    0  0.00000000000E+00  0.00000000000E+00  0.45593999997E+02  0.45594000000E+02  0.51100000000E-03 0.  1.
         11   -1    0    0    0    0 -0.00000000000E+00 -0.00000000000E+00 -0.45593999997E+02  0.45594000000E+02  0.51100000000E-03 0. -1.
    9900012    2    1    2    0    0 -0.29691498993E+02 -0.53980886502E+01 -0.31191325888E+02  0.47787270925E+02  0.19999999457E+02 0.  0.
        -12    1    1    2    0    0  0.29691498993E+02  0.53980886502E+01  0.31191325888E+02  0.43400729075E+02  0.00000000000E+00 0.  1.
         11    1    3    3    0    0 -0.21385408501E+02 -0.88150409755E+01 -0.30303539114E+02  0.38122763898E+02  0.51100000000E-03 0. -1.
        -11    1    3    3    0    0 -0.40447277764E+01  0.12761513759E+00 -0.13387622810E+01  0.42624398077E+01  0.51100000000E-03 0.  1.
         12    1    3    3    0    0 -0.42613627161E+01  0.32893371877E+01  0.45097550702E+00  0.54020672192E+01  0.00000000000E+00 0. -1.
</event>
<event>
 7    1  0.2430096E-009  0.4778728E+02  0.7816164E-02  0.1312668E+00
        -11   -1    0    0    0    0  0.00000000000E+00  0.00000000000E+00  0.45593999997E+02  0.45594000000E+02  0.51100000000E-03 0.  1.
         11   -1    0    0    0    0 -0.00000000000E+00 -0.00000000000E+00 -0.45593999997E+02  0.45594000000E+02  0.51100000000E-03 0. -1.
    9900012    2    1    2    0    0 -0.17995426720E+02  0.27192941086E+02 -0.28641425391E+02  0.47787277930E+02  0.20000031395E+02 0.  0.
        -12    1    1    2    0    0  0.17995426720E+02 -0.27192941086E+02  0.28641425391E+02  0.43400722070E+02  0.00000000000E+00 0.  1.
         11    1    3    3    0    0 -0.70739197869E+01  0.14257847673E+01 -0.52838704232E+01  0.89438520931E+01  0.51100000000E-03 0. -1.
        -11    1    3    3    0    0 -0.21665899831E+00  0.78349113093E+01 -0.45884092245E+00  0.78513254676E+01  0.51100000000E-03 0.  1.
        -12    1    3    3    0    0 -0.10704847935E+02  0.17932245010E+02 -0.22898714045E+02  0.30992100370E+02  0.00000000000E+00 0.  1.
</event>
<event>
 7    1  0.2430096E-009  0.4778727E+02  0.7816164E-02  0.1312668E+00
        -11   -1    0    0    0    0  0.00000000000E+00  0.00000000000E+00  0.45593999997E+02  0.45594000000E+02  0.51100000000E-03 0.  1.
         11   -1    0    0    0    0 -0.00000000000E+00 -0.00000000000E+00 -0.45593999997E+02  0.45594000000E+02  0.51100000000E-03 0. -1.
    9900012    2    1    2    0    0  0.19138865611E+02 -0.12102730188E+02 -0.37025000727E+02  0.47787274964E+02  0.20000017869E+02 0.  0.
        -12    1    1    2    0    0 -0.19138865611E+02  0.12102730188E+02  0.37025000727E+02  0.43400725036E+02  0.00000000000E+00 0.  1.
         11    1    3    3    0    0  0.17711561220E+02 -0.97052612953E+01 -0.27702778046E+02  0.34283165102E+02  0.51100000000E-03 0. -1.
        -11    1    3    3    0    0 -0.32796802649E+01  0.11735943355E+01 -0.17459656510E+01  0.38964115055E+01  0.51100000000E-03 0.  1.
        -12    1    3    3    0    0  0.47069846560E+01 -0.35710632278E+01 -0.75762570294E+01  0.96076983563E+01  0.00000000000E+00 0.  1.
</event>
<event>
 7    1  0.2430096E-009  0.4778727E+02  0.7816164E-02  0.1312668E+00
        -11   -1    0    0    0    0  0.00000000000E+00  0.00000000000E+00  0.45593999997E+02  0.45594000000E+02  0.51100000000E-03 0. -1.
         11   -1    0    0    0    0 -0.00000000000E+00 -0.00000000000E+00 -0.45593999997E+02  0.45594000000E+02  0.51100000000E-03 0.  1.
    9900012    2    1    2    0    0  0.29435723961E+02  0.25852452206E+01  0.31788020413E+02  0.47787267520E+02  0.19999983932E+02 0.  0.
        -12    1    1    2    0    0 -0.29435723961E+02 -0.25852452206E+01 -0.31788020413E+02  0.43400732480E+02  0.00000000000E+00 0.  1.
         11    1    3    3    0    0  0.57472329697E+01 -0.19948605121E+01 -0.12100640166E+00  0.60848005786E+01  0.51100000000E-03 0. -1.
        -11    1    3    3    0    0  0.27533064161E+01  0.43896368776E+01  0.29324444611E+01  0.59538927532E+01  0.51100000000E-03 0.  1.
         12    1    3    3    0    0  0.20935184575E+02  0.19046885502E+00  0.28976582354E+02  0.35748574188E+02  0.00000000000E+00 0. -1.
</event>
<event>
 7    1  0.2430096E-009  0.4778728E+02  0.7816164E-02  0.1312668E+00
        -11   -1    0    0    0    0  0.00000000000E+00  0.00000000000E+00  0.45593999997E+02  0.45594000000E+02  0.51100000000E-03 0.  1.
         11   -1    0    0    0    0 -0.00000000000E+00 -0.00000000000E+00 -0.45593999997E+02  0.45594000000E+02  0.51100000000E-03 0. -1.
    9900012    2    1    2    0    0  0.14957326044E+02  0.37388541435E+02 -0.16186349679E+02  0.47787279397E+02  0.20000038081E+02 0.  0.
        -12    1    1    2    0    0 -0.14957326044E+02 -0.37388541435E+02  0.16186349679E+02  0.43400720603E+02  0.00000000000E+00 0.  1.
         11    1    3    3    0    0  0.19133505262E+01  0.68719231950E+00  0.18847792447E+01  0.27722800332E+01  0.51100000000E-03 0.  1.
        -11    1    3    3    0    0  0.11534086008E+02  0.35265466024E+02 -0.20021488103E+02  0.42160979828E+02  0.51100000000E-03 0. -1.
         12    1    3    3    0    0  0.15098895093E+01  0.14358830909E+01  0.19503591792E+01  0.28540195355E+01  0.00000000000E+00 0. -1.
</event>
<event>
 7    1  0.2430096E-009  0.4778727E+02  0.7816164E-02  0.1312668E+00
        -11   -1    0    0    0    0  0.00000000000E+00  0.00000000000E+00  0.45593999997E+02  0.45594000000E+02  0.51100000000E-03 0.  1.
         11   -1    0    0    0    0 -0.00000000000E+00 -0.00000000000E+00 -0.45593999997E+02  0.45594000000E+02  0.51100000000E-03 0. -1.
    9900012    2    1    2    0    0 -0.17459062960E+02  0.34969848162E+02  0.18865692009E+02  0.47787268498E+02  0.19999988389E+02 0.  0.
        -12    1    1    2    0    0  0.17459062960E+02 -0.34969848162E+02 -0.18865692009E+02  0.43400731502E+02  0.00000000000E+00 0.  1.
         11    1    3    3    0    0 -0.87629418923E+01  0.30161386980E+02  0.12881970374E+02  0.33947659362E+02  0.51100000000E-03 0. -1.
        -11    1    3    3    0    0 -0.36624960115E-01 -0.10516115212E+00  0.36001050603E+01  0.36018268922E+01  0.51100000000E-03 0.  1.
         12    1    3    3    0    0 -0.86594961081E+01  0.49136223340E+01  0.23836165742E+01  0.10237782243E+02  0.00000000000E+00 0. -1.
</event>
<event>
 7    1  0.2430096E-009  0.4778727E+02  0.7816164E-02  0.1312668E+00
        -11   -1    0    0    0    0  0.00000000000E+00  0.00000000000E+00  0.45593999997E+02  0.45594000000E+02  0.51100000000E-03 0. -1.
         11   -1    0    0    0    0 -0.00000000000E+00 -0.00000000000E+00 -0.45593999997E+02  0.45594000000E+02  0.51100000000E-03 0.  1.
    9900012    2    1    2    0    0  0.18835329175E+02 -0.36938233130E+02  0.12822650880E+02  0.47787273422E+02  0.20000010842E+02 0.  0.
        -12    1    1    2    0    0 -0.18835329175E+02  0.36938233130E+02 -0.12822650880E+02  0.43400726578E+02  0.00000000000E+00 0.  1.
         11    1    3    3    0    0  0.14848753560E+02 -0.22007675371E+02  0.39466288175E+00  0.26551440951E+02  0.51100000000E-03 0. -1.
        -11    1    3    3    0    0 -0.10925975662E+00  0.62944595431E+00  0.19074556768E+01  0.20115982014E+01  0.51100000000E-03 0.  1.
         12    1    3    3    0    0  0.40958353719E+01 -0.15560003713E+02  0.10520532321E+02  0.19224234270E+02  0.00000000000E+00 0. -1.
</event>
<event>
 7    1  0.2430096E-009  0.4778728E+02  0.7816164E-02  0.1312668E+00
        -11   -1    0    0    0    0  0.00000000000E+00  0.00000000000E+00  0.45593999997E+02  0.45594000000E+02  0.51100000000E-03 0. -1.
         11   -1    0    0    0    0 -0.00000000000E+00 -0.00000000000E+00 -0.45593999997E+02  0.45594000000E+02  0.51100000000E-03 0.  1.
    9900012    2    1    2    0    0 -0.41581025447E+02  0.11217553304E+02 -0.53672522476E+01  0.47787279084E+02  0.20000036657E+02 0.  0.
        -12    1    1    2    0    0  0.41581025447E+02 -0.11217553304E+02  0.53672522476E+01  0.43400720916E+02  0.00000000000E+00 0.  1.
         11    1    3    3    0    0 -0.25579099591E+02 -0.15940528398E+00 -0.95843572701E+01  0.27316215889E+02  0.51100000000E-03 0. -1.
        -11    1    3    3    0    0 -0.13894619420E+02  0.11313649309E+02  0.39209189846E+01  0.18342102264E+02  0.51100000000E-03 0.  1.
        -12    1    3    3    0    0 -0.21073064355E+01  0.63309278448E-01  0.29618603796E+00  0.21289609313E+01  0.00000000000E+00 0.  1.
</event>
<event>
 7    1  0.2430096E-009  0.4778727E+02  0.7816164E-02  0.1312668E+00
        -11   -1    0    0    0    0  0.00000000000E+00  0.00000000000E+00  0.45593999997E+02  0.45594000000E+02  0.51100000000E-03 0.  1.
         11   -1    0    0    0    0 -0.00000000000E+00 -0.00000000000E+00 -0.45593999997E+02  0.45594000000E+02  0.51100000000E-03 0. -1.
    9900012    2    1    2    0    0  0.34360804061E+02  0.26241265605E+02 -0.37887100627E+01  0.47787271893E+02  0.20000003870E+02 0.  0.
        -12    1    1    2    0    0 -0.34360804061E+02 -0.26241265605E+02  0.37887100627E+01  0.43400728107E+02  0.00000000000E+00 0.  1.
         11    1    3    3    0    0  0.24705947511E+02  0.14271576480E+02 -0.87861645321E+01  0.29853951583E+02  0.51100000000E-03 0. -1.
        -11    1    3    3    0    0  0.36323875350E+01 -0.49496029003E-01  0.12799671170E+00  0.36349790207E+01  0.51100000000E-03 0.  1.
         12    1    3    3    0    0  0.60224690144E+01  0.12019185153E+02  0.48694577578E+01  0.14298341290E+02  0.00000000000E+00 0. -1.
</event>
<event>
 7    1  0.2430096E-009  0.4778727E+02  0.7816164E-02  0.1312668E+00
        -11   -1    0    0    0    0  0.00000000000E+00  0.00000000000E+00  0.45593999997E+02  0.45594000000E+02  0.51100000000E-03 0.  1.
         11   -1    0    0    0    0 -0.00000000000E+00 -0.00000000000E+00 -0.45593999997E+02  0.45594000000E+02  0.51100000000E-03 0. -1.
    9900012    2    1    2    0    0 -0.42279796350E+02  0.60301950745E+01  0.77252155109E+01  0.47787269744E+02  0.19999994071E+02 0.  0.
        -12    1    1    2    0    0  0.42279796350E+02 -0.60301950745E+01 -0.77252155109E+01  0.43400730256E+02  0.00000000000E+00 0.  1.
         11    1    3    3    0    0 -0.21700748755E+02  0.10540245692E+00  0.29454323943E+01  0.21899981243E+02  0.51100000000E-03 0. -1.
        -11    1    3    3    0    0 -0.78567906906E+01  0.93921364489E+01  0.26792188960E+01  0.12534735784E+02  0.51100000000E-03 0.  1.
        -12    1    3    3    0    0 -0.12722256905E+02 -0.34673438314E+01  0.21005642205E+01  0.13352552716E+02  0.00000000000E+00 0.  1.
</event>
<event>
 7    1  0.2430096E-009  0.4778727E+02  0.7816164E-02  0.1312668E+00
        -11   -1    0    0    0    0  0.00000000000E+00  0.00000000000E+00  0.45593999997E+02  0.45594000000E+02  0.51100000000E-03 0.  1.
         11   -1    0    0    0    0 -0.00000000000E+00 -0.00000000000E+00 -0.45593999997E+02  0.45594000000E+02  0.51100000000E-03 0. -1.
    9900012    2    1    2    0    0  0.41260381781E+02  0.45280366107E+01 -0.12676796367E+02  0.47787269748E+02  0.19999994089E+02 0.  0.
        -12    1    1    2    0    0 -0.41260381781E+02 -0.45280366107E+01  0.12676796367E+02  0.43400730252E+02  0.00000000000E+00 0.  1.
         11    1    3    3    0    0  0.30395106296E+02 -0.64879635177E+00 -0.11480177578E+02  0.32497352215E+02  0.51100000000E-03 0. -1.
        -11    1    3    3    0    0 -0.31225886231E+00  0.57413440137E+00 -0.29979331645E+01  0.30683447375E+01  0.51100000000E-03 0.  1.
         12    1    3    3    0    0  0.11177534347E+02  0.46026985611E+01  0.18013143754E+01  0.12221572796E+02  0.00000000000E+00 0. -1.
</event>
<event>
 7    1  0.2430096E-009  0.4778727E+02  0.7816164E-02  0.1312668E+00
        -11   -1    0    0    0    0  0.00000000000E+00  0.00000000000E+00  0.45593999997E+02  0.45594000000E+02  0.51100000000E-03 0.  1.
         11   -1    0    0    0    0 -0.00000000000E+00 -0.00000000000E+00 -0.45593999997E+02  0.45594000000E+02  0.51100000000E-03 0. -1.
    9900012    2    1    2    0    0  0.32493627041E+02 -0.84169256729E+01 -0.27512599912E+02  0.47787267403E+02  0.19999983397E+02 0.  0.
        -12    1    1    2    0    0 -0.32493627041E+02  0.84169256729E+01  0.27512599912E+02  0.43400732597E+02  0.00000000000E+00 0.  1.
         11    1    3    3    0    0  0.13760038651E+02 -0.18188573017E+01 -0.34543458579E+01  0.14303125922E+02  0.51100000000E-03 0. -1.
        -11    1    3    3    0    0  0.15263911947E+02 -0.92566217574E+01 -0.22757461487E+02  0.28923590854E+02  0.51100000000E-03 0.  1.
        -12    1    3    3    0    0  0.34696764427E+01  0.26585533862E+01 -0.13007925674E+01  0.45605506277E+01  0.00000000000E+00 0.  1.
</event>
<event>
 7    1  0.2430096E-009  0.4778727E+02  0.7816164E-02  0.1312668E+00
        -11   -1    0    0    0    0  0.00000000000E+00  0.00000000000E+00  0.45593999997E+02  0.45594000000E+02  0.51100000000E-03 0.  1.
         11   -1    0    0    0    0 -0.00000000000E+00 -0.00000000000E+00 -0.45593999997E+02  0.45594000000E+02  0.51100000000E-03 0. -1.
    9900012    2    1    2    0    0  0.25729904216E+02  0.36223851990E+00 -0.34949451924E+02  0.47787269850E+02  0.19999994556E+02 0.  0.
        -12    1    1    2    0    0 -0.25729904216E+02 -0.36223851990E+00  0.34949451924E+02  0.43400730150E+02  0.00000000000E+00 0.  1.
         11    1    3    3    0    0  0.12198507211E+02  0.86325780140E+01 -0.14606892549E+02  0.20897040258E+02  0.51100000000E-03 0. -1.
        -11    1    3    3    0    0  0.82506929870E+01 -0.63677908056E+01 -0.18017544833E+02  0.20814769193E+02  0.51100000000E-03 0.  1.
         12    1    3    3    0    0  0.52807040178E+01 -0.19025486885E+01 -0.23250145423E+01  0.60754603988E+01  0.00000000000E+00 0. -1.
</event>
<event>
 7    1  0.2430096E-009  0.4778727E+02  0.7816164E-02  0.1312668E+00
        -11   -1    0    0    0    0  0.00000000000E+00  0.00000000000E+00  0.45593999997E+02  0.45594000000E+02  0.51100000000E-03 0.  1.
         11   -1    0    0    0    0 -0.00000000000E+00 -0.00000000000E+00 -0.45593999997E+02  0.45594000000E+02  0.51100000000E-03 0. -1.
    9900012    2    1    2    0    0  0.17709845065E+01 -0.43222343409E+02 -0.35094497978E+01  0.47787267359E+02  0.19999983199E+02 0.  0.
        -12    1    1    2    0    0 -0.17709845065E+01  0.43222343409E+02  0.35094497978E+01  0.43400732641E+02  0.00000000000E+00 0.  1.
         11    1    3    3    0    0  0.47526612469E+01 -0.10726560716E+02 -0.23508842789E+01  0.11965515070E+02  0.51100000000E-03 0. -1.
        -11    1    3    3    0    0  0.29166088082E+00 -0.20880889351E+02  0.60798463837E+01  0.21749968701E+02  0.51100000000E-03 0.  1.
        -12    1    3    3    0    0 -0.32733376213E+01 -0.11614893341E+02 -0.72384119026E+01  0.14071783589E+02  0.00000000000E+00 0.  1.
</event>
<event>
 7    1  0.2430096E-009  0.4778727E+02  0.7816164E-02  0.1312668E+00
        -11   -1    0    0    0    0  0.00000000000E+00  0.00000000000E+00  0.45593999997E+02  0.45594000000E+02  0.51100000000E-03 0. -1.
         11   -1    0    0    0    0 -0.00000000000E+00 -0.00000000000E+00 -0.45593999997E+02  0.45594000000E+02  0.51100000000E-03 0.  1.
    9900012    2    1    2    0    0 -0.34793575644E+02 -0.25856190504E+02  0.21184614067E+01  0.47787269912E+02  0.19999994837E+02 0.  0.
        -12    1    1    2    0    0  0.34793575644E+02  0.25856190504E+02 -0.21184614067E+01  0.43400730088E+02  0.00000000000E+00 0.  1.
         11    1    3    3    0    0 -0.82936276010E+01  0.20119300332E+01  0.27004784542E+01  0.89512404384E+01  0.51100000000E-03 0.  1.
        -11    1    3    3    0    0 -0.20045566559E+02 -0.17647405499E+02  0.38174854739E+00  0.26709574908E+02  0.51100000000E-03 0. -1.
        -12    1    3    3    0    0 -0.64543814835E+01 -0.10220715038E+02 -0.96376559484E+00  0.12126454566E+02  0.00000000000E+00 0.  1.
</event>
<event>
 7    1  0.2430096E-009  0.4778727E+02  0.7816164E-02  0.1312668E+00
        -11   -1    0    0    0    0  0.00000000000E+00  0.00000000000E+00  0.45593999997E+02  0.45594000000E+02  0.51100000000E-03 0. -1.
         11   -1    0    0    0    0 -0.00000000000E+00 -0.00000000000E+00 -0.45593999997E+02  0.45594000000E+02  0.51100000000E-03 0.  1.
    9900012    2    1    2    0    0 -0.27146480952E+02 -0.29722113602E+02  0.16226136179E+02  0.47787274657E+02  0.20000016469E+02 0.  0.
        -12    1    1    2    0    0  0.27146480952E+02  0.29722113602E+02 -0.16226136179E+02  0.43400725343E+02  0.00000000000E+00 0.  1.
         11    1    3    3    0    0 -0.14285377142E+02 -0.34458120002E+01  0.54897056749E+01  0.15687016577E+02  0.51100000000E-03 0. -1.
        -11    1    3    3    0    0 -0.15764560813E+01 -0.11738622826E+02  0.39473040681E+01  0.12484457909E+02  0.51100000000E-03 0.  1.
         12    1    3    3    0    0 -0.11284647729E+02 -0.14537678776E+02  0.67891264357E+01  0.19615800170E+02  0.00000000000E+00 0. -1.
</event>
<event>
 7    1  0.2430096E-009  0.4778727E+02  0.7816164E-02  0.1312668E+00
        -11   -1    0    0    0    0  0.00000000000E+00  0.00000000000E+00  0.45593999997E+02  0.45594000000E+02  0.51100000000E-03 0. -1.
         11   -1    0    0    0    0 -0.00000000000E+00 -0.00000000000E+00 -0.45593999997E+02  0.45594000000E+02  0.51100000000E-03 0.  1.
    9900012    2    1    2    0    0 -0.22501379397E+02 -0.13507246124E+02  0.34566827400E+02  0.47787270408E+02  0.19999997098E+02 0.  0.
        -12    1    1    2    0    0  0.22501379397E+02  0.13507246124E+02 -0.34566827400E+02  0.43400729592E+02  0.00000000000E+00 0.  1.
         11    1    3    3    0    0 -0.23379192862E+01 -0.46756017286E+01  0.97008802686E+01  0.11019718525E+02  0.51100000000E-03 0. -1.
        -11    1    3    3    0    0 -0.64999551637E+01  0.25039921874E+00  0.17712818532E+02  0.18869447727E+02  0.51100000000E-03 0.  1.
        -12    1    3    3    0    0 -0.13663504947E+02 -0.90820436136E+01  0.71531285994E+01  0.17898104157E+02  0.00000000000E+00 0.  1.
</event>
<event>
 7    1  0.2430096E-009  0.4778728E+02  0.7816164E-02  0.1312668E+00
        -11   -1    0    0    0    0  0.00000000000E+00  0.00000000000E+00  0.45593999997E+02  0.45594000000E+02  0.51100000000E-03 0.  1.
         11   -1    0    0    0    0 -0.00000000000E+00 -0.00000000000E+00 -0.45593999997E+02  0.45594000000E+02  0.51100000000E-03 0. -1.
    9900012    2    1    2    0    0 -0.13253621842E+02 -0.24230409576E+02 -0.33479114365E+02  0.47787281817E+02  0.20000049115E+02 0.  0.
        -12    1    1    2    0    0  0.13253621842E+02  0.24230409576E+02  0.33479114365E+02  0.43400718183E+02  0.00000000000E+00 0.  1.
         11    1    3    3    0    0  0.36720432222E+01 -0.78192739526E+01 -0.50271237819E+01  0.99948446887E+01  0.51100000000E-03 0. -1.
        -11    1    3    3    0    0 -0.11502798819E+02 -0.86603378229E+01 -0.11694301598E+02  0.18549191950E+02  0.51100000000E-03 0.  1.
        -12    1    3    3    0    0 -0.54228662457E+01 -0.77507978001E+01 -0.16757688985E+02  0.19243245178E+02  0.00000000000E+00 0.  1.
</event>
<event>
 7    1  0.2430096E-009  0.4778723E+02  0.7816164E-02  0.1312668E+00
        -11   -1    0    0    0    0  0.00000000000E+00  0.00000000000E+00  0.45593999997E+02  0.45594000000E+02  0.51100000000E-03 0. -1.
         11   -1    0    0    0    0 -0.00000000000E+00 -0.00000000000E+00 -0.45593999997E+02  0.45594000000E+02  0.51100000000E-03 0.  1.
    9900012    2    1    2    0    0  0.34586974586E+02  0.81823356089E+01  0.24908181942E+02  0.47787228640E+02  0.19999806659E+02 0.  0.
        -12    1    1    2    0    0 -0.34586974586E+02 -0.81823356089E+01 -0.24908181942E+02  0.43400771360E+02  0.00000000000E+00 0.  1.
         11    1    3    3    0    0  0.18930215484E+02  0.53836214751E+01  0.20809269584E+02  0.28641964655E+02  0.51100000000E-03 0. -1.
        -11    1    3    3    0    0  0.10562727062E+02  0.42457136480E+01 -0.14487265342E+01  0.11475891957E+02  0.51100000000E-03 0.  1.
         12    1    3    3    0    0  0.50940320394E+01 -0.14469995142E+01  0.55476388926E+01  0.76693720275E+01  0.00000000000E+00 0. -1.
</event>
<event>
 7    1  0.2430096E-009  0.4778728E+02  0.7816164E-02  0.1312668E+00
        -11   -1    0    0    0    0  0.00000000000E+00  0.00000000000E+00  0.45593999997E+02  0.45594000000E+02  0.51100000000E-03 0. -1.
         11   -1    0    0    0    0 -0.00000000000E+00 -0.00000000000E+00 -0.45593999997E+02  0.45594000000E+02  0.51100000000E-03 0.  1.
    9900012    2    1    2    0    0 -0.35342837632E+02  0.25184430817E+02 -0.50088169867E+00  0.47787278694E+02  0.20000034876E+02 0.  0.
        -12    1    1    2    0    0  0.35342837632E+02 -0.25184430817E+02  0.50088169867E+00  0.43400721306E+02  0.00000000000E+00 0.  1.
         11    1    3    3    0    0 -0.10318510557E+02  0.30583250966E+01 -0.66225972617E+01  0.12636605845E+02  0.51100000000E-03 0. -1.
        -11    1    3    3    0    0 -0.14009100327E+01  0.38373762771E+01 -0.14428189037E+01  0.43324049051E+01  0.51100000000E-03 0.  1.
         12    1    3    3    0    0 -0.23623417042E+02  0.18288729443E+02  0.75645344668E+01  0.30818267944E+02  0.00000000000E+00 0. -1.
</event>
<event>
 7    1  0.2430096E-009  0.4778728E+02  0.7816164E-02  0.1312668E+00
        -11   -1    0    0    0    0  0.00000000000E+00  0.00000000000E+00  0.45593999997E+02  0.45594000000E+02  0.51100000000E-03 0. -1.
         11   -1    0    0    0    0 -0.00000000000E+00 -0.00000000000E+00 -0.45593999997E+02  0.45594000000E+02  0.51100000000E-03 0.  1.
    9900012    2    1    2    0    0  0.19846431650E+01  0.30291825927E+02  0.31017562618E+02  0.47787277457E+02  0.20000029235E+02 0.  0.
        -12    1    1    2    0    0 -0.19846431650E+01 -0.30291825927E+02 -0.31017562618E+02  0.43400722543E+02  0.00000000000E+00 0.  1.
         11    1    3    3    0    0  0.67066726371E+01  0.28880616388E+02  0.26312228830E+02  0.39640923893E+02  0.51100000000E-03 0. -1.
        -11    1    3    3    0    0 -0.39852706525E+01  0.83249676559E+00  0.82437732994E+00  0.41539175824E+01  0.51100000000E-03 0.  1.
         12    1    3    3    0    0 -0.73675881967E+00  0.57871277385E+00  0.38809564585E+01  0.39924359814E+01  0.00000000000E+00 0. -1.
</event>
<event>
 7    1  0.2430096E-009  0.4778727E+02  0.7816164E-02  0.1312668E+00
        -11   -1    0    0    0    0  0.00000000000E+00  0.00000000000E+00  0.45593999997E+02  0.45594000000E+02  0.51100000000E-03 0.  1.
         11   -1    0    0    0    0 -0.00000000000E+00 -0.00000000000E+00 -0.45593999997E+02  0.45594000000E+02  0.51100000000E-03 0. -1.
    9900012    2    1    2    0    0  0.89051366855E+01 -0.27129396105E+01 -0.42390585627E+02  0.47787271314E+02  0.20000001228E+02 0.  0.
        -12    1    1    2    0    0 -0.89051366855E+01  0.27129396105E+01  0.42390585627E+02  0.43400728686E+02  0.00000000000E+00 0.  1.
         11    1    3    3    0    0 -0.32338127612E+01 -0.51602669753E+01 -0.17758634121E+02  0.18773784550E+02  0.51100000000E-03 0. -1.
        -11    1    3    3    0    0  0.11983377064E+02  0.39854220867E+01 -0.24366813809E+02  0.27444972773E+02  0.51100000000E-03 0.  1.
        -12    1    3    3    0    0  0.15557238296E+00 -0.15380947219E+01 -0.26513769689E+00  0.15685139904E+01  0.00000000000E+00 0.  1.
</event>
<event>
 7    1  0.2430096E-009  0.4778727E+02  0.7816164E-02  0.1312668E+00
        -11   -1    0    0    0    0  0.00000000000E+00  0.00000000000E+00  0.45593999997E+02  0.45594000000E+02  0.51100000000E-03 0.  1.
         11   -1    0    0    0    0 -0.00000000000E+00 -0.00000000000E+00 -0.45593999997E+02  0.45594000000E+02  0.51100000000E-03 0. -1.
    9900012    2    1    2    0    0  0.17927187958E+02  0.30498663875E+02 -0.25141025188E+02  0.47787265977E+02  0.19999976894E+02 0.  0.
        -12    1    1    2    0    0 -0.17927187958E+02 -0.30498663875E+02  0.25141025188E+02  0.43400734023E+02  0.00000000000E+00 0.  1.
         11    1    3    3    0    0  0.39549989712E+01  0.70104708174E+01 -0.27241117818E+01  0.84976175016E+01  0.51100000000E-03 0. -1.
        -11    1    3    3    0    0  0.15818769400E+02  0.24340610844E+02 -0.17323922691E+02  0.33805577931E+02  0.51100000000E-03 0.  1.
        -12    1    3    3    0    0 -0.18465804133E+01 -0.85241778634E+00 -0.50929907152E+01  0.54840705439E+01  0.00000000000E+00 0.  1.
</event>
<event>
 7    1  0.2634462E-009  0.4778727E+02  0.7816164E-02  0.1312668E+00
        -11   -1    0    0    0    0  0.00000000000E+00  0.00000000000E+00  0.45593999997E+02  0.45594000000E+02  0.51100000000E-03 0. -1.
         11   -1    0    0    0    0 -0.00000000000E+00 -0.00000000000E+00 -0.45593999997E+02  0.45594000000E+02  0.51100000000E-03 0.  1.
    9900012    2    1    2    0    0  0.17140454884E+02  0.17254074781E+02  0.35946142042E+02  0.47787269385E+02  0.19999992433E+02 0.  0.
        -12    1    1    2    0    0 -0.17140454884E+02 -0.17254074781E+02 -0.35946142042E+02  0.43400730615E+02  0.00000000000E+00 0.  1.
         11    1    3    3    0    0  0.99338224307E+01  0.12335695576E+02  0.29095712880E+02  0.33127190066E+02  0.51100000000E-03 0. -1.
        -11    1    3    3    0    0  0.27945424752E+01  0.58435466188E+01  0.21560970189E-01  0.64774200010E+01  0.51100000000E-03 0.  1.
        -12    1    3    3    0    0  0.44120899785E+01 -0.92516741351E+00  0.68288681925E+01  0.81826593179E+01  0.00000000000E+00 0.  1.
</event>
<event>
 7    1  0.2521261E-009  0.4778727E+02  0.7816164E-02  0.1312668E+00
        -11   -1    0    0    0    0  0.00000000000E+00  0.00000000000E+00  0.45593999997E+02  0.45594000000E+02  0.51100000000E-03 0.  1.
         11   -1    0    0    0    0 -0.00000000000E+00 -0.00000000000E+00 -0.45593999997E+02  0.45594000000E+02  0.51100000000E-03 0. -1.
    9900012    2    1    2    0    0 -0.35383127202E+02  0.13168605096E+02 -0.21406668846E+02  0.47787270492E+02  0.19999997482E+02 0.  0.
        -12    1    1    2    0    0  0.35383127202E+02 -0.13168605096E+02  0.21406668846E+02  0.43400729508E+02  0.00000000000E+00 0.  1.
         11    1    3    3    0    0 -0.23710720336E+02  0.62519125788E+01 -0.12547035251E+02  0.27544741124E+02  0.51100000000E-03 0. -1.
        -11    1    3    3    0    0 -0.10109752994E+01  0.24225306364E+01 -0.82488689936E+01  0.86564753609E+01  0.51100000000E-03 0.  1.
        -12    1    3    3    0    0 -0.10661431566E+02  0.44941618807E+01 -0.61076460052E+00  0.11586054007E+02  0.00000000000E+00 0.  1.
</event>
<event>
 7    1  0.2430096E-009  0.4778726E+02  0.7816164E-02  0.1312668E+00
        -11   -1    0    0    0    0  0.00000000000E+00  0.00000000000E+00  0.45593999997E+02  0.45594000000E+02  0.51100000000E-03 0.  1.
         11   -1    0    0    0    0 -0.00000000000E+00 -0.00000000000E+00 -0.45593999997E+02  0.45594000000E+02  0.51100000000E-03 0. -1.
    9900012    2    1    2    0    0  0.31482622290E+01  0.83339543396E+01 -0.42476554672E+02  0.47787262140E+02  0.19999959402E+02 0.  0.
        -12    1    1    2    0    0 -0.31482622290E+01 -0.83339543396E+01  0.42476554672E+02  0.43400737860E+02  0.00000000000E+00 0.  1.
         11    1    3    3    0    0  0.65187176558E+01  0.80609839309E+01 -0.10476213391E+02  0.14738527371E+02  0.51100000000E-03 0. -1.
        -11    1    3    3    0    0 -0.21115744027E+01 -0.18399423760E+01 -0.36938180308E+01  0.46355610568E+01  0.51100000000E-03 0.  1.
         12    1    3    3    0    0 -0.12588810242E+01  0.21129127847E+01 -0.28306523250E+02  0.28413173712E+02  0.00000000000E+00 0. -1.
</event>
<event>
 7    1  0.2430096E-009  0.4778727E+02  0.7816164E-02  0.1312668E+00
        -11   -1    0    0    0    0  0.00000000000E+00  0.00000000000E+00  0.45593999997E+02  0.45594000000E+02  0.51100000000E-03 0.  1.
         11   -1    0    0    0    0 -0.00000000000E+00 -0.00000000000E+00 -0.45593999997E+02  0.45594000000E+02  0.51100000000E-03 0. -1.
    9900012    2    1    2    0    0  0.21180723872E+02  0.85748494087E+00 -0.37871691053E+02  0.47787270428E+02  0.19999997187E+02 0.  0.
        -12    1    1    2    0    0 -0.21180723872E+02 -0.85748494087E+00  0.37871691053E+02  0.43400729572E+02  0.00000000000E+00 0.  1.
         11    1    3    3    0    0  0.13862208264E+02 -0.43561054324E+01 -0.23137883776E+02  0.27322118117E+02  0.51100000000E-03 0. -1.
        -11    1    3    3    0    0  0.54829414284E+01  0.22056174175E+01 -0.64811262160E+00  0.59453717403E+01  0.51100000000E-03 0.  1.
         12    1    3    3    0    0  0.18355741795E+01  0.30079729558E+01 -0.14085694656E+02  0.14519780570E+02  0.00000000000E+00 0. -1.
</event>
<event>
 7    1  0.2430096E-009  0.4778727E+02  0.7816164E-02  0.1312668E+00
        -11   -1    0    0    0    0  0.00000000000E+00  0.00000000000E+00  0.45593999997E+02  0.45594000000E+02  0.51100000000E-03 0. -1.
         11   -1    0    0    0    0 -0.00000000000E+00 -0.00000000000E+00 -0.45593999997E+02  0.45594000000E+02  0.51100000000E-03 0.  1.
    9900012    2    1    2    0    0 -0.20354746048E+02  0.36349042945E+02  0.12167764578E+02  0.47787272996E+02  0.20000008897E+02 0.  0.
        -12    1    1    2    0    0  0.20354746048E+02 -0.36349042945E+02 -0.12167764578E+02  0.43400727004E+02  0.00000000000E+00 0.  1.
         11    1    3    3    0    0 -0.43655823987E+01  0.67589390047E+01  0.43600550655E+01  0.91515925709E+01  0.51100000000E-03 0.  1.
        -11    1    3    3    0    0 -0.72299920363E+01  0.24233735742E+02  0.11424608073E+02  0.27750106356E+02  0.51100000000E-03 0. -1.
        -12    1    3    3    0    0 -0.87591716129E+01  0.53563681977E+01 -0.36168985605E+01  0.10885574069E+02  0.00000000000E+00 0.  1.
</event>
<event>
 7    1  0.2430096E-009  0.4778727E+02  0.7816164E-02  0.1312668E+00
        -11   -1    0    0    0    0  0.00000000000E+00  0.00000000000E+00  0.45593999997E+02  0.45594000000E+02  0.51100000000E-03 0.  1.
         11   -1    0    0    0    0 -0.00000000000E+00 -0.00000000000E+00 -0.45593999997E+02  0.45594000000E+02  0.51100000000E-03 0. -1.
    9900012    2    1    2    0    0  0.12911545063E+02  0.16606865984E+01 -0.41402386188E+02  0.47787268924E+02  0.19999990331E+02 0.  0.
        -12    1    1    2    0    0 -0.12911545063E+02 -0.16606865984E+01  0.41402386188E+02  0.43400731076E+02  0.00000000000E+00 0.  1.
         11    1    3    3    0    0  0.65899429555E+01 -0.20798725881E+01 -0.31775550050E+02  0.32518284078E+02  0.51100000000E-03 0. -1.
        -11    1    3    3    0    0  0.68536181008E-01  0.52039768385E+01 -0.58022524202E+01  0.77943701190E+01  0.51100000000E-03 0.  1.
         12    1    3    3    0    0  0.62530659261E+01 -0.14634176520E+01 -0.38245837184E+01  0.74746147272E+01  0.00000000000E+00 0. -1.
</event>
<event>
 7    1  0.2430096E-009  0.4778728E+02  0.7816164E-02  0.1312668E+00
        -11   -1    0    0    0    0  0.00000000000E+00  0.00000000000E+00  0.45593999997E+02  0.45594000000E+02  0.51100000000E-03 0.  1.
         11   -1    0    0    0    0 -0.00000000000E+00 -0.00000000000E+00 -0.45593999997E+02  0.45594000000E+02  0.51100000000E-03 0. -1.
    9900012    2    1    2    0    0 -0.11114387216E+02 -0.36232536422E+01 -0.41796714373E+02  0.47787275323E+02  0.20000019509E+02 0.  0.
        -12    1    1    2    0    0  0.11114387216E+02  0.36232536422E+01  0.41796714373E+02  0.43400724677E+02  0.00000000000E+00 0.  1.
         11    1    3    3    0    0 -0.69661479401E+01  0.59754185734E+01 -0.14454513363E+02  0.17122085184E+02  0.51100000000E-03 0. -1.
        -11    1    3    3    0    0  0.17602324879E+01 -0.17462025324E+01 -0.12355596287E+01  0.27702435909E+01  0.51100000000E-03 0.  1.
         12    1    3    3    0    0 -0.59084717634E+01 -0.78524696833E+01 -0.26106641381E+02  0.27894946548E+02  0.00000000000E+00 0. -1.
</event>
<event>
 7    1  0.2430096E-009  0.4778726E+02  0.7816164E-02  0.1312668E+00
        -11   -1    0    0    0    0  0.00000000000E+00  0.00000000000E+00  0.45593999997E+02  0.45594000000E+02  0.51100000000E-03 0.  1.
         11   -1    0    0    0    0 -0.00000000000E+00 -0.00000000000E+00 -0.45593999997E+02  0.45594000000E+02  0.51100000000E-03 0. -1.
    9900012    2    1    2    0    0  0.27890390550E+02  0.33237785351E+02  0.99980691664E+00  0.47787264131E+02  0.19999968480E+02 0.  0.
        -12    1    1    2    0    0 -0.27890390550E+02 -0.33237785351E+02 -0.99980691664E+00  0.43400735869E+02  0.00000000000E+00 0.  1.
         11    1    3    3    0    0  0.16453794085E+02  0.19420178387E+02 -0.83466781636E+01  0.26786894277E+02  0.51100000000E-03 0. -1.
        -11    1    3    3    0    0  0.11864444089E+02  0.13964661458E+02  0.92894980280E+01  0.20544380668E+02  0.51100000000E-03 0.  1.
         12    1    3    3    0    0 -0.42784762378E+00 -0.14705449406E+00  0.56987052205E-01  0.45598918575E+00  0.00000000000E+00 0. -1.
</event>
<event>
 7    1  0.2430096E-009  0.4778727E+02  0.7816164E-02  0.1312668E+00
        -11   -1    0    0    0    0  0.00000000000E+00  0.00000000000E+00  0.45593999997E+02  0.45594000000E+02  0.51100000000E-03 0.  1.
         11   -1    0    0    0    0 -0.00000000000E+00 -0.00000000000E+00 -0.45593999997E+02  0.45594000000E+02  0.51100000000E-03 0. -1.
    9900012    2    1    2    0    0  0.20723458024E+02  0.15861534676E+01 -0.38100468154E+02  0.47787271102E+02  0.20000000265E+02 0.  0.
        -12    1    1    2    0    0 -0.20723458024E+02 -0.15861534676E+01  0.38100468154E+02  0.43400728898E+02  0.00000000000E+00 0.  1.
         11    1    3    3    0    0  0.77249038355E+00  0.65626128539E+01 -0.13915260865E+02  0.15404516028E+02  0.51100000000E-03 0. -1.
        -11    1    3    3    0    0  0.17235979104E+02 -0.62932202912E+01 -0.19218677597E+02  0.26571435154E+02  0.51100000000E-03 0.  1.
         12    1    3    3    0    0  0.27149885364E+01  0.13167609049E+01 -0.49665296919E+01  0.58113199201E+01  0.00000000000E+00 0. -1.
</event>
<event>
 7    1  0.2430096E-009  0.4778727E+02  0.7816164E-02  0.1312668E+00
        -11   -1    0    0    0    0  0.00000000000E+00  0.00000000000E+00  0.45593999997E+02  0.45594000000E+02  0.51100000000E-03 0.  1.
         11   -1    0    0    0    0 -0.00000000000E+00 -0.00000000000E+00 -0.45593999997E+02  0.45594000000E+02  0.51100000000E-03 0. -1.
    9900012    2    1    2    0    0 -0.65888811313E+01 -0.15704683418E+02 -0.39919576930E+02  0.47787273531E+02  0.20000011336E+02 0.  0.
        -12    1    1    2    0    0  0.65888811313E+01  0.15704683418E+02  0.39919576930E+02  0.43400726469E+02  0.00000000000E+00 0.  1.
         11    1    3    3    0    0 -0.43065938987E+01 -0.55504164706E+01 -0.13508549168E+02  0.15226121466E+02  0.51100000000E-03 0. -1.
        -11    1    3    3    0    0 -0.45025885667E+01 -0.84251657262E+01 -0.46600244775E+01  0.10628854581E+02  0.51100000000E-03 0.  1.
        -12    1    3    3    0    0  0.22203013341E+01 -0.17291012213E+01 -0.21751003284E+02  0.21932297484E+02  0.00000000000E+00 0.  1.
</event>
<event>
 7    1  0.2430096E-009  0.4778727E+02  0.7816164E-02  0.1312668E+00
        -11   -1    0    0    0    0  0.00000000000E+00  0.00000000000E+00  0.45593999997E+02  0.45594000000E+02  0.51100000000E-03 0.  1.
         11   -1    0    0    0    0 -0.00000000000E+00 -0.00000000000E+00 -0.45593999997E+02  0.45594000000E+02  0.51100000000E-03 0. -1.
    9900012    2    1    2    0    0 -0.25489982618E+02  0.84857815016E+01 -0.34086291890E+02  0.47787274242E+02  0.20000014577E+02 0.  0.
        -12    1    1    2    0    0  0.25489982618E+02 -0.84857815016E+01  0.34086291890E+02  0.43400725758E+02  0.00000000000E+00 0.  1.
         11    1    3    3    0    0 -0.20514275590E+02  0.72540308738E+01 -0.16275311674E+02  0.27172453649E+02  0.51100000000E-03 0. -1.
        -11    1    3    3    0    0  0.17315666675E+01  0.29174199771E+01 -0.47686729140E+01  0.58523417594E+01  0.51100000000E-03 0.  1.
         12    1    3    3    0    0 -0.67072736951E+01 -0.16856693492E+01 -0.13042307301E+02  0.14762478834E+02  0.00000000000E+00 0. -1.
</event>
<event>
 7    1  0.2430096E-009  0.4778727E+02  0.7816164E-02  0.1312668E+00
        -11   -1    0    0    0    0  0.00000000000E+00  0.00000000000E+00  0.45593999997E+02  0.45594000000E+02  0.51100000000E-03 0.  1.
         11   -1    0    0    0    0 -0.00000000000E+00 -0.00000000000E+00 -0.45593999997E+02  0.45594000000E+02  0.51100000000E-03 0. -1.
    9900012    2    1    2    0    0 -0.35047265165E+01 -0.38683364558E+02 -0.19363306948E+02  0.47787268930E+02  0.19999990360E+02 0.  0.
        -12    1    1    2    0    0  0.35047265165E+01  0.38683364558E+02  0.19363306948E+02  0.43400731070E+02  0.00000000000E+00 0.  1.
         11    1    3    3    0    0  0.17693993779E+01 -0.27149275221E+01 -0.49246945239E+01  0.58952711578E+01  0.51100000000E-03 0. -1.
        -11    1    3    3    0    0 -0.33437844972E+01 -0.29261944280E+02 -0.17513232133E+02  0.34265953625E+02  0.51100000000E-03 0.  1.
        -12    1    3    3    0    0 -0.19303413972E+01 -0.67064927553E+01  0.30746197087E+01  0.76260441475E+01  0.00000000000E+00 0.  1.
</event>
<event>
 7    1  0.2430096E-009  0.4778727E+02  0.7816164E-02  0.1312668E+00
        -11   -1    0    0    0    0  0.00000000000E+00  0.00000000000E+00  0.45593999997E+02  0.45594000000E+02  0.51100000000E-03 0.  1.
         11   -1    0    0    0    0 -0.00000000000E+00 -0.00000000000E+00 -0.45593999997E+02  0.45594000000E+02  0.51100000000E-03 0. -1.
    9900012    2    1    2    0    0 -0.38222907199E+01  0.21002057302E+02 -0.37787921143E+02  0.47787270725E+02  0.19999998545E+02 0.  0.
        -12    1    1    2    0    0  0.38222907199E+01 -0.21002057302E+02  0.37787921143E+02  0.43400729275E+02  0.00000000000E+00 0.  1.
         11    1    3    3    0    0 -0.41518958590E+01 -0.26673808724E+01 -0.48125426833E+01  0.68930201858E+01  0.51100000000E-03 0. -1.
        -11    1    3    3    0    0 -0.16040716189E+01  0.15161801929E+02 -0.18274599593E+02  0.23799459532E+02  0.51100000000E-03 0.  1.
         12    1    3    3    0    0  0.19336767579E+01  0.85076362460E+01 -0.14700778866E+02  0.17094791007E+02  0.00000000000E+00 0. -1.
</event>
<event>
 7    1  0.2430096E-009  0.4778727E+02  0.7816164E-02  0.1312668E+00
        -11   -1    0    0    0    0  0.00000000000E+00  0.00000000000E+00  0.45593999997E+02  0.45594000000E+02  0.51100000000E-03 0.  1.
         11   -1    0    0    0    0 -0.00000000000E+00 -0.00000000000E+00 -0.45593999997E+02  0.45594000000E+02  0.51100000000E-03 0. -1.
    9900012    2    1    2    0    0 -0.40632594482E+02  0.10952995874E+02 -0.10613570016E+02  0.47787265888E+02  0.19999976489E+02 0.  0.
        -12    1    1    2    0    0  0.40632594482E+02 -0.10952995874E+02  0.10613570016E+02  0.43400734112E+02  0.00000000000E+00 0.  1.
         11    1    3    3    0    0 -0.38734286709E+00  0.47211716109E+01 -0.38103203291E+01  0.60793122265E+01  0.51100000000E-03 0. -1.
        -11    1    3    3    0    0 -0.34166648819E+02  0.44567886847E+01 -0.77175494719E+01  0.35309820547E+02  0.51100000000E-03 0.  1.
         12    1    3    3    0    0 -0.60786027959E+01  0.17750355785E+01  0.91429978486E+00  0.63981331146E+01  0.00000000000E+00 0. -1.
</event>
<event>
 7    1  0.2430096E-009  0.4778727E+02  0.7816164E-02  0.1312668E+00
        -11   -1    0    0    0    0  0.00000000000E+00  0.00000000000E+00  0.45593999997E+02  0.45594000000E+02  0.51100000000E-03 0. -1.
         11   -1    0    0    0    0 -0.00000000000E+00 -0.00000000000E+00 -0.45593999997E+02  0.45594000000E+02  0.51100000000E-03 0.  1.
    9900012    2    1    2    0    0 -0.44774413236E+01  0.33911675138E+02  0.26712813688E+02  0.47787267211E+02  0.19999982521E+02 0.  0.
        -12    1    1    2    0    0  0.44774413236E+01 -0.33911675138E+02 -0.26712813688E+02  0.43400732789E+02  0.00000000000E+00 0.  1.
         11    1    3    3    0    0  0.60651952722E+01  0.79510899176E+01  0.33575031766E+01  0.10548898161E+02  0.51100000000E-03 0. -1.
        -11    1    3    3    0    0 -0.33547951400E+00  0.15377924226E+01 -0.45154716669E+00  0.16374514173E+01  0.51100000000E-03 0.  1.
         12    1    3    3    0    0 -0.10207157082E+02  0.24422792798E+02  0.23806857679E+02  0.35600917633E+02  0.00000000000E+00 0. -1.
</event>
<event>
 7    1  0.2430096E-009  0.4778727E+02  0.7816164E-02  0.1312668E+00
        -11   -1    0    0    0    0  0.00000000000E+00  0.00000000000E+00  0.45593999997E+02  0.45594000000E+02  0.51100000000E-03 0. -1.
         11   -1    0    0    0    0 -0.00000000000E+00 -0.00000000000E+00 -0.45593999997E+02  0.45594000000E+02  0.51100000000E-03 0.  1.
    9900012    2    1    2    0    0  0.10774068458E+01 -0.35674685325E+02 -0.24693710898E+02  0.47787270323E+02  0.19999996711E+02 0.  0.
        -12    1    1    2    0    0 -0.10774068458E+01  0.35674685325E+02  0.24693710898E+02  0.43400729677E+02  0.00000000000E+00 0.  1.
         11    1    3    3    0    0 -0.59154040327E+01 -0.15704979690E+02 -0.18269261371E+02  0.24807343736E+02  0.51100000000E-03 0.  1.
        -11    1    3    3    0    0  0.55851454874E+01 -0.78831890489E+01 -0.11921526603E+01  0.97344618713E+01  0.51100000000E-03 0. -1.
         12    1    3    3    0    0  0.14076653910E+01 -0.12086516586E+02 -0.52322968675E+01  0.13245464716E+02  0.00000000000E+00 0. -1.
</event>
<event>
 7    1  0.2430096E-009  0.4778727E+02  0.7816164E-02  0.1312668E+00
        -11   -1    0    0    0    0  0.00000000000E+00  0.00000000000E+00  0.45593999997E+02  0.45594000000E+02  0.51100000000E-03 0. -1.
         11   -1    0    0    0    0 -0.00000000000E+00 -0.00000000000E+00 -0.45593999997E+02  0.45594000000E+02  0.51100000000E-03 0.  1.
    9900012    2    1    2    0    0  0.67698450696E+01 -0.74367530000E+01  0.42219508671E+02  0.47787274086E+02  0.20000013866E+02 0.  0.
        -12    1    1    2    0    0 -0.67698450696E+01  0.74367530000E+01 -0.42219508671E+02  0.43400725914E+02  0.00000000000E+00 0.  1.
         11    1    3    3    0    0  0.81541186873E+01 -0.77231624140E+00  0.66810529295E+01  0.10569890844E+02  0.51100000000E-03 0. -1.
        -11    1    3    3    0    0 -0.47604794830E+01 -0.30831547647E+01  0.24218057741E+02  0.24873325657E+02  0.51100000000E-03 0.  1.
         12    1    3    3    0    0  0.33762058652E+01 -0.35812819938E+01  0.11320398001E+02  0.12344057585E+02  0.00000000000E+00 0. -1.
</event>
<event>
 7    1  0.2430096E-009  0.4778727E+02  0.7816164E-02  0.1312668E+00
        -11   -1    0    0    0    0  0.00000000000E+00  0.00000000000E+00  0.45593999997E+02  0.45594000000E+02  0.51100000000E-03 0. -1.
         11   -1    0    0    0    0 -0.00000000000E+00 -0.00000000000E+00 -0.45593999997E+02  0.45594000000E+02  0.51100000000E-03 0.  1.
    9900012    2    1    2    0    0  0.19360539944E+02 -0.38840373765E+02  0.46708500963E+00  0.47787270634E+02  0.19999998128E+02 0.  0.
        -12    1    1    2    0    0 -0.19360539944E+02  0.38840373765E+02 -0.46708500963E+00  0.43400729366E+02  0.00000000000E+00 0.  1.
         11    1    3    3    0    0  0.14254127990E+02 -0.16851123951E+02 -0.15241273938E+01  0.22123822178E+02  0.51100000000E-03 0. -1.
        -11    1    3    3    0    0  0.19788835577E+01 -0.91987490977E+01  0.68390150702E+01  0.11632071720E+02  0.51100000000E-03 0.  1.
        -12    1    3    3    0    0  0.31275283965E+01 -0.12790500715E+02 -0.48478026667E+01  0.14031376736E+02  0.00000000000E+00 0.  1.
</event>
<event>
 7    1  0.2430096E-009  0.4778728E+02  0.7816164E-02  0.1312668E+00
        -11   -1    0    0    0    0  0.00000000000E+00  0.00000000000E+00  0.45593999997E+02  0.45594000000E+02  0.51100000000E-03 0. -1.
         11   -1    0    0    0    0 -0.00000000000E+00 -0.00000000000E+00 -0.45593999997E+02  0.45594000000E+02  0.51100000000E-03 0.  1.
    9900012    2    1    2    0    0 -0.28370365844E+02 -0.32681172604E+02 -0.32689744928E+01  0.47787275407E+02  0.20000019893E+02 0.  0.
        -12    1    1    2    0    0  0.28370365844E+02  0.32681172604E+02  0.32689744928E+01  0.43400724593E+02  0.00000000000E+00 0.  1.
         11    1    3    3    0    0 -0.57690750652E+01 -0.62566669133E+01 -0.83878767100E+00  0.85517058526E+01  0.51100000000E-03 0. -1.
        -11    1    3    3    0    0 -0.23283598009E+02 -0.23441322190E+02 -0.69639717297E+01  0.33765639706E+02  0.51100000000E-03 0.  1.
        -12    1    3    3    0    0  0.68230722996E+00 -0.29831835011E+01  0.45337849079E+01  0.54699298486E+01  0.00000000000E+00 0.  1.
</event>
<event>
 7    1  0.2430096E-009  0.4778727E+02  0.7816164E-02  0.1312668E+00
        -11   -1    0    0    0    0  0.00000000000E+00  0.00000000000E+00  0.45593999997E+02  0.45594000000E+02  0.51100000000E-03 0.  1.
         11   -1    0    0    0    0 -0.00000000000E+00 -0.00000000000E+00 -0.45593999997E+02  0.45594000000E+02  0.51100000000E-03 0. -1.
    9900012    2    1    2    0    0  0.31926750820E+02 -0.11620072209E+02 -0.27005180978E+02  0.47787270792E+02  0.19999998850E+02 0.  0.
        -12    1    1    2    0    0 -0.31926750820E+02  0.11620072209E+02  0.27005180978E+02  0.43400729208E+02  0.00000000000E+00 0.  1.
         11    1    3    3    0    0  0.16888858772E+02 -0.79883198750E+01 -0.82716313303E+01  0.20432001620E+02  0.51100000000E-03 0. -1.
        -11    1    3    3    0    0  0.19599169230E+01 -0.29837876433E+00 -0.12201521552E+02  0.12361530354E+02  0.51100000000E-03 0.  1.
        -12    1    3    3    0    0  0.13077975125E+02 -0.33333735693E+01 -0.65320280956E+01  0.14993738819E+02  0.00000000000E+00 0.  1.
</event>
<event>
 7    1  0.2430096E-009  0.4778727E+02  0.7816164E-02  0.1312668E+00
        -11   -1    0    0    0    0  0.00000000000E+00  0.00000000000E+00  0.45593999997E+02  0.45594000000E+02  0.51100000000E-03 0.  1.
         11   -1    0    0    0    0 -0.00000000000E+00 -0.00000000000E+00 -0.45593999997E+02  0.45594000000E+02  0.51100000000E-03 0. -1.
    9900012    2    1    2    0    0 -0.42554790908E+02 -0.57185402097E+01  0.63254639226E+01  0.47787269301E+02  0.19999992051E+02 0.  0.
        -12    1    1    2    0    0  0.42554790908E+02  0.57185402097E+01 -0.63254639226E+01  0.43400730699E+02  0.00000000000E+00 0.  1.
         11    1    3    3    0    0 -0.20409393474E+02 -0.21317166160E+01  0.26454463316E+01  0.20690237898E+02  0.51100000000E-03 0. -1.
        -11    1    3    3    0    0 -0.50449257173E+01 -0.76737962230E+01  0.27150267141E+00  0.91876078457E+01  0.51100000000E-03 0.  1.
        -12    1    3    3    0    0 -0.17100471717E+02  0.40869726292E+01  0.34085149196E+01  0.17909423558E+02  0.00000000000E+00 0.  1.
</event>
<event>
 7    1  0.2430096E-009  0.4778727E+02  0.7816164E-02  0.1312668E+00
        -11   -1    0    0    0    0  0.00000000000E+00  0.00000000000E+00  0.45593999997E+02  0.45594000000E+02  0.51100000000E-03 0.  1.
         11   -1    0    0    0    0 -0.00000000000E+00 -0.00000000000E+00 -0.45593999997E+02  0.45594000000E+02  0.51100000000E-03 0. -1.
    9900012    2    1    2    0    0  0.25766398526E+02 -0.33760015893E+02 -0.89429996739E+01  0.47787271789E+02  0.20000003395E+02 0.  0.
        -12    1    1    2    0    0 -0.25766398526E+02  0.33760015893E+02  0.89429996739E+01  0.43400728211E+02  0.00000000000E+00 0.  1.
         11    1    3    3    0    0  0.85861592469E+01 -0.78044673835E+01  0.47024377011E+01  0.12519774852E+02  0.51100000000E-03 0.  1.
        -11    1    3    3    0    0  0.16808356893E+02 -0.18622733126E+02 -0.94234115168E+01  0.26797905429E+02  0.51100000000E-03 0. -1.
        -12    1    3    3    0    0  0.37188238595E+00 -0.73328153840E+01 -0.42220258581E+01  0.84695915080E+01  0.00000000000E+00 0.  1.
</event>
<event>
 7    1  0.2430096E-009  0.4778727E+02  0.7816164E-02  0.1312668E+00
        -11   -1    0    0    0    0  0.00000000000E+00  0.00000000000E+00  0.45593999997E+02  0.45594000000E+02  0.51100000000E-03 0. -1.
         11   -1    0    0    0    0 -0.00000000000E+00 -0.00000000000E+00 -0.45593999997E+02  0.45594000000E+02  0.51100000000E-03 0.  1.
    9900012    2    1    2    0    0 -0.27467870304E+02 -0.83758261290E+01  0.32542045689E+02  0.47787273047E+02  0.20000009132E+02 0.  0.
        -12    1    1    2    0    0  0.27467870304E+02  0.83758261290E+01 -0.32542045689E+02  0.43400726953E+02  0.00000000000E+00 0.  1.
         11    1    3    3    0    0 -0.21672373165E+02 -0.54477957543E+01  0.32880894298E+02  0.39755797656E+02  0.51100000000E-03 0. -1.
        -11    1    3    3    0    0 -0.22883918271E+01 -0.37716304281E+01 -0.33587480932E+00  0.44243355873E+01  0.51100000000E-03 0.  1.
         12    1    3    3    0    0 -0.35071053120E+01  0.84360005339E+00 -0.29737996948E-02  0.36071398036E+01  0.00000000000E+00 0. -1.
</event>
<event>
 7    1  0.2430096E-009  0.4778728E+02  0.7816164E-02  0.1312668E+00
        -11   -1    0    0    0    0  0.00000000000E+00  0.00000000000E+00  0.45593999997E+02  0.45594000000E+02  0.51100000000E-03 0.  1.
         11   -1    0    0    0    0 -0.00000000000E+00 -0.00000000000E+00 -0.45593999997E+02  0.45594000000E+02  0.51100000000E-03 0. -1.
    9900012    2    1    2    0    0 -0.24647912661E+01  0.25129704498E+02 -0.35299372053E+02  0.47787275220E+02  0.20000019037E+02 0.  0.
        -12    1    1    2    0    0  0.24647912661E+01 -0.25129704498E+02  0.35299372053E+02  0.43400724780E+02  0.00000000000E+00 0.  1.
         11    1    3    3    0    0 -0.39649262090E+01  0.19341632841E+02 -0.33531151405E+02  0.38912176958E+02  0.51100000000E-03 0. -1.
        -11    1    3    3    0    0  0.14876804720E+01  0.67337358466E+01 -0.29921223481E-01  0.68961791725E+01  0.51100000000E-03 0.  1.
        -12    1    3    3    0    0  0.12454470890E-01 -0.94566419003E+00 -0.17382994238E+01  0.19789190890E+01  0.00000000000E+00 0.  1.
</event>
<event>
 7    1  0.2430096E-009  0.4778723E+02  0.7816164E-02  0.1312668E+00
        -11   -1    0    0    0    0  0.00000000000E+00  0.00000000000E+00  0.45593999997E+02  0.45594000000E+02  0.51100000000E-03 0.  1.
         11   -1    0    0    0    0 -0.00000000000E+00 -0.00000000000E+00 -0.45593999997E+02  0.45594000000E+02  0.51100000000E-03 0. -1.
    9900012    2    1    2    0    0 -0.30939586345E+02  0.28302298526E+02 -0.11195918610E+02  0.47787231590E+02  0.19999820111E+02 0.  0.
        -12    1    1    2    0    0  0.30939586345E+02 -0.28302298526E+02  0.11195918610E+02  0.43400768410E+02  0.00000000000E+00 0.  1.
         11    1    3    3    0    0  0.65470727359E+00  0.97767626396E+00 -0.77338054068E+00  0.14080519213E+01  0.51100000000E-03 0. -1.
        -11    1    3    3    0    0 -0.23892178429E+02  0.19696830359E+02 -0.15246104463E+02  0.34514417536E+02  0.51100000000E-03 0.  1.
        -12    1    3    3    0    0 -0.77021151893E+01  0.76277919033E+01  0.48235663942E+01  0.11864762133E+02  0.00000000000E+00 0.  1.
</event>
<event>
 7    1  0.2430096E-009  0.4778727E+02  0.7816164E-02  0.1312668E+00
        -11   -1    0    0    0    0  0.00000000000E+00  0.00000000000E+00  0.45593999997E+02  0.45594000000E+02  0.51100000000E-03 0.  1.
         11   -1    0    0    0    0 -0.00000000000E+00 -0.00000000000E+00 -0.45593999997E+02  0.45594000000E+02  0.51100000000E-03 0. -1.
    9900012    2    1    2    0    0  0.14171881971E+02 -0.38591765825E+02  0.13908880699E+02  0.47787267397E+02  0.19999983371E+02 0.  0.
        -12    1    1    2    0    0 -0.14171881971E+02  0.38591765825E+02 -0.13908880699E+02  0.43400732603E+02  0.00000000000E+00 0.  1.
         11    1    3    3    0    0  0.63761299220E+01 -0.26590496456E+02  0.92395248058E+01  0.28863096741E+02  0.51100000000E-03 0. -1.
        -11    1    3    3    0    0  0.57322214074E+01  0.36196197455E+00  0.75578239061E+00  0.57931499219E+01  0.51100000000E-03 0.  1.
        -12    1    3    3    0    0  0.20635306421E+01 -0.12363231344E+02  0.39135735028E+01  0.13131020734E+02  0.00000000000E+00 0.  1.
</event>
<event>
 7    1  0.2430096E-009  0.4778727E+02  0.7816164E-02  0.1312668E+00
        -11   -1    0    0    0    0  0.00000000000E+00  0.00000000000E+00  0.45593999997E+02  0.45594000000E+02  0.51100000000E-03 0.  1.
         11   -1    0    0    0    0 -0.00000000000E+00 -0.00000000000E+00 -0.45593999997E+02  0.45594000000E+02  0.51100000000E-03 0. -1.
    9900012    2    1    2    0    0  0.53197114537E+01  0.34946839931E+02 -0.25180192789E+02  0.47787273508E+02  0.20000011232E+02 0.  0.
        -12    1    1    2    0    0 -0.53197114537E+01 -0.34946839931E+02  0.25180192789E+02  0.43400726492E+02  0.00000000000E+00 0.  1.
         11    1    3    3    0    0 -0.20381777056E+01  0.38703519475E+00 -0.11714268828E+01  0.23824789200E+01  0.51100000000E-03 0. -1.
        -11    1    3    3    0    0  0.15931783082E+01  0.22937736567E+02 -0.70433341427E+01  0.24047588903E+02  0.51100000000E-03 0.  1.
        -12    1    3    3    0    0  0.57647108511E+01  0.11622068170E+02 -0.16965431764E+02  0.21357205685E+02  0.00000000000E+00 0.  1.
</event>
<event>
 7    1  0.2430096E-009  0.4778725E+02  0.7816164E-02  0.1312668E+00
        -11   -1    0    0    0    0  0.00000000000E+00  0.00000000000E+00  0.45593999997E+02  0.45594000000E+02  0.51100000000E-03 0.  1.
         11   -1    0    0    0    0 -0.00000000000E+00 -0.00000000000E+00 -0.45593999997E+02  0.45594000000E+02  0.51100000000E-03 0. -1.
    9900012    2    1    2    0    0  0.10516086113E+02 -0.37001841939E+02 -0.20097274573E+02  0.47787253240E+02  0.19999918824E+02 0.  0.
        -12    1    1    2    0    0 -0.10516086113E+02  0.37001841939E+02  0.20097274573E+02  0.43400746760E+02  0.00000000000E+00 0.  1.
         11    1    3    3    0    0  0.12141296452E+02 -0.15430038733E+02 -0.50805163740E+01  0.20280750028E+02  0.51100000000E-03 0. -1.
        -11    1    3    3    0    0  0.32756111638E+00  0.64929872838E+00 -0.63522598551E+00  0.96560728945E+00  0.51100000000E-03 0.  1.
         12    1    3    3    0    0 -0.19527714556E+01 -0.22221101935E+02 -0.14381532214E+02  0.26540895923E+02  0.00000000000E+00 0. -1.
</event>
<event>
 7    1  0.2430096E-009  0.4778727E+02  0.7816164E-02  0.1312668E+00
        -11   -1    0    0    0    0  0.00000000000E+00  0.00000000000E+00  0.45593999997E+02  0.45594000000E+02  0.51100000000E-03 0.  1.
         11   -1    0    0    0    0 -0.00000000000E+00 -0.00000000000E+00 -0.45593999997E+02  0.45594000000E+02  0.51100000000E-03 0. -1.
    9900012    2    1    2    0    0  0.22804600342E+02 -0.14284973303E+00 -0.36926321778E+02  0.47787269097E+02  0.19999991121E+02 0.  0.
        -12    1    1    2    0    0 -0.22804600342E+02  0.14284973303E+00  0.36926321778E+02  0.43400730903E+02  0.00000000000E+00 0.  1.
         11    1    3    3    0    0  0.13366943424E+02 -0.53964386103E+01 -0.26002368550E+02  0.29730790381E+02  0.51100000000E-03 0. -1.
        -11    1    3    3    0    0  0.40325595540E+00  0.48174283152E+01 -0.61700346449E+01  0.78383390280E+01  0.51100000000E-03 0.  1.
        -12    1    3    3    0    0  0.90344009630E+01  0.43616056213E+00 -0.47539185833E+01  0.10218139688E+02  0.00000000000E+00 0.  1.
</event>
<event>
 7    1  0.2430096E-009  0.4778727E+02  0.7816164E-02  0.1312668E+00
        -11   -1    0    0    0    0  0.00000000000E+00  0.00000000000E+00  0.45593999997E+02  0.45594000000E+02  0.51100000000E-03 0.  1.
         11   -1    0    0    0    0 -0.00000000000E+00 -0.00000000000E+00 -0.45593999997E+02  0.45594000000E+02  0.51100000000E-03 0. -1.
    9900012    2    1    2    0    0  0.27616995877E+02 -0.22758810500E+02 -0.24555269668E+02  0.47787272067E+02  0.20000004660E+02 0.  0.
        -12    1    1    2    0    0 -0.27616995877E+02  0.22758810500E+02  0.24555269668E+02  0.43400727933E+02  0.00000000000E+00 0.  1.
         11    1    3    3    0    0  0.35305947109E+01  0.33044664542E+00  0.14400590245E+01  0.38272789620E+01  0.51100000000E-03 0. -1.
        -11    1    3    3    0    0 -0.11716139416E+01 -0.28083916351E+01 -0.25964004311E+01  0.40001297809E+01  0.51100000000E-03 0.  1.
         12    1    3    3    0    0  0.25258015108E+02 -0.20280865511E+02 -0.23398928262E+02  0.39959863324E+02  0.00000000000E+00 0. -1.
</event>
<event>
 7    1  0.2430096E-009  0.4778727E+02  0.7816164E-02  0.1312668E+00
        -11   -1    0    0    0    0  0.00000000000E+00  0.00000000000E+00  0.45593999997E+02  0.45594000000E+02  0.51100000000E-03 0.  1.
         11   -1    0    0    0    0 -0.00000000000E+00 -0.00000000000E+00 -0.45593999997E+02  0.45594000000E+02  0.51100000000E-03 0. -1.
    9900012    2    1    2    0    0  0.22900539349E+02  0.13448762330E+02 -0.34326660179E+02  0.47787268327E+02  0.19999987611E+02 0.  0.
        -12    1    1    2    0    0 -0.22900539349E+02 -0.13448762330E+02  0.34326660179E+02  0.43400731673E+02  0.00000000000E+00 0.  1.
         11    1    3    3    0    0  0.91343140738E+01  0.10072630907E+02 -0.61691657029E+01  0.14931583731E+02  0.51100000000E-03 0. -1.
        -11    1    3    3    0    0  0.29839513961E+01  0.35787567381E+01 -0.15709590188E+02  0.16386051686E+02  0.51100000000E-03 0.  1.
         12    1    3    3    0    0  0.10782273879E+02 -0.20262531508E+00 -0.12447904288E+02  0.16469632910E+02  0.00000000000E+00 0. -1.
</event>
<event>
 7    1  0.2430096E-009  0.4778727E+02  0.7816164E-02  0.1312668E+00
        -11   -1    0    0    0    0  0.00000000000E+00  0.00000000000E+00  0.45593999997E+02  0.45594000000E+02  0.51100000000E-03 0.  1.
         11   -1    0    0    0    0 -0.00000000000E+00 -0.00000000000E+00 -0.45593999997E+02  0.45594000000E+02  0.51100000000E-03 0. -1.
    9900012    2    1    2    0    0  0.85305771288E+01  0.38166463303E+02 -0.18819500120E+02  0.47787271297E+02  0.20000001151E+02 0.  0.
        -12    1    1    2    0    0 -0.85305771288E+01 -0.38166463303E+02  0.18819500120E+02  0.43400728703E+02  0.00000000000E+00 0.  1.
         11    1    3    3    0    0  0.99742754379E+01  0.26994945953E+02 -0.12016202858E+02  0.31186574177E+02  0.51100000000E-03 0. -1.
        -11    1    3    3    0    0 -0.25435269377E+00 -0.78017275559E+00  0.16979114432E+01  0.18858070822E+01  0.51100000000E-03 0.  1.
         12    1    3    3    0    0 -0.11893456154E+01  0.11951690105E+02 -0.85012087054E+01  0.14714890038E+02  0.00000000000E+00 0. -1.
</event>
<event>
 7    1  0.2430096E-009  0.4778727E+02  0.7816164E-02  0.1312668E+00
        -11   -1    0    0    0    0  0.00000000000E+00  0.00000000000E+00  0.45593999997E+02  0.45594000000E+02  0.51100000000E-03 0. -1.
         11   -1    0    0    0    0 -0.00000000000E+00 -0.00000000000E+00 -0.45593999997E+02  0.45594000000E+02  0.51100000000E-03 0.  1.
    9900012    2    1    2    0    0  0.22569865940E+01  0.34286258848E+02  0.26513802477E+02  0.47787271249E+02  0.20000000934E+02 0.  0.
        -12    1    1    2    0    0 -0.22569865940E+01 -0.34286258848E+02 -0.26513802477E+02  0.43400728751E+02  0.00000000000E+00 0.  1.
         11    1    3    3    0    0 -0.25359159116E+01  0.19299705139E+01  0.14343952863E+01  0.34947311476E+01  0.51100000000E-03 0. -1.
        -11    1    3    3    0    0  0.46674536934E+01  0.34437134495E+01  0.10300818931E+02  0.11821639362E+02  0.51100000000E-03 0.  1.
        -12    1    3    3    0    0  0.12544881210E+00  0.28912574885E+02  0.14778588260E+02  0.32470900739E+02  0.00000000000E+00 0.  1.
</event>
<event>
 7    1  0.2430096E-009  0.4778727E+02  0.7816164E-02  0.1312668E+00
        -11   -1    0    0    0    0  0.00000000000E+00  0.00000000000E+00  0.45593999997E+02  0.45594000000E+02  0.51100000000E-03 0.  1.
         11   -1    0    0    0    0 -0.00000000000E+00 -0.00000000000E+00 -0.45593999997E+02  0.45594000000E+02  0.51100000000E-03 0. -1.
    9900012    2    1    2    0    0  0.31150781507E+02 -0.28510124833E+02 -0.10021236743E+02  0.47787267375E+02  0.19999983270E+02 0.  0.
        -12    1    1    2    0    0 -0.31150781507E+02  0.28510124833E+02  0.10021236743E+02  0.43400732625E+02  0.00000000000E+00 0.  1.
         11    1    3    3    0    0  0.20734110155E+01 -0.90198006523E+00 -0.52548157351E+01  0.57206371978E+01  0.51100000000E-03 0. -1.
        -11    1    3    3    0    0  0.42213825871E+01  0.52259747403E+00 -0.64655980579E+00  0.43024666077E+01  0.51100000000E-03 0.  1.
         12    1    3    3    0    0  0.24855987904E+02 -0.28130742242E+02 -0.41198612024E+01  0.37764163570E+02  0.00000000000E+00 0. -1.
</event>
<event>
 7    1  0.2430096E-009  0.4778727E+02  0.7816164E-02  0.1312668E+00
        -11   -1    0    0    0    0  0.00000000000E+00  0.00000000000E+00  0.45593999997E+02  0.45594000000E+02  0.51100000000E-03 0. -1.
         11   -1    0    0    0    0 -0.00000000000E+00 -0.00000000000E+00 -0.45593999997E+02  0.45594000000E+02  0.51100000000E-03 0.  1.
    9900012    2    1    2    0    0 -0.16074927719E+02  0.49453618840E+01  0.40009542710E+02  0.47787269440E+02  0.19999992683E+02 0.  0.
        -12    1    1    2    0    0  0.16074927719E+02 -0.49453618840E+01 -0.40009542710E+02  0.43400730560E+02  0.00000000000E+00 0.  1.
         11    1    3    3    0    0 -0.44397950916E+01 -0.22495898234E+01  0.67593198226E+01  0.83940955174E+01  0.51100000000E-03 0. -1.
        -11    1    3    3    0    0 -0.50758694721E+01  0.19013621124E+01  0.35132301609E+00  0.54316716491E+01  0.51100000000E-03 0.  1.
        -12    1    3    3    0    0 -0.65592631550E+01  0.52935895950E+01  0.32898899871E+02  0.33961502273E+02  0.00000000000E+00 0.  1.
</event>
<event>
 7    1  0.2430096E-009  0.4778727E+02  0.7816164E-02  0.1312668E+00
        -11   -1    0    0    0    0  0.00000000000E+00  0.00000000000E+00  0.45593999997E+02  0.45594000000E+02  0.51100000000E-03 0. -1.
         11   -1    0    0    0    0 -0.00000000000E+00 -0.00000000000E+00 -0.45593999997E+02  0.45594000000E+02  0.51100000000E-03 0.  1.
    9900012    2    1    2    0    0  0.21690156085E+02  0.20962350761E+02  0.31204814738E+02  0.47787268633E+02  0.19999989004E+02 0.  0.
        -12    1    1    2    0    0 -0.21690156085E+02 -0.20962350761E+02 -0.31204814738E+02  0.43400731367E+02  0.00000000000E+00 0.  1.
         11    1    3    3    0    0  0.25291900104E+01 -0.31028947976E+01  0.51683832846E+01  0.65373499426E+01  0.51100000000E-03 0. -1.
        -11    1    3    3    0    0  0.14185407081E+02  0.11727628035E+02  0.12359161031E+02  0.22170067547E+02  0.51100000000E-03 0.  1.
         12    1    3    3    0    0  0.49755589940E+01  0.12337617524E+02  0.13677270422E+02  0.19079851144E+02  0.00000000000E+00 0. -1.
</event>
<event>
 7    1  0.2430096E-009  0.4778728E+02  0.7816164E-02  0.1312668E+00
        -11   -1    0    0    0    0  0.00000000000E+00  0.00000000000E+00  0.45593999997E+02  0.45594000000E+02  0.51100000000E-03 0.  1.
         11   -1    0    0    0    0 -0.00000000000E+00 -0.00000000000E+00 -0.45593999997E+02  0.45594000000E+02  0.51100000000E-03 0. -1.
    9900012    2    1    2    0    0 -0.29060031851E+02 -0.25578297295E+02 -0.19618564758E+02  0.47787276194E+02  0.20000023477E+02 0.  0.
        -12    1    1    2    0    0  0.29060031851E+02  0.25578297295E+02  0.19618564758E+02  0.43400723806E+02  0.00000000000E+00 0.  1.
         11    1    3    3    0    0  0.88792815441E+00 -0.83091086696E+00 -0.50461320724E+01  0.51905951903E+01  0.51100000000E-03 0. -1.
        -11    1    3    3    0    0 -0.28806384120E+02 -0.23753779341E+02 -0.15901885469E+02  0.40582259188E+02  0.51100000000E-03 0.  1.
        -12    1    3    3    0    0 -0.11415758858E+01 -0.99360708774E+00  0.13294527832E+01  0.20144218155E+01  0.00000000000E+00 0.  1.
</event>
<event>
 7    1  0.2430096E-009  0.4778727E+02  0.7816164E-02  0.1312668E+00
        -11   -1    0    0    0    0  0.00000000000E+00  0.00000000000E+00  0.45593999997E+02  0.45594000000E+02  0.51100000000E-03 0.  1.
         11   -1    0    0    0    0 -0.00000000000E+00 -0.00000000000E+00 -0.45593999997E+02  0.45594000000E+02  0.51100000000E-03 0. -1.
    9900012    2    1    2    0    0  0.34492201963E+02  0.83299804967E+01 -0.24990450828E+02  0.47787271851E+02  0.20000003677E+02 0.  0.
        -12    1    1    2    0    0 -0.34492201963E+02 -0.83299804967E+01  0.24990450828E+02  0.43400728149E+02  0.00000000000E+00 0.  1.
         11    1    3    3    0    0  0.26675374557E+02 -0.84362073876E+00 -0.17929448724E+02  0.32152020707E+02  0.51100000000E-03 0. -1.
        -11    1    3    3    0    0 -0.54413192155E+00  0.19664558084E+01  0.68257786052E+00  0.21514973370E+01  0.51100000000E-03 0.  1.
         12    1    3    3    0    0  0.83609593271E+01  0.72071454271E+01 -0.77435799639E+01  0.13483753807E+02  0.00000000000E+00 0. -1.
</event>
<event>
 7    1  0.2430096E-009  0.4778727E+02  0.7816164E-02  0.1312668E+00
        -11   -1    0    0    0    0  0.00000000000E+00  0.00000000000E+00  0.45593999997E+02  0.45594000000E+02  0.51100000000E-03 0.  1.
         11   -1    0    0    0    0 -0.00000000000E+00 -0.00000000000E+00 -0.45593999997E+02  0.45594000000E+02  0.51100000000E-03 0. -1.
    9900012    2    1    2    0    0  0.41288414919E+02 -0.11788738110E+01 -0.13322922981E+02  0.47787271587E+02  0.20000002474E+02 0.  0.
        -12    1    1    2    0    0 -0.41288414919E+02  0.11788738110E+01  0.13322922981E+02  0.43400728413E+02  0.00000000000E+00 0.  1.
         11    1    3    3    0    0  0.27213134258E+02  0.15308014391E+01 -0.15236524130E+02  0.31225785771E+02  0.51100000000E-03 0. -1.
        -11    1    3    3    0    0  0.13104533099E+00  0.13175312175E+01  0.15558122908E+01  0.20429423715E+01  0.51100000000E-03 0.  1.
         12    1    3    3    0    0  0.13944235330E+02 -0.40272064676E+01  0.35778885899E+00  0.14518543444E+02  0.00000000000E+00 0. -1.
</event>
<event>
 7    1  0.2430096E-009  0.4778730E+02  0.7816164E-02  0.1312668E+00
        -11   -1    0    0    0    0  0.00000000000E+00  0.00000000000E+00  0.45593999997E+02  0.45594000000E+02  0.51100000000E-03 0.  1.
         11   -1    0    0    0    0 -0.00000000000E+00 -0.00000000000E+00 -0.45593999997E+02  0.45594000000E+02  0.51100000000E-03 0. -1.
    9900012    2    1    2    0    0  0.44549912702E+01 -0.20204245448E+02 -0.38151834522E+02  0.47787297717E+02  0.20000121609E+02 0.  0.
        -12    1    1    2    0    0 -0.44549912702E+01  0.20204245448E+02  0.38151834522E+02  0.43400702283E+02  0.00000000000E+00 0.  1.
         11    1    3    3    0    0  0.65596766932E+01 -0.31267722165E+01 -0.12425612220E+02  0.14394509443E+02  0.51100000000E-03 0. -1.
        -11    1    3    3    0    0 -0.52154944339E+01 -0.72197408225E+01 -0.49561513805E+01  0.10192618726E+02  0.51100000000E-03 0.  1.
        -12    1    3    3    0    0  0.31108090109E+01 -0.98577324086E+01 -0.20770070922E+02  0.23200169547E+02  0.00000000000E+00 0.  1.
</event>
<event>
 7    1  0.2430096E-009  0.4778727E+02  0.7816164E-02  0.1312668E+00
        -11   -1    0    0    0    0  0.00000000000E+00  0.00000000000E+00  0.45593999997E+02  0.45594000000E+02  0.51100000000E-03 0.  1.
         11   -1    0    0    0    0 -0.00000000000E+00 -0.00000000000E+00 -0.45593999997E+02  0.45594000000E+02  0.51100000000E-03 0. -1.
    9900012    2    1    2    0    0 -0.10916305182E+02  0.18917648598E+02 -0.37504398157E+02  0.47787273872E+02  0.20000012894E+02 0.  0.
        -12    1    1    2    0    0  0.10916305182E+02 -0.18917648598E+02  0.37504398157E+02  0.43400726128E+02  0.00000000000E+00 0.  1.
         11    1    3    3    0    0 -0.14932982844E+00 -0.18579212417E+01 -0.96425319189E+00  0.20985602724E+01  0.51100000000E-03 0. -1.
        -11    1    3    3    0    0  0.52064443936E+00  0.10669083208E+02 -0.78922966438E+01  0.13281142786E+02  0.51100000000E-03 0.  1.
        -12    1    3    3    0    0 -0.11287619793E+02  0.10106486631E+02 -0.28647848321E+02  0.32407570814E+02  0.00000000000E+00 0.  1.
</event>
<event>
 7    1  0.2430096E-009  0.4778727E+02  0.7816164E-02  0.1312668E+00
        -11   -1    0    0    0    0  0.00000000000E+00  0.00000000000E+00  0.45593999997E+02  0.45594000000E+02  0.51100000000E-03 0. -1.
         11   -1    0    0    0    0 -0.00000000000E+00 -0.00000000000E+00 -0.45593999997E+02  0.45594000000E+02  0.51100000000E-03 0.  1.
    9900012    2    1    2    0    0 -0.27213687192E+01  0.33994610334E+02  0.26843690221E+02  0.47787273230E+02  0.20000009964E+02 0.  0.
        -12    1    1    2    0    0  0.27213687192E+01 -0.33994610334E+02 -0.26843690221E+02  0.43400726770E+02  0.00000000000E+00 0.  1.
         11    1    3    3    0    0 -0.61107697037E+01  0.21415028112E+02  0.98347078145E+01  0.24344740982E+02  0.51100000000E-03 0. -1.
        -11    1    3    3    0    0  0.74844935325E+00  0.29307203979E+01  0.11765058709E+02  0.12147670772E+02  0.51100000000E-03 0.  1.
         12    1    3    3    0    0  0.26409516312E+01  0.96488618247E+01  0.52439236973E+01  0.11294861476E+02  0.00000000000E+00 0. -1.
</event>
<event>
 7    1  0.2430096E-009  0.4778727E+02  0.7816164E-02  0.1312668E+00
        -11   -1    0    0    0    0  0.00000000000E+00  0.00000000000E+00  0.45593999997E+02  0.45594000000E+02  0.51100000000E-03 0. -1.
         11   -1    0    0    0    0 -0.00000000000E+00 -0.00000000000E+00 -0.45593999997E+02  0.45594000000E+02  0.51100000000E-03 0.  1.
    9900012    2    1    2    0    0 -0.54969838395E+01  0.24452734692E+02  0.35432613161E+02  0.47787272580E+02  0.20000006999E+02 0.  0.
        -12    1    1    2    0    0  0.54969838395E+01 -0.24452734692E+02 -0.35432613161E+02  0.43400727420E+02  0.00000000000E+00 0.  1.
         11    1    3    3    0    0 -0.26441588606E+01  0.99434097473E+01  0.24896405763E+02  0.26938708092E+02  0.51100000000E-03 0. -1.
        -11    1    3    3    0    0  0.23211843841E+01  0.19818287767E+01  0.56852490421E+01  0.64527202928E+01  0.51100000000E-03 0.  1.
         12    1    3    3    0    0 -0.51740093630E+01  0.12527496168E+02  0.48509583558E+01  0.14395844195E+02  0.00000000000E+00 0. -1.
</event>
<event>
 7    1  0.2430096E-009  0.4778727E+02  0.7816164E-02  0.1312668E+00
        -11   -1    0    0    0    0  0.00000000000E+00  0.00000000000E+00  0.45593999997E+02  0.45594000000E+02  0.51100000000E-03 0.  1.
         11   -1    0    0    0    0 -0.00000000000E+00 -0.00000000000E+00 -0.45593999997E+02  0.45594000000E+02  0.51100000000E-03 0. -1.
    9900012    2    1    2    0    0 -0.26515920954E+02 -0.11218256215E+02 -0.32475837105E+02  0.47787270373E+02  0.19999996937E+02 0.  0.
        -12    1    1    2    0    0  0.26515920954E+02  0.11218256215E+02  0.32475837105E+02  0.43400729627E+02  0.00000000000E+00 0.  1.
         11    1    3    3    0    0 -0.23059453084E+02 -0.43216958139E+01 -0.19905529847E+02  0.30767605529E+02  0.51100000000E-03 0. -1.
        -11    1    3    3    0    0 -0.43985009605E+01 -0.50892988441E+01 -0.13259572011E+02  0.14868221938E+02  0.51100000000E-03 0.  1.
         12    1    3    3    0    0  0.94203309078E+00 -0.18072615565E+01  0.68926475277E+00  0.21514429059E+01  0.00000000000E+00 0. -1.
</event>
<event>
 7    1  0.2430096E-009  0.4778727E+02  0.7816164E-02  0.1312668E+00
        -11   -1    0    0    0    0  0.00000000000E+00  0.00000000000E+00  0.45593999997E+02  0.45594000000E+02  0.51100000000E-03 0.  1.
         11   -1    0    0    0    0 -0.00000000000E+00 -0.00000000000E+00 -0.45593999997E+02  0.45594000000E+02  0.51100000000E-03 0. -1.
    9900012    2    1    2    0    0 -0.12912900744E+02  0.16874395338E+02 -0.37843560153E+02  0.47787271104E+02  0.20000000273E+02 0.  0.
        -12    1    1    2    0    0  0.12912900744E+02 -0.16874395338E+02  0.37843560153E+02  0.43400728896E+02  0.00000000000E+00 0.  1.
         11    1    3    3    0    0 -0.62001771141E+01  0.12147467955E+01 -0.68648440483E+01  0.93297315123E+01  0.51100000000E-03 0. -1.
        -11    1    3    3    0    0 -0.88030271322E+01  0.26041086840E+01 -0.93193371773E+01  0.13081464536E+02  0.51100000000E-03 0.  1.
        -12    1    3    3    0    0  0.20903035023E+01  0.13055539858E+02 -0.21659378927E+02  0.25376075056E+02  0.00000000000E+00 0.  1.
</event>
<event>
 7    1  0.2430096E-009  0.4778727E+02  0.7816164E-02  0.1312668E+00
        -11   -1    0    0    0    0  0.00000000000E+00  0.00000000000E+00  0.45593999997E+02  0.45594000000E+02  0.51100000000E-03 0.  1.
         11   -1    0    0    0    0 -0.00000000000E+00 -0.00000000000E+00 -0.45593999997E+02  0.45594000000E+02  0.51100000000E-03 0. -1.
    9900012    2    1    2    0    0  0.77360098101E+00 -0.15013731929E+02 -0.40713789303E+02  0.47787271385E+02  0.20000001554E+02 0.  0.
        -12    1    1    2    0    0 -0.77360098101E+00  0.15013731929E+02  0.40713789303E+02  0.43400728615E+02  0.00000000000E+00 0.  1.
         11    1    3    3    0    0 -0.67115563245E+01 -0.19407829627E+01 -0.97359699985E+01  0.11983352573E+02  0.51100000000E-03 0. -1.
        -11    1    3    3    0    0  0.81128735625E+01 -0.69398728984E+01 -0.13138219824E+02  0.16929068896E+02  0.51100000000E-03 0.  1.
        -12    1    3    3    0    0 -0.62771625695E+00 -0.61330760683E+01 -0.17839599480E+02  0.18874849917E+02  0.00000000000E+00 0.  1.
</event>
<event>
 7    1  0.2430096E-009  0.4778727E+02  0.7816164E-02  0.1312668E+00
        -11   -1    0    0    0    0  0.00000000000E+00  0.00000000000E+00  0.45593999997E+02  0.45594000000E+02  0.51100000000E-03 0.  1.
         11   -1    0    0    0    0 -0.00000000000E+00 -0.00000000000E+00 -0.45593999997E+02  0.45594000000E+02  0.51100000000E-03 0. -1.
    9900012    2    1    2    0    0  0.25681579427E+02  0.10946393035E+02 -0.33230350443E+02  0.47787271516E+02  0.20000002152E+02 0.  0.
        -12    1    1    2    0    0 -0.25681579427E+02 -0.10946393035E+02  0.33230350443E+02  0.43400728484E+02  0.00000000000E+00 0.  1.
         11    1    3    3    0    0  0.91403032079E+01 -0.41728648468E+01 -0.67910317085E+01  0.12127491731E+02  0.51100000000E-03 0. -1.
        -11    1    3    3    0    0  0.60286593426E+01  0.59701391416E+01 -0.16462847589E+02  0.18520600580E+02  0.51100000000E-03 0.  1.
         12    1    3    3    0    0  0.10512616877E+02  0.91491187400E+01 -0.99764711454E+01  0.17139179205E+02  0.00000000000E+00 0. -1.
</event>
<event>
 7    1  0.2430096E-009  0.4778727E+02  0.7816164E-02  0.1312668E+00
        -11   -1    0    0    0    0  0.00000000000E+00  0.00000000000E+00  0.45593999997E+02  0.45594000000E+02  0.51100000000E-03 0.  1.
         11   -1    0    0    0    0 -0.00000000000E+00 -0.00000000000E+00 -0.45593999997E+02  0.45594000000E+02  0.51100000000E-03 0. -1.
    9900012    2    1    2    0    0 -0.20001674768E+02 -0.91108564299E+01 -0.37423902219E+02  0.47787272406E+02  0.20000006207E+02 0.  0.
        -12    1    1    2    0    0  0.20001674768E+02  0.91108564299E+01  0.37423902219E+02  0.43400727594E+02  0.00000000000E+00 0.  1.
         11    1    3    3    0    0 -0.48231528898E+01 -0.54846549321E+01 -0.21763991296E+01  0.76210863369E+01  0.51100000000E-03 0. -1.
        -11    1    3    3    0    0 -0.10757944282E+02  0.15276571026E+01 -0.28884693632E+02  0.30860859157E+02  0.51100000000E-03 0.  1.
        -12    1    3    3    0    0 -0.44205775960E+01 -0.51538586004E+01 -0.63628094570E+01  0.93053269121E+01  0.00000000000E+00 0.  1.
</event>
<event>
 7    1  0.2430096E-009  0.4778726E+02  0.7816164E-02  0.1312668E+00
        -11   -1    0    0    0    0  0.00000000000E+00  0.00000000000E+00  0.45593999997E+02  0.45594000000E+02  0.51100000000E-03 0. -1.
         11   -1    0    0    0    0 -0.00000000000E+00 -0.00000000000E+00 -0.45593999997E+02  0.45594000000E+02  0.51100000000E-03 0.  1.
    9900012    2    1    2    0    0  0.64993898533E+01 -0.21400782478E+02  0.37193930172E+02  0.47787262670E+02  0.19999961820E+02 0.  0.
        -12    1    1    2    0    0 -0.64993898533E+01  0.21400782478E+02 -0.37193930172E+02  0.43400737330E+02  0.00000000000E+00 0.  1.
         11    1    3    3    0    0  0.66627614080E+00  0.27457733387E+01  0.41511694361E+01  0.50214941075E+01  0.51100000000E-03 0.  1.
        -11    1    3    3    0    0  0.88262761688E+01 -0.14991434359E+02  0.23154822287E+02  0.28961906887E+02  0.51100000000E-03 0. -1.
         12    1    3    3    0    0 -0.29931624564E+01 -0.91551214578E+01  0.98879384487E+01  0.13803861676E+02  0.00000000000E+00 0. -1.
</event>
<event>
 7    1  0.2430096E-009  0.4778727E+02  0.7816164E-02  0.1312668E+00
        -11   -1    0    0    0    0  0.00000000000E+00  0.00000000000E+00  0.45593999997E+02  0.45594000000E+02  0.51100000000E-03 0. -1.
         11   -1    0    0    0    0 -0.00000000000E+00 -0.00000000000E+00 -0.45593999997E+02  0.45594000000E+02  0.51100000000E-03 0.  1.
    9900012    2    1    2    0    0 -0.52728707308E+01  0.12446602196E+01  0.43061249763E+02  0.47787267564E+02  0.19999984132E+02 0.  0.
        -12    1    1    2    0    0  0.52728707308E+01 -0.12446602196E+01 -0.43061249763E+02  0.43400732436E+02  0.00000000000E+00 0.  1.
         11    1    3    3    0    0 -0.64252615364E+01  0.15688590073E+01  0.10269751580E+02  0.12215281502E+02  0.51100000000E-03 0.  1.
        -11    1    3    3    0    0  0.31989627200E+01  0.44189827926E+00  0.33193363007E+02  0.33350082227E+02  0.51100000000E-03 0. -1.
        -12    1    3    3    0    0 -0.20465719144E+01 -0.76609706694E+00 -0.40186482390E+00  0.22219038353E+01  0.00000000000E+00 0.  1.
</event>
<event>
 7    1  0.2430096E-009  0.4778727E+02  0.7816164E-02  0.1312668E+00
        -11   -1    0    0    0    0  0.00000000000E+00  0.00000000000E+00  0.45593999997E+02  0.45594000000E+02  0.51100000000E-03 0.  1.
         11   -1    0    0    0    0 -0.00000000000E+00 -0.00000000000E+00 -0.45593999997E+02  0.45594000000E+02  0.51100000000E-03 0. -1.
    9900012    2    1    2    0    0  0.16174250522E+02  0.16051125418E+02 -0.36937490605E+02  0.47787271673E+02  0.20000002865E+02 0.  0.
        -12    1    1    2    0    0 -0.16174250522E+02 -0.16051125418E+02  0.36937490605E+02  0.43400728327E+02  0.00000000000E+00 0.  1.
         11    1    3    3    0    0  0.13932535524E+00 -0.82804984158E+00  0.16503947410E+01  0.18517238339E+01  0.51100000000E-03 0.  1.
        -11    1    3    3    0    0  0.12467602733E+01  0.68146271694E+01 -0.12735652795E+02  0.14497944924E+02  0.51100000000E-03 0. -1.
         12    1    3    3    0    0  0.14788164893E+02  0.10064548091E+02 -0.25852232551E+02  0.31437602915E+02  0.00000000000E+00 0. -1.
</event>
<event>
 7    1  0.2430096E-009  0.4778727E+02  0.7816164E-02  0.1312668E+00
        -11   -1    0    0    0    0  0.00000000000E+00  0.00000000000E+00  0.45593999997E+02  0.45594000000E+02  0.51100000000E-03 0. -1.
         11   -1    0    0    0    0 -0.00000000000E+00 -0.00000000000E+00 -0.45593999997E+02  0.45594000000E+02  0.51100000000E-03 0.  1.
    9900012    2    1    2    0    0 -0.21411580287E+02 -0.37165508263E+02 -0.66251402103E+01  0.47787271232E+02  0.20000000854E+02 0.  0.
        -12    1    1    2    0    0  0.21411580287E+02  0.37165508263E+02  0.66251402103E+01  0.43400728768E+02  0.00000000000E+00 0.  1.
         11    1    3    3    0    0 -0.13464676245E+02 -0.17336182357E+02 -0.11011216727E+00  0.21951146896E+02  0.51100000000E-03 0. -1.
        -11    1    3    3    0    0  0.29446692416E+01 -0.94442703277E+01 -0.17164885054E+01  0.10040500586E+02  0.51100000000E-03 0.  1.
         12    1    3    3    0    0 -0.10891573284E+02 -0.10385055578E+02 -0.47985395376E+01  0.15795623750E+02  0.00000000000E+00 0. -1.
</event>
<event>
 7    1  0.2430096E-009  0.4778728E+02  0.7816164E-02  0.1312668E+00
        -11   -1    0    0    0    0  0.00000000000E+00  0.00000000000E+00  0.45593999997E+02  0.45594000000E+02  0.51100000000E-03 0.  1.
         11   -1    0    0    0    0 -0.00000000000E+00 -0.00000000000E+00 -0.45593999997E+02  0.45594000000E+02  0.51100000000E-03 0. -1.
    9900012    2    1    2    0    0 -0.71081100217E+01  0.35126707833E+02 -0.24478803369E+02  0.47787278282E+02  0.20000033000E+02 0.  0.
        -12    1    1    2    0    0  0.71081100217E+01 -0.35126707833E+02  0.24478803369E+02  0.43400721718E+02  0.00000000000E+00 0.  1.
         11    1    3    3    0    0 -0.61665979819E+01  0.32211813787E+01 -0.73772880552E+01  0.10140380637E+02  0.51100000000E-03 0. -1.
        -11    1    3    3    0    0 -0.48936204621E+00  0.21369143053E+02 -0.57123591167E+01  0.22124890892E+02  0.51100000000E-03 0.  1.
        -12    1    3    3    0    0 -0.45214999359E+00  0.10536383401E+02 -0.11389156197E+02  0.15522006754E+02  0.00000000000E+00 0.  1.
</event>
<event>
 7    1  0.2430096E-009  0.4778727E+02  0.7816164E-02  0.1312668E+00
        -11   -1    0    0    0    0  0.00000000000E+00  0.00000000000E+00  0.45593999997E+02  0.45594000000E+02  0.51100000000E-03 0.  1.
         11   -1    0    0    0    0 -0.00000000000E+00 -0.00000000000E+00 -0.45593999997E+02  0.45594000000E+02  0.51100000000E-03 0. -1.
    9900012    2    1    2    0    0  0.16095498704E+02  0.39047509230E+02  0.99925144921E+01  0.47787269575E+02  0.19999993298E+02 0.  0.
        -12    1    1    2    0    0 -0.16095498704E+02 -0.39047509230E+02 -0.99925144921E+01  0.43400730425E+02  0.00000000000E+00 0.  1.
         11    1    3    3    0    0 -0.25293943236E+01  0.11611227803E+02 -0.13771156492E+01  0.11963063759E+02  0.51100000000E-03 0. -1.
        -11    1    3    3    0    0  0.61059308541E+01  0.44739015681E+01  0.78479544368E+00  0.76101308127E+01  0.51100000000E-03 0.  1.
        -12    1    3    3    0    0  0.12518962174E+02  0.22962379859E+02  0.10584834698E+02  0.28214075003E+02  0.00000000000E+00 0.  1.
</event>
<event>
 7    1  0.2430096E-009  0.4778727E+02  0.7816164E-02  0.1312668E+00
        -11   -1    0    0    0    0  0.00000000000E+00  0.00000000000E+00  0.45593999997E+02  0.45594000000E+02  0.51100000000E-03 0. -1.
         11   -1    0    0    0    0 -0.00000000000E+00 -0.00000000000E+00 -0.45593999997E+02  0.45594000000E+02  0.51100000000E-03 0.  1.
    9900012    2    1    2    0    0  0.15819971090E+01 -0.29032881610E+02  0.32221303288E+02  0.47787270570E+02  0.19999997838E+02 0.  0.
        -12    1    1    2    0    0 -0.15819971090E+01  0.29032881610E+02 -0.32221303288E+02  0.43400729430E+02  0.00000000000E+00 0.  1.
         11    1    3    3    0    0  0.56189364539E+01 -0.25308338616E+01  0.18101805995E+01  0.64229526677E+01  0.51100000000E-03 0.  1.
        -11    1    3    3    0    0 -0.11347272402E+01 -0.19875314656E+02  0.26486859394E+02  0.33134113228E+02  0.51100000000E-03 0. -1.
        -12    1    3    3    0    0 -0.29022121046E+01 -0.66267330920E+01  0.39242632949E+01  0.82302046743E+01  0.00000000000E+00 0.  1.
</event>
<event>
 7    1  0.2430096E-009  0.4778728E+02  0.7816164E-02  0.1312668E+00
        -11   -1    0    0    0    0  0.00000000000E+00  0.00000000000E+00  0.45593999997E+02  0.45594000000E+02  0.51100000000E-03 0. -1.
         11   -1    0    0    0    0 -0.00000000000E+00 -0.00000000000E+00 -0.45593999997E+02  0.45594000000E+02  0.51100000000E-03 0.  1.
    9900012    2    1    2    0    0  0.33242102806E+02  0.20778062872E+02  0.18624096118E+02  0.47787282818E+02  0.20000053680E+02 0.  0.
        -12    1    1    2    0    0 -0.33242102806E+02 -0.20778062872E+02 -0.18624096118E+02  0.43400717182E+02  0.00000000000E+00 0.  1.
         11    1    3    3    0    0  0.56520722385E+01 -0.18319629382E+00 -0.34090194416E+01  0.66030974009E+01  0.51100000000E-03 0. -1.
        -11    1    3    3    0    0  0.33243832812E+01  0.33510518438E+01  0.20093169740E+01  0.51301488890E+01  0.51100000000E-03 0.  1.
         12    1    3    3    0    0  0.24265647286E+02  0.17610207322E+02  0.20023798586E+02  0.36054036528E+02  0.00000000000E+00 0. -1.
</event>
<event>
 7    1  0.2430096E-009  0.4778727E+02  0.7816164E-02  0.1312668E+00
        -11   -1    0    0    0    0  0.00000000000E+00  0.00000000000E+00  0.45593999997E+02  0.45594000000E+02  0.51100000000E-03 0.  1.
         11   -1    0    0    0    0 -0.00000000000E+00 -0.00000000000E+00 -0.45593999997E+02  0.45594000000E+02  0.51100000000E-03 0. -1.
    9900012    2    1    2    0    0 -0.76520125951E+01 -0.89262238168E+00 -0.42711510618E+02  0.47787271772E+02  0.20000003317E+02 0.  0.
        -12    1    1    2    0    0  0.76520125951E+01  0.89262238168E+00  0.42711510618E+02  0.43400728228E+02  0.00000000000E+00 0.  1.
         11    1    3    3    0    0  0.32857124294E+00  0.50070815669E+01 -0.81727497017E+01  0.95902378921E+01  0.51100000000E-03 0. -1.
        -11    1    3    3    0    0 -0.92352066769E+01 -0.51970300206E+01 -0.13755570039E+02  0.17364154766E+02  0.51100000000E-03 0.  1.
        -12    1    3    3    0    0  0.12546228389E+01 -0.70267392794E+00 -0.20783190877E+02  0.20832879113E+02  0.00000000000E+00 0.  1.
</event>
<event>
 7    1  0.2430096E-009  0.4778730E+02  0.7816164E-02  0.1312668E+00
        -11   -1    0    0    0    0  0.00000000000E+00  0.00000000000E+00  0.45593999997E+02  0.45594000000E+02  0.51100000000E-03 0.  1.
         11   -1    0    0    0    0 -0.00000000000E+00 -0.00000000000E+00 -0.45593999997E+02  0.45594000000E+02  0.51100000000E-03 0. -1.
    9900012    2    1    2    0    0  0.14900733518E+02 -0.39108429439E+02 -0.11494330098E+02  0.47787300271E+02  0.20000133256E+02 0.  0.
        -12    1    1    2    0    0 -0.14900733518E+02  0.39108429439E+02  0.11494330098E+02  0.43400699729E+02  0.00000000000E+00 0.  1.
         11    1    3    3    0    0  0.11050504242E+02 -0.22133392314E+02  0.74544814098E+00  0.24749876616E+02  0.51100000000E-03 0. -1.
        -11    1    3    3    0    0  0.13227983934E+01 -0.14327072962E+02 -0.55687750768E+01  0.15428093576E+02  0.51100000000E-03 0.  1.
         12    1    3    3    0    0  0.25274308832E+01 -0.26479641624E+01 -0.66710031619E+01  0.76093300797E+01  0.00000000000E+00 0. -1.
</event>
<event>
 7    1  0.2430096E-009  0.4778727E+02  0.7816164E-02  0.1312668E+00
        -11   -1    0    0    0    0  0.00000000000E+00  0.00000000000E+00  0.45593999997E+02  0.45594000000E+02  0.51100000000E-03 0.  1.
         11   -1    0    0    0    0 -0.00000000000E+00 -0.00000000000E+00 -0.45593999997E+02  0.45594000000E+02  0.51100000000E-03 0. -1.
    9900012    2    1    2    0    0 -0.31365832621E+02 -0.26827786698E+02 -0.13419312974E+02  0.47787267796E+02  0.19999985190E+02 0.  0.
        -12    1    1    2    0    0  0.31365832621E+02  0.26827786698E+02  0.13419312974E+02  0.43400732204E+02  0.00000000000E+00 0.  1.
         11    1    3    3    0    0 -0.27804502497E+02 -0.24560757638E+02 -0.12199289744E+02  0.39053090088E+02  0.51100000000E-03 0. -1.
        -11    1    3    3    0    0 -0.23255760620E+01 -0.18425917441E+01  0.30581318341E+01  0.42609410852E+01  0.51100000000E-03 0.  1.
         12    1    3    3    0    0 -0.12357540619E+01 -0.42443731573E+00 -0.42781550642E+01  0.44732366235E+01  0.00000000000E+00 0. -1.
</event>
<event>
 7    1  0.2430096E-009  0.4778727E+02  0.7816164E-02  0.1312668E+00
        -11   -1    0    0    0    0  0.00000000000E+00  0.00000000000E+00  0.45593999997E+02  0.45594000000E+02  0.51100000000E-03 0. -1.
         11   -1    0    0    0    0 -0.00000000000E+00 -0.00000000000E+00 -0.45593999997E+02  0.45594000000E+02  0.51100000000E-03 0.  1.
    9900012    2    1    2    0    0 -0.33725698785E+02 -0.27142354617E+02  0.30810851361E+01  0.47787271224E+02  0.20000000818E+02 0.  0.
        -12    1    1    2    0    0  0.33725698785E+02  0.27142354617E+02 -0.30810851361E+01  0.43400728776E+02  0.00000000000E+00 0.  1.
         11    1    3    3    0    0 -0.28439392640E+02 -0.14217517489E+02  0.19849729048E+01  0.31857133816E+02  0.51100000000E-03 0. -1.
        -11    1    3    3    0    0 -0.50848493754E+01 -0.13376418575E+02 -0.43933943211E+00  0.14317027851E+02  0.51100000000E-03 0.  1.
        -12    1    3    3    0    0 -0.20145677010E+00  0.45158144776E+00  0.15354516633E+01  0.16131095575E+01  0.00000000000E+00 0.  1.
</event>
<event>
 7    1  0.2430096E-009  0.4778727E+02  0.7816164E-02  0.1312668E+00
        -11   -1    0    0    0    0  0.00000000000E+00  0.00000000000E+00  0.45593999997E+02  0.45594000000E+02  0.51100000000E-03 0.  1.
         11   -1    0    0    0    0 -0.00000000000E+00 -0.00000000000E+00 -0.45593999997E+02  0.45594000000E+02  0.51100000000E-03 0. -1.
    9900012    2    1    2    0    0  0.91756745367E+01  0.36251204661E+02 -0.22029082121E+02  0.47787270724E+02  0.19999998541E+02 0.  0.
        -12    1    1    2    0    0 -0.91756745367E+01 -0.36251204661E+02  0.22029082121E+02  0.43400729276E+02  0.00000000000E+00 0.  1.
         11    1    3    3    0    0 -0.18605881112E+01 -0.88899551953E+00  0.22529638559E+00  0.20743335980E+01  0.51100000000E-03 0. -1.
        -11    1    3    3    0    0  0.10750404355E+02  0.19574135897E+02 -0.11577895054E+02  0.25154833413E+02  0.51100000000E-03 0.  1.
         12    1    3    3    0    0  0.28585829331E+00  0.17566064283E+02 -0.10676483453E+02  0.20558103713E+02  0.00000000000E+00 0. -1.
</event>
<event>
 7    1  0.2430096E-009  0.4778727E+02  0.7816164E-02  0.1312668E+00
        -11   -1    0    0    0    0  0.00000000000E+00  0.00000000000E+00  0.45593999997E+02  0.45594000000E+02  0.51100000000E-03 0.  1.
         11   -1    0    0    0    0 -0.00000000000E+00 -0.00000000000E+00 -0.45593999997E+02  0.45594000000E+02  0.51100000000E-03 0. -1.
    9900012    2    1    2    0    0 -0.23537883716E+02 -0.29011732900E+02 -0.22088697223E+02  0.47787272348E+02  0.20000005945E+02 0.  0.
        -12    1    1    2    0    0  0.23537883716E+02  0.29011732900E+02  0.22088697223E+02  0.43400727652E+02  0.00000000000E+00 0.  1.
         11    1    3    3    0    0  0.12760751540E+01 -0.55592097621E+01 -0.11189091096E+01  0.58124985019E+01  0.51100000000E-03 0.  1.
        -11    1    3    3    0    0 -0.25155193050E+02 -0.24485593926E+02 -0.20961880470E+02  0.40886776351E+02  0.51100000000E-03 0. -1.
         12    1    3    3    0    0  0.34123418048E+00  0.10330707879E+01 -0.79076435375E-02  0.10879974952E+01  0.00000000000E+00 0. -1.
</event>
<event>
 7    1  0.2430096E-009  0.4778727E+02  0.7816164E-02  0.1312668E+00
        -11   -1    0    0    0    0  0.00000000000E+00  0.00000000000E+00  0.45593999997E+02  0.45594000000E+02  0.51100000000E-03 0.  1.
         11   -1    0    0    0    0 -0.00000000000E+00 -0.00000000000E+00 -0.45593999997E+02  0.45594000000E+02  0.51100000000E-03 0. -1.
    9900012    2    1    2    0    0  0.78948536457E+01 -0.11467512491E+01 -0.42661215695E+02  0.47787273311E+02  0.20000010336E+02 0.  0.
        -12    1    1    2    0    0 -0.78948536457E+01  0.11467512491E+01  0.42661215695E+02  0.43400726689E+02  0.00000000000E+00 0.  1.
         11    1    3    3    0    0 -0.16168258164E+01 -0.61478659059E+01 -0.23693773978E+02  0.24531720414E+02  0.51100000000E-03 0. -1.
        -11    1    3    3    0    0  0.90938808521E+01  0.13429874575E+01 -0.10115542345E+02  0.13668448392E+02  0.51100000000E-03 0.  1.
        -12    1    3    3    0    0  0.41779860993E+00  0.36581271992E+01 -0.88518993724E+01  0.95871045047E+01  0.00000000000E+00 0.  1.
</event>
<event>
 7    1  0.2430096E-009  0.4778727E+02  0.7816164E-02  0.1312668E+00
        -11   -1    0    0    0    0  0.00000000000E+00  0.00000000000E+00  0.45593999997E+02  0.45594000000E+02  0.51100000000E-03 0. -1.
         11   -1    0    0    0    0 -0.00000000000E+00 -0.00000000000E+00 -0.45593999997E+02  0.45594000000E+02  0.51100000000E-03 0.  1.
    9900012    2    1    2    0    0  0.30955095991E+02  0.80194210946E+01  0.29344405573E+02  0.47787271654E+02  0.20000002781E+02 0.  0.
        -12    1    1    2    0    0 -0.30955095991E+02 -0.80194210946E+01 -0.29344405573E+02  0.43400728346E+02  0.00000000000E+00 0.  1.
         11    1    3    3    0    0  0.84934361740E+00 -0.70514452470E+00  0.23920358514E+01  0.26344732218E+01  0.51100000000E-03 0. -1.
        -11    1    3    3    0    0  0.10393467959E+02 -0.51501951961E+01  0.12471820345E+02  0.17032175133E+02  0.51100000000E-03 0.  1.
        -12    1    3    3    0    0  0.19712284414E+02  0.13874760815E+02  0.14480549376E+02  0.28120623299E+02  0.00000000000E+00 0.  1.
</event>
<event>
 7    1  0.2430096E-009  0.4778727E+02  0.7816164E-02  0.1312668E+00
        -11   -1    0    0    0    0  0.00000000000E+00  0.00000000000E+00  0.45593999997E+02  0.45594000000E+02  0.51100000000E-03 0.  1.
         11   -1    0    0    0    0 -0.00000000000E+00 -0.00000000000E+00 -0.45593999997E+02  0.45594000000E+02  0.51100000000E-03 0. -1.
    9900012    2    1    2    0    0  0.17589122661E+02 -0.21185412357E+02 -0.33547348462E+02  0.47787268191E+02  0.19999986989E+02 0.  0.
        -12    1    1    2    0    0 -0.17589122661E+02  0.21185412357E+02  0.33547348462E+02  0.43400731809E+02  0.00000000000E+00 0.  1.
         11    1    3    3    0    0  0.41565773848E+01 -0.13131454968E+02 -0.13479827663E+02  0.19272207949E+02  0.51100000000E-03 0. -1.
        -11    1    3    3    0    0  0.30918428375E+00  0.24973053790E+01 -0.62330823681E+01  0.67218632198E+01  0.51100000000E-03 0.  1.
        -12    1    3    3    0    0  0.13123360993E+02 -0.10551262768E+02 -0.13834438431E+02  0.21793197022E+02  0.00000000000E+00 0.  1.
</event>
<event>
 7    1  0.2430096E-009  0.4778727E+02  0.7816164E-02  0.1312668E+00
        -11   -1    0    0    0    0  0.00000000000E+00  0.00000000000E+00  0.45593999997E+02  0.45594000000E+02  0.51100000000E-03 0.  1.
         11   -1    0    0    0    0 -0.00000000000E+00 -0.00000000000E+00 -0.45593999997E+02  0.45594000000E+02  0.51100000000E-03 0. -1.
    9900012    2    1    2    0    0  0.98122709656E+01  0.26946775882E+02 -0.32576273998E+02  0.47787273975E+02  0.20000013361E+02 0.  0.
        -12    1    1    2    0    0 -0.98122709656E+01 -0.26946775882E+02  0.32576273998E+02  0.43400726025E+02  0.00000000000E+00 0.  1.
         11    1    3    3    0    0  0.55750783942E+01  0.26461787100E+02 -0.30976493879E+02  0.41119956820E+02  0.51100000000E-03 0. -1.
        -11    1    3    3    0    0  0.17467117435E+01 -0.17072485264E+01  0.80263570924E+00  0.25709772050E+01  0.51100000000E-03 0.  1.
         12    1    3    3    0    0  0.24904808278E+01  0.21922373084E+01 -0.24024158281E+01  0.40963399494E+01  0.00000000000E+00 0. -1.
</event>
<event>
 7    1  0.2430096E-009  0.4778726E+02  0.7816164E-02  0.1312668E+00
        -11   -1    0    0    0    0  0.00000000000E+00  0.00000000000E+00  0.45593999997E+02  0.45594000000E+02  0.51100000000E-03 0.  1.
         11   -1    0    0    0    0 -0.00000000000E+00 -0.00000000000E+00 -0.45593999997E+02  0.45594000000E+02  0.51100000000E-03 0. -1.
    9900012    2    1    2    0    0 -0.14143227513E+02  0.24436279090E+02 -0.32961516407E+02  0.47787260558E+02  0.19999952188E+02 0.  0.
        -12    1    1    2    0    0  0.14143227513E+02 -0.24436279090E+02  0.32961516407E+02  0.43400739442E+02  0.00000000000E+00 0.  1.
         11    1    3    3    0    0 -0.11880000011E+01  0.24607387257E+01  0.17713576608E+01  0.32564224699E+01  0.51100000000E-03 0. -1.
        -11    1    3    3    0    0 -0.27818518901E+01 -0.63642042409E+00 -0.20827673627E+01  0.35329380185E+01  0.51100000000E-03 0.  1.
         12    1    3    3    0    0 -0.10173375622E+02  0.22611960789E+02 -0.32650106705E+02  0.40997900070E+02  0.00000000000E+00 0. -1.
</event>
<event>
 7    1  0.2430096E-009  0.4778725E+02  0.7816164E-02  0.1312668E+00
        -11   -1    0    0    0    0  0.00000000000E+00  0.00000000000E+00  0.45593999997E+02  0.45594000000E+02  0.51100000000E-03 0.  1.
         11   -1    0    0    0    0 -0.00000000000E+00 -0.00000000000E+00 -0.45593999997E+02  0.45594000000E+02  0.51100000000E-03 0. -1.
    9900012    2    1    2    0    0 -0.14768841088E+02 -0.35190801147E+01 -0.40658605922E+02  0.47787253146E+02  0.19999918392E+02 0.  0.
        -12    1    1    2    0    0  0.14768841088E+02  0.35190801147E+01  0.40658605922E+02  0.43400746854E+02  0.00000000000E+00 0.  1.
         11    1    3    3    0    0 -0.11422360631E+02 -0.46940932762E+01 -0.36935237037E+02  0.38945045504E+02  0.51100000000E-03 0. -1.
        -11    1    3    3    0    0  0.14664188448E+01 -0.30308557450E+00  0.11092053353E+01  0.18634864719E+01  0.51100000000E-03 0.  1.
        -12    1    3    3    0    0 -0.48128993023E+01  0.14780987360E+01 -0.48325742209E+01  0.69787211700E+01  0.00000000000E+00 0.  1.
</event>
<event>
 7    1  0.2430096E-009  0.4778727E+02  0.7816164E-02  0.1312668E+00
        -11   -1    0    0    0    0  0.00000000000E+00  0.00000000000E+00  0.45593999997E+02  0.45594000000E+02  0.51100000000E-03 0. -1.
         11   -1    0    0    0    0 -0.00000000000E+00 -0.00000000000E+00 -0.45593999997E+02  0.45594000000E+02  0.51100000000E-03 0.  1.
    9900012    2    1    2    0    0 -0.38741133572E+02 -0.53904904960E+00 -0.19556517888E+02  0.47787269635E+02  0.19999993575E+02 0.  0.
        -12    1    1    2    0    0  0.38741133572E+02  0.53904904960E+00  0.19556517888E+02  0.43400730365E+02  0.00000000000E+00 0.  1.
         11    1    3    3    0    0 -0.33750385521E+02 -0.45078254945E+01 -0.14328762534E+02  0.36942150039E+02  0.51100000000E-03 0. -1.
        -11    1    3    3    0    0 -0.19109328858E+01  0.32861315251E+01 -0.64296760861E+01  0.74693413182E+01  0.51100000000E-03 0.  1.
         12    1    3    3    0    0 -0.30798151648E+01  0.68264491980E+00  0.12019207320E+01  0.33757782780E+01  0.00000000000E+00 0. -1.
</event>
<event>
 7    1  0.2430096E-009  0.4778729E+02  0.7816164E-02  0.1312668E+00
        -11   -1    0    0    0    0  0.00000000000E+00  0.00000000000E+00  0.45593999997E+02  0.45594000000E+02  0.51100000000E-03 0.  1.
         11   -1    0    0    0    0 -0.00000000000E+00 -0.00000000000E+00 -0.45593999997E+02  0.45594000000E+02  0.51100000000E-03 0. -1.
    9900012    2    1    2    0    0 -0.21086720397E+02 -0.50952667837E+01 -0.37590026273E+02  0.47787290376E+02  0.20000088140E+02 0.  0.
        -12    1    1    2    0    0  0.21086720397E+02  0.50952667837E+01  0.37590026273E+02  0.43400709624E+02  0.00000000000E+00 0.  1.
         11    1    3    3    0    0 -0.49423264252E+01 -0.81673060015E+00 -0.69296015189E+01  0.85506149977E+01  0.51100000000E-03 0. -1.
        -11    1    3    3    0    0 -0.18489373115E+02 -0.21222609600E+01 -0.16988826866E+02  0.25198832281E+02  0.51100000000E-03 0.  1.
        -12    1    3    3    0    0  0.23449791432E+01 -0.21562752235E+01 -0.13671597888E+02  0.14037843098E+02  0.00000000000E+00 0.  1.
</event>
<event>
 7    1  0.2430096E-009  0.4778728E+02  0.7816164E-02  0.1312668E+00
        -11   -1    0    0    0    0  0.00000000000E+00  0.00000000000E+00  0.45593999997E+02  0.45594000000E+02  0.51100000000E-03 0. -1.
         11   -1    0    0    0    0 -0.00000000000E+00 -0.00000000000E+00 -0.45593999997E+02  0.45594000000E+02  0.51100000000E-03 0.  1.
    9900012    2    1    2    0    0  0.38991799390E+02 -0.49098717419E+01 -0.18416163538E+02  0.47787281808E+02  0.20000049074E+02 0.  0.
        -12    1    1    2    0    0 -0.38991799390E+02  0.49098717419E+01  0.18416163538E+02  0.43400718192E+02  0.00000000000E+00 0.  1.
         11    1    3    3    0    0  0.32133354459E+02 -0.20320999725E+01 -0.18846417518E+02  0.37307765313E+02  0.51100000000E-03 0. -1.
        -11    1    3    3    0    0  0.12542509972E+01  0.24409741843E+01  0.11433736684E+00  0.27467387621E+01  0.51100000000E-03 0.  1.
         12    1    3    3    0    0  0.56041939329E+01 -0.53187459537E+01  0.31591661328E+00  0.77327777327E+01  0.00000000000E+00 0. -1.
</event>
<event>
 7    1  0.2430096E-009  0.4778727E+02  0.7816164E-02  0.1312668E+00
        -11   -1    0    0    0    0  0.00000000000E+00  0.00000000000E+00  0.45593999997E+02  0.45594000000E+02  0.51100000000E-03 0.  1.
         11   -1    0    0    0    0 -0.00000000000E+00 -0.00000000000E+00 -0.45593999997E+02  0.45594000000E+02  0.51100000000E-03 0. -1.
    9900012    2    1    2    0    0  0.84951466355E+01 -0.42158401474E+02 -0.58416387894E+01  0.47787273336E+02  0.20000010449E+02 0.  0.
        -12    1    1    2    0    0 -0.84951466355E+01  0.42158401474E+02  0.58416387894E+01  0.43400726664E+02  0.00000000000E+00 0.  1.
         11    1    3    3    0    0  0.59580575111E+01 -0.24292358487E+02 -0.19475168553E+01  0.25088044011E+02  0.51100000000E-03 0. -1.
        -11    1    3    3    0    0 -0.24026640780E+01 -0.90963256766E+01 -0.74746627941E+01  0.12016094192E+02  0.51100000000E-03 0.  1.
        -12    1    3    3    0    0  0.49397532024E+01 -0.87697173108E+01  0.35805408600E+01  0.10683135133E+02  0.00000000000E+00 0.  1.
</event>
<event>
 7    1  0.2430096E-009  0.4778727E+02  0.7816164E-02  0.1312668E+00
        -11   -1    0    0    0    0  0.00000000000E+00  0.00000000000E+00  0.45593999997E+02  0.45594000000E+02  0.51100000000E-03 0.  1.
         11   -1    0    0    0    0 -0.00000000000E+00 -0.00000000000E+00 -0.45593999997E+02  0.45594000000E+02  0.51100000000E-03 0. -1.
    9900012    2    1    2    0    0 -0.17286316914E+02  0.75173145249E+01 -0.39093434018E+02  0.47787270128E+02  0.19999995823E+02 0.  0.
        -12    1    1    2    0    0  0.17286316914E+02 -0.75173145249E+01  0.39093434018E+02  0.43400729872E+02  0.00000000000E+00 0.  1.
         11    1    3    3    0    0 -0.93754883350E+01  0.13033525653E+02 -0.31892161412E+02  0.35705497227E+02  0.51100000000E-03 0. -1.
        -11    1    3    3    0    0 -0.37729621512E+01 -0.20123616681E+01 -0.30281364934E+01  0.52396997778E+01  0.51100000000E-03 0.  1.
         12    1    3    3    0    0 -0.41378664278E+01 -0.35038494601E+01 -0.41731361126E+01  0.68420731235E+01  0.00000000000E+00 0. -1.
</event>
<event>
 7    1  0.2430096E-009  0.4778727E+02  0.7816164E-02  0.1312668E+00
        -11   -1    0    0    0    0  0.00000000000E+00  0.00000000000E+00  0.45593999997E+02  0.45594000000E+02  0.51100000000E-03 0.  1.
         11   -1    0    0    0    0 -0.00000000000E+00 -0.00000000000E+00 -0.45593999997E+02  0.45594000000E+02  0.51100000000E-03 0. -1.
    9900012    2    1    2    0    0  0.14393040649E+02 -0.32220686985E+02 -0.25264424928E+02  0.47787268948E+02  0.19999990442E+02 0.  0.
        -12    1    1    2    0    0 -0.14393040649E+02  0.32220686985E+02  0.25264424928E+02  0.43400731052E+02  0.00000000000E+00 0.  1.
         11    1    3    3    0    0  0.15424767279E+02 -0.18465643983E+02 -0.93398953616E+01  0.25809631902E+02  0.51100000000E-03 0. -1.
        -11    1    3    3    0    0  0.75050366958E+00  0.33372537797E+00 -0.32787140281E+00  0.88438018061E+00  0.51100000000E-03 0.  1.
         12    1    3    3    0    0 -0.17822302996E+01 -0.14088768380E+02 -0.15596658164E+02  0.21093256865E+02  0.00000000000E+00 0. -1.
</event>
<event>
 7    1  0.2430096E-009  0.4778727E+02  0.7816164E-02  0.1312668E+00
        -11   -1    0    0    0    0  0.00000000000E+00  0.00000000000E+00  0.45593999997E+02  0.45594000000E+02  0.51100000000E-03 0. -1.
         11   -1    0    0    0    0 -0.00000000000E+00 -0.00000000000E+00 -0.45593999997E+02  0.45594000000E+02  0.51100000000E-03 0.  1.
    9900012    2    1    2    0    0  0.43653626632E+01  0.10152687125E+01  0.43168694392E+02  0.47787270315E+02  0.19999996673E+02 0.  0.
        -12    1    1    2    0    0 -0.43653626632E+01 -0.10152687125E+01 -0.43168694392E+02  0.43400729685E+02  0.00000000000E+00 0.  1.
         11    1    3    3    0    0 -0.31504861892E+01 -0.38752315818E+01  0.19335622434E+02  0.19970209769E+02  0.51100000000E-03 0. -1.
        -11    1    3    3    0    0  0.73481725237E+01  0.51722395722E+01  0.81524722556E+01  0.12133033659E+02  0.51100000000E-03 0.  1.
        -12    1    3    3    0    0  0.16767632872E+00 -0.28173927791E+00  0.15680599702E+02  0.15684026887E+02  0.00000000000E+00 0.  1.
</event>
<event>
 7    1  0.2685032E-009  0.4778727E+02  0.7816164E-02  0.1312668E+00
        -11   -1    0    0    0    0  0.00000000000E+00  0.00000000000E+00  0.45593999997E+02  0.45594000000E+02  0.51100000000E-03 0.  1.
         11   -1    0    0    0    0 -0.00000000000E+00 -0.00000000000E+00 -0.45593999997E+02  0.45594000000E+02  0.51100000000E-03 0. -1.
    9900012    2    1    2    0    0 -0.32897775575E+02  0.28092351229E+02 -0.34899033882E+01  0.47787271193E+02  0.20000000676E+02 0.  0.
        -12    1    1    2    0    0  0.32897775575E+02 -0.28092351229E+02  0.34899033882E+01  0.43400728807E+02  0.00000000000E+00 0.  1.
         11    1    3    3    0    0 -0.10602838342E+02  0.77410192877E+01  0.21233316531E+01  0.13298575040E+02  0.51100000000E-03 0. -1.
        -11    1    3    3    0    0 -0.24121682926E+02  0.19053490680E+02 -0.74063417624E+01  0.31618744328E+02  0.51100000000E-03 0.  1.
        -12    1    3    3    0    0  0.18267456931E+01  0.12978412611E+01  0.17931067211E+01  0.28699518253E+01  0.00000000000E+00 0.  1.
</event>
<event>
 7    1  0.2430096E-009  0.4778727E+02  0.7816164E-02  0.1312668E+00
        -11   -1    0    0    0    0  0.00000000000E+00  0.00000000000E+00  0.45593999997E+02  0.45594000000E+02  0.51100000000E-03 0. -1.
         11   -1    0    0    0    0 -0.00000000000E+00 -0.00000000000E+00 -0.45593999997E+02  0.45594000000E+02  0.51100000000E-03 0.  1.
    9900012    2    1    2    0    0  0.93509314719E+00  0.42702880483E+02 -0.76949841617E+01  0.47787272103E+02  0.20000004827E+02 0.  0.
        -12    1    1    2    0    0 -0.93509314719E+00 -0.42702880483E+02  0.76949841617E+01  0.43400727897E+02  0.00000000000E+00 0.  1.
         11    1    3    3    0    0 -0.46751020715E+01  0.26942648379E+02 -0.19715916638E+01  0.27416237069E+02  0.51100000000E-03 0. -1.
        -11    1    3    3    0    0  0.73601156548E+01  0.15833911305E+02 -0.39987063915E+01  0.17912947907E+02  0.51100000000E-03 0.  1.
         12    1    3    3    0    0 -0.17499204360E+01 -0.73679201548E-01 -0.17246861065E+01  0.24580871268E+01  0.00000000000E+00 0. -1.
</event>
<event>
 7    1  0.2430096E-009  0.4778727E+02  0.7816164E-02  0.1312668E+00
        -11   -1    0    0    0    0  0.00000000000E+00  0.00000000000E+00  0.45593999997E+02  0.45594000000E+02  0.51100000000E-03 0.  1.
         11   -1    0    0    0    0 -0.00000000000E+00 -0.00000000000E+00 -0.45593999997E+02  0.45594000000E+02  0.51100000000E-03 0. -1.
    9900012    2    1    2    0    0  0.32783637217E+02  0.28224578428E+02 -0.34970609961E+01  0.47787272676E+02  0.20000007439E+02 0.  0.
        -12    1    1    2    0    0 -0.32783637217E+02 -0.28224578428E+02  0.34970609961E+01  0.43400727324E+02  0.00000000000E+00 0.  1.
         11    1    3    3    0    0  0.27292437764E+02  0.16636659226E+02  0.18535321822E+00  0.31963885017E+02  0.51100000000E-03 0. -1.
        -11    1    3    3    0    0 -0.11211847717E+01  0.63060309993E+01  0.41965153353E+00  0.64186595117E+01  0.51100000000E-03 0.  1.
         12    1    3    3    0    0  0.66123842249E+01  0.52818882024E+01 -0.41020657479E+01  0.94047281471E+01  0.00000000000E+00 0. -1.
</event>
<event>
 7    1  0.2430096E-009  0.4778728E+02  0.7816164E-02  0.1312668E+00
        -11   -1    0    0    0    0  0.00000000000E+00  0.00000000000E+00  0.45593999997E+02  0.45594000000E+02  0.51100000000E-03 0.  1.
         11   -1    0    0    0    0 -0.00000000000E+00 -0.00000000000E+00 -0.45593999997E+02  0.45594000000E+02  0.51100000000E-03 0. -1.
    9900012    2    1    2    0    0 -0.27464604223E+02 -0.15852852140E+02 -0.29631151318E+02  0.47787279562E+02  0.20000038833E+02 0.  0.
        -12    1    1    2    0    0  0.27464604223E+02  0.15852852140E+02  0.29631151318E+02  0.43400720438E+02  0.00000000000E+00 0.  1.
         11    1    3    3    0    0 -0.20804644508E+02 -0.73274949203E+01 -0.17042826641E+02  0.27874421162E+02  0.51100000000E-03 0. -1.
        -11    1    3    3    0    0 -0.78134398269E+01 -0.31531014291E+01 -0.11588759386E+02  0.14327987818E+02  0.51100000000E-03 0.  1.
         12    1    3    3    0    0  0.11534801116E+01 -0.53722557905E+01 -0.99956529163E+00  0.55848705821E+01  0.00000000000E+00 0. -1.
</event>
<event>
 7    1  0.2466695E-009  0.4778728E+02  0.7816164E-02  0.1312668E+00
        -11   -1    0    0    0    0  0.00000000000E+00  0.00000000000E+00  0.45593999997E+02  0.45594000000E+02  0.51100000000E-03 0. -1.
         11   -1    0    0    0    0 -0.00000000000E+00 -0.00000000000E+00 -0.45593999997E+02  0.45594000000E+02  0.51100000000E-03 0.  1.
    9900012    2    1    2    0    0  0.12818751688E+02 -0.39968913729E+02  0.11035777729E+02  0.47787275932E+02  0.20000022285E+02 0.  0.
        -12    1    1    2    0    0 -0.12818751688E+02  0.39968913729E+02 -0.11035777729E+02  0.43400724068E+02  0.00000000000E+00 0.  1.
         11    1    3    3    0    0  0.57277727560E+01 -0.24696037406E+02  0.14304236826E+02  0.29108638507E+02  0.51100000000E-03 0. -1.
        -11    1    3    3    0    0  0.83539410960E+01 -0.13446428879E+02 -0.16195933800E+01  0.15912820756E+02  0.51100000000E-03 0.  1.
        -12    1    3    3    0    0 -0.12629621642E+01 -0.18264474440E+01 -0.16488657166E+01  0.27658166688E+01  0.00000000000E+00 0.  1.
</event>
<event>
 7    1  0.2430096E-009  0.4778728E+02  0.7816164E-02  0.1312668E+00
        -11   -1    0    0    0    0  0.00000000000E+00  0.00000000000E+00  0.45593999997E+02  0.45594000000E+02  0.51100000000E-03 0.  1.
         11   -1    0    0    0    0 -0.00000000000E+00 -0.00000000000E+00 -0.45593999997E+02  0.45594000000E+02  0.51100000000E-03 0. -1.
    9900012    2    1    2    0    0  0.35068484894E+02 -0.14072929153E+01 -0.25531222729E+02  0.47787280650E+02  0.20000043795E+02 0.  0.
        -12    1    1    2    0    0 -0.35068484894E+02  0.14072929153E+01  0.25531222729E+02  0.43400719350E+02  0.00000000000E+00 0.  1.
         11    1    3    3    0    0  0.78582899749E+01  0.67179184992E+01 -0.79198390620E+01  0.13023325279E+02  0.51100000000E-03 0. -1.
        -11    1    3    3    0    0  0.20549019025E+02 -0.80199409317E+01 -0.17405731237E+02  0.28098774272E+02  0.51100000000E-03 0.  1.
        -12    1    3    3    0    0  0.66611758938E+01 -0.10527048270E+00 -0.20565243002E+00  0.66651810991E+01  0.00000000000E+00 0.  1.
</event>
<event>
 7    1  0.2430096E-009  0.4778728E+02  0.7816164E-02  0.1312668E+00
        -11   -1    0    0    0    0  0.00000000000E+00  0.00000000000E+00  0.45593999997E+02  0.45594000000E+02  0.51100000000E-03 0.  1.
         11   -1    0    0    0    0 -0.00000000000E+00 -0.00000000000E+00 -0.45593999997E+02  0.45594000000E+02  0.51100000000E-03 0. -1.
    9900012    2    1    2    0    0  0.95954585656E+01  0.38881467935E+02  0.16726666453E+02  0.47787277143E+02  0.20000027808E+02 0.  0.
        -12    1    1    2    0    0 -0.95954585656E+01 -0.38881467935E+02 -0.16726666453E+02  0.43400722857E+02  0.00000000000E+00 0.  1.
         11    1    3    3    0    0  0.24405548953E+01  0.30308965593E+01 -0.26033013026E+01  0.46818607501E+01  0.51100000000E-03 0. -1.
        -11    1    3    3    0    0 -0.23142325471E+01  0.27296958267E+01 -0.52396850847E-01  0.35790581554E+01  0.51100000000E-03 0.  1.
         12    1    3    3    0    0  0.94691362174E+01  0.33120875549E+02  0.19382364606E+02  0.39526358238E+02  0.00000000000E+00 0. -1.
</event>
<event>
 7    1  0.2430096E-009  0.4778727E+02  0.7816164E-02  0.1312668E+00
        -11   -1    0    0    0    0  0.00000000000E+00  0.00000000000E+00  0.45593999997E+02  0.45594000000E+02  0.51100000000E-03 0. -1.
         11   -1    0    0    0    0 -0.00000000000E+00 -0.00000000000E+00 -0.45593999997E+02  0.45594000000E+02  0.51100000000E-03 0.  1.
    9900012    2    1    2    0    0  0.74863525620E+01  0.11927093570E+01  0.42733536996E+02  0.47787271729E+02  0.20000003122E+02 0.  0.
        -12    1    1    2    0    0 -0.74863525620E+01 -0.11927093570E+01 -0.42733536996E+02  0.43400728271E+02  0.00000000000E+00 0.  1.
         11    1    3    3    0    0 -0.28286063447E+01  0.35413333088E+01  0.21628324059E+01  0.50219418291E+01  0.51100000000E-03 0. -1.
        -11    1    3    3    0    0  0.80348563428E+01  0.15523202919E+01  0.32514545183E+02  0.33528558923E+02  0.51100000000E-03 0.  1.
        -12    1    3    3    0    0  0.22801025639E+01 -0.39009442438E+01  0.80561594062E+01  0.92367709765E+01  0.00000000000E+00 0.  1.
</event>
<event>
 7    1  0.2430096E-009  0.4778727E+02  0.7816164E-02  0.1312668E+00
        -11   -1    0    0    0    0  0.00000000000E+00  0.00000000000E+00  0.45593999997E+02  0.45594000000E+02  0.51100000000E-03 0.  1.
         11   -1    0    0    0    0 -0.00000000000E+00 -0.00000000000E+00 -0.45593999997E+02  0.45594000000E+02  0.51100000000E-03 0. -1.
    9900012    2    1    2    0    0 -0.28511997524E+02  0.52878070216E+01 -0.32291304336E+02  0.47787271416E+02  0.20000001695E+02 0.  0.
        -12    1    1    2    0    0  0.28511997524E+02 -0.52878070216E+01  0.32291304336E+02  0.43400728584E+02  0.00000000000E+00 0.  1.
         11    1    3    3    0    0 -0.19830542088E+02  0.89943670745E+01 -0.28544684932E+02  0.35901923022E+02  0.51100000000E-03 0. -1.
        -11    1    3    3    0    0 -0.17626996858E+01 -0.38579558790E+01 -0.22637141762E+01  0.48078410830E+01  0.51100000000E-03 0.  1.
         12    1    3    3    0    0 -0.69187557503E+01  0.15139582619E+00 -0.14829052280E+01  0.70775073115E+01  0.00000000000E+00 0. -1.
</event>
<event>
 7    1  0.2430096E-009  0.4778727E+02  0.7816164E-02  0.1312668E+00
        -11   -1    0    0    0    0  0.00000000000E+00  0.00000000000E+00  0.45593999997E+02  0.45594000000E+02  0.51100000000E-03 0.  1.
         11   -1    0    0    0    0 -0.00000000000E+00 -0.00000000000E+00 -0.45593999997E+02  0.45594000000E+02  0.51100000000E-03 0. -1.
    9900012    2    1    2    0    0 -0.68013940272E+01 -0.35932518304E+02 -0.23371319990E+02  0.47787269241E+02  0.19999991777E+02 0.  0.
        -12    1    1    2    0    0  0.68013940272E+01  0.35932518304E+02  0.23371319990E+02  0.43400730759E+02  0.00000000000E+00 0.  1.
         11    1    3    3    0    0  0.17984604602E-01 -0.12527366951E+02 -0.14896283898E+02  0.19463671812E+02  0.51100000000E-03 0. -1.
        -11    1    3    3    0    0 -0.57844311596E+01 -0.24525724484E+02 -0.68895956379E+01  0.26123501558E+02  0.51100000000E-03 0.  1.
        -12    1    3    3    0    0 -0.10349474722E+01  0.11205731310E+01 -0.15854404538E+01  0.22000958717E+01  0.00000000000E+00 0.  1.
</event>
<event>
 7    1  0.2430096E-009  0.4778724E+02  0.7816164E-02  0.1312668E+00
        -11   -1    0    0    0    0  0.00000000000E+00  0.00000000000E+00  0.45593999997E+02  0.45594000000E+02  0.51100000000E-03 0. -1.
         11   -1    0    0    0    0 -0.00000000000E+00 -0.00000000000E+00 -0.45593999997E+02  0.45594000000E+02  0.51100000000E-03 0.  1.
    9900012    2    1    2    0    0 -0.90622259585E+01  0.10075966388E+02  0.41230779303E+02  0.47787237335E+02  0.19999846303E+02 0.  0.
        -12    1    1    2    0    0  0.90622259585E+01 -0.10075966388E+02 -0.41230779303E+02  0.43400762665E+02  0.00000000000E+00 0.  1.
         11    1    3    3    0    0  0.18017781936E+01  0.36951393298E+01 -0.57076065919E-01  0.41114130496E+01  0.51100000000E-03 0.  1.
        -11    1    3    3    0    0 -0.79630768693E+01  0.20755236462E+01  0.17643007730E+02  0.19467771152E+02  0.51100000000E-03 0. -1.
         12    1    3    3    0    0 -0.29009272828E+01  0.43053034124E+01  0.23644847640E+02  0.24208053133E+02  0.00000000000E+00 0. -1.
</event>
<event>
 7    1  0.2430096E-009  0.4778727E+02  0.7816164E-02  0.1312668E+00
        -11   -1    0    0    0    0  0.00000000000E+00  0.00000000000E+00  0.45593999997E+02  0.45594000000E+02  0.51100000000E-03 0.  1.
         11   -1    0    0    0    0 -0.00000000000E+00 -0.00000000000E+00 -0.45593999997E+02  0.45594000000E+02  0.51100000000E-03 0. -1.
    9900012    2    1    2    0    0 -0.17605632705E+02  0.39444897480E+02  0.42148345448E+01  0.47787273389E+02  0.20000010689E+02 0.  0.
        -12    1    1    2    0    0  0.17605632705E+02 -0.39444897480E+02 -0.42148345448E+01  0.43400726611E+02  0.00000000000E+00 0.  1.
         11    1    3    3    0    0 -0.13048415544E+02  0.24155081106E+02  0.43384455734E+01  0.27794805300E+02  0.51100000000E-03 0. -1.
        -11    1    3    3    0    0  0.17967788354E+01  0.19161394021E+01  0.38513154627E+01  0.46618274792E+01  0.51100000000E-03 0.  1.
        -12    1    3    3    0    0 -0.63539959970E+01  0.13373676972E+02 -0.39749264912E+01  0.15330640609E+02  0.00000000000E+00 0.  1.
</event>
<event>
 7    1  0.2430096E-009  0.4778727E+02  0.7816164E-02  0.1312668E+00
        -11   -1    0    0    0    0  0.00000000000E+00  0.00000000000E+00  0.45593999997E+02  0.45594000000E+02  0.51100000000E-03 0. -1.
         11   -1    0    0    0    0 -0.00000000000E+00 -0.00000000000E+00 -0.45593999997E+02  0.45594000000E+02  0.51100000000E-03 0.  1.
    9900012    2    1    2    0    0 -0.30814189198E+02 -0.27824378398E+02  0.12645674594E+02  0.47787269879E+02  0.19999994684E+02 0.  0.
        -12    1    1    2    0    0  0.30814189198E+02  0.27824378398E+02 -0.12645674594E+02  0.43400730121E+02  0.00000000000E+00 0.  1.
         11    1    3    3    0    0 -0.68772345205E+01 -0.37051132993E+01  0.88831662264E+01  0.11829406649E+02  0.51100000000E-03 0. -1.
        -11    1    3    3    0    0 -0.18531586350E+02 -0.24035395643E+02  0.33976137610E+01  0.30539543479E+02  0.51100000000E-03 0.  1.
        -12    1    3    3    0    0 -0.54053683277E+01 -0.83869455216E-01  0.36489460651E+00  0.54183197504E+01  0.00000000000E+00 0.  1.
</event>
<event>
 7    1  0.2430096E-009  0.4778728E+02  0.7816164E-02  0.1312668E+00
        -11   -1    0    0    0    0  0.00000000000E+00  0.00000000000E+00  0.45593999997E+02  0.45594000000E+02  0.51100000000E-03 0.  1.
         11   -1    0    0    0    0 -0.00000000000E+00 -0.00000000000E+00 -0.45593999997E+02  0.45594000000E+02  0.51100000000E-03 0. -1.
    9900012    2    1    2    0    0 -0.10795872670E+02  0.40295870092E+02  0.11971419481E+02  0.47787275380E+02  0.20000019768E+02 0.  0.
        -12    1    1    2    0    0  0.10795872670E+02 -0.40295870092E+02 -0.11971419481E+02  0.43400724620E+02  0.00000000000E+00 0.  1.
         11    1    3    3    0    0 -0.18920079608E+01  0.14166539009E+02 -0.36539623701E+01  0.14752015553E+02  0.51100000000E-03 0. -1.
        -11    1    3    3    0    0 -0.71873143976E+01  0.12641883014E+02  0.12280057494E+02  0.19033510099E+02  0.51100000000E-03 0.  1.
        -12    1    3    3    0    0 -0.17165503113E+01  0.13487448069E+02  0.33453243573E+01  0.14001749728E+02  0.00000000000E+00 0.  1.
</event>
<event>
 7    1  0.2430096E-009  0.4778727E+02  0.7816164E-02  0.1312668E+00
        -11   -1    0    0    0    0  0.00000000000E+00  0.00000000000E+00  0.45593999997E+02  0.45594000000E+02  0.51100000000E-03 0. -1.
         11   -1    0    0    0    0 -0.00000000000E+00 -0.00000000000E+00 -0.45593999997E+02  0.45594000000E+02  0.51100000000E-03 0.  1.
    9900012    2    1    2    0    0 -0.18878599814E+02 -0.16513565913E+02  0.35419255008E+02  0.47787274022E+02  0.20000013575E+02 0.  0.
        -12    1    1    2    0    0  0.18878599814E+02  0.16513565913E+02 -0.35419255008E+02  0.43400725978E+02  0.00000000000E+00 0.  1.
         11    1    3    3    0    0 -0.14318042112E+01 -0.60719477947E+01  0.16782237543E+02  0.17904248393E+02  0.51100000000E-03 0. -1.
        -11    1    3    3    0    0 -0.58426394506E+01  0.12757628003E+01  0.16408537666E+01  0.62013230698E+01  0.51100000000E-03 0.  1.
         12    1    3    3    0    0 -0.11604156152E+02 -0.11717380919E+02  0.16996163699E+02  0.23681702559E+02  0.00000000000E+00 0. -1.
</event>
<event>
 7    1  0.2430096E-009  0.4778727E+02  0.7816164E-02  0.1312668E+00
        -11   -1    0    0    0    0  0.00000000000E+00  0.00000000000E+00  0.45593999997E+02  0.45594000000E+02  0.51100000000E-03 0.  1.
         11   -1    0    0    0    0 -0.00000000000E+00 -0.00000000000E+00 -0.45593999997E+02  0.45594000000E+02  0.51100000000E-03 0. -1.
    9900012    2    1    2    0    0  0.25713682437E+02 -0.30383106281E+02 -0.17300195404E+02  0.47787269905E+02  0.19999994806E+02 0.  0.
        -12    1    1    2    0    0 -0.25713682437E+02  0.30383106281E+02  0.17300195404E+02  0.43400730095E+02  0.00000000000E+00 0.  1.
         11    1    3    3    0    0  0.17560599273E+02 -0.20873089274E+02 -0.20479053204E+02  0.34109413994E+02  0.51100000000E-03 0. -1.
        -11    1    3    3    0    0  0.67768411095E+00 -0.23315314893E+01  0.21848269613E+01  0.32663073878E+01  0.51100000000E-03 0.  1.
         12    1    3    3    0    0  0.74753990533E+01 -0.71784855178E+01  0.99403083875E+00  0.10411548523E+02  0.00000000000E+00 0. -1.
</event>
<event>
 7    1  0.2430096E-009  0.4778727E+02  0.7816164E-02  0.1312668E+00
        -11   -1    0    0    0    0  0.00000000000E+00  0.00000000000E+00  0.45593999997E+02  0.45594000000E+02  0.51100000000E-03 0.  1.
         11   -1    0    0    0    0 -0.00000000000E+00 -0.00000000000E+00 -0.45593999997E+02  0.45594000000E+02  0.51100000000E-03 0. -1.
    9900012    2    1    2    0    0 -0.22103071460E+02  0.37207573502E+02 -0.32670851126E+01  0.47787272598E+02  0.20000007083E+02 0.  0.
        -12    1    1    2    0    0  0.22103071460E+02 -0.37207573502E+02  0.32670851126E+01  0.43400727402E+02  0.00000000000E+00 0.  1.
         11    1    3    3    0    0 -0.62956966728E+01  0.10041492262E+02  0.63429566606E+01  0.13442487229E+02  0.51100000000E-03 0.  1.
        -11    1    3    3    0    0 -0.54135988510E+01  0.17194144836E+02 -0.84085551615E+01  0.19890939377E+02  0.51100000000E-03 0. -1.
         12    1    3    3    0    0 -0.10393775936E+02  0.99719364043E+01 -0.12014866118E+01  0.14453845991E+02  0.00000000000E+00 0. -1.
</event>
<event>
 7    1  0.2430096E-009  0.4778727E+02  0.7816164E-02  0.1312668E+00
        -11   -1    0    0    0    0  0.00000000000E+00  0.00000000000E+00  0.45593999997E+02  0.45594000000E+02  0.51100000000E-03 0.  1.
         11   -1    0    0    0    0 -0.00000000000E+00 -0.00000000000E+00 -0.45593999997E+02  0.45594000000E+02  0.51100000000E-03 0. -1.
    9900012    2    1    2    0    0 -0.11679997887E+02  0.19307612058E+02 -0.37073131293E+02  0.47787270768E+02  0.19999998740E+02 0.  0.
        -12    1    1    2    0    0  0.11679997887E+02 -0.19307612058E+02  0.37073131293E+02  0.43400729232E+02  0.00000000000E+00 0.  1.
         11    1    3    3    0    0 -0.10807790527E+01  0.11786524794E+02 -0.13545560746E+02  0.17988120142E+02  0.51100000000E-03 0. -1.
        -11    1    3    3    0    0 -0.42521201109E+01 -0.54813272674E+00 -0.17229517697E+02  0.17754922001E+02  0.51100000000E-03 0.  1.
        -12    1    3    3    0    0 -0.63470987235E+01  0.80692199910E+01 -0.62980528496E+01  0.12044228625E+02  0.00000000000E+00 0.  1.
</event>
<event>
 7    1  0.2430096E-009  0.4778727E+02  0.7816164E-02  0.1312668E+00
        -11   -1    0    0    0    0  0.00000000000E+00  0.00000000000E+00  0.45593999997E+02  0.45594000000E+02  0.51100000000E-03 0.  1.
         11   -1    0    0    0    0 -0.00000000000E+00 -0.00000000000E+00 -0.45593999997E+02  0.45594000000E+02  0.51100000000E-03 0. -1.
    9900012    2    1    2    0    0  0.80681529574E+01 -0.34279818878E+02 -0.25365770862E+02  0.47787269523E+02  0.19999993065E+02 0.  0.
        -12    1    1    2    0    0 -0.80681529574E+01  0.34279818878E+02  0.25365770862E+02  0.43400730477E+02  0.00000000000E+00 0.  1.
         11    1    3    3    0    0  0.60131661093E+01 -0.20229968594E+02 -0.19965987217E+02  0.29052546219E+02  0.51100000000E-03 0. -1.
        -11    1    3    3    0    0 -0.43977200024E+01 -0.72613767377E+01 -0.16616294584E+01  0.86503494765E+01  0.51100000000E-03 0.  1.
        -12    1    3    3    0    0  0.64527068505E+01 -0.67884735459E+01 -0.37381541872E+01  0.10084373828E+02  0.00000000000E+00 0.  1.
</event>
<event>
 7    1  0.2430096E-009  0.4778727E+02  0.7816164E-02  0.1312668E+00
        -11   -1    0    0    0    0  0.00000000000E+00  0.00000000000E+00  0.45593999997E+02  0.45594000000E+02  0.51100000000E-03 0. -1.
         11   -1    0    0    0    0 -0.00000000000E+00 -0.00000000000E+00 -0.45593999997E+02  0.45594000000E+02  0.51100000000E-03 0.  1.
    9900012    2    1    2    0    0 -0.24122199162E+02 -0.12221197053E+02  0.33946798179E+02  0.47787271245E+02  0.20000000915E+02 0.  0.
        -12    1    1    2    0    0  0.24122199162E+02  0.12221197053E+02 -0.33946798179E+02  0.43400728755E+02  0.00000000000E+00 0.  1.
         11    1    3    3    0    0 -0.19605209878E+02 -0.12640458861E+02  0.26597883883E+02  0.35377858640E+02  0.51100000000E-03 0. -1.
        -11    1    3    3    0    0  0.24018432144E+01 -0.31303517132E-01  0.13818349685E+00  0.24060186360E+01  0.51100000000E-03 0.  1.
        -12    1    3    3    0    0 -0.69188324981E+01  0.45056532527E+00  0.72107307991E+01  0.10003393969E+02  0.00000000000E+00 0.  1.
</event>
<event>
 7    1  0.2430096E-009  0.4778727E+02  0.7816164E-02  0.1312668E+00
        -11   -1    0    0    0    0  0.00000000000E+00  0.00000000000E+00  0.45593999997E+02  0.45594000000E+02  0.51100000000E-03 0. -1.
         11   -1    0    0    0    0 -0.00000000000E+00 -0.00000000000E+00 -0.45593999997E+02  0.45594000000E+02  0.51100000000E-03 0.  1.
    9900012    2    1    2    0    0 -0.12302999545E+02  0.37553792125E+02  0.17943576490E+02  0.47787273762E+02  0.20000012388E+02 0.  0.
        -12    1    1    2    0    0  0.12302999545E+02 -0.37553792125E+02 -0.17943576490E+02  0.43400726238E+02  0.00000000000E+00 0.  1.
         11    1    3    3    0    0 -0.15982398737E+02  0.21353017934E+02  0.13584160265E+02  0.29931886921E+02  0.51100000000E-03 0. -1.
        -11    1    3    3    0    0  0.45989418787E+01  0.15021884403E+02  0.45310440473E+01  0.16350462924E+02  0.51100000000E-03 0.  1.
        -12    1    3    3    0    0 -0.91954268629E+00  0.11788897885E+01 -0.17162782239E+00  0.15049239166E+01  0.00000000000E+00 0.  1.
</event>
<event>
 7    1  0.2430096E-009  0.4778726E+02  0.7816164E-02  0.1312668E+00
        -11   -1    0    0    0    0  0.00000000000E+00  0.00000000000E+00  0.45593999997E+02  0.45594000000E+02  0.51100000000E-03 0. -1.
         11   -1    0    0    0    0 -0.00000000000E+00 -0.00000000000E+00 -0.45593999997E+02  0.45594000000E+02  0.51100000000E-03 0.  1.
    9900012    2    1    2    0    0 -0.36556718154E+02 -0.20866782715E+02 -0.10573932576E+02  0.47787259071E+02  0.19999945407E+02 0.  0.
        -12    1    1    2    0    0  0.36556718154E+02  0.20866782715E+02  0.10573932576E+02  0.43400740929E+02  0.00000000000E+00 0.  1.
         11    1    3    3    0    0 -0.15420498966E+02 -0.17206319313E+02 -0.16987625495E+01  0.23167542104E+02  0.51100000000E-03 0. -1.
        -11    1    3    3    0    0 -0.33709720737E+01  0.19305686451E+01  0.22480986680E+00  0.38911550667E+01  0.51100000000E-03 0.  1.
         12    1    3    3    0    0 -0.17765247114E+02 -0.55910320468E+01 -0.90999798938E+01  0.20728561900E+02  0.00000000000E+00 0. -1.
</event>
<event>
 7    1  0.2430096E-009  0.4778727E+02  0.7816164E-02  0.1312668E+00
        -11   -1    0    0    0    0  0.00000000000E+00  0.00000000000E+00  0.45593999997E+02  0.45594000000E+02  0.51100000000E-03 0. -1.
         11   -1    0    0    0    0 -0.00000000000E+00 -0.00000000000E+00 -0.45593999997E+02  0.45594000000E+02  0.51100000000E-03 0.  1.
    9900012    2    1    2    0    0  0.50978874541E+01 -0.20559202646E+02  0.37880790004E+02  0.47787268194E+02  0.19999987006E+02 0.  0.
        -12    1    1    2    0    0 -0.50978874541E+01  0.20559202646E+02 -0.37880790004E+02  0.43400731806E+02  0.00000000000E+00 0.  1.
         11    1    3    3    0    0 -0.17048142252E+01 -0.15222007171E+02  0.27140999474E+02  0.31164880019E+02  0.51100000000E-03 0. -1.
        -11    1    3    3    0    0  0.19305642045E+01  0.11824689679E+01 -0.88568910809E+00  0.24309990672E+01  0.51100000000E-03 0.  1.
         12    1    3    3    0    0  0.48721374748E+01 -0.65196644424E+01  0.11625479638E+02  0.14191389109E+02  0.00000000000E+00 0. -1.
</event>
<event>
 7    1  0.2430096E-009  0.4778727E+02  0.7816164E-02  0.1312668E+00
        -11   -1    0    0    0    0  0.00000000000E+00  0.00000000000E+00  0.45593999997E+02  0.45594000000E+02  0.51100000000E-03 0. -1.
         11   -1    0    0    0    0 -0.00000000000E+00 -0.00000000000E+00 -0.45593999997E+02  0.45594000000E+02  0.51100000000E-03 0.  1.
    9900012    2    1    2    0    0 -0.61771873591E+01  0.41788538745E+02  0.99590988911E+01  0.47787271148E+02  0.20000000474E+02 0.  0.
        -12    1    1    2    0    0  0.61771873591E+01 -0.41788538745E+02 -0.99590988911E+01  0.43400728852E+02  0.00000000000E+00 0.  1.
         11    1    3    3    0    0 -0.62182285217E+01  0.21014314957E+02 -0.84719195371E+00  0.21931382389E+02  0.51100000000E-03 0. -1.
        -11    1    3    3    0    0  0.31753742016E+01  0.15054756557E+02  0.11623349783E+02  0.19282918782E+02  0.51100000000E-03 0.  1.
        -12    1    3    3    0    0 -0.31343330390E+01  0.57194672314E+01 -0.81705893793E+00  0.65729699770E+01  0.00000000000E+00 0.  1.
</event>
<event>
 7    1  0.2430096E-009  0.4778728E+02  0.7816164E-02  0.1312668E+00
        -11   -1    0    0    0    0  0.00000000000E+00  0.00000000000E+00  0.45593999997E+02  0.45594000000E+02  0.51100000000E-03 0.  1.
         11   -1    0    0    0    0 -0.00000000000E+00 -0.00000000000E+00 -0.45593999997E+02  0.45594000000E+02  0.51100000000E-03 0. -1.
    9900012    2    1    2    0    0  0.29486835660E+02  0.91868458567E+01 -0.30491818531E+02  0.47787278677E+02  0.20000034801E+02 0.  0.
        -12    1    1    2    0    0 -0.29486835660E+02 -0.91868458567E+01  0.30491818531E+02  0.43400721323E+02  0.00000000000E+00 0.  1.
         11    1    3    3    0    0  0.23915753661E+02  0.77025233635E+01 -0.29470917310E+02  0.38727601355E+02  0.51100000000E-03 0. -1.
        -11    1    3    3    0    0 -0.98541760955E+00 -0.14853507850E+01 -0.45573438398E+00  0.18398393706E+01  0.51100000000E-03 0.  1.
         12    1    3    3    0    0  0.65564996086E+01  0.29696732783E+01 -0.56516683663E+00  0.72198379518E+01  0.00000000000E+00 0. -1.
</event>
<event>
 7    1  0.2430096E-009  0.4778727E+02  0.7816164E-02  0.1312668E+00
        -11   -1    0    0    0    0  0.00000000000E+00  0.00000000000E+00  0.45593999997E+02  0.45594000000E+02  0.51100000000E-03 0.  1.
         11   -1    0    0    0    0 -0.00000000000E+00 -0.00000000000E+00 -0.45593999997E+02  0.45594000000E+02  0.51100000000E-03 0. -1.
    9900012    2    1    2    0    0  0.28403147113E+02 -0.31598116882E+02 -0.88568439509E+01  0.47787269117E+02  0.19999991214E+02 0.  0.
        -12    1    1    2    0    0 -0.28403147113E+02  0.31598116882E+02  0.88568439509E+01  0.43400730883E+02  0.00000000000E+00 0.  1.
         11    1    3    3    0    0  0.67131327403E+01  0.40799542423E+00 -0.36170706491E+01  0.76364790183E+01  0.51100000000E-03 0.  1.
        -11    1    3    3    0    0  0.19688816353E+02 -0.22247021907E+02 -0.24699217073E+01  0.29810736096E+02  0.51100000000E-03 0. -1.
         12    1    3    3    0    0  0.20011980196E+01 -0.97590903987E+01 -0.27698515945E+01  0.10340054003E+02  0.00000000000E+00 0. -1.
</event>
<event>
 7    1  0.2430096E-009  0.4778727E+02  0.7816164E-02  0.1312668E+00
        -11   -1    0    0    0    0  0.00000000000E+00  0.00000000000E+00  0.45593999997E+02  0.45594000000E+02  0.51100000000E-03 0.  1.
         11   -1    0    0    0    0 -0.00000000000E+00 -0.00000000000E+00 -0.45593999997E+02  0.45594000000E+02  0.51100000000E-03 0. -1.
    9900012    2    1    2    0    0 -0.24338944140E+02  0.26791255896E+02 -0.23947185701E+02  0.47787270774E+02  0.19999998767E+02 0.  0.
        -12    1    1    2    0    0  0.24338944140E+02 -0.26791255896E+02  0.23947185701E+02  0.43400729226E+02  0.00000000000E+00 0.  1.
         11    1    3    3    0    0 -0.16943592287E+01 -0.21971774334E+01 -0.30063357598E+01  0.40910263788E+01  0.51100000000E-03 0. -1.
        -11    1    3    3    0    0 -0.10510671890E+02  0.18458472343E+02 -0.68269966023E+01  0.22311371713E+02  0.51100000000E-03 0.  1.
         12    1    3    3    0    0 -0.12133913021E+02  0.10529960986E+02 -0.14113853339E+02  0.21384872683E+02  0.00000000000E+00 0. -1.
</event>
<event>
 7    1  0.2430096E-009  0.4778727E+02  0.7816164E-02  0.1312668E+00
        -11   -1    0    0    0    0  0.00000000000E+00  0.00000000000E+00  0.45593999997E+02  0.45594000000E+02  0.51100000000E-03 0.  1.
         11   -1    0    0    0    0 -0.00000000000E+00 -0.00000000000E+00 -0.45593999997E+02  0.45594000000E+02  0.51100000000E-03 0. -1.
    9900012    2    1    2    0    0  0.27914570732E+02 -0.27194419734E+02 -0.19101395907E+02  0.47787273631E+02  0.20000011792E+02 0.  0.
        -12    1    1    2    0    0 -0.27914570732E+02  0.27194419734E+02  0.19101395907E+02  0.43400726369E+02  0.00000000000E+00 0.  1.
         11    1    3    3    0    0  0.20330296296E+00 -0.73851274879E+01 -0.42647086011E+01  0.85304853215E+01  0.51100000000E-03 0. -1.
        -11    1    3    3    0    0  0.22618134293E+02 -0.18779297267E+02 -0.76297918805E+01  0.30371956294E+02  0.51100000000E-03 0.  1.
        -12    1    3    3    0    0  0.50931334754E+01 -0.10299949789E+01 -0.72068954259E+01  0.88848320150E+01  0.00000000000E+00 0.  1.
</event>
<event>
 7    1  0.2430096E-009  0.4778727E+02  0.7816164E-02  0.1312668E+00
        -11   -1    0    0    0    0  0.00000000000E+00  0.00000000000E+00  0.45593999997E+02  0.45594000000E+02  0.51100000000E-03 0.  1.
         11   -1    0    0    0    0 -0.00000000000E+00 -0.00000000000E+00 -0.45593999997E+02  0.45594000000E+02  0.51100000000E-03 0. -1.
    9900012    2    1    2    0    0  0.30472783759E+02 -0.35029468311E+01 -0.30704428843E+02  0.47787272621E+02  0.20000007186E+02 0.  0.
        -12    1    1    2    0    0 -0.30472783759E+02  0.35029468311E+01  0.30704428843E+02  0.43400727379E+02  0.00000000000E+00 0.  1.
         11    1    3    3    0    0  0.74166978795E+00  0.99803263688E+00 -0.23538866086E+00  0.12655241212E+01  0.51100000000E-03 0. -1.
        -11    1    3    3    0    0  0.98898263988E+01  0.23300709912E+01 -0.81390555385E+00  0.10193151600E+02  0.51100000000E-03 0.  1.
        -12    1    3    3    0    0  0.19841287572E+02 -0.68310504591E+01 -0.29655134628E+02  0.36328596900E+02  0.00000000000E+00 0.  1.
</event>
<event>
 7    1  0.2430096E-009  0.4778727E+02  0.7816164E-02  0.1312668E+00
        -11   -1    0    0    0    0  0.00000000000E+00  0.00000000000E+00  0.45593999997E+02  0.45594000000E+02  0.51100000000E-03 0.  1.
         11   -1    0    0    0    0 -0.00000000000E+00 -0.00000000000E+00 -0.45593999997E+02  0.45594000000E+02  0.51100000000E-03 0. -1.
    9900012    2    1    2    0    0 -0.14671035183E+02 -0.71658109831E+01 -0.40212373648E+02  0.47787272877E+02  0.20000008356E+02 0.  0.
        -12    1    1    2    0    0  0.14671035183E+02  0.71658109831E+01  0.40212373648E+02  0.43400727123E+02  0.00000000000E+00 0.  1.
         11    1    3    3    0    0  0.64185394811E-01 -0.52260597748E+01 -0.24669633624E+02  0.25217189454E+02  0.51100000000E-03 0. -1.
        -11    1    3    3    0    0 -0.43992167308E+01 -0.12105814500E+01 -0.93010771087E+00  0.46565777033E+01  0.51100000000E-03 0.  1.
         12    1    3    3    0    0 -0.10336003847E+02 -0.72916975832E+00 -0.14612632313E+02  0.17913505720E+02  0.00000000000E+00 0. -1.
</event>
<event>
 7    1  0.2430096E-009  0.4778727E+02  0.7816164E-02  0.1312668E+00
        -11   -1    0    0    0    0  0.00000000000E+00  0.00000000000E+00  0.45593999997E+02  0.45594000000E+02  0.51100000000E-03 0. -1.
         11   -1    0    0    0    0 -0.00000000000E+00 -0.00000000000E+00 -0.45593999997E+02  0.45594000000E+02  0.51100000000E-03 0.  1.
    9900012    2    1    2    0    0  0.42478487357E+02  0.51885985578E+01  0.72305119033E+01  0.47787265610E+02  0.19999975224E+02 0.  0.
        -12    1    1    2    0    0 -0.42478487357E+02 -0.51885985578E+01 -0.72305119033E+01  0.43400734390E+02  0.00000000000E+00 0.  1.
         11    1    3    3    0    0  0.24054662562E+02  0.11813816794E+01 -0.12561736185E+01  0.24116393306E+02  0.51100000000E-03 0.  1.
        -11    1    3    3    0    0  0.21068766918E+01 -0.12174346037E+01 -0.23626416648E+01  0.33916297419E+01  0.51100000000E-03 0. -1.
         12    1    3    3    0    0  0.16316948104E+02  0.52246514821E+01  0.10849327187E+02  0.20279242563E+02  0.00000000000E+00 0. -1.
</event>
<event>
 7    1  0.2430096E-009  0.4778727E+02  0.7816164E-02  0.1312668E+00
        -11   -1    0    0    0    0  0.00000000000E+00  0.00000000000E+00  0.45593999997E+02  0.45594000000E+02  0.51100000000E-03 0.  1.
         11   -1    0    0    0    0 -0.00000000000E+00 -0.00000000000E+00 -0.45593999997E+02  0.45594000000E+02  0.51100000000E-03 0. -1.
    9900012    2    1    2    0    0  0.17909239139E+02  0.96613236988E+01 -0.38334596243E+02  0.47787270844E+02  0.19999999085E+02 0.  0.
        -12    1    1    2    0    0 -0.17909239139E+02 -0.96613236988E+01  0.38334596243E+02  0.43400729156E+02  0.00000000000E+00 0.  1.
         11    1    3    3    0    0  0.64302361636E+01  0.12121006266E+02 -0.16220044431E+02  0.21245154073E+02  0.51100000000E-03 0. -1.
        -11    1    3    3    0    0  0.12690311295E+02 -0.11873265099E+01 -0.20591800268E+02  0.24217266228E+02  0.51100000000E-03 0.  1.
         12    1    3    3    0    0 -0.12113083187E+01 -0.12723560572E+01 -0.15227515445E+01  0.23248505426E+01  0.00000000000E+00 0. -1.
</event>
<event>
 7    1  0.2430096E-009  0.4778728E+02  0.7816164E-02  0.1312668E+00
        -11   -1    0    0    0    0  0.00000000000E+00  0.00000000000E+00  0.45593999997E+02  0.45594000000E+02  0.51100000000E-03 0. -1.
         11   -1    0    0    0    0 -0.00000000000E+00 -0.00000000000E+00 -0.45593999997E+02  0.45594000000E+02  0.51100000000E-03 0.  1.
    9900012    2    1    2    0    0  0.34114225491E+02  0.20874562668E+02  0.16855118247E+02  0.47787276981E+02  0.20000027068E+02 0.  0.
        -12    1    1    2    0    0 -0.34114225491E+02 -0.20874562668E+02 -0.16855118247E+02  0.43400723019E+02  0.00000000000E+00 0.  1.
         11    1    3    3    0    0  0.59644475021E+01  0.51893926753E+01 -0.34265725462E+01  0.86166019996E+01  0.51100000000E-03 0. -1.
        -11    1    3    3    0    0  0.14406481747E+02  0.71397650033E+01  0.48129819788E+01  0.16783556131E+02  0.51100000000E-03 0.  1.
         12    1    3    3    0    0  0.13743296242E+02  0.85454049896E+01  0.15468708815E+02  0.22387118850E+02  0.00000000000E+00 0. -1.
</event>
<event>
 7    1  0.2430096E-009  0.4778727E+02  0.7816164E-02  0.1312668E+00
        -11   -1    0    0    0    0  0.00000000000E+00  0.00000000000E+00  0.45593999997E+02  0.45594000000E+02  0.51100000000E-03 0.  1.
         11   -1    0    0    0    0 -0.00000000000E+00 -0.00000000000E+00 -0.45593999997E+02  0.45594000000E+02  0.51100000000E-03 0. -1.
    9900012    2    1    2    0    0  0.38073797841E+02  0.20704334683E+02  0.23108592508E+01  0.47787266974E+02  0.19999981440E+02 0.  0.
        -12    1    1    2    0    0 -0.38073797841E+02 -0.20704334683E+02 -0.23108592508E+01  0.43400733026E+02  0.00000000000E+00 0.  1.
         11    1    3    3    0    0  0.32735286977E+01 -0.32354768148E+01  0.11728218648E+01  0.47497170170E+01  0.51100000000E-03 0.  1.
        -11    1    3    3    0    0  0.28958721944E+02  0.19616467438E+02  0.40447598282E+01  0.35210416835E+02  0.51100000000E-03 0. -1.
         12    1    3    3    0    0  0.58415471994E+01  0.43233440600E+01 -0.29067224422E+01  0.78271331213E+01  0.00000000000E+00 0. -1.
</event>
<event>
 7    1  0.2430096E-009  0.4778727E+02  0.7816164E-02  0.1312668E+00
        -11   -1    0    0    0    0  0.00000000000E+00  0.00000000000E+00  0.45593999997E+02  0.45594000000E+02  0.51100000000E-03 0.  1.
         11   -1    0    0    0    0 -0.00000000000E+00 -0.00000000000E+00 -0.45593999997E+02  0.45594000000E+02  0.51100000000E-03 0. -1.
    9900012    2    1    2    0    0 -0.99261658505E+01 -0.28577769360E+02 -0.31119215759E+02  0.47787271210E+02  0.20000000755E+02 0.  0.
        -12    1    1    2    0    0  0.99261658505E+01  0.28577769360E+02  0.31119215759E+02  0.43400728790E+02  0.00000000000E+00 0.  1.
         11    1    3    3    0    0  0.42826985343E+00 -0.96576949036E+01 -0.13912581233E+02  0.16941499425E+02  0.51100000000E-03 0. -1.
        -11    1    3    3    0    0 -0.63478221903E+01 -0.91907699991E+01 -0.59946541528E+00  0.11185904469E+02  0.51100000000E-03 0.  1.
        -12    1    3    3    0    0 -0.40066135135E+01 -0.97293044569E+01 -0.16607169110E+02  0.19659867317E+02  0.00000000000E+00 0.  1.
</event>
<event>
 7    1  0.2430096E-009  0.4778727E+02  0.7816164E-02  0.1312668E+00
        -11   -1    0    0    0    0  0.00000000000E+00  0.00000000000E+00  0.45593999997E+02  0.45594000000E+02  0.51100000000E-03 0. -1.
         11   -1    0    0    0    0 -0.00000000000E+00 -0.00000000000E+00 -0.45593999997E+02  0.45594000000E+02  0.51100000000E-03 0.  1.
    9900012    2    1    2    0    0  0.13762397771E+02  0.35959485874E+02  0.20028360813E+02  0.47787268974E+02  0.19999990558E+02 0.  0.
        -12    1    1    2    0    0 -0.13762397771E+02 -0.35959485874E+02 -0.20028360813E+02  0.43400731026E+02  0.00000000000E+00 0.  1.
         11    1    3    3    0    0  0.33500424413E+01  0.94090084626E+01 -0.33967056747E+00  0.99933778555E+01  0.51100000000E-03 0. -1.
        -11    1    3    3    0    0 -0.20068645215E+00  0.16514316834E+02  0.14751847160E+02  0.22144523712E+02  0.51100000000E-03 0.  1.
        -12    1    3    3    0    0  0.10613041782E+02  0.10036160577E+02  0.56161842210E+01  0.15649367406E+02  0.00000000000E+00 0.  1.
</event>
<event>
 7    1  0.2430096E-009  0.4778727E+02  0.7816164E-02  0.1312668E+00
        -11   -1    0    0    0    0  0.00000000000E+00  0.00000000000E+00  0.45593999997E+02  0.45594000000E+02  0.51100000000E-03 0. -1.
         11   -1    0    0    0    0 -0.00000000000E+00 -0.00000000000E+00 -0.45593999997E+02  0.45594000000E+02  0.51100000000E-03 0.  1.
    9900012    2    1    2    0    0  0.22124642257E+02  0.36595351025E+02  0.74097111083E+01  0.47787270394E+02  0.19999997035E+02 0.  0.
        -12    1    1    2    0    0 -0.22124642257E+02 -0.36595351025E+02 -0.74097111083E+01  0.43400729606E+02  0.00000000000E+00 0.  1.
         11    1    3    3    0    0  0.16735406198E+01  0.35604413078E+01  0.19253510882E+01  0.43800065737E+01  0.51100000000E-03 0. -1.
        -11    1    3    3    0    0  0.18981169954E+02  0.34667767701E+02  0.77221837249E+01  0.40271218654E+02  0.51100000000E-03 0.  1.
        -12    1    3    3    0    0  0.14699316837E+01 -0.16328579838E+01 -0.22378237048E+01  0.31360451661E+01  0.00000000000E+00 0.  1.
</event>
<event>
 7    1  0.2430096E-009  0.4778728E+02  0.7816164E-02  0.1312668E+00
        -11   -1    0    0    0    0  0.00000000000E+00  0.00000000000E+00  0.45593999997E+02  0.45594000000E+02  0.51100000000E-03 0.  1.
         11   -1    0    0    0    0 -0.00000000000E+00 -0.00000000000E+00 -0.45593999997E+02  0.45594000000E+02  0.51100000000E-03 0. -1.
    9900012    2    1    2    0    0 -0.49575051663E+01 -0.41385220143E+02 -0.12095818416E+02  0.47787284258E+02  0.20000060247E+02 0.  0.
        -12    1    1    2    0    0  0.49575051663E+01  0.41385220143E+02  0.12095818416E+02  0.43400715742E+02  0.00000000000E+00 0.  1.
         11    1    3    3    0    0  0.11327111884E+01 -0.21343961136E+02 -0.55188039581E+01  0.22074983783E+02  0.51100000000E-03 0. -1.
        -11    1    3    3    0    0  0.23181886875E+00  0.13171769341E+01  0.15082687652E+01  0.20158298521E+01  0.51100000000E-03 0.  1.
        -12    1    3    3    0    0 -0.63220352234E+01 -0.21358435940E+02 -0.80852832234E+01  0.23696470623E+02  0.00000000000E+00 0.  1.
</event>
<event>
 7    1  0.2430096E-009  0.4778727E+02  0.7816164E-02  0.1312668E+00
        -11   -1    0    0    0    0  0.00000000000E+00  0.00000000000E+00  0.45593999997E+02  0.45594000000E+02  0.51100000000E-03 0.  1.
         11   -1    0    0    0    0 -0.00000000000E+00 -0.00000000000E+00 -0.45593999997E+02  0.45594000000E+02  0.51100000000E-03 0. -1.
    9900012    2    1    2    0    0 -0.67519043606E+01 -0.42951174701E+01 -0.42656617697E+02  0.47787270974E+02  0.19999999681E+02 0.  0.
        -12    1    1    2    0    0  0.67519043606E+01  0.42951174701E+01  0.42656617697E+02  0.43400729026E+02  0.00000000000E+00 0.  1.
         11    1    3    3    0    0  0.39694310266E+01  0.16307789222E+01 -0.25670847802E+02  0.26027067636E+02  0.51100000000E-03 0. -1.
        -11    1    3    3    0    0 -0.39177931878E+01 -0.19176157050E+01 -0.19519822694E+01  0.47787643273E+01  0.51100000000E-03 0.  1.
         12    1    3    3    0    0 -0.68035421994E+01 -0.40082806873E+01 -0.15033787626E+02  0.16981439012E+02  0.00000000000E+00 0. -1.
</event>
<event>
 7    1  0.2430096E-009  0.4778727E+02  0.7816164E-02  0.1312668E+00
        -11   -1    0    0    0    0  0.00000000000E+00  0.00000000000E+00  0.45593999997E+02  0.45594000000E+02  0.51100000000E-03 0. -1.
         11   -1    0    0    0    0 -0.00000000000E+00 -0.00000000000E+00 -0.45593999997E+02  0.45594000000E+02  0.51100000000E-03 0.  1.
    9900012    2    1    2    0    0 -0.39136409125E+02 -0.18460496192E+02 -0.33429155007E+01  0.47787268176E+02  0.19999986921E+02 0.  0.
        -12    1    1    2    0    0  0.39136409125E+02  0.18460496192E+02  0.33429155007E+01  0.43400731824E+02  0.00000000000E+00 0.  1.
         11    1    3    3    0    0 -0.29584568295E+02 -0.79891584799E+01 -0.34759809007E+01  0.30840813509E+02  0.51100000000E-03 0. -1.
        -11    1    3    3    0    0 -0.13724285847E+01 -0.29552887196E+01  0.40227536186E+01  0.51768560511E+01  0.51100000000E-03 0.  1.
        -12    1    3    3    0    0 -0.81794122449E+01 -0.75160489928E+01 -0.38896882187E+01  0.11769598616E+02  0.00000000000E+00 0.  1.
</event>
<event>
 7    1  0.2430096E-009  0.4778727E+02  0.7816164E-02  0.1312668E+00
        -11   -1    0    0    0    0  0.00000000000E+00  0.00000000000E+00  0.45593999997E+02  0.45594000000E+02  0.51100000000E-03 0.  1.
         11   -1    0    0    0    0 -0.00000000000E+00 -0.00000000000E+00 -0.45593999997E+02  0.45594000000E+02  0.51100000000E-03 0. -1.
    9900012    2    1    2    0    0 -0.18599752976E+02 -0.25345437892E+02 -0.29921251451E+02  0.47787270500E+02  0.19999997519E+02 0.  0.
        -12    1    1    2    0    0  0.18599752976E+02  0.25345437892E+02  0.29921251451E+02  0.43400729500E+02  0.00000000000E+00 0.  1.
         11    1    3    3    0    0 -0.12178280797E+02 -0.17005216648E+02 -0.25829699839E+02  0.33236445515E+02  0.51100000000E-03 0. -1.
        -11    1    3    3    0    0  0.17535272091E+01  0.45214724288E+00 -0.12878118689E+01  0.22221058645E+01  0.51100000000E-03 0.  1.
         12    1    3    3    0    0 -0.81749993885E+01 -0.87923684871E+01 -0.28037397426E+01  0.12328719121E+02  0.00000000000E+00 0. -1.
</event>
<event>
 7    1  0.2430096E-009  0.4778727E+02  0.7816164E-02  0.1312668E+00
        -11   -1    0    0    0    0  0.00000000000E+00  0.00000000000E+00  0.45593999997E+02  0.45594000000E+02  0.51100000000E-03 0.  1.
         11   -1    0    0    0    0 -0.00000000000E+00 -0.00000000000E+00 -0.45593999997E+02  0.45594000000E+02  0.51100000000E-03 0. -1.
    9900012    2    1    2    0    0 -0.20127619797E+02 -0.60617079445E+01 -0.37970490213E+02  0.47787268337E+02  0.19999987656E+02 0.  0.
        -12    1    1    2    0    0  0.20127619797E+02  0.60617079445E+01  0.37970490213E+02  0.43400731663E+02  0.00000000000E+00 0.  1.
         11    1    3    3    0    0 -0.60948827785E+01 -0.10748681297E+02 -0.12796072886E+02  0.17788232831E+02  0.51100000000E-03 0. -1.
        -11    1    3    3    0    0 -0.61998105430E+01  0.56609171979E+01 -0.13830729453E+02  0.16179391576E+02  0.51100000000E-03 0.  1.
         12    1    3    3    0    0 -0.78329264755E+01 -0.97394384584E+00 -0.11343687873E+02  0.13819643930E+02  0.00000000000E+00 0. -1.
</event>
<event>
 7    1  0.2430096E-009  0.4778727E+02  0.7816164E-02  0.1312668E+00
        -11   -1    0    0    0    0  0.00000000000E+00  0.00000000000E+00  0.45593999997E+02  0.45594000000E+02  0.51100000000E-03 0.  1.
         11   -1    0    0    0    0 -0.00000000000E+00 -0.00000000000E+00 -0.45593999997E+02  0.45594000000E+02  0.51100000000E-03 0. -1.
    9900012    2    1    2    0    0  0.12994192032E+02  0.38118150040E+02 -0.16179643338E+02  0.47787271347E+02  0.20000001380E+02 0.  0.
        -12    1    1    2    0    0 -0.12994192032E+02 -0.38118150040E+02  0.16179643338E+02  0.43400728653E+02  0.00000000000E+00 0.  1.
         11    1    3    3    0    0  0.12607807719E+02  0.38400500809E+02 -0.12987749397E+02  0.42452760953E+02  0.51100000000E-03 0. -1.
        -11    1    3    3    0    0 -0.14248860685E+01 -0.14359934630E+01 -0.96664645363E+00  0.22420488758E+01  0.51100000000E-03 0.  1.
         12    1    3    3    0    0  0.18112703813E+01  0.11536426942E+01 -0.22252474880E+01  0.30924615184E+01  0.00000000000E+00 0. -1.
</event>
<event>
 7    1  0.2430096E-009  0.4778729E+02  0.7816164E-02  0.1312668E+00
        -11   -1    0    0    0    0  0.00000000000E+00  0.00000000000E+00  0.45593999997E+02  0.45594000000E+02  0.51100000000E-03 0.  1.
         11   -1    0    0    0    0 -0.00000000000E+00 -0.00000000000E+00 -0.45593999997E+02  0.45594000000E+02  0.51100000000E-03 0. -1.
    9900012    2    1    2    0    0 -0.12572170083E+02  0.26995997244E+02 -0.31571793227E+02  0.47787291994E+02  0.20000095519E+02 0.  0.
        -12    1    1    2    0    0  0.12572170083E+02 -0.26995997244E+02  0.31571793227E+02  0.43400708006E+02  0.00000000000E+00 0.  1.
         11    1    3    3    0    0 -0.99632648150E+00  0.14272468344E+02 -0.99379056465E+01  0.17420045579E+02  0.51100000000E-03 0. -1.
        -11    1    3    3    0    0 -0.14107873252E+02  0.12097189953E+02 -0.19937470493E+02  0.27255766773E+02  0.51100000000E-03 0.  1.
        -12    1    3    3    0    0  0.25320296505E+01  0.62633894757E+00 -0.16964170878E+01  0.31114796422E+01  0.00000000000E+00 0.  1.
</event>
<event>
 7    1  0.2430096E-009  0.4778727E+02  0.7816164E-02  0.1312668E+00
        -11   -1    0    0    0    0  0.00000000000E+00  0.00000000000E+00  0.45593999997E+02  0.45594000000E+02  0.51100000000E-03 0. -1.
         11   -1    0    0    0    0 -0.00000000000E+00 -0.00000000000E+00 -0.45593999997E+02  0.45594000000E+02  0.51100000000E-03 0.  1.
    9900012    2    1    2    0    0 -0.30248131353E+02  0.11594477530E+02  0.28883246795E+02  0.47787270686E+02  0.19999998367E+02 0.  0.
        -12    1    1    2    0    0  0.30248131353E+02 -0.11594477530E+02 -0.28883246795E+02  0.43400729314E+02  0.00000000000E+00 0.  1.
         11    1    3    3    0    0 -0.87796253024E+01  0.26041136882E+01 -0.10816891402E+01  0.92213491534E+01  0.51100000000E-03 0. -1.
        -11    1    3    3    0    0 -0.16825985924E+02  0.43137959184E+01  0.24337214936E+02  0.29900211849E+02  0.51100000000E-03 0.  1.
         12    1    3    3    0    0 -0.46425201270E+01  0.46765679236E+01  0.56277209990E+01  0.86657096833E+01  0.00000000000E+00 0. -1.
</event>
<event>
 7    1  0.2430096E-009  0.4778727E+02  0.7816164E-02  0.1312668E+00
        -11   -1    0    0    0    0  0.00000000000E+00  0.00000000000E+00  0.45593999997E+02  0.45594000000E+02  0.51100000000E-03 0.  1.
         11   -1    0    0    0    0 -0.00000000000E+00 -0.00000000000E+00 -0.45593999997E+02  0.45594000000E+02  0.51100000000E-03 0. -1.
    9900012    2    1    2    0    0  0.33093118796E+01 -0.11877394925E+02 -0.41612493317E+02  0.47787266650E+02  0.19999979963E+02 0.  0.
        -12    1    1    2    0    0 -0.33093118796E+01  0.11877394925E+02  0.41612493317E+02  0.43400733350E+02  0.00000000000E+00 0.  1.
         11    1    3    3    0    0 -0.20922586124E+01 -0.13538603970E+02 -0.18723042069E+02  0.23199647586E+02  0.51100000000E-03 0. -1.
        -11    1    3    3    0    0  0.12667642916E+01  0.38015305412E+01 -0.74217981909E+01  0.84344184668E+01  0.51100000000E-03 0.  1.
        -12    1    3    3    0    0  0.41348062005E+01 -0.21403214959E+01 -0.15467653057E+02  0.16153200597E+02  0.00000000000E+00 0.  1.
</event>
<event>
 7    1  0.2430096E-009  0.4778728E+02  0.7816164E-02  0.1312668E+00
        -11   -1    0    0    0    0  0.00000000000E+00  0.00000000000E+00  0.45593999997E+02  0.45594000000E+02  0.51100000000E-03 0. -1.
         11   -1    0    0    0    0 -0.00000000000E+00 -0.00000000000E+00 -0.45593999997E+02  0.45594000000E+02  0.51100000000E-03 0.  1.
    9900012    2    1    2    0    0  0.43246162947E+02  0.26886316090E+01 -0.24825812279E+01  0.47787279278E+02  0.20000037542E+02 0.  0.
        -12    1    1    2    0    0 -0.43246162947E+02 -0.26886316090E+01  0.24825812279E+01  0.43400720722E+02  0.00000000000E+00 0.  1.
         11    1    3    3    0    0  0.18527003707E+02  0.30163889261E+01  0.12984699225E+01  0.18815804339E+02  0.51100000000E-03 0. -1.
        -11    1    3    3    0    0  0.16981148510E+00 -0.32993431089E+01  0.15899099276E+01  0.36663762395E+01  0.51100000000E-03 0.  1.
        -12    1    3    3    0    0  0.24549347755E+02  0.29715857919E+01 -0.53709610780E+01  0.25305098700E+02  0.00000000000E+00 0.  1.
</event>
<event>
 7    1  0.2430096E-009  0.4778727E+02  0.7816164E-02  0.1312668E+00
        -11   -1    0    0    0    0  0.00000000000E+00  0.00000000000E+00  0.45593999997E+02  0.45594000000E+02  0.51100000000E-03 0.  1.
         11   -1    0    0    0    0 -0.00000000000E+00 -0.00000000000E+00 -0.45593999997E+02  0.45594000000E+02  0.51100000000E-03 0. -1.
    9900012    2    1    2    0    0 -0.10290633409E+02 -0.33577318859E+02 -0.25500782323E+02  0.47787269859E+02  0.19999994593E+02 0.  0.
        -12    1    1    2    0    0  0.10290633409E+02  0.33577318859E+02  0.25500782323E+02  0.43400730141E+02  0.00000000000E+00 0.  1.
         11    1    3    3    0    0 -0.55720967883E+01 -0.16198619963E+02 -0.16733676444E+02  0.23947013988E+02  0.51100000000E-03 0. -1.
        -11    1    3    3    0    0  0.45134827080E+00  0.18242336350E+01  0.43313000100E+00  0.19285086144E+01  0.51100000000E-03 0.  1.
        -12    1    3    3    0    0 -0.51698848919E+01 -0.19202932531E+02 -0.92002358792E+01  0.21911747256E+02  0.00000000000E+00 0.  1.
</event>
<event>
 7    1  0.2430096E-009  0.4778730E+02  0.7816164E-02  0.1312668E+00
        -11   -1    0    0    0    0  0.00000000000E+00  0.00000000000E+00  0.45593999997E+02  0.45594000000E+02  0.51100000000E-03 0. -1.
         11   -1    0    0    0    0 -0.00000000000E+00 -0.00000000000E+00 -0.45593999997E+02  0.45594000000E+02  0.51100000000E-03 0.  1.
    9900012    2    1    2    0    0 -0.10804624275E+02  0.26889288264E+02  0.32308621073E+02  0.47787300412E+02  0.20000133897E+02 0.  0.
        -12    1    1    2    0    0  0.10804624275E+02 -0.26889288264E+02 -0.32308621073E+02  0.43400699588E+02  0.00000000000E+00 0.  1.
         11    1    3    3    0    0  0.14207220418E+01  0.95761285053E+01  0.63592916696E+01  0.11582801003E+02  0.51100000000E-03 0. -1.
        -11    1    3    3    0    0 -0.11286994999E+02  0.42270064093E+01  0.13815726515E+02  0.18334070434E+02  0.51100000000E-03 0.  1.
        -12    1    3    3    0    0 -0.93835131780E+00  0.13086153350E+02  0.12133602888E+02  0.17870428975E+02  0.00000000000E+00 0.  1.
</event>
<event>
 7    1  0.2430096E-009  0.4778727E+02  0.7816164E-02  0.1312668E+00
        -11   -1    0    0    0    0  0.00000000000E+00  0.00000000000E+00  0.45593999997E+02  0.45594000000E+02  0.51100000000E-03 0.  1.
         11   -1    0    0    0    0 -0.00000000000E+00 -0.00000000000E+00 -0.45593999997E+02  0.45594000000E+02  0.51100000000E-03 0. -1.
    9900012    2    1    2    0    0  0.87279778150E+01  0.14613684560E+02 -0.39923500239E+02  0.47787271383E+02  0.20000001542E+02 0.  0.
        -12    1    1    2    0    0 -0.87279778150E+01 -0.14613684560E+02  0.39923500239E+02  0.43400728617E+02  0.00000000000E+00 0.  1.
         11    1    3    3    0    0 -0.49444429048E+01  0.44800352666E+01 -0.10943980541E+02  0.12817524799E+02  0.51100000000E-03 0. -1.
        -11    1    3    3    0    0  0.86788706492E+01  0.47530697271E+01 -0.24368633979E+02  0.26301041611E+02  0.51100000000E-03 0.  1.
         12    1    3    3    0    0  0.49935500705E+01  0.53805795666E+01 -0.46108857187E+01  0.86687049719E+01  0.00000000000E+00 0. -1.
</event>
<event>
 7    1  0.2430096E-009  0.4778731E+02  0.7816164E-02  0.1312668E+00
        -11   -1    0    0    0    0  0.00000000000E+00  0.00000000000E+00  0.45593999997E+02  0.45594000000E+02  0.51100000000E-03 0.  1.
         11   -1    0    0    0    0 -0.00000000000E+00 -0.00000000000E+00 -0.45593999997E+02  0.45594000000E+02  0.51100000000E-03 0. -1.
    9900012    2    1    2    0    0 -0.22481939198E+02 -0.10907185827E+02 -0.35485431791E+02  0.47787306893E+02  0.20000163447E+02 0.  0.
        -12    1    1    2    0    0  0.22481939198E+02  0.10907185827E+02  0.35485431791E+02  0.43400693107E+02  0.00000000000E+00 0.  1.
         11    1    3    3    0    0 -0.20842680720E+02 -0.11647660347E+02 -0.20039426607E+02  0.31171524668E+02  0.51100000000E-03 0. -1.
        -11    1    3    3    0    0 -0.33258675979E+01  0.11091451980E+01 -0.13771177744E+02  0.14210451613E+02  0.51100000000E-03 0.  1.
         12    1    3    3    0    0  0.16866091202E+01 -0.36867067821E+00 -0.16748274406E+01  0.24053306111E+01  0.00000000000E+00 0. -1.
</event>
<event>
 7    1  0.2430096E-009  0.4778725E+02  0.7816164E-02  0.1312668E+00
        -11   -1    0    0    0    0  0.00000000000E+00  0.00000000000E+00  0.45593999997E+02  0.45594000000E+02  0.51100000000E-03 0.  1.
         11   -1    0    0    0    0 -0.00000000000E+00 -0.00000000000E+00 -0.45593999997E+02  0.45594000000E+02  0.51100000000E-03 0. -1.
    9900012    2    1    2    0    0  0.88586087442E+01 -0.39849559027E+02 -0.14736434101E+02  0.47787253537E+02  0.19999920178E+02 0.  0.
        -12    1    1    2    0    0 -0.88586087442E+01  0.39849559027E+02  0.14736434101E+02  0.43400746463E+02  0.00000000000E+00 0.  1.
         11    1    3    3    0    0  0.82796320174E+01 -0.14102598247E+02 -0.12056980114E+02  0.20317636511E+02  0.51100000000E-03 0. -1.
        -11    1    3    3    0    0 -0.36611610412E+00 -0.13899912480E+02  0.31123055491E+01  0.14248791318E+02  0.51100000000E-03 0.  1.
         12    1    3    3    0    0  0.94509283099E+00 -0.11847048300E+02 -0.57917595360E+01  0.13220825708E+02  0.00000000000E+00 0. -1.
</event>
<event>
 7    1  0.2430096E-009  0.4778727E+02  0.7816164E-02  0.1312668E+00
        -11   -1    0    0    0    0  0.00000000000E+00  0.00000000000E+00  0.45593999997E+02  0.45594000000E+02  0.51100000000E-03 0.  1.
         11   -1    0    0    0    0 -0.00000000000E+00 -0.00000000000E+00 -0.45593999997E+02  0.45594000000E+02  0.51100000000E-03 0. -1.
    9900012    2    1    2    0    0  0.35677799146E+02 -0.98302774705E+01 -0.22673412540E+02  0.47787270245E+02  0.19999996356E+02 0.  0.
        -12    1    1    2    0    0 -0.35677799146E+02  0.98302774705E+01  0.22673412540E+02  0.43400729755E+02  0.00000000000E+00 0.  1.
         11    1    3    3    0    0  0.93290723015E+00  0.19238341310E+01 -0.56738788449E+01  0.60633616972E+01  0.51100000000E-03 0.  1.
        -11    1    3    3    0    0  0.29565724091E+02 -0.11681606472E+02 -0.10642697721E+02  0.33524006113E+02  0.51100000000E-03 0. -1.
         12    1    3    3    0    0  0.51791678247E+01 -0.72505129647E-01 -0.63568359738E+01  0.81999024353E+01  0.00000000000E+00 0. -1.
</event>
<event>
 7    1  0.2430096E-009  0.4778727E+02  0.7816164E-02  0.1312668E+00
        -11   -1    0    0    0    0  0.00000000000E+00  0.00000000000E+00  0.45593999997E+02  0.45594000000E+02  0.51100000000E-03 0.  1.
         11   -1    0    0    0    0 -0.00000000000E+00 -0.00000000000E+00 -0.45593999997E+02  0.45594000000E+02  0.51100000000E-03 0. -1.
    9900012    2    1    2    0    0 -0.23769946566E+02  0.29677441164E+02 -0.20925159371E+02  0.47787272258E+02  0.20000005534E+02 0.  0.
        -12    1    1    2    0    0  0.23769946566E+02 -0.29677441164E+02  0.20925159371E+02  0.43400727742E+02  0.00000000000E+00 0.  1.
         11    1    3    3    0    0 -0.22244881360E+01  0.85970285896E+01 -0.60901362089E+01  0.10767869211E+02  0.51100000000E-03 0. -1.
        -11    1    3    3    0    0 -0.16473364055E+02  0.52862050836E+01 -0.83187848619E+01  0.19196819250E+02  0.51100000000E-03 0.  1.
        -12    1    3    3    0    0 -0.50720943747E+01  0.15794207491E+02 -0.65162383001E+01  0.17822583797E+02  0.00000000000E+00 0.  1.
</event>
<event>
 7    1  0.2430096E-009  0.4778727E+02  0.7816164E-02  0.1312668E+00
        -11   -1    0    0    0    0  0.00000000000E+00  0.00000000000E+00  0.45593999997E+02  0.45594000000E+02  0.51100000000E-03 0. -1.
         11   -1    0    0    0    0 -0.00000000000E+00 -0.00000000000E+00 -0.45593999997E+02  0.45594000000E+02  0.51100000000E-03 0.  1.
    9900012    2    1    2    0    0  0.11570896282E+02 -0.25416469784E+02  0.33222591951E+02  0.47787271976E+02  0.20000004248E+02 0.  0.
        -12    1    1    2    0    0 -0.11570896282E+02  0.25416469784E+02 -0.33222591951E+02  0.43400728024E+02  0.00000000000E+00 0.  1.
         11    1    3    3    0    0  0.11437389463E+02 -0.23450557245E+02  0.29265426259E+02  0.39207240239E+02  0.51100000000E-03 0. -1.
        -11    1    3    3    0    0 -0.33769044460E+01  0.22347822521E+00  0.24451725556E+01  0.41752000242E+01  0.51100000000E-03 0.  1.
         12    1    3    3    0    0  0.35104112651E+01 -0.21893907643E+01  0.15119931370E+01  0.44048317125E+01  0.00000000000E+00 0. -1.
</event>
<event>
 7    1  0.2430096E-009  0.4778728E+02  0.7816164E-02  0.1312668E+00
        -11   -1    0    0    0    0  0.00000000000E+00  0.00000000000E+00  0.45593999997E+02  0.45594000000E+02  0.51100000000E-03 0.  1.
         11   -1    0    0    0    0 -0.00000000000E+00 -0.00000000000E+00 -0.45593999997E+02  0.45594000000E+02  0.51100000000E-03 0. -1.
    9900012    2    1    2    0    0  0.37353244523E+02  0.12407318598E+02 -0.18287058209E+02  0.47787275016E+02  0.20000018107E+02 0.  0.
        -12    1    1    2    0    0 -0.37353244523E+02 -0.12407318598E+02  0.18287058209E+02  0.43400724984E+02  0.00000000000E+00 0.  1.
         11    1    3    3    0    0  0.14103941877E+02 -0.32141519364E+01 -0.74986074853E+01  0.16293589648E+02  0.51100000000E-03 0. -1.
        -11    1    3    3    0    0  0.13931967993E+02  0.11053055904E+02 -0.11357162579E+02  0.21101064406E+02  0.51100000000E-03 0.  1.
        -12    1    3    3    0    0  0.93173346529E+01  0.45684146305E+01  0.56871185488E+00  0.10392620961E+02  0.00000000000E+00 0.  1.
</event>
<event>
 7    1  0.2430096E-009  0.4778727E+02  0.7816164E-02  0.1312668E+00
        -11   -1    0    0    0    0  0.00000000000E+00  0.00000000000E+00  0.45593999997E+02  0.45594000000E+02  0.51100000000E-03 0.  1.
         11   -1    0    0    0    0 -0.00000000000E+00 -0.00000000000E+00 -0.45593999997E+02  0.45594000000E+02  0.51100000000E-03 0. -1.
    9900012    2    1    2    0    0  0.32045620157E+02  0.16661192661E+02 -0.24064618707E+02  0.47787274365E+02  0.20000015140E+02 0.  0.
        -12    1    1    2    0    0 -0.32045620157E+02 -0.16661192661E+02  0.24064618707E+02  0.43400725635E+02  0.00000000000E+00 0.  1.
         11    1    3    3    0    0  0.29088902355E+02  0.13639821977E+02 -0.13547840010E+02  0.34867649088E+02  0.51100000000E-03 0. -1.
        -11    1    3    3    0    0  0.31183104262E+01  0.47628858203E+01 -0.87061706961E+01  0.10402228112E+02  0.51100000000E-03 0.  1.
         12    1    3    3    0    0 -0.16159262355E+00 -0.17415151369E+01 -0.18106080013E+01  0.25173971642E+01  0.00000000000E+00 0. -1.
</event>
<event>
 7    1  0.2430096E-009  0.4778727E+02  0.7816164E-02  0.1312668E+00
        -11   -1    0    0    0    0  0.00000000000E+00  0.00000000000E+00  0.45593999997E+02  0.45594000000E+02  0.51100000000E-03 0.  1.
         11   -1    0    0    0    0 -0.00000000000E+00 -0.00000000000E+00 -0.45593999997E+02  0.45594000000E+02  0.51100000000E-03 0. -1.
    9900012    2    1    2    0    0 -0.61695398624E+01  0.11450870868E+02 -0.41405764248E+02  0.47787274445E+02  0.20000015505E+02 0.  0.
        -12    1    1    2    0    0  0.61695398624E+01 -0.11450870868E+02  0.41405764248E+02  0.43400725555E+02  0.00000000000E+00 0.  1.
         11    1    3    3    0    0 -0.90199082651E+01  0.38391180119E+01 -0.33317742219E+02  0.34729951326E+02  0.51100000000E-03 0. -1.
        -11    1    3    3    0    0  0.10777357542E-01  0.59700257560E+01 -0.22867799126E+01  0.63930185600E+01  0.51100000000E-03 0.  1.
         12    1    3    3    0    0  0.28395910452E+01  0.16417271000E+01 -0.58012421157E+01  0.66643045594E+01  0.00000000000E+00 0. -1.
</event>
<event>
 7    1  0.2430096E-009  0.4778725E+02  0.7816164E-02  0.1312668E+00
        -11   -1    0    0    0    0  0.00000000000E+00  0.00000000000E+00  0.45593999997E+02  0.45594000000E+02  0.51100000000E-03 0.  1.
         11   -1    0    0    0    0 -0.00000000000E+00 -0.00000000000E+00 -0.45593999997E+02  0.45594000000E+02  0.51100000000E-03 0. -1.
    9900012    2    1    2    0    0 -0.15110835177E+02 -0.25177903722E+02 -0.31958743041E+02  0.47787246177E+02  0.19999886621E+02 0.  0.
        -12    1    1    2    0    0  0.15110835177E+02  0.25177903722E+02  0.31958743041E+02  0.43400753823E+02  0.00000000000E+00 0.  1.
         11    1    3    3    0    0 -0.24120373643E+01 -0.25408121873E+01 -0.75183721993E+01  0.82945507176E+01  0.51100000000E-03 0. -1.
        -11    1    3    3    0    0 -0.34675577438E+01 -0.98824976974E+01 -0.20866698818E+02  0.23347523150E+02  0.51100000000E-03 0.  1.
        -12    1    3    3    0    0 -0.92312400685E+01 -0.12754593838E+02 -0.35736720242E+01  0.16145172310E+02  0.00000000000E+00 0.  1.
</event>
<event>
 7    1  0.2430096E-009  0.4778726E+02  0.7816164E-02  0.1312668E+00
        -11   -1    0    0    0    0  0.00000000000E+00  0.00000000000E+00  0.45593999997E+02  0.45594000000E+02  0.51100000000E-03 0.  1.
         11   -1    0    0    0    0 -0.00000000000E+00 -0.00000000000E+00 -0.45593999997E+02  0.45594000000E+02  0.51100000000E-03 0. -1.
    9900012    2    1    2    0    0  0.27457571486E+02 -0.32993624282E+02 -0.64130041089E+01  0.47787261563E+02  0.19999956771E+02 0.  0.
        -12    1    1    2    0    0 -0.27457571486E+02  0.32993624282E+02  0.64130041089E+01  0.43400738437E+02  0.00000000000E+00 0.  1.
         11    1    3    3    0    0  0.23476519574E+00 -0.42837124155E+01 -0.57702018282E+01  0.71903084882E+01  0.51100000000E-03 0. -1.
        -11    1    3    3    0    0  0.26511144943E+02 -0.25123164070E+02 -0.22698883549E+01  0.36594624912E+02  0.51100000000E-03 0.  1.
        -12    1    3    3    0    0  0.71166134746E+00 -0.35867477969E+01  0.16270860742E+01  0.40023281630E+01  0.00000000000E+00 0.  1.
</event>
<event>
 7    1  0.2430096E-009  0.4778727E+02  0.7816164E-02  0.1312668E+00
        -11   -1    0    0    0    0  0.00000000000E+00  0.00000000000E+00  0.45593999997E+02  0.45594000000E+02  0.51100000000E-03 0.  1.
         11   -1    0    0    0    0 -0.00000000000E+00 -0.00000000000E+00 -0.45593999997E+02  0.45594000000E+02  0.51100000000E-03 0. -1.
    9900012    2    1    2    0    0 -0.19840917865E+02  0.44515845819E+01 -0.38342466582E+02  0.47787269930E+02  0.19999994919E+02 0.  0.
        -12    1    1    2    0    0  0.19840917865E+02 -0.44515845819E+01  0.38342466582E+02  0.43400730070E+02  0.00000000000E+00 0.  1.
         11    1    3    3    0    0 -0.13880150728E+02  0.36340936246E+01 -0.25907065411E+02  0.29614882394E+02  0.51100000000E-03 0. -1.
        -11    1    3    3    0    0 -0.68103777031E+00  0.43341988034E+01 -0.20202274454E+00  0.43920274546E+01  0.51100000000E-03 0.  1.
        -12    1    3    3    0    0 -0.52797293659E+01 -0.35167078460E+01 -0.12233378427E+02  0.13780360082E+02  0.00000000000E+00 0.  1.
</event>
<event>
 7    1  0.2430096E-009  0.4778727E+02  0.7816164E-02  0.1312668E+00
        -11   -1    0    0    0    0  0.00000000000E+00  0.00000000000E+00  0.45593999997E+02  0.45594000000E+02  0.51100000000E-03 0.  1.
         11   -1    0    0    0    0 -0.00000000000E+00 -0.00000000000E+00 -0.45593999997E+02  0.45594000000E+02  0.51100000000E-03 0. -1.
    9900012    2    1    2    0    0 -0.28851501352E+02 -0.43669576793E+00 -0.32419493818E+02  0.47787269443E+02  0.19999992699E+02 0.  0.
        -12    1    1    2    0    0  0.28851501352E+02  0.43669576793E+00  0.32419493818E+02  0.43400730557E+02  0.00000000000E+00 0.  1.
         11    1    3    3    0    0 -0.26315986825E+02 -0.50924725529E+01 -0.22411542080E+02  0.34939113583E+02  0.51100000000E-03 0. -1.
        -11    1    3    3    0    0  0.19936123002E+01  0.10907991028E+01 -0.24267054019E+01  0.33246401391E+01  0.51100000000E-03 0.  1.
         12    1    3    3    0    0 -0.45291268273E+01  0.35649776822E+01 -0.75812463358E+01  0.95235157215E+01  0.00000000000E+00 0. -1.
</event>
<event>
 7    1  0.2430096E-009  0.4778727E+02  0.7816164E-02  0.1312668E+00
        -11   -1    0    0    0    0  0.00000000000E+00  0.00000000000E+00  0.45593999997E+02  0.45594000000E+02  0.51100000000E-03 0.  1.
         11   -1    0    0    0    0 -0.00000000000E+00 -0.00000000000E+00 -0.45593999997E+02  0.45594000000E+02  0.51100000000E-03 0. -1.
    9900012    2    1    2    0    0  0.38134014222E+02  0.12424541891E+02 -0.16584662535E+02  0.47787270591E+02  0.19999997931E+02 0.  0.
        -12    1    1    2    0    0 -0.38134014222E+02 -0.12424541891E+02  0.16584662535E+02  0.43400729409E+02  0.00000000000E+00 0.  1.
         11    1    3    3    0    0  0.11082463157E+02  0.16249092780E+01  0.33623033371E+01  0.11694716918E+02  0.51100000000E-03 0. -1.
        -11    1    3    3    0    0  0.11732709863E+02  0.87156520049E+01 -0.93962592813E+01  0.17375521843E+02  0.51100000000E-03 0.  1.
         12    1    3    3    0    0  0.15318841202E+02  0.20839806080E+01 -0.10550706590E+02  0.18717031830E+02  0.00000000000E+00 0. -1.
</event>
<event>
 7    1  0.2430096E-009  0.4778727E+02  0.7816164E-02  0.1312668E+00
        -11   -1    0    0    0    0  0.00000000000E+00  0.00000000000E+00  0.45593999997E+02  0.45594000000E+02  0.51100000000E-03 0.  1.
         11   -1    0    0    0    0 -0.00000000000E+00 -0.00000000000E+00 -0.45593999997E+02  0.45594000000E+02  0.51100000000E-03 0. -1.
    9900012    2    1    2    0    0  0.28654635175E+02 -0.22874159367E+02 -0.23223004969E+02  0.47787271394E+02  0.20000001594E+02 0.  0.
        -12    1    1    2    0    0 -0.28654635175E+02  0.22874159367E+02  0.23223004969E+02  0.43400728606E+02  0.00000000000E+00 0.  1.
         11    1    3    3    0    0  0.19759706357E+02 -0.23824485313E+02 -0.13082643703E+02  0.33603685249E+02  0.51100000000E-03 0. -1.
        -11    1    3    3    0    0  0.81437548456E+01 -0.96743168431E-01 -0.68227853769E+01  0.10624523650E+02  0.51100000000E-03 0.  1.
         12    1    3    3    0    0  0.75117397187E+00  0.10470691148E+01 -0.33175758892E+01  0.35590624956E+01  0.00000000000E+00 0. -1.
</event>
<event>
 7    1  0.2430096E-009  0.4778727E+02  0.7816164E-02  0.1312668E+00
        -11   -1    0    0    0    0  0.00000000000E+00  0.00000000000E+00  0.45593999997E+02  0.45594000000E+02  0.51100000000E-03 0.  1.
         11   -1    0    0    0    0 -0.00000000000E+00 -0.00000000000E+00 -0.45593999997E+02  0.45594000000E+02  0.51100000000E-03 0. -1.
    9900012    2    1    2    0    0 -0.34402989063E+01 -0.11486056977E+02 -0.41711609282E+02  0.47787268321E+02  0.19999987581E+02 0.  0.
        -12    1    1    2    0    0  0.34402989063E+01  0.11486056977E+02  0.41711609282E+02  0.43400731679E+02  0.00000000000E+00 0.  1.
         11    1    3    3    0    0  0.11225251556E+01 -0.56473091608E+01 -0.22565275040E+02  0.23288276050E+02  0.51100000000E-03 0. -1.
        -11    1    3    3    0    0 -0.55950720472E+00  0.78813156162E+00  0.18683097639E+01  0.21035164144E+01  0.51100000000E-03 0.  1.
        -12    1    3    3    0    0 -0.40033168571E+01 -0.66268793778E+01 -0.21014644005E+02  0.22395475856E+02  0.00000000000E+00 0.  1.
</event>
<event>
 7    1  0.2430096E-009  0.4778727E+02  0.7816164E-02  0.1312668E+00
        -11   -1    0    0    0    0  0.00000000000E+00  0.00000000000E+00  0.45593999997E+02  0.45594000000E+02  0.51100000000E-03 0. -1.
         11   -1    0    0    0    0 -0.00000000000E+00 -0.00000000000E+00 -0.45593999997E+02  0.45594000000E+02  0.51100000000E-03 0.  1.
    9900012    2    1    2    0    0  0.40035379507E+02  0.70434331016E+01 -0.15204655426E+02  0.47787272947E+02  0.20000008675E+02 0.  0.
        -12    1    1    2    0    0 -0.40035379507E+02 -0.70434331016E+01  0.15204655426E+02  0.43400727053E+02  0.00000000000E+00 0.  1.
         11    1    3    3    0    0  0.85867425341E+01  0.59862150032E+01 -0.13132372028E+01  0.10549479116E+02  0.51100000000E-03 0. -1.
        -11    1    3    3    0    0  0.30320839642E+02  0.13683544421E+01 -0.16378812174E+02  0.34489001130E+02  0.51100000000E-03 0.  1.
        -12    1    3    3    0    0  0.11277973305E+01 -0.31113634366E+00  0.24873939509E+01  0.27487927005E+01  0.00000000000E+00 0.  1.
</event>
<event>
 7    1  0.2430096E-009  0.4778726E+02  0.7816164E-02  0.1312668E+00
        -11   -1    0    0    0    0  0.00000000000E+00  0.00000000000E+00  0.45593999997E+02  0.45594000000E+02  0.51100000000E-03 0. -1.
         11   -1    0    0    0    0 -0.00000000000E+00 -0.00000000000E+00 -0.45593999997E+02  0.45594000000E+02  0.51100000000E-03 0.  1.
    9900012    2    1    2    0    0  0.19814471836E+02  0.38284803521E+02  0.50283796461E+01  0.47787261797E+02  0.19999957836E+02 0.  0.
        -12    1    1    2    0    0 -0.19814471836E+02 -0.38284803521E+02 -0.50283796461E+01  0.43400738203E+02  0.00000000000E+00 0.  1.
         11    1    3    3    0    0  0.79431732964E+01  0.28064797295E+02  0.37474951880E+01  0.29406981649E+02  0.51100000000E-03 0. -1.
        -11    1    3    3    0    0  0.61130983482E+01 -0.39892837105E+00  0.14664589301E+01  0.62991759235E+01  0.51100000000E-03 0.  1.
        -12    1    3    3    0    0  0.57582001909E+01  0.10618934596E+02 -0.18557447205E+00  0.12081104225E+02  0.00000000000E+00 0.  1.
</event>
<event>
 7    1  0.2430096E-009  0.4778727E+02  0.7816164E-02  0.1312668E+00
        -11   -1    0    0    0    0  0.00000000000E+00  0.00000000000E+00  0.45593999997E+02  0.45594000000E+02  0.51100000000E-03 0.  1.
         11   -1    0    0    0    0 -0.00000000000E+00 -0.00000000000E+00 -0.45593999997E+02  0.45594000000E+02  0.51100000000E-03 0. -1.
    9900012    2    1    2    0    0 -0.27981569031E+01  0.89179742157E+01 -0.42382350474E+02  0.47787267542E+02  0.19999984030E+02 0.  0.
        -12    1    1    2    0    0  0.27981569031E+01 -0.89179742157E+01  0.42382350474E+02  0.43400732458E+02  0.00000000000E+00 0.  1.
         11    1    3    3    0    0  0.23685407532E+01  0.48234264249E+00 -0.15959960555E+02  0.16141963353E+02  0.51100000000E-03 0. -1.
        -11    1    3    3    0    0 -0.33399755482E+01  0.10662549570E+02 -0.10071372236E+02  0.15042537650E+02  0.51100000000E-03 0.  1.
        -12    1    3    3    0    0 -0.18267221081E+01 -0.22269179967E+01 -0.16351017684E+02  0.16602766539E+02  0.00000000000E+00 0.  1.
</event>
<event>
 7    1  0.2430096E-009  0.4778727E+02  0.7816164E-02  0.1312668E+00
        -11   -1    0    0    0    0  0.00000000000E+00  0.00000000000E+00  0.45593999997E+02  0.45594000000E+02  0.51100000000E-03 0.  1.
         11   -1    0    0    0    0 -0.00000000000E+00 -0.00000000000E+00 -0.45593999997E+02  0.45594000000E+02  0.51100000000E-03 0. -1.
    9900012    2    1    2    0    0  0.24245504667E+02  0.12842593557E+02 -0.33628059851E+02  0.47787272873E+02  0.20000008336E+02 0.  0.
        -12    1    1    2    0    0 -0.24245504667E+02 -0.12842593557E+02  0.33628059851E+02  0.43400727127E+02  0.00000000000E+00 0.  1.
         11    1    3    3    0    0  0.15129601430E+02  0.70843957225E+01 -0.14179589073E+02  0.21912422247E+02  0.51100000000E-03 0. -1.
        -11    1    3    3    0    0 -0.92548710767E+00  0.66093710586E+01 -0.10246127519E+02  0.12227977821E+02  0.51100000000E-03 0.  1.
        -12    1    3    3    0    0  0.10041390345E+02 -0.85117322392E+00 -0.92023432582E+01  0.13646872805E+02  0.00000000000E+00 0.  1.
</event>
<event>
 7    1  0.2430096E-009  0.4778727E+02  0.7816164E-02  0.1312668E+00
        -11   -1    0    0    0    0  0.00000000000E+00  0.00000000000E+00  0.45593999997E+02  0.45594000000E+02  0.51100000000E-03 0.  1.
         11   -1    0    0    0    0 -0.00000000000E+00 -0.00000000000E+00 -0.45593999997E+02  0.45594000000E+02  0.51100000000E-03 0. -1.
    9900012    2    1    2    0    0  0.75578133036E+01 -0.34052598927E+02 -0.25824863241E+02  0.47787267322E+02  0.19999983028E+02 0.  0.
        -12    1    1    2    0    0 -0.75578133036E+01  0.34052598927E+02  0.25824863241E+02  0.43400732678E+02  0.00000000000E+00 0.  1.
         11    1    3    3    0    0  0.12869524534E+01 -0.18312986997E+00 -0.11463164600E+01  0.17331545962E+01  0.51100000000E-03 0. -1.
        -11    1    3    3    0    0  0.62159005770E+01 -0.43255993291E+01 -0.11346092882E+02  0.13641189592E+02  0.51100000000E-03 0.  1.
        -12    1    3    3    0    0  0.54960273187E-01 -0.29543869728E+02 -0.13332453899E+02  0.32412923134E+02  0.00000000000E+00 0.  1.
</event>
<event>
 7    1  0.2430096E-009  0.4778727E+02  0.7816164E-02  0.1312668E+00
        -11   -1    0    0    0    0  0.00000000000E+00  0.00000000000E+00  0.45593999997E+02  0.45594000000E+02  0.51100000000E-03 0.  1.
         11   -1    0    0    0    0 -0.00000000000E+00 -0.00000000000E+00 -0.45593999997E+02  0.45594000000E+02  0.51100000000E-03 0. -1.
    9900012    2    1    2    0    0  0.11120009470E+02  0.37431497580E+02 -0.18943380988E+02  0.47787270686E+02  0.19999998367E+02 0.  0.
        -12    1    1    2    0    0 -0.11120009470E+02 -0.37431497580E+02  0.18943380988E+02  0.43400729314E+02  0.00000000000E+00 0.  1.
         11    1    3    3    0    0  0.11845161953E+02  0.24408202502E+02 -0.13729637101E+02  0.30406761522E+02  0.51100000000E-03 0. -1.
        -11    1    3    3    0    0 -0.15835676055E+00 -0.16920117211E+01 -0.13098435253E+01  0.21456166596E+01  0.51100000000E-03 0.  1.
         12    1    3    3    0    0 -0.56679572289E+00  0.14715306799E+02 -0.39039003616E+01  0.15234892505E+02  0.00000000000E+00 0. -1.
</event>
<event>
 7    1  0.2430096E-009  0.4778727E+02  0.7816164E-02  0.1312668E+00
        -11   -1    0    0    0    0  0.00000000000E+00  0.00000000000E+00  0.45593999997E+02  0.45594000000E+02  0.51100000000E-03 0. -1.
         11   -1    0    0    0    0 -0.00000000000E+00 -0.00000000000E+00 -0.45593999997E+02  0.45594000000E+02  0.51100000000E-03 0.  1.
    9900012    2    1    2    0    0 -0.99797645163E+01  0.22530845548E+02  0.35726584396E+02  0.47787268053E+02  0.19999986362E+02 0.  0.
        -12    1    1    2    0    0  0.99797645163E+01 -0.22530845548E+02 -0.35726584396E+02  0.43400731947E+02  0.00000000000E+00 0.  1.
         11    1    3    3    0    0 -0.15128060695E+02  0.11766656041E+02  0.24134878737E+02  0.30818903073E+02  0.51100000000E-03 0. -1.
        -11    1    3    3    0    0  0.39581605871E+01  0.80971848877E+01  0.10530969849E+02  0.13861196361E+02  0.51100000000E-03 0.  1.
         12    1    3    3    0    0  0.11901355912E+01  0.26670046197E+01  0.10607358105E+01  0.31071686189E+01  0.00000000000E+00 0. -1.
</event>
<event>
 7    1  0.2430096E-009  0.4778727E+02  0.7816164E-02  0.1312668E+00
        -11   -1    0    0    0    0  0.00000000000E+00  0.00000000000E+00  0.45593999997E+02  0.45594000000E+02  0.51100000000E-03 0.  1.
         11   -1    0    0    0    0 -0.00000000000E+00 -0.00000000000E+00 -0.45593999997E+02  0.45594000000E+02  0.51100000000E-03 0. -1.
    9900012    2    1    2    0    0  0.33024836890E+02  0.18622111496E+02 -0.21123457473E+02  0.47787270239E+02  0.19999996327E+02 0.  0.
        -12    1    1    2    0    0 -0.33024836890E+02 -0.18622111496E+02  0.21123457473E+02  0.43400729761E+02  0.00000000000E+00 0.  1.
         11    1    3    3    0    0  0.22850551322E+02  0.79527073126E+01 -0.20106076909E+02  0.31458664598E+02  0.51100000000E-03 0. -1.
        -11    1    3    3    0    0  0.54830916528E+01  0.48702938224E+01 -0.39308304050E+01  0.83207862563E+01  0.51100000000E-03 0.  1.
         12    1    3    3    0    0  0.46911939149E+01  0.57991103612E+01  0.29134498407E+01  0.80078193850E+01  0.00000000000E+00 0. -1.
</event>
<event>
 7    1  0.2430096E-009  0.4778727E+02  0.7816164E-02  0.1312668E+00
        -11   -1    0    0    0    0  0.00000000000E+00  0.00000000000E+00  0.45593999997E+02  0.45594000000E+02  0.51100000000E-03 0.  1.
         11   -1    0    0    0    0 -0.00000000000E+00 -0.00000000000E+00 -0.45593999997E+02  0.45594000000E+02  0.51100000000E-03 0. -1.
    9900012    2    1    2    0    0 -0.37751640172E+02  0.20260314663E+02 -0.69250557947E+01  0.47787273236E+02  0.20000009991E+02 0.  0.
        -12    1    1    2    0    0  0.37751640172E+02 -0.20260314663E+02  0.69250557947E+01  0.43400726764E+02  0.00000000000E+00 0.  1.
         11    1    3    3    0    0 -0.47415996260E+01  0.42939930844E+00 -0.43407000147E+01  0.64427344861E+01  0.51100000000E-03 0. -1.
        -11    1    3    3    0    0 -0.19295539923E+02  0.16460807327E+02  0.41472831004E+01  0.25699727550E+02  0.51100000000E-03 0.  1.
        -12    1    3    3    0    0 -0.13714500623E+02  0.33701080274E+01 -0.67316388804E+01  0.15644811200E+02  0.00000000000E+00 0.  1.
</event>
<event>
 7    1  0.2430096E-009  0.4778728E+02  0.7816164E-02  0.1312668E+00
        -11   -1    0    0    0    0  0.00000000000E+00  0.00000000000E+00  0.45593999997E+02  0.45594000000E+02  0.51100000000E-03 0.  1.
         11   -1    0    0    0    0 -0.00000000000E+00 -0.00000000000E+00 -0.45593999997E+02  0.45594000000E+02  0.51100000000E-03 0. -1.
    9900012    2    1    2    0    0 -0.43210777469E+02  0.21348558371E+01  0.34487692321E+01  0.47787275258E+02  0.20000019211E+02 0.  0.
        -12    1    1    2    0    0  0.43210777469E+02 -0.21348558371E+01 -0.34487692321E+01  0.43400724742E+02  0.00000000000E+00 0.  1.
         11    1    3    3    0    0 -0.36679908895E+02 -0.54008788006E+01  0.32144888809E+01  0.37214488407E+02  0.51100000000E-03 0. -1.
        -11    1    3    3    0    0 -0.45161947498E+01  0.34747689297E+01 -0.11897582554E+01  0.58211303972E+01  0.51100000000E-03 0.  1.
         12    1    3    3    0    0 -0.20146738238E+01  0.40609657080E+01  0.14240386065E+01  0.47516564533E+01  0.00000000000E+00 0. -1.
</event>
<event>
 7    1  0.2430096E-009  0.4778727E+02  0.7816164E-02  0.1312668E+00
        -11   -1    0    0    0    0  0.00000000000E+00  0.00000000000E+00  0.45593999997E+02  0.45594000000E+02  0.51100000000E-03 0. -1.
         11   -1    0    0    0    0 -0.00000000000E+00 -0.00000000000E+00 -0.45593999997E+02  0.45594000000E+02  0.51100000000E-03 0.  1.
    9900012    2    1    2    0    0 -0.41013420496E+01 -0.12011692167E+02  0.41503269076E+02  0.47787273055E+02  0.20000009168E+02 0.  0.
        -12    1    1    2    0    0  0.41013420496E+01  0.12011692167E+02 -0.41503269076E+02  0.43400726945E+02  0.00000000000E+00 0.  1.
         11    1    3    3    0    0 -0.58606707224E+01 -0.82245298712E+01  0.37999117520E+02  0.39318230956E+02  0.51100000000E-03 0. -1.
        -11    1    3    3    0    0  0.17140276476E+00  0.20128332913E-01 -0.17671143478E+01  0.17755217365E+01  0.51100000000E-03 0.  1.
         12    1    3    3    0    0  0.15879259080E+01 -0.38072906287E+01  0.52712659035E+01  0.66935203627E+01  0.00000000000E+00 0. -1.
</event>
<event>
 7    1  0.2430096E-009  0.4778727E+02  0.7816164E-02  0.1312668E+00
        -11   -1    0    0    0    0  0.00000000000E+00  0.00000000000E+00  0.45593999997E+02  0.45594000000E+02  0.51100000000E-03 0.  1.
         11   -1    0    0    0    0 -0.00000000000E+00 -0.00000000000E+00 -0.45593999997E+02  0.45594000000E+02  0.51100000000E-03 0. -1.
    9900012    2    1    2    0    0 -0.22214234456E+02  0.26247632714E+00 -0.37283803114E+02  0.47787273268E+02  0.20000010137E+02 0.  0.
        -12    1    1    2    0    0  0.22214234456E+02 -0.26247632714E+00  0.37283803114E+02  0.43400726732E+02  0.00000000000E+00 0.  1.
         11    1    3    3    0    0 -0.87914329565E+01 -0.58426987152E+01 -0.52165137841E+01  0.11774482495E+02  0.51100000000E-03 0. -1.
        -11    1    3    3    0    0 -0.79046634661E+01  0.60121590227E+01 -0.14316859110E+02  0.17424184792E+02  0.51100000000E-03 0.  1.
         12    1    3    3    0    0 -0.55181380329E+01  0.93016019651E-01 -0.17750430219E+02  0.18588605980E+02  0.00000000000E+00 0. -1.
</event>
<event>
 7    1  0.2430096E-009  0.4778727E+02  0.7816164E-02  0.1312668E+00
        -11   -1    0    0    0    0  0.00000000000E+00  0.00000000000E+00  0.45593999997E+02  0.45594000000E+02  0.51100000000E-03 0. -1.
         11   -1    0    0    0    0 -0.00000000000E+00 -0.00000000000E+00 -0.45593999997E+02  0.45594000000E+02  0.51100000000E-03 0.  1.
    9900012    2    1    2    0    0  0.13509712173E+02  0.76392899723E+01  0.40530880419E+02  0.47787270262E+02  0.19999996431E+02 0.  0.
        -12    1    1    2    0    0 -0.13509712173E+02 -0.76392899723E+01 -0.40530880419E+02  0.43400729738E+02  0.00000000000E+00 0.  1.
         11    1    3    3    0    0  0.15395836803E+02  0.99346831870E+01  0.32815680883E+02  0.37584553117E+02  0.51100000000E-03 0. -1.
        -11    1    3    3    0    0 -0.29853455493E+01 -0.10682152647E+00  0.11593507469E+01  0.32043397609E+01  0.51100000000E-03 0.  1.
         12    1    3    3    0    0  0.10992209187E+01 -0.21885716882E+01  0.65558487889E+01  0.69983773838E+01  0.00000000000E+00 0. -1.
</event>
<event>
 7    1  0.2430096E-009  0.4778727E+02  0.7816164E-02  0.1312668E+00
        -11   -1    0    0    0    0  0.00000000000E+00  0.00000000000E+00  0.45593999997E+02  0.45594000000E+02  0.51100000000E-03 0. -1.
         11   -1    0    0    0    0 -0.00000000000E+00 -0.00000000000E+00 -0.45593999997E+02  0.45594000000E+02  0.51100000000E-03 0.  1.
    9900012    2    1    2    0    0  0.25703197543E+01 -0.35433401753E+02  0.24929715233E+02  0.47787271837E+02  0.20000003616E+02 0.  0.
        -12    1    1    2    0    0 -0.25703197543E+01  0.35433401753E+02 -0.24929715233E+02  0.43400728163E+02  0.00000000000E+00 0.  1.
         11    1    3    3    0    0  0.16904868779E+01 -0.10483670649E+02  0.12855646862E+02  0.16674314159E+02  0.51100000000E-03 0. -1.
        -11    1    3    3    0    0 -0.54421200785E+01 -0.39310477505E+01  0.24440874433E+01  0.71444643646E+01  0.51100000000E-03 0.  1.
        -12    1    3    3    0    0  0.63219529549E+01 -0.21018683353E+02  0.96299809275E+01  0.23968493314E+02  0.00000000000E+00 0.  1.
</event>
<event>
 7    1  0.2430096E-009  0.4778727E+02  0.7816164E-02  0.1312668E+00
        -11   -1    0    0    0    0  0.00000000000E+00  0.00000000000E+00  0.45593999997E+02  0.45594000000E+02  0.51100000000E-03 0.  1.
         11   -1    0    0    0    0 -0.00000000000E+00 -0.00000000000E+00 -0.45593999997E+02  0.45594000000E+02  0.51100000000E-03 0. -1.
    9900012    2    1    2    0    0  0.34092594545E+02  0.64964487167E+01 -0.26059824978E+02  0.47787270437E+02  0.19999997229E+02 0.  0.
        -12    1    1    2    0    0 -0.34092594545E+02 -0.64964487167E+01  0.26059824978E+02  0.43400729563E+02  0.00000000000E+00 0.  1.
         11    1    3    3    0    0  0.25218953357E+02  0.56085262874E+01 -0.10291879507E+02  0.27809601932E+02  0.51100000000E-03 0. -1.
        -11    1    3    3    0    0  0.87585896222E-02 -0.59836716327E+00  0.87643752737E+00  0.10612553771E+01  0.51100000000E-03 0.  1.
         12    1    3    3    0    0  0.88648825986E+01  0.14862895925E+01 -0.16644382998E+02  0.18916413128E+02  0.00000000000E+00 0. -1.
</event>
<event>
 7    1  0.2430096E-009  0.4778727E+02  0.7816164E-02  0.1312668E+00
        -11   -1    0    0    0    0  0.00000000000E+00  0.00000000000E+00  0.45593999997E+02  0.45594000000E+02  0.51100000000E-03 0.  1.
         11   -1    0    0    0    0 -0.00000000000E+00 -0.00000000000E+00 -0.45593999997E+02  0.45594000000E+02  0.51100000000E-03 0. -1.
    9900012    2    1    2    0    0 -0.24829672352E+02 -0.21809365141E+02 -0.28132932742E+02  0.47787274873E+02  0.20000017455E+02 0.  0.
        -12    1    1    2    0    0  0.24829672352E+02  0.21809365141E+02  0.28132932742E+02  0.43400725127E+02  0.00000000000E+00 0.  1.
         11    1    3    3    0    0 -0.11140884172E+02 -0.47548689965E+01 -0.19751654039E+02  0.23170151420E+02  0.51100000000E-03 0. -1.
        -11    1    3    3    0    0 -0.14274541880E+02 -0.14438876147E+02 -0.64158634519E+01  0.21293355640E+02  0.51100000000E-03 0.  1.
        -12    1    3    3    0    0  0.58575370078E+00 -0.26156199968E+01 -0.19654152507E+01  0.33237678128E+01  0.00000000000E+00 0.  1.
</event>
<event>
 7    1  0.2430096E-009  0.4778727E+02  0.7816164E-02  0.1312668E+00
        -11   -1    0    0    0    0  0.00000000000E+00  0.00000000000E+00  0.45593999997E+02  0.45594000000E+02  0.51100000000E-03 0.  1.
         11   -1    0    0    0    0 -0.00000000000E+00 -0.00000000000E+00 -0.45593999997E+02  0.45594000000E+02  0.51100000000E-03 0. -1.
    9900012    2    1    2    0    0 -0.88500839000E+01  0.35966946803E+02 -0.22620308284E+02  0.47787267354E+02  0.19999983174E+02 0.  0.
        -12    1    1    2    0    0  0.88500839000E+01 -0.35966946803E+02  0.22620308284E+02  0.43400732646E+02  0.00000000000E+00 0.  1.
         11    1    3    3    0    0  0.18430297133E+01  0.16382188996E+02 -0.92104595842E+01  0.18883999599E+02  0.51100000000E-03 0. -1.
        -11    1    3    3    0    0 -0.13346605228E+02  0.15128262043E+02 -0.89806009964E+01  0.22082739370E+02  0.51100000000E-03 0.  1.
        -12    1    3    3    0    0  0.26534916149E+01  0.44564957640E+01 -0.44292477033E+01  0.68205283858E+01  0.00000000000E+00 0.  1.
</event>
<event>
 7    1  0.2705331E-009  0.4778726E+02  0.7816164E-02  0.1312668E+00
        -11   -1    0    0    0    0  0.00000000000E+00  0.00000000000E+00  0.45593999997E+02  0.45594000000E+02  0.51100000000E-03 0. -1.
         11   -1    0    0    0    0 -0.00000000000E+00 -0.00000000000E+00 -0.45593999997E+02  0.45594000000E+02  0.51100000000E-03 0.  1.
    9900012    2    1    2    0    0 -0.58750689359E+01  0.80639413757E+01  0.42238374906E+02  0.47787263828E+02  0.19999967099E+02 0.  0.
        -12    1    1    2    0    0  0.58750689359E+01 -0.80639413757E+01 -0.42238374906E+02  0.43400736172E+02  0.00000000000E+00 0.  1.
         11    1    3    3    0    0 -0.46946307883E+01  0.69616587398E+01  0.23938210528E+02  0.25368133045E+02  0.51100000000E-03 0. -1.
        -11    1    3    3    0    0 -0.33896678814E+01 -0.10977702351E+01 -0.28488724643E+00  0.35743683134E+01  0.51100000000E-03 0.  1.
        -12    1    3    3    0    0  0.22092297338E+01  0.22000528709E+01  0.18585051625E+02  0.18844762470E+02  0.00000000000E+00 0.  1.
</event>
<event>
 7    1  0.2430096E-009  0.4778727E+02  0.7816164E-02  0.1312668E+00
        -11   -1    0    0    0    0  0.00000000000E+00  0.00000000000E+00  0.45593999997E+02  0.45594000000E+02  0.51100000000E-03 0.  1.
         11   -1    0    0    0    0 -0.00000000000E+00 -0.00000000000E+00 -0.45593999997E+02  0.45594000000E+02  0.51100000000E-03 0. -1.
    9900012    2    1    2    0    0 -0.19255037061E+02  0.16931178872E+02 -0.35017166448E+02  0.47787271708E+02  0.20000003027E+02 0.  0.
        -12    1    1    2    0    0  0.19255037061E+02 -0.16931178872E+02  0.35017166448E+02  0.43400728292E+02  0.00000000000E+00 0.  1.
         11    1    3    3    0    0  0.12131453130E+01  0.60599643571E+01 -0.10866140943E+02  0.12500716332E+02  0.51100000000E-03 0. -1.
        -11    1    3    3    0    0 -0.18019186252E+02  0.43763769924E+01 -0.15312388050E+02  0.24048138739E+02  0.51100000000E-03 0.  1.
        -12    1    3    3    0    0 -0.24489961219E+01  0.64948375229E+01 -0.88386374545E+01  0.11238416637E+02  0.00000000000E+00 0.  1.
</event>
<event>
 7    1  0.2430096E-009  0.4778727E+02  0.7816164E-02  0.1312668E+00
        -11   -1    0    0    0    0  0.00000000000E+00  0.00000000000E+00  0.45593999997E+02  0.45594000000E+02  0.51100000000E-03 0.  1.
         11   -1    0    0    0    0 -0.00000000000E+00 -0.00000000000E+00 -0.45593999997E+02  0.45594000000E+02  0.51100000000E-03 0. -1.
    9900012    2    1    2    0    0  0.76556101029E+01  0.41962953327E+02  0.80078262313E+01  0.47787273060E+02  0.20000009191E+02 0.  0.
        -12    1    1    2    0    0 -0.76556101029E+01 -0.41962953327E+02 -0.80078262313E+01  0.43400726940E+02  0.00000000000E+00 0.  1.
         11    1    3    3    0    0  0.12067663424E+02  0.18165510481E+02 -0.11331073037E+01  0.21837999083E+02  0.51100000000E-03 0. -1.
        -11    1    3    3    0    0 -0.12540444000E+01  0.11442685744E+02  0.48983519313E+01  0.12510057405E+02  0.51100000000E-03 0.  1.
         12    1    3    3    0    0 -0.31580089206E+01  0.12354757102E+02  0.42425816038E+01  0.13439216572E+02  0.00000000000E+00 0. -1.
</event>
<event>
 7    1  0.2430096E-009  0.4778727E+02  0.7816164E-02  0.1312668E+00
        -11   -1    0    0    0    0  0.00000000000E+00  0.00000000000E+00  0.45593999997E+02  0.45594000000E+02  0.51100000000E-03 0.  1.
         11   -1    0    0    0    0 -0.00000000000E+00 -0.00000000000E+00 -0.45593999997E+02  0.45594000000E+02  0.51100000000E-03 0. -1.
    9900012    2    1    2    0    0  0.11430992672E+02 -0.31010647101E+02 -0.28129970304E+02  0.47787273550E+02  0.20000011422E+02 0.  0.
        -12    1    1    2    0    0 -0.11430992672E+02  0.31010647101E+02  0.28129970304E+02  0.43400726450E+02  0.00000000000E+00 0.  1.
         11    1    3    3    0    0  0.60871348358E+01 -0.96200546842E+01 -0.17069966305E+02  0.20517855944E+02  0.51100000000E-03 0. -1.
        -11    1    3    3    0    0 -0.64019612244E+00 -0.17791564216E+02 -0.66180296397E+01  0.18993365287E+02  0.51100000000E-03 0.  1.
        -12    1    3    3    0    0  0.59840539590E+01 -0.35990282010E+01 -0.44419743596E+01  0.82760523190E+01  0.00000000000E+00 0.  1.
</event>
<event>
 7    1  0.2430096E-009  0.4778725E+02  0.7816164E-02  0.1312668E+00
        -11   -1    0    0    0    0  0.00000000000E+00  0.00000000000E+00  0.45593999997E+02  0.45594000000E+02  0.51100000000E-03 0.  1.
         11   -1    0    0    0    0 -0.00000000000E+00 -0.00000000000E+00 -0.45593999997E+02  0.45594000000E+02  0.51100000000E-03 0. -1.
    9900012    2    1    2    0    0  0.68547272536E+01 -0.13433849577E+02 -0.40696066690E+02  0.47787246041E+02  0.19999885998E+02 0.  0.
        -12    1    1    2    0    0 -0.68547272536E+01  0.13433849577E+02  0.40696066690E+02  0.43400753959E+02  0.00000000000E+00 0.  1.
         11    1    3    3    0    0 -0.21759154549E+00 -0.22022205774E+01 -0.14895872448E+02  0.15059353831E+02  0.51100000000E-03 0. -1.
        -11    1    3    3    0    0  0.28922210546E+01 -0.14421402172E+02 -0.20774280849E+02  0.25454125958E+02  0.51100000000E-03 0.  1.
        -12    1    3    3    0    0  0.41800977445E+01  0.31897731728E+01 -0.50259133930E+01  0.72737662515E+01  0.00000000000E+00 0.  1.
</event>
<event>
 7    1  0.2430096E-009  0.4778727E+02  0.7816164E-02  0.1312668E+00
        -11   -1    0    0    0    0  0.00000000000E+00  0.00000000000E+00  0.45593999997E+02  0.45594000000E+02  0.51100000000E-03 0. -1.
         11   -1    0    0    0    0 -0.00000000000E+00 -0.00000000000E+00 -0.45593999997E+02  0.45594000000E+02  0.51100000000E-03 0.  1.
    9900012    2    1    2    0    0  0.17275716499E+02 -0.20765281533E+01  0.39760041706E+02  0.47787271133E+02  0.20000000403E+02 0.  0.
        -12    1    1    2    0    0 -0.17275716499E+02  0.20765281533E+01 -0.39760041706E+02  0.43400728867E+02  0.00000000000E+00 0.  1.
         11    1    3    3    0    0  0.11022161232E+02 -0.10466374861E+02  0.18021308413E+02  0.23575423604E+02  0.51100000000E-03 0. -1.
        -11    1    3    3    0    0  0.40720692747E+01  0.63770455073E+01  0.17175119600E+02  0.18767876575E+02  0.51100000000E-03 0.  1.
         12    1    3    3    0    0  0.21814859920E+01  0.20128012001E+01  0.45636136934E+01  0.54439709539E+01  0.00000000000E+00 0. -1.
</event>
<event>
 7    1  0.2430096E-009  0.4778727E+02  0.7816164E-02  0.1312668E+00
        -11   -1    0    0    0    0  0.00000000000E+00  0.00000000000E+00  0.45593999997E+02  0.45594000000E+02  0.51100000000E-03 0. -1.
         11   -1    0    0    0    0 -0.00000000000E+00 -0.00000000000E+00 -0.45593999997E+02  0.45594000000E+02  0.51100000000E-03 0.  1.
    9900012    2    1    2    0    0 -0.39867964797E+02 -0.13443385334E+02  0.10651000692E+02  0.47787273715E+02  0.20000012177E+02 0.  0.
        -12    1    1    2    0    0  0.39867964797E+02  0.13443385334E+02 -0.10651000692E+02  0.43400726285E+02  0.00000000000E+00 0.  1.
         11    1    3    3    0    0 -0.92180547452E+01 -0.86865731379E+01  0.12450086329E+01  0.12727102299E+02  0.51100000000E-03 0. -1.
        -11    1    3    3    0    0 -0.22677148397E+02  0.64774316232E+00  0.17456375167E+01  0.22753458665E+02  0.51100000000E-03 0.  1.
        -12    1    3    3    0    0 -0.79727616551E+01 -0.54045553584E+01  0.76603545425E+01  0.12306712751E+02  0.00000000000E+00 0.  1.
</event>
<event>
 7    1  0.2430096E-009  0.4778727E+02  0.7816164E-02  0.1312668E+00
        -11   -1    0    0    0    0  0.00000000000E+00  0.00000000000E+00  0.45593999997E+02  0.45594000000E+02  0.51100000000E-03 0. -1.
         11   -1    0    0    0    0 -0.00000000000E+00 -0.00000000000E+00 -0.45593999997E+02  0.45594000000E+02  0.51100000000E-03 0.  1.
    9900012    2    1    2    0    0 -0.14908203415E+02  0.25976273519E+02  0.31410218025E+02  0.47787272917E+02  0.20000008537E+02 0.  0.
        -12    1    1    2    0    0  0.14908203415E+02 -0.25976273519E+02 -0.31410218025E+02  0.43400727083E+02  0.00000000000E+00 0.  1.
         11    1    3    3    0    0 -0.69393522195E+01  0.59684678245E+01  0.11916909062E+01  0.92302407810E+01  0.51100000000E-03 0. -1.
        -11    1    3    3    0    0  0.22479817347E+01  0.70881244065E+01  0.10453028620E+02  0.12828122897E+02  0.51100000000E-03 0.  1.
         12    1    3    3    0    0 -0.10216832930E+02  0.12919681288E+02  0.19765498499E+02  0.25728909239E+02  0.00000000000E+00 0. -1.
</event>
<event>
 7    1  0.2430096E-009  0.4778727E+02  0.7816164E-02  0.1312668E+00
        -11   -1    0    0    0    0  0.00000000000E+00  0.00000000000E+00  0.45593999997E+02  0.45594000000E+02  0.51100000000E-03 0.  1.
         11   -1    0    0    0    0 -0.00000000000E+00 -0.00000000000E+00 -0.45593999997E+02  0.45594000000E+02  0.51100000000E-03 0. -1.
    9900012    2    1    2    0    0 -0.56720211767E+01  0.26995534167E+02 -0.33506600425E+02  0.47787274646E+02  0.20000016423E+02 0.  0.
        -12    1    1    2    0    0  0.56720211767E+01 -0.26995534167E+02  0.33506600425E+02  0.43400725354E+02  0.00000000000E+00 0.  1.
         11    1    3    3    0    0  0.17486083497E+01  0.18041471255E+02 -0.24516276176E+02  0.30489344269E+02  0.51100000000E-03 0. -1.
        -11    1    3    3    0    0 -0.18738732906E+01  0.69119328027E+00 -0.68275260810E+01  0.71136672615E+01  0.51100000000E-03 0.  1.
         12    1    3    3    0    0 -0.55467562357E+01  0.82628696317E+01 -0.21627981686E+01  0.10184263116E+02  0.00000000000E+00 0. -1.
</event>
<event>
 7    1  0.2430096E-009  0.4778727E+02  0.7816164E-02  0.1312668E+00
        -11   -1    0    0    0    0  0.00000000000E+00  0.00000000000E+00  0.45593999997E+02  0.45594000000E+02  0.51100000000E-03 0.  1.
         11   -1    0    0    0    0 -0.00000000000E+00 -0.00000000000E+00 -0.45593999997E+02  0.45594000000E+02  0.51100000000E-03 0. -1.
    9900012    2    1    2    0    0 -0.42564226881E+02  0.49763546319E+01 -0.68662981052E+01  0.47787267690E+02  0.19999984707E+02 0.  0.
        -12    1    1    2    0    0  0.42564226881E+02 -0.49763546319E+01  0.68662981052E+01  0.43400732310E+02  0.00000000000E+00 0.  1.
         11    1    3    3    0    0 -0.29707191604E+02  0.61407334069E+01  0.17550694218E+01  0.30385952490E+02  0.51100000000E-03 0. -1.
        -11    1    3    3    0    0 -0.54825403595E+01 -0.43974008560E+01 -0.34269564226E+01  0.78191696277E+01  0.51100000000E-03 0.  1.
         12    1    3    3    0    0 -0.73744949171E+01  0.32330220811E+01 -0.51944111044E+01  0.95821455729E+01  0.00000000000E+00 0. -1.
</event>
<event>
 7    1  0.2430096E-009  0.4778727E+02  0.7816164E-02  0.1312668E+00
        -11   -1    0    0    0    0  0.00000000000E+00  0.00000000000E+00  0.45593999997E+02  0.45594000000E+02  0.51100000000E-03 0. -1.
         11   -1    0    0    0    0 -0.00000000000E+00 -0.00000000000E+00 -0.45593999997E+02  0.45594000000E+02  0.51100000000E-03 0.  1.
    9900012    2    1    2    0    0  0.28190827188E+02  0.19421224079E+02  0.26678017677E+02  0.47787270635E+02  0.19999998133E+02 0.  0.
        -12    1    1    2    0    0 -0.28190827188E+02 -0.19421224079E+02 -0.26678017677E+02  0.43400729365E+02  0.00000000000E+00 0.  1.
         11    1    3    3    0    0  0.16091036212E+02  0.10095977459E+02  0.28673310619E+01  0.19211241368E+02  0.51100000000E-03 0. -1.
        -11    1    3    3    0    0  0.20127369722E+01  0.36971450389E+01  0.54925601757E+01  0.69201307143E+01  0.51100000000E-03 0.  1.
         12    1    3    3    0    0  0.10087054004E+02  0.56281015809E+01  0.18318126439E+02  0.21655898553E+02  0.00000000000E+00 0. -1.
</event>
<event>
 7    1  0.2430096E-009  0.4778726E+02  0.7816164E-02  0.1312668E+00
        -11   -1    0    0    0    0  0.00000000000E+00  0.00000000000E+00  0.45593999997E+02  0.45594000000E+02  0.51100000000E-03 0.  1.
         11   -1    0    0    0    0 -0.00000000000E+00 -0.00000000000E+00 -0.45593999997E+02  0.45594000000E+02  0.51100000000E-03 0. -1.
    9900012    2    1    2    0    0  0.95853882980E+01  0.48137194828E+00 -0.42326267933E+02  0.47787258706E+02  0.19999943743E+02 0.  0.
        -12    1    1    2    0    0 -0.95853882980E+01 -0.48137194828E+00  0.42326267933E+02  0.43400741294E+02  0.00000000000E+00 0.  1.
         11    1    3    3    0    0  0.10719301784E+02 -0.25888664114E+01 -0.25323478382E+02  0.27620358753E+02  0.51100000000E-03 0. -1.
        -11    1    3    3    0    0 -0.51166780651E+01  0.32281003786E+01 -0.62470417355E+01  0.86963530967E+01  0.51100000000E-03 0.  1.
        -12    1    3    3    0    0  0.39827645786E+01 -0.15786201891E+00 -0.10755747816E+02  0.11470546856E+02  0.00000000000E+00 0.  1.
</event>
<event>
 7    1  0.2430096E-009  0.4778727E+02  0.7816164E-02  0.1312668E+00
        -11   -1    0    0    0    0  0.00000000000E+00  0.00000000000E+00  0.45593999997E+02  0.45594000000E+02  0.51100000000E-03 0.  1.
         11   -1    0    0    0    0 -0.00000000000E+00 -0.00000000000E+00 -0.45593999997E+02  0.45594000000E+02  0.51100000000E-03 0. -1.
    9900012    2    1    2    0    0 -0.39627182663E+02 -0.15396871045E+02 -0.87318986555E+01  0.47787270767E+02  0.19999998736E+02 0.  0.
        -12    1    1    2    0    0  0.39627182663E+02  0.15396871045E+02  0.87318986555E+01  0.43400729233E+02  0.00000000000E+00 0.  1.
         11    1    3    3    0    0 -0.15640397973E+02 -0.15944010150E+02 -0.38517915005E+01  0.22664284821E+02  0.51100000000E-03 0. -1.
        -11    1    3    3    0    0 -0.15700888733E+02  0.24617372134E+01 -0.14700471259E+01  0.15960548109E+02  0.51100000000E-03 0.  1.
         12    1    3    3    0    0 -0.82858959574E+01 -0.19145981085E+01 -0.34100600291E+01  0.91624378380E+01  0.00000000000E+00 0. -1.
</event>
<event>
 7    1  0.2430096E-009  0.4778727E+02  0.7816164E-02  0.1312668E+00
        -11   -1    0    0    0    0  0.00000000000E+00  0.00000000000E+00  0.45593999997E+02  0.45594000000E+02  0.51100000000E-03 0.  1.
         11   -1    0    0    0    0 -0.00000000000E+00 -0.00000000000E+00 -0.45593999997E+02  0.45594000000E+02  0.51100000000E-03 0. -1.
    9900012    2    1    2    0    0  0.42325108724E+02 -0.87374024906E+01  0.39832383841E+01  0.47787271678E+02  0.20000002891E+02 0.  0.
        -12    1    1    2    0    0 -0.42325108724E+02  0.87374024906E+01 -0.39832383841E+01  0.43400728322E+02  0.00000000000E+00 0.  1.
         11    1    3    3    0    0  0.20556068830E+02 -0.85594319443E+01 -0.62739881742E+01  0.23133931115E+02  0.51100000000E-03 0. -1.
        -11    1    3    3    0    0  0.15551188314E+02  0.22990209502E+01  0.69564113725E+01  0.17190596696E+02  0.51100000000E-03 0.  1.
        -12    1    3    3    0    0  0.62178515804E+01 -0.24769914964E+01  0.33008151859E+01  0.74627438681E+01  0.00000000000E+00 0.  1.
</event>
<event>
 7    1  0.2430096E-009  0.4778727E+02  0.7816164E-02  0.1312668E+00
        -11   -1    0    0    0    0  0.00000000000E+00  0.00000000000E+00  0.45593999997E+02  0.45594000000E+02  0.51100000000E-03 0. -1.
         11   -1    0    0    0    0 -0.00000000000E+00 -0.00000000000E+00 -0.45593999997E+02  0.45594000000E+02  0.51100000000E-03 0.  1.
    9900012    2    1    2    0    0  0.15484615514E+02  0.24338340951E+02  0.32426765883E+02  0.47787270703E+02  0.19999998443E+02 0.  0.
        -12    1    1    2    0    0 -0.15484615514E+02 -0.24338340951E+02 -0.32426765883E+02  0.43400729297E+02  0.00000000000E+00 0.  1.
         11    1    3    3    0    0  0.14960807046E+02  0.14109962630E+02  0.15119095203E+02  0.25524573119E+02  0.51100000000E-03 0. -1.
        -11    1    3    3    0    0 -0.21368595664E+01  0.10543929489E+02  0.10888786305E+02  0.15307066516E+02  0.51100000000E-03 0.  1.
         12    1    3    3    0    0  0.26606680348E+01 -0.31555116792E+00  0.64188843750E+01  0.69556310678E+01  0.00000000000E+00 0. -1.
</event>
<event>
 7    1  0.2430096E-009  0.4778727E+02  0.7816164E-02  0.1312668E+00
        -11   -1    0    0    0    0  0.00000000000E+00  0.00000000000E+00  0.45593999997E+02  0.45594000000E+02  0.51100000000E-03 0.  1.
         11   -1    0    0    0    0 -0.00000000000E+00 -0.00000000000E+00 -0.45593999997E+02  0.45594000000E+02  0.51100000000E-03 0. -1.
    9900012    2    1    2    0    0 -0.22672042100E+02 -0.32835915599E+02 -0.17070572313E+02  0.47787270912E+02  0.19999999398E+02 0.  0.
        -12    1    1    2    0    0  0.22672042100E+02  0.32835915599E+02  0.17070572313E+02  0.43400729088E+02  0.00000000000E+00 0.  1.
         11    1    3    3    0    0 -0.78410094871E+01 -0.85876678234E+01 -0.10401988317E+02  0.15602270016E+02  0.51100000000E-03 0. -1.
        -11    1    3    3    0    0 -0.27029343195E+01 -0.98632223375E+01  0.34854907375E+01  0.10804520108E+02  0.51100000000E-03 0.  1.
        -12    1    3    3    0    0 -0.12128098293E+02 -0.14385025438E+02 -0.10154074734E+02  0.21380480789E+02  0.00000000000E+00 0.  1.
</event>
<event>
 7    1  0.2430096E-009  0.4778727E+02  0.7816164E-02  0.1312668E+00
        -11   -1    0    0    0    0  0.00000000000E+00  0.00000000000E+00  0.45593999997E+02  0.45594000000E+02  0.51100000000E-03 0.  1.
         11   -1    0    0    0    0 -0.00000000000E+00 -0.00000000000E+00 -0.45593999997E+02  0.45594000000E+02  0.51100000000E-03 0. -1.
    9900012    2    1    2    0    0 -0.13822715750E+02 -0.29404143713E+02 -0.28774155815E+02  0.47787272113E+02  0.20000004873E+02 0.  0.
        -12    1    1    2    0    0  0.13822715750E+02  0.29404143713E+02  0.28774155815E+02  0.43400727887E+02  0.00000000000E+00 0.  1.
         11    1    3    3    0    0 -0.80224319895E+01 -0.11595996512E+02 -0.17472838809E+02  0.22452764784E+02  0.51100000000E-03 0. -1.
        -11    1    3    3    0    0 -0.49360748472E+01 -0.15376218000E+02 -0.27238852970E+01  0.16377193479E+02  0.51100000000E-03 0.  1.
         12    1    3    3    0    0 -0.86420891338E+00 -0.24319292016E+01 -0.85774317087E+01  0.89573138499E+01  0.00000000000E+00 0. -1.
</event>
<event>
 7    1  0.2430096E-009  0.4778727E+02  0.7816164E-02  0.1312668E+00
        -11   -1    0    0    0    0  0.00000000000E+00  0.00000000000E+00  0.45593999997E+02  0.45594000000E+02  0.51100000000E-03 0. -1.
         11   -1    0    0    0    0 -0.00000000000E+00 -0.00000000000E+00 -0.45593999997E+02  0.45594000000E+02  0.51100000000E-03 0.  1.
    9900012    2    1    2    0    0 -0.53001750802E+01  0.16995186129E+02  0.39581497226E+02  0.47787272701E+02  0.20000007551E+02 0.  0.
        -12    1    1    2    0    0  0.53001750802E+01 -0.16995186129E+02 -0.39581497226E+02  0.43400727299E+02  0.00000000000E+00 0.  1.
         11    1    3    3    0    0 -0.27981343017E+01  0.83983526216E+01  0.28567589001E+02  0.29907675000E+02  0.51100000000E-03 0. -1.
        -11    1    3    3    0    0  0.31176167507E+01  0.67805760643E+01  0.32885752737E+01  0.81553953650E+01  0.51100000000E-03 0.  1.
         12    1    3    3    0    0 -0.56196575292E+01  0.18162574427E+01  0.77253329518E+01  0.97242023354E+01  0.00000000000E+00 0. -1.
</event>
<event>
 7    1  0.2430096E-009  0.4778727E+02  0.7816164E-02  0.1312668E+00
        -11   -1    0    0    0    0  0.00000000000E+00  0.00000000000E+00  0.45593999997E+02  0.45594000000E+02  0.51100000000E-03 0. -1.
         11   -1    0    0    0    0 -0.00000000000E+00 -0.00000000000E+00 -0.45593999997E+02  0.45594000000E+02  0.51100000000E-03 0.  1.
    9900012    2    1    2    0    0 -0.38111647794E+02  0.29102932368E+01  0.20558594145E+02  0.47787270772E+02  0.19999998757E+02 0.  0.
        -12    1    1    2    0    0  0.38111647794E+02 -0.29102932368E+01 -0.20558594145E+02  0.43400729228E+02  0.00000000000E+00 0.  1.
         11    1    3    3    0    0 -0.37127714314E+00  0.47014031275E+01  0.16959255207E+01  0.50117064676E+01  0.51100000000E-03 0. -1.
        -11    1    3    3    0    0 -0.19674863039E+02 -0.41199719330E+01  0.11232382054E+02  0.23026958358E+02  0.51100000000E-03 0.  1.
         12    1    3    3    0    0 -0.18065507612E+02  0.23288620422E+01  0.76302865700E+01  0.19748605946E+02  0.00000000000E+00 0. -1.
</event>
<event>
 7    1  0.2430096E-009  0.4778727E+02  0.7816164E-02  0.1312668E+00
        -11   -1    0    0    0    0  0.00000000000E+00  0.00000000000E+00  0.45593999997E+02  0.45594000000E+02  0.51100000000E-03 0.  1.
         11   -1    0    0    0    0 -0.00000000000E+00 -0.00000000000E+00 -0.45593999997E+02  0.45594000000E+02  0.51100000000E-03 0. -1.
    9900012    2    1    2    0    0  0.10208442456E+02  0.38872381175E+02 -0.16381353335E+02  0.47787273592E+02  0.20000011617E+02 0.  0.
        -12    1    1    2    0    0 -0.10208442456E+02 -0.38872381175E+02  0.16381353335E+02  0.43400726408E+02  0.00000000000E+00 0.  1.
         11    1    3    3    0    0  0.96720445448E+01  0.64455756144E+01 -0.25515816184E+01  0.11899767212E+02  0.51100000000E-03 0. -1.
        -11    1    3    3    0    0 -0.74916095982E+00  0.24163510288E+02 -0.72265256128E+01  0.25232105427E+02  0.51100000000E-03 0.  1.
         12    1    3    3    0    0  0.12855588710E+01  0.82632952727E+01 -0.66032461034E+01  0.10655400953E+02  0.00000000000E+00 0. -1.
</event>
<event>
 7    1  0.2430096E-009  0.4778727E+02  0.7816164E-02  0.1312668E+00
        -11   -1    0    0    0    0  0.00000000000E+00  0.00000000000E+00  0.45593999997E+02  0.45594000000E+02  0.51100000000E-03 0. -1.
         11   -1    0    0    0    0 -0.00000000000E+00 -0.00000000000E+00 -0.45593999997E+02  0.45594000000E+02  0.51100000000E-03 0.  1.
    9900012    2    1    2    0    0 -0.25438834141E+02  0.22874390182E+02  0.26706772009E+02  0.47787266368E+02  0.19999978678E+02 0.  0.
        -12    1    1    2    0    0  0.25438834141E+02 -0.22874390182E+02 -0.26706772009E+02  0.43400733632E+02  0.00000000000E+00 0.  1.
         11    1    3    3    0    0 -0.65236904251E+01 -0.93185274258E+00  0.56551836199E+01  0.86837773078E+01  0.51100000000E-03 0. -1.
        -11    1    3    3    0    0 -0.13125817365E+02  0.16820961349E+02  0.71480148053E+01  0.22501687450E+02  0.51100000000E-03 0.  1.
        -12    1    3    3    0    0 -0.57893263512E+01  0.69852815755E+01  0.13903573584E+02  0.16601801610E+02  0.00000000000E+00 0.  1.
</event>
<event>
 7    1  0.2430096E-009  0.4778727E+02  0.7816164E-02  0.1312668E+00
        -11   -1    0    0    0    0  0.00000000000E+00  0.00000000000E+00  0.45593999997E+02  0.45594000000E+02  0.51100000000E-03 0. -1.
         11   -1    0    0    0    0 -0.00000000000E+00 -0.00000000000E+00 -0.45593999997E+02  0.45594000000E+02  0.51100000000E-03 0.  1.
    9900012    2    1    2    0    0  0.86567927785E+00 -0.11322710098E+02  0.41888781704E+02  0.47787271928E+02  0.20000004028E+02 0.  0.
        -12    1    1    2    0    0 -0.86567927785E+00  0.11322710098E+02 -0.41888781704E+02  0.43400728072E+02  0.00000000000E+00 0.  1.
         11    1    3    3    0    0 -0.22204612587E+01 -0.13226676151E+02  0.34175740724E+02  0.36713167454E+02  0.51100000000E-03 0. -1.
        -11    1    3    3    0    0 -0.16409237938E+01 -0.13862174390E+01  0.16249440795E+01  0.26934500567E+01  0.51100000000E-03 0.  1.
         12    1    3    3    0    0  0.47270643303E+01  0.32901834927E+01  0.60880969005E+01  0.83806544177E+01  0.00000000000E+00 0. -1.
</event>
<event>
 7    1  0.2430096E-009  0.4778727E+02  0.7816164E-02  0.1312668E+00
        -11   -1    0    0    0    0  0.00000000000E+00  0.00000000000E+00  0.45593999997E+02  0.45594000000E+02  0.51100000000E-03 0. -1.
         11   -1    0    0    0    0 -0.00000000000E+00 -0.00000000000E+00 -0.45593999997E+02  0.45594000000E+02  0.51100000000E-03 0.  1.
    9900012    2    1    2    0    0  0.25455145957E+02  0.29737442703E+02  0.18744153188E+02  0.47787271516E+02  0.20000002149E+02 0.  0.
        -12    1    1    2    0    0 -0.25455145957E+02 -0.29737442703E+02 -0.18744153188E+02  0.43400728484E+02  0.00000000000E+00 0.  1.
         11    1    3    3    0    0 -0.13559995676E+01  0.84853465600E+01  0.66014293594E+01  0.10835991460E+02  0.51100000000E-03 0. -1.
        -11    1    3    3    0    0  0.17863340971E+02  0.16323933292E+02  0.56566570534E+01  0.24850905779E+02  0.51100000000E-03 0.  1.
         12    1    3    3    0    0  0.89478045535E+01  0.49281628515E+01  0.64860667751E+01  0.12100374276E+02  0.00000000000E+00 0. -1.
</event>
<event>
 7    1  0.2430096E-009  0.4778727E+02  0.7816164E-02  0.1312668E+00
        -11   -1    0    0    0    0  0.00000000000E+00  0.00000000000E+00  0.45593999997E+02  0.45594000000E+02  0.51100000000E-03 0. -1.
         11   -1    0    0    0    0 -0.00000000000E+00 -0.00000000000E+00 -0.45593999997E+02  0.45594000000E+02  0.51100000000E-03 0.  1.
    9900012    2    1    2    0    0  0.42443516682E+02 -0.75212168163E+01 -0.50599242402E+01  0.47787266780E+02  0.19999980555E+02 0.  0.
        -12    1    1    2    0    0 -0.42443516682E+02  0.75212168163E+01  0.50599242402E+01  0.43400733220E+02  0.00000000000E+00 0.  1.
         11    1    3    3    0    0  0.13610995459E+02 -0.22366505230E+01  0.61036637888E+00  0.13807039883E+02  0.51100000000E-03 0. -1.
        -11    1    3    3    0    0  0.17411123538E+02 -0.76090151267E+01 -0.10091044927E+02  0.21514495626E+02  0.51100000000E-03 0.  1.
        -12    1    3    3    0    0  0.11421397685E+02  0.23244488335E+01  0.44207543084E+01  0.12465731270E+02  0.00000000000E+00 0.  1.
</event>
<event>
 7    1  0.2430096E-009  0.4778727E+02  0.7816164E-02  0.1312668E+00
        -11   -1    0    0    0    0  0.00000000000E+00  0.00000000000E+00  0.45593999997E+02  0.45594000000E+02  0.51100000000E-03 0. -1.
         11   -1    0    0    0    0 -0.00000000000E+00 -0.00000000000E+00 -0.45593999997E+02  0.45594000000E+02  0.51100000000E-03 0.  1.
    9900012    2    1    2    0    0  0.26690200767E+02  0.13618471342E+02  0.31397358545E+02  0.47787266110E+02  0.19999977500E+02 0.  0.
        -12    1    1    2    0    0 -0.26690200767E+02 -0.13618471342E+02 -0.31397358545E+02  0.43400733890E+02  0.00000000000E+00 0.  1.
         11    1    3    3    0    0  0.86513397168E+01  0.17612692225E+01  0.11346805393E+02  0.14376986508E+02  0.51100000000E-03 0. -1.
        -11    1    3    3    0    0  0.19500904261E+02  0.13985004140E+02  0.19058263275E+02  0.30644461280E+02  0.51100000000E-03 0.  1.
        -12    1    3    3    0    0 -0.14620432114E+01 -0.21278020204E+01  0.99228987620E+00  0.27658183217E+01  0.00000000000E+00 0.  1.
</event>
<event>
 7    1  0.2430096E-009  0.4778727E+02  0.7816164E-02  0.1312668E+00
        -11   -1    0    0    0    0  0.00000000000E+00  0.00000000000E+00  0.45593999997E+02  0.45594000000E+02  0.51100000000E-03 0. -1.
         11   -1    0    0    0    0 -0.00000000000E+00 -0.00000000000E+00 -0.45593999997E+02  0.45594000000E+02  0.51100000000E-03 0.  1.
    9900012    2    1    2    0    0 -0.20865037474E+02 -0.19085621306E+02  0.32924351953E+02  0.47787266355E+02  0.19999978618E+02 0.  0.
        -12    1    1    2    0    0  0.20865037474E+02  0.19085621306E+02 -0.32924351953E+02  0.43400733645E+02  0.00000000000E+00 0.  1.
         11    1    3    3    0    0 -0.66069250411E+01 -0.98812492864E+01  0.25439006809E+01  0.12155738435E+02  0.51100000000E-03 0. -1.
        -11    1    3    3    0    0 -0.15245339306E+01 -0.11821138526E+01  0.24190592900E+00  0.19442519399E+01  0.51100000000E-03 0.  1.
         12    1    3    3    0    0 -0.12733578502E+02 -0.80222581668E+01  0.30138545343E+02  0.33687275980E+02  0.00000000000E+00 0. -1.
</event>
<event>
 7    1  0.2430096E-009  0.4778727E+02  0.7816164E-02  0.1312668E+00
        -11   -1    0    0    0    0  0.00000000000E+00  0.00000000000E+00  0.45593999997E+02  0.45594000000E+02  0.51100000000E-03 0.  1.
         11   -1    0    0    0    0 -0.00000000000E+00 -0.00000000000E+00 -0.45593999997E+02  0.45594000000E+02  0.51100000000E-03 0. -1.
    9900012    2    1    2    0    0  0.53383513578E+01  0.26163466080E+02  0.34214008007E+02  0.47787270785E+02  0.19999998816E+02 0.  0.
        -12    1    1    2    0    0 -0.53383513578E+01 -0.26163466080E+02 -0.34214008007E+02  0.43400729215E+02  0.00000000000E+00 0.  1.
         11    1    3    3    0    0  0.93196360637E+01  0.85642362149E+01  0.59716513836E+01  0.13995084094E+02  0.51100000000E-03 0. -1.
        -11    1    3    3    0    0 -0.13426394655E+01  0.12679858503E+02  0.21913498880E+02  0.25353164020E+02  0.51100000000E-03 0.  1.
         12    1    3    3    0    0 -0.26386452404E+01  0.49193713613E+01  0.63288577433E+01  0.84390226703E+01  0.00000000000E+00 0. -1.
</event>
<event>
 7    1  0.2430096E-009  0.4778727E+02  0.7816164E-02  0.1312668E+00
        -11   -1    0    0    0    0  0.00000000000E+00  0.00000000000E+00  0.45593999997E+02  0.45594000000E+02  0.51100000000E-03 0.  1.
         11   -1    0    0    0    0 -0.00000000000E+00 -0.00000000000E+00 -0.45593999997E+02  0.45594000000E+02  0.51100000000E-03 0. -1.
    9900012    2    1    2    0    0  0.27323381500E+02  0.15936083515E+02 -0.29716951262E+02  0.47787272740E+02  0.20000007730E+02 0.  0.
        -12    1    1    2    0    0 -0.27323381500E+02 -0.15936083515E+02  0.29716951262E+02  0.43400727260E+02  0.00000000000E+00 0.  1.
         11    1    3    3    0    0  0.19606975585E+02  0.45272515594E+01 -0.16028444908E+02  0.25726261771E+02  0.51100000000E-03 0. -1.
        -11    1    3    3    0    0 -0.18304115438E+01  0.60619888425E+01 -0.56084065255E+01  0.84588615760E+01  0.51100000000E-03 0.  1.
        -12    1    3    3    0    0  0.95468174583E+01  0.53468431128E+01 -0.80800998290E+01  0.13602149393E+02  0.00000000000E+00 0.  1.
</event>
<event>
 7    1  0.2430096E-009  0.4778727E+02  0.7816164E-02  0.1312668E+00
        -11   -1    0    0    0    0  0.00000000000E+00  0.00000000000E+00  0.45593999997E+02  0.45594000000E+02  0.51100000000E-03 0.  1.
         11   -1    0    0    0    0 -0.00000000000E+00 -0.00000000000E+00 -0.45593999997E+02  0.45594000000E+02  0.51100000000E-03 0. -1.
    9900012    2    1    2    0    0 -0.42136180011E+01  0.33378471406E+02 -0.27417987343E+02  0.47787274660E+02  0.20000016487E+02 0.  0.
        -12    1    1    2    0    0  0.42136180011E+01 -0.33378471406E+02  0.27417987343E+02  0.43400725340E+02  0.00000000000E+00 0.  1.
         11    1    3    3    0    0 -0.35399112179E+01  0.94491137474E+01 -0.87939098068E+01  0.13384676761E+02  0.51100000000E-03 0. -1.
        -11    1    3    3    0    0 -0.25991906522E+01  0.22202569078E+02 -0.84386860657E+01  0.23893959246E+02  0.51100000000E-03 0.  1.
        -12    1    3    3    0    0  0.19254838689E+01  0.17267885809E+01 -0.10185391471E+02  0.10508638653E+02  0.00000000000E+00 0.  1.
</event>
<event>
 7    1  0.2430096E-009  0.4778727E+02  0.7816164E-02  0.1312668E+00
        -11   -1    0    0    0    0  0.00000000000E+00  0.00000000000E+00  0.45593999997E+02  0.45594000000E+02  0.51100000000E-03 0. -1.
         11   -1    0    0    0    0 -0.00000000000E+00 -0.00000000000E+00 -0.45593999997E+02  0.45594000000E+02  0.51100000000E-03 0.  1.
    9900012    2    1    2    0    0 -0.23924698342E+02  0.20522142352E+02  0.29834105214E+02  0.47787270152E+02  0.19999995929E+02 0.  0.
        -12    1    1    2    0    0  0.23924698342E+02 -0.20522142352E+02 -0.29834105214E+02  0.43400729848E+02  0.00000000000E+00 0.  1.
         11    1    3    3    0    0 -0.19900195235E+02  0.21808273469E+02  0.24563154207E+02  0.38405300506E+02  0.51100000000E-03 0. -1.
        -11    1    3    3    0    0 -0.48594103390E+01 -0.30246728554E+01  0.32231894266E+01  0.65689774749E+01  0.51100000000E-03 0.  1.
         12    1    3    3    0    0  0.83490723236E+00  0.17385417379E+01  0.20477615802E+01  0.28129921703E+01  0.00000000000E+00 0. -1.
</event>
<event>
 7    1  0.2430096E-009  0.4778727E+02  0.7816164E-02  0.1312668E+00
        -11   -1    0    0    0    0  0.00000000000E+00  0.00000000000E+00  0.45593999997E+02  0.45594000000E+02  0.51100000000E-03 0. -1.
         11   -1    0    0    0    0 -0.00000000000E+00 -0.00000000000E+00 -0.45593999997E+02  0.45594000000E+02  0.51100000000E-03 0.  1.
    9900012    2    1    2    0    0 -0.58808958554E+00 -0.35331266312E+02 -0.25198799081E+02  0.47787266093E+02  0.19999977424E+02 0.  0.
        -12    1    1    2    0    0  0.58808958554E+00  0.35331266312E+02  0.25198799081E+02  0.43400733907E+02  0.00000000000E+00 0.  1.
         11    1    3    3    0    0 -0.15508231640E+01  0.18225402407E+01 -0.14757246977E+01  0.28114887621E+01  0.51100000000E-03 0. -1.
        -11    1    3    3    0    0  0.12636728034E+00  0.32510726257E+00  0.29216018238E+00  0.45499588461E+00  0.51100000000E-03 0.  1.
         12    1    3    3    0    0  0.83636629812E+00 -0.37478913815E+02 -0.24015234566E+02  0.44520781446E+02  0.00000000000E+00 0. -1.
</event>
<event>
 7    1  0.2430096E-009  0.4778728E+02  0.7816164E-02  0.1312668E+00
        -11   -1    0    0    0    0  0.00000000000E+00  0.00000000000E+00  0.45593999997E+02  0.45594000000E+02  0.51100000000E-03 0.  1.
         11   -1    0    0    0    0 -0.00000000000E+00 -0.00000000000E+00 -0.45593999997E+02  0.45594000000E+02  0.51100000000E-03 0. -1.
    9900012    2    1    2    0    0 -0.17299635158E+02 -0.28862932479E+01 -0.39699051910E+02  0.47787276644E+02  0.20000025529E+02 0.  0.
        -12    1    1    2    0    0  0.17299635158E+02  0.28862932479E+01  0.39699051910E+02  0.43400723356E+02  0.00000000000E+00 0.  1.
         11    1    3    3    0    0 -0.16084935817E+02 -0.53190942193E+01 -0.26612686581E+02  0.31547630829E+02  0.51100000000E-03 0. -1.
        -11    1    3    3    0    0  0.22604585857E+01  0.45011989441E+01 -0.45241551211E+01  0.67704094982E+01  0.51100000000E-03 0.  1.
        -12    1    3    3    0    0 -0.34751579262E+01 -0.20683979728E+01 -0.85622102074E+01  0.94692363167E+01  0.00000000000E+00 0.  1.
</event>
<event>
 7    1  0.2430096E-009  0.4778728E+02  0.7816164E-02  0.1312668E+00
        -11   -1    0    0    0    0  0.00000000000E+00  0.00000000000E+00  0.45593999997E+02  0.45594000000E+02  0.51100000000E-03 0. -1.
         11   -1    0    0    0    0 -0.00000000000E+00 -0.00000000000E+00 -0.45593999997E+02  0.45594000000E+02  0.51100000000E-03 0.  1.
    9900012    2    1    2    0    0 -0.24675986114E+02 -0.28540714004E+02  0.21451013317E+02  0.47787278590E+02  0.20000034403E+02 0.  0.
        -12    1    1    2    0    0  0.24675986114E+02  0.28540714004E+02 -0.21451013317E+02  0.43400721410E+02  0.00000000000E+00 0.  1.
         11    1    3    3    0    0 -0.68826113592E+00 -0.76241201430E+01  0.75665107689E+01  0.10763503000E+02  0.51100000000E-03 0. -1.
        -11    1    3    3    0    0 -0.10569433883E+02 -0.10386063454E+02  0.13370808700E+02  0.19959002285E+02  0.51100000000E-03 0.  1.
         12    1    3    3    0    0 -0.13418291095E+02 -0.10530530407E+02  0.51369384815E+00  0.17064773305E+02  0.00000000000E+00 0. -1.
</event>
<event>
 7    1  0.2430096E-009  0.4778727E+02  0.7816164E-02  0.1312668E+00
        -11   -1    0    0    0    0  0.00000000000E+00  0.00000000000E+00  0.45593999997E+02  0.45594000000E+02  0.51100000000E-03 0.  1.
         11   -1    0    0    0    0 -0.00000000000E+00 -0.00000000000E+00 -0.45593999997E+02  0.45594000000E+02  0.51100000000E-03 0. -1.
    9900012    2    1    2    0    0 -0.42401369787E+02  0.63538227461E+00 -0.92381474073E+01  0.47787271458E+02  0.20000001884E+02 0.  0.
        -12    1    1    2    0    0  0.42401369787E+02 -0.63538227461E+00  0.92381474073E+01  0.43400728542E+02  0.00000000000E+00 0.  1.
         11    1    3    3    0    0 -0.73685746921E+01 -0.15412753887E+01 -0.40073248671E+00  0.75387007902E+01  0.51100000000E-03 0. -1.
        -11    1    3    3    0    0 -0.14414504637E+02 -0.69587827707E+01 -0.74479474005E+01  0.17654306056E+02  0.51100000000E-03 0.  1.
        -12    1    3    3    0    0 -0.20618290459E+02  0.91354404339E+01 -0.13894675201E+01  0.22594264612E+02  0.00000000000E+00 0.  1.
</event>
<event>
 7    1  0.2430096E-009  0.4778727E+02  0.7816164E-02  0.1312668E+00
        -11   -1    0    0    0    0  0.00000000000E+00  0.00000000000E+00  0.45593999997E+02  0.45594000000E+02  0.51100000000E-03 0.  1.
         11   -1    0    0    0    0 -0.00000000000E+00 -0.00000000000E+00 -0.45593999997E+02  0.45594000000E+02  0.51100000000E-03 0. -1.
    9900012    2    1    2    0    0 -0.27022972457E+02 -0.28154168337E+02 -0.18992763117E+02  0.47787270905E+02  0.19999999363E+02 0.  0.
        -12    1    1    2    0    0  0.27022972457E+02  0.28154168337E+02  0.18992763117E+02  0.43400729095E+02  0.00000000000E+00 0.  1.
         11    1    3    3    0    0 -0.10302937551E+02 -0.10862133784E+02  0.17921884288E+01  0.15078077204E+02  0.51100000000E-03 0. -1.
        -11    1    3    3    0    0 -0.64668297883E+01 -0.64199167333E+01 -0.12952590942E+02  0.15836818833E+02  0.51100000000E-03 0.  1.
         12    1    3    3    0    0 -0.10253205117E+02 -0.10872117819E+02 -0.78323606039E+01  0.16872374868E+02  0.00000000000E+00 0. -1.
</event>
<event>
 7    1  0.2430096E-009  0.4778727E+02  0.7816164E-02  0.1312668E+00
        -11   -1    0    0    0    0  0.00000000000E+00  0.00000000000E+00  0.45593999997E+02  0.45594000000E+02  0.51100000000E-03 0.  1.
         11   -1    0    0    0    0 -0.00000000000E+00 -0.00000000000E+00 -0.45593999997E+02  0.45594000000E+02  0.51100000000E-03 0. -1.
    9900012    2    1    2    0    0 -0.62385305113E+01  0.19752678222E+02 -0.38138378074E+02  0.47787269108E+02  0.19999991170E+02 0.  0.
        -12    1    1    2    0    0  0.62385305113E+01 -0.19752678222E+02  0.38138378074E+02  0.43400730892E+02  0.00000000000E+00 0.  1.
         11    1    3    3    0    0 -0.13729245751E+01  0.56669415085E+00 -0.21455360670E+02  0.21506709787E+02  0.51100000000E-03 0. -1.
        -11    1    3    3    0    0 -0.48230408223E+01  0.10093401934E+02 -0.98750151608E+01  0.14921608829E+02  0.51100000000E-03 0.  1.
         12    1    3    3    0    0 -0.42565113915E-01  0.90925821371E+01 -0.68080022433E+01  0.11358950491E+02  0.00000000000E+00 0. -1.
</event>
<event>
 7    1  0.2430096E-009  0.4778722E+02  0.7816164E-02  0.1312668E+00
        -11   -1    0    0    0    0  0.00000000000E+00  0.00000000000E+00  0.45593999997E+02  0.45594000000E+02  0.51100000000E-03 0.  1.
         11   -1    0    0    0    0 -0.00000000000E+00 -0.00000000000E+00 -0.45593999997E+02  0.45594000000E+02  0.51100000000E-03 0. -1.
    9900012    2    1    2    0    0 -0.16553175227E+02 -0.20239911856E+02 -0.34640523911E+02  0.47787221910E+02  0.19999775974E+02 0.  0.
        -12    1    1    2    0    0  0.16553175227E+02  0.20239911856E+02  0.34640523911E+02  0.43400778090E+02  0.00000000000E+00 0.  1.
         11    1    3    3    0    0 -0.36032017608E+01  0.20586210048E+01 -0.14378581462E+01  0.43918583402E+01  0.51100000000E-03 0. -1.
        -11    1    3    3    0    0 -0.16099465950E+01 -0.14838798203E+01  0.44770168827E+00  0.22347850954E+01  0.51100000000E-03 0.  1.
         12    1    3    3    0    0 -0.11340026871E+02 -0.20814653041E+02 -0.33650367453E+02  0.41160578474E+02  0.00000000000E+00 0. -1.
</event>
<event>
 7    1  0.2430096E-009  0.4778727E+02  0.7816164E-02  0.1312668E+00
        -11   -1    0    0    0    0  0.00000000000E+00  0.00000000000E+00  0.45593999997E+02  0.45594000000E+02  0.51100000000E-03 0. -1.
         11   -1    0    0    0    0 -0.00000000000E+00 -0.00000000000E+00 -0.45593999997E+02  0.45594000000E+02  0.51100000000E-03 0.  1.
    9900012    2    1    2    0    0 -0.39421071746E+02  0.17873857664E+02  0.31823632014E+01  0.47787272807E+02  0.20000008034E+02 0.  0.
        -12    1    1    2    0    0  0.39421071746E+02 -0.17873857664E+02 -0.31823632014E+01  0.43400727193E+02  0.00000000000E+00 0.  1.
         11    1    3    3    0    0 -0.31481706361E+02  0.52447569890E+01  0.58176475957E+01  0.32441490950E+02  0.51100000000E-03 0.  1.
        -11    1    3    3    0    0 -0.78002697471E+01  0.11586839642E+02 -0.19815889991E+01  0.14107648856E+02  0.51100000000E-03 0. -1.
        -12    1    3    3    0    0 -0.13909563763E+00  0.10422610325E+01 -0.65369539521E+00  0.12381330001E+01  0.00000000000E+00 0.  1.
</event>
<event>
 7    1  0.2430096E-009  0.4778727E+02  0.7816164E-02  0.1312668E+00
        -11   -1    0    0    0    0  0.00000000000E+00  0.00000000000E+00  0.45593999997E+02  0.45594000000E+02  0.51100000000E-03 0.  1.
         11   -1    0    0    0    0 -0.00000000000E+00 -0.00000000000E+00 -0.45593999997E+02  0.45594000000E+02  0.51100000000E-03 0. -1.
    9900012    2    1    2    0    0  0.23569376570E+01  0.10079909035E+02 -0.42148115019E+02  0.47787270503E+02  0.19999997531E+02 0.  0.
        -12    1    1    2    0    0 -0.23569376570E+01 -0.10079909035E+02  0.42148115019E+02  0.43400729497E+02  0.00000000000E+00 0.  1.
         11    1    3    3    0    0  0.96004589397E+00 -0.25070732709E+01 -0.22494984902E+01  0.35024774407E+01  0.51100000000E-03 0. -1.
        -11    1    3    3    0    0 -0.11861537940E+01  0.14905801823E+02 -0.36421965224E+02  0.39371937213E+02  0.51100000000E-03 0.  1.
        -12    1    3    3    0    0  0.25830455571E+01 -0.23188195179E+01 -0.34766513039E+01  0.49128558493E+01  0.00000000000E+00 0.  1.
</event>
<event>
 7    1  0.2430096E-009  0.4778727E+02  0.7816164E-02  0.1312668E+00
        -11   -1    0    0    0    0  0.00000000000E+00  0.00000000000E+00  0.45593999997E+02  0.45594000000E+02  0.51100000000E-03 0. -1.
         11   -1    0    0    0    0 -0.00000000000E+00 -0.00000000000E+00 -0.45593999997E+02  0.45594000000E+02  0.51100000000E-03 0.  1.
    9900012    2    1    2    0    0  0.11856004237E+02  0.31072615405E+02  0.27884602319E+02  0.47787270616E+02  0.19999998046E+02 0.  0.
        -12    1    1    2    0    0 -0.11856004237E+02 -0.31072615405E+02 -0.27884602319E+02  0.43400729384E+02  0.00000000000E+00 0.  1.
         11    1    3    3    0    0  0.72970062953E+01  0.90416195461E+01  0.17100161449E+02  0.20673962047E+02  0.51100000000E-03 0. -1.
        -11    1    3    3    0    0  0.39935969375E+01  0.14202615415E+01  0.22444321305E+01  0.47961896537E+01  0.51100000000E-03 0.  1.
         12    1    3    3    0    0  0.56540100424E+00  0.20610734317E+02  0.85400087399E+01  0.22317118915E+02  0.00000000000E+00 0. -1.
</event>
<event>
 7    1  0.2430096E-009  0.4778727E+02  0.7816164E-02  0.1312668E+00
        -11   -1    0    0    0    0  0.00000000000E+00  0.00000000000E+00  0.45593999997E+02  0.45594000000E+02  0.51100000000E-03 0. -1.
         11   -1    0    0    0    0 -0.00000000000E+00 -0.00000000000E+00 -0.45593999997E+02  0.45594000000E+02  0.51100000000E-03 0.  1.
    9900012    2    1    2    0    0 -0.99353306185E+01 -0.41301309090E+02 -0.88946359750E+01  0.47787268714E+02  0.19999989375E+02 0.  0.
        -12    1    1    2    0    0  0.99353306185E+01  0.41301309090E+02  0.88946359750E+01  0.43400731286E+02  0.00000000000E+00 0.  1.
         11    1    3    3    0    0  0.31489771334E+00 -0.12946924632E+02 -0.50266398652E+01  0.13892052642E+02  0.51100000000E-03 0. -1.
        -11    1    3    3    0    0 -0.30723603014E+01 -0.19177541358E+02  0.40091850231E+01  0.19831567139E+02  0.51100000000E-03 0.  1.
        -12    1    3    3    0    0 -0.71778680304E+01 -0.91768430995E+01 -0.78771811330E+01  0.14063648934E+02  0.00000000000E+00 0.  1.
</event>
<event>
 7    1  0.2430096E-009  0.4778728E+02  0.7816164E-02  0.1312668E+00
        -11   -1    0    0    0    0  0.00000000000E+00  0.00000000000E+00  0.45593999997E+02  0.45594000000E+02  0.51100000000E-03 0. -1.
         11   -1    0    0    0    0 -0.00000000000E+00 -0.00000000000E+00 -0.45593999997E+02  0.45594000000E+02  0.51100000000E-03 0.  1.
    9900012    2    1    2    0    0  0.81770397892E+01  0.10918520719E+02  0.41201270270E+02  0.47787277123E+02  0.20000027713E+02 0.  0.
        -12    1    1    2    0    0 -0.81770397892E+01 -0.10918520719E+02 -0.41201270270E+02  0.43400722877E+02  0.00000000000E+00 0.  1.
         11    1    3    3    0    0  0.33649750878E+01  0.12535209115E+02  0.40207841226E+02  0.42250739890E+02  0.51100000000E-03 0. -1.
        -11    1    3    3    0    0  0.21866455294E+01 -0.17751451136E+01  0.51756419235E+00  0.28636396072E+01  0.51100000000E-03 0.  1.
         12    1    3    3    0    0  0.26254191720E+01  0.15845671817E+00  0.47586485124E+00  0.26728976256E+01  0.00000000000E+00 0. -1.
</event>
<event>
 7    1  0.2430096E-009  0.4778728E+02  0.7816164E-02  0.1312668E+00
        -11   -1    0    0    0    0  0.00000000000E+00  0.00000000000E+00  0.45593999997E+02  0.45594000000E+02  0.51100000000E-03 0.  1.
         11   -1    0    0    0    0 -0.00000000000E+00 -0.00000000000E+00 -0.45593999997E+02  0.45594000000E+02  0.51100000000E-03 0. -1.
    9900012    2    1    2    0    0  0.37336687915E+02 -0.17509498668E+02 -0.13528183733E+02  0.47787279232E+02  0.20000037332E+02 0.  0.
        -12    1    1    2    0    0 -0.37336687915E+02  0.17509498668E+02  0.13528183733E+02  0.43400720768E+02  0.00000000000E+00 0.  1.
         11    1    3    3    0    0  0.35602553887E+02 -0.15313759132E+02 -0.17391563862E+02  0.42479636955E+02  0.51100000000E-03 0. -1.
        -11    1    3    3    0    0 -0.49324700452E+00 -0.39593449633E+00  0.13765412161E+01  0.15149002323E+01  0.51100000000E-03 0.  1.
         12    1    3    3    0    0  0.22273810321E+01 -0.17998050392E+01  0.24868389126E+01  0.37927420449E+01  0.00000000000E+00 0. -1.
</event>
<event>
 7    1  0.2430096E-009  0.4778727E+02  0.7816164E-02  0.1312668E+00
        -11   -1    0    0    0    0  0.00000000000E+00  0.00000000000E+00  0.45593999997E+02  0.45594000000E+02  0.51100000000E-03 0.  1.
         11   -1    0    0    0    0 -0.00000000000E+00 -0.00000000000E+00 -0.45593999997E+02  0.45594000000E+02  0.51100000000E-03 0. -1.
    9900012    2    1    2    0    0  0.97204139851E+01  0.26360926877E+02 -0.33079276759E+02  0.47787268845E+02  0.19999989973E+02 0.  0.
        -12    1    1    2    0    0 -0.97204139851E+01 -0.26360926877E+02  0.33079276759E+02  0.43400731155E+02  0.00000000000E+00 0.  1.
         11    1    3    3    0    0  0.13857052828E+00  0.58145543133E+01 -0.64111382244E+01  0.86562657796E+01  0.51100000000E-03 0. -1.
        -11    1    3    3    0    0  0.87828281674E+00  0.14912218622E+02 -0.24254831930E+02  0.28485830111E+02  0.51100000000E-03 0.  1.
        -12    1    3    3    0    0  0.87035606400E+01  0.56341539422E+01 -0.24133066047E+01  0.10645172954E+02  0.00000000000E+00 0.  1.
</event>
<event>
 7    1  0.2430096E-009  0.4778727E+02  0.7816164E-02  0.1312668E+00
        -11   -1    0    0    0    0  0.00000000000E+00  0.00000000000E+00  0.45593999997E+02  0.45594000000E+02  0.51100000000E-03 0.  1.
         11   -1    0    0    0    0 -0.00000000000E+00 -0.00000000000E+00 -0.45593999997E+02  0.45594000000E+02  0.51100000000E-03 0. -1.
    9900012    2    1    2    0    0  0.35097449595E+02 -0.21758699357E+02 -0.13354816778E+02  0.47787273082E+02  0.20000009292E+02 0.  0.
        -12    1    1    2    0    0 -0.35097449595E+02  0.21758699357E+02  0.13354816778E+02  0.43400726918E+02  0.00000000000E+00 0.  1.
         11    1    3    3    0    0  0.76616487887E+00  0.12962869537E+01 -0.17317088188E+01  0.22948168080E+01  0.51100000000E-03 0.  1.
        -11    1    3    3    0    0  0.16608018210E+02 -0.34363765360E+01 -0.96786067285E+00  0.16987398480E+02  0.51100000000E-03 0. -1.
        -12    1    3    3    0    0  0.17723266507E+02 -0.19618609775E+02 -0.10655247286E+02  0.28505057795E+02  0.00000000000E+00 0.  1.
</event>
<event>
 7    1  0.2430096E-009  0.4778728E+02  0.7816164E-02  0.1312668E+00
        -11   -1    0    0    0    0  0.00000000000E+00  0.00000000000E+00  0.45593999997E+02  0.45594000000E+02  0.51100000000E-03 0.  1.
         11   -1    0    0    0    0 -0.00000000000E+00 -0.00000000000E+00 -0.45593999997E+02  0.45594000000E+02  0.51100000000E-03 0. -1.
    9900012    2    1    2    0    0 -0.19114026304E+02 -0.23533463498E+02 -0.31055643816E+02  0.47787275137E+02  0.20000018661E+02 0.  0.
        -12    1    1    2    0    0  0.19114026304E+02  0.23533463498E+02  0.31055643816E+02  0.43400724863E+02  0.00000000000E+00 0.  1.
         11    1    3    3    0    0 -0.16327182994E+02 -0.15431485076E+02 -0.24455244509E+02  0.33207930084E+02  0.51100000000E-03 0. -1.
        -11    1    3    3    0    0  0.85145678715E+00  0.67496016399E+00 -0.47843697885E+01  0.49061944945E+01  0.51100000000E-03 0.  1.
         12    1    3    3    0    0 -0.36383000974E+01 -0.87769385854E+01 -0.18160295187E+01  0.96731505593E+01  0.00000000000E+00 0. -1.
</event>
<event>
 7    1  0.2430096E-009  0.4778726E+02  0.7816164E-02  0.1312668E+00
        -11   -1    0    0    0    0  0.00000000000E+00  0.00000000000E+00  0.45593999997E+02  0.45594000000E+02  0.51100000000E-03 0.  1.
         11   -1    0    0    0    0 -0.00000000000E+00 -0.00000000000E+00 -0.45593999997E+02  0.45594000000E+02  0.51100000000E-03 0. -1.
    9900012    2    1    2    0    0 -0.11888091012E+02 -0.20517873279E+02 -0.36349890018E+02  0.47787258807E+02  0.19999944204E+02 0.  0.
        -12    1    1    2    0    0  0.11888091012E+02  0.20517873279E+02  0.36349890018E+02  0.43400741193E+02  0.00000000000E+00 0.  1.
         11    1    3    3    0    0 -0.61414793675E+01 -0.16986131003E+02 -0.12015823548E+02  0.21693926133E+02  0.51100000000E-03 0. -1.
        -11    1    3    3    0    0 -0.39878392183E+01 -0.22949755129E+01 -0.23220568600E+02  0.23672021050E+02  0.51100000000E-03 0.  1.
        -12    1    3    3    0    0 -0.17587724257E+01 -0.12367667623E+01 -0.11134978708E+01  0.24213116235E+01  0.00000000000E+00 0.  1.
</event>
<event>
 7    1  0.2430096E-009  0.4778726E+02  0.7816164E-02  0.1312668E+00
        -11   -1    0    0    0    0  0.00000000000E+00  0.00000000000E+00  0.45593999997E+02  0.45594000000E+02  0.51100000000E-03 0.  1.
         11   -1    0    0    0    0 -0.00000000000E+00 -0.00000000000E+00 -0.45593999997E+02  0.45594000000E+02  0.51100000000E-03 0. -1.
    9900012    2    1    2    0    0 -0.12747492494E+02  0.40339312720E+02  0.96884384219E+01  0.47787256289E+02  0.19999932724E+02 0.  0.
        -12    1    1    2    0    0  0.12747492494E+02 -0.40339312720E+02 -0.96884384219E+01  0.43400743711E+02  0.00000000000E+00 0.  1.
         11    1    3    3    0    0 -0.50260756556E+01  0.70359565222E+01  0.33263155077E+01  0.92644749337E+01  0.51100000000E-03 0. -1.
        -11    1    3    3    0    0 -0.52971333438E+01  0.64482532906E+01  0.79313442879E+01  0.11512854322E+02  0.51100000000E-03 0.  1.
        -12    1    3    3    0    0 -0.24242834941E+01  0.26855102907E+02 -0.15692213738E+01  0.27009927033E+02  0.00000000000E+00 0.  1.
</event>
<event>
 7    1  0.2430096E-009  0.4778726E+02  0.7816164E-02  0.1312668E+00
        -11   -1    0    0    0    0  0.00000000000E+00  0.00000000000E+00  0.45593999997E+02  0.45594000000E+02  0.51100000000E-03 0.  1.
         11   -1    0    0    0    0 -0.00000000000E+00 -0.00000000000E+00 -0.45593999997E+02  0.45594000000E+02  0.51100000000E-03 0. -1.
    9900012    2    1    2    0    0 -0.19363380967E+02  0.38337992539E+02 -0.62355579886E+01  0.47787258326E+02  0.19999942012E+02 0.  0.
        -12    1    1    2    0    0  0.19363380967E+02 -0.38337992539E+02  0.62355579886E+01  0.43400741674E+02  0.00000000000E+00 0.  1.
         11    1    3    3    0    0 -0.85315605499E+01  0.34216306962E+02 -0.48255939762E+01  0.35592549009E+02  0.51100000000E-03 0. -1.
        -11    1    3    3    0    0 -0.89345744127E+01  0.40401121090E+01 -0.23389395925E+01  0.10080662898E+02  0.51100000000E-03 0.  1.
         12    1    3    3    0    0 -0.18972460042E+01  0.81573468734E-01  0.92897558020E+00  0.21140464185E+01  0.00000000000E+00 0. -1.
</event>
<event>
 7    1  0.2430096E-009  0.4778727E+02  0.7816164E-02  0.1312668E+00
        -11   -1    0    0    0    0  0.00000000000E+00  0.00000000000E+00  0.45593999997E+02  0.45594000000E+02  0.51100000000E-03 0.  1.
         11   -1    0    0    0    0 -0.00000000000E+00 -0.00000000000E+00 -0.45593999997E+02  0.45594000000E+02  0.51100000000E-03 0. -1.
    9900012    2    1    2    0    0  0.94297094488E+01  0.17734637178E+02 -0.38473192692E+02  0.47787270374E+02  0.19999996944E+02 0.  0.
        -12    1    1    2    0    0 -0.94297094488E+01 -0.17734637178E+02  0.38473192692E+02  0.43400729626E+02  0.00000000000E+00 0.  1.
         11    1    3    3    0    0 -0.21863187714E+01  0.12107067975E+02 -0.15541414406E+02  0.19821620689E+02  0.51100000000E-03 0. -1.
        -11    1    3    3    0    0  0.11146878015E+02  0.58794400020E+01 -0.13311915962E+02  0.18331061372E+02  0.51100000000E-03 0.  1.
         12    1    3    3    0    0  0.46915020554E+00 -0.25187079959E+00 -0.96198623245E+01  0.96345883128E+01  0.00000000000E+00 0. -1.
</event>
<event>
 7    1  0.2430096E-009  0.4778727E+02  0.7816164E-02  0.1312668E+00
        -11   -1    0    0    0    0  0.00000000000E+00  0.00000000000E+00  0.45593999997E+02  0.45594000000E+02  0.51100000000E-03 0.  1.
         11   -1    0    0    0    0 -0.00000000000E+00 -0.00000000000E+00 -0.45593999997E+02  0.45594000000E+02  0.51100000000E-03 0. -1.
    9900012    2    1    2    0    0 -0.19940661441E+02 -0.17259817190E+02 -0.34468710427E+02  0.47787271128E+02  0.20000000381E+02 0.  0.
        -12    1    1    2    0    0  0.19940661441E+02  0.17259817190E+02  0.34468710427E+02  0.43400728872E+02  0.00000000000E+00 0.  1.
         11    1    3    3    0    0  0.11680873938E+00 -0.77177653435E+01 -0.15443524311E+02  0.17264993183E+02  0.51100000000E-03 0. -1.
        -11    1    3    3    0    0 -0.37722720637E+01 -0.27736432880E+01 -0.14189304799E+00  0.46843641521E+01  0.51100000000E-03 0.  1.
         12    1    3    3    0    0 -0.16285198117E+02 -0.67684085586E+01 -0.18883293068E+02  0.25837913793E+02  0.00000000000E+00 0. -1.
</event>
<event>
 7    1  0.2430096E-009  0.4778727E+02  0.7816164E-02  0.1312668E+00
        -11   -1    0    0    0    0  0.00000000000E+00  0.00000000000E+00  0.45593999997E+02  0.45594000000E+02  0.51100000000E-03 0.  1.
         11   -1    0    0    0    0 -0.00000000000E+00 -0.00000000000E+00 -0.45593999997E+02  0.45594000000E+02  0.51100000000E-03 0. -1.
    9900012    2    1    2    0    0  0.62540109359E+01  0.25689376941E+02 -0.34417529017E+02  0.47787273692E+02  0.20000012071E+02 0.  0.
        -12    1    1    2    0    0 -0.62540109359E+01 -0.25689376941E+02  0.34417529017E+02  0.43400726308E+02  0.00000000000E+00 0.  1.
         11    1    3    3    0    0  0.67786878755E+01  0.14898812306E+02 -0.20661838186E+02  0.26359756731E+02  0.51100000000E-03 0. -1.
        -11    1    3    3    0    0 -0.39248335652E+01 -0.31897945906E+00 -0.78683392599E+00  0.40156163036E+01  0.51100000000E-03 0.  1.
        -12    1    3    3    0    0  0.34001566256E+01  0.11109544094E+02 -0.12968856906E+02  0.17411900657E+02  0.00000000000E+00 0.  1.
</event>
<event>
 7    1  0.2430096E-009  0.4778728E+02  0.7816164E-02  0.1312668E+00
        -11   -1    0    0    0    0  0.00000000000E+00  0.00000000000E+00  0.45593999997E+02  0.45594000000E+02  0.51100000000E-03 0.  1.
         11   -1    0    0    0    0 -0.00000000000E+00 -0.00000000000E+00 -0.45593999997E+02  0.45594000000E+02  0.51100000000E-03 0. -1.
    9900012    2    1    2    0    0  0.10447509439E+01  0.37632627019E+02 -0.21594366547E+02  0.47787276649E+02  0.20000025551E+02 0.  0.
        -12    1    1    2    0    0 -0.10447509439E+01 -0.37632627019E+02  0.21594366547E+02  0.43400723351E+02  0.00000000000E+00 0.  1.
         11    1    3    3    0    0 -0.65910264346E+01  0.25014110291E+02 -0.16973628339E+02  0.30939479672E+02  0.51100000000E-03 0. -1.
        -11    1    3    3    0    0  0.64562005340E+01  0.50580278207E+01 -0.65097355172E+00  0.82273894764E+01  0.51100000000E-03 0.  1.
        -12    1    3    3    0    0  0.11795768445E+01  0.75604889068E+01 -0.39697646566E+01  0.86204075002E+01  0.00000000000E+00 0.  1.
</event>
<event>
 7    1  0.2430096E-009  0.4778727E+02  0.7816164E-02  0.1312668E+00
        -11   -1    0    0    0    0  0.00000000000E+00  0.00000000000E+00  0.45593999997E+02  0.45594000000E+02  0.51100000000E-03 0. -1.
         11   -1    0    0    0    0 -0.00000000000E+00 -0.00000000000E+00 -0.45593999997E+02  0.45594000000E+02  0.51100000000E-03 0.  1.
    9900012    2    1    2    0    0  0.28348513250E+02  0.11347547652E+02  0.30841824748E+02  0.47787271953E+02  0.20000004144E+02 0.  0.
        -12    1    1    2    0    0 -0.28348513250E+02 -0.11347547652E+02 -0.30841824748E+02  0.43400728047E+02  0.00000000000E+00 0.  1.
         11    1    3    3    0    0  0.24186039629E+02  0.10911933946E+02  0.27970587029E+02  0.38553709995E+02  0.51100000000E-03 0. -1.
        -11    1    3    3    0    0  0.20317646472E+01  0.17087209572E+01 -0.22903425124E+01  0.35062036416E+01  0.51100000000E-03 0.  1.
        -12    1    3    3    0    0  0.21307089736E+01 -0.12731072511E+01  0.51615802309E+01  0.57273583163E+01  0.00000000000E+00 0.  1.
</event>
<event>
 7    1  0.2430096E-009  0.4778727E+02  0.7816164E-02  0.1312668E+00
        -11   -1    0    0    0    0  0.00000000000E+00  0.00000000000E+00  0.45593999997E+02  0.45594000000E+02  0.51100000000E-03 0.  1.
         11   -1    0    0    0    0 -0.00000000000E+00 -0.00000000000E+00 -0.45593999997E+02  0.45594000000E+02  0.51100000000E-03 0. -1.
    9900012    2    1    2    0    0 -0.91837825517E+01  0.14581916679E+02 -0.39832770602E+02  0.47787265331E+02  0.19999973952E+02 0.  0.
        -12    1    1    2    0    0  0.91837825517E+01 -0.14581916679E+02  0.39832770602E+02  0.43400734669E+02  0.00000000000E+00 0.  1.
         11    1    3    3    0    0 -0.10899829915E+02  0.30546145708E+01 -0.15288682412E+02  0.19023164103E+02  0.51100000000E-03 0. -1.
        -11    1    3    3    0    0 -0.14380255553E+01  0.11578967630E+02 -0.17345825831E+02  0.20904977467E+02  0.51100000000E-03 0.  1.
         12    1    3    3    0    0  0.31540729189E+01 -0.51665521983E-01 -0.71982623589E+01  0.78591237611E+01  0.00000000000E+00 0. -1.
</event>
<event>
 7    1  0.2430096E-009  0.4778727E+02  0.7816164E-02  0.1312668E+00
        -11   -1    0    0    0    0  0.00000000000E+00  0.00000000000E+00  0.45593999997E+02  0.45594000000E+02  0.51100000000E-03 0.  1.
         11   -1    0    0    0    0 -0.00000000000E+00 -0.00000000000E+00 -0.45593999997E+02  0.45594000000E+02  0.51100000000E-03 0. -1.
    9900012    2    1    2    0    0  0.27324507696E+02 -0.12127770974E+02 -0.31462863108E+02  0.47787270691E+02  0.19999998388E+02 0.  0.
        -12    1    1    2    0    0 -0.27324507696E+02  0.12127770974E+02  0.31462863108E+02  0.43400729309E+02  0.00000000000E+00 0.  1.
         11    1    3    3    0    0  0.30409049859E+01 -0.10539803834E+00 -0.23903926806E+01  0.38693913356E+01  0.51100000000E-03 0. -1.
        -11    1    3    3    0    0  0.23863662471E+02 -0.58495817814E+01 -0.28611714986E+02  0.37713687545E+02  0.51100000000E-03 0.  1.
        -12    1    3    3    0    0  0.41994023942E+00 -0.61727911547E+01 -0.46075544108E+00  0.62041918104E+01  0.00000000000E+00 0.  1.
</event>
<event>
 7    1  0.2430096E-009  0.4778727E+02  0.7816164E-02  0.1312668E+00
        -11   -1    0    0    0    0  0.00000000000E+00  0.00000000000E+00  0.45593999997E+02  0.45594000000E+02  0.51100000000E-03 0.  1.
         11   -1    0    0    0    0 -0.00000000000E+00 -0.00000000000E+00 -0.45593999997E+02  0.45594000000E+02  0.51100000000E-03 0. -1.
    9900012    2    1    2    0    0  0.15079069861E+01 -0.19834602001E+02 -0.38573798225E+02  0.47787272708E+02  0.20000007583E+02 0.  0.
        -12    1    1    2    0    0 -0.15079069861E+01  0.19834602001E+02  0.38573798225E+02  0.43400727292E+02  0.00000000000E+00 0.  1.
         11    1    3    3    0    0 -0.63272123056E+00 -0.10799285255E+01 -0.19135316392E+02  0.19176207014E+02  0.51100000000E-03 0. -1.
        -11    1    3    3    0    0  0.77918472275E+00 -0.20315040455E+01  0.80340488778E+00  0.23193958683E+01  0.51100000000E-03 0.  1.
         12    1    3    3    0    0  0.13614434939E+01 -0.16723169430E+02 -0.20241886721E+02  0.26291669825E+02  0.00000000000E+00 0. -1.
</event>
<event>
 7    1  0.2430096E-009  0.4778727E+02  0.7816164E-02  0.1312668E+00
        -11   -1    0    0    0    0  0.00000000000E+00  0.00000000000E+00  0.45593999997E+02  0.45594000000E+02  0.51100000000E-03 0.  1.
         11   -1    0    0    0    0 -0.00000000000E+00 -0.00000000000E+00 -0.45593999997E+02  0.45594000000E+02  0.51100000000E-03 0. -1.
    9900012    2    1    2    0    0  0.24003630537E+02 -0.24005969385E+02 -0.27040014709E+02  0.47787271428E+02  0.20000001751E+02 0.  0.
        -12    1    1    2    0    0 -0.24003630537E+02  0.24005969385E+02  0.27040014709E+02  0.43400728572E+02  0.00000000000E+00 0.  1.
         11    1    3    3    0    0  0.74049689657E+01  0.14981557223E+01 -0.40459632145E+01  0.85701723754E+01  0.51100000000E-03 0.  1.
        -11    1    3    3    0    0 -0.18860408281E+00 -0.34799696650E+01 -0.46114812655E+00  0.35154541990E+01  0.51100000000E-03 0. -1.
         12    1    3    3    0    0  0.16787265654E+02 -0.22024155442E+02 -0.22532903368E+02  0.35701644854E+02  0.00000000000E+00 0. -1.
</event>
<event>
 7    1  0.2430096E-009  0.4778727E+02  0.7816164E-02  0.1312668E+00
        -11   -1    0    0    0    0  0.00000000000E+00  0.00000000000E+00  0.45593999997E+02  0.45594000000E+02  0.51100000000E-03 0.  1.
         11   -1    0    0    0    0 -0.00000000000E+00 -0.00000000000E+00 -0.45593999997E+02  0.45594000000E+02  0.51100000000E-03 0. -1.
    9900012    2    1    2    0    0 -0.29237064032E+02 -0.32020231716E+02  0.18767395671E+01  0.47787270700E+02  0.19999998431E+02 0.  0.
        -12    1    1    2    0    0  0.29237064032E+02  0.32020231716E+02 -0.18767395671E+01  0.43400729300E+02  0.00000000000E+00 0.  1.
         11    1    3    3    0    0 -0.93353323380E+01 -0.15070317722E+02  0.16157351085E+00  0.17728198226E+02  0.51100000000E-03 0. -1.
        -11    1    3    3    0    0  0.64194974760E+00 -0.55918077437E+01 -0.25854340557E+01  0.61939392021E+01  0.51100000000E-03 0.  1.
        -12    1    3    3    0    0 -0.20543681442E+02 -0.11358106250E+02  0.43006001119E+01  0.23865133272E+02  0.00000000000E+00 0.  1.
</event>
<event>
 7    1  0.2430096E-009  0.4778727E+02  0.7816164E-02  0.1312668E+00
        -11   -1    0    0    0    0  0.00000000000E+00  0.00000000000E+00  0.45593999997E+02  0.45594000000E+02  0.51100000000E-03 0.  1.
         11   -1    0    0    0    0 -0.00000000000E+00 -0.00000000000E+00 -0.45593999997E+02  0.45594000000E+02  0.51100000000E-03 0. -1.
    9900012    2    1    2    0    0 -0.52377893425E+01 -0.85092119027E+00 -0.43075105150E+02  0.47787272036E+02  0.20000004523E+02 0.  0.
        -12    1    1    2    0    0  0.52377893425E+01  0.85092119027E+00  0.43075105150E+02  0.43400727964E+02  0.00000000000E+00 0.  1.
         11    1    3    3    0    0 -0.27059222631E+01  0.19467353564E+01 -0.15342934583E+02  0.15700873725E+02  0.51100000000E-03 0. -1.
        -11    1    3    3    0    0  0.56220623530E+00 -0.30639280598E+01  0.93432246278E+00  0.32521823030E+01  0.51100000000E-03 0.  1.
        -12    1    3    3    0    0 -0.30940733148E+01  0.26627151306E+00 -0.28666493030E+02  0.28834216009E+02  0.00000000000E+00 0.  1.
</event>
<event>
 7    1  0.2430096E-009  0.4778727E+02  0.7816164E-02  0.1312668E+00
        -11   -1    0    0    0    0  0.00000000000E+00  0.00000000000E+00  0.45593999997E+02  0.45594000000E+02  0.51100000000E-03 0.  1.
         11   -1    0    0    0    0 -0.00000000000E+00 -0.00000000000E+00 -0.45593999997E+02  0.45594000000E+02  0.51100000000E-03 0. -1.
    9900012    2    1    2    0    0 -0.15094526506E+02  0.31155211518E+02 -0.26175012912E+02  0.47787271480E+02  0.20000001984E+02 0.  0.
        -12    1    1    2    0    0  0.15094526506E+02 -0.31155211518E+02  0.26175012912E+02  0.43400728520E+02  0.00000000000E+00 0.  1.
         11    1    3    3    0    0  0.73521402913E+00  0.53407013644E+01 -0.10138671528E+02  0.11482869473E+02  0.51100000000E-03 0. -1.
        -11    1    3    3    0    0 -0.99265313008E+01  0.24023199114E+02 -0.10563814865E+02  0.28057874191E+02  0.51100000000E-03 0.  1.
        -12    1    3    3    0    0 -0.59032092345E+01  0.17913110390E+01 -0.54725265192E+01  0.82465278153E+01  0.00000000000E+00 0.  1.
</event>
<event>
 7    1  0.2430096E-009  0.4778731E+02  0.7816164E-02  0.1312668E+00
        -11   -1    0    0    0    0  0.00000000000E+00  0.00000000000E+00  0.45593999997E+02  0.45594000000E+02  0.51100000000E-03 0.  1.
         11   -1    0    0    0    0 -0.00000000000E+00 -0.00000000000E+00 -0.45593999997E+02  0.45594000000E+02  0.51100000000E-03 0. -1.
    9900012    2    1    2    0    0 -0.36436859698E+02  0.18032532789E+02 -0.15192200774E+02  0.47787309362E+02  0.20000174706E+02 0.  0.
        -12    1    1    2    0    0  0.36436859698E+02 -0.18032532789E+02  0.15192200774E+02  0.43400690638E+02  0.00000000000E+00 0.  1.
         11    1    3    3    0    0 -0.10991802594E+02  0.76675761352E+01 -0.17544235000E+01  0.13516266131E+02  0.51100000000E-03 0. -1.
        -11    1    3    3    0    0 -0.22613395749E+02  0.12306677243E+02 -0.15704253753E+02  0.30156981916E+02  0.51100000000E-03 0.  1.
        -12    1    3    3    0    0 -0.28316613559E+01 -0.19417205892E+01  0.22664764789E+01  0.41140613158E+01  0.00000000000E+00 0.  1.
</event>
<event>
 7    1  0.2430096E-009  0.4778727E+02  0.7816164E-02  0.1312668E+00
        -11   -1    0    0    0    0  0.00000000000E+00  0.00000000000E+00  0.45593999997E+02  0.45594000000E+02  0.51100000000E-03 0. -1.
         11   -1    0    0    0    0 -0.00000000000E+00 -0.00000000000E+00 -0.45593999997E+02  0.45594000000E+02  0.51100000000E-03 0.  1.
    9900012    2    1    2    0    0  0.56763454224E+01  0.33152410485E+02  0.27428454475E+02  0.47787270361E+02  0.19999996884E+02 0.  0.
        -12    1    1    2    0    0 -0.56763454224E+01 -0.33152410485E+02 -0.27428454475E+02  0.43400729639E+02  0.00000000000E+00 0.  1.
         11    1    3    3    0    0  0.92156290713E+01  0.86521120566E+01  0.55073436273E+01  0.13788317385E+02  0.51100000000E-03 0. -1.
        -11    1    3    3    0    0 -0.50057030745E+00  0.65455285826E+00  0.38186736546E+01  0.39065686757E+01  0.51100000000E-03 0.  1.
         12    1    3    3    0    0 -0.30387133414E+01  0.23845745570E+02  0.18102437193E+02  0.30092384300E+02  0.00000000000E+00 0. -1.
</event>
<event>
 7    1  0.2430096E-009  0.4778727E+02  0.7816164E-02  0.1312668E+00
        -11   -1    0    0    0    0  0.00000000000E+00  0.00000000000E+00  0.45593999997E+02  0.45594000000E+02  0.51100000000E-03 0. -1.
         11   -1    0    0    0    0 -0.00000000000E+00 -0.00000000000E+00 -0.45593999997E+02  0.45594000000E+02  0.51100000000E-03 0.  1.
    9900012    2    1    2    0    0 -0.17705097641E+02  0.14150764785E+02  0.37012280070E+02  0.47787268411E+02  0.19999987993E+02 0.  0.
        -12    1    1    2    0    0  0.17705097641E+02 -0.14150764785E+02 -0.37012280070E+02  0.43400731589E+02  0.00000000000E+00 0.  1.
         11    1    3    3    0    0 -0.14662220001E+02  0.16716717020E+02  0.22795463365E+02  0.31844347592E+02  0.51100000000E-03 0. -1.
        -11    1    3    3    0    0 -0.42840214336E+01 -0.29189774629E+01  0.13512673201E+02  0.14472926669E+02  0.51100000000E-03 0.  1.
         12    1    3    3    0    0  0.12411437928E+01  0.35302522815E+00  0.70414350322E+00  0.14699941494E+01  0.00000000000E+00 0. -1.
</event>
<event>
 7    1  0.2430096E-009  0.4778727E+02  0.7816164E-02  0.1312668E+00
        -11   -1    0    0    0    0  0.00000000000E+00  0.00000000000E+00  0.45593999997E+02  0.45594000000E+02  0.51100000000E-03 0.  1.
         11   -1    0    0    0    0 -0.00000000000E+00 -0.00000000000E+00 -0.45593999997E+02  0.45594000000E+02  0.51100000000E-03 0. -1.
    9900012    2    1    2    0    0 -0.46023120504E+01 -0.42373656476E+02 -0.81801733998E+01  0.47787271017E+02  0.19999999876E+02 0.  0.
        -12    1    1    2    0    0  0.46023120504E+01  0.42373656476E+02  0.81801733998E+01  0.43400728983E+02  0.00000000000E+00 0.  1.
         11    1    3    3    0    0 -0.53994023852E+01 -0.32902576051E+02 -0.26286640292E+01  0.33446119831E+02  0.51100000000E-03 0. -1.
        -11    1    3    3    0    0  0.40555060961E+01 -0.18064780796E+01 -0.20525511085E+00  0.44443922722E+01  0.51100000000E-03 0.  1.
        -12    1    3    3    0    0 -0.32584157612E+01 -0.76646023453E+01 -0.53462542597E+01  0.98967589136E+01  0.00000000000E+00 0.  1.
</event>
<event>
 7    1  0.2430096E-009  0.4778727E+02  0.7816164E-02  0.1312668E+00
        -11   -1    0    0    0    0  0.00000000000E+00  0.00000000000E+00  0.45593999997E+02  0.45594000000E+02  0.51100000000E-03 0. -1.
         11   -1    0    0    0    0 -0.00000000000E+00 -0.00000000000E+00 -0.45593999997E+02  0.45594000000E+02  0.51100000000E-03 0.  1.
    9900012    2    1    2    0    0 -0.25006231113E+02  0.14785044318E+02  0.32244601464E+02  0.47787268975E+02  0.19999990563E+02 0.  0.
        -12    1    1    2    0    0  0.25006231113E+02 -0.14785044318E+02 -0.32244601464E+02  0.43400731025E+02  0.00000000000E+00 0.  1.
         11    1    3    3    0    0 -0.78449621329E+01  0.69531505773E+01  0.14371602982E+02  0.17788555488E+02  0.51100000000E-03 0. -1.
        -11    1    3    3    0    0 -0.85989023295E+01 -0.31596383543E+01  0.30499508530E+01  0.96553941540E+01  0.51100000000E-03 0.  1.
        -12    1    3    3    0    0 -0.85623666505E+01  0.10991532095E+02  0.14823047629E+02  0.20343319333E+02  0.00000000000E+00 0.  1.
</event>
<event>
 7    1  0.2430096E-009  0.4778727E+02  0.7816164E-02  0.1312668E+00
        -11   -1    0    0    0    0  0.00000000000E+00  0.00000000000E+00  0.45593999997E+02  0.45594000000E+02  0.51100000000E-03 0. -1.
         11   -1    0    0    0    0 -0.00000000000E+00 -0.00000000000E+00 -0.45593999997E+02  0.45594000000E+02  0.51100000000E-03 0.  1.
    9900012    2    1    2    0    0  0.31766233340E+02  0.91516390705E+01  0.28120759445E+02  0.47787272010E+02  0.20000004401E+02 0.  0.
        -12    1    1    2    0    0 -0.31766233340E+02 -0.91516390705E+01 -0.28120759445E+02  0.43400727990E+02  0.00000000000E+00 0.  1.
         11    1    3    3    0    0  0.84242433682E+01 -0.29310199654E+00  0.48300325798E+01  0.97150913578E+01  0.51100000000E-03 0. -1.
        -11    1    3    3    0    0  0.89173133360E+01  0.74138142156E+01  0.12653805384E+01  0.11665517842E+02  0.51100000000E-03 0.  1.
        -12    1    3    3    0    0  0.14424676636E+02  0.20309268514E+01  0.22025346327E+02  0.26406662810E+02  0.00000000000E+00 0.  1.
</event>
<event>
 7    1  0.2430096E-009  0.4778727E+02  0.7816164E-02  0.1312668E+00
        -11   -1    0    0    0    0  0.00000000000E+00  0.00000000000E+00  0.45593999997E+02  0.45594000000E+02  0.51100000000E-03 0. -1.
         11   -1    0    0    0    0 -0.00000000000E+00 -0.00000000000E+00 -0.45593999997E+02  0.45594000000E+02  0.51100000000E-03 0.  1.
    9900012    2    1    2    0    0  0.43073628740E+02 -0.49022027518E+01  0.20625479186E+01  0.47787272027E+02  0.20000004481E+02 0.  0.
        -12    1    1    2    0    0 -0.43073628740E+02  0.49022027518E+01 -0.20625479186E+01  0.43400727973E+02  0.00000000000E+00 0.  1.
         11    1    3    3    0    0  0.11532932695E+02  0.30135891285E+01  0.49128569782E+01  0.12892882530E+02  0.51100000000E-03 0. -1.
        -11    1    3    3    0    0  0.30913582792E+02 -0.94677964583E+01 -0.92638009595E+00  0.32344195015E+02  0.51100000000E-03 0.  1.
        -12    1    3    3    0    0  0.62711325342E+00  0.15520045780E+01 -0.19239289636E+01  0.25501944828E+01  0.00000000000E+00 0.  1.
</event>
<event>
 7    1  0.2430096E-009  0.4778726E+02  0.7816164E-02  0.1312668E+00
        -11   -1    0    0    0    0  0.00000000000E+00  0.00000000000E+00  0.45593999997E+02  0.45594000000E+02  0.51100000000E-03 0.  1.
         11   -1    0    0    0    0 -0.00000000000E+00 -0.00000000000E+00 -0.45593999997E+02  0.45594000000E+02  0.51100000000E-03 0. -1.
    9900012    2    1    2    0    0  0.28202527570E+01  0.16681985861E+02 -0.39967260979E+02  0.47787257748E+02  0.19999939375E+02 0.  0.
        -12    1    1    2    0    0 -0.28202527570E+01 -0.16681985861E+02  0.39967260979E+02  0.43400742252E+02  0.00000000000E+00 0.  1.
         11    1    3    3    0    0 -0.63384974468E+01  0.75663700517E+01 -0.14086842233E+02  0.17200745042E+02  0.51100000000E-03 0. -1.
        -11    1    3    3    0    0  0.10845948318E+02  0.58204042424E+01 -0.22091529548E+02  0.25289273981E+02  0.51100000000E-03 0.  1.
        -12    1    3    3    0    0 -0.16871981146E+01  0.32952115673E+01 -0.37888891983E+01  0.52972387249E+01  0.00000000000E+00 0.  1.
</event>
<event>
 7    1  0.2430096E-009  0.4778727E+02  0.7816164E-02  0.1312668E+00
        -11   -1    0    0    0    0  0.00000000000E+00  0.00000000000E+00  0.45593999997E+02  0.45594000000E+02  0.51100000000E-03 0.  1.
         11   -1    0    0    0    0 -0.00000000000E+00 -0.00000000000E+00 -0.45593999997E+02  0.45594000000E+02  0.51100000000E-03 0. -1.
    9900012    2    1    2    0    0 -0.18044829881E+02 -0.35553488286E+02 -0.17145173040E+02  0.47787269899E+02  0.19999994778E+02 0.  0.
        -12    1    1    2    0    0  0.18044829881E+02  0.35553488286E+02  0.17145173040E+02  0.43400730101E+02  0.00000000000E+00 0.  1.
         11    1    3    3    0    0  0.51834797071E+00 -0.34696664688E+01  0.33586134710E+01  0.48567020428E+01  0.51100000000E-03 0. -1.
        -11    1    3    3    0    0 -0.68009769932E+01 -0.85265743133E+01 -0.92301187174E+01  0.14288136666E+02  0.51100000000E-03 0.  1.
         12    1    3    3    0    0 -0.11762200858E+02 -0.23557247504E+02 -0.11273667794E+02  0.28642431190E+02  0.00000000000E+00 0. -1.
</event>
<event>
 7    1  0.2430096E-009  0.4778727E+02  0.7816164E-02  0.1312668E+00
        -11   -1    0    0    0    0  0.00000000000E+00  0.00000000000E+00  0.45593999997E+02  0.45594000000E+02  0.51100000000E-03 0.  1.
         11   -1    0    0    0    0 -0.00000000000E+00 -0.00000000000E+00 -0.45593999997E+02  0.45594000000E+02  0.51100000000E-03 0. -1.
    9900012    2    1    2    0    0 -0.40597318591E+02  0.99622970446E+01 -0.11671905879E+02  0.47787273900E+02  0.20000013018E+02 0.  0.
        -12    1    1    2    0    0  0.40597318591E+02 -0.99622970446E+01  0.11671905879E+02  0.43400726100E+02  0.00000000000E+00 0.  1.
         11    1    3    3    0    0 -0.70146820433E+01  0.55969304264E+01 -0.10216855735E+02  0.13598365186E+02  0.51100000000E-03 0. -1.
        -11    1    3    3    0    0 -0.26775606883E+02  0.40174592351E+01  0.56084038122E+00  0.27081130790E+02  0.51100000000E-03 0.  1.
         12    1    3    3    0    0 -0.68070296646E+01  0.34790738318E+00 -0.20158905253E+01  0.71077779237E+01  0.00000000000E+00 0. -1.
</event>
<event>
 7    1  0.2430096E-009  0.4778728E+02  0.7816164E-02  0.1312668E+00
        -11   -1    0    0    0    0  0.00000000000E+00  0.00000000000E+00  0.45593999997E+02  0.45594000000E+02  0.51100000000E-03 0.  1.
         11   -1    0    0    0    0 -0.00000000000E+00 -0.00000000000E+00 -0.45593999997E+02  0.45594000000E+02  0.51100000000E-03 0. -1.
    9900012    2    1    2    0    0 -0.37580139886E+02  0.21277963353E+02  0.43131891398E+01  0.47787282969E+02  0.20000054367E+02 0.  0.
        -12    1    1    2    0    0  0.37580139886E+02 -0.21277963353E+02 -0.43131891398E+01  0.43400717031E+02  0.00000000000E+00 0.  1.
         11    1    3    3    0    0 -0.26743352684E+01  0.27508717391E+01 -0.55632500295E+00  0.38767076525E+01  0.51100000000E-03 0. -1.
        -11    1    3    3    0    0 -0.26013301481E+02  0.21665232946E+02  0.61057125803E+01  0.34399911322E+02  0.51100000000E-03 0.  1.
        -12    1    3    3    0    0 -0.88925031359E+01 -0.31381413319E+01 -0.12361984376E+01  0.95106639946E+01  0.00000000000E+00 0.  1.
</event>
<event>
 7    1  0.2430096E-009  0.4778728E+02  0.7816164E-02  0.1312668E+00
        -11   -1    0    0    0    0  0.00000000000E+00  0.00000000000E+00  0.45593999997E+02  0.45594000000E+02  0.51100000000E-03 0. -1.
         11   -1    0    0    0    0 -0.00000000000E+00 -0.00000000000E+00 -0.45593999997E+02  0.45594000000E+02  0.51100000000E-03 0.  1.
    9900012    2    1    2    0    0  0.34319897551E+02 -0.13243036068E+02  0.23030186709E+02  0.47787275673E+02  0.20000021105E+02 0.  0.
        -12    1    1    2    0    0 -0.34319897551E+02  0.13243036068E+02 -0.23030186709E+02  0.43400724327E+02  0.00000000000E+00 0.  1.
         11    1    3    3    0    0  0.12440043852E+02 -0.84113418269E+01  0.58133453985E+00  0.15028084125E+02  0.51100000000E-03 0. -1.
        -11    1    3    3    0    0  0.11649555153E+02 -0.27840408326E+01  0.17513413231E+02  0.21217508381E+02  0.51100000000E-03 0.  1.
        -12    1    3    3    0    0  0.10230298546E+02 -0.20476534089E+01  0.49354389382E+01  0.11541683168E+02  0.00000000000E+00 0.  1.
</event>
<event>
 7    1  0.2430096E-009  0.4778726E+02  0.7816164E-02  0.1312668E+00
        -11   -1    0    0    0    0  0.00000000000E+00  0.00000000000E+00  0.45593999997E+02  0.45594000000E+02  0.51100000000E-03 0. -1.
         11   -1    0    0    0    0 -0.00000000000E+00 -0.00000000000E+00 -0.45593999997E+02  0.45594000000E+02  0.51100000000E-03 0.  1.
    9900012    2    1    2    0    0 -0.86370915216E+01  0.29855940634E+02  0.30292704152E+02  0.47787257311E+02  0.19999937386E+02 0.  0.
        -12    1    1    2    0    0  0.86370915216E+01 -0.29855940634E+02 -0.30292704152E+02  0.43400742689E+02  0.00000000000E+00 0.  1.
         11    1    3    3    0    0 -0.38104709756E+01  0.38256168939E+01  0.85225395528E+01  0.10089039318E+02  0.51100000000E-03 0. -1.
        -11    1    3    3    0    0  0.57479258083E+01  0.76228169170E+01  0.69034800886E+01  0.11781512061E+02  0.51100000000E-03 0.  1.
        -12    1    3    3    0    0 -0.10574546354E+02  0.18407506823E+02  0.14866684510E+02  0.25916705932E+02  0.00000000000E+00 0.  1.
</event>
<event>
 7    1  0.2430096E-009  0.4778727E+02  0.7816164E-02  0.1312668E+00
        -11   -1    0    0    0    0  0.00000000000E+00  0.00000000000E+00  0.45593999997E+02  0.45594000000E+02  0.51100000000E-03 0.  1.
         11   -1    0    0    0    0 -0.00000000000E+00 -0.00000000000E+00 -0.45593999997E+02  0.45594000000E+02  0.51100000000E-03 0. -1.
    9900012    2    1    2    0    0 -0.13021607522E+02  0.14790195737E+02 -0.38669253441E+02  0.47787270581E+02  0.19999997888E+02 0.  0.
        -12    1    1    2    0    0  0.13021607522E+02 -0.14790195737E+02  0.38669253441E+02  0.43400729419E+02  0.00000000000E+00 0.  1.
         11    1    3    3    0    0 -0.10872545450E+02  0.14505862576E+02 -0.27601291016E+02  0.33022167700E+02  0.51100000000E-03 0. -1.
        -11    1    3    3    0    0 -0.29525217172E+01 -0.81453541852E+00  0.51207428526E+00  0.31053297367E+01  0.51100000000E-03 0.  1.
        -12    1    3    3    0    0  0.80345964539E+00  0.10988685801E+01 -0.11580036710E+02  0.11659773144E+02  0.00000000000E+00 0.  1.
</event>
<event>
 7    1  0.2430096E-009  0.4778727E+02  0.7816164E-02  0.1312668E+00
        -11   -1    0    0    0    0  0.00000000000E+00  0.00000000000E+00  0.45593999997E+02  0.45594000000E+02  0.51100000000E-03 0.  1.
         11   -1    0    0    0    0 -0.00000000000E+00 -0.00000000000E+00 -0.45593999997E+02  0.45594000000E+02  0.51100000000E-03 0. -1.
    9900012    2    1    2    0    0  0.24248370118E+02  0.23282284833E+02 -0.27451326767E+02  0.47787267498E+02  0.19999983832E+02 0.  0.
        -12    1    1    2    0    0 -0.24248370118E+02 -0.23282284833E+02  0.27451326767E+02  0.43400732502E+02  0.00000000000E+00 0.  1.
         11    1    3    3    0    0  0.19679460976E+02  0.24134805142E+02 -0.22919384880E+02  0.38666111869E+02  0.51100000000E-03 0. -1.
        -11    1    3    3    0    0  0.72430827664E+00 -0.63982844659E+00  0.16066264146E+01  0.18749004288E+01  0.51100000000E-03 0.  1.
         12    1    3    3    0    0  0.38446008654E+01 -0.21269186226E+00 -0.61385683013E+01  0.72462552006E+01  0.00000000000E+00 0. -1.
</event>
<event>
 7    1  0.2430096E-009  0.4778727E+02  0.7816164E-02  0.1312668E+00
        -11   -1    0    0    0    0  0.00000000000E+00  0.00000000000E+00  0.45593999997E+02  0.45594000000E+02  0.51100000000E-03 0. -1.
         11   -1    0    0    0    0 -0.00000000000E+00 -0.00000000000E+00 -0.45593999997E+02  0.45594000000E+02  0.51100000000E-03 0.  1.
    9900012    2    1    2    0    0  0.16155667746E+02  0.33238594060E+02 -0.22755522582E+02  0.47787267939E+02  0.19999985843E+02 0.  0.
        -12    1    1    2    0    0 -0.16155667746E+02 -0.33238594060E+02  0.22755522582E+02  0.43400732061E+02  0.00000000000E+00 0.  1.
         11    1    3    3    0    0  0.12370464940E+02  0.19496544529E+02 -0.14470495092E+02  0.27249566600E+02  0.51100000000E-03 0. -1.
        -11    1    3    3    0    0  0.62703379120E+01  0.89001202190E+01 -0.10049613999E+02  0.14816342977E+02  0.51100000000E-03 0.  1.
         12    1    3    3    0    0 -0.24851351058E+01  0.48419293127E+01  0.17645865092E+01  0.57213583624E+01  0.00000000000E+00 0. -1.
</event>
<event>
 7    1  0.2430096E-009  0.4778727E+02  0.7816164E-02  0.1312668E+00
        -11   -1    0    0    0    0  0.00000000000E+00  0.00000000000E+00  0.45593999997E+02  0.45594000000E+02  0.51100000000E-03 0. -1.
         11   -1    0    0    0    0 -0.00000000000E+00 -0.00000000000E+00 -0.45593999997E+02  0.45594000000E+02  0.51100000000E-03 0.  1.
    9900012    2    1    2    0    0 -0.11218348352E+02  0.41917929670E+02  0.81177613151E+00  0.47787272494E+02  0.20000006608E+02 0.  0.
        -12    1    1    2    0    0  0.11218348352E+02 -0.41917929670E+02 -0.81177613151E+00  0.43400727506E+02  0.00000000000E+00 0.  1.
         11    1    3    3    0    0 -0.84043201567E+01  0.16117521629E+02  0.43061103963E+01  0.18680195068E+02  0.51100000000E-03 0. -1.
        -11    1    3    3    0    0  0.38008512151E+01  0.23276575204E+01 -0.11798383647E+01  0.46104748475E+01  0.51100000000E-03 0.  1.
        -12    1    3    3    0    0 -0.66148794108E+01  0.23472750521E+02 -0.23144959001E+01  0.24496602579E+02  0.00000000000E+00 0.  1.
</event>
<event>
 7    1  0.2430096E-009  0.4778727E+02  0.7816164E-02  0.1312668E+00
        -11   -1    0    0    0    0  0.00000000000E+00  0.00000000000E+00  0.45593999997E+02  0.45594000000E+02  0.51100000000E-03 0.  1.
         11   -1    0    0    0    0 -0.00000000000E+00 -0.00000000000E+00 -0.45593999997E+02  0.45594000000E+02  0.51100000000E-03 0. -1.
    9900012    2    1    2    0    0 -0.43085352752E+02 -0.51163499818E+01 -0.10482768060E+01  0.47787267942E+02  0.19999985854E+02 0.  0.
        -12    1    1    2    0    0  0.43085352752E+02  0.51163499818E+01  0.10482768060E+01  0.43400732058E+02  0.00000000000E+00 0.  1.
         11    1    3    3    0    0 -0.27177095150E+02  0.29502073823E+01  0.25859157630E+01  0.27458790668E+02  0.51100000000E-03 0. -1.
        -11    1    3    3    0    0  0.41836169608E+00 -0.27414917282E+01 -0.10336834519E+01  0.29596123301E+01  0.51100000000E-03 0.  1.
         12    1    3    3    0    0 -0.16326619299E+02 -0.53250656359E+01 -0.26005091172E+01  0.17368864943E+02  0.00000000000E+00 0. -1.
</event>
<event>
 7    1  0.2430096E-009  0.4778727E+02  0.7816164E-02  0.1312668E+00
        -11   -1    0    0    0    0  0.00000000000E+00  0.00000000000E+00  0.45593999997E+02  0.45594000000E+02  0.51100000000E-03 0.  1.
         11   -1    0    0    0    0 -0.00000000000E+00 -0.00000000000E+00 -0.45593999997E+02  0.45594000000E+02  0.51100000000E-03 0. -1.
    9900012    2    1    2    0    0  0.33850213632E+02 -0.10461653776E+02  0.25066710581E+02  0.47787272564E+02  0.20000006927E+02 0.  0.
        -12    1    1    2    0    0 -0.33850213632E+02  0.10461653776E+02 -0.25066710581E+02  0.43400727436E+02  0.00000000000E+00 0.  1.
         11    1    3    3    0    0  0.24810825332E+02 -0.82813614755E+01  0.90826757913E+01  0.27688499441E+02  0.51100000000E-03 0. -1.
        -11    1    3    3    0    0  0.88210987903E+01  0.21747547984E+00  0.15183927289E+02  0.17561626565E+02  0.51100000000E-03 0.  1.
        -12    1    3    3    0    0  0.21828951019E+00 -0.23977677803E+01  0.80010750088E+00  0.25371465570E+01  0.00000000000E+00 0.  1.
</event>
<event>
 7    1  0.2430096E-009  0.4778727E+02  0.7816164E-02  0.1312668E+00
        -11   -1    0    0    0    0  0.00000000000E+00  0.00000000000E+00  0.45593999997E+02  0.45594000000E+02  0.51100000000E-03 0.  1.
         11   -1    0    0    0    0 -0.00000000000E+00 -0.00000000000E+00 -0.45593999997E+02  0.45594000000E+02  0.51100000000E-03 0. -1.
    9900012    2    1    2    0    0 -0.10608104471E+02  0.16026785842E+02 -0.38913152262E+02  0.47787272312E+02  0.20000005779E+02 0.  0.
        -12    1    1    2    0    0  0.10608104471E+02 -0.16026785842E+02  0.38913152262E+02  0.43400727688E+02  0.00000000000E+00 0.  1.
         11    1    3    3    0    0 -0.90038152773E+01  0.12249688002E+02 -0.30209454969E+02  0.33819147173E+02  0.51100000000E-03 0. -1.
        -11    1    3    3    0    0 -0.34370246603E+01 -0.21610784603E-01  0.83629782907E+00  0.35373718862E+01  0.51100000000E-03 0.  1.
        -12    1    3    3    0    0  0.18327354662E+01  0.37987086251E+01 -0.95399951216E+01  0.10430753253E+02  0.00000000000E+00 0.  1.
</event>
<event>
 7    1  0.2430096E-009  0.4778726E+02  0.7816164E-02  0.1312668E+00
        -11   -1    0    0    0    0  0.00000000000E+00  0.00000000000E+00  0.45593999997E+02  0.45594000000E+02  0.51100000000E-03 0. -1.
         11   -1    0    0    0    0 -0.00000000000E+00 -0.00000000000E+00 -0.45593999997E+02  0.45594000000E+02  0.51100000000E-03 0.  1.
    9900012    2    1    2    0    0  0.18017452760E+02 -0.34449602501E+02  0.19293012127E+02  0.47787262295E+02  0.19999960106E+02 0.  0.
        -12    1    1    2    0    0 -0.18017452760E+02  0.34449602501E+02 -0.19293012127E+02  0.43400737705E+02  0.00000000000E+00 0.  1.
         11    1    3    3    0    0  0.19366511006E+02 -0.30371534260E+02  0.12572449542E+02  0.38151780162E+02  0.51100000000E-03 0. -1.
        -11    1    3    3    0    0 -0.21822132551E+01 -0.11337524455E+01  0.60106914121E+01  0.64942944814E+01  0.51100000000E-03 0.  1.
        -12    1    3    3    0    0  0.83315500969E+00 -0.29443157957E+01  0.70987117301E+00  0.31411876508E+01  0.00000000000E+00 0.  1.
</event>
<event>
 7    1  0.2430096E-009  0.4778728E+02  0.7816164E-02  0.1312668E+00
        -11   -1    0    0    0    0  0.00000000000E+00  0.00000000000E+00  0.45593999997E+02  0.45594000000E+02  0.51100000000E-03 0. -1.
         11   -1    0    0    0    0 -0.00000000000E+00 -0.00000000000E+00 -0.45593999997E+02  0.45594000000E+02  0.51100000000E-03 0.  1.
    9900012    2    1    2    0    0 -0.93796226206E+01 -0.42195140208E+02 -0.39007100054E+01  0.47787277469E+02  0.20000029291E+02 0.  0.
        -12    1    1    2    0    0  0.93796226206E+01  0.42195140208E+02  0.39007100054E+01  0.43400722531E+02  0.00000000000E+00 0.  1.
         11    1    3    3    0    0 -0.40144060149E+01 -0.77361245702E+01 -0.34376741861E+01  0.93691345966E+01  0.51100000000E-03 0. -1.
        -11    1    3    3    0    0 -0.58147351425E+01 -0.34125119104E+02 -0.39907644007E+01  0.34846249431E+02  0.51100000000E-03 0.  1.
        -12    1    3    3    0    0  0.44951853680E+00 -0.33389653390E+00  0.35277285814E+01  0.35718934410E+01  0.00000000000E+00 0.  1.
</event>
<event>
 7    1  0.2430096E-009  0.4778727E+02  0.7816164E-02  0.1312668E+00
        -11   -1    0    0    0    0  0.00000000000E+00  0.00000000000E+00  0.45593999997E+02  0.45594000000E+02  0.51100000000E-03 0. -1.
         11   -1    0    0    0    0 -0.00000000000E+00 -0.00000000000E+00 -0.45593999997E+02  0.45594000000E+02  0.51100000000E-03 0.  1.
    9900012    2    1    2    0    0  0.39999049411E+02 -0.16395858217E+02 -0.38568522007E+01  0.47787269253E+02  0.19999991833E+02 0.  0.
        -12    1    1    2    0    0 -0.39999049411E+02  0.16395858217E+02  0.38568522007E+01  0.43400730747E+02  0.00000000000E+00 0.  1.
         11    1    3    3    0    0  0.12467679744E+02 -0.18908105893E+01 -0.16608009635E+01  0.12719137666E+02  0.51100000000E-03 0. -1.
        -11    1    3    3    0    0  0.14175053791E+02 -0.69010112042E+01  0.68994108047E+01  0.17209240987E+02  0.51100000000E-03 0.  1.
        -12    1    3    3    0    0  0.13356315876E+02 -0.76040364236E+01 -0.90954620419E+01  0.17858890600E+02  0.00000000000E+00 0.  1.
</event>
<event>
 7    1  0.2430096E-009  0.4778727E+02  0.7816164E-02  0.1312668E+00
        -11   -1    0    0    0    0  0.00000000000E+00  0.00000000000E+00  0.45593999997E+02  0.45594000000E+02  0.51100000000E-03 0.  1.
         11   -1    0    0    0    0 -0.00000000000E+00 -0.00000000000E+00 -0.45593999997E+02  0.45594000000E+02  0.51100000000E-03 0. -1.
    9900012    2    1    2    0    0  0.25795574233E+01 -0.19056327777E+02 -0.38907911058E+02  0.47787270885E+02  0.19999999271E+02 0.  0.
        -12    1    1    2    0    0 -0.25795574233E+01  0.19056327777E+02  0.38907911058E+02  0.43400729115E+02  0.00000000000E+00 0.  1.
         11    1    3    3    0    0  0.24241070081E+01 -0.12505796168E+02 -0.30162961894E+02  0.32742564089E+02  0.51100000000E-03 0. -1.
        -11    1    3    3    0    0  0.11512659584E+01  0.23544515086E+01 -0.14480156029E+00  0.26248472272E+01  0.51100000000E-03 0.  1.
         12    1    3    3    0    0 -0.99581554317E+00 -0.89049831167E+01 -0.86001476037E+01  0.12419859569E+02  0.00000000000E+00 0. -1.
</event>
<event>
 7    1  0.2430096E-009  0.4778728E+02  0.7816164E-02  0.1312668E+00
        -11   -1    0    0    0    0  0.00000000000E+00  0.00000000000E+00  0.45593999997E+02  0.45594000000E+02  0.51100000000E-03 0. -1.
         11   -1    0    0    0    0 -0.00000000000E+00 -0.00000000000E+00 -0.45593999997E+02  0.45594000000E+02  0.51100000000E-03 0.  1.
    9900012    2    1    2    0    0  0.21535697475E+02 -0.84258071380E+01  0.36726580779E+02  0.47787283100E+02  0.20000054968E+02 0.  0.
        -12    1    1    2    0    0 -0.21535697475E+02  0.84258071380E+01 -0.36726580779E+02  0.43400716900E+02  0.00000000000E+00 0.  1.
         11    1    3    3    0    0  0.14270083390E+02 -0.74844754415E+01  0.12962386117E+02  0.20680331397E+02  0.51100000000E-03 0. -1.
        -11    1    3    3    0    0  0.63830380899E+01 -0.51445743360E+01  0.11582359409E+02  0.14190168078E+02  0.51100000000E-03 0.  1.
         12    1    3    3    0    0  0.88257599570E+00  0.42032426395E+01  0.12181835254E+02  0.12916783625E+02  0.00000000000E+00 0. -1.
</event>
<event>
 7    1  0.2430096E-009  0.4778727E+02  0.7816164E-02  0.1312668E+00
        -11   -1    0    0    0    0  0.00000000000E+00  0.00000000000E+00  0.45593999997E+02  0.45594000000E+02  0.51100000000E-03 0.  1.
         11   -1    0    0    0    0 -0.00000000000E+00 -0.00000000000E+00 -0.45593999997E+02  0.45594000000E+02  0.51100000000E-03 0. -1.
    9900012    2    1    2    0    0 -0.16803307189E+02 -0.82657870370E+01 -0.39152890119E+02  0.47787272212E+02  0.20000005325E+02 0.  0.
        -12    1    1    2    0    0  0.16803307189E+02  0.82657870370E+01  0.39152890119E+02  0.43400727788E+02  0.00000000000E+00 0.  1.
         11    1    3    3    0    0 -0.18119283577E+01 -0.10219553181E+02 -0.21674350344E+02  0.24031225826E+02  0.51100000000E-03 0. -1.
        -11    1    3    3    0    0 -0.88623388358E+01  0.20642116558E+01 -0.65021495035E+01  0.11183915586E+02  0.51100000000E-03 0.  1.
         12    1    3    3    0    0 -0.61290399953E+01 -0.11044551140E+00 -0.10976390272E+02  0.12572130801E+02  0.00000000000E+00 0. -1.
</event>
<event>
 7    1  0.2430096E-009  0.4778727E+02  0.7816164E-02  0.1312668E+00
        -11   -1    0    0    0    0  0.00000000000E+00  0.00000000000E+00  0.45593999997E+02  0.45594000000E+02  0.51100000000E-03 0.  1.
         11   -1    0    0    0    0 -0.00000000000E+00 -0.00000000000E+00 -0.45593999997E+02  0.45594000000E+02  0.51100000000E-03 0. -1.
    9900012    2    1    2    0    0  0.42198700265E+02 -0.52889683732E+01  0.86556180177E+01  0.47787271736E+02  0.20000003155E+02 0.  0.
        -12    1    1    2    0    0 -0.42198700265E+02  0.52889683732E+01 -0.86556180177E+01  0.43400728264E+02  0.00000000000E+00 0.  1.
         11    1    3    3    0    0  0.11550544640E+02 -0.15364866218E+00  0.10664300640E+01  0.11600688028E+02  0.51100000000E-03 0. -1.
        -11    1    3    3    0    0  0.89169583828E+01 -0.42770092571E+01  0.10289307838E+02  0.14271468426E+02  0.51100000000E-03 0.  1.
        -12    1    3    3    0    0  0.21731197243E+02 -0.85831045400E+00 -0.27001198845E+01  0.21915115282E+02  0.00000000000E+00 0.  1.
</event>
<event>
 7    1  0.2430096E-009  0.4778727E+02  0.7816164E-02  0.1312668E+00
        -11   -1    0    0    0    0  0.00000000000E+00  0.00000000000E+00  0.45593999997E+02  0.45594000000E+02  0.51100000000E-03 0. -1.
         11   -1    0    0    0    0 -0.00000000000E+00 -0.00000000000E+00 -0.45593999997E+02  0.45594000000E+02  0.51100000000E-03 0.  1.
    9900012    2    1    2    0    0 -0.77087092199E+01 -0.98745673437E+00  0.42699228308E+02  0.47787269975E+02  0.19999995124E+02 0.  0.
        -12    1    1    2    0    0  0.77087092199E+01  0.98745673437E+00 -0.42699228308E+02  0.43400730025E+02  0.00000000000E+00 0.  1.
         11    1    3    3    0    0 -0.43297761910E+01 -0.47144361985E+01  0.60127660899E+01  0.87821538843E+01  0.51100000000E-03 0. -1.
        -11    1    3    3    0    0  0.11384697172E+01 -0.14542613008E+01  0.27343715604E+02  0.27406017086E+02  0.51100000000E-03 0.  1.
        -12    1    3    3    0    0 -0.45174027462E+01  0.51812407649E+01  0.93427466135E+01  0.11599099005E+02  0.00000000000E+00 0.  1.
</event>
<event>
 7    1  0.2430096E-009  0.4778726E+02  0.7816164E-02  0.1312668E+00
        -11   -1    0    0    0    0  0.00000000000E+00  0.00000000000E+00  0.45593999997E+02  0.45594000000E+02  0.51100000000E-03 0. -1.
         11   -1    0    0    0    0 -0.00000000000E+00 -0.00000000000E+00 -0.45593999997E+02  0.45594000000E+02  0.51100000000E-03 0.  1.
    9900012    2    1    2    0    0  0.31383408080E+02  0.10166037924E+02  0.28202077796E+02  0.47787264732E+02  0.19999971218E+02 0.  0.
        -12    1    1    2    0    0 -0.31383408080E+02 -0.10166037924E+02 -0.28202077796E+02  0.43400735268E+02  0.00000000000E+00 0.  1.
         11    1    3    3    0    0  0.26398508285E+02  0.10446289190E+02  0.20377888982E+02  0.34946595787E+02  0.51100000000E-03 0. -1.
        -11    1    3    3    0    0 -0.21316283626E+00  0.19674928378E+01  0.68044036808E+01  0.70863514007E+01  0.51100000000E-03 0.  1.
         12    1    3    3    0    0  0.51980626315E+01 -0.22477441035E+01  0.10197851332E+01  0.57543175437E+01  0.00000000000E+00 0. -1.
</event>
<event>
 7    1  0.2430096E-009  0.4778727E+02  0.7816164E-02  0.1312668E+00
        -11   -1    0    0    0    0  0.00000000000E+00  0.00000000000E+00  0.45593999997E+02  0.45594000000E+02  0.51100000000E-03 0. -1.
         11   -1    0    0    0    0 -0.00000000000E+00 -0.00000000000E+00 -0.45593999997E+02  0.45594000000E+02  0.51100000000E-03 0.  1.
    9900012    2    1    2    0    0 -0.43182291254E+02  0.29856362038E+01 -0.31620936926E+01  0.47787272610E+02  0.20000007136E+02 0.  0.
        -12    1    1    2    0    0  0.43182291254E+02 -0.29856362038E+01  0.31620936926E+01  0.43400727390E+02  0.00000000000E+00 0.  1.
         11    1    3    3    0    0 -0.26363518717E+02  0.10481130035E+01  0.38893781907E+01  0.26669475491E+02  0.51100000000E-03 0. -1.
        -11    1    3    3    0    0 -0.13821790662E+02  0.52636600304E+01 -0.75627260860E+01  0.16611527327E+02  0.51100000000E-03 0.  1.
        -12    1    3    3    0    0 -0.29969818753E+01 -0.33261368301E+01  0.51125420265E+00  0.45062697915E+01  0.00000000000E+00 0.  1.
</event>
<event>
 7    1  0.2430096E-009  0.4778727E+02  0.7816164E-02  0.1312668E+00
        -11   -1    0    0    0    0  0.00000000000E+00  0.00000000000E+00  0.45593999997E+02  0.45594000000E+02  0.51100000000E-03 0.  1.
         11   -1    0    0    0    0 -0.00000000000E+00 -0.00000000000E+00 -0.45593999997E+02  0.45594000000E+02  0.51100000000E-03 0. -1.
    9900012    2    1    2    0    0  0.34730482692E+02  0.17143474025E+02  0.19583627741E+02  0.47787267228E+02  0.19999982597E+02 0.  0.
        -12    1    1    2    0    0 -0.34730482692E+02 -0.17143474025E+02 -0.19583627741E+02  0.43400732772E+02  0.00000000000E+00 0.  1.
         11    1    3    3    0    0  0.27994130180E+02  0.90650679946E+01  0.19750339838E+02  0.35438999792E+02  0.51100000000E-03 0. -1.
        -11    1    3    3    0    0  0.30346456083E+01  0.40966715870E+00 -0.19738555975E+01  0.36432138737E+01  0.51100000000E-03 0.  1.
         12    1    3    3    0    0  0.37017069045E+01  0.76687388715E+01  0.18071435003E+01  0.87050535620E+01  0.00000000000E+00 0. -1.
</event>
<event>
 7    1  0.2430096E-009  0.4778727E+02  0.7816164E-02  0.1312668E+00
        -11   -1    0    0    0    0  0.00000000000E+00  0.00000000000E+00  0.45593999997E+02  0.45594000000E+02  0.51100000000E-03 0.  1.
         11   -1    0    0    0    0 -0.00000000000E+00 -0.00000000000E+00 -0.45593999997E+02  0.45594000000E+02  0.51100000000E-03 0. -1.
    9900012    2    1    2    0    0  0.21469986270E+02 -0.14252612034E+02  0.34921714677E+02  0.47787269405E+02  0.19999992524E+02 0.  0.
        -12    1    1    2    0    0 -0.21469986270E+02  0.14252612034E+02 -0.34921714677E+02  0.43400730595E+02  0.00000000000E+00 0.  1.
         11    1    3    3    0    0  0.99057013751E+01 -0.81399822912E+01  0.18557754107E+02  0.22555985219E+02  0.51100000000E-03 0. -1.
        -11    1    3    3    0    0 -0.21216578234E+00  0.74588737573E+00 -0.21252348208E+01  0.22622965326E+01  0.51100000000E-03 0.  1.
        -12    1    3    3    0    0  0.11776450677E+02 -0.68585171183E+01  0.18489195392E+02  0.22968987654E+02  0.00000000000E+00 0.  1.
</event>
<event>
 7    1  0.2430096E-009  0.4778725E+02  0.7816164E-02  0.1312668E+00
        -11   -1    0    0    0    0  0.00000000000E+00  0.00000000000E+00  0.45593999997E+02  0.45594000000E+02  0.51100000000E-03 0. -1.
         11   -1    0    0    0    0 -0.00000000000E+00 -0.00000000000E+00 -0.45593999997E+02  0.45594000000E+02  0.51100000000E-03 0.  1.
    9900012    2    1    2    0    0  0.38729141461E+02  0.16465353485E+02  0.10609924910E+02  0.47787253805E+02  0.19999921396E+02 0.  0.
        -12    1    1    2    0    0 -0.38729141461E+02 -0.16465353485E+02 -0.10609924910E+02  0.43400746195E+02  0.00000000000E+00 0.  1.
         11    1    3    3    0    0  0.23480431387E+02  0.10446547306E+02  0.74806018915E+01  0.26766030966E+02  0.51100000000E-03 0. -1.
        -11    1    3    3    0    0  0.14344175826E+01  0.58852682646E+01 -0.18540742234E+01  0.63349449749E+01  0.51100000000E-03 0.  1.
        -12    1    3    3    0    0  0.13814292491E+02  0.13353791426E+00  0.49833972421E+01  0.14686277864E+02  0.00000000000E+00 0.  1.
</event>
<event>
 7    1  0.2430096E-009  0.4778727E+02  0.7816164E-02  0.1312668E+00
        -11   -1    0    0    0    0  0.00000000000E+00  0.00000000000E+00  0.45593999997E+02  0.45594000000E+02  0.51100000000E-03 0. -1.
         11   -1    0    0    0    0 -0.00000000000E+00 -0.00000000000E+00 -0.45593999997E+02  0.45594000000E+02  0.51100000000E-03 0.  1.
    9900012    2    1    2    0    0 -0.29142817937E+01 -0.23219861472E+02  0.36550901363E+02  0.47787269642E+02  0.19999993605E+02 0.  0.
        -12    1    1    2    0    0  0.29142817937E+01  0.23219861472E+02 -0.36550901363E+02  0.43400730358E+02  0.00000000000E+00 0.  1.
         11    1    3    3    0    0  0.26277548875E+01  0.16712101154E+01  0.75719101151E+01  0.81872988250E+01  0.51100000000E-03 0.  1.
        -11    1    3    3    0    0 -0.64583348638E+01 -0.90649214811E+01  0.11560599978E+02  0.16047752578E+02  0.51100000000E-03 0. -1.
         12    1    3    3    0    0  0.91629818264E+00 -0.15826150106E+02  0.17418391270E+02  0.23552218239E+02  0.00000000000E+00 0. -1.
</event>
<event>
 7    1  0.2430096E-009  0.4778727E+02  0.7816164E-02  0.1312668E+00
        -11   -1    0    0    0    0  0.00000000000E+00  0.00000000000E+00  0.45593999997E+02  0.45594000000E+02  0.51100000000E-03 0.  1.
         11   -1    0    0    0    0 -0.00000000000E+00 -0.00000000000E+00 -0.45593999997E+02  0.45594000000E+02  0.51100000000E-03 0. -1.
    9900012    2    1    2    0    0 -0.27149667599E+01 -0.24560615862E+02 -0.35679519789E+02  0.47787273872E+02  0.20000012894E+02 0.  0.
        -12    1    1    2    0    0  0.27149667599E+01  0.24560615862E+02  0.35679519789E+02  0.43400726128E+02  0.00000000000E+00 0.  1.
         11    1    3    3    0    0  0.24277158417E+01 -0.67687429432E+01 -0.12592179119E+02  0.14500781375E+02  0.51100000000E-03 0. -1.
        -11    1    3    3    0    0 -0.83746389476E+01 -0.66364599233E+01 -0.17241349292E+02  0.20284015960E+02  0.51100000000E-03 0.  1.
        -12    1    3    3    0    0  0.32319563459E+01 -0.11155412996E+02 -0.58459913779E+01  0.13002476538E+02  0.00000000000E+00 0.  1.
</event>
<event>
 7    1  0.2430096E-009  0.4778727E+02  0.7816164E-02  0.1312668E+00
        -11   -1    0    0    0    0  0.00000000000E+00  0.00000000000E+00  0.45593999997E+02  0.45594000000E+02  0.51100000000E-03 0. -1.
         11   -1    0    0    0    0 -0.00000000000E+00 -0.00000000000E+00 -0.45593999997E+02  0.45594000000E+02  0.51100000000E-03 0.  1.
    9900012    2    1    2    0    0  0.38966678387E+02 -0.39163900924E+01  0.18705158052E+02  0.47787273352E+02  0.20000010519E+02 0.  0.
        -12    1    1    2    0    0 -0.38966678387E+02  0.39163900924E+01 -0.18705158052E+02  0.43400726648E+02  0.00000000000E+00 0.  1.
         11    1    3    3    0    0  0.24825406023E+02 -0.86827509279E+01  0.14132504621E+02  0.29856634690E+02  0.51100000000E-03 0. -1.
        -11    1    3    3    0    0  0.97915674339E+01  0.24304272862E+01 -0.13957399457E+01  0.10184785705E+02  0.51100000000E-03 0.  1.
         12    1    3    3    0    0  0.43497049301E+01  0.23359335494E+01  0.59683933761E+01  0.77458529561E+01  0.00000000000E+00 0. -1.
</event>
<event>
 7    1  0.2430096E-009  0.4778724E+02  0.7816164E-02  0.1312668E+00
        -11   -1    0    0    0    0  0.00000000000E+00  0.00000000000E+00  0.45593999997E+02  0.45594000000E+02  0.51100000000E-03 0.  1.
         11   -1    0    0    0    0 -0.00000000000E+00 -0.00000000000E+00 -0.45593999997E+02  0.45594000000E+02  0.51100000000E-03 0. -1.
    9900012    2    1    2    0    0  0.15571520841E+02  0.85453428580E+01 -0.39599635355E+02  0.47787236572E+02  0.19999842826E+02 0.  0.
        -12    1    1    2    0    0 -0.15571520841E+02 -0.85453428580E+01  0.39599635355E+02  0.43400763428E+02  0.00000000000E+00 0.  1.
         11    1    3    3    0    0  0.35123356420E+01  0.10087868872E+02 -0.16536097457E+02  0.19686140287E+02  0.51100000000E-03 0.  1.
        -11    1    3    3    0    0  0.38199752230E+01 -0.54509637673E+01 -0.72162465347E+01  0.98173026340E+01  0.51100000000E-03 0. -1.
         12    1    3    3    0    0  0.82392099757E+01  0.39084377532E+01 -0.15847291364E+02  0.18283793651E+02  0.00000000000E+00 0. -1.
</event>
<event>
 7    1  0.2430096E-009  0.4778727E+02  0.7816164E-02  0.1312668E+00
        -11   -1    0    0    0    0  0.00000000000E+00  0.00000000000E+00  0.45593999997E+02  0.45594000000E+02  0.51100000000E-03 0.  1.
         11   -1    0    0    0    0 -0.00000000000E+00 -0.00000000000E+00 -0.45593999997E+02  0.45594000000E+02  0.51100000000E-03 0. -1.
    9900012    2    1    2    0    0 -0.28133258961E+02 -0.25704377786E+02 -0.20770847152E+02  0.47787269724E+02  0.19999993978E+02 0.  0.
        -12    1    1    2    0    0  0.28133258961E+02  0.25704377786E+02  0.20770847152E+02  0.43400730276E+02  0.00000000000E+00 0.  1.
         11    1    3    3    0    0 -0.10982133702E+02 -0.93813934614E+01 -0.24496096238E+01  0.14649859777E+02  0.51100000000E-03 0. -1.
        -11    1    3    3    0    0 -0.69952247334E+01 -0.14361959740E+02 -0.15847853136E+02  0.22502300014E+02  0.51100000000E-03 0.  1.
        -12    1    3    3    0    0 -0.10155900526E+02 -0.19610245842E+01 -0.24733843915E+01  0.10635109932E+02  0.00000000000E+00 0.  1.
</event>
<event>
 7    1  0.2430096E-009  0.4778726E+02  0.7816164E-02  0.1312668E+00
        -11   -1    0    0    0    0  0.00000000000E+00  0.00000000000E+00  0.45593999997E+02  0.45594000000E+02  0.51100000000E-03 0.  1.
         11   -1    0    0    0    0 -0.00000000000E+00 -0.00000000000E+00 -0.45593999997E+02  0.45594000000E+02  0.51100000000E-03 0. -1.
    9900012    2    1    2    0    0 -0.88095956249E+01 -0.23271987132E+02 -0.35558817898E+02  0.47787263941E+02  0.19999967614E+02 0.  0.
        -12    1    1    2    0    0  0.88095956249E+01  0.23271987132E+02  0.35558817898E+02  0.43400736059E+02  0.00000000000E+00 0.  1.
         11    1    3    3    0    0 -0.90732731306E+01 -0.15987532011E+02 -0.32174447282E+02  0.37055640910E+02  0.51100000000E-03 0. -1.
        -11    1    3    3    0    0  0.45673335585E-01  0.61215884726E+00 -0.27375865705E+01  0.28055667876E+01  0.51100000000E-03 0.  1.
         12    1    3    3    0    0  0.21800417008E+00 -0.78966139680E+01 -0.64678404567E+00  0.79260562438E+01  0.00000000000E+00 0. -1.
</event>
<event>
 7    1  0.2430096E-009  0.4778727E+02  0.7816164E-02  0.1312668E+00
        -11   -1    0    0    0    0  0.00000000000E+00  0.00000000000E+00  0.45593999997E+02  0.45594000000E+02  0.51100000000E-03 0.  1.
         11   -1    0    0    0    0 -0.00000000000E+00 -0.00000000000E+00 -0.45593999997E+02  0.45594000000E+02  0.51100000000E-03 0. -1.
    9900012    2    1    2    0    0  0.13982537943E+02  0.32651245733E+01 -0.40956694659E+02  0.47787271398E+02  0.20000001614E+02 0.  0.
        -12    1    1    2    0    0 -0.13982537943E+02 -0.32651245733E+01  0.40956694659E+02  0.43400728602E+02  0.00000000000E+00 0.  1.
         11    1    3    3    0    0  0.63327837489E+01 -0.67795098335E+01 -0.23328759566E+02  0.25105715022E+02  0.51100000000E-03 0. -1.
        -11    1    3    3    0    0  0.23833042515E+01  0.43923022086E+01 -0.12356885871E+02  0.13329106742E+02  0.51100000000E-03 0.  1.
         12    1    3    3    0    0  0.52664499425E+01  0.56523321982E+01 -0.52710492211E+01  0.93524496345E+01  0.00000000000E+00 0. -1.
</event>
<event>
 7    1  0.2430096E-009  0.4778726E+02  0.7816164E-02  0.1312668E+00
        -11   -1    0    0    0    0  0.00000000000E+00  0.00000000000E+00  0.45593999997E+02  0.45594000000E+02  0.51100000000E-03 0.  1.
         11   -1    0    0    0    0 -0.00000000000E+00 -0.00000000000E+00 -0.45593999997E+02  0.45594000000E+02  0.51100000000E-03 0. -1.
    9900012    2    1    2    0    0  0.23611407785E+02 -0.93014975927E+01 -0.35208065093E+02  0.47787259423E+02  0.19999947014E+02 0.  0.
        -12    1    1    2    0    0 -0.23611407785E+02  0.93014975927E+01  0.35208065093E+02  0.43400740577E+02  0.00000000000E+00 0.  1.
         11    1    3    3    0    0 -0.10755582901E+01 -0.47749408313E+01 -0.55813158919E+01  0.74234744510E+01  0.51100000000E-03 0. -1.
        -11    1    3    3    0    0  0.13921968281E+02  0.14861542916E+01 -0.10077108301E+02  0.17250448324E+02  0.51100000000E-03 0.  1.
        -12    1    3    3    0    0  0.10764997794E+02 -0.60127110530E+01 -0.19549640900E+02  0.23113336648E+02  0.00000000000E+00 0.  1.
</event>
<event>
 7    1  0.2430096E-009  0.4778727E+02  0.7816164E-02  0.1312668E+00
        -11   -1    0    0    0    0  0.00000000000E+00  0.00000000000E+00  0.45593999997E+02  0.45594000000E+02  0.51100000000E-03 0.  1.
         11   -1    0    0    0    0 -0.00000000000E+00 -0.00000000000E+00 -0.45593999997E+02  0.45594000000E+02  0.51100000000E-03 0. -1.
    9900012    2    1    2    0    0 -0.94559734262E+01 -0.11942943472E+01 -0.42341250441E+02  0.47787271188E+02  0.20000000657E+02 0.  0.
        -12    1    1    2    0    0  0.94559734262E+01  0.11942943472E+01  0.42341250441E+02  0.43400728812E+02  0.00000000000E+00 0.  1.
         11    1    3    3    0    0  0.57452509199E+01  0.16181544812E+01 -0.71808810032E+01  0.93376326926E+01  0.51100000000E-03 0.  1.
        -11    1    3    3    0    0 -0.70075830239E+01 -0.12418279915E+01 -0.18381027754E+02  0.19710670667E+02  0.51100000000E-03 0. -1.
         12    1    3    3    0    0 -0.81936413221E+01 -0.15706208370E+01 -0.16779341684E+02  0.18738967829E+02  0.00000000000E+00 0. -1.
</event>
<event>
 7    1  0.2430096E-009  0.4778727E+02  0.7816164E-02  0.1312668E+00
        -11   -1    0    0    0    0  0.00000000000E+00  0.00000000000E+00  0.45593999997E+02  0.45594000000E+02  0.51100000000E-03 0. -1.
         11   -1    0    0    0    0 -0.00000000000E+00 -0.00000000000E+00 -0.45593999997E+02  0.45594000000E+02  0.51100000000E-03 0.  1.
    9900012    2    1    2    0    0 -0.24596335570E+02  0.35743840601E+02 -0.10106531439E+01  0.47787270926E+02  0.19999999459E+02 0.  0.
        -12    1    1    2    0    0  0.24596335570E+02 -0.35743840601E+02  0.10106531439E+01  0.43400729074E+02  0.00000000000E+00 0.  1.
         11    1    3    3    0    0 -0.20553823889E+02  0.27068949112E+02 -0.57980409298E+01  0.34479051051E+02  0.51100000000E-03 0. -1.
        -11    1    3    3    0    0  0.11107793139E+01  0.27808020878E+01  0.45852094677E+01  0.54763890530E+01  0.51100000000E-03 0.  1.
        -12    1    3    3    0    0 -0.51532909949E+01  0.58940894008E+01  0.20217831813E+00  0.78318308214E+01  0.00000000000E+00 0.  1.
</event>
<event>
 7    1  0.2430096E-009  0.4778727E+02  0.7816164E-02  0.1312668E+00
        -11   -1    0    0    0    0  0.00000000000E+00  0.00000000000E+00  0.45593999997E+02  0.45594000000E+02  0.51100000000E-03 0.  1.
         11   -1    0    0    0    0 -0.00000000000E+00 -0.00000000000E+00 -0.45593999997E+02  0.45594000000E+02  0.51100000000E-03 0. -1.
    9900012    2    1    2    0    0  0.30945540338E+02  0.11852421735E+02 -0.28027075476E+02  0.47787270427E+02  0.19999997183E+02 0.  0.
        -12    1    1    2    0    0 -0.30945540338E+02 -0.11852421735E+02  0.28027075476E+02  0.43400729573E+02  0.00000000000E+00 0.  1.
         11    1    3    3    0    0  0.92722689292E+01  0.12006446240E+02 -0.54390657651E+01  0.16115618483E+02  0.51100000000E-03 0. -1.
        -11    1    3    3    0    0  0.19910256331E+00 -0.66965227513E+00 -0.97918366599E+00  0.12028619676E+01  0.51100000000E-03 0.  1.
         12    1    3    3    0    0  0.21474168845E+02  0.51562776978E+00 -0.21608826045E+02  0.30468789976E+02  0.00000000000E+00 0. -1.
</event>
<event>
 7    1  0.2430096E-009  0.4778727E+02  0.7816164E-02  0.1312668E+00
        -11   -1    0    0    0    0  0.00000000000E+00  0.00000000000E+00  0.45593999997E+02  0.45594000000E+02  0.51100000000E-03 0.  1.
         11   -1    0    0    0    0 -0.00000000000E+00 -0.00000000000E+00 -0.45593999997E+02  0.45594000000E+02  0.51100000000E-03 0. -1.
    9900012    2    1    2    0    0 -0.13856718529E+02  0.31123118825E+02 -0.26888031884E+02  0.47787269218E+02  0.19999991673E+02 0.  0.
        -12    1    1    2    0    0  0.13856718529E+02 -0.31123118825E+02  0.26888031884E+02  0.43400730782E+02  0.00000000000E+00 0.  1.
         11    1    3    3    0    0 -0.16763754803E+02  0.27508523226E+02 -0.20492682082E+02  0.38179737353E+02  0.51100000000E-03 0. -1.
        -11    1    3    3    0    0  0.29756254948E+01  0.49773565520E+01 -0.50170471073E+01  0.76680628108E+01  0.51100000000E-03 0.  1.
         12    1    3    3    0    0 -0.68589221494E-01 -0.13627609528E+01 -0.13783026940E+01  0.19394690542E+01  0.00000000000E+00 0. -1.
</event>
<event>
 7    1  0.2430096E-009  0.4778727E+02  0.7816164E-02  0.1312668E+00
        -11   -1    0    0    0    0  0.00000000000E+00  0.00000000000E+00  0.45593999997E+02  0.45594000000E+02  0.51100000000E-03 0.  1.
         11   -1    0    0    0    0 -0.00000000000E+00 -0.00000000000E+00 -0.45593999997E+02  0.45594000000E+02  0.51100000000E-03 0. -1.
    9900012    2    1    2    0    0 -0.17160728505E+02  0.38919672645E+02 -0.86250812590E+01  0.47787267882E+02  0.19999985583E+02 0.  0.
        -12    1    1    2    0    0  0.17160728505E+02 -0.38919672645E+02  0.86250812590E+01  0.43400732118E+02  0.00000000000E+00 0.  1.
         11    1    3    3    0    0 -0.14217739687E+01  0.15969907594E+02 -0.10585576191E+02  0.19212334927E+02  0.51100000000E-03 0. -1.
        -11    1    3    3    0    0 -0.13841137770E+02  0.16750897075E+02 -0.23393463792E+00  0.21730724177E+02  0.51100000000E-03 0.  1.
        -12    1    3    3    0    0 -0.18978167664E+01  0.61988679755E+01  0.21944295702E+01  0.68442087779E+01  0.00000000000E+00 0.  1.
</event>
<event>
 7    1  0.2430096E-009  0.4778727E+02  0.7816164E-02  0.1312668E+00
        -11   -1    0    0    0    0  0.00000000000E+00  0.00000000000E+00  0.45593999997E+02  0.45594000000E+02  0.51100000000E-03 0.  1.
         11   -1    0    0    0    0 -0.00000000000E+00 -0.00000000000E+00 -0.45593999997E+02  0.45594000000E+02  0.51100000000E-03 0. -1.
    9900012    2    1    2    0    0 -0.20268148854E+02  0.29718528364E+02 -0.24282391521E+02  0.47787270466E+02  0.19999997364E+02 0.  0.
        -12    1    1    2    0    0  0.20268148854E+02 -0.29718528364E+02  0.24282391521E+02  0.43400729534E+02  0.00000000000E+00 0.  1.
         11    1    3    3    0    0 -0.16994482675E+02  0.21487983406E+02 -0.75236036370E+01  0.28410393947E+02  0.51100000000E-03 0. -1.
        -11    1    3    3    0    0  0.32673645901E+00  0.43462906143E+01 -0.64082218970E+01  0.77499875457E+01  0.51100000000E-03 0.  1.
         12    1    3    3    0    0 -0.36004026382E+01  0.38842543431E+01 -0.10350565987E+02  0.11626888974E+02  0.00000000000E+00 0. -1.
</event>
<event>
 7    1  0.2430096E-009  0.4778727E+02  0.7816164E-02  0.1312668E+00
        -11   -1    0    0    0    0  0.00000000000E+00  0.00000000000E+00  0.45593999997E+02  0.45594000000E+02  0.51100000000E-03 0.  1.
         11   -1    0    0    0    0 -0.00000000000E+00 -0.00000000000E+00 -0.45593999997E+02  0.45594000000E+02  0.51100000000E-03 0. -1.
    9900012    2    1    2    0    0 -0.78906437903E+01  0.11714799685E+02 -0.41038083787E+02  0.47787272910E+02  0.20000008505E+02 0.  0.
        -12    1    1    2    0    0  0.78906437903E+01 -0.11714799685E+02  0.41038083787E+02  0.43400727090E+02  0.00000000000E+00 0.  1.
         11    1    3    3    0    0 -0.60369391588E+01  0.61097400027E+01 -0.91073208452E+01  0.12518660094E+02  0.51100000000E-03 0. -1.
        -11    1    3    3    0    0  0.76345978063E+00  0.74241062042E+01 -0.31088750666E+02  0.31972029057E+02  0.51100000000E-03 0.  1.
        -12    1    3    3    0    0 -0.26171644121E+01 -0.18190465216E+01 -0.84201227499E+00  0.32965837588E+01  0.00000000000E+00 0.  1.
</event>
<event>
 7    1  0.2430096E-009  0.4778727E+02  0.7816164E-02  0.1312668E+00
        -11   -1    0    0    0    0  0.00000000000E+00  0.00000000000E+00  0.45593999997E+02  0.45594000000E+02  0.51100000000E-03 0.  1.
         11   -1    0    0    0    0 -0.00000000000E+00 -0.00000000000E+00 -0.45593999997E+02  0.45594000000E+02  0.51100000000E-03 0. -1.
    9900012    2    1    2    0    0  0.24018074222E+02  0.24272954959E+02 -0.26787666678E+02  0.47787270538E+02  0.19999997691E+02 0.  0.
        -12    1    1    2    0    0 -0.24018074222E+02 -0.24272954959E+02  0.26787666678E+02  0.43400729462E+02  0.00000000000E+00 0.  1.
         11    1    3    3    0    0 -0.31325286496E+00  0.70786843519E+01 -0.86018037206E+01  0.11144367502E+02  0.51100000000E-03 0. -1.
        -11    1    3    3    0    0  0.21752909788E+02  0.10591347800E+02 -0.16705836048E+02  0.29401542320E+02  0.51100000000E-03 0.  1.
         12    1    3    3    0    0  0.25784172992E+01  0.66029228076E+01 -0.14800269089E+01  0.72413607162E+01  0.00000000000E+00 0. -1.
</event>
<event>
 7    1  0.2430096E-009  0.4778727E+02  0.7816164E-02  0.1312668E+00
        -11   -1    0    0    0    0  0.00000000000E+00  0.00000000000E+00  0.45593999997E+02  0.45594000000E+02  0.51100000000E-03 0.  1.
         11   -1    0    0    0    0 -0.00000000000E+00 -0.00000000000E+00 -0.45593999997E+02  0.45594000000E+02  0.51100000000E-03 0. -1.
    9900012    2    1    2    0    0  0.13480544527E+02 -0.48898940271E+01 -0.40963242148E+02  0.47787270149E+02  0.19999995917E+02 0.  0.
        -12    1    1    2    0    0 -0.13480544527E+02  0.48898940271E+01  0.40963242148E+02  0.43400729851E+02  0.00000000000E+00 0.  1.
         11    1    3    3    0    0  0.17314399880E+01 -0.41823672836E+01 -0.29084961595E+02  0.29435099317E+02  0.51100000000E-03 0. -1.
        -11    1    3    3    0    0  0.11944702832E+02 -0.13609730592E+00 -0.12632419298E+02  0.17385984752E+02  0.51100000000E-03 0.  1.
         12    1    3    3    0    0 -0.19559829286E+00 -0.57142943751E+00  0.75413874529E+00  0.96618608010E+00  0.00000000000E+00 0. -1.
</event>
<event>
 7    1  0.2430096E-009  0.4778727E+02  0.7816164E-02  0.1312668E+00
        -11   -1    0    0    0    0  0.00000000000E+00  0.00000000000E+00  0.45593999997E+02  0.45594000000E+02  0.51100000000E-03 0.  1.
         11   -1    0    0    0    0 -0.00000000000E+00 -0.00000000000E+00 -0.45593999997E+02  0.45594000000E+02  0.51100000000E-03 0. -1.
    9900012    2    1    2    0    0 -0.25901396963E+02  0.92670831298E+01 -0.33568766511E+02  0.47787270981E+02  0.19999999710E+02 0.  0.
        -12    1    1    2    0    0  0.25901396963E+02 -0.92670831298E+01  0.33568766511E+02  0.43400729019E+02  0.00000000000E+00 0.  1.
         11    1    3    3    0    0 -0.17909631041E+01  0.52698042122E+01 -0.49604448721E+01  0.74554945420E+01  0.51100000000E-03 0. -1.
        -11    1    3    3    0    0 -0.21135604104E+02  0.58973138971E+01 -0.29427727090E+02  0.36708080772E+02  0.51100000000E-03 0.  1.
        -12    1    3    3    0    0 -0.29748297547E+01 -0.19000349795E+01  0.81940545138E+00  0.36236956669E+01  0.00000000000E+00 0.  1.
</event>
<event>
 7    1  0.2430096E-009  0.4778727E+02  0.7816164E-02  0.1312668E+00
        -11   -1    0    0    0    0  0.00000000000E+00  0.00000000000E+00  0.45593999997E+02  0.45594000000E+02  0.51100000000E-03 0. -1.
         11   -1    0    0    0    0 -0.00000000000E+00 -0.00000000000E+00 -0.45593999997E+02  0.45594000000E+02  0.51100000000E-03 0.  1.
    9900012    2    1    2    0    0 -0.10854113979E+02 -0.22981146102E+02  0.35180651735E+02  0.47787272783E+02  0.20000007929E+02 0.  0.
        -12    1    1    2    0    0  0.10854113979E+02  0.22981146102E+02 -0.35180651735E+02  0.43400727217E+02  0.00000000000E+00 0.  1.
         11    1    3    3    0    0 -0.74105219031E+01 -0.22705432794E+02  0.25229794821E+02  0.34741834439E+02  0.51100000000E-03 0. -1.
        -11    1    3    3    0    0 -0.93569571960E+00  0.39363201534E-01  0.10430721160E+02  0.10472679701E+02  0.51100000000E-03 0.  1.
         12    1    3    3    0    0 -0.25078963561E+01 -0.31507651003E+00 -0.47986424643E+00  0.25727586430E+01  0.00000000000E+00 0. -1.
</event>
<event>
 7    1  0.2430096E-009  0.4778726E+02  0.7816164E-02  0.1312668E+00
        -11   -1    0    0    0    0  0.00000000000E+00  0.00000000000E+00  0.45593999997E+02  0.45594000000E+02  0.51100000000E-03 0.  1.
         11   -1    0    0    0    0 -0.00000000000E+00 -0.00000000000E+00 -0.45593999997E+02  0.45594000000E+02  0.51100000000E-03 0. -1.
    9900012    2    1    2    0    0 -0.16886835995E+02 -0.18774528115E+02 -0.35298382472E+02  0.47787263358E+02  0.19999964956E+02 0.  0.
        -12    1    1    2    0    0  0.16886835995E+02  0.18774528115E+02  0.35298382472E+02  0.43400736642E+02  0.00000000000E+00 0.  1.
         11    1    3    3    0    0 -0.61606526626E+00 -0.29878794928E+01 -0.17194128531E+02  0.17462674952E+02  0.51100000000E-03 0.  1.
        -11    1    3    3    0    0 -0.14801499581E+02 -0.16793213226E+02 -0.15741925987E+02  0.27366122019E+02  0.51100000000E-03 0. -1.
         12    1    3    3    0    0 -0.14692711481E+01  0.10065646030E+01 -0.23623279537E+01  0.29584663878E+01  0.00000000000E+00 0. -1.
</event>
<event>
 7    1  0.2430096E-009  0.4778727E+02  0.7816164E-02  0.1312668E+00
        -11   -1    0    0    0    0  0.00000000000E+00  0.00000000000E+00  0.45593999997E+02  0.45594000000E+02  0.51100000000E-03 0.  1.
         11   -1    0    0    0    0 -0.00000000000E+00 -0.00000000000E+00 -0.45593999997E+02  0.45594000000E+02  0.51100000000E-03 0. -1.
    9900012    2    1    2    0    0  0.23992344691E+02  0.28861289681E+02 -0.21794883881E+02  0.47787267181E+02  0.19999982387E+02 0.  0.
        -12    1    1    2    0    0 -0.23992344691E+02 -0.28861289681E+02  0.21794883881E+02  0.43400732819E+02  0.00000000000E+00 0.  1.
         11    1    3    3    0    0  0.72451484536E+01  0.14161341030E+02 -0.15718407846E+02  0.22363007431E+02  0.51100000000E-03 0. -1.
        -11    1    3    3    0    0  0.14217249825E+02  0.60830155789E+01 -0.21120590182E+01  0.15607500270E+02  0.51100000000E-03 0.  1.
        -12    1    3    3    0    0  0.25299464122E+01  0.86169330714E+01 -0.39644170174E+01  0.98167594802E+01  0.00000000000E+00 0.  1.
</event>
<event>
 7    1  0.2430096E-009  0.4778727E+02  0.7816164E-02  0.1312668E+00
        -11   -1    0    0    0    0  0.00000000000E+00  0.00000000000E+00  0.45593999997E+02  0.45594000000E+02  0.51100000000E-03 0. -1.
         11   -1    0    0    0    0 -0.00000000000E+00 -0.00000000000E+00 -0.45593999997E+02  0.45594000000E+02  0.51100000000E-03 0.  1.
    9900012    2    1    2    0    0 -0.18159398368E+01  0.40100781703E+02  0.16500091039E+02  0.47787270340E+02  0.19999996790E+02 0.  0.
        -12    1    1    2    0    0  0.18159398368E+01 -0.40100781703E+02 -0.16500091039E+02  0.43400729660E+02  0.00000000000E+00 0.  1.
         11    1    3    3    0    0  0.43727322290E+01  0.24164787630E+02  0.15940082542E+02  0.29277021366E+02  0.51100000000E-03 0. -1.
        -11    1    3    3    0    0 -0.47521231211E+01  0.16119701569E+02 -0.33288210203E+00  0.16808874549E+02  0.51100000000E-03 0.  1.
        -12    1    3    3    0    0 -0.14365489447E+01 -0.18370749630E+00  0.89289059896E+00  0.17013744257E+01  0.00000000000E+00 0.  1.
</event>
<event>
 7    1  0.2430096E-009  0.4778727E+02  0.7816164E-02  0.1312668E+00
        -11   -1    0    0    0    0  0.00000000000E+00  0.00000000000E+00  0.45593999997E+02  0.45594000000E+02  0.51100000000E-03 0.  1.
         11   -1    0    0    0    0 -0.00000000000E+00 -0.00000000000E+00 -0.45593999997E+02  0.45594000000E+02  0.51100000000E-03 0. -1.
    9900012    2    1    2    0    0  0.43261431666E+02  0.19855189168E+01 -0.28512055325E+01  0.47787272723E+02  0.20000007655E+02 0.  0.
        -12    1    1    2    0    0 -0.43261431666E+02 -0.19855189168E+01  0.28512055325E+01  0.43400727277E+02  0.00000000000E+00 0.  1.
         11    1    3    3    0    0  0.44373669122E+01 -0.28414412068E+01  0.34231025645E+00  0.52802641806E+01  0.51100000000E-03 0. -1.
        -11    1    3    3    0    0 -0.44069840979E+00 -0.96703293124E+00  0.22087316761E+01  0.24510943794E+01  0.51100000000E-03 0.  1.
        -12    1    3    3    0    0  0.39264763163E+02  0.57939930548E+01 -0.54022474651E+01  0.40055914163E+02  0.00000000000E+00 0.  1.
</event>
<event>
 7    1  0.2430096E-009  0.4778726E+02  0.7816164E-02  0.1312668E+00
        -11   -1    0    0    0    0  0.00000000000E+00  0.00000000000E+00  0.45593999997E+02  0.45594000000E+02  0.51100000000E-03 0.  1.
         11   -1    0    0    0    0 -0.00000000000E+00 -0.00000000000E+00 -0.45593999997E+02  0.45594000000E+02  0.51100000000E-03 0. -1.
    9900012    2    1    2    0    0 -0.18347990826E+02 -0.46229738574E+01 -0.39058970691E+02  0.47787264453E+02  0.19999969946E+02 0.  0.
        -12    1    1    2    0    0  0.18347990826E+02  0.46229738574E+01  0.39058970691E+02  0.43400735547E+02  0.00000000000E+00 0.  1.
         11    1    3    3    0    0 -0.12120725924E+02  0.27759896555E+01 -0.13021155068E+02  0.18004682587E+02  0.51100000000E-03 0. -1.
        -11    1    3    3    0    0 -0.89235459786E+00 -0.55983540440E+01 -0.22335823939E+02  0.23044020830E+02  0.51100000000E-03 0.  1.
        -12    1    3    3    0    0 -0.53349103037E+01 -0.18006094688E+01 -0.37019916844E+01  0.67385610362E+01  0.00000000000E+00 0.  1.
</event>
<event>
 7    1  0.2430096E-009  0.4778726E+02  0.7816164E-02  0.1312668E+00
        -11   -1    0    0    0    0  0.00000000000E+00  0.00000000000E+00  0.45593999997E+02  0.45594000000E+02  0.51100000000E-03 0.  1.
         11   -1    0    0    0    0 -0.00000000000E+00 -0.00000000000E+00 -0.45593999997E+02  0.45594000000E+02  0.51100000000E-03 0. -1.
    9900012    2    1    2    0    0 -0.10654093299E+02 -0.33931455210E+02 -0.24875097455E+02  0.47787264636E+02  0.19999970782E+02 0.  0.
        -12    1    1    2    0    0  0.10654093299E+02  0.33931455210E+02  0.24875097455E+02  0.43400735364E+02  0.00000000000E+00 0.  1.
         11    1    3    3    0    0 -0.86066260067E+01 -0.31125469022E+02 -0.13119381542E+02  0.34856663716E+02  0.51100000000E-03 0. -1.
        -11    1    3    3    0    0 -0.21298143334E+01  0.21884996442E+00 -0.31530308242E+01  0.38112475702E+01  0.51100000000E-03 0.  1.
         12    1    3    3    0    0  0.82347041329E-01 -0.30248361526E+01 -0.86026850891E+01  0.91193533503E+01  0.00000000000E+00 0. -1.
</event>
<event>
 7    1  0.2430096E-009  0.4778727E+02  0.7816164E-02  0.1312668E+00
        -11   -1    0    0    0    0  0.00000000000E+00  0.00000000000E+00  0.45593999997E+02  0.45594000000E+02  0.51100000000E-03 0.  1.
         11   -1    0    0    0    0 -0.00000000000E+00 -0.00000000000E+00 -0.45593999997E+02  0.45594000000E+02  0.51100000000E-03 0. -1.
    9900012    2    1    2    0    0  0.74743637536E-02  0.10560346357E+02 -0.42096344910E+02  0.47787271598E+02  0.20000002525E+02 0.  0.
        -12    1    1    2    0    0 -0.74743637536E-02 -0.10560346357E+02  0.42096344910E+02  0.43400728402E+02  0.00000000000E+00 0.  1.
         11    1    3    3    0    0  0.30700800966E+01 -0.45947487370E+01 -0.18363369663E+02  0.19176820732E+02  0.51100000000E-03 0. -1.
        -11    1    3    3    0    0 -0.36303401825E+01  0.89981302933E+01 -0.15962862803E+02  0.18680436497E+02  0.51100000000E-03 0.  1.
         12    1    3    3    0    0  0.56773444968E+00  0.61569648008E+01 -0.77701124440E+01  0.99300143684E+01  0.00000000000E+00 0. -1.
</event>
<event>
 7    1  0.2430096E-009  0.4778728E+02  0.7816164E-02  0.1312668E+00
        -11   -1    0    0    0    0  0.00000000000E+00  0.00000000000E+00  0.45593999997E+02  0.45594000000E+02  0.51100000000E-03 0. -1.
         11   -1    0    0    0    0 -0.00000000000E+00 -0.00000000000E+00 -0.45593999997E+02  0.45594000000E+02  0.51100000000E-03 0.  1.
    9900012    2    1    2    0    0 -0.63489942020E+01 -0.70690404537E+00  0.42927999803E+02  0.47787278718E+02  0.20000034988E+02 0.  0.
        -12    1    1    2    0    0  0.63489942020E+01  0.70690404537E+00 -0.42927999803E+02  0.43400721282E+02  0.00000000000E+00 0.  1.
         11    1    3    3    0    0  0.75891055521E+00 -0.35198918804E+01  0.52672662180E+01  0.63804136036E+01  0.51100000000E-03 0. -1.
        -11    1    3    3    0    0 -0.63571706844E+01  0.98781344979E+00  0.37658950068E+01  0.74546200430E+01  0.51100000000E-03 0.  1.
        -12    1    3    3    0    0 -0.75073407282E+00  0.18251743853E+01  0.33894838578E+02  0.33952245072E+02  0.00000000000E+00 0.  1.
</event>
<event>
 7    1  0.2430096E-009  0.4778727E+02  0.7816164E-02  0.1312668E+00
        -11   -1    0    0    0    0  0.00000000000E+00  0.00000000000E+00  0.45593999997E+02  0.45594000000E+02  0.51100000000E-03 0. -1.
         11   -1    0    0    0    0 -0.00000000000E+00 -0.00000000000E+00 -0.45593999997E+02  0.45594000000E+02  0.51100000000E-03 0.  1.
    9900012    2    1    2    0    0 -0.29837555213E+02  0.31500870113E+02 -0.10192860140E+01  0.47787268866E+02  0.19999990070E+02 0.  0.
        -12    1    1    2    0    0  0.29837555213E+02 -0.31500870113E+02  0.10192860140E+01  0.43400731134E+02  0.00000000000E+00 0.  1.
         11    1    3    3    0    0 -0.69186393618E+01  0.83677699625E+01  0.51238528836E+01  0.12005874121E+02  0.51100000000E-03 0. -1.
        -11    1    3    3    0    0 -0.23298556876E+02  0.16443510941E+02 -0.43639498878E+01  0.28848845097E+02  0.51100000000E-03 0.  1.
        -12    1    3    3    0    0  0.37964102494E+00  0.66895892094E+01 -0.17791890098E+01  0.69325496486E+01  0.00000000000E+00 0.  1.
</event>
<event>
 7    1  0.2430096E-009  0.4778728E+02  0.7816164E-02  0.1312668E+00
        -11   -1    0    0    0    0  0.00000000000E+00  0.00000000000E+00  0.45593999997E+02  0.45594000000E+02  0.51100000000E-03 0. -1.
         11   -1    0    0    0    0 -0.00000000000E+00 -0.00000000000E+00 -0.45593999997E+02  0.45594000000E+02  0.51100000000E-03 0.  1.
    9900012    2    1    2    0    0  0.16857675741E+02 -0.45962254197E+01  0.39728028802E+02  0.47787276596E+02  0.20000025310E+02 0.  0.
        -12    1    1    2    0    0 -0.16857675741E+02  0.45962254197E+01 -0.39728028802E+02  0.43400723404E+02  0.00000000000E+00 0.  1.
         11    1    3    3    0    0  0.64601495341E+01 -0.81418723953E+01  0.17640876020E+02  0.20474963373E+02  0.51100000000E-03 0. -1.
        -11    1    3    3    0    0 -0.12761302247E+01  0.41173702554E+01  0.71080719497E+01  0.83129978512E+01  0.51100000000E-03 0.  1.
        -12    1    3    3    0    0  0.11673656432E+02 -0.57172327986E+00  0.14979080833E+02  0.18999315372E+02  0.00000000000E+00 0.  1.
</event>
<event>
 7    1  0.2430096E-009  0.4778727E+02  0.7816164E-02  0.1312668E+00
        -11   -1    0    0    0    0  0.00000000000E+00  0.00000000000E+00  0.45593999997E+02  0.45594000000E+02  0.51100000000E-03 0. -1.
         11   -1    0    0    0    0 -0.00000000000E+00 -0.00000000000E+00 -0.45593999997E+02  0.45594000000E+02  0.51100000000E-03 0.  1.
    9900012    2    1    2    0    0  0.10700523351E+02  0.22720019622E+02  0.35396649931E+02  0.47787270537E+02  0.19999997685E+02 0.  0.
        -12    1    1    2    0    0 -0.10700523351E+02 -0.22720019622E+02 -0.35396649931E+02  0.43400729463E+02  0.00000000000E+00 0.  1.
         11    1    3    3    0    0  0.71637565833E+01  0.20138265771E+02  0.29022091873E+02  0.36043736954E+02  0.51100000000E-03 0. -1.
        -11    1    3    3    0    0  0.63723588586E+01  0.14820638030E+01  0.29901714708E+01  0.71933716868E+01  0.51100000000E-03 0.  1.
         12    1    3    3    0    0 -0.28355920912E+01  0.10996900479E+01  0.33843865873E+01  0.45501618962E+01  0.00000000000E+00 0. -1.
</event>
<event>
 7    1  0.2430096E-009  0.4778727E+02  0.7816164E-02  0.1312668E+00
        -11   -1    0    0    0    0  0.00000000000E+00  0.00000000000E+00  0.45593999997E+02  0.45594000000E+02  0.51100000000E-03 0. -1.
         11   -1    0    0    0    0 -0.00000000000E+00 -0.00000000000E+00 -0.45593999997E+02  0.45594000000E+02  0.51100000000E-03 0.  1.
    9900012    2    1    2    0    0 -0.22615896486E+02  0.10837353646E+02  0.35421690367E+02  0.47787272398E+02  0.20000006173E+02 0.  0.
        -12    1    1    2    0    0  0.22615896486E+02 -0.10837353646E+02 -0.35421690367E+02  0.43400727602E+02  0.00000000000E+00 0.  1.
         11    1    3    3    0    0 -0.20168428482E+02  0.49010454589E+01  0.19138608444E+02  0.28232465133E+02  0.51100000000E-03 0. -1.
        -11    1    3    3    0    0  0.79669558009E+00  0.56772506991E+01  0.43793301482E+01  0.72141827088E+01  0.51100000000E-03 0.  1.
         12    1    3    3    0    0 -0.32441635833E+01  0.25905748787E+00  0.11903751775E+02  0.12340624557E+02  0.00000000000E+00 0. -1.
</event>
<event>
 7    1  0.2430096E-009  0.4778727E+02  0.7816164E-02  0.1312668E+00
        -11   -1    0    0    0    0  0.00000000000E+00  0.00000000000E+00  0.45593999997E+02  0.45594000000E+02  0.51100000000E-03 0. -1.
         11   -1    0    0    0    0 -0.00000000000E+00 -0.00000000000E+00 -0.45593999997E+02  0.45594000000E+02  0.51100000000E-03 0.  1.
    9900012    2    1    2    0    0  0.11256617528E+02 -0.25602812187E+02  0.33187466450E+02  0.47787270059E+02  0.19999995506E+02 0.  0.
        -12    1    1    2    0    0 -0.11256617528E+02  0.25602812187E+02 -0.33187466450E+02  0.43400729941E+02  0.00000000000E+00 0.  1.
         11    1    3    3    0    0  0.99826254855E+01 -0.21525619543E+02  0.13954465837E+02  0.27526936360E+02  0.51100000000E-03 0. -1.
        -11    1    3    3    0    0  0.55279684072E+00 -0.50803143517E+01  0.16140517588E+02  0.16930194522E+02  0.51100000000E-03 0.  1.
         12    1    3    3    0    0  0.72119520134E+00  0.10031217080E+01  0.30924830252E+01  0.33301391774E+01  0.00000000000E+00 0. -1.
</event>
<event>
 7    1  0.2430096E-009  0.4778727E+02  0.7816164E-02  0.1312668E+00
        -11   -1    0    0    0    0  0.00000000000E+00  0.00000000000E+00  0.45593999997E+02  0.45594000000E+02  0.51100000000E-03 0.  1.
         11   -1    0    0    0    0 -0.00000000000E+00 -0.00000000000E+00 -0.45593999997E+02  0.45594000000E+02  0.51100000000E-03 0. -1.
    9900012    2    1    2    0    0  0.59402920119E+01  0.37833478411E+02 -0.20419701071E+02  0.47787270171E+02  0.19999996018E+02 0.  0.
        -12    1    1    2    0    0 -0.59402920119E+01 -0.37833478411E+02  0.20419701071E+02  0.43400729829E+02  0.00000000000E+00 0.  1.
         11    1    3    3    0    0  0.15140189423E+01  0.34203936207E+02 -0.16486402141E+02  0.38000038963E+02  0.51100000000E-03 0. -1.
        -11    1    3    3    0    0  0.14023498958E+01  0.13652515323E+01  0.19711085870E+01  0.27777268223E+01  0.51100000000E-03 0.  1.
         12    1    3    3    0    0  0.30239231738E+01  0.22642906721E+01 -0.59044075169E+01  0.70095043858E+01  0.00000000000E+00 0. -1.
</event>
<event>
 7    1  0.2430096E-009  0.4778727E+02  0.7816164E-02  0.1312668E+00
        -11   -1    0    0    0    0  0.00000000000E+00  0.00000000000E+00  0.45593999997E+02  0.45594000000E+02  0.51100000000E-03 0. -1.
         11   -1    0    0    0    0 -0.00000000000E+00 -0.00000000000E+00 -0.45593999997E+02  0.45594000000E+02  0.51100000000E-03 0.  1.
    9900012    2    1    2    0    0 -0.32602705525E+02 -0.28541075268E+02  0.24685259879E+01  0.47787274136E+02  0.20000014095E+02 0.  0.
        -12    1    1    2    0    0  0.32602705525E+02  0.28541075268E+02 -0.24685259879E+01  0.43400725864E+02  0.00000000000E+00 0.  1.
         11    1    3    3    0    0 -0.44603766198E+01 -0.14539484658E+01  0.28544949019E+01  0.54915450593E+01  0.51100000000E-03 0. -1.
        -11    1    3    3    0    0 -0.23718445502E+02 -0.25961538412E+02  0.46818413216E+01  0.35475143019E+02  0.51100000000E-03 0.  1.
        -12    1    3    3    0    0 -0.44238834030E+01 -0.11255883894E+01 -0.50678102357E+01  0.68205860577E+01  0.00000000000E+00 0.  1.
</event>
<event>
 7    1  0.2430096E-009  0.4778727E+02  0.7816164E-02  0.1312668E+00
        -11   -1    0    0    0    0  0.00000000000E+00  0.00000000000E+00  0.45593999997E+02  0.45594000000E+02  0.51100000000E-03 0. -1.
         11   -1    0    0    0    0 -0.00000000000E+00 -0.00000000000E+00 -0.45593999997E+02  0.45594000000E+02  0.51100000000E-03 0.  1.
    9900012    2    1    2    0    0  0.24796940938E+01  0.19454533201E+02  0.38716863411E+02  0.47787271236E+02  0.20000000873E+02 0.  0.
        -12    1    1    2    0    0 -0.24796940938E+01 -0.19454533201E+02 -0.38716863411E+02  0.43400728764E+02  0.00000000000E+00 0.  1.
         11    1    3    3    0    0 -0.46223568263E+01 -0.83231572905E-01  0.80750081543E+01  0.93047765732E+01  0.51100000000E-03 0. -1.
        -11    1    3    3    0    0  0.77142958671E+01  0.13068022975E+02  0.14118744071E+02  0.20727337494E+02  0.51100000000E-03 0.  1.
        -12    1    3    3    0    0 -0.61224494704E+00  0.64697417991E+01  0.16523111186E+02  0.17755157169E+02  0.00000000000E+00 0.  1.
</event>
<event>
 7    1  0.2430096E-009  0.4778727E+02  0.7816164E-02  0.1312668E+00
        -11   -1    0    0    0    0  0.00000000000E+00  0.00000000000E+00  0.45593999997E+02  0.45594000000E+02  0.51100000000E-03 0. -1.
         11   -1    0    0    0    0 -0.00000000000E+00 -0.00000000000E+00 -0.45593999997E+02  0.45594000000E+02  0.51100000000E-03 0.  1.
    9900012    2    1    2    0    0 -0.14749681628E+01 -0.43309794219E+02  0.23893968623E+01  0.47787273926E+02  0.20000013137E+02 0.  0.
        -12    1    1    2    0    0  0.14749681628E+01  0.43309794219E+02 -0.23893968623E+01  0.43400726074E+02  0.00000000000E+00 0.  1.
         11    1    3    3    0    0 -0.75663823233E+01 -0.15781990945E+02  0.26795635348E+01  0.17705971893E+02  0.51100000000E-03 0. -1.
        -11    1    3    3    0    0  0.57131840733E+01 -0.26639622231E+02  0.22753102956E+01  0.27340208157E+02  0.51100000000E-03 0.  1.
        -12    1    3    3    0    0  0.37823008719E+00 -0.88818104317E+00 -0.25654769682E+01  0.27410938763E+01  0.00000000000E+00 0.  1.
</event>
<event>
 7    1  0.2430096E-009  0.4778727E+02  0.7816164E-02  0.1312668E+00
        -11   -1    0    0    0    0  0.00000000000E+00  0.00000000000E+00  0.45593999997E+02  0.45594000000E+02  0.51100000000E-03 0. -1.
         11   -1    0    0    0    0 -0.00000000000E+00 -0.00000000000E+00 -0.45593999997E+02  0.45594000000E+02  0.51100000000E-03 0.  1.
    9900012    2    1    2    0    0 -0.91579882070E+01  0.41282140581E+02  0.97744267734E+01  0.47787270770E+02  0.19999998748E+02 0.  0.
        -12    1    1    2    0    0  0.91579882070E+01 -0.41282140581E+02 -0.97744267734E+01  0.43400729230E+02  0.00000000000E+00 0.  1.
         11    1    3    3    0    0 -0.38272939391E+01  0.92146339636E+01  0.33802542556E+01  0.10534883819E+02  0.51100000000E-03 0. -1.
        -11    1    3    3    0    0 -0.65761887750E+01  0.15536509593E+02 -0.44435007291E+01  0.17446320189E+02  0.51100000000E-03 0.  1.
        -12    1    3    3    0    0  0.12454945071E+01  0.16530997024E+02  0.10837673247E+02  0.19806066762E+02  0.00000000000E+00 0.  1.
</event>
<event>
 7    1  0.2430096E-009  0.4778727E+02  0.7816164E-02  0.1312668E+00
        -11   -1    0    0    0    0  0.00000000000E+00  0.00000000000E+00  0.45593999997E+02  0.45594000000E+02  0.51100000000E-03 0. -1.
         11   -1    0    0    0    0 -0.00000000000E+00 -0.00000000000E+00 -0.45593999997E+02  0.45594000000E+02  0.51100000000E-03 0.  1.
    9900012    2    1    2    0    0  0.43076770279E+02 -0.71831374389E+00  0.52439637547E+01  0.47787271110E+02  0.20000000300E+02 0.  0.
        -12    1    1    2    0    0 -0.43076770279E+02  0.71831374389E+00 -0.52439637547E+01  0.43400728890E+02  0.00000000000E+00 0.  1.
         11    1    3    3    0    0  0.25477445460E+02  0.67599980543E+01  0.44561242854E+01  0.26733029099E+02  0.51100000000E-03 0. -1.
        -11    1    3    3    0    0  0.37965312155E+01 -0.15074394603E+01 -0.35396479035E+01  0.54051022690E+01  0.51100000000E-03 0.  1.
         12    1    3    3    0    0  0.13802793603E+02 -0.59708723379E+01  0.43274873728E+01  0.15649139743E+02  0.00000000000E+00 0. -1.
</event>
<event>
 7    1  0.2430096E-009  0.4778727E+02  0.7816164E-02  0.1312668E+00
        -11   -1    0    0    0    0  0.00000000000E+00  0.00000000000E+00  0.45593999997E+02  0.45594000000E+02  0.51100000000E-03 0.  1.
         11   -1    0    0    0    0 -0.00000000000E+00 -0.00000000000E+00 -0.45593999997E+02  0.45594000000E+02  0.51100000000E-03 0. -1.
    9900012    2    1    2    0    0 -0.17484966058E+02  0.38806879686E+02  0.84808751799E+01  0.47787271978E+02  0.20000004257E+02 0.  0.
        -12    1    1    2    0    0  0.17484966058E+02 -0.38806879686E+02 -0.84808751799E+01  0.43400728022E+02  0.00000000000E+00 0.  1.
         11    1    3    3    0    0  0.18683707537E+01  0.14707496262E+01 -0.18174896816E+01  0.29928552822E+01  0.51100000000E-03 0.  1.
        -11    1    3    3    0    0 -0.13157570210E+02  0.21951631110E+02  0.63796966819E+00  0.25600835295E+02  0.51100000000E-03 0. -1.
         12    1    3    3    0    0 -0.61957666010E+01  0.15384498950E+02  0.96603951933E+01  0.19193581401E+02  0.00000000000E+00 0. -1.
</event>
<event>
 7    1  0.2430096E-009  0.4778728E+02  0.7816164E-02  0.1312668E+00
        -11   -1    0    0    0    0  0.00000000000E+00  0.00000000000E+00  0.45593999997E+02  0.45594000000E+02  0.51100000000E-03 0.  1.
         11   -1    0    0    0    0 -0.00000000000E+00 -0.00000000000E+00 -0.45593999997E+02  0.45594000000E+02  0.51100000000E-03 0. -1.
    9900012    2    1    2    0    0 -0.19846977451E-01 -0.32986554087E+02 -0.28204772126E+02  0.47787282090E+02  0.20000050361E+02 0.  0.
        -12    1    1    2    0    0  0.19846977451E-01  0.32986554087E+02  0.28204772126E+02  0.43400717910E+02  0.00000000000E+00 0.  1.
         11    1    3    3    0    0 -0.40972650602E+01 -0.10925456096E+02 -0.10610303322E+01  0.11716610324E+02  0.51100000000E-03 0. -1.
        -11    1    3    3    0    0  0.11419961931E+01  0.28312876247E+00 -0.91889056487E+00  0.14928755248E+01  0.51100000000E-03 0.  1.
         12    1    3    3    0    0  0.29354218896E+01 -0.22344226753E+02 -0.26224851229E+02  0.34577796241E+02  0.00000000000E+00 0. -1.
</event>
<event>
 7    1  0.2430096E-009  0.4778727E+02  0.7816164E-02  0.1312668E+00
        -11   -1    0    0    0    0  0.00000000000E+00  0.00000000000E+00  0.45593999997E+02  0.45594000000E+02  0.51100000000E-03 0.  1.
         11   -1    0    0    0    0 -0.00000000000E+00 -0.00000000000E+00 -0.45593999997E+02  0.45594000000E+02  0.51100000000E-03 0. -1.
    9900012    2    1    2    0    0  0.23020912819E+00  0.31789967409E+02 -0.29546033458E+02  0.47787272849E+02  0.20000008229E+02 0.  0.
        -12    1    1    2    0    0 -0.23020912819E+00 -0.31789967409E+02  0.29546033458E+02  0.43400727151E+02  0.00000000000E+00 0.  1.
         11    1    3    3    0    0  0.30503467260E+01 -0.28061135506E+00 -0.54191073966E+01  0.62249564753E+01  0.51100000000E-03 0.  1.
        -11    1    3    3    0    0 -0.64812205797E+01  0.15316677839E+02 -0.10624177905E+02  0.19735247569E+02  0.51100000000E-03 0. -1.
         12    1    3    3    0    0  0.36610829818E+01  0.16753900926E+02 -0.13502748156E+02  0.21827068805E+02  0.00000000000E+00 0. -1.
</event>
<event>
 7    1  0.2430096E-009  0.4778727E+02  0.7816164E-02  0.1312668E+00
        -11   -1    0    0    0    0  0.00000000000E+00  0.00000000000E+00  0.45593999997E+02  0.45594000000E+02  0.51100000000E-03 0.  1.
         11   -1    0    0    0    0 -0.00000000000E+00 -0.00000000000E+00 -0.45593999997E+02  0.45594000000E+02  0.51100000000E-03 0. -1.
    9900012    2    1    2    0    0 -0.23488597950E+02 -0.15010549909E+02 -0.33265482577E+02  0.47787272203E+02  0.20000005284E+02 0.  0.
        -12    1    1    2    0    0  0.23488597950E+02  0.15010549909E+02  0.33265482577E+02  0.43400727797E+02  0.00000000000E+00 0.  1.
         11    1    3    3    0    0 -0.10712448921E-02 -0.57911022760E+01 -0.90662055362E+01  0.10757924977E+02  0.51100000000E-03 0. -1.
        -11    1    3    3    0    0 -0.18997069223E+02 -0.54473488447E+01 -0.11074832817E+02  0.22654230746E+02  0.51100000000E-03 0.  1.
         12    1    3    3    0    0 -0.44904574819E+01 -0.37720987884E+01 -0.13124444223E+02  0.14375116481E+02  0.00000000000E+00 0. -1.
</event>
<event>
 7    1  0.2430096E-009  0.4778727E+02  0.7816164E-02  0.1312668E+00
        -11   -1    0    0    0    0  0.00000000000E+00  0.00000000000E+00  0.45593999997E+02  0.45594000000E+02  0.51100000000E-03 0.  1.
         11   -1    0    0    0    0 -0.00000000000E+00 -0.00000000000E+00 -0.45593999997E+02  0.45594000000E+02  0.51100000000E-03 0. -1.
    9900012    2    1    2    0    0  0.19964586945E+02  0.19765264025E+02 -0.33081311944E+02  0.47787267359E+02  0.19999983197E+02 0.  0.
        -12    1    1    2    0    0 -0.19964586945E+02 -0.19765264025E+02  0.33081311944E+02  0.43400732641E+02  0.00000000000E+00 0.  1.
         11    1    3    3    0    0 -0.18679299512E+01  0.39767995407E+00 -0.90701664994E+01  0.92690469972E+01  0.51100000000E-03 0.  1.
        -11    1    3    3    0    0  0.11834901553E+02  0.14729058688E+02 -0.17274580800E+02  0.25601195416E+02  0.51100000000E-03 0. -1.
         12    1    3    3    0    0  0.99976153424E+01  0.46385253824E+01 -0.67365646443E+01  0.12917024946E+02  0.00000000000E+00 0. -1.
</event>
<event>
 7    1  0.2430096E-009  0.4778727E+02  0.7816164E-02  0.1312668E+00
        -11   -1    0    0    0    0  0.00000000000E+00  0.00000000000E+00  0.45593999997E+02  0.45594000000E+02  0.51100000000E-03 0. -1.
         11   -1    0    0    0    0 -0.00000000000E+00 -0.00000000000E+00 -0.45593999997E+02  0.45594000000E+02  0.51100000000E-03 0.  1.
    9900012    2    1    2    0    0 -0.84661793667E+00 -0.32923743525E+02  0.28265414940E+02  0.47787270382E+02  0.19999996980E+02 0.  0.
        -12    1    1    2    0    0  0.84661793667E+00  0.32923743525E+02 -0.28265414940E+02  0.43400729618E+02  0.00000000000E+00 0.  1.
         11    1    3    3    0    0  0.40233197946E+01 -0.23224433478E+02  0.21080377467E+02  0.31621886834E+02  0.51100000000E-03 0. -1.
        -11    1    3    3    0    0  0.13483312194E+01  0.75668865130E+00 -0.66937427077E+00  0.16848255006E+01  0.51100000000E-03 0.  1.
         12    1    3    3    0    0 -0.62182689507E+01 -0.10455998699E+02  0.78544117441E+01  0.14480558048E+02  0.00000000000E+00 0. -1.
</event>
<event>
 7    1  0.2430096E-009  0.4778727E+02  0.7816164E-02  0.1312668E+00
        -11   -1    0    0    0    0  0.00000000000E+00  0.00000000000E+00  0.45593999997E+02  0.45594000000E+02  0.51100000000E-03 0. -1.
         11   -1    0    0    0    0 -0.00000000000E+00 -0.00000000000E+00 -0.45593999997E+02  0.45594000000E+02  0.51100000000E-03 0.  1.
    9900012    2    1    2    0    0 -0.22404180306E+02  0.18630094381E+02  0.32165131443E+02  0.47787269677E+02  0.19999993767E+02 0.  0.
        -12    1    1    2    0    0  0.22404180306E+02 -0.18630094381E+02 -0.32165131443E+02  0.43400730323E+02  0.00000000000E+00 0.  1.
         11    1    3    3    0    0 -0.63577624737E+01  0.56139652049E+01  0.16396804534E+02  0.18460578219E+02  0.51100000000E-03 0. -1.
        -11    1    3    3    0    0 -0.43071561814E+01  0.79934390034E+01  0.55806218290E-01  0.90801859049E+01  0.51100000000E-03 0.  1.
        -12    1    3    3    0    0 -0.11739261651E+02  0.50226901724E+01  0.15712520690E+02  0.20246505553E+02  0.00000000000E+00 0.  1.
</event>
<event>
 7    1  0.2430096E-009  0.4778727E+02  0.7816164E-02  0.1312668E+00
        -11   -1    0    0    0    0  0.00000000000E+00  0.00000000000E+00  0.45593999997E+02  0.45594000000E+02  0.51100000000E-03 0. -1.
         11   -1    0    0    0    0 -0.00000000000E+00 -0.00000000000E+00 -0.45593999997E+02  0.45594000000E+02  0.51100000000E-03 0.  1.
    9900012    2    1    2    0    0  0.29559657262E+02  0.30806542107E+02  0.77978739894E+01  0.47787271748E+02  0.20000003208E+02 0.  0.
        -12    1    1    2    0    0 -0.29559657262E+02 -0.30806542107E+02 -0.77978739894E+01  0.43400728252E+02  0.00000000000E+00 0.  1.
         11    1    3    3    0    0  0.95535656058E+01  0.96915745659E-01 -0.32650187824E+00  0.95596345215E+01  0.51100000000E-03 0. -1.
        -11    1    3    3    0    0 -0.41318969418E+00  0.23626200953E+01  0.21696808267E+00  0.24082721707E+01  0.51100000000E-03 0.  1.
         12    1    3    3    0    0  0.20419281351E+02  0.28347006266E+02  0.79074077850E+01  0.35819365056E+02  0.00000000000E+00 0. -1.
</event>
<event>
 7    1  0.2430096E-009  0.4778727E+02  0.7816164E-02  0.1312668E+00
        -11   -1    0    0    0    0  0.00000000000E+00  0.00000000000E+00  0.45593999997E+02  0.45594000000E+02  0.51100000000E-03 0.  1.
         11   -1    0    0    0    0 -0.00000000000E+00 -0.00000000000E+00 -0.45593999997E+02  0.45594000000E+02  0.51100000000E-03 0. -1.
    9900012    2    1    2    0    0 -0.15383268691E+02 -0.37723971107E+02 -0.14962629818E+02  0.47787271403E+02  0.20000001635E+02 0.  0.
        -12    1    1    2    0    0  0.15383268691E+02  0.37723971107E+02  0.14962629818E+02  0.43400728597E+02  0.00000000000E+00 0.  1.
         11    1    3    3    0    0 -0.29125486324E+01 -0.15477651607E+02 -0.62061371095E+01  0.16927987975E+02  0.51100000000E-03 0. -1.
        -11    1    3    3    0    0 -0.58090687479E+01 -0.31770577929E+01  0.32344770666E+01  0.73689088807E+01  0.51100000000E-03 0.  1.
        -12    1    3    3    0    0 -0.66616513104E+01 -0.19069261707E+02 -0.11990969775E+02  0.23490374548E+02  0.00000000000E+00 0.  1.
</event>
<event>
 7    1  0.2430096E-009  0.4778727E+02  0.7816164E-02  0.1312668E+00
        -11   -1    0    0    0    0  0.00000000000E+00  0.00000000000E+00  0.45593999997E+02  0.45594000000E+02  0.51100000000E-03 0.  1.
         11   -1    0    0    0    0 -0.00000000000E+00 -0.00000000000E+00 -0.45593999997E+02  0.45594000000E+02  0.51100000000E-03 0. -1.
    9900012    2    1    2    0    0  0.18411919836E+02  0.39213983683E+02 -0.26245060427E+01  0.47787270279E+02  0.19999996510E+02 0.  0.
        -12    1    1    2    0    0 -0.18411919836E+02 -0.39213983683E+02  0.26245060427E+01  0.43400729721E+02  0.00000000000E+00 0.  1.
         11    1    3    3    0    0  0.11333530756E+02  0.77094735107E+01  0.84783294304E+00  0.13733307037E+02  0.51100000000E-03 0. -1.
        -11    1    3    3    0    0  0.43478233989E+01  0.30520421643E+02 -0.40534026751E+01  0.31093886523E+02  0.51100000000E-03 0.  1.
        -12    1    3    3    0    0  0.27305656812E+01  0.98408852931E+00  0.58106368938E+00  0.29600767193E+01  0.00000000000E+00 0.  1.
</event>
<event>
 7    1  0.2430096E-009  0.4778726E+02  0.7816164E-02  0.1312668E+00
        -11   -1    0    0    0    0  0.00000000000E+00  0.00000000000E+00  0.45593999997E+02  0.45594000000E+02  0.51100000000E-03 0. -1.
         11   -1    0    0    0    0 -0.00000000000E+00 -0.00000000000E+00 -0.45593999997E+02  0.45594000000E+02  0.51100000000E-03 0.  1.
    9900012    2    1    2    0    0  0.22612450740E+02 -0.10897471087E+02  0.35405454213E+02  0.47787262764E+02  0.19999962248E+02 0.  0.
        -12    1    1    2    0    0 -0.22612450740E+02  0.10897471087E+02 -0.35405454213E+02  0.43400737236E+02  0.00000000000E+00 0.  1.
         11    1    3    3    0    0  0.10183496193E+02  0.26222148910E+00  0.14653385740E+02  0.17846402123E+02  0.51100000000E-03 0. -1.
        -11    1    3    3    0    0  0.81261812198E+01 -0.11903979074E+02  0.80492996647E+01  0.16508505819E+02  0.51100000000E-03 0.  1.
        -12    1    3    3    0    0  0.43027733276E+01  0.74428649819E+00  0.12702768808E+02  0.13432354823E+02  0.00000000000E+00 0.  1.
</event>
<event>
 7    1  0.2430096E-009  0.4778727E+02  0.7816164E-02  0.1312668E+00
        -11   -1    0    0    0    0  0.00000000000E+00  0.00000000000E+00  0.45593999997E+02  0.45594000000E+02  0.51100000000E-03 0.  1.
         11   -1    0    0    0    0 -0.00000000000E+00 -0.00000000000E+00 -0.45593999997E+02  0.45594000000E+02  0.51100000000E-03 0. -1.
    9900012    2    1    2    0    0  0.49585442106E+01  0.19718736994E+02 -0.38343283683E+02  0.47787272438E+02  0.20000006352E+02 0.  0.
        -12    1    1    2    0    0 -0.49585442106E+01 -0.19718736994E+02  0.38343283683E+02  0.43400727562E+02  0.00000000000E+00 0.  1.
         11    1    3    3    0    0 -0.19292984482E+01  0.63341702379E+01 -0.87484279433E+01  0.10971731716E+02  0.51100000000E-03 0. -1.
        -11    1    3    3    0    0 -0.18184384385E+01  0.84460867972E+01 -0.23638710408E+02  0.25168069663E+02  0.51100000000E-03 0.  1.
        -12    1    3    3    0    0  0.87062810972E+01  0.49384799590E+01 -0.59561453316E+01  0.11647471059E+02  0.00000000000E+00 0.  1.
</event>
<event>
 7    1  0.2430096E-009  0.4778727E+02  0.7816164E-02  0.1312668E+00
        -11   -1    0    0    0    0  0.00000000000E+00  0.00000000000E+00  0.45593999997E+02  0.45594000000E+02  0.51100000000E-03 0.  1.
         11   -1    0    0    0    0 -0.00000000000E+00 -0.00000000000E+00 -0.45593999997E+02  0.45594000000E+02  0.51100000000E-03 0. -1.
    9900012    2    1    2    0    0  0.11351084108E+02 -0.35578278985E+02 -0.22112498524E+02  0.47787266862E+02  0.19999980929E+02 0.  0.
        -12    1    1    2    0    0 -0.11351084108E+02  0.35578278985E+02  0.22112498524E+02  0.43400733138E+02  0.00000000000E+00 0.  1.
         11    1    3    3    0    0  0.10464914078E+01 -0.71264162661E+00  0.93020058254E-01  0.12695098846E+01  0.51100000000E-03 0.  1.
        -11    1    3    3    0    0  0.45312049489E+01 -0.12261265541E+00 -0.65739817968E+01  0.79852419549E+01  0.51100000000E-03 0. -1.
        -12    1    3    3    0    0  0.57733877517E+01 -0.34743024703E+02 -0.15631536785E+02  0.38532515022E+02  0.00000000000E+00 0.  1.
</event>
<event>
 7    1  0.2430096E-009  0.4778727E+02  0.7816164E-02  0.1312668E+00
        -11   -1    0    0    0    0  0.00000000000E+00  0.00000000000E+00  0.45593999997E+02  0.45594000000E+02  0.51100000000E-03 0. -1.
         11   -1    0    0    0    0 -0.00000000000E+00 -0.00000000000E+00 -0.45593999997E+02  0.45594000000E+02  0.51100000000E-03 0.  1.
    9900012    2    1    2    0    0 -0.51133218517E+01 -0.37585244779E+02  0.21090906644E+02  0.47787273871E+02  0.20000012886E+02 0.  0.
        -12    1    1    2    0    0  0.51133218517E+01  0.37585244779E+02 -0.21090906644E+02  0.43400726129E+02  0.00000000000E+00 0.  1.
         11    1    3    3    0    0 -0.31378588478E+01 -0.10897790267E+02  0.13216752619E+02  0.17415238756E+02  0.51100000000E-03 0. -1.
        -11    1    3    3    0    0 -0.33756549424E+00 -0.22990398918E+02  0.17843655606E+01  0.23062011048E+02  0.51100000000E-03 0.  1.
        -12    1    3    3    0    0 -0.16378975097E+01 -0.36970555943E+01  0.60897884643E+01  0.73100240670E+01  0.00000000000E+00 0.  1.
</event>
<event>
 7    1  0.2430096E-009  0.4778727E+02  0.7816164E-02  0.1312668E+00
        -11   -1    0    0    0    0  0.00000000000E+00  0.00000000000E+00  0.45593999997E+02  0.45594000000E+02  0.51100000000E-03 0. -1.
         11   -1    0    0    0    0 -0.00000000000E+00 -0.00000000000E+00 -0.45593999997E+02  0.45594000000E+02  0.51100000000E-03 0.  1.
    9900012    2    1    2    0    0 -0.21705526892E+02 -0.56449245179E+01  0.37156805060E+02  0.47787271519E+02  0.20000002162E+02 0.  0.
        -12    1    1    2    0    0  0.21705526892E+02  0.56449245179E+01 -0.37156805060E+02  0.43400728481E+02  0.00000000000E+00 0.  1.
         11    1    3    3    0    0 -0.12927188106E+02  0.46236881069E+01  0.11477865668E+02  0.17895029606E+02  0.51100000000E-03 0. -1.
        -11    1    3    3    0    0 -0.66133059882E+01 -0.11098451772E+02  0.22678780350E+02  0.26100546474E+02  0.51100000000E-03 0.  1.
        -12    1    3    3    0    0 -0.21650327972E+01  0.82983914675E+00  0.30001590424E+01  0.37916954390E+01  0.00000000000E+00 0.  1.
</event>
<event>
 7    1  0.2430096E-009  0.4778727E+02  0.7816164E-02  0.1312668E+00
        -11   -1    0    0    0    0  0.00000000000E+00  0.00000000000E+00  0.45593999997E+02  0.45594000000E+02  0.51100000000E-03 0.  1.
         11   -1    0    0    0    0 -0.00000000000E+00 -0.00000000000E+00 -0.45593999997E+02  0.45594000000E+02  0.51100000000E-03 0. -1.
    9900012    2    1    2    0    0  0.26645965066E+02 -0.77747077197E+00 -0.34249253827E+02  0.47787270711E+02  0.19999998480E+02 0.  0.
        -12    1    1    2    0    0 -0.26645965066E+02  0.77747077197E+00  0.34249253827E+02  0.43400729289E+02  0.00000000000E+00 0.  1.
         11    1    3    3    0    0  0.24665240853E+01 -0.16373421863E+01 -0.54561898534E+01  0.62076274434E+01  0.51100000000E-03 0. -1.
        -11    1    3    3    0    0  0.14328488019E+02 -0.81097486973E+01 -0.13451220525E+02  0.21260501563E+02  0.51100000000E-03 0.  1.
        -12    1    3    3    0    0  0.98509529623E+01  0.89696201117E+01 -0.15341843449E+02  0.20319141705E+02  0.00000000000E+00 0.  1.
</event>
<event>
 7    1  0.2430096E-009  0.4778731E+02  0.7816164E-02  0.1312668E+00
        -11   -1    0    0    0    0  0.00000000000E+00  0.00000000000E+00  0.45593999997E+02  0.45594000000E+02  0.51100000000E-03 0.  1.
         11   -1    0    0    0    0 -0.00000000000E+00 -0.00000000000E+00 -0.45593999997E+02  0.45594000000E+02  0.51100000000E-03 0. -1.
    9900012    2    1    2    0    0  0.26613491670E+02 -0.32556021753E+02 -0.10744656366E+02  0.47787307245E+02  0.20000165051E+02 0.  0.
        -12    1    1    2    0    0 -0.26613491670E+02  0.32556021753E+02  0.10744656366E+02  0.43400692755E+02  0.00000000000E+00 0.  1.
         11    1    3    3    0    0  0.82985462233E+01 -0.23567572238E+02 -0.90101812635E+01  0.26560867781E+02  0.51100000000E-03 0. -1.
        -11    1    3    3    0    0  0.64128656970E+01 -0.63962982597E+00 -0.17877011449E+01  0.66880377097E+01  0.51100000000E-03 0.  1.
         12    1    3    3    0    0  0.11902079749E+02 -0.83488196889E+01  0.53226042587E-01  0.14538401754E+02  0.00000000000E+00 0. -1.
</event>
<event>
 7    1  0.2430096E-009  0.4778726E+02  0.7816164E-02  0.1312668E+00
        -11   -1    0    0    0    0  0.00000000000E+00  0.00000000000E+00  0.45593999997E+02  0.45594000000E+02  0.51100000000E-03 0.  1.
         11   -1    0    0    0    0 -0.00000000000E+00 -0.00000000000E+00 -0.45593999997E+02  0.45594000000E+02  0.51100000000E-03 0. -1.
    9900012    2    1    2    0    0 -0.20360518764E+02 -0.22567775470E+02 -0.30980139136E+02  0.47787259973E+02  0.19999949521E+02 0.  0.
        -12    1    1    2    0    0  0.20360518764E+02  0.22567775470E+02  0.30980139136E+02  0.43400740027E+02  0.00000000000E+00 0.  1.
         11    1    3    3    0    0  0.19375860340E+01 -0.50953894218E+01 -0.10587517172E+02  0.11908515992E+02  0.51100000000E-03 0. -1.
        -11    1    3    3    0    0 -0.81170541505E+01 -0.66354319912E+01 -0.28762550329E+01  0.10871447423E+02  0.51100000000E-03 0.  1.
         12    1    3    3    0    0 -0.14181050647E+02 -0.10836954057E+02 -0.17516366931E+02  0.25007296558E+02  0.00000000000E+00 0. -1.
</event>
<event>
 7    1  0.2430096E-009  0.4778727E+02  0.7816164E-02  0.1312668E+00
        -11   -1    0    0    0    0  0.00000000000E+00  0.00000000000E+00  0.45593999997E+02  0.45594000000E+02  0.51100000000E-03 0. -1.
         11   -1    0    0    0    0 -0.00000000000E+00 -0.00000000000E+00 -0.45593999997E+02  0.45594000000E+02  0.51100000000E-03 0.  1.
    9900012    2    1    2    0    0  0.38497948576E+02  0.19978096501E+02 -0.15513859485E+01  0.47787272095E+02  0.20000004789E+02 0.  0.
        -12    1    1    2    0    0 -0.38497948576E+02 -0.19978096501E+02  0.15513859485E+01  0.43400727905E+02  0.00000000000E+00 0.  1.
         11    1    3    3    0    0  0.16505876949E+02  0.10579932467E+02 -0.92546988300E+01  0.21680138273E+02  0.51100000000E-03 0.  1.
        -11    1    3    3    0    0  0.21078049173E+02  0.10462890670E+02  0.71009190729E+01  0.24580058788E+02  0.51100000000E-03 0. -1.
         12    1    3    3    0    0  0.91402245396E+00 -0.10647266358E+01  0.60239380862E+00  0.15270750329E+01  0.00000000000E+00 0. -1.
</event>
<event>
 7    1  0.2430096E-009  0.4778726E+02  0.7816164E-02  0.1312668E+00
        -11   -1    0    0    0    0  0.00000000000E+00  0.00000000000E+00  0.45593999997E+02  0.45594000000E+02  0.51100000000E-03 0. -1.
         11   -1    0    0    0    0 -0.00000000000E+00 -0.00000000000E+00 -0.45593999997E+02  0.45594000000E+02  0.51100000000E-03 0.  1.
    9900012    2    1    2    0    0 -0.41545954624E+02  0.52824969592E+01  0.11386543474E+02  0.47787257011E+02  0.19999936014E+02 0.  0.
        -12    1    1    2    0    0  0.41545954624E+02 -0.52824969592E+01 -0.11386543474E+02  0.43400742989E+02  0.00000000000E+00 0.  1.
         11    1    3    3    0    0 -0.35162923577E+02  0.10375076022E+02  0.10484579839E+02  0.38131349460E+02  0.51100000000E-03 0. -1.
        -11    1    3    3    0    0 -0.16067714028E+01 -0.40532336492E+01  0.17438604617E+01  0.46958989477E+01  0.51100000000E-03 0.  1.
         12    1    3    3    0    0 -0.47762596442E+01 -0.10393454138E+01 -0.84189682666E+00  0.49600086033E+01  0.00000000000E+00 0. -1.
</event>
<event>
 7    1  0.2430096E-009  0.4778728E+02  0.7816164E-02  0.1312668E+00
        -11   -1    0    0    0    0  0.00000000000E+00  0.00000000000E+00  0.45593999997E+02  0.45594000000E+02  0.51100000000E-03 0.  1.
         11   -1    0    0    0    0 -0.00000000000E+00 -0.00000000000E+00 -0.45593999997E+02  0.45594000000E+02  0.51100000000E-03 0. -1.
    9900012    2    1    2    0    0 -0.73377365333E+01  0.24855537243E+02 -0.34813531910E+02  0.47787284417E+02  0.20000060972E+02 0.  0.
        -12    1    1    2    0    0  0.73377365333E+01 -0.24855537243E+02  0.34813531910E+02  0.43400715583E+02  0.00000000000E+00 0.  1.
         11    1    3    3    0    0 -0.99740799556E+01  0.24153260433E+02 -0.30749438192E+02  0.40353317211E+02  0.51100000000E-03 0.  1.
        -11    1    3    3    0    0  0.15571479089E+01  0.82521678680E+00  0.11523686783E+01  0.21056225177E+01  0.51100000000E-03 0. -1.
         12    1    3    3    0    0  0.10791955134E+01 -0.12293997748E+00 -0.52164623960E+01  0.53283446888E+01  0.00000000000E+00 0. -1.
</event>
<event>
 7    1  0.2430096E-009  0.4778727E+02  0.7816164E-02  0.1312668E+00
        -11   -1    0    0    0    0  0.00000000000E+00  0.00000000000E+00  0.45593999997E+02  0.45594000000E+02  0.51100000000E-03 0.  1.
         11   -1    0    0    0    0 -0.00000000000E+00 -0.00000000000E+00 -0.45593999997E+02  0.45594000000E+02  0.51100000000E-03 0. -1.
    9900012    2    1    2    0    0  0.14837916459E+02 -0.38289679935E+02 -0.14048481304E+02  0.47787272111E+02  0.20000004861E+02 0.  0.
        -12    1    1    2    0    0 -0.14837916459E+02  0.38289679935E+02  0.14048481304E+02  0.43400727889E+02  0.00000000000E+00 0.  1.
         11    1    3    3    0    0  0.37239087333E+00 -0.15503473571E+02  0.10984976131E+01  0.15546802405E+02  0.51100000000E-03 0. -1.
        -11    1    3    3    0    0  0.10983917001E+02 -0.10446905013E+02 -0.52435598110E+01  0.16039924463E+02  0.51100000000E-03 0.  1.
         12    1    3    3    0    0  0.34816085846E+01 -0.12339301351E+02 -0.99034191066E+01  0.16200545243E+02  0.00000000000E+00 0. -1.
</event>
<event>
 7    1  0.2430096E-009  0.4778727E+02  0.7816164E-02  0.1312668E+00
        -11   -1    0    0    0    0  0.00000000000E+00  0.00000000000E+00  0.45593999997E+02  0.45594000000E+02  0.51100000000E-03 0.  1.
         11   -1    0    0    0    0 -0.00000000000E+00 -0.00000000000E+00 -0.45593999997E+02  0.45594000000E+02  0.51100000000E-03 0. -1.
    9900012    2    1    2    0    0  0.37845177997E+02 -0.72613731352E+01 -0.19965922310E+02  0.47787273150E+02  0.20000009599E+02 0.  0.
        -12    1    1    2    0    0 -0.37845177997E+02  0.72613731352E+01  0.19965922310E+02  0.43400726850E+02  0.00000000000E+00 0.  1.
         11    1    3    3    0    0  0.21267981036E+01  0.33665621462E+01 -0.41907186424E+01  0.57809284599E+01  0.51100000000E-03 0. -1.
        -11    1    3    3    0    0  0.26591491318E+02 -0.11655290056E+02 -0.15278687404E+02  0.32808405720E+02  0.51100000000E-03 0.  1.
         12    1    3    3    0    0  0.91268885754E+01  0.10273547751E+01 -0.49651626360E+00  0.91979389703E+01  0.00000000000E+00 0. -1.
</event>
<event>
 7    1  0.2430096E-009  0.4778726E+02  0.7816164E-02  0.1312668E+00
        -11   -1    0    0    0    0  0.00000000000E+00  0.00000000000E+00  0.45593999997E+02  0.45594000000E+02  0.51100000000E-03 0. -1.
         11   -1    0    0    0    0 -0.00000000000E+00 -0.00000000000E+00 -0.45593999997E+02  0.45594000000E+02  0.51100000000E-03 0.  1.
    9900012    2    1    2    0    0  0.27248980965E+02 -0.23501506657E+02  0.24265136056E+02  0.47787255691E+02  0.19999929998E+02 0.  0.
        -12    1    1    2    0    0 -0.27248980965E+02  0.23501506657E+02 -0.24265136056E+02  0.43400744309E+02  0.00000000000E+00 0.  1.
         11    1    3    3    0    0  0.26449370897E+02 -0.14392077841E+02  0.20271600153E+02  0.36299296115E+02  0.51100000000E-03 0. -1.
        -11    1    3    3    0    0 -0.20525878843E+01 -0.57280107531E+01  0.35438943800E+01  0.70414779591E+01  0.51100000000E-03 0.  1.
        -12    1    3    3    0    0  0.28521979526E+01 -0.33814180628E+01  0.44964152300E+00  0.44464816176E+01  0.00000000000E+00 0.  1.
</event>
<event>
 7    1  0.2430096E-009  0.4778727E+02  0.7816164E-02  0.1312668E+00
        -11   -1    0    0    0    0  0.00000000000E+00  0.00000000000E+00  0.45593999997E+02  0.45594000000E+02  0.51100000000E-03 0.  1.
         11   -1    0    0    0    0 -0.00000000000E+00 -0.00000000000E+00 -0.45593999997E+02  0.45594000000E+02  0.51100000000E-03 0. -1.
    9900012    2    1    2    0    0 -0.30197026550E+01 -0.21564283800E+02 -0.37543122346E+02  0.47787274483E+02  0.20000015676E+02 0.  0.
        -12    1    1    2    0    0  0.30197026550E+01  0.21564283800E+02  0.37543122346E+02  0.43400725517E+02  0.00000000000E+00 0.  1.
         11    1    3    3    0    0 -0.70182198355E+01 -0.17543693428E+02 -0.18078073331E+02  0.26150589369E+02  0.51100000000E-03 0. -1.
        -11    1    3    3    0    0  0.37638837076E+01 -0.84030716765E+00 -0.30558221567E+01  0.49204660363E+01  0.51100000000E-03 0.  1.
         12    1    3    3    0    0  0.23463347296E+00 -0.31802832047E+01 -0.16409226859E+02  0.16716219077E+02  0.00000000000E+00 0. -1.
</event>
<event>
 7    1  0.2430096E-009  0.4778727E+02  0.7816164E-02  0.1312668E+00
        -11   -1    0    0    0    0  0.00000000000E+00  0.00000000000E+00  0.45593999997E+02  0.45594000000E+02  0.51100000000E-03 0. -1.
         11   -1    0    0    0    0 -0.00000000000E+00 -0.00000000000E+00 -0.45593999997E+02  0.45594000000E+02  0.51100000000E-03 0.  1.
    9900012    2    1    2    0    0 -0.42761363165E+02 -0.71409147192E+01 -0.20239965619E+01  0.47787269535E+02  0.19999993120E+02 0.  0.
        -12    1    1    2    0    0  0.42761363165E+02  0.71409147192E+01  0.20239965619E+01  0.43400730465E+02  0.00000000000E+00 0.  1.
         11    1    3    3    0    0 -0.29613078953E+01  0.43789260721E+01 -0.64925524173E-01  0.52866391574E+01  0.51100000000E-03 0. -1.
        -11    1    3    3    0    0 -0.31822099291E+02 -0.12849041537E+02 -0.23886699827E+01  0.34401302537E+02  0.51100000000E-03 0.  1.
         12    1    3    3    0    0 -0.79779559793E+01  0.13292007453E+01  0.42959894492E+00  0.80993278414E+01  0.00000000000E+00 0. -1.
</event>
<event>
 7    1  0.2430096E-009  0.4778727E+02  0.7816164E-02  0.1312668E+00
        -11   -1    0    0    0    0  0.00000000000E+00  0.00000000000E+00  0.45593999997E+02  0.45594000000E+02  0.51100000000E-03 0. -1.
         11   -1    0    0    0    0 -0.00000000000E+00 -0.00000000000E+00 -0.45593999997E+02  0.45594000000E+02  0.51100000000E-03 0.  1.
    9900012    2    1    2    0    0  0.25787339085E+02  0.28849700458E+02  0.19655306809E+02  0.47787272364E+02  0.20000006016E+02 0.  0.
        -12    1    1    2    0    0 -0.25787339085E+02 -0.28849700458E+02 -0.19655306809E+02  0.43400727636E+02  0.00000000000E+00 0.  1.
         11    1    3    3    0    0  0.21856475654E+02  0.10432373340E+02  0.14584892437E+02  0.28271169576E+02  0.51100000000E-03 0. -1.
        -11    1    3    3    0    0  0.26288080673E+01  0.11161085257E+02  0.28206310743E+01  0.11808319774E+02  0.51100000000E-03 0.  1.
         12    1    3    3    0    0  0.13020553639E+01  0.72562418601E+01  0.22497832970E+01  0.77077830137E+01  0.00000000000E+00 0. -1.
</event>
<event>
 7    1  0.2430096E-009  0.4778727E+02  0.7816164E-02  0.1312668E+00
        -11   -1    0    0    0    0  0.00000000000E+00  0.00000000000E+00  0.45593999997E+02  0.45594000000E+02  0.51100000000E-03 0. -1.
         11   -1    0    0    0    0 -0.00000000000E+00 -0.00000000000E+00 -0.45593999997E+02  0.45594000000E+02  0.51100000000E-03 0.  1.
    9900012    2    1    2    0    0 -0.33012303829E+01 -0.41107375901E+02  0.13524375799E+02  0.47787271709E+02  0.20000003028E+02 0.  0.
        -12    1    1    2    0    0  0.33012303829E+01  0.41107375901E+02 -0.13524375799E+02  0.43400728291E+02  0.00000000000E+00 0.  1.
         11    1    3    3    0    0 -0.97369592420E+01 -0.17549820398E+02  0.98943744232E+00  0.20094366325E+02  0.51100000000E-03 0. -1.
        -11    1    3    3    0    0  0.41799216121E+01 -0.85477129864E+01  0.47806416004E+01  0.10648458872E+02  0.51100000000E-03 0.  1.
         12    1    3    3    0    0  0.22558072470E+01 -0.15009842516E+02  0.77542967565E+01  0.17044446511E+02  0.00000000000E+00 0. -1.
</event>
<event>
 7    1  0.2430096E-009  0.4778727E+02  0.7816164E-02  0.1312668E+00
        -11   -1    0    0    0    0  0.00000000000E+00  0.00000000000E+00  0.45593999997E+02  0.45594000000E+02  0.51100000000E-03 0.  1.
         11   -1    0    0    0    0 -0.00000000000E+00 -0.00000000000E+00 -0.45593999997E+02  0.45594000000E+02  0.51100000000E-03 0. -1.
    9900012    2    1    2    0    0  0.52360173896E+01  0.34616818170E+02 -0.25649238589E+02  0.47787269378E+02  0.19999992401E+02 0.  0.
        -12    1    1    2    0    0 -0.52360173896E+01 -0.34616818170E+02  0.25649238589E+02  0.43400730622E+02  0.00000000000E+00 0.  1.
         11    1    3    3    0    0 -0.27626069339E+01  0.17760493955E+02 -0.18588490637E+02  0.25857283829E+02  0.51100000000E-03 0. -1.
        -11    1    3    3    0    0  0.76024011338E+00 -0.51544961401E+00 -0.23598131165E+01  0.25322660880E+01  0.51100000000E-03 0.  1.
         12    1    3    3    0    0  0.72383842102E+01  0.17371773829E+02 -0.47009348361E+01  0.19397719461E+02  0.00000000000E+00 0. -1.
</event>
<event>
 7    1  0.2430096E-009  0.4778727E+02  0.7816164E-02  0.1312668E+00
        -11   -1    0    0    0    0  0.00000000000E+00  0.00000000000E+00  0.45593999997E+02  0.45594000000E+02  0.51100000000E-03 0.  1.
         11   -1    0    0    0    0 -0.00000000000E+00 -0.00000000000E+00 -0.45593999997E+02  0.45594000000E+02  0.51100000000E-03 0. -1.
    9900012    2    1    2    0    0  0.47000962551E+01 -0.35551481869E+01 -0.42998758221E+02  0.47787271988E+02  0.20000004303E+02 0.  0.
        -12    1    1    2    0    0 -0.47000962551E+01  0.35551481869E+01  0.42998758221E+02  0.43400728012E+02  0.00000000000E+00 0.  1.
         11    1    3    3    0    0  0.10865066666E+01 -0.63561889640E+00 -0.16621845645E+02  0.16669440934E+02  0.51100000000E-03 0. -1.
        -11    1    3    3    0    0  0.80607579083E+01  0.77448443201E+00 -0.23087045624E+02  0.24466044227E+02  0.51100000000E-03 0.  1.
        -12    1    3    3    0    0 -0.44471683198E+01 -0.36940137225E+01 -0.32898669508E+01  0.66517868276E+01  0.00000000000E+00 0.  1.
</event>
<event>
 7    1  0.2430096E-009  0.4778726E+02  0.7816164E-02  0.1312668E+00
        -11   -1    0    0    0    0  0.00000000000E+00  0.00000000000E+00  0.45593999997E+02  0.45594000000E+02  0.51100000000E-03 0.  1.
         11   -1    0    0    0    0 -0.00000000000E+00 -0.00000000000E+00 -0.45593999997E+02  0.45594000000E+02  0.51100000000E-03 0. -1.
    9900012    2    1    2    0    0  0.12622878816E+02 -0.35600078107E+02 -0.21375717540E+02  0.47787263472E+02  0.19999965474E+02 0.  0.
        -12    1    1    2    0    0 -0.12622878816E+02  0.35600078107E+02  0.21375717540E+02  0.43400736528E+02  0.00000000000E+00 0.  1.
         11    1    3    3    0    0  0.45696333015E+01 -0.25266310665E+02 -0.79956426690E+01  0.26892346589E+02  0.51100000000E-03 0. -1.
        -11    1    3    3    0    0  0.21510171226E+01 -0.69514620635E+01 -0.11875938478E+02  0.13927943655E+02  0.51100000000E-03 0.  1.
        -12    1    3    3    0    0  0.59022283917E+01 -0.33823053783E+01 -0.15041363937E+01  0.69669732274E+01  0.00000000000E+00 0.  1.
</event>
<event>
 7    1  0.2430096E-009  0.4778727E+02  0.7816164E-02  0.1312668E+00
        -11   -1    0    0    0    0  0.00000000000E+00  0.00000000000E+00  0.45593999997E+02  0.45594000000E+02  0.51100000000E-03 0.  1.
         11   -1    0    0    0    0 -0.00000000000E+00 -0.00000000000E+00 -0.45593999997E+02  0.45594000000E+02  0.51100000000E-03 0. -1.
    9900012    2    1    2    0    0  0.24128583403E+02 -0.25592561687E+02 -0.25425486206E+02  0.47787273053E+02  0.20000009156E+02 0.  0.
        -12    1    1    2    0    0 -0.24128583403E+02  0.25592561687E+02  0.25425486206E+02  0.43400726947E+02  0.00000000000E+00 0.  1.
         11    1    3    3    0    0  0.13374987891E+02 -0.91989889765E+01 -0.91644174898E+01  0.18641304875E+02  0.51100000000E-03 0. -1.
        -11    1    3    3    0    0  0.63417922900E+00 -0.11901437455E+02 -0.12927940661E+02  0.17583459466E+02  0.51100000000E-03 0.  1.
        -12    1    3    3    0    0  0.10119416284E+02 -0.44921352553E+01 -0.33331280556E+01  0.11562508712E+02  0.00000000000E+00 0.  1.
</event>
<event>
 7    1  0.2430096E-009  0.4778727E+02  0.7816164E-02  0.1312668E+00
        -11   -1    0    0    0    0  0.00000000000E+00  0.00000000000E+00  0.45593999997E+02  0.45594000000E+02  0.51100000000E-03 0.  1.
         11   -1    0    0    0    0 -0.00000000000E+00 -0.00000000000E+00 -0.45593999997E+02  0.45594000000E+02  0.51100000000E-03 0. -1.
    9900012    2    1    2    0    0 -0.14577404569E+02 -0.23636030655E+01 -0.40810978460E+02  0.47787270671E+02  0.19999998298E+02 0.  0.
        -12    1    1    2    0    0  0.14577404569E+02  0.23636030655E+01  0.40810978460E+02  0.43400729329E+02  0.00000000000E+00 0.  1.
         11    1    3    3    0    0 -0.10378616843E+02  0.38703498355E+01 -0.13717547721E+02  0.17631404117E+02  0.51100000000E-03 0. -1.
        -11    1    3    3    0    0 -0.15744096864E+01 -0.25391403240E+01 -0.24975225573E+02  0.25153287899E+02  0.51100000000E-03 0.  1.
         12    1    3    3    0    0 -0.26243780394E+01 -0.36948125769E+01 -0.21182051665E+01  0.50025786550E+01  0.00000000000E+00 0. -1.
</event>
<event>
 7    1  0.2430096E-009  0.4778727E+02  0.7816164E-02  0.1312668E+00
        -11   -1    0    0    0    0  0.00000000000E+00  0.00000000000E+00  0.45593999997E+02  0.45594000000E+02  0.51100000000E-03 0.  1.
         11   -1    0    0    0    0 -0.00000000000E+00 -0.00000000000E+00 -0.45593999997E+02  0.45594000000E+02  0.51100000000E-03 0. -1.
    9900012    2    1    2    0    0  0.10430776447E+01 -0.35390525291E+02 -0.25100714347E+02  0.47787272447E+02  0.20000006396E+02 0.  0.
        -12    1    1    2    0    0 -0.10430776447E+01  0.35390525291E+02  0.25100714347E+02  0.43400727553E+02  0.00000000000E+00 0.  1.
         11    1    3    3    0    0  0.52879512594E+01 -0.59063992617E+01 -0.11981494400E+02  0.14366773788E+02  0.51100000000E-03 0. -1.
        -11    1    3    3    0    0 -0.19914139499E+00 -0.19976905958E+02 -0.59517730521E+01  0.20845623802E+02  0.51100000000E-03 0.  1.
         12    1    3    3    0    0 -0.40457322198E+01 -0.95072200717E+01 -0.71674468949E+01  0.12574874857E+02  0.00000000000E+00 0. -1.
</event>
<event>
 7    1  0.2430096E-009  0.4778727E+02  0.7816164E-02  0.1312668E+00
        -11   -1    0    0    0    0  0.00000000000E+00  0.00000000000E+00  0.45593999997E+02  0.45594000000E+02  0.51100000000E-03 0.  1.
         11   -1    0    0    0    0 -0.00000000000E+00 -0.00000000000E+00 -0.45593999997E+02  0.45594000000E+02  0.51100000000E-03 0. -1.
    9900012    2    1    2    0    0 -0.85962380128E+01  0.17881234300E+02 -0.38600385162E+02  0.47787267486E+02  0.19999983777E+02 0.  0.
        -12    1    1    2    0    0  0.85962380128E+01 -0.17881234300E+02  0.38600385162E+02  0.43400732514E+02  0.00000000000E+00 0.  1.
         11    1    3    3    0    0 -0.46171463849E+01  0.11023642181E+02 -0.24917224858E+02  0.27635246020E+02  0.51100000000E-03 0. -1.
        -11    1    3    3    0    0  0.19915635662E+01 -0.27593917259E+01 -0.23611597535E+01  0.41419372011E+01  0.51100000000E-03 0.  1.
        -12    1    3    3    0    0 -0.59706551941E+01  0.96169838449E+01 -0.11322000551E+02  0.16010084265E+02  0.00000000000E+00 0.  1.
</event>
<event>
 7    1  0.2430096E-009  0.4778727E+02  0.7816164E-02  0.1312668E+00
        -11   -1    0    0    0    0  0.00000000000E+00  0.00000000000E+00  0.45593999997E+02  0.45594000000E+02  0.51100000000E-03 0.  1.
         11   -1    0    0    0    0 -0.00000000000E+00 -0.00000000000E+00 -0.45593999997E+02  0.45594000000E+02  0.51100000000E-03 0. -1.
    9900012    2    1    2    0    0  0.16980029365E+02 -0.71782142728E+01 -0.39290903484E+02  0.47787271273E+02  0.20000001044E+02 0.  0.
        -12    1    1    2    0    0 -0.16980029365E+02  0.71782142728E+01  0.39290903484E+02  0.43400728727E+02  0.00000000000E+00 0.  1.
         11    1    3    3    0    0  0.72749023882E+01 -0.67270965147E+01 -0.22460830246E+02  0.24549275506E+02  0.51100000000E-03 0. -1.
        -11    1    3    3    0    0  0.11221308677E+01  0.48042514001E+01 -0.97682766228E+01  0.10943456385E+02  0.51100000000E-03 0.  1.
        -12    1    3    3    0    0  0.85829961092E+01 -0.52553691582E+01 -0.70617966159E+01  0.12294539383E+02  0.00000000000E+00 0.  1.
</event>
<event>
 7    1  0.2430096E-009  0.4778727E+02  0.7816164E-02  0.1312668E+00
        -11   -1    0    0    0    0  0.00000000000E+00  0.00000000000E+00  0.45593999997E+02  0.45594000000E+02  0.51100000000E-03 0.  1.
         11   -1    0    0    0    0 -0.00000000000E+00 -0.00000000000E+00 -0.45593999997E+02  0.45594000000E+02  0.51100000000E-03 0. -1.
    9900012    2    1    2    0    0 -0.42528563653E+02  0.83364710576E+01  0.23340748844E+01  0.47787269803E+02  0.19999994340E+02 0.  0.
        -12    1    1    2    0    0  0.42528563653E+02 -0.83364710576E+01 -0.23340748844E+01  0.43400730197E+02  0.00000000000E+00 0.  1.
         11    1    3    3    0    0 -0.11994700124E+02 -0.98459197506E+00 -0.71222747577E+01  0.13984600474E+02  0.51100000000E-03 0. -1.
        -11    1    3    3    0    0 -0.11200252665E+02  0.61136649573E+01  0.49978943758E+01  0.13704069009E+02  0.51100000000E-03 0.  1.
         12    1    3    3    0    0 -0.19333610864E+02  0.32073980753E+01  0.44584552663E+01  0.20098600320E+02  0.00000000000E+00 0. -1.
</event>
<event>
 7    1  0.2430096E-009  0.4778727E+02  0.7816164E-02  0.1312668E+00
        -11   -1    0    0    0    0  0.00000000000E+00  0.00000000000E+00  0.45593999997E+02  0.45594000000E+02  0.51100000000E-03 0.  1.
         11   -1    0    0    0    0 -0.00000000000E+00 -0.00000000000E+00 -0.45593999997E+02  0.45594000000E+02  0.51100000000E-03 0. -1.
    9900012    2    1    2    0    0  0.39803686779E+01  0.80861779326E+00 -0.43210256111E+02  0.47787269238E+02  0.19999991763E+02 0.  0.
        -12    1    1    2    0    0 -0.39803686779E+01 -0.80861779326E+00  0.43210256111E+02  0.43400730762E+02  0.00000000000E+00 0.  1.
         11    1    3    3    0    0 -0.41093640272E+01  0.24702333747E+01 -0.12991270427E+02  0.13847816911E+02  0.51100000000E-03 0. -1.
        -11    1    3    3    0    0  0.83334037586E+01 -0.30976589281E+01 -0.31025721644E+02  0.32274394074E+02  0.51100000000E-03 0.  1.
        -12    1    3    3    0    0 -0.24367105348E+00  0.14360433466E+01  0.80673596044E+00  0.16650582529E+01  0.00000000000E+00 0.  1.
</event>
<event>
 7    1  0.2430096E-009  0.4778727E+02  0.7816164E-02  0.1312668E+00
        -11   -1    0    0    0    0  0.00000000000E+00  0.00000000000E+00  0.45593999997E+02  0.45594000000E+02  0.51100000000E-03 0.  1.
         11   -1    0    0    0    0 -0.00000000000E+00 -0.00000000000E+00 -0.45593999997E+02  0.45594000000E+02  0.51100000000E-03 0. -1.
    9900012    2    1    2    0    0  0.26543120125E+02  0.14590238585E+02 -0.31083935676E+02  0.47787270225E+02  0.19999996262E+02 0.  0.
        -12    1    1    2    0    0 -0.26543120125E+02 -0.14590238585E+02  0.31083935676E+02  0.43400729775E+02  0.00000000000E+00 0.  1.
         11    1    3    3    0    0  0.99418244352E+01  0.27476241958E+00 -0.94801479624E+01  0.13740035412E+02  0.51100000000E-03 0. -1.
        -11    1    3    3    0    0  0.25149764473E+01  0.16830685860E+01 -0.12846212294E+02  0.13197840618E+02  0.51100000000E-03 0.  1.
        -12    1    3    3    0    0  0.14086319243E+02  0.12632407579E+02 -0.87575754191E+01  0.20849394195E+02  0.00000000000E+00 0.  1.
</event>
<event>
 7    1  0.2430096E-009  0.4778727E+02  0.7816164E-02  0.1312668E+00
        -11   -1    0    0    0    0  0.00000000000E+00  0.00000000000E+00  0.45593999997E+02  0.45594000000E+02  0.51100000000E-03 0. -1.
         11   -1    0    0    0    0 -0.00000000000E+00 -0.00000000000E+00 -0.45593999997E+02  0.45594000000E+02  0.51100000000E-03 0.  1.
    9900012    2    1    2    0    0  0.17889356090E+02  0.34860449974E+02  0.18663961987E+02  0.47787268316E+02  0.19999987558E+02 0.  0.
        -12    1    1    2    0    0 -0.17889356090E+02 -0.34860449974E+02 -0.18663961987E+02  0.43400731684E+02  0.00000000000E+00 0.  1.
         11    1    3    3    0    0  0.16090901719E+01  0.19162769544E+02  0.83810172825E+01  0.20977186626E+02  0.51100000000E-03 0. -1.
        -11    1    3    3    0    0  0.94867409184E+01  0.36783424984E+01  0.11123521950E+01  0.10235515837E+02  0.51100000000E-03 0.  1.
         12    1    3    3    0    0  0.67935249995E+01  0.12019337931E+02  0.91705925097E+01  0.16574565853E+02  0.00000000000E+00 0. -1.
</event>
<event>
 7    1  0.2430096E-009  0.4778727E+02  0.7816164E-02  0.1312668E+00
        -11   -1    0    0    0    0  0.00000000000E+00  0.00000000000E+00  0.45593999997E+02  0.45594000000E+02  0.51100000000E-03 0.  1.
         11   -1    0    0    0    0 -0.00000000000E+00 -0.00000000000E+00 -0.45593999997E+02  0.45594000000E+02  0.51100000000E-03 0. -1.
    9900012    2    1    2    0    0 -0.27285107917E+02 -0.33745435833E+02 -0.62588877634E+00  0.47787270855E+02  0.19999999137E+02 0.  0.
        -12    1    1    2    0    0  0.27285107917E+02  0.33745435833E+02  0.62588877634E+00  0.43400729145E+02  0.00000000000E+00 0.  1.
         11    1    3    3    0    0  0.17801678105E+01 -0.24107812012E+01  0.16658905910E+01  0.34287104217E+01  0.51100000000E-03 0.  1.
        -11    1    3    3    0    0 -0.29745720221E+02 -0.31020239871E+02 -0.32980059274E+01  0.43103828095E+02  0.51100000000E-03 0. -1.
         12    1    3    3    0    0  0.68044449382E+00 -0.31441476077E+00  0.10062265600E+01  0.12547323384E+01  0.00000000000E+00 0. -1.
</event>
<event>
 7    1  0.2430096E-009  0.4778726E+02  0.7816164E-02  0.1312668E+00
        -11   -1    0    0    0    0  0.00000000000E+00  0.00000000000E+00  0.45593999997E+02  0.45594000000E+02  0.51100000000E-03 0.  1.
         11   -1    0    0    0    0 -0.00000000000E+00 -0.00000000000E+00 -0.45593999997E+02  0.45594000000E+02  0.51100000000E-03 0. -1.
    9900012    2    1    2    0    0  0.11438790150E+02 -0.36590934356E+02 -0.20344084069E+02  0.47787260908E+02  0.19999953785E+02 0.  0.
        -12    1    1    2    0    0 -0.11438790150E+02  0.36590934356E+02  0.20344084069E+02  0.43400739092E+02  0.00000000000E+00 0.  1.
         11    1    3    3    0    0  0.98136292803E+01 -0.27033190612E+02 -0.11204211785E+02  0.30864786996E+02  0.51100000000E-03 0. -1.
        -11    1    3    3    0    0  0.12124583041E+01 -0.19440834515E+01 -0.90097663122E+01  0.92965264947E+01  0.51100000000E-03 0.  1.
         12    1    3    3    0    0  0.41270256548E+00 -0.76136602926E+01 -0.13010597106E+00  0.76259474180E+01  0.00000000000E+00 0. -1.
</event>
<event>
 7    1  0.2430096E-009  0.4778728E+02  0.7816164E-02  0.1312668E+00
        -11   -1    0    0    0    0  0.00000000000E+00  0.00000000000E+00  0.45593999997E+02  0.45594000000E+02  0.51100000000E-03 0.  1.
         11   -1    0    0    0    0 -0.00000000000E+00 -0.00000000000E+00 -0.45593999997E+02  0.45594000000E+02  0.51100000000E-03 0. -1.
    9900012    2    1    2    0    0  0.33753573570E+02  0.13155068146E+01 -0.27250476854E+02  0.47787276784E+02  0.20000026168E+02 0.  0.
        -12    1    1    2    0    0 -0.33753573570E+02 -0.13155068146E+01  0.27250476854E+02  0.43400723216E+02  0.00000000000E+00 0.  1.
         11    1    3    3    0    0  0.15660471374E+02  0.78481761349E+01 -0.13698434369E+02  0.22237161166E+02  0.51100000000E-03 0. -1.
        -11    1    3    3    0    0 -0.74386471794E-01  0.14233663301E+01 -0.24141273635E+01  0.28034828776E+01  0.51100000000E-03 0.  1.
         12    1    3    3    0    0  0.18167488668E+02 -0.79560356505E+01 -0.11137915122E+02  0.22746632740E+02  0.00000000000E+00 0. -1.
</event>
<event>
 7    1  0.2430096E-009  0.4778727E+02  0.7816164E-02  0.1312668E+00
        -11   -1    0    0    0    0  0.00000000000E+00  0.00000000000E+00  0.45593999997E+02  0.45594000000E+02  0.51100000000E-03 0. -1.
         11   -1    0    0    0    0 -0.00000000000E+00 -0.00000000000E+00 -0.45593999997E+02  0.45594000000E+02  0.51100000000E-03 0.  1.
    9900012    2    1    2    0    0  0.17725943150E+02  0.30303532082E+02  0.25516858176E+02  0.47787272260E+02  0.20000005542E+02 0.  0.
        -12    1    1    2    0    0 -0.17725943150E+02 -0.30303532082E+02 -0.25516858176E+02  0.43400727740E+02  0.00000000000E+00 0.  1.
         11    1    3    3    0    0  0.52080541230E+01  0.66152816778E+01  0.14869489261E+02  0.17087641457E+02  0.51100000000E-03 0. -1.
        -11    1    3    3    0    0 -0.17699711252E+01  0.11887883224E+01  0.99529032619E+00  0.23530020302E+01  0.51100000000E-03 0.  1.
         12    1    3    3    0    0  0.14287860152E+02  0.22499462082E+02  0.96520785888E+01  0.28346628773E+02  0.00000000000E+00 0. -1.
</event>
<event>
 7    1  0.2430096E-009  0.4778727E+02  0.7816164E-02  0.1312668E+00
        -11   -1    0    0    0    0  0.00000000000E+00  0.00000000000E+00  0.45593999997E+02  0.45594000000E+02  0.51100000000E-03 0.  1.
         11   -1    0    0    0    0 -0.00000000000E+00 -0.00000000000E+00 -0.45593999997E+02  0.45594000000E+02  0.51100000000E-03 0. -1.
    9900012    2    1    2    0    0 -0.34831702334E+02  0.25448034403E+02 -0.47721204740E+01  0.47787273321E+02  0.20000010378E+02 0.  0.
        -12    1    1    2    0    0  0.34831702334E+02 -0.25448034403E+02  0.47721204740E+01  0.43400726679E+02  0.00000000000E+00 0.  1.
         11    1    3    3    0    0 -0.54272510093E+01 -0.96001855764E+00  0.28963369491E+01  0.62261912220E+01  0.51100000000E-03 0. -1.
        -11    1    3    3    0    0 -0.35640831736E+01  0.87849400561E+01 -0.29543675157E+01  0.99300628566E+01  0.51100000000E-03 0.  1.
         12    1    3    3    0    0 -0.25840368151E+02  0.17623112905E+02 -0.47140899074E+01  0.31631019242E+02  0.00000000000E+00 0. -1.
</event>
<event>
 7    1  0.2430096E-009  0.4778727E+02  0.7816164E-02  0.1312668E+00
        -11   -1    0    0    0    0  0.00000000000E+00  0.00000000000E+00  0.45593999997E+02  0.45594000000E+02  0.51100000000E-03 0.  1.
         11   -1    0    0    0    0 -0.00000000000E+00 -0.00000000000E+00 -0.45593999997E+02  0.45594000000E+02  0.51100000000E-03 0. -1.
    9900012    2    1    2    0    0 -0.16091796266E+02 -0.40307190718E+02 -0.87997289751E-01  0.47787271041E+02  0.19999999982E+02 0.  0.
        -12    1    1    2    0    0  0.16091796266E+02  0.40307190718E+02  0.87997289751E-01  0.43400728959E+02  0.00000000000E+00 0.  1.
         11    1    3    3    0    0 -0.12714286297E+02 -0.33047750176E+02 -0.82093058269E+01  0.36348309041E+02  0.51100000000E-03 0. -1.
        -11    1    3    3    0    0 -0.14831471624E+01 -0.42286292116E+01  0.45726253543E+01  0.64023381203E+01  0.51100000000E-03 0.  1.
         12    1    3    3    0    0 -0.18943628064E+01 -0.30308113309E+01  0.35486831828E+01  0.50366238789E+01  0.00000000000E+00 0. -1.
</event>
<event>
 7    1  0.2430096E-009  0.4778727E+02  0.7816164E-02  0.1312668E+00
        -11   -1    0    0    0    0  0.00000000000E+00  0.00000000000E+00  0.45593999997E+02  0.45594000000E+02  0.51100000000E-03 0.  1.
         11   -1    0    0    0    0 -0.00000000000E+00 -0.00000000000E+00 -0.45593999997E+02  0.45594000000E+02  0.51100000000E-03 0. -1.
    9900012    2    1    2    0    0 -0.23145935571E+02  0.16853921072E+02 -0.32616473072E+02  0.47787270690E+02  0.19999998384E+02 0.  0.
        -12    1    1    2    0    0  0.23145935571E+02 -0.16853921072E+02  0.32616473072E+02  0.43400729310E+02  0.00000000000E+00 0.  1.
         11    1    3    3    0    0 -0.14325275068E+02  0.14109486948E+02 -0.16616412083E+02  0.26084406807E+02  0.51100000000E-03 0. -1.
        -11    1    3    3    0    0  0.10848845886E+01 -0.95780516522E+00  0.94531288737E+00  0.17285780345E+01  0.51100000000E-03 0.  1.
        -12    1    3    3    0    0 -0.99055450919E+01  0.37022392888E+01 -0.16945373877E+02  0.19974285848E+02  0.00000000000E+00 0.  1.
</event>
<event>
 7    1  0.2430096E-009  0.4778727E+02  0.7816164E-02  0.1312668E+00
        -11   -1    0    0    0    0  0.00000000000E+00  0.00000000000E+00  0.45593999997E+02  0.45594000000E+02  0.51100000000E-03 0.  1.
         11   -1    0    0    0    0 -0.00000000000E+00 -0.00000000000E+00 -0.45593999997E+02  0.45594000000E+02  0.51100000000E-03 0. -1.
    9900012    2    1    2    0    0  0.70067882905E+01 -0.14674948603E+02 -0.40238959183E+02  0.47787273799E+02  0.20000012559E+02 0.  0.
        -12    1    1    2    0    0 -0.70067882905E+01  0.14674948603E+02  0.40238959183E+02  0.43400726201E+02  0.00000000000E+00 0.  1.
         11    1    3    3    0    0 -0.35875188673E+00  0.25402684607E+00 -0.81802737211E+01  0.81920761085E+01  0.51100000000E-03 0. -1.
        -11    1    3    3    0    0  0.11781328236E+02 -0.67471595766E+01 -0.22367138610E+02  0.26165105526E+02  0.51100000000E-03 0.  1.
        -12    1    3    3    0    0 -0.44157880584E+01 -0.81818158726E+01 -0.96915468522E+01  0.13430092164E+02  0.00000000000E+00 0.  1.
</event>
<event>
 7    1  0.2430096E-009  0.4778727E+02  0.7816164E-02  0.1312668E+00
        -11   -1    0    0    0    0  0.00000000000E+00  0.00000000000E+00  0.45593999997E+02  0.45594000000E+02  0.51100000000E-03 0.  1.
         11   -1    0    0    0    0 -0.00000000000E+00 -0.00000000000E+00 -0.45593999997E+02  0.45594000000E+02  0.51100000000E-03 0. -1.
    9900012    2    1    2    0    0 -0.15558325067E+02 -0.29378537055E+02 -0.27900956135E+02  0.47787271070E+02  0.20000000116E+02 0.  0.
        -12    1    1    2    0    0  0.15558325067E+02  0.29378537055E+02  0.27900956135E+02  0.43400728930E+02  0.00000000000E+00 0.  1.
         11    1    3    3    0    0 -0.16689608338E+01 -0.14279499158E+02 -0.20916484393E+02  0.25380875597E+02  0.51100000000E-03 0. -1.
        -11    1    3    3    0    0 -0.47524307581E+01 -0.59580991880E+01  0.19099624196E+00  0.76237145717E+01  0.51100000000E-03 0.  1.
        -12    1    3    3    0    0 -0.91369334756E+01 -0.91409387092E+01 -0.71754679846E+01  0.14782680901E+02  0.00000000000E+00 0.  1.
</event>
<event>
 7    1  0.2430096E-009  0.4778728E+02  0.7816164E-02  0.1312668E+00
        -11   -1    0    0    0    0  0.00000000000E+00  0.00000000000E+00  0.45593999997E+02  0.45594000000E+02  0.51100000000E-03 0.  1.
         11   -1    0    0    0    0 -0.00000000000E+00 -0.00000000000E+00 -0.45593999997E+02  0.45594000000E+02  0.51100000000E-03 0. -1.
    9900012    2    1    2    0    0  0.35044713729E+02  0.53535280429E+01 -0.25036585892E+02  0.47787275859E+02  0.20000021950E+02 0.  0.
        -12    1    1    2    0    0 -0.35044713729E+02 -0.53535280429E+01  0.25036585892E+02  0.43400724141E+02  0.00000000000E+00 0.  1.
         11    1    3    3    0    0  0.12696498323E+02  0.59722426612E+01 -0.15186910788E+02  0.20676339415E+02  0.51100000000E-03 0. -1.
        -11    1    3    3    0    0  0.10772850688E+02  0.55642927164E+01 -0.43456149771E+01  0.12880218755E+02  0.51100000000E-03 0.  1.
         12    1    3    3    0    0  0.11575364718E+02 -0.61830073346E+01 -0.55040601269E+01  0.14230717689E+02  0.00000000000E+00 0. -1.
</event>
<event>
 7    1  0.2430096E-009  0.4778726E+02  0.7816164E-02  0.1312668E+00
        -11   -1    0    0    0    0  0.00000000000E+00  0.00000000000E+00  0.45593999997E+02  0.45594000000E+02  0.51100000000E-03 0.  1.
         11   -1    0    0    0    0 -0.00000000000E+00 -0.00000000000E+00 -0.45593999997E+02  0.45594000000E+02  0.51100000000E-03 0. -1.
    9900012    2    1    2    0    0  0.43297158375E+02 -0.23211896687E+01  0.18953897350E+01  0.47787258681E+02  0.19999943629E+02 0.  0.
        -12    1    1    2    0    0 -0.43297158375E+02  0.23211896687E+01 -0.18953897350E+01  0.43400741319E+02  0.00000000000E+00 0.  1.
         11    1    3    3    0    0  0.11504202136E+01  0.14351716084E+01 -0.38096620041E+01  0.42304502195E+01  0.51100000000E-03 0. -1.
        -11    1    3    3    0    0  0.21273212472E+02  0.22814323275E+01  0.17104165519E+01  0.21463457955E+02  0.51100000000E-03 0.  1.
         12    1    3    3    0    0  0.20873525689E+02 -0.60377936045E+01  0.39946351871E+01  0.22093350506E+02  0.00000000000E+00 0. -1.
</event>
<event>
 7    1  0.2430096E-009  0.4778727E+02  0.7816164E-02  0.1312668E+00
        -11   -1    0    0    0    0  0.00000000000E+00  0.00000000000E+00  0.45593999997E+02  0.45594000000E+02  0.51100000000E-03 0.  1.
         11   -1    0    0    0    0 -0.00000000000E+00 -0.00000000000E+00 -0.45593999997E+02  0.45594000000E+02  0.51100000000E-03 0. -1.
    9900012    2    1    2    0    0 -0.19906334256E+02 -0.38537163121E+02  0.14995222595E+01  0.47787266689E+02  0.19999980141E+02 0.  0.
        -12    1    1    2    0    0  0.19906334256E+02  0.38537163121E+02 -0.14995222595E+01  0.43400733311E+02  0.00000000000E+00 0.  1.
         11    1    3    3    0    0 -0.15680605281E+02 -0.36252473056E+02  0.79661234546E+00  0.39506427023E+02  0.51100000000E-03 0. -1.
        -11    1    3    3    0    0 -0.98664209878E+00 -0.41869431389E+01  0.12624107132E+01  0.44830387629E+01  0.51100000000E-03 0.  1.
         12    1    3    3    0    0 -0.32390868767E+01  0.19022530739E+01 -0.55950079917E+00  0.37978009027E+01  0.00000000000E+00 0. -1.
</event>
<event>
 7    1  0.2430096E-009  0.4778727E+02  0.7816164E-02  0.1312668E+00
        -11   -1    0    0    0    0  0.00000000000E+00  0.00000000000E+00  0.45593999997E+02  0.45594000000E+02  0.51100000000E-03 0. -1.
         11   -1    0    0    0    0 -0.00000000000E+00 -0.00000000000E+00 -0.45593999997E+02  0.45594000000E+02  0.51100000000E-03 0.  1.
    9900012    2    1    2    0    0  0.16618506614E+02 -0.30186452448E+02  0.26386105879E+02  0.47787271240E+02  0.20000000890E+02 0.  0.
        -12    1    1    2    0    0 -0.16618506614E+02  0.30186452448E+02 -0.26386105879E+02  0.43400728760E+02  0.00000000000E+00 0.  1.
         11    1    3    3    0    0  0.10446925586E+02 -0.38931266206E+01  0.13492161925E+02  0.17502374774E+02  0.51100000000E-03 0. -1.
        -11    1    3    3    0    0  0.66941770854E+01 -0.23118329262E+02  0.12239184861E+02  0.27001237028E+02  0.51100000000E-03 0.  1.
         12    1    3    3    0    0 -0.52259605742E+00 -0.31749965649E+01  0.65475909315E+00  0.32836594368E+01  0.00000000000E+00 0. -1.
</event>
<event>
 7    1  0.2430096E-009  0.4778727E+02  0.7816164E-02  0.1312668E+00
        -11   -1    0    0    0    0  0.00000000000E+00  0.00000000000E+00  0.45593999997E+02  0.45594000000E+02  0.51100000000E-03 0.  1.
         11   -1    0    0    0    0 -0.00000000000E+00 -0.00000000000E+00 -0.45593999997E+02  0.45594000000E+02  0.51100000000E-03 0. -1.
    9900012    2    1    2    0    0 -0.19120164906E+02  0.34561395843E+02 -0.17987568511E+02  0.47787269481E+02  0.19999992871E+02 0.  0.
        -12    1    1    2    0    0  0.19120164906E+02 -0.34561395843E+02  0.17987568511E+02  0.43400730519E+02  0.00000000000E+00 0.  1.
         11    1    3    3    0    0 -0.11196363554E+02  0.31085754713E+02 -0.14230712986E+02  0.35974934264E+02  0.51100000000E-03 0. -1.
        -11    1    3    3    0    0 -0.89035406573E+01  0.22775899050E+01 -0.18815331984E+01  0.93808645364E+01  0.51100000000E-03 0.  1.
         12    1    3    3    0    0  0.97973930520E+00  0.11980512247E+01 -0.18753223266E+01  0.24314706809E+01  0.00000000000E+00 0. -1.
</event>
<event>
 7    1  0.2430096E-009  0.4778728E+02  0.7816164E-02  0.1312668E+00
        -11   -1    0    0    0    0  0.00000000000E+00  0.00000000000E+00  0.45593999997E+02  0.45594000000E+02  0.51100000000E-03 0.  1.
         11   -1    0    0    0    0 -0.00000000000E+00 -0.00000000000E+00 -0.45593999997E+02  0.45594000000E+02  0.51100000000E-03 0. -1.
    9900012    2    1    2    0    0  0.34398670638E+02  0.19259353069E+02  0.18150249468E+02  0.47787276757E+02  0.20000026046E+02 0.  0.
        -12    1    1    2    0    0 -0.34398670638E+02 -0.19259353069E+02 -0.18150249468E+02  0.43400723243E+02  0.00000000000E+00 0.  1.
         11    1    3    3    0    0  0.16224954349E+02  0.14731258217E+02  0.15024268094E+02  0.26570429886E+02  0.51100000000E-03 0. -1.
        -11    1    3    3    0    0  0.54019462708E+01  0.22841606704E+01  0.54924798870E+01  0.80352815166E+01  0.51100000000E-03 0.  1.
         12    1    3    3    0    0  0.12771770017E+02  0.22439341818E+01 -0.23664985131E+01  0.13181565355E+02  0.00000000000E+00 0. -1.
</event>
<event>
 7    1  0.2430096E-009  0.4778727E+02  0.7816164E-02  0.1312668E+00
        -11   -1    0    0    0    0  0.00000000000E+00  0.00000000000E+00  0.45593999997E+02  0.45594000000E+02  0.51100000000E-03 0.  1.
         11   -1    0    0    0    0 -0.00000000000E+00 -0.00000000000E+00 -0.45593999997E+02  0.45594000000E+02  0.51100000000E-03 0. -1.
    9900012    2    1    2    0    0  0.23216860028E+02  0.30817273403E+02 -0.19871996509E+02  0.47787272185E+02  0.20000005201E+02 0.  0.
        -12    1    1    2    0    0 -0.23216860028E+02 -0.30817273403E+02  0.19871996509E+02  0.43400727815E+02  0.00000000000E+00 0.  1.
         11    1    3    3    0    0  0.10514655159E+02  0.65383830361E+01 -0.12261351190E+02  0.17425531817E+02  0.51100000000E-03 0. -1.
        -11    1    3    3    0    0  0.69129553692E+01  0.21127030506E+02 -0.32680443671E+01  0.22468210525E+02  0.51100000000E-03 0.  1.
         12    1    3    3    0    0  0.57892495001E+01  0.31518598613E+01 -0.43426009518E+01  0.78935298432E+01  0.00000000000E+00 0. -1.
</event>
<event>
 7    1  0.2430096E-009  0.4778728E+02  0.7816164E-02  0.1312668E+00
        -11   -1    0    0    0    0  0.00000000000E+00  0.00000000000E+00  0.45593999997E+02  0.45594000000E+02  0.51100000000E-03 0.  1.
         11   -1    0    0    0    0 -0.00000000000E+00 -0.00000000000E+00 -0.45593999997E+02  0.45594000000E+02  0.51100000000E-03 0. -1.
    9900012    2    1    2    0    0  0.40601241588E+02  0.26283973190E+01 -0.15108044954E+02  0.47787282111E+02  0.20000050459E+02 0.  0.
        -12    1    1    2    0    0 -0.40601241588E+02 -0.26283973190E+01  0.15108044954E+02  0.43400717889E+02  0.00000000000E+00 0.  1.
         11    1    3    3    0    0  0.13009089750E+02  0.62146758617E+01 -0.22611101047E+01  0.14593533888E+02  0.51100000000E-03 0. -1.
        -11    1    3    3    0    0  0.22243543706E+02 -0.41778376523E+01 -0.15259779300E+02  0.27296344602E+02  0.51100000000E-03 0.  1.
        -12    1    3    3    0    0  0.53486081319E+01  0.59155910959E+00  0.24128444515E+01  0.58974036216E+01  0.00000000000E+00 0.  1.
</event>
<event>
 7    1  0.2430096E-009  0.4778727E+02  0.7816164E-02  0.1312668E+00
        -11   -1    0    0    0    0  0.00000000000E+00  0.00000000000E+00  0.45593999997E+02  0.45594000000E+02  0.51100000000E-03 0.  1.
         11   -1    0    0    0    0 -0.00000000000E+00 -0.00000000000E+00 -0.45593999997E+02  0.45594000000E+02  0.51100000000E-03 0. -1.
    9900012    2    1    2    0    0  0.23399629179E+02 -0.38073252613E+01 -0.36353609332E+02  0.47787270942E+02  0.19999999531E+02 0.  0.
        -12    1    1    2    0    0 -0.23399629179E+02  0.38073252613E+01  0.36353609332E+02  0.43400729058E+02  0.00000000000E+00 0.  1.
         11    1    3    3    0    0  0.17526748470E+02 -0.34029210065E+01 -0.14051284657E+02  0.22720153698E+02  0.51100000000E-03 0. -1.
        -11    1    3    3    0    0  0.60393868638E+00 -0.15786859733E+01 -0.18222202923E+02  0.18300428163E+02  0.51100000000E-03 0.  1.
        -12    1    3    3    0    0  0.52689420228E+01  0.11742817185E+01 -0.40801217523E+01  0.67666890801E+01  0.00000000000E+00 0.  1.
</event>
<event>
 7    1  0.2430096E-009  0.4778727E+02  0.7816164E-02  0.1312668E+00
        -11   -1    0    0    0    0  0.00000000000E+00  0.00000000000E+00  0.45593999997E+02  0.45594000000E+02  0.51100000000E-03 0.  1.
         11   -1    0    0    0    0 -0.00000000000E+00 -0.00000000000E+00 -0.45593999997E+02  0.45594000000E+02  0.51100000000E-03 0. -1.
    9900012    2    1    2    0    0  0.31984463327E+02  0.29261275667E+02 -0.20964303856E+01  0.47787272260E+02  0.20000005543E+02 0.  0.
        -12    1    1    2    0    0 -0.31984463327E+02 -0.29261275667E+02  0.20964303856E+01  0.43400727740E+02  0.00000000000E+00 0.  1.
         11    1    3    3    0    0  0.10599315081E+02  0.12121876539E+02 -0.54856624113E+01  0.17011109998E+02  0.51100000000E-03 0. -1.
        -11    1    3    3    0    0  0.43649791461E+01 -0.21479159318E+01  0.62400586068E+00  0.49046885091E+01  0.51100000000E-03 0.  1.
        -12    1    3    3    0    0  0.17020169100E+02  0.19287315060E+02  0.27652261651E+01  0.25871473753E+02  0.00000000000E+00 0.  1.
</event>
<event>
 7    1  0.2430096E-009  0.4778727E+02  0.7816164E-02  0.1312668E+00
        -11   -1    0    0    0    0  0.00000000000E+00  0.00000000000E+00  0.45593999997E+02  0.45594000000E+02  0.51100000000E-03 0. -1.
         11   -1    0    0    0    0 -0.00000000000E+00 -0.00000000000E+00 -0.45593999997E+02  0.45594000000E+02  0.51100000000E-03 0.  1.
    9900012    2    1    2    0    0  0.68725267783E+01 -0.24534195384E+02  0.35134953093E+02  0.47787270786E+02  0.19999998823E+02 0.  0.
        -12    1    1    2    0    0 -0.68725267783E+01  0.24534195384E+02 -0.35134953093E+02  0.43400729214E+02  0.00000000000E+00 0.  1.
         11    1    3    3    0    0 -0.34515559665E+01 -0.83339942047E+01  0.53086945483E+01  0.10466658304E+02  0.51100000000E-03 0. -1.
        -11    1    3    3    0    0  0.12918567987E+02 -0.13443287935E+02  0.24580108429E+02  0.30851144549E+02  0.51100000000E-03 0.  1.
         12    1    3    3    0    0 -0.25944852418E+01 -0.27569132444E+01  0.52461501155E+01  0.64694679334E+01  0.00000000000E+00 0. -1.
</event>
<event>
 7    1  0.2430096E-009  0.4778727E+02  0.7816164E-02  0.1312668E+00
        -11   -1    0    0    0    0  0.00000000000E+00  0.00000000000E+00  0.45593999997E+02  0.45594000000E+02  0.51100000000E-03 0.  1.
         11   -1    0    0    0    0 -0.00000000000E+00 -0.00000000000E+00 -0.45593999997E+02  0.45594000000E+02  0.51100000000E-03 0. -1.
    9900012    2    1    2    0    0 -0.46863202036E+01  0.29622769577E+02 -0.31371214547E+02  0.47787272165E+02  0.20000005107E+02 0.  0.
        -12    1    1    2    0    0  0.46863202036E+01 -0.29622769577E+02  0.31371214547E+02  0.43400727835E+02  0.00000000000E+00 0.  1.
         11    1    3    3    0    0 -0.12064046148E+00 -0.54079106307E+00 -0.91738755653E+01  0.91905931389E+01  0.51100000000E-03 0. -1.
        -11    1    3    3    0    0 -0.32776517461E+01  0.17703089404E+02 -0.81129077678E+01  0.19747446622E+02  0.51100000000E-03 0.  1.
         12    1    3    3    0    0 -0.12880279960E+01  0.12460471237E+02 -0.14084431214E+02  0.18849232403E+02  0.00000000000E+00 0. -1.
</event>
<event>
 7    1  0.2430096E-009  0.4778727E+02  0.7816164E-02  0.1312668E+00
        -11   -1    0    0    0    0  0.00000000000E+00  0.00000000000E+00  0.45593999997E+02  0.45594000000E+02  0.51100000000E-03 0. -1.
         11   -1    0    0    0    0 -0.00000000000E+00 -0.00000000000E+00 -0.45593999997E+02  0.45594000000E+02  0.51100000000E-03 0.  1.
    9900012    2    1    2    0    0 -0.21615151953E+02  0.28293988936E+02  0.24816506062E+02  0.47787267552E+02  0.19999984078E+02 0.  0.
        -12    1    1    2    0    0  0.21615151953E+02 -0.28293988936E+02 -0.24816506062E+02  0.43400732448E+02  0.00000000000E+00 0.  1.
         11    1    3    3    0    0  0.79536605010E+00  0.54512999988E+01  0.32505357736E+01  0.63965038816E+01  0.51100000000E-03 0.  1.
        -11    1    3    3    0    0 -0.18079329266E+02  0.24703219309E+02  0.18524619037E+02  0.35780898559E+02  0.51100000000E-03 0. -1.
        -12    1    3    3    0    0 -0.43311887368E+01 -0.18605303718E+01  0.30413512522E+01  0.56098651122E+01  0.00000000000E+00 0.  1.
</event>
<event>
 7    1  0.2430096E-009  0.4778722E+02  0.7816164E-02  0.1312668E+00
        -11   -1    0    0    0    0  0.00000000000E+00  0.00000000000E+00  0.45593999997E+02  0.45594000000E+02  0.51100000000E-03 0.  1.
         11   -1    0    0    0    0 -0.00000000000E+00 -0.00000000000E+00 -0.45593999997E+02  0.45594000000E+02  0.51100000000E-03 0. -1.
    9900012    2    1    2    0    0  0.85651739987E+01 -0.41100217592E+02 -0.11001701774E+02  0.47787221969E+02  0.19999776245E+02 0.  0.
        -12    1    1    2    0    0 -0.85651739987E+01  0.41100217592E+02  0.11001701774E+02  0.43400778031E+02  0.00000000000E+00 0.  1.
         11    1    3    3    0    0  0.60151222554E+01 -0.23893623423E+02 -0.26110477278E+01  0.24777096410E+02  0.51100000000E-03 0. -1.
        -11    1    3    3    0    0 -0.12306720986E+00  0.20105096379E+01 -0.99069443767E+00  0.22447205332E+01  0.51100000000E-03 0.  1.
        -12    1    3    3    0    0  0.26731189532E+01 -0.19217103807E+02 -0.73999596087E+01  0.20765405025E+02  0.00000000000E+00 0.  1.
</event>
<event>
 7    1  0.2430096E-009  0.4778726E+02  0.7816164E-02  0.1312668E+00
        -11   -1    0    0    0    0  0.00000000000E+00  0.00000000000E+00  0.45593999997E+02  0.45594000000E+02  0.51100000000E-03 0.  1.
         11   -1    0    0    0    0 -0.00000000000E+00 -0.00000000000E+00 -0.45593999997E+02  0.45594000000E+02  0.51100000000E-03 0. -1.
    9900012    2    1    2    0    0 -0.38948621377E+02 -0.56398255193E+01 -0.18298126812E+02  0.47787260561E+02  0.19999952200E+02 0.  0.
        -12    1    1    2    0    0  0.38948621377E+02  0.56398255193E+01  0.18298126812E+02  0.43400739439E+02  0.00000000000E+00 0.  1.
         11    1    3    3    0    0 -0.34314376521E+02 -0.11248520185E+02 -0.14449550721E+02  0.38894667484E+02  0.51100000000E-03 0. -1.
        -11    1    3    3    0    0 -0.73145946241E+00  0.22069224172E+01 -0.27481414924E+01  0.35996974073E+01  0.51100000000E-03 0.  1.
         12    1    3    3    0    0 -0.39027853932E+01  0.34017722489E+01 -0.11004345989E+01  0.52928956692E+01  0.00000000000E+00 0. -1.
</event>
<event>
 7    1  0.2430096E-009  0.4778727E+02  0.7816164E-02  0.1312668E+00
        -11   -1    0    0    0    0  0.00000000000E+00  0.00000000000E+00  0.45593999997E+02  0.45594000000E+02  0.51100000000E-03 0. -1.
         11   -1    0    0    0    0 -0.00000000000E+00 -0.00000000000E+00 -0.45593999997E+02  0.45594000000E+02  0.51100000000E-03 0.  1.
    9900012    2    1    2    0    0  0.55926111683E+00  0.39357488948E+02  0.18283833758E+02  0.47787270903E+02  0.19999999354E+02 0.  0.
        -12    1    1    2    0    0 -0.55926111683E+00 -0.39357488948E+02 -0.18283833758E+02  0.43400729097E+02  0.00000000000E+00 0.  1.
         11    1    3    3    0    0 -0.72667958668E+01  0.25254650529E+02  0.64740979298E+01  0.27065063085E+02  0.51100000000E-03 0. -1.
        -11    1    3    3    0    0  0.57496657648E+01  0.70211825622E+01  0.91245903379E+01  0.12869102924E+02  0.51100000000E-03 0.  1.
         12    1    3    3    0    0  0.20763912189E+01  0.70816558569E+01  0.26851454901E+01  0.78531048938E+01  0.00000000000E+00 0. -1.
</event>
<event>
 7    1  0.2430096E-009  0.4778727E+02  0.7816164E-02  0.1312668E+00
        -11   -1    0    0    0    0  0.00000000000E+00  0.00000000000E+00  0.45593999997E+02  0.45594000000E+02  0.51100000000E-03 0. -1.
         11   -1    0    0    0    0 -0.00000000000E+00 -0.00000000000E+00 -0.45593999997E+02  0.45594000000E+02  0.51100000000E-03 0.  1.
    9900012    2    1    2    0    0  0.33219756979E+02 -0.24821832940E+02  0.12804202922E+02  0.47787271242E+02  0.20000000902E+02 0.  0.
        -12    1    1    2    0    0 -0.33219756979E+02  0.24821832940E+02 -0.12804202922E+02  0.43400728758E+02  0.00000000000E+00 0.  1.
         11    1    3    3    0    0  0.19061957876E+02 -0.26685498069E+01  0.24516506012E+01  0.19403349893E+02  0.51100000000E-03 0. -1.
        -11    1    3    3    0    0  0.53495020806E+01 -0.96148232723E+01  0.55661457322E+01  0.12330611406E+02  0.51100000000E-03 0.  1.
         12    1    3    3    0    0  0.88082970222E+01 -0.12538459860E+02  0.47864065888E+01  0.16053309943E+02  0.00000000000E+00 0. -1.
</event>
<event>
 7    1  0.2430096E-009  0.4778727E+02  0.7816164E-02  0.1312668E+00
        -11   -1    0    0    0    0  0.00000000000E+00  0.00000000000E+00  0.45593999997E+02  0.45594000000E+02  0.51100000000E-03 0.  1.
         11   -1    0    0    0    0 -0.00000000000E+00 -0.00000000000E+00 -0.45593999997E+02  0.45594000000E+02  0.51100000000E-03 0. -1.
    9900012    2    1    2    0    0  0.21006934549E+02 -0.19718836861E+02 -0.32457654752E+02  0.47787272146E+02  0.20000005020E+02 0.  0.
        -12    1    1    2    0    0 -0.21006934549E+02  0.19718836861E+02  0.32457654752E+02  0.43400727854E+02  0.00000000000E+00 0.  1.
         11    1    3    3    0    0  0.18477575447E+02 -0.13263658989E+02 -0.21637288948E+02  0.31392956494E+02  0.51100000000E-03 0. -1.
        -11    1    3    3    0    0 -0.32122078324E+01 -0.56356406395E+01 -0.51421729297E+01  0.82777211403E+01  0.51100000000E-03 0.  1.
        -12    1    3    3    0    0  0.57415669345E+01 -0.81953723277E+00 -0.56781928744E+01  0.81165945111E+01  0.00000000000E+00 0.  1.
</event>
<event>
 7    1  0.2430096E-009  0.4778727E+02  0.7816164E-02  0.1312668E+00
        -11   -1    0    0    0    0  0.00000000000E+00  0.00000000000E+00  0.45593999997E+02  0.45594000000E+02  0.51100000000E-03 0. -1.
         11   -1    0    0    0    0 -0.00000000000E+00 -0.00000000000E+00 -0.45593999997E+02  0.45594000000E+02  0.51100000000E-03 0.  1.
    9900012    2    1    2    0    0 -0.38474920435E+02 -0.12650240088E+02  0.15597275930E+02  0.47787273126E+02  0.20000009491E+02 0.  0.
        -12    1    1    2    0    0  0.38474920435E+02  0.12650240088E+02 -0.15597275930E+02  0.43400726874E+02  0.00000000000E+00 0.  1.
         11    1    3    3    0    0 -0.94783499088E+01  0.22701156195E+01  0.73123667187E+01  0.12184549610E+02  0.51100000000E-03 0. -1.
        -11    1    3    3    0    0 -0.24926205346E+02 -0.88411565964E+01  0.30850726465E+01  0.26627043328E+02  0.51100000000E-03 0.  1.
         12    1    3    3    0    0 -0.40703651805E+01 -0.60791991110E+01  0.51998365647E+01  0.89756801878E+01  0.00000000000E+00 0. -1.
</event>
<event>
 7    1  0.2430096E-009  0.4778727E+02  0.7816164E-02  0.1312668E+00
        -11   -1    0    0    0    0  0.00000000000E+00  0.00000000000E+00  0.45593999997E+02  0.45594000000E+02  0.51100000000E-03 0.  1.
         11   -1    0    0    0    0 -0.00000000000E+00 -0.00000000000E+00 -0.45593999997E+02  0.45594000000E+02  0.51100000000E-03 0. -1.
    9900012    2    1    2    0    0 -0.23332173425E+02  0.23963404034E+02 -0.27658419520E+02  0.47787271665E+02  0.20000002832E+02 0.  0.
        -12    1    1    2    0    0  0.23332173425E+02 -0.23963404034E+02  0.27658419520E+02  0.43400728335E+02  0.00000000000E+00 0.  1.
         11    1    3    3    0    0 -0.11571318377E+02  0.50565933482E+01 -0.18635816790E+02  0.22511290789E+02  0.51100000000E-03 0. -1.
        -11    1    3    3    0    0 -0.21039930159E+01  0.95235143857E+01 -0.15468325922E+01  0.98750597059E+01  0.51100000000E-03 0.  1.
         12    1    3    3    0    0 -0.96568620323E+01  0.93832962999E+01 -0.74757701371E+01  0.15400921171E+02  0.00000000000E+00 0. -1.
</event>
<event>
 7    1  0.2430096E-009  0.4778727E+02  0.7816164E-02  0.1312668E+00
        -11   -1    0    0    0    0  0.00000000000E+00  0.00000000000E+00  0.45593999997E+02  0.45594000000E+02  0.51100000000E-03 0.  1.
         11   -1    0    0    0    0 -0.00000000000E+00 -0.00000000000E+00 -0.45593999997E+02  0.45594000000E+02  0.51100000000E-03 0. -1.
    9900012    2    1    2    0    0 -0.30697504259E+02  0.16618998195E+02 -0.25789447132E+02  0.47787268991E+02  0.19999990638E+02 0.  0.
        -12    1    1    2    0    0  0.30697504259E+02 -0.16618998195E+02  0.25789447132E+02  0.43400731009E+02  0.00000000000E+00 0.  1.
         11    1    3    3    0    0 -0.28494725474E+02  0.12648942861E+02 -0.14221636903E+02  0.34266603155E+02  0.51100000000E-03 0. -1.
        -11    1    3    3    0    0 -0.10874434231E+01 -0.32969252851E+00 -0.75544524952E-02  0.11363484029E+01  0.51100000000E-03 0.  1.
         12    1    3    3    0    0 -0.11153353612E+01  0.42997478630E+01 -0.11560255777E+02  0.12384317433E+02  0.00000000000E+00 0. -1.
</event>
<event>
 7    1  0.2430096E-009  0.4778727E+02  0.7816164E-02  0.1312668E+00
        -11   -1    0    0    0    0  0.00000000000E+00  0.00000000000E+00  0.45593999997E+02  0.45594000000E+02  0.51100000000E-03 0.  1.
         11   -1    0    0    0    0 -0.00000000000E+00 -0.00000000000E+00 -0.45593999997E+02  0.45594000000E+02  0.51100000000E-03 0. -1.
    9900012    2    1    2    0    0 -0.26509154949E+02 -0.17123301793E+02 -0.29793970669E+02  0.47787269031E+02  0.19999990820E+02 0.  0.
        -12    1    1    2    0    0  0.26509154949E+02  0.17123301793E+02  0.29793970669E+02  0.43400730969E+02  0.00000000000E+00 0.  1.
         11    1    3    3    0    0 -0.99925144904E+01 -0.87646396555E+01 -0.12217537130E+02  0.18053738336E+02  0.51100000000E-03 0. -1.
        -11    1    3    3    0    0 -0.99123514076E+01  0.17317291794E+01 -0.23921165659E+01  0.10342911500E+02  0.51100000000E-03 0.  1.
        -12    1    3    3    0    0 -0.66042890506E+01 -0.10090391317E+02 -0.15184316973E+02  0.19390619194E+02  0.00000000000E+00 0.  1.
</event>
<event>
 7    1  0.2430096E-009  0.4778727E+02  0.7816164E-02  0.1312668E+00
        -11   -1    0    0    0    0  0.00000000000E+00  0.00000000000E+00  0.45593999997E+02  0.45594000000E+02  0.51100000000E-03 0.  1.
         11   -1    0    0    0    0 -0.00000000000E+00 -0.00000000000E+00 -0.45593999997E+02  0.45594000000E+02  0.51100000000E-03 0. -1.
    9900012    2    1    2    0    0 -0.90190373803E+01 -0.79172532762E+01 -0.41708480616E+02  0.47787270858E+02  0.19999999152E+02 0.  0.
        -12    1    1    2    0    0  0.90190373803E+01  0.79172532762E+01  0.41708480616E+02  0.43400729142E+02  0.00000000000E+00 0.  1.
         11    1    3    3    0    0  0.23118347642E+01 -0.42926612266E+01 -0.21755720768E+02  0.22295356171E+02  0.51100000000E-03 0. -1.
        -11    1    3    3    0    0 -0.12509310902E+02 -0.52740803781E+00 -0.15098858015E+02  0.19614701938E+02  0.51100000000E-03 0.  1.
        -12    1    3    3    0    0  0.11784387570E+01 -0.30971840117E+01 -0.48539018332E+01  0.58772127503E+01  0.00000000000E+00 0.  1.
</event>
<event>
 7    1  0.2430096E-009  0.4778724E+02  0.7816164E-02  0.1312668E+00
        -11   -1    0    0    0    0  0.00000000000E+00  0.00000000000E+00  0.45593999997E+02  0.45594000000E+02  0.51100000000E-03 0.  1.
         11   -1    0    0    0    0 -0.00000000000E+00 -0.00000000000E+00 -0.45593999997E+02  0.45594000000E+02  0.51100000000E-03 0. -1.
    9900012    2    1    2    0    0 -0.30949433649E+02  0.26428388974E+02  0.15076430915E+02  0.47787240144E+02  0.19999859110E+02 0.  0.
        -12    1    1    2    0    0  0.30949433649E+02 -0.26428388974E+02 -0.15076430915E+02  0.43400759856E+02  0.00000000000E+00 0.  1.
         11    1    3    3    0    0 -0.98261449616E+01  0.11605508798E+02  0.12640140505E+02  0.19774076755E+02  0.51100000000E-03 0. -1.
        -11    1    3    3    0    0 -0.27810946437E+01 -0.73126214230E+00 -0.20728165688E+01  0.35448272915E+01  0.51100000000E-03 0.  1.
         12    1    3    3    0    0 -0.18342194044E+02  0.15554142318E+02  0.45091069791E+01  0.24468336097E+02  0.00000000000E+00 0. -1.
</event>
<event>
 7    1  0.2430096E-009  0.4778727E+02  0.7816164E-02  0.1312668E+00
        -11   -1    0    0    0    0  0.00000000000E+00  0.00000000000E+00  0.45593999997E+02  0.45594000000E+02  0.51100000000E-03 0. -1.
         11   -1    0    0    0    0 -0.00000000000E+00 -0.00000000000E+00 -0.45593999997E+02  0.45594000000E+02  0.51100000000E-03 0.  1.
    9900012    2    1    2    0    0 -0.17439088345E+02 -0.13226948333E+02  0.37477317024E+02  0.47787271252E+02  0.20000000947E+02 0.  0.
        -12    1    1    2    0    0  0.17439088345E+02  0.13226948333E+02 -0.37477317024E+02  0.43400728748E+02  0.00000000000E+00 0.  1.
         11    1    3    3    0    0 -0.90746653238E+01 -0.13132576190E+02  0.26405873141E+02  0.30855862404E+02  0.51100000000E-03 0. -1.
        -11    1    3    3    0    0 -0.10412222430E+02 -0.50410883667E+00  0.76779472607E+01  0.12946790183E+02  0.51100000000E-03 0.  1.
        -12    1    3    3    0    0  0.20477994086E+01  0.40973669290E+00  0.33934966224E+01  0.39846186645E+01  0.00000000000E+00 0.  1.
</event>
<event>
 7    1  0.2430096E-009  0.4778727E+02  0.7816164E-02  0.1312668E+00
        -11   -1    0    0    0    0  0.00000000000E+00  0.00000000000E+00  0.45593999997E+02  0.45594000000E+02  0.51100000000E-03 0. -1.
         11   -1    0    0    0    0 -0.00000000000E+00 -0.00000000000E+00 -0.45593999997E+02  0.45594000000E+02  0.51100000000E-03 0.  1.
    9900012    2    1    2    0    0  0.19157475600E+02  0.26343290387E+02  0.28681805536E+02  0.47787265115E+02  0.19999972963E+02 0.  0.
        -12    1    1    2    0    0 -0.19157475600E+02 -0.26343290387E+02 -0.28681805536E+02  0.43400734885E+02  0.00000000000E+00 0.  1.
         11    1    3    3    0    0  0.51991068623E+01 -0.15994712759E+01  0.90904755488E+01  0.10593666339E+02  0.51100000000E-03 0. -1.
        -11    1    3    3    0    0  0.12611736264E+02  0.23407513310E+02  0.18338217937E+02  0.32299501673E+02  0.51100000000E-03 0.  1.
         12    1    3    3    0    0  0.13466324733E+01  0.45352483530E+01  0.12531120503E+01  0.48940971028E+01  0.00000000000E+00 0. -1.
</event>
<event>
 7    1  0.2430096E-009  0.4778727E+02  0.7816164E-02  0.1312668E+00
        -11   -1    0    0    0    0  0.00000000000E+00  0.00000000000E+00  0.45593999997E+02  0.45594000000E+02  0.51100000000E-03 0.  1.
         11   -1    0    0    0    0 -0.00000000000E+00 -0.00000000000E+00 -0.45593999997E+02  0.45594000000E+02  0.51100000000E-03 0. -1.
    9900012    2    1    2    0    0 -0.23667560289E+02  0.20861996163E+02 -0.29803471346E+02  0.47787271916E+02  0.20000003972E+02 0.  0.
        -12    1    1    2    0    0  0.23667560289E+02 -0.20861996163E+02  0.29803471346E+02  0.43400728084E+02  0.00000000000E+00 0.  1.
         11    1    3    3    0    0  0.72337051089E+00 -0.18554914156E+01  0.11685879163E+00  0.19949359709E+01  0.51100000000E-03 0.  1.
        -11    1    3    3    0    0 -0.46625301122E+01  0.10425797888E+02 -0.97330345025E+01  0.15005612601E+02  0.51100000000E-03 0. -1.
         12    1    3    3    0    0 -0.19728400688E+02  0.12291689691E+02 -0.20187295636E+02  0.30786723344E+02  0.00000000000E+00 0. -1.
</event>
<event>
 7    1  0.2430096E-009  0.4778727E+02  0.7816164E-02  0.1312668E+00
        -11   -1    0    0    0    0  0.00000000000E+00  0.00000000000E+00  0.45593999997E+02  0.45594000000E+02  0.51100000000E-03 0.  1.
         11   -1    0    0    0    0 -0.00000000000E+00 -0.00000000000E+00 -0.45593999997E+02  0.45594000000E+02  0.51100000000E-03 0. -1.
    9900012    2    1    2    0    0 -0.15870666926E+02 -0.18994187610E+02 -0.35650613330E+02  0.47787268873E+02  0.19999990097E+02 0.  0.
        -12    1    1    2    0    0  0.15870666926E+02  0.18994187610E+02  0.35650613330E+02  0.43400731127E+02  0.00000000000E+00 0.  1.
         11    1    3    3    0    0  0.77573688017E-01  0.28815852413E+01 -0.12719456445E+01  0.31507772316E+01  0.51100000000E-03 0. -1.
        -11    1    3    3    0    0 -0.57431340379E+01 -0.13912261279E+02 -0.14395225776E+02  0.20826836723E+02  0.51100000000E-03 0.  1.
         12    1    3    3    0    0 -0.10205106576E+02 -0.79635115716E+01 -0.19983441909E+02  0.23809654918E+02  0.00000000000E+00 0. -1.
</event>
<event>
 7    1  0.2430096E-009  0.4778728E+02  0.7816164E-02  0.1312668E+00
        -11   -1    0    0    0    0  0.00000000000E+00  0.00000000000E+00  0.45593999997E+02  0.45594000000E+02  0.51100000000E-03 0.  1.
         11   -1    0    0    0    0 -0.00000000000E+00 -0.00000000000E+00 -0.45593999997E+02  0.45594000000E+02  0.51100000000E-03 0. -1.
    9900012    2    1    2    0    0  0.31748539277E+02 -0.55977997455E+01 -0.29057133521E+02  0.47787284376E+02  0.20000060784E+02 0.  0.
        -12    1    1    2    0    0 -0.31748539277E+02  0.55977997455E+01  0.29057133521E+02  0.43400715624E+02  0.00000000000E+00 0.  1.
         11    1    3    3    0    0  0.49652616399E+01 -0.85669921917E+01 -0.58607785253E+01  0.11506341884E+02  0.51100000000E-03 0. -1.
        -11    1    3    3    0    0  0.23204876799E+02  0.17052382917E+01 -0.22604958737E+02  0.32440072513E+02  0.51100000000E-03 0.  1.
        -12    1    3    3    0    0  0.35784008376E+01  0.12639541544E+01 -0.59139625888E+00  0.38408699788E+01  0.00000000000E+00 0.  1.
</event>
<event>
 7    1  0.2430096E-009  0.4778727E+02  0.7816164E-02  0.1312668E+00
        -11   -1    0    0    0    0  0.00000000000E+00  0.00000000000E+00  0.45593999997E+02  0.45594000000E+02  0.51100000000E-03 0. -1.
         11   -1    0    0    0    0 -0.00000000000E+00 -0.00000000000E+00 -0.45593999997E+02  0.45594000000E+02  0.51100000000E-03 0.  1.
    9900012    2    1    2    0    0 -0.18017563779E+02  0.32590332253E+02  0.22290387229E+02  0.47787265862E+02  0.19999976372E+02 0.  0.
        -12    1    1    2    0    0  0.18017563779E+02 -0.32590332253E+02 -0.22290387229E+02  0.43400734138E+02  0.00000000000E+00 0.  1.
         11    1    3    3    0    0 -0.17230225974E+02  0.24038079819E+02  0.18314479506E+02  0.34786924675E+02  0.51100000000E-03 0. -1.
        -11    1    3    3    0    0  0.17179880595E+01  0.86658017594E+01  0.51556699406E+01  0.10228809115E+02  0.51100000000E-03 0.  1.
        -12    1    3    3    0    0 -0.25053258650E+01 -0.11354932573E+00 -0.11797622176E+01  0.27715320726E+01  0.00000000000E+00 0.  1.
</event>
<event>
 7    1  0.2430096E-009  0.4778727E+02  0.7816164E-02  0.1312668E+00
        -11   -1    0    0    0    0  0.00000000000E+00  0.00000000000E+00  0.45593999997E+02  0.45594000000E+02  0.51100000000E-03 0.  1.
         11   -1    0    0    0    0 -0.00000000000E+00 -0.00000000000E+00 -0.45593999997E+02  0.45594000000E+02  0.51100000000E-03 0. -1.
    9900012    2    1    2    0    0 -0.75265814100E+01  0.35472729587E+02 -0.23846579114E+02  0.47787270656E+02  0.19999998230E+02 0.  0.
        -12    1    1    2    0    0  0.75265814100E+01 -0.35472729587E+02  0.23846579114E+02  0.43400729344E+02  0.00000000000E+00 0.  1.
         11    1    3    3    0    0 -0.30774094801E+01  0.32823381208E+02 -0.21004262654E+02  0.39089945676E+02  0.51100000000E-03 0. -1.
        -11    1    3    3    0    0 -0.70351654115E+00 -0.19577693717E+01 -0.16163217948E+01  0.26344435545E+01  0.51100000000E-03 0.  1.
        -12    1    3    3    0    0 -0.37456553887E+01  0.46071177511E+01 -0.12259946655E+01  0.60628814258E+01  0.00000000000E+00 0.  1.
</event>
<event>
 7    1  0.2430096E-009  0.4778727E+02  0.7816164E-02  0.1312668E+00
        -11   -1    0    0    0    0  0.00000000000E+00  0.00000000000E+00  0.45593999997E+02  0.45594000000E+02  0.51100000000E-03 0.  1.
         11   -1    0    0    0    0 -0.00000000000E+00 -0.00000000000E+00 -0.45593999997E+02  0.45594000000E+02  0.51100000000E-03 0. -1.
    9900012    2    1    2    0    0  0.44264620439E+01  0.25163022985E+02 -0.35083504886E+02  0.47787267206E+02  0.19999982497E+02 0.  0.
        -12    1    1    2    0    0 -0.44264620439E+01 -0.25163022985E+02  0.35083504886E+02  0.43400732794E+02  0.00000000000E+00 0.  1.
         11    1    3    3    0    0  0.30917090603E+01  0.11101348949E+02 -0.10570008693E+02  0.15637253514E+02  0.51100000000E-03 0. -1.
        -11    1    3    3    0    0  0.67742510959E+01  0.13338739625E+01 -0.70692327205E+01  0.98814851705E+01  0.51100000000E-03 0.  1.
        -12    1    3    3    0    0 -0.54394981123E+01  0.12727800073E+02 -0.17444263472E+02  0.22268528522E+02  0.00000000000E+00 0.  1.
</event>
<event>
 7    1  0.2430096E-009  0.4778727E+02  0.7816164E-02  0.1312668E+00
        -11   -1    0    0    0    0  0.00000000000E+00  0.00000000000E+00  0.45593999997E+02  0.45594000000E+02  0.51100000000E-03 0. -1.
         11   -1    0    0    0    0 -0.00000000000E+00 -0.00000000000E+00 -0.45593999997E+02  0.45594000000E+02  0.51100000000E-03 0.  1.
    9900012    2    1    2    0    0  0.40957690328E+02 -0.97860721560E+01 -0.10503514888E+02  0.47787269243E+02  0.19999991788E+02 0.  0.
        -12    1    1    2    0    0 -0.40957690328E+02  0.97860721560E+01  0.10503514888E+02  0.43400730757E+02  0.00000000000E+00 0.  1.
         11    1    3    3    0    0  0.15312341297E+02 -0.48937088850E+01  0.55745963453E+01  0.17014473466E+02  0.51100000000E-03 0. -1.
        -11    1    3    3    0    0  0.16011152538E+02 -0.43125169187E+01 -0.10454975070E+02  0.19602584313E+02  0.51100000000E-03 0.  1.
         12    1    3    3    0    0  0.96341964926E+01 -0.57984635233E+00 -0.56231361634E+01  0.11170211465E+02  0.00000000000E+00 0. -1.
</event>
<event>
 7    1  0.2430096E-009  0.4778726E+02  0.7816164E-02  0.1312668E+00
        -11   -1    0    0    0    0  0.00000000000E+00  0.00000000000E+00  0.45593999997E+02  0.45594000000E+02  0.51100000000E-03 0. -1.
         11   -1    0    0    0    0 -0.00000000000E+00 -0.00000000000E+00 -0.45593999997E+02  0.45594000000E+02  0.51100000000E-03 0.  1.
    9900012    2    1    2    0    0 -0.67812444726E+01  0.34685894693E+02  0.25189827664E+02  0.47787262851E+02  0.19999962645E+02 0.  0.
        -12    1    1    2    0    0  0.67812444726E+01 -0.34685894693E+02 -0.25189827664E+02  0.43400737149E+02  0.00000000000E+00 0.  1.
         11    1    3    3    0    0 -0.25423592320E+00  0.74902896169E+01  0.13206664503E+02  0.15185027560E+02  0.51100000000E-03 0. -1.
        -11    1    3    3    0    0  0.11277819462E+01  0.11982406797E+01  0.40384580866E+01  0.43608275388E+01  0.51100000000E-03 0.  1.
         12    1    3    3    0    0 -0.76547904956E+01  0.25997364397E+02  0.79447050747E+01  0.28241407752E+02  0.00000000000E+00 0. -1.
</event>
<event>
 7    1  0.2430096E-009  0.4778727E+02  0.7816164E-02  0.1312668E+00
        -11   -1    0    0    0    0  0.00000000000E+00  0.00000000000E+00  0.45593999997E+02  0.45594000000E+02  0.51100000000E-03 0.  1.
         11   -1    0    0    0    0 -0.00000000000E+00 -0.00000000000E+00 -0.45593999997E+02  0.45594000000E+02  0.51100000000E-03 0. -1.
    9900012    2    1    2    0    0 -0.15193196751E+02  0.25179920543E+02 -0.31918044994E+02  0.47787271639E+02  0.20000002709E+02 0.  0.
        -12    1    1    2    0    0  0.15193196751E+02 -0.25179920543E+02  0.31918044994E+02  0.43400728361E+02  0.00000000000E+00 0.  1.
         11    1    3    3    0    0 -0.36896443518E+01  0.16085216244E+02 -0.22714423950E+02  0.28076550940E+02  0.51100000000E-03 0. -1.
        -11    1    3    3    0    0  0.36018568293E+00 -0.14868766789E+01 -0.70515150226E+00  0.16845696444E+01  0.51100000000E-03 0.  1.
         12    1    3    3    0    0 -0.11863738082E+02  0.10581580978E+02 -0.84984695422E+01  0.18026151054E+02  0.00000000000E+00 0. -1.
</event>
<event>
 7    1  0.2430096E-009  0.4778729E+02  0.7816164E-02  0.1312668E+00
        -11   -1    0    0    0    0  0.00000000000E+00  0.00000000000E+00  0.45593999997E+02  0.45594000000E+02  0.51100000000E-03 0.  1.
         11   -1    0    0    0    0 -0.00000000000E+00 -0.00000000000E+00 -0.45593999997E+02  0.45594000000E+02  0.51100000000E-03 0. -1.
    9900012    2    1    2    0    0 -0.11839770312E+01 -0.14419669890E+02 -0.40918126242E+02  0.47787288755E+02  0.20000080751E+02 0.  0.
        -12    1    1    2    0    0  0.11839770312E+01  0.14419669890E+02  0.40918126242E+02  0.43400711245E+02  0.00000000000E+00 0.  1.
         11    1    3    3    0    0 -0.39976425698E+01 -0.40148090246E+01 -0.19429868847E+02  0.20239062263E+02  0.51100000000E-03 0. -1.
        -11    1    3    3    0    0  0.79031860343E+01 -0.40928147186E+01 -0.89913418184E+01  0.12651312571E+02  0.51100000000E-03 0.  1.
        -12    1    3    3    0    0 -0.50895204957E+01 -0.63120461467E+01 -0.12496915577E+02  0.14896913921E+02  0.00000000000E+00 0.  1.
</event>
<event>
 7    1  0.2430096E-009  0.4778727E+02  0.7816164E-02  0.1312668E+00
        -11   -1    0    0    0    0  0.00000000000E+00  0.00000000000E+00  0.45593999997E+02  0.45594000000E+02  0.51100000000E-03 0.  1.
         11   -1    0    0    0    0 -0.00000000000E+00 -0.00000000000E+00 -0.45593999997E+02  0.45594000000E+02  0.51100000000E-03 0. -1.
    9900012    2    1    2    0    0 -0.18052022271E+02 -0.19077165530E+02 -0.34551550085E+02  0.47787269984E+02  0.19999995163E+02 0.  0.
        -12    1    1    2    0    0  0.18052022271E+02  0.19077165530E+02  0.34551550085E+02  0.43400730016E+02  0.00000000000E+00 0.  1.
         11    1    3    3    0    0 -0.10520810622E+02 -0.15550738346E+02 -0.22324479516E+02  0.29170109790E+02  0.51100000000E-03 0. -1.
        -11    1    3    3    0    0 -0.76823810748E+01  0.11859290076E+01 -0.11449114431E+02  0.13838628115E+02  0.51100000000E-03 0.  1.
         12    1    3    3    0    0  0.15116942625E+00 -0.47123561916E+01 -0.77795613719E+00  0.47785320783E+01  0.00000000000E+00 0. -1.
</event>
<event>
 7    1  0.2430096E-009  0.4778727E+02  0.7816164E-02  0.1312668E+00
        -11   -1    0    0    0    0  0.00000000000E+00  0.00000000000E+00  0.45593999997E+02  0.45594000000E+02  0.51100000000E-03 0. -1.
         11   -1    0    0    0    0 -0.00000000000E+00 -0.00000000000E+00 -0.45593999997E+02  0.45594000000E+02  0.51100000000E-03 0.  1.
    9900012    2    1    2    0    0 -0.25390225722E+01  0.39203804329E+01  0.43148664119E+02  0.47787271508E+02  0.20000002116E+02 0.  0.
        -12    1    1    2    0    0  0.25390225722E+01 -0.39203804329E+01 -0.43148664119E+02  0.43400728492E+02  0.00000000000E+00 0.  1.
         11    1    3    3    0    0 -0.42007166574E+01 -0.72800138993E+00  0.24425642583E+02  0.24794919285E+02  0.51100000000E-03 0. -1.
        -11    1    3    3    0    0  0.60893959004E+01  0.28641178101E+01  0.47784976192E+01  0.82533601048E+01  0.51100000000E-03 0.  1.
        -12    1    3    3    0    0 -0.44277018153E+01  0.17842640128E+01  0.13944523916E+02  0.14738992119E+02  0.00000000000E+00 0.  1.
</event>
<event>
 7    1  0.2430096E-009  0.4778727E+02  0.7816164E-02  0.1312668E+00
        -11   -1    0    0    0    0  0.00000000000E+00  0.00000000000E+00  0.45593999997E+02  0.45594000000E+02  0.51100000000E-03 0.  1.
         11   -1    0    0    0    0 -0.00000000000E+00 -0.00000000000E+00 -0.45593999997E+02  0.45594000000E+02  0.51100000000E-03 0. -1.
    9900012    2    1    2    0    0 -0.20852297917E+02 -0.37901690094E+02 -0.35024410376E+01  0.47787268052E+02  0.19999986354E+02 0.  0.
        -12    1    1    2    0    0  0.20852297917E+02  0.37901690094E+02  0.35024410376E+01  0.43400731948E+02  0.00000000000E+00 0.  1.
         11    1    3    3    0    0 -0.78084927786E+01 -0.21269879436E+02  0.58315516832E+00  0.22665400965E+02  0.51100000000E-03 0. -1.
        -11    1    3    3    0    0 -0.60997750686E+01 -0.29962373872E+01 -0.67628265856E+01  0.95875188686E+01  0.51100000000E-03 0.  1.
        -12    1    3    3    0    0 -0.69440300701E+01 -0.13635573271E+02  0.26772303797E+01  0.15534348217E+02  0.00000000000E+00 0.  1.
</event>
<event>
 7    1  0.2430096E-009  0.4778727E+02  0.7816164E-02  0.1312668E+00
        -11   -1    0    0    0    0  0.00000000000E+00  0.00000000000E+00  0.45593999997E+02  0.45594000000E+02  0.51100000000E-03 0. -1.
         11   -1    0    0    0    0 -0.00000000000E+00 -0.00000000000E+00 -0.45593999997E+02  0.45594000000E+02  0.51100000000E-03 0.  1.
    9900012    2    1    2    0    0 -0.29765202746E+02 -0.30249693877E+02  0.90891289550E+01  0.47787267986E+02  0.19999986056E+02 0.  0.
        -12    1    1    2    0    0  0.29765202746E+02  0.30249693877E+02 -0.90891289550E+01  0.43400732014E+02  0.00000000000E+00 0.  1.
         11    1    3    3    0    0 -0.69650011047E+01  0.41391938503E+00 -0.13123941907E+01  0.70996442460E+01  0.51100000000E-03 0. -1.
        -11    1    3    3    0    0 -0.11234257900E+01 -0.61201215581E+01  0.37763870921E+01  0.72786724835E+01  0.51100000000E-03 0.  1.
         12    1    3    3    0    0 -0.21676775851E+02 -0.24543491704E+02  0.66251360536E+01  0.33408951257E+02  0.00000000000E+00 0. -1.
</event>
<event>
 7    1  0.2430096E-009  0.4778727E+02  0.7816164E-02  0.1312668E+00
        -11   -1    0    0    0    0  0.00000000000E+00  0.00000000000E+00  0.45593999997E+02  0.45594000000E+02  0.51100000000E-03 0. -1.
         11   -1    0    0    0    0 -0.00000000000E+00 -0.00000000000E+00 -0.45593999997E+02  0.45594000000E+02  0.51100000000E-03 0.  1.
    9900012    2    1    2    0    0  0.12366870183E+02 -0.31715983087E+02  0.26921740109E+02  0.47787272451E+02  0.20000006415E+02 0.  0.
        -12    1    1    2    0    0 -0.12366870183E+02  0.31715983087E+02 -0.26921740109E+02  0.43400727549E+02  0.00000000000E+00 0.  1.
         11    1    3    3    0    0  0.26136370236E+00 -0.12477589330E+02  0.17868255206E+02  0.21795253861E+02  0.51100000000E-03 0. -1.
        -11    1    3    3    0    0  0.21520868358E+01 -0.90900353035E+00 -0.13348325082E+01  0.26906399338E+01  0.51100000000E-03 0.  1.
         12    1    3    3    0    0  0.99534196444E+01 -0.18329390227E+02  0.10388317411E+02  0.23301378657E+02  0.00000000000E+00 0. -1.
</event>
<event>
 7    1  0.2430096E-009  0.4778727E+02  0.7816164E-02  0.1312668E+00
        -11   -1    0    0    0    0  0.00000000000E+00  0.00000000000E+00  0.45593999997E+02  0.45594000000E+02  0.51100000000E-03 0. -1.
         11   -1    0    0    0    0 -0.00000000000E+00 -0.00000000000E+00 -0.45593999997E+02  0.45594000000E+02  0.51100000000E-03 0.  1.
    9900012    2    1    2    0    0 -0.36819059285E+02 -0.20374196526E+02 -0.10624134262E+02  0.47787271440E+02  0.20000001805E+02 0.  0.
        -12    1    1    2    0    0  0.36819059285E+02  0.20374196526E+02  0.10624134262E+02  0.43400728560E+02  0.00000000000E+00 0.  1.
         11    1    3    3    0    0 -0.12719600372E+02 -0.11148671307E+02  0.33601127114E+01  0.17244461813E+02  0.51100000000E-03 0. -1.
        -11    1    3    3    0    0 -0.15550891609E+02 -0.76748403864E+01 -0.13249158651E+02  0.21823693775E+02  0.51100000000E-03 0.  1.
         12    1    3    3    0    0 -0.85485673038E+01 -0.15506848326E+01 -0.73508832298E+00  0.87191158520E+01  0.00000000000E+00 0. -1.
</event>
<event>
 7    1  0.2430096E-009  0.4778727E+02  0.7816164E-02  0.1312668E+00
        -11   -1    0    0    0    0  0.00000000000E+00  0.00000000000E+00  0.45593999997E+02  0.45594000000E+02  0.51100000000E-03 0.  1.
         11   -1    0    0    0    0 -0.00000000000E+00 -0.00000000000E+00 -0.45593999997E+02  0.45594000000E+02  0.51100000000E-03 0. -1.
    9900012    2    1    2    0    0 -0.10575583287E+02 -0.27662610571E+02 -0.31726341545E+02  0.47787265752E+02  0.19999975869E+02 0.  0.
        -12    1    1    2    0    0  0.10575583287E+02  0.27662610571E+02  0.31726341545E+02  0.43400734248E+02  0.00000000000E+00 0.  1.
         11    1    3    3    0    0 -0.13726810251E+02 -0.22706550501E+02 -0.30735176699E+02  0.40603741728E+02  0.51100000000E-03 0. -1.
        -11    1    3    3    0    0  0.64800786232E+00 -0.28880791784E+01  0.12761810527E+01  0.32232830889E+01  0.51100000000E-03 0.  1.
         12    1    3    3    0    0  0.25032191020E+01 -0.20679808915E+01 -0.22673458984E+01  0.39602409349E+01  0.00000000000E+00 0. -1.
</event>
<event>
 7    1  0.2430096E-009  0.4778727E+02  0.7816164E-02  0.1312668E+00
        -11   -1    0    0    0    0  0.00000000000E+00  0.00000000000E+00  0.45593999997E+02  0.45594000000E+02  0.51100000000E-03 0.  1.
         11   -1    0    0    0    0 -0.00000000000E+00 -0.00000000000E+00 -0.45593999997E+02  0.45594000000E+02  0.51100000000E-03 0. -1.
    9900012    2    1    2    0    0 -0.26584286712E+02  0.11132773832E+02 -0.32449350258E+02  0.47787270912E+02  0.19999999396E+02 0.  0.
        -12    1    1    2    0    0  0.26584286712E+02 -0.11132773832E+02  0.32449350258E+02  0.43400729088E+02  0.00000000000E+00 0.  1.
         11    1    3    3    0    0 -0.11408380712E+02 -0.18592920259E+01 -0.42158413970E+01  0.12303716359E+02  0.51100000000E-03 0.  1.
        -11    1    3    3    0    0 -0.10774940840E+02  0.13081318694E+02 -0.20639230942E+02  0.26705769096E+02  0.51100000000E-03 0. -1.
         12    1    3    3    0    0 -0.44009651606E+01 -0.89252835960E-01 -0.75942779188E+01  0.87777854566E+01  0.00000000000E+00 0. -1.
</event>
<event>
 7    1  0.2430096E-009  0.4778727E+02  0.7816164E-02  0.1312668E+00
        -11   -1    0    0    0    0  0.00000000000E+00  0.00000000000E+00  0.45593999997E+02  0.45594000000E+02  0.51100000000E-03 0.  1.
         11   -1    0    0    0    0 -0.00000000000E+00 -0.00000000000E+00 -0.45593999997E+02  0.45594000000E+02  0.51100000000E-03 0. -1.
    9900012    2    1    2    0    0  0.38466547767E+02 -0.18310761872E+02 -0.82863592204E+01  0.47787273663E+02  0.20000011937E+02 0.  0.
        -12    1    1    2    0    0 -0.38466547767E+02  0.18310761872E+02  0.82863592204E+01  0.43400726337E+02  0.00000000000E+00 0.  1.
         11    1    3    3    0    0  0.67775811478E+01 -0.52654469357E+00 -0.41844504786E+00  0.68108701389E+01  0.51100000000E-03 0. -1.
        -11    1    3    3    0    0  0.30921459749E+02 -0.10155132531E+02 -0.63492371694E+01  0.33159858302E+02  0.51100000000E-03 0.  1.
        -12    1    3    3    0    0  0.76750687089E+00 -0.76290846480E+01 -0.15186770032E+01  0.78165452217E+01  0.00000000000E+00 0.  1.
</event>
<event>
 7    1  0.2430096E-009  0.4778727E+02  0.7816164E-02  0.1312668E+00
        -11   -1    0    0    0    0  0.00000000000E+00  0.00000000000E+00  0.45593999997E+02  0.45594000000E+02  0.51100000000E-03 0. -1.
         11   -1    0    0    0    0 -0.00000000000E+00 -0.00000000000E+00 -0.45593999997E+02  0.45594000000E+02  0.51100000000E-03 0.  1.
    9900012    2    1    2    0    0  0.42694093613E+02  0.33010320830E+01 -0.70668808073E+01  0.47787271359E+02  0.20000001433E+02 0.  0.
        -12    1    1    2    0    0 -0.42694093613E+02 -0.33010320830E+01  0.70668808073E+01  0.43400728641E+02  0.00000000000E+00 0.  1.
         11    1    3    3    0    0  0.20357201299E+02  0.76904762773E+01 -0.26023653290E+01  0.21916463576E+02  0.51100000000E-03 0. -1.
        -11    1    3    3    0    0  0.17511916955E+02 -0.47956038544E+01 -0.80345536313E+01  0.19854951626E+02  0.51100000000E-03 0.  1.
         12    1    3    3    0    0  0.48249753587E+01  0.40615966008E+00  0.35700381530E+01  0.60158561564E+01  0.00000000000E+00 0. -1.
</event>
<event>
 7    1  0.2430096E-009  0.4778727E+02  0.7816164E-02  0.1312668E+00
        -11   -1    0    0    0    0  0.00000000000E+00  0.00000000000E+00  0.45593999997E+02  0.45594000000E+02  0.51100000000E-03 0. -1.
         11   -1    0    0    0    0 -0.00000000000E+00 -0.00000000000E+00 -0.45593999997E+02  0.45594000000E+02  0.51100000000E-03 0.  1.
    9900012    2    1    2    0    0 -0.10810566618E+02  0.30481468485E+02  0.28941926996E+02  0.47787269478E+02  0.19999992858E+02 0.  0.
        -12    1    1    2    0    0  0.10810566618E+02 -0.30481468485E+02 -0.28941926996E+02  0.43400730522E+02  0.00000000000E+00 0.  1.
         11    1    3    3    0    0 -0.94920607762E+01  0.93301778035E+01  0.17319592283E+02  0.21843070131E+02  0.51100000000E-03 0. -1.
        -11    1    3    3    0    0  0.40792434093E+01  0.96754049625E+01  0.57005308227E+01  0.11947792261E+02  0.51100000000E-03 0.  1.
        -12    1    3    3    0    0 -0.53977492511E+01  0.11475885719E+02  0.59218038898E+01  0.13996407086E+02  0.00000000000E+00 0.  1.
</event>
<event>
 7    1  0.2430096E-009  0.4778726E+02  0.7816164E-02  0.1312668E+00
        -11   -1    0    0    0    0  0.00000000000E+00  0.00000000000E+00  0.45593999997E+02  0.45594000000E+02  0.51100000000E-03 0. -1.
         11   -1    0    0    0    0 -0.00000000000E+00 -0.00000000000E+00 -0.45593999997E+02  0.45594000000E+02  0.51100000000E-03 0.  1.
    9900012    2    1    2    0    0  0.12929483023E+02 -0.39891185877E+02  0.11186850927E+02  0.47787264113E+02  0.19999968396E+02 0.  0.
        -12    1    1    2    0    0 -0.12929483023E+02  0.39891185877E+02 -0.11186850927E+02  0.43400735887E+02  0.00000000000E+00 0.  1.
         11    1    3    3    0    0  0.73810422310E+01 -0.93123492837E+01  0.18884147810E+01  0.12031863706E+02  0.51100000000E-03 0. -1.
        -11    1    3    3    0    0  0.87589384870E+01 -0.94909470363E+01  0.13241194918E+01  0.12982695088E+02  0.51100000000E-03 0.  1.
        -12    1    3    3    0    0 -0.32104976954E+01 -0.21087889557E+02  0.79743166545E+01  0.22772705318E+02  0.00000000000E+00 0.  1.
</event>
<event>
 7    1  0.2462824E-009  0.4778723E+02  0.7816164E-02  0.1312668E+00
        -11   -1    0    0    0    0  0.00000000000E+00  0.00000000000E+00  0.45593999997E+02  0.45594000000E+02  0.51100000000E-03 0. -1.
         11   -1    0    0    0    0 -0.00000000000E+00 -0.00000000000E+00 -0.45593999997E+02  0.45594000000E+02  0.51100000000E-03 0.  1.
    9900012    2    1    2    0    0 -0.56894922227E+01 -0.25827528045E+02  0.34412142670E+02  0.47787227082E+02  0.19999799558E+02 0.  0.
        -12    1    1    2    0    0  0.56894922227E+01  0.25827528045E+02 -0.34412142670E+02  0.43400772918E+02  0.00000000000E+00 0.  1.
         11    1    3    3    0    0 -0.47270199531E+01 -0.19720593459E+02  0.27599640620E+02  0.34248893217E+02  0.51100000000E-03 0. -1.
        -11    1    3    3    0    0  0.38285662683E+01 -0.81551581354E+00  0.38592549823E+00  0.39334367243E+01  0.51100000000E-03 0.  1.
        -12    1    3    3    0    0 -0.47910385379E+01 -0.52914187732E+01  0.64265765523E+01  0.96048971409E+01  0.00000000000E+00 0.  1.
</event>
<event>
 7    1  0.2430096E-009  0.4778727E+02  0.7816164E-02  0.1312668E+00
        -11   -1    0    0    0    0  0.00000000000E+00  0.00000000000E+00  0.45593999997E+02  0.45594000000E+02  0.51100000000E-03 0.  1.
         11   -1    0    0    0    0 -0.00000000000E+00 -0.00000000000E+00 -0.45593999997E+02  0.45594000000E+02  0.51100000000E-03 0. -1.
    9900012    2    1    2    0    0  0.14601771792E+02 -0.29328098547E+01 -0.40765306338E+02  0.47787270583E+02  0.19999997895E+02 0.  0.
        -12    1    1    2    0    0 -0.14601771792E+02  0.29328098547E+01  0.40765306338E+02  0.43400729417E+02  0.00000000000E+00 0.  1.
         11    1    3    3    0    0  0.66355196243E+01 -0.78001838766E+01 -0.12078785856E+02  0.15835720925E+02  0.51100000000E-03 0. -1.
        -11    1    3    3    0    0  0.58915453976E+00  0.64606660429E+01 -0.12126186443E+02  0.13752516377E+02  0.51100000000E-03 0.  1.
         12    1    3    3    0    0  0.73770976276E+01 -0.15932920210E+01 -0.16560334039E+02  0.18199033280E+02  0.00000000000E+00 0. -1.
</event>
<event>
 7    1  0.2430096E-009  0.4778727E+02  0.7816164E-02  0.1312668E+00
        -11   -1    0    0    0    0  0.00000000000E+00  0.00000000000E+00  0.45593999997E+02  0.45594000000E+02  0.51100000000E-03 0. -1.
         11   -1    0    0    0    0 -0.00000000000E+00 -0.00000000000E+00 -0.45593999997E+02  0.45594000000E+02  0.51100000000E-03 0.  1.
    9900012    2    1    2    0    0 -0.10790490327E+02  0.36516301972E+02  0.20826624199E+02  0.47787271127E+02  0.20000000375E+02 0.  0.
        -12    1    1    2    0    0  0.10790490327E+02 -0.36516301972E+02 -0.20826624199E+02  0.43400728873E+02  0.00000000000E+00 0.  1.
         11    1    3    3    0    0  0.88365487867E+00 -0.16430276290E+01  0.21243493200E+00  0.18776353735E+01  0.51100000000E-03 0.  1.
        -11    1    3    3    0    0 -0.59137937902E+01  0.31760696414E+02  0.14904801956E+02  0.35579037583E+02  0.51100000000E-03 0. -1.
         12    1    3    3    0    0 -0.57603514158E+01  0.63986331864E+01  0.57093873114E+01  0.10330598170E+02  0.00000000000E+00 0. -1.
</event>
<event>
 7    1  0.2430096E-009  0.4778727E+02  0.7816164E-02  0.1312668E+00
        -11   -1    0    0    0    0  0.00000000000E+00  0.00000000000E+00  0.45593999997E+02  0.45594000000E+02  0.51100000000E-03 0.  1.
         11   -1    0    0    0    0 -0.00000000000E+00 -0.00000000000E+00 -0.45593999997E+02  0.45594000000E+02  0.51100000000E-03 0. -1.
    9900012    2    1    2    0    0  0.16238907020E+02 -0.18429464586E+02 -0.35780946849E+02  0.47787269320E+02  0.19999992139E+02 0.  0.
        -12    1    1    2    0    0 -0.16238907020E+02  0.18429464586E+02  0.35780946849E+02  0.43400730680E+02  0.00000000000E+00 0.  1.
         11    1    3    3    0    0  0.16015409659E+02 -0.15491874188E+02 -0.20294984307E+02  0.30139308231E+02  0.51100000000E-03 0. -1.
        -11    1    3    3    0    0 -0.23436694902E+01  0.18783610424E+01 -0.57169587073E+01  0.64579132858E+01  0.51100000000E-03 0.  1.
         12    1    3    3    0    0  0.25671668519E+01 -0.48159514407E+01 -0.97690038343E+01  0.11190047803E+02  0.00000000000E+00 0. -1.
</event>
<event>
 7    1  0.2430096E-009  0.4778727E+02  0.7816164E-02  0.1312668E+00
        -11   -1    0    0    0    0  0.00000000000E+00  0.00000000000E+00  0.45593999997E+02  0.45594000000E+02  0.51100000000E-03 0. -1.
         11   -1    0    0    0    0 -0.00000000000E+00 -0.00000000000E+00 -0.45593999997E+02  0.45594000000E+02  0.51100000000E-03 0.  1.
    9900012    2    1    2    0    0 -0.24083351630E+02  0.30559682487E+02  0.19228134659E+02  0.47787272104E+02  0.20000004830E+02 0.  0.
        -12    1    1    2    0    0  0.24083351630E+02 -0.30559682487E+02 -0.19228134659E+02  0.43400727896E+02  0.00000000000E+00 0.  1.
         11    1    3    3    0    0 -0.13928301510E+02  0.81409540897E+01  0.27576424768E+01  0.16366957834E+02  0.51100000000E-03 0. -1.
        -11    1    3    3    0    0 -0.32128874483E+01  0.78266438792E+01  0.11947932069E+02  0.14640084738E+02  0.51100000000E-03 0.  1.
        -12    1    3    3    0    0 -0.69421626720E+01  0.14592084518E+02  0.45225601139E+01  0.16780229531E+02  0.00000000000E+00 0.  1.
</event>
<event>
 7    1  0.2430096E-009  0.4778727E+02  0.7816164E-02  0.1312668E+00
        -11   -1    0    0    0    0  0.00000000000E+00  0.00000000000E+00  0.45593999997E+02  0.45594000000E+02  0.51100000000E-03 0. -1.
         11   -1    0    0    0    0 -0.00000000000E+00 -0.00000000000E+00 -0.45593999997E+02  0.45594000000E+02  0.51100000000E-03 0.  1.
    9900012    2    1    2    0    0  0.71300120947E+01 -0.69318074027E+01  0.42246141004E+02  0.47787268945E+02  0.19999990428E+02 0.  0.
        -12    1    1    2    0    0 -0.71300120947E+01  0.69318074027E+01 -0.42246141004E+02  0.43400731055E+02  0.00000000000E+00 0.  1.
         11    1    3    3    0    0  0.36062630093E+01  0.63581004649E+00  0.80585518335E+01  0.88515334954E+01  0.51100000000E-03 0. -1.
        -11    1    3    3    0    0  0.29303020639E+01  0.34332900667E+01  0.20410366528E+01  0.49537845883E+01  0.51100000000E-03 0.  1.
        -12    1    3    3    0    0  0.59344702151E+00 -0.11000907516E+02  0.32146552518E+02  0.33981950861E+02  0.00000000000E+00 0.  1.
</event>
<event>
 7    1  0.2430096E-009  0.4778728E+02  0.7816164E-02  0.1312668E+00
        -11   -1    0    0    0    0  0.00000000000E+00  0.00000000000E+00  0.45593999997E+02  0.45594000000E+02  0.51100000000E-03 0.  1.
         11   -1    0    0    0    0 -0.00000000000E+00 -0.00000000000E+00 -0.45593999997E+02  0.45594000000E+02  0.51100000000E-03 0. -1.
    9900012    2    1    2    0    0 -0.36957165202E+02  0.19027611588E+02  0.12479596935E+02  0.47787281087E+02  0.20000045789E+02 0.  0.
        -12    1    1    2    0    0  0.36957165202E+02 -0.19027611588E+02 -0.12479596935E+02  0.43400718913E+02  0.00000000000E+00 0.  1.
         11    1    3    3    0    0 -0.89012013698E+01  0.95815695282E+01  0.97712883304E+01  0.16325315812E+02  0.51100000000E-03 0. -1.
        -11    1    3    3    0    0 -0.73996731270E+01 -0.18514037375E+01  0.20943801251E+01  0.79100750031E+01  0.51100000000E-03 0.  1.
         12    1    3    3    0    0 -0.20656290705E+02  0.11297445798E+02  0.61392847946E+00  0.23551890273E+02  0.00000000000E+00 0. -1.
</event>
<event>
 7    1  0.2430096E-009  0.4778727E+02  0.7816164E-02  0.1312668E+00
        -11   -1    0    0    0    0  0.00000000000E+00  0.00000000000E+00  0.45593999997E+02  0.45594000000E+02  0.51100000000E-03 0.  1.
         11   -1    0    0    0    0 -0.00000000000E+00 -0.00000000000E+00 -0.45593999997E+02  0.45594000000E+02  0.51100000000E-03 0. -1.
    9900012    2    1    2    0    0  0.52252811019E+01 -0.34502239136E+02 -0.25805329366E+02  0.47787273144E+02  0.20000009571E+02 0.  0.
        -12    1    1    2    0    0 -0.52252811019E+01  0.34502239136E+02  0.25805329366E+02  0.43400726856E+02  0.00000000000E+00 0.  1.
         11    1    3    3    0    0  0.44539109377E+01 -0.92910790551E+01 -0.14795074819E+02  0.18029301478E+02  0.51100000000E-03 0. -1.
        -11    1    3    3    0    0 -0.39986799633E+01 -0.37670998431E+01 -0.86901779213E+00  0.55619847951E+01  0.51100000000E-03 0.  1.
        -12    1    3    3    0    0  0.47700501275E+01 -0.21444060238E+02 -0.10141236755E+02  0.24195986870E+02  0.00000000000E+00 0.  1.
</event>
<event>
 7    1  0.2430096E-009  0.4778727E+02  0.7816164E-02  0.1312668E+00
        -11   -1    0    0    0    0  0.00000000000E+00  0.00000000000E+00  0.45593999997E+02  0.45594000000E+02  0.51100000000E-03 0.  1.
         11   -1    0    0    0    0 -0.00000000000E+00 -0.00000000000E+00 -0.45593999997E+02  0.45594000000E+02  0.51100000000E-03 0. -1.
    9900012    2    1    2    0    0 -0.20544560050E+02  0.38189856012E+02  0.17548019678E+01  0.47787269824E+02  0.19999994434E+02 0.  0.
        -12    1    1    2    0    0  0.20544560050E+02 -0.38189856012E+02 -0.17548019678E+01  0.43400730176E+02  0.00000000000E+00 0.  1.
         11    1    3    3    0    0 -0.20177072771E+02  0.29201560448E+02  0.78487883873E+01  0.36351738303E+02  0.51100000000E-03 0. -1.
        -11    1    3    3    0    0  0.31151243969E+00  0.41279542629E+01 -0.48427923965E+01  0.63710034417E+01  0.51100000000E-03 0.  1.
         12    1    3    3    0    0 -0.67899971814E+00  0.48603413016E+01 -0.12511940230E+01  0.50645280795E+01  0.00000000000E+00 0. -1.
</event>
<event>
 7    1  0.2430096E-009  0.4778727E+02  0.7816164E-02  0.1312668E+00
        -11   -1    0    0    0    0  0.00000000000E+00  0.00000000000E+00  0.45593999997E+02  0.45594000000E+02  0.51100000000E-03 0.  1.
         11   -1    0    0    0    0 -0.00000000000E+00 -0.00000000000E+00 -0.45593999997E+02  0.45594000000E+02  0.51100000000E-03 0. -1.
    9900012    2    1    2    0    0 -0.25270194184E+02  0.95670849232E+01 -0.33963380813E+02  0.47787273459E+02  0.20000011010E+02 0.  0.
        -12    1    1    2    0    0  0.25270194184E+02 -0.95670849232E+01  0.33963380813E+02  0.43400726541E+02  0.00000000000E+00 0.  1.
         11    1    3    3    0    0 -0.10863525559E+02  0.11414734755E+02 -0.12485981899E+02  0.20105026768E+02  0.51100000000E-03 0. -1.
        -11    1    3    3    0    0  0.11479114472E+01  0.78653678539E-02 -0.62662860972E-01  0.11496475329E+01  0.51100000000E-03 0.  1.
         12    1    3    3    0    0 -0.15554580073E+02 -0.18555151997E+01 -0.21414736053E+02  0.26532599159E+02  0.00000000000E+00 0. -1.
</event>
<event>
 7    1  0.2430096E-009  0.4778727E+02  0.7816164E-02  0.1312668E+00
        -11   -1    0    0    0    0  0.00000000000E+00  0.00000000000E+00  0.45593999997E+02  0.45594000000E+02  0.51100000000E-03 0.  1.
         11   -1    0    0    0    0 -0.00000000000E+00 -0.00000000000E+00 -0.45593999997E+02  0.45594000000E+02  0.51100000000E-03 0. -1.
    9900012    2    1    2    0    0 -0.35101661205E+02  0.28128487125E+01 -0.25368964125E+02  0.47787273301E+02  0.20000010290E+02 0.  0.
        -12    1    1    2    0    0  0.35101661205E+02 -0.28128487125E+01  0.25368964125E+02  0.43400726699E+02  0.00000000000E+00 0.  1.
         11    1    3    3    0    0 -0.16384007522E+02  0.85072586677E+01 -0.19754613593E+02  0.27038008636E+02  0.51100000000E-03 0. -1.
        -11    1    3    3    0    0 -0.18300672069E+02 -0.49762197393E+01 -0.47507225750E+01  0.19551131075E+02  0.51100000000E-03 0.  1.
         12    1    3    3    0    0 -0.41698161323E+00 -0.71819021598E+00 -0.86362795686E+00  0.11981335902E+01  0.00000000000E+00 0. -1.
</event>
<event>
 7    1  0.2430096E-009  0.4778727E+02  0.7816164E-02  0.1312668E+00
        -11   -1    0    0    0    0  0.00000000000E+00  0.00000000000E+00  0.45593999997E+02  0.45594000000E+02  0.51100000000E-03 0.  1.
         11   -1    0    0    0    0 -0.00000000000E+00 -0.00000000000E+00 -0.45593999997E+02  0.45594000000E+02  0.51100000000E-03 0. -1.
    9900012    2    1    2    0    0 -0.40401887339E+02  0.14706595456E+02 -0.59183847088E+01  0.47787265813E+02  0.19999976146E+02 0.  0.
        -12    1    1    2    0    0  0.40401887339E+02 -0.14706595456E+02  0.59183847088E+01  0.43400734187E+02  0.00000000000E+00 0.  1.
         11    1    3    3    0    0 -0.20875051125E+01 -0.47570957786E+00  0.10518079252E+01  0.23854302274E+01  0.51100000000E-03 0. -1.
        -11    1    3    3    0    0 -0.34771097938E+02  0.64562352736E+01 -0.43905089227E+01  0.35636902147E+02  0.51100000000E-03 0.  1.
        -12    1    3    3    0    0 -0.35432842881E+01  0.87260697605E+01 -0.25796837113E+01  0.97649334386E+01  0.00000000000E+00 0.  1.
</event>
<event>
 7    1  0.2430096E-009  0.4778727E+02  0.7816164E-02  0.1312668E+00
        -11   -1    0    0    0    0  0.00000000000E+00  0.00000000000E+00  0.45593999997E+02  0.45594000000E+02  0.51100000000E-03 0. -1.
         11   -1    0    0    0    0 -0.00000000000E+00 -0.00000000000E+00 -0.45593999997E+02  0.45594000000E+02  0.51100000000E-03 0.  1.
    9900012    2    1    2    0    0  0.31118360976E+02  0.26817935219E+02  0.14002467964E+02  0.47787272491E+02  0.20000006596E+02 0.  0.
        -12    1    1    2    0    0 -0.31118360976E+02 -0.26817935219E+02 -0.14002467964E+02  0.43400727509E+02  0.00000000000E+00 0.  1.
         11    1    3    3    0    0  0.15630126007E+02  0.25176768239E+02  0.67330307071E+01  0.30389211914E+02  0.51100000000E-03 0. -1.
        -11    1    3    3    0    0  0.11639714156E+02  0.23233336798E+01  0.50089941632E+01  0.12882967353E+02  0.51100000000E-03 0.  1.
         12    1    3    3    0    0  0.38485208121E+01 -0.68216669989E+00  0.22604430939E+01  0.45150932248E+01  0.00000000000E+00 0. -1.
</event>
<event>
 7    1  0.2430096E-009  0.4778727E+02  0.7816164E-02  0.1312668E+00
        -11   -1    0    0    0    0  0.00000000000E+00  0.00000000000E+00  0.45593999997E+02  0.45594000000E+02  0.51100000000E-03 0.  1.
         11   -1    0    0    0    0 -0.00000000000E+00 -0.00000000000E+00 -0.45593999997E+02  0.45594000000E+02  0.51100000000E-03 0. -1.
    9900012    2    1    2    0    0  0.37535615620E+02 -0.21344612678E+02  0.43712982295E+01  0.47787272142E+02  0.20000005006E+02 0.  0.
        -12    1    1    2    0    0 -0.37535615620E+02  0.21344612678E+02 -0.43712982295E+01  0.43400727858E+02  0.00000000000E+00 0.  1.
         11    1    3    3    0    0  0.31321666576E+02 -0.80181332779E+01  0.42646247640E+01  0.32611720025E+02  0.51100000000E-03 0. -1.
        -11    1    3    3    0    0  0.30000181438E+01 -0.32200820160E+01 -0.99888353016E+00  0.45129597406E+01  0.51100000000E-03 0.  1.
         12    1    3    3    0    0  0.32139309002E+01 -0.10106397384E+02  0.11055569957E+01  0.10662592377E+02  0.00000000000E+00 0. -1.
</event>
<event>
 7    1  0.2430096E-009  0.4778728E+02  0.7816164E-02  0.1312668E+00
        -11   -1    0    0    0    0  0.00000000000E+00  0.00000000000E+00  0.45593999997E+02  0.45594000000E+02  0.51100000000E-03 0. -1.
         11   -1    0    0    0    0 -0.00000000000E+00 -0.00000000000E+00 -0.45593999997E+02  0.45594000000E+02  0.51100000000E-03 0.  1.
    9900012    2    1    2    0    0 -0.28323447588E+02 -0.17065500193E+01  0.32840411907E+02  0.47787278226E+02  0.20000032745E+02 0.  0.
        -12    1    1    2    0    0  0.28323447588E+02  0.17065500193E+01 -0.32840411907E+02  0.43400721774E+02  0.00000000000E+00 0.  1.
         11    1    3    3    0    0 -0.13223954529E+02 -0.90268557888E+01  0.17301618699E+02  0.23573355907E+02  0.51100000000E-03 0. -1.
        -11    1    3    3    0    0 -0.98618887993E+01  0.85546001019E+01  0.12279576875E+02  0.17922779976E+02  0.51100000000E-03 0.  1.
        -12    1    3    3    0    0 -0.52376042596E+01 -0.12342943324E+01  0.32592163333E+01  0.62911423435E+01  0.00000000000E+00 0.  1.
</event>
<event>
 7    1  0.2430096E-009  0.4778727E+02  0.7816164E-02  0.1312668E+00
        -11   -1    0    0    0    0  0.00000000000E+00  0.00000000000E+00  0.45593999997E+02  0.45594000000E+02  0.51100000000E-03 0.  1.
         11   -1    0    0    0    0 -0.00000000000E+00 -0.00000000000E+00 -0.45593999997E+02  0.45594000000E+02  0.51100000000E-03 0. -1.
    9900012    2    1    2    0    0 -0.75834673153E+01 -0.16168015405E+02 -0.39556410355E+02  0.47787270757E+02  0.19999998690E+02 0.  0.
        -12    1    1    2    0    0  0.75834673153E+01  0.16168015405E+02  0.39556410355E+02  0.43400729243E+02  0.00000000000E+00 0.  1.
         11    1    3    3    0    0  0.37802082394E+00 -0.40653791493E+01 -0.25610928311E+02  0.25934337404E+02  0.51100000000E-03 0. -1.
        -11    1    3    3    0    0 -0.42336244114E+01 -0.16821930936E+01 -0.72716439616E+00  0.46132545542E+01  0.51100000000E-03 0.  1.
         12    1    3    3    0    0 -0.37278637278E+01 -0.10420443162E+02 -0.13218317648E+02  0.17239678799E+02  0.00000000000E+00 0. -1.
</event>
<event>
 7    1  0.2430096E-009  0.4778728E+02  0.7816164E-02  0.1312668E+00
        -11   -1    0    0    0    0  0.00000000000E+00  0.00000000000E+00  0.45593999997E+02  0.45594000000E+02  0.51100000000E-03 0. -1.
         11   -1    0    0    0    0 -0.00000000000E+00 -0.00000000000E+00 -0.45593999997E+02  0.45594000000E+02  0.51100000000E-03 0.  1.
    9900012    2    1    2    0    0 -0.39811173424E+02  0.17271335944E+02 -0.62778065958E+00  0.47787277848E+02  0.20000031022E+02 0.  0.
        -12    1    1    2    0    0  0.39811173424E+02 -0.17271335944E+02  0.62778065958E+00  0.43400722152E+02  0.00000000000E+00 0.  1.
         11    1    3    3    0    0 -0.19450865487E+02  0.48510801433E+01 -0.85538304796E+00  0.20064915330E+02  0.51100000000E-03 0. -1.
        -11    1    3    3    0    0  0.19114865488E+01 -0.40225014376E-01  0.10642238026E+01  0.21881433776E+01  0.51100000000E-03 0.  1.
        -12    1    3    3    0    0 -0.22271794486E+02  0.12460480815E+02 -0.83662141419E+00  0.25534219141E+02  0.00000000000E+00 0.  1.
</event>
<event>
 7    1  0.2430096E-009  0.4778727E+02  0.7816164E-02  0.1312668E+00
        -11   -1    0    0    0    0  0.00000000000E+00  0.00000000000E+00  0.45593999997E+02  0.45594000000E+02  0.51100000000E-03 0.  1.
         11   -1    0    0    0    0 -0.00000000000E+00 -0.00000000000E+00 -0.45593999997E+02  0.45594000000E+02  0.51100000000E-03 0. -1.
    9900012    2    1    2    0    0 -0.19434501491E+01 -0.28542046905E+02 -0.32637368716E+02  0.47787271012E+02  0.19999999852E+02 0.  0.
        -12    1    1    2    0    0  0.19434501491E+01  0.28542046905E+02  0.32637368716E+02  0.43400728988E+02  0.00000000000E+00 0.  1.
         11    1    3    3    0    0 -0.46631885611E+01 -0.14002003636E+02 -0.18294040183E+02  0.23504751431E+02  0.51100000000E-03 0. -1.
        -11    1    3    3    0    0  0.37476642633E+01 -0.11815085205E+02 -0.32513207010E+01  0.12814535200E+02  0.51100000000E-03 0.  1.
        -12    1    3    3    0    0 -0.10279258512E+01 -0.27249580641E+01 -0.11092007832E+02  0.11467984381E+02  0.00000000000E+00 0.  1.
</event>
<event>
 7    1  0.2430096E-009  0.4778727E+02  0.7816164E-02  0.1312668E+00
        -11   -1    0    0    0    0  0.00000000000E+00  0.00000000000E+00  0.45593999997E+02  0.45594000000E+02  0.51100000000E-03 0.  1.
         11   -1    0    0    0    0 -0.00000000000E+00 -0.00000000000E+00 -0.45593999997E+02  0.45594000000E+02  0.51100000000E-03 0. -1.
    9900012    2    1    2    0    0  0.32293226869E+02  0.19527720654E+02 -0.21434534369E+02  0.47787266836E+02  0.19999980814E+02 0.  0.
        -12    1    1    2    0    0 -0.32293226869E+02 -0.19527720654E+02  0.21434534369E+02  0.43400733164E+02  0.00000000000E+00 0.  1.
         11    1    3    3    0    0  0.57769540711E+01  0.56541820543E+01 -0.69002220222E+01  0.10628077778E+02  0.51100000000E-03 0. -1.
        -11    1    3    3    0    0  0.87179678026E+01  0.12308900230E+02 -0.11654904879E+02  0.19061710193E+02  0.51100000000E-03 0.  1.
        -12    1    3    3    0    0  0.17798304995E+02  0.15646383695E+01 -0.28794074684E+01  0.18097478866E+02  0.00000000000E+00 0.  1.
</event>
<event>
 7    1  0.2430096E-009  0.4778727E+02  0.7816164E-02  0.1312668E+00
        -11   -1    0    0    0    0  0.00000000000E+00  0.00000000000E+00  0.45593999997E+02  0.45594000000E+02  0.51100000000E-03 0.  1.
         11   -1    0    0    0    0 -0.00000000000E+00 -0.00000000000E+00 -0.45593999997E+02  0.45594000000E+02  0.51100000000E-03 0. -1.
    9900012    2    1    2    0    0  0.60708822045E+00  0.92493964153E+01 -0.42399332768E+02  0.47787270636E+02  0.19999998140E+02 0.  0.
        -12    1    1    2    0    0 -0.60708822045E+00 -0.92493964153E+01  0.42399332768E+02  0.43400729364E+02  0.00000000000E+00 0.  1.
         11    1    3    3    0    0  0.18875025619E+01  0.38585314846E+01 -0.23456273592E+02  0.23846335195E+02  0.51100000000E-03 0. -1.
        -11    1    3    3    0    0  0.28524655334E+01  0.30077795518E+01  0.26069687825E+00  0.41534636841E+01  0.51100000000E-03 0.  1.
        -12    1    3    3    0    0 -0.41328798748E+01  0.23830853788E+01 -0.19203756054E+02  0.19787471758E+02  0.00000000000E+00 0.  1.
</event>
<event>
 7    1  0.2430096E-009  0.4778727E+02  0.7816164E-02  0.1312668E+00
        -11   -1    0    0    0    0  0.00000000000E+00  0.00000000000E+00  0.45593999997E+02  0.45594000000E+02  0.51100000000E-03 0.  1.
         11   -1    0    0    0    0 -0.00000000000E+00 -0.00000000000E+00 -0.45593999997E+02  0.45594000000E+02  0.51100000000E-03 0. -1.
    9900012    2    1    2    0    0  0.31213740736E+02  0.23549460384E+02 -0.18834772581E+02  0.47787270130E+02  0.19999995830E+02 0.  0.
        -12    1    1    2    0    0 -0.31213740736E+02 -0.23549460384E+02  0.18834772581E+02  0.43400729870E+02  0.00000000000E+00 0.  1.
         11    1    3    3    0    0  0.19425476584E+02  0.41092636995E+01 -0.47139061607E+01  0.20407256068E+02  0.51100000000E-03 0. -1.
        -11    1    3    3    0    0  0.10095185856E+02  0.12859825326E+02 -0.78583187452E+01  0.18139488930E+02  0.51100000000E-03 0.  1.
         12    1    3    3    0    0  0.16930782958E+01  0.65803713580E+01 -0.62625476754E+01  0.92405251318E+01  0.00000000000E+00 0. -1.
</event>
<event>
 7    1  0.2430096E-009  0.4778727E+02  0.7816164E-02  0.1312668E+00
        -11   -1    0    0    0    0  0.00000000000E+00  0.00000000000E+00  0.45593999997E+02  0.45594000000E+02  0.51100000000E-03 0.  1.
         11   -1    0    0    0    0 -0.00000000000E+00 -0.00000000000E+00 -0.45593999997E+02  0.45594000000E+02  0.51100000000E-03 0. -1.
    9900012    2    1    2    0    0  0.10858469488E+02 -0.56519363877E+01 -0.41638594179E+02  0.47787271092E+02  0.20000000215E+02 0.  0.
        -12    1    1    2    0    0 -0.10858469488E+02  0.56519363877E+01  0.41638594179E+02  0.43400728908E+02  0.00000000000E+00 0.  1.
         11    1    3    3    0    0 -0.89977843076E-01 -0.37543489950E+01 -0.22387009385E+02  0.22699811053E+02  0.51100000000E-03 0. -1.
        -11    1    3    3    0    0  0.12718164544E+02 -0.24777879588E+01 -0.19274484617E+02  0.23224919807E+02  0.51100000000E-03 0.  1.
        -12    1    3    3    0    0 -0.17697172131E+01  0.58020056611E+00  0.22899822724E-01  0.18625402313E+01  0.00000000000E+00 0.  1.
</event>
<event>
 7    1  0.2430096E-009  0.4778727E+02  0.7816164E-02  0.1312668E+00
        -11   -1    0    0    0    0  0.00000000000E+00  0.00000000000E+00  0.45593999997E+02  0.45594000000E+02  0.51100000000E-03 0.  1.
         11   -1    0    0    0    0 -0.00000000000E+00 -0.00000000000E+00 -0.45593999997E+02  0.45594000000E+02  0.51100000000E-03 0. -1.
    9900012    2    1    2    0    0  0.10962473772E+02  0.32684646766E+02 -0.26365914191E+02  0.47787269632E+02  0.19999993559E+02 0.  0.
        -12    1    1    2    0    0 -0.10962473772E+02 -0.32684646766E+02  0.26365914191E+02  0.43400730368E+02  0.00000000000E+00 0.  1.
         11    1    3    3    0    0  0.14542148546E+02  0.14840227224E+02 -0.12462664818E+02  0.24228587310E+02  0.51100000000E-03 0. -1.
        -11    1    3    3    0    0 -0.24769700694E+01  0.10866035172E+02 -0.50596387888E+01  0.12239528014E+02  0.51100000000E-03 0.  1.
         12    1    3    3    0    0 -0.11027047053E+01  0.69783843699E+01 -0.88436105834E+01  0.11319154307E+02  0.00000000000E+00 0. -1.
</event>
<event>
 7    1  0.2430096E-009  0.4778727E+02  0.7816164E-02  0.1312668E+00
        -11   -1    0    0    0    0  0.00000000000E+00  0.00000000000E+00  0.45593999997E+02  0.45594000000E+02  0.51100000000E-03 0. -1.
         11   -1    0    0    0    0 -0.00000000000E+00 -0.00000000000E+00 -0.45593999997E+02  0.45594000000E+02  0.51100000000E-03 0.  1.
    9900012    2    1    2    0    0  0.62107549493E+01  0.42826215766E+02 -0.33113621618E+01  0.47787270130E+02  0.19999995830E+02 0.  0.
        -12    1    1    2    0    0 -0.62107549493E+01 -0.42826215766E+02  0.33113621618E+01  0.43400729870E+02  0.00000000000E+00 0.  1.
         11    1    3    3    0    0  0.77598749157E+01  0.34481818895E+02  0.89186179357E+00  0.35355436792E+02  0.51100000000E-03 0. -1.
        -11    1    3    3    0    0  0.29289101239E+01  0.41182558388E+01 -0.14163506939E+00  0.50555520392E+01  0.51100000000E-03 0.  1.
         12    1    3    3    0    0 -0.44780300904E+01  0.42261410321E+01 -0.40615888860E+01  0.73762812983E+01  0.00000000000E+00 0. -1.
</event>
<event>
 7    1  0.2430096E-009  0.4778728E+02  0.7816164E-02  0.1312668E+00
        -11   -1    0    0    0    0  0.00000000000E+00  0.00000000000E+00  0.45593999997E+02  0.45594000000E+02  0.51100000000E-03 0.  1.
         11   -1    0    0    0    0 -0.00000000000E+00 -0.00000000000E+00 -0.45593999997E+02  0.45594000000E+02  0.51100000000E-03 0. -1.
    9900012    2    1    2    0    0  0.41279074611E+02  0.16519559521E+01 -0.13301546371E+02  0.47787284625E+02  0.20000061919E+02 0.  0.
        -12    1    1    2    0    0 -0.41279074611E+02 -0.16519559521E+01  0.13301546371E+02  0.43400715375E+02  0.00000000000E+00 0.  1.
         11    1    3    3    0    0  0.19496717794E+02 -0.66601693508E+01 -0.56374554600E+01  0.21360261348E+02  0.51100000000E-03 0. -1.
        -11    1    3    3    0    0  0.18908019050E+02  0.74637802818E+01 -0.99742819127E+01  0.22643045299E+02  0.51100000000E-03 0.  1.
        -12    1    3    3    0    0  0.28743377666E+01  0.84834502100E+00  0.23101910015E+01  0.37839779776E+01  0.00000000000E+00 0.  1.
</event>
<event>
 7    1  0.2430096E-009  0.4778726E+02  0.7816164E-02  0.1312668E+00
        -11   -1    0    0    0    0  0.00000000000E+00  0.00000000000E+00  0.45593999997E+02  0.45594000000E+02  0.51100000000E-03 0.  1.
         11   -1    0    0    0    0 -0.00000000000E+00 -0.00000000000E+00 -0.45593999997E+02  0.45594000000E+02  0.51100000000E-03 0. -1.
    9900012    2    1    2    0    0 -0.27813046822E+02  0.30454947503E+02 -0.13511276393E+02  0.47787262786E+02  0.19999962347E+02 0.  0.
        -12    1    1    2    0    0  0.27813046822E+02 -0.30454947503E+02  0.13511276393E+02  0.43400737214E+02  0.00000000000E+00 0.  1.
         11    1    3    3    0    0 -0.25558696976E+02  0.18910244265E+02 -0.60642237325E+01  0.32366945161E+02  0.51100000000E-03 0. -1.
        -11    1    3    3    0    0 -0.13169139697E+01  0.98320474391E+01 -0.26898847685E+01  0.10278078594E+02  0.51100000000E-03 0.  1.
        -12    1    3    3    0    0 -0.93743587606E+00  0.17126557987E+01 -0.47571678923E+01  0.51422390320E+01  0.00000000000E+00 0.  1.
</event>
<event>
 7    1  0.2430096E-009  0.4778726E+02  0.7816164E-02  0.1312668E+00
        -11   -1    0    0    0    0  0.00000000000E+00  0.00000000000E+00  0.45593999997E+02  0.45594000000E+02  0.51100000000E-03 0. -1.
         11   -1    0    0    0    0 -0.00000000000E+00 -0.00000000000E+00 -0.45593999997E+02  0.45594000000E+02  0.51100000000E-03 0.  1.
    9900012    2    1    2    0    0 -0.78626466031E+01  0.27962146014E+02  0.32247808898E+02  0.47787262679E+02  0.19999961856E+02 0.  0.
        -12    1    1    2    0    0  0.78626466031E+01 -0.27962146014E+02 -0.32247808898E+02  0.43400737321E+02  0.00000000000E+00 0.  1.
         11    1    3    3    0    0 -0.31020891680E+01  0.15916963516E+02  0.16774827126E+02  0.23331684683E+02  0.51100000000E-03 0. -1.
        -11    1    3    3    0    0  0.30165591958E+00 -0.29285306206E+01  0.12725811977E+01  0.32072965337E+01  0.51100000000E-03 0.  1.
        -12    1    3    3    0    0 -0.50622133546E+01  0.14973713119E+02  0.14200400575E+02  0.21248281462E+02  0.00000000000E+00 0.  1.
</event>
<event>
 7    1  0.2430096E-009  0.4778730E+02  0.7816164E-02  0.1312668E+00
        -11   -1    0    0    0    0  0.00000000000E+00  0.00000000000E+00  0.45593999997E+02  0.45594000000E+02  0.51100000000E-03 0.  1.
         11   -1    0    0    0    0 -0.00000000000E+00 -0.00000000000E+00 -0.45593999997E+02  0.45594000000E+02  0.51100000000E-03 0. -1.
    9900012    2    1    2    0    0 -0.71678875357E+00  0.31474138862E+02 -0.29874493422E+02  0.47787302305E+02  0.20000142530E+02 0.  0.
        -12    1    1    2    0    0  0.71678875357E+00 -0.31474138862E+02  0.29874493422E+02  0.43400697695E+02  0.00000000000E+00 0.  1.
         11    1    3    3    0    0  0.23660327823E+01  0.21794097650E+02 -0.19959978968E+02  0.29647623246E+02  0.51100000000E-03 0. -1.
        -11    1    3    3    0    0 -0.11539562922E+01  0.24307671592E+01  0.24751406605E+01  0.36560314081E+01  0.51100000000E-03 0.  1.
        -12    1    3    3    0    0 -0.19288652436E+01  0.72492740522E+01 -0.12389655114E+02  0.14483647651E+02  0.00000000000E+00 0.  1.
</event>
<event>
 7    1  0.2430096E-009  0.4778727E+02  0.7816164E-02  0.1312668E+00
        -11   -1    0    0    0    0  0.00000000000E+00  0.00000000000E+00  0.45593999997E+02  0.45594000000E+02  0.51100000000E-03 0.  1.
         11   -1    0    0    0    0 -0.00000000000E+00 -0.00000000000E+00 -0.45593999997E+02  0.45594000000E+02  0.51100000000E-03 0. -1.
    9900012    2    1    2    0    0 -0.41950083317E+02  0.89257262386E+01 -0.66441794260E+01  0.47787271902E+02  0.20000003908E+02 0.  0.
        -12    1    1    2    0    0  0.41950083317E+02 -0.89257262386E+01  0.66441794260E+01  0.43400728098E+02  0.00000000000E+00 0.  1.
         11    1    3    3    0    0 -0.17784221181E+02  0.85028970956E+01  0.41445467230E+01  0.20143362426E+02  0.51100000000E-03 0. -1.
        -11    1    3    3    0    0 -0.23933411759E+02 -0.44233012387E+00 -0.88730175778E+01  0.25529087245E+02  0.51100000000E-03 0.  1.
        -12    1    3    3    0    0 -0.23245037716E+00  0.86515926689E+00 -0.19157085712E+01  0.21148222301E+01  0.00000000000E+00 0.  1.
</event>
<event>
 7    1  0.2430096E-009  0.4778728E+02  0.7816164E-02  0.1312668E+00
        -11   -1    0    0    0    0  0.00000000000E+00  0.00000000000E+00  0.45593999997E+02  0.45594000000E+02  0.51100000000E-03 0.  1.
         11   -1    0    0    0    0 -0.00000000000E+00 -0.00000000000E+00 -0.45593999997E+02  0.45594000000E+02  0.51100000000E-03 0. -1.
    9900012    2    1    2    0    0 -0.10672964160E+02 -0.26746281325E+02 -0.32470712568E+02  0.47787275313E+02  0.20000019464E+02 0.  0.
        -12    1    1    2    0    0  0.10672964160E+02  0.26746281325E+02  0.32470712568E+02  0.43400724687E+02  0.00000000000E+00 0.  1.
         11    1    3    3    0    0 -0.49072734884E+01 -0.91700690735E+01 -0.26154079793E+02  0.28146178959E+02  0.51100000000E-03 0. -1.
        -11    1    3    3    0    0 -0.56000540085E+01 -0.14941733992E+02 -0.55002541031E+01  0.16878057206E+02  0.51100000000E-03 0.  1.
         12    1    3    3    0    0 -0.16563666296E+00 -0.26344782586E+01 -0.81637867206E+00  0.27630391484E+01  0.00000000000E+00 0. -1.
</event>
<event>
 7    1  0.2430096E-009  0.4778727E+02  0.7816164E-02  0.1312668E+00
        -11   -1    0    0    0    0  0.00000000000E+00  0.00000000000E+00  0.45593999997E+02  0.45594000000E+02  0.51100000000E-03 0.  1.
         11   -1    0    0    0    0 -0.00000000000E+00 -0.00000000000E+00 -0.45593999997E+02  0.45594000000E+02  0.51100000000E-03 0. -1.
    9900012    2    1    2    0    0 -0.72192609163E+01  0.42692348854E+02  0.29780645995E+01  0.47787271347E+02  0.20000001379E+02 0.  0.
        -12    1    1    2    0    0  0.72192609163E+01 -0.42692348854E+02 -0.29780645995E+01  0.43400728653E+02  0.00000000000E+00 0.  1.
         11    1    3    3    0    0 -0.61093273291E+01  0.30079895496E+02  0.76487505683E+01  0.31632694779E+02  0.51100000000E-03 0. -1.
        -11    1    3    3    0    0 -0.42244209856E+01  0.86908222895E+01 -0.54380422469E+01  0.11088211239E+02  0.51100000000E-03 0.  1.
         12    1    3    3    0    0  0.31144873984E+01  0.39216310691E+01  0.76735627814E+00  0.50663653297E+01  0.00000000000E+00 0. -1.
</event>
<event>
 7    1  0.2430096E-009  0.4778727E+02  0.7816164E-02  0.1312668E+00
        -11   -1    0    0    0    0  0.00000000000E+00  0.00000000000E+00  0.45593999997E+02  0.45594000000E+02  0.51100000000E-03 0.  1.
         11   -1    0    0    0    0 -0.00000000000E+00 -0.00000000000E+00 -0.45593999997E+02  0.45594000000E+02  0.51100000000E-03 0. -1.
    9900012    2    1    2    0    0 -0.14768579303E+02  0.31174413023E+02 -0.26337582323E+02  0.47787271843E+02  0.20000003639E+02 0.  0.
        -12    1    1    2    0    0  0.14768579303E+02 -0.31174413023E+02  0.26337582323E+02  0.43400728157E+02  0.00000000000E+00 0.  1.
         11    1    3    3    0    0 -0.74067697605E+01  0.75772318014E+01 -0.67096088387E+01  0.12541671782E+02  0.51100000000E-03 0. -1.
        -11    1    3    3    0    0  0.48867728484E+01  0.64165847869E+01 -0.68220238121E+01  0.10563764403E+02  0.51100000000E-03 0.  1.
        -12    1    3    3    0    0 -0.12248582391E+02  0.17180596435E+02 -0.12805949672E+02  0.24681835658E+02  0.00000000000E+00 0.  1.
</event>
<event>
 7    1  0.2430096E-009  0.4778727E+02  0.7816164E-02  0.1312668E+00
        -11   -1    0    0    0    0  0.00000000000E+00  0.00000000000E+00  0.45593999997E+02  0.45594000000E+02  0.51100000000E-03 0.  1.
         11   -1    0    0    0    0 -0.00000000000E+00 -0.00000000000E+00 -0.45593999997E+02  0.45594000000E+02  0.51100000000E-03 0. -1.
    9900012    2    1    2    0    0 -0.37845641495E+02  0.95068529948E+01 -0.18998694705E+02  0.47787271498E+02  0.20000002068E+02 0.  0.
        -12    1    1    2    0    0  0.37845641495E+02 -0.95068529948E+01  0.18998694705E+02  0.43400728502E+02  0.00000000000E+00 0.  1.
         11    1    3    3    0    0 -0.26291592453E+02  0.27985990424E+01 -0.47659425438E+01  0.26866227850E+02  0.51100000000E-03 0. -1.
        -11    1    3    3    0    0  0.98527022380E+00  0.98826514640E+00 -0.23025429338E+01  0.26924207763E+01  0.51100000000E-03 0.  1.
         12    1    3    3    0    0 -0.12539319265E+02  0.57199888060E+01 -0.11930209227E+02  0.18228622871E+02  0.00000000000E+00 0. -1.
</event>
<event>
 7    1  0.2430096E-009  0.4778727E+02  0.7816164E-02  0.1312668E+00
        -11   -1    0    0    0    0  0.00000000000E+00  0.00000000000E+00  0.45593999997E+02  0.45594000000E+02  0.51100000000E-03 0.  1.
         11   -1    0    0    0    0 -0.00000000000E+00 -0.00000000000E+00 -0.45593999997E+02  0.45594000000E+02  0.51100000000E-03 0. -1.
    9900012    2    1    2    0    0 -0.19959518518E+02 -0.27106220162E+02 -0.27395139722E+02  0.47787271535E+02  0.20000002235E+02 0.  0.
        -12    1    1    2    0    0  0.19959518518E+02  0.27106220162E+02  0.27395139722E+02  0.43400728465E+02  0.00000000000E+00 0.  1.
         11    1    3    3    0    0 -0.16112644872E+02 -0.26786910244E+02 -0.21182211051E+02  0.37760322436E+02  0.51100000000E-03 0. -1.
        -11    1    3    3    0    0  0.12429291524E+01 -0.60894378254E+00  0.60769661214E+00  0.15116153088E+01  0.51100000000E-03 0.  1.
         12    1    3    3    0    0 -0.50898027981E+01  0.28963386464E+00 -0.68206252832E+01  0.85153337899E+01  0.00000000000E+00 0. -1.
</event>
<event>
 7    1  0.2430096E-009  0.4778726E+02  0.7816164E-02  0.1312668E+00
        -11   -1    0    0    0    0  0.00000000000E+00  0.00000000000E+00  0.45593999997E+02  0.45594000000E+02  0.51100000000E-03 0.  1.
         11   -1    0    0    0    0 -0.00000000000E+00 -0.00000000000E+00 -0.45593999997E+02  0.45594000000E+02  0.51100000000E-03 0. -1.
    9900012    2    1    2    0    0 -0.13530203839E+02 -0.12902634997E+02 -0.39167331385E+02  0.47787259758E+02  0.19999948538E+02 0.  0.
        -12    1    1    2    0    0  0.13530203839E+02  0.12902634997E+02  0.39167331385E+02  0.43400740242E+02  0.00000000000E+00 0.  1.
         11    1    3    3    0    0 -0.12828341877E+02 -0.23610402930E+01 -0.25791104867E+02  0.28901936909E+02  0.51100000000E-03 0. -1.
        -11    1    3    3    0    0 -0.36502365592E+01 -0.79180178485E+01 -0.62105632537E+01  0.10704687281E+02  0.51100000000E-03 0.  1.
         12    1    3    3    0    0  0.29483745970E+01 -0.26235768552E+01 -0.71656632647E+01  0.81806355683E+01  0.00000000000E+00 0. -1.
</event>
<event>
 7    1  0.2430096E-009  0.4778727E+02  0.7816164E-02  0.1312668E+00
        -11   -1    0    0    0    0  0.00000000000E+00  0.00000000000E+00  0.45593999997E+02  0.45594000000E+02  0.51100000000E-03 0.  1.
         11   -1    0    0    0    0 -0.00000000000E+00 -0.00000000000E+00 -0.45593999997E+02  0.45594000000E+02  0.51100000000E-03 0. -1.
    9900012    2    1    2    0    0  0.29867263170E+02  0.31108561398E+02 -0.48813276581E+01  0.47787270038E+02  0.19999995412E+02 0.  0.
        -12    1    1    2    0    0 -0.29867263170E+02 -0.31108561398E+02  0.48813276581E+01  0.43400729962E+02  0.00000000000E+00 0.  1.
         11    1    3    3    0    0  0.10794137771E+02  0.21771155463E+02  0.74363842304E+00  0.24311512063E+02  0.51100000000E-03 0. -1.
        -11    1    3    3    0    0  0.11331231067E+02  0.59150953660E+01 -0.74804327810E+01  0.14810200051E+02  0.51100000000E-03 0.  1.
        -12    1    3    3    0    0  0.77418943314E+01  0.34223105692E+01  0.18554666999E+01  0.86655579246E+01  0.00000000000E+00 0.  1.
</event>
<event>
 7    1  0.2430096E-009  0.4778727E+02  0.7816164E-02  0.1312668E+00
        -11   -1    0    0    0    0  0.00000000000E+00  0.00000000000E+00  0.45593999997E+02  0.45594000000E+02  0.51100000000E-03 0.  1.
         11   -1    0    0    0    0 -0.00000000000E+00 -0.00000000000E+00 -0.45593999997E+02  0.45594000000E+02  0.51100000000E-03 0. -1.
    9900012    2    1    2    0    0  0.31719218420E+02 -0.10258564485E+02 -0.27789860418E+02  0.47787270691E+02  0.19999998390E+02 0.  0.
        -12    1    1    2    0    0 -0.31719218420E+02  0.10258564485E+02  0.27789860418E+02  0.43400729309E+02  0.00000000000E+00 0.  1.
         11    1    3    3    0    0  0.16910516174E+02 -0.47086446311E+01 -0.11901733785E+02  0.21208209704E+02  0.51100000000E-03 0. -1.
        -11    1    3    3    0    0 -0.62756536626E+00 -0.43016762213E+01 -0.82182047821E+01  0.92971579906E+01  0.51100000000E-03 0.  1.
        -12    1    3    3    0    0  0.15436267612E+02 -0.12482436323E+01 -0.76699218515E+01  0.17281902996E+02  0.00000000000E+00 0.  1.
</event>
<event>
 7    1  0.2430096E-009  0.4778727E+02  0.7816164E-02  0.1312668E+00
        -11   -1    0    0    0    0  0.00000000000E+00  0.00000000000E+00  0.45593999997E+02  0.45594000000E+02  0.51100000000E-03 0.  1.
         11   -1    0    0    0    0 -0.00000000000E+00 -0.00000000000E+00 -0.45593999997E+02  0.45594000000E+02  0.51100000000E-03 0. -1.
    9900012    2    1    2    0    0  0.92396994367E+01  0.13150888626E+02 -0.40315081911E+02  0.47787265596E+02  0.19999975159E+02 0.  0.
        -12    1    1    2    0    0 -0.92396994367E+01 -0.13150888626E+02  0.40315081911E+02  0.43400734404E+02  0.00000000000E+00 0.  1.
         11    1    3    3    0    0 -0.15204827802E+01 -0.35586897989E+01 -0.68042442152E+01  0.78277634463E+01  0.51100000000E-03 0. -1.
        -11    1    3    3    0    0  0.47160903146E+01  0.14619374966E+02 -0.24207641353E+02  0.28670150547E+02  0.51100000000E-03 0.  1.
         12    1    3    3    0    0  0.60440919023E+01  0.20902034587E+01 -0.93031963426E+01  0.11289351603E+02  0.00000000000E+00 0. -1.
</event>
<event>
 7    1  0.2430096E-009  0.4778726E+02  0.7816164E-02  0.1312668E+00
        -11   -1    0    0    0    0  0.00000000000E+00  0.00000000000E+00  0.45593999997E+02  0.45594000000E+02  0.51100000000E-03 0. -1.
         11   -1    0    0    0    0 -0.00000000000E+00 -0.00000000000E+00 -0.45593999997E+02  0.45594000000E+02  0.51100000000E-03 0.  1.
    9900012    2    1    2    0    0 -0.22797663238E+02 -0.14253914971E+02  0.34069292036E+02  0.47787260364E+02  0.19999951302E+02 0.  0.
        -12    1    1    2    0    0  0.22797663238E+02  0.14253914971E+02 -0.34069292036E+02  0.43400739636E+02  0.00000000000E+00 0.  1.
         11    1    3    3    0    0 -0.26751620048E+01  0.13215472446E+01  0.35155320571E+00  0.30044248683E+01  0.51100000000E-03 0. -1.
        -11    1    3    3    0    0 -0.21129852755E+02 -0.15720397257E+02  0.34567473167E+02  0.43457010583E+02  0.51100000000E-03 0.  1.
        -12    1    3    3    0    0  0.10073515218E+01  0.14493504199E+00 -0.84973433667E+00  0.13258249122E+01  0.00000000000E+00 0.  1.
</event>
<event>
 7    1  0.2430096E-009  0.4778727E+02  0.7816164E-02  0.1312668E+00
        -11   -1    0    0    0    0  0.00000000000E+00  0.00000000000E+00  0.45593999997E+02  0.45594000000E+02  0.51100000000E-03 0.  1.
         11   -1    0    0    0    0 -0.00000000000E+00 -0.00000000000E+00 -0.45593999997E+02  0.45594000000E+02  0.51100000000E-03 0. -1.
    9900012    2    1    2    0    0 -0.18030164163E+02 -0.33470850503E+02 -0.20934144728E+02  0.47787273409E+02  0.20000010779E+02 0.  0.
        -12    1    1    2    0    0  0.18030164163E+02  0.33470850503E+02  0.20934144728E+02  0.43400726591E+02  0.00000000000E+00 0.  1.
         11    1    3    3    0    0 -0.12648084669E+02 -0.30014625451E+02 -0.10712976939E+02  0.34287310509E+02  0.51100000000E-03 0. -1.
        -11    1    3    3    0    0 -0.37078619806E+01 -0.38088736275E+01 -0.30520341963E+01  0.61294919671E+01  0.51100000000E-03 0.  1.
         12    1    3    3    0    0 -0.16742175132E+01  0.35264857549E+00 -0.71691335923E+01  0.73704709323E+01  0.00000000000E+00 0. -1.
</event>
<event>
 7    1  0.2430096E-009  0.4778727E+02  0.7816164E-02  0.1312668E+00
        -11   -1    0    0    0    0  0.00000000000E+00  0.00000000000E+00  0.45593999997E+02  0.45594000000E+02  0.51100000000E-03 0.  1.
         11   -1    0    0    0    0 -0.00000000000E+00 -0.00000000000E+00 -0.45593999997E+02  0.45594000000E+02  0.51100000000E-03 0. -1.
    9900012    2    1    2    0    0  0.35569326598E+02 -0.11812474398E+02 -0.21884050979E+02  0.47787271512E+02  0.20000002132E+02 0.  0.
        -12    1    1    2    0    0 -0.35569326598E+02  0.11812474398E+02  0.21884050979E+02  0.43400728488E+02  0.00000000000E+00 0.  1.
         11    1    3    3    0    0  0.20734086823E+02 -0.19440201670E+01 -0.68336984951E+01  0.21917595812E+02  0.51100000000E-03 0. -1.
        -11    1    3    3    0    0  0.73991828524E+01 -0.25760853653E+01 -0.13113964364E+02  0.15276131195E+02  0.51100000000E-03 0.  1.
        -12    1    3    3    0    0  0.74360569224E+01 -0.72923688658E+01 -0.19363881201E+01  0.10593544505E+02  0.00000000000E+00 0.  1.
</event>
<event>
 7    1  0.2430096E-009  0.4778727E+02  0.7816164E-02  0.1312668E+00
        -11   -1    0    0    0    0  0.00000000000E+00  0.00000000000E+00  0.45593999997E+02  0.45594000000E+02  0.51100000000E-03 0.  1.
         11   -1    0    0    0    0 -0.00000000000E+00 -0.00000000000E+00 -0.45593999997E+02  0.45594000000E+02  0.51100000000E-03 0. -1.
    9900012    2    1    2    0    0  0.38956177401E+02  0.82849074573E+01 -0.17245279892E+02  0.47787272727E+02  0.20000007671E+02 0.  0.
        -12    1    1    2    0    0 -0.38956177401E+02 -0.82849074573E+01  0.17245279892E+02  0.43400727273E+02  0.00000000000E+00 0.  1.
         11    1    3    3    0    0  0.21998654944E+01 -0.51147881010E+00  0.34696867472E+01  0.41400175304E+01  0.51100000000E-03 0.  1.
        -11    1    3    3    0    0  0.21597535343E+02  0.27509863550E+01 -0.90041525000E+01  0.23560480074E+02  0.51100000000E-03 0. -1.
        -12    1    3    3    0    0  0.15158776564E+02  0.60453999124E+01 -0.11710814139E+02  0.20086775122E+02  0.00000000000E+00 0.  1.
</event>
<event>
 7    1  0.2430096E-009  0.4778727E+02  0.7816164E-02  0.1312668E+00
        -11   -1    0    0    0    0  0.00000000000E+00  0.00000000000E+00  0.45593999997E+02  0.45594000000E+02  0.51100000000E-03 0.  1.
         11   -1    0    0    0    0 -0.00000000000E+00 -0.00000000000E+00 -0.45593999997E+02  0.45594000000E+02  0.51100000000E-03 0. -1.
    9900012    2    1    2    0    0  0.30077721518E+02 -0.15040887804E+02 -0.27435849591E+02  0.47787268665E+02  0.19999989151E+02 0.  0.
        -12    1    1    2    0    0 -0.30077721518E+02  0.15040887804E+02  0.27435849591E+02  0.43400731335E+02  0.00000000000E+00 0.  1.
         11    1    3    3    0    0  0.16496962948E+02 -0.12205898118E+02 -0.20556252016E+02  0.29046397928E+02  0.51100000000E-03 0. -1.
        -11    1    3    3    0    0  0.13949336892E+02 -0.15472973158E+01 -0.26221946181E+01  0.14277746096E+02  0.51100000000E-03 0.  1.
         12    1    3    3    0    0 -0.36857832281E+00 -0.12876923702E+01 -0.42574029570E+01  0.44631246407E+01  0.00000000000E+00 0. -1.
</event>
<event>
 7    1  0.2430096E-009  0.4778728E+02  0.7816164E-02  0.1312668E+00
        -11   -1    0    0    0    0  0.00000000000E+00  0.00000000000E+00  0.45593999997E+02  0.45594000000E+02  0.51100000000E-03 0.  1.
         11   -1    0    0    0    0 -0.00000000000E+00 -0.00000000000E+00 -0.45593999997E+02  0.45594000000E+02  0.51100000000E-03 0. -1.
    9900012    2    1    2    0    0 -0.43373032242E+01  0.74912350442E+01 -0.42528718224E+02  0.47787277938E+02  0.20000031431E+02 0.  0.
        -12    1    1    2    0    0  0.43373032242E+01 -0.74912350442E+01  0.42528718224E+02  0.43400722062E+02  0.00000000000E+00 0.  1.
         11    1    3    3    0    0 -0.31998555409E+01  0.20686291838E+01 -0.11341613286E+02  0.11964551575E+02  0.51100000000E-03 0. -1.
        -11    1    3    3    0    0  0.13905331369E+01  0.11148730144E+02 -0.22049018774E+02  0.24746454199E+02  0.51100000000E-03 0.  1.
        -12    1    3    3    0    0 -0.25279808202E+01 -0.57261242840E+01 -0.91380861633E+01  0.11076272165E+02  0.00000000000E+00 0.  1.
</event>
<event>
 7    1  0.2430096E-009  0.4778727E+02  0.7816164E-02  0.1312668E+00
        -11   -1    0    0    0    0  0.00000000000E+00  0.00000000000E+00  0.45593999997E+02  0.45594000000E+02  0.51100000000E-03 0.  1.
         11   -1    0    0    0    0 -0.00000000000E+00 -0.00000000000E+00 -0.45593999997E+02  0.45594000000E+02  0.51100000000E-03 0. -1.
    9900012    2    1    2    0    0  0.17033641134E+02 -0.17867584091E+02 -0.35696328368E+02  0.47787270162E+02  0.19999995978E+02 0.  0.
        -12    1    1    2    0    0 -0.17033641134E+02  0.17867584091E+02  0.35696328368E+02  0.43400729838E+02  0.00000000000E+00 0.  1.
         11    1    3    3    0    0  0.76957640174E+01 -0.95785448339E+01 -0.12799286406E+02  0.17742464252E+02  0.51100000000E-03 0. -1.
        -11    1    3    3    0    0  0.16635069660E+01 -0.38714837705E+01 -0.20419521824E+02  0.20849760521E+02  0.51100000000E-03 0.  1.
        -12    1    3    3    0    0  0.76743701506E+01 -0.44175554862E+01 -0.24775201368E+01  0.91950453892E+01  0.00000000000E+00 0.  1.
</event>
<event>
 7    1  0.2430096E-009  0.4778725E+02  0.7816164E-02  0.1312668E+00
        -11   -1    0    0    0    0  0.00000000000E+00  0.00000000000E+00  0.45593999997E+02  0.45594000000E+02  0.51100000000E-03 0.  1.
         11   -1    0    0    0    0 -0.00000000000E+00 -0.00000000000E+00 -0.45593999997E+02  0.45594000000E+02  0.51100000000E-03 0. -1.
    9900012    2    1    2    0    0 -0.43129962575E+02  0.16650452702E+01 -0.45452016116E+01  0.47787252251E+02  0.19999914312E+02 0.  0.
        -12    1    1    2    0    0  0.43129962575E+02 -0.16650452702E+01  0.45452016116E+01  0.43400747749E+02  0.00000000000E+00 0.  1.
         11    1    3    3    0    0 -0.14003574906E+02 -0.70330434694E+00 -0.12416567231E+01  0.14076095298E+02  0.51100000000E-03 0. -1.
        -11    1    3    3    0    0 -0.59155136396E+01 -0.64087847076E+01 -0.45833062072E+00  0.87336069449E+01  0.51100000000E-03 0.  1.
        -12    1    3    3    0    0 -0.23210874030E+02  0.87771343248E+01 -0.28452142678E+01  0.24977550008E+02  0.00000000000E+00 0.  1.
</event>
<event>
 7    1  0.2430096E-009  0.4778728E+02  0.7816164E-02  0.1312668E+00
        -11   -1    0    0    0    0  0.00000000000E+00  0.00000000000E+00  0.45593999997E+02  0.45594000000E+02  0.51100000000E-03 0. -1.
         11   -1    0    0    0    0 -0.00000000000E+00 -0.00000000000E+00 -0.45593999997E+02  0.45594000000E+02  0.51100000000E-03 0.  1.
    9900012    2    1    2    0    0 -0.15428025520E+02 -0.14477125851E+02  0.37894746064E+02  0.47787275080E+02  0.20000018400E+02 0.  0.
        -12    1    1    2    0    0  0.15428025520E+02  0.14477125851E+02 -0.37894746064E+02  0.43400724920E+02  0.00000000000E+00 0.  1.
         11    1    3    3    0    0 -0.48226826323E+01 -0.75368069237E+01  0.28357265436E+02  0.29735437270E+02  0.51100000000E-03 0. -1.
        -11    1    3    3    0    0 -0.56540981150E+01 -0.77291000325E+01  0.34811534168E+01  0.10189516288E+02  0.51100000000E-03 0.  1.
        -12    1    3    3    0    0 -0.49512447729E+01  0.78878110561E+00  0.60563272111E+01  0.78623215224E+01  0.00000000000E+00 0.  1.
</event>
<event>
 7    1  0.2430096E-009  0.4778727E+02  0.7816164E-02  0.1312668E+00
        -11   -1    0    0    0    0  0.00000000000E+00  0.00000000000E+00  0.45593999997E+02  0.45594000000E+02  0.51100000000E-03 0. -1.
         11   -1    0    0    0    0 -0.00000000000E+00 -0.00000000000E+00 -0.45593999997E+02  0.45594000000E+02  0.51100000000E-03 0.  1.
    9900012    2    1    2    0    0 -0.36116406834E+02 -0.22165389237E+02  0.93767854626E+01  0.47787269266E+02  0.19999991890E+02 0.  0.
        -12    1    1    2    0    0  0.36116406834E+02  0.22165389237E+02 -0.93767854626E+01  0.43400730734E+02  0.00000000000E+00 0.  1.
         11    1    3    3    0    0 -0.17592221734E+02 -0.10055935085E+02  0.12086582768E+02  0.23594354817E+02  0.51100000000E-03 0. -1.
        -11    1    3    3    0    0 -0.19405613879E+02 -0.10733856221E+02 -0.33695873383E+01  0.22430952687E+02  0.51100000000E-03 0.  1.
        -12    1    3    3    0    0  0.88142877812E+00 -0.13755979319E+01  0.65979003244E+00  0.17619617612E+01  0.00000000000E+00 0.  1.
</event>
<event>
 7    1  0.2430096E-009  0.4778727E+02  0.7816164E-02  0.1312668E+00
        -11   -1    0    0    0    0  0.00000000000E+00  0.00000000000E+00  0.45593999997E+02  0.45594000000E+02  0.51100000000E-03 0. -1.
         11   -1    0    0    0    0 -0.00000000000E+00 -0.00000000000E+00 -0.45593999997E+02  0.45594000000E+02  0.51100000000E-03 0.  1.
    9900012    2    1    2    0    0 -0.27724347706E+02 -0.32844791665E+02 -0.60169443763E+01  0.47787269420E+02  0.19999992596E+02 0.  0.
        -12    1    1    2    0    0  0.27724347706E+02  0.32844791665E+02  0.60169443763E+01  0.43400730580E+02  0.00000000000E+00 0.  1.
         11    1    3    3    0    0 -0.14605522889E+02 -0.23492775603E+02 -0.74701913707E+01  0.28653718149E+02  0.51100000000E-03 0. -1.
        -11    1    3    3    0    0 -0.92620809398E+01 -0.69799038772E+01  0.57027791286E+01  0.12923888406E+02  0.51100000000E-03 0.  1.
         12    1    3    3    0    0 -0.38567438766E+01 -0.23721121849E+01 -0.42495321342E+01  0.62096628658E+01  0.00000000000E+00 0. -1.
</event>
<event>
 7    1  0.2430096E-009  0.4778727E+02  0.7816164E-02  0.1312668E+00
        -11   -1    0    0    0    0  0.00000000000E+00  0.00000000000E+00  0.45593999997E+02  0.45594000000E+02  0.51100000000E-03 0. -1.
         11   -1    0    0    0    0 -0.00000000000E+00 -0.00000000000E+00 -0.45593999997E+02  0.45594000000E+02  0.51100000000E-03 0.  1.
    9900012    2    1    2    0    0 -0.39608507889E+02  0.17642390027E+02 -0.18802141085E+01  0.47787273876E+02  0.20000012908E+02 0.  0.
        -12    1    1    2    0    0  0.39608507889E+02 -0.17642390027E+02  0.18802141085E+01  0.43400726124E+02  0.00000000000E+00 0.  1.
         11    1    3    3    0    0 -0.12730069374E+02  0.12733885635E+02  0.41487840860E+01  0.18477524706E+02  0.51100000000E-03 0. -1.
        -11    1    3    3    0    0 -0.24668026680E+02  0.60938976696E+01 -0.73816183638E+01  0.26460072166E+02  0.51100000000E-03 0.  1.
         12    1    3    3    0    0 -0.22104118352E+01 -0.11853932772E+01  0.13526201693E+01  0.28496770037E+01  0.00000000000E+00 0. -1.
</event>
<event>
 7    1  0.2430096E-009  0.4778727E+02  0.7816164E-02  0.1312668E+00
        -11   -1    0    0    0    0  0.00000000000E+00  0.00000000000E+00  0.45593999997E+02  0.45594000000E+02  0.51100000000E-03 0.  1.
         11   -1    0    0    0    0 -0.00000000000E+00 -0.00000000000E+00 -0.45593999997E+02  0.45594000000E+02  0.51100000000E-03 0. -1.
    9900012    2    1    2    0    0 -0.20341800639E+02 -0.36705128556E+02 -0.11071052858E+02  0.47787268129E+02  0.19999986706E+02 0.  0.
        -12    1    1    2    0    0  0.20341800639E+02  0.36705128556E+02  0.11071052858E+02  0.43400731871E+02  0.00000000000E+00 0.  1.
         11    1    3    3    0    0 -0.45852620197E+01 -0.18539577692E+01 -0.14844767734E+00  0.49481131933E+01  0.51100000000E-03 0. -1.
        -11    1    3    3    0    0 -0.17199033372E+02 -0.22086140897E+02 -0.10766214876E+02  0.29991928109E+02  0.51100000000E-03 0.  1.
        -12    1    3    3    0    0  0.14424947528E+01 -0.12765029890E+02 -0.15639030425E+00  0.12847226826E+02  0.00000000000E+00 0.  1.
</event>
<event>
 7    1  0.2430096E-009  0.4778727E+02  0.7816164E-02  0.1312668E+00
        -11   -1    0    0    0    0  0.00000000000E+00  0.00000000000E+00  0.45593999997E+02  0.45594000000E+02  0.51100000000E-03 0. -1.
         11   -1    0    0    0    0 -0.00000000000E+00 -0.00000000000E+00 -0.45593999997E+02  0.45594000000E+02  0.51100000000E-03 0.  1.
    9900012    2    1    2    0    0 -0.22993876999E+02  0.12049936038E+02  0.34780803145E+02  0.47787267226E+02  0.19999982589E+02 0.  0.
        -12    1    1    2    0    0  0.22993876999E+02 -0.12049936038E+02 -0.34780803145E+02  0.43400732774E+02  0.00000000000E+00 0.  1.
         11    1    3    3    0    0 -0.56429010611E+01  0.36932465608E+01  0.16925775863E+02  0.18219887249E+02  0.51100000000E-03 0. -1.
        -11    1    3    3    0    0  0.13266319184E+01  0.38084954887E+01  0.50799747027E+01  0.64861956011E+01  0.51100000000E-03 0.  1.
        -12    1    3    3    0    0 -0.18677607856E+02  0.45481939880E+01  0.12775052580E+02  0.23081184376E+02  0.00000000000E+00 0.  1.
</event>
<event>
 7    1  0.2430096E-009  0.4778729E+02  0.7816164E-02  0.1312668E+00
        -11   -1    0    0    0    0  0.00000000000E+00  0.00000000000E+00  0.45593999997E+02  0.45594000000E+02  0.51100000000E-03 0.  1.
         11   -1    0    0    0    0 -0.00000000000E+00 -0.00000000000E+00 -0.45593999997E+02  0.45594000000E+02  0.51100000000E-03 0. -1.
    9900012    2    1    2    0    0 -0.29400862518E+02 -0.90234971539E+01 -0.30623321835E+02  0.47787285053E+02  0.20000063870E+02 0.  0.
        -12    1    1    2    0    0  0.29400862518E+02  0.90234971539E+01  0.30623321835E+02  0.43400714947E+02  0.00000000000E+00 0.  1.
         11    1    3    3    0    0 -0.25008467861E+02 -0.12922894348E+02 -0.25008260760E+02  0.37654186614E+02  0.51100000000E-03 0. -1.
        -11    1    3    3    0    0  0.31072630206E+00  0.37036211809E+01 -0.27382193409E+01  0.46164061894E+01  0.51100000000E-03 0.  1.
        -12    1    3    3    0    0 -0.47031209593E+01  0.19577601360E+00 -0.28768417347E+01  0.55166922491E+01  0.00000000000E+00 0.  1.
</event>
<event>
 7    1  0.2430096E-009  0.4778727E+02  0.7816164E-02  0.1312668E+00
        -11   -1    0    0    0    0  0.00000000000E+00  0.00000000000E+00  0.45593999997E+02  0.45594000000E+02  0.51100000000E-03 0. -1.
         11   -1    0    0    0    0 -0.00000000000E+00 -0.00000000000E+00 -0.45593999997E+02  0.45594000000E+02  0.51100000000E-03 0.  1.
    9900012    2    1    2    0    0  0.14602833638E+01 -0.39979690768E+02  0.16826026555E+02  0.47787271078E+02  0.20000000152E+02 0.  0.
        -12    1    1    2    0    0 -0.14602833638E+01  0.39979690768E+02 -0.16826026555E+02  0.43400728922E+02  0.00000000000E+00 0.  1.
         11    1    3    3    0    0 -0.60675410108E+01 -0.24020176738E+02  0.64255101246E+01  0.25594357290E+02  0.51100000000E-03 0. -1.
        -11    1    3    3    0    0  0.42740074324E+01 -0.14376458449E+02  0.52341560657E+01  0.15885404844E+02  0.51100000000E-03 0.  1.
         12    1    3    3    0    0  0.32538169423E+01 -0.15830555800E+01  0.51663603643E+01  0.63075089439E+01  0.00000000000E+00 0. -1.
</event>
<event>
 7    1  0.2430096E-009  0.4778727E+02  0.7816164E-02  0.1312668E+00
        -11   -1    0    0    0    0  0.00000000000E+00  0.00000000000E+00  0.45593999997E+02  0.45594000000E+02  0.51100000000E-03 0.  1.
         11   -1    0    0    0    0 -0.00000000000E+00 -0.00000000000E+00 -0.45593999997E+02  0.45594000000E+02  0.51100000000E-03 0. -1.
    9900012    2    1    2    0    0  0.40750363176E+02  0.95102199888E+00 -0.14903923668E+02  0.47787268641E+02  0.19999989040E+02 0.  0.
        -12    1    1    2    0    0 -0.40750363176E+02 -0.95102199888E+00  0.14903923668E+02  0.43400731359E+02  0.00000000000E+00 0.  1.
         11    1    3    3    0    0  0.13425577736E+02 -0.39973138503E+01 -0.12955560874E+02  0.19080650235E+02  0.51100000000E-03 0. -1.
        -11    1    3    3    0    0  0.71523450536E+01  0.24045448569E+01  0.23930388723E+01  0.79160919044E+01  0.51100000000E-03 0.  1.
         12    1    3    3    0    0  0.20172440387E+02  0.25437909923E+01 -0.43414016658E+01  0.20790526501E+02  0.00000000000E+00 0. -1.
</event>
<event>
 7    1  0.2430096E-009  0.4778728E+02  0.7816164E-02  0.1312668E+00
        -11   -1    0    0    0    0  0.00000000000E+00  0.00000000000E+00  0.45593999997E+02  0.45594000000E+02  0.51100000000E-03 0.  1.
         11   -1    0    0    0    0 -0.00000000000E+00 -0.00000000000E+00 -0.45593999997E+02  0.45594000000E+02  0.51100000000E-03 0. -1.
    9900012    2    1    2    0    0 -0.20363165166E+02 -0.36311461809E+02 -0.12265482689E+02  0.47787276275E+02  0.20000023847E+02 0.  0.
        -12    1    1    2    0    0  0.20363165166E+02  0.36311461809E+02  0.12265482689E+02  0.43400723725E+02  0.00000000000E+00 0.  1.
         11    1    3    3    0    0 -0.20278076891E+02 -0.32767406558E+02 -0.11548787775E+02  0.40227824131E+02  0.51100000000E-03 0. -1.
        -11    1    3    3    0    0  0.25381760943E+01 -0.26967561191E+01  0.15262678998E+01  0.40055368448E+01  0.51100000000E-03 0.  1.
        -12    1    3    3    0    0 -0.26232643694E+01 -0.84729913152E+00 -0.22429628138E+01  0.35539152992E+01  0.00000000000E+00 0.  1.
</event>
<event>
 7    1  0.2430096E-009  0.4778726E+02  0.7816164E-02  0.1312668E+00
        -11   -1    0    0    0    0  0.00000000000E+00  0.00000000000E+00  0.45593999997E+02  0.45594000000E+02  0.51100000000E-03 0.  1.
         11   -1    0    0    0    0 -0.00000000000E+00 -0.00000000000E+00 -0.45593999997E+02  0.45594000000E+02  0.51100000000E-03 0. -1.
    9900012    2    1    2    0    0  0.39521298696E+02  0.17787347668E+02 -0.23025699520E+01  0.47787255581E+02  0.19999929496E+02 0.  0.
        -12    1    1    2    0    0 -0.39521298696E+02 -0.17787347668E+02  0.23025699520E+01  0.43400744419E+02  0.00000000000E+00 0.  1.
         11    1    3    3    0    0  0.30791292651E+02  0.14196003841E+02 -0.41930758440E+00  0.33908790118E+02  0.51100000000E-03 0. -1.
        -11    1    3    3    0    0 -0.43423134020E+00 -0.52478748558E+00 -0.36197772343E+01  0.36833064289E+01  0.51100000000E-03 0.  1.
        -12    1    3    3    0    0  0.91642373859E+01  0.41161313131E+01  0.17365148667E+01  0.10195159034E+02  0.00000000000E+00 0.  1.
</event>
<event>
 7    1  0.2430096E-009  0.4778728E+02  0.7816164E-02  0.1312668E+00
        -11   -1    0    0    0    0  0.00000000000E+00  0.00000000000E+00  0.45593999997E+02  0.45594000000E+02  0.51100000000E-03 0.  1.
         11   -1    0    0    0    0 -0.00000000000E+00 -0.00000000000E+00 -0.45593999997E+02  0.45594000000E+02  0.51100000000E-03 0. -1.
    9900012    2    1    2    0    0  0.33921049554E+02 -0.19307199111E+02 -0.18979387594E+02  0.47787277727E+02  0.20000030470E+02 0.  0.
        -12    1    1    2    0    0 -0.33921049554E+02  0.19307199111E+02  0.18979387594E+02  0.43400722273E+02  0.00000000000E+00 0.  1.
         11    1    3    3    0    0  0.20547119968E+01 -0.87953076379E+01 -0.70903948564E+00  0.90599125320E+01  0.51100000000E-03 0. -1.
        -11    1    3    3    0    0  0.66532953573E+01  0.27458546868E+00 -0.45341033287E+01  0.80560430452E+01  0.51100000000E-03 0.  1.
         12    1    3    3    0    0  0.25213042200E+02 -0.10786476942E+02 -0.13736244779E+02  0.30671322150E+02  0.00000000000E+00 0. -1.
</event>
<event>
 7    1  0.2430096E-009  0.4778724E+02  0.7816164E-02  0.1312668E+00
        -11   -1    0    0    0    0  0.00000000000E+00  0.00000000000E+00  0.45593999997E+02  0.45594000000E+02  0.51100000000E-03 0.  1.
         11   -1    0    0    0    0 -0.00000000000E+00 -0.00000000000E+00 -0.45593999997E+02  0.45594000000E+02  0.51100000000E-03 0. -1.
    9900012    2    1    2    0    0 -0.13860549414E+02 -0.38429252939E+02 -0.14652758640E+02  0.47787243701E+02  0.19999875331E+02 0.  0.
        -12    1    1    2    0    0  0.13860549414E+02  0.38429252939E+02  0.14652758640E+02  0.43400756299E+02  0.00000000000E+00 0.  1.
         11    1    3    3    0    0 -0.98606387281E+01 -0.19147455726E+02 -0.10173487964E+02  0.23819259319E+02  0.51100000000E-03 0. -1.
        -11    1    3    3    0    0  0.38608897690E+01 -0.15995095472E+01 -0.46229694174E+00  0.42045950249E+01  0.51100000000E-03 0.  1.
        -12    1    3    3    0    0 -0.78608004554E+01 -0.17682287666E+02 -0.40169737342E+01  0.19763389357E+02  0.00000000000E+00 0.  1.
</event>
<event>
 7    1  0.2430096E-009  0.4778727E+02  0.7816164E-02  0.1312668E+00
        -11   -1    0    0    0    0  0.00000000000E+00  0.00000000000E+00  0.45593999997E+02  0.45594000000E+02  0.51100000000E-03 0.  1.
         11   -1    0    0    0    0 -0.00000000000E+00 -0.00000000000E+00 -0.45593999997E+02  0.45594000000E+02  0.51100000000E-03 0. -1.
    9900012    2    1    2    0    0  0.25909002847E+01 -0.37544379845E+02  0.21617823759E+02  0.47787268136E+02  0.19999986741E+02 0.  0.
        -12    1    1    2    0    0 -0.25909002847E+01  0.37544379845E+02 -0.21617823759E+02  0.43400731864E+02  0.00000000000E+00 0.  1.
         11    1    3    3    0    0 -0.12472719568E+01  0.19443136079E+01  0.21503069057E+00  0.23199743962E+01  0.51100000000E-03 0. -1.
        -11    1    3    3    0    0  0.50232603141E+01 -0.24919632557E+02  0.12224634628E+02  0.28207497638E+02  0.51100000000E-03 0.  1.
         12    1    3    3    0    0 -0.11850880726E+01 -0.14569060896E+02  0.91781584403E+01  0.17259796102E+02  0.00000000000E+00 0. -1.
</event>
<event>
 7    1  0.2430096E-009  0.4778727E+02  0.7816164E-02  0.1312668E+00
        -11   -1    0    0    0    0  0.00000000000E+00  0.00000000000E+00  0.45593999997E+02  0.45594000000E+02  0.51100000000E-03 0.  1.
         11   -1    0    0    0    0 -0.00000000000E+00 -0.00000000000E+00 -0.45593999997E+02  0.45594000000E+02  0.51100000000E-03 0. -1.
    9900012    2    1    2    0    0 -0.18014046496E+02 -0.74138027510E+00 -0.39478700848E+02  0.47787270323E+02  0.19999996710E+02 0.  0.
        -12    1    1    2    0    0  0.18014046496E+02  0.74138027510E+00  0.39478700848E+02  0.43400729677E+02  0.00000000000E+00 0.  1.
         11    1    3    3    0    0 -0.16431528183E+02 -0.44614901197E+01 -0.19917378923E+02  0.26203091343E+02  0.51100000000E-03 0. -1.
        -11    1    3    3    0    0 -0.14852024586E+01  0.19423197333E+01 -0.19649982430E+02  0.19801521205E+02  0.51100000000E-03 0.  1.
        -12    1    3    3    0    0 -0.97315853779E-01  0.17777901113E+01  0.88660504868E-01  0.17826577743E+01  0.00000000000E+00 0.  1.
</event>
<event>
 7    1  0.2430096E-009  0.4778727E+02  0.7816164E-02  0.1312668E+00
        -11   -1    0    0    0    0  0.00000000000E+00  0.00000000000E+00  0.45593999997E+02  0.45594000000E+02  0.51100000000E-03 0.  1.
         11   -1    0    0    0    0 -0.00000000000E+00 -0.00000000000E+00 -0.45593999997E+02  0.45594000000E+02  0.51100000000E-03 0. -1.
    9900012    2    1    2    0    0 -0.13361847292E+02  0.25453247026E+02 -0.32514865001E+02  0.47787271973E+02  0.20000004235E+02 0.  0.
        -12    1    1    2    0    0  0.13361847292E+02 -0.25453247026E+02  0.32514865001E+02  0.43400728027E+02  0.00000000000E+00 0.  1.
         11    1    3    3    0    0 -0.12733981659E+02  0.19620702964E+02 -0.15065937898E+02  0.27822810043E+02  0.51100000000E-03 0. -1.
        -11    1    3    3    0    0 -0.12946089321E+01  0.10781203988E+01 -0.13881064452E+02  0.13982929109E+02  0.51100000000E-03 0.  1.
         12    1    3    3    0    0  0.66674329893E+00  0.47544236635E+01 -0.35678626499E+01  0.59815328209E+01  0.00000000000E+00 0. -1.
</event>
<event>
 7    1  0.2430096E-009  0.4778727E+02  0.7816164E-02  0.1312668E+00
        -11   -1    0    0    0    0  0.00000000000E+00  0.00000000000E+00  0.45593999997E+02  0.45594000000E+02  0.51100000000E-03 0.  1.
         11   -1    0    0    0    0 -0.00000000000E+00 -0.00000000000E+00 -0.45593999997E+02  0.45594000000E+02  0.51100000000E-03 0. -1.
    9900012    2    1    2    0    0 -0.35918078855E+02  0.14397175525E+02 -0.19652890195E+02  0.47787272532E+02  0.20000006782E+02 0.  0.
        -12    1    1    2    0    0  0.35918078855E+02 -0.14397175525E+02  0.19652890195E+02  0.43400727468E+02  0.00000000000E+00 0.  1.
         11    1    3    3    0    0 -0.56546121494E+01  0.46140752307E+01 -0.61072834826E+01  0.95164720665E+01  0.51100000000E-03 0. -1.
        -11    1    3    3    0    0  0.12421472686E+00  0.31176443743E+00 -0.54068234719E+01  0.54172286900E+01  0.51100000000E-03 0.  1.
        -12    1    3    3    0    0 -0.30387681433E+02  0.94713358572E+01 -0.81387832403E+01  0.32853571775E+02  0.00000000000E+00 0.  1.
</event>
<event>
 7    1  0.2430096E-009  0.4778725E+02  0.7816164E-02  0.1312668E+00
        -11   -1    0    0    0    0  0.00000000000E+00  0.00000000000E+00  0.45593999997E+02  0.45594000000E+02  0.51100000000E-03 0.  1.
         11   -1    0    0    0    0 -0.00000000000E+00 -0.00000000000E+00 -0.45593999997E+02  0.45594000000E+02  0.51100000000E-03 0. -1.
    9900012    2    1    2    0    0 -0.10019969798E+02  0.38941631125E+02  0.16333226746E+02  0.47787254323E+02  0.19999923759E+02 0.  0.
        -12    1    1    2    0    0  0.10019969798E+02 -0.38941631125E+02 -0.16333226746E+02  0.43400745677E+02  0.00000000000E+00 0.  1.
         11    1    3    3    0    0 -0.32952244245E+01  0.11503240636E+02 -0.26520238616E+01  0.12256275126E+02  0.51100000000E-03 0. -1.
        -11    1    3    3    0    0 -0.55700482225E+01  0.16364781616E+02  0.16955052993E+02  0.24213742726E+02  0.51100000000E-03 0.  1.
        -12    1    3    3    0    0 -0.11546971505E+01  0.11073608872E+02  0.20301976136E+01  0.11317236470E+02  0.00000000000E+00 0.  1.
</event>
<event>
 7    1  0.2430096E-009  0.4778726E+02  0.7816164E-02  0.1312668E+00
        -11   -1    0    0    0    0  0.00000000000E+00  0.00000000000E+00  0.45593999997E+02  0.45594000000E+02  0.51100000000E-03 0. -1.
         11   -1    0    0    0    0 -0.00000000000E+00 -0.00000000000E+00 -0.45593999997E+02  0.45594000000E+02  0.51100000000E-03 0.  1.
    9900012    2    1    2    0    0 -0.39067950634E+02  0.51732300077E+01 -0.18181238450E+02  0.47787256838E+02  0.19999935227E+02 0.  0.
        -12    1    1    2    0    0  0.39067950634E+02 -0.51732300077E+01  0.18181238450E+02  0.43400743162E+02  0.00000000000E+00 0.  1.
         11    1    3    3    0    0 -0.16569502252E+02 -0.19391141413E+01 -0.21872041430E+01  0.16825350836E+02  0.51100000000E-03 0. -1.
        -11    1    3    3    0    0 -0.17578681911E+02  0.39171768462E+01 -0.17277033972E+02  0.24956967671E+02  0.51100000000E-03 0.  1.
        -12    1    3    3    0    0 -0.49197664713E+01  0.31951673028E+01  0.12829996654E+01  0.60049383317E+01  0.00000000000E+00 0.  1.
</event>
<event>
 7    1  0.2430096E-009  0.4778727E+02  0.7816164E-02  0.1312668E+00
        -11   -1    0    0    0    0  0.00000000000E+00  0.00000000000E+00  0.45593999997E+02  0.45594000000E+02  0.51100000000E-03 0.  1.
         11   -1    0    0    0    0 -0.00000000000E+00 -0.00000000000E+00 -0.45593999997E+02  0.45594000000E+02  0.51100000000E-03 0. -1.
    9900012    2    1    2    0    0  0.34992348313E+02 -0.12122309973E+02 -0.22632020596E+02  0.47787271944E+02  0.20000004101E+02 0.  0.
        -12    1    1    2    0    0 -0.34992348313E+02  0.12122309973E+02  0.22632020596E+02  0.43400728056E+02  0.00000000000E+00 0.  1.
         11    1    3    3    0    0  0.29014178962E+02 -0.10981556580E+02 -0.23526588408E+02  0.38934785580E+02  0.51100000000E-03 0. -1.
        -11    1    3    3    0    0  0.31288894856E+01 -0.16712153147E+00  0.36224118451E+01  0.47895455793E+01  0.51100000000E-03 0.  1.
        -12    1    3    3    0    0  0.28492798657E+01 -0.97363186071E+00 -0.27278440333E+01  0.40629407851E+01  0.00000000000E+00 0.  1.
</event>
<event>
 7    1  0.2430096E-009  0.4778727E+02  0.7816164E-02  0.1312668E+00
        -11   -1    0    0    0    0  0.00000000000E+00  0.00000000000E+00  0.45593999997E+02  0.45594000000E+02  0.51100000000E-03 0.  1.
         11   -1    0    0    0    0 -0.00000000000E+00 -0.00000000000E+00 -0.45593999997E+02  0.45594000000E+02  0.51100000000E-03 0. -1.
    9900012    2    1    2    0    0  0.35009386601E+02 -0.42350678167E+01 -0.25298819575E+02  0.47787271648E+02  0.20000002751E+02 0.  0.
        -12    1    1    2    0    0 -0.35009386601E+02  0.42350678167E+01  0.25298819575E+02  0.43400728352E+02  0.00000000000E+00 0.  1.
         11    1    3    3    0    0  0.13915901042E+02 -0.52968814643E+01 -0.16112283991E+02  0.21938891283E+02  0.51100000000E-03 0. -1.
        -11    1    3    3    0    0  0.34602916464E+01  0.46231274613E+00  0.28363293688E+01  0.44980124391E+01  0.51100000000E-03 0.  1.
        -12    1    3    3    0    0  0.17633193913E+02  0.59950090148E+00 -0.12022864953E+02  0.21350367926E+02  0.00000000000E+00 0.  1.
</event>
<event>
 7    1  0.2430096E-009  0.4778727E+02  0.7816164E-02  0.1312668E+00
        -11   -1    0    0    0    0  0.00000000000E+00  0.00000000000E+00  0.45593999997E+02  0.45594000000E+02  0.51100000000E-03 0.  1.
         11   -1    0    0    0    0 -0.00000000000E+00 -0.00000000000E+00 -0.45593999997E+02  0.45594000000E+02  0.51100000000E-03 0. -1.
    9900012    2    1    2    0    0  0.42456719965E+02  0.72021529101E+01  0.54017886223E+01  0.47787269626E+02  0.19999993531E+02 0.  0.
        -12    1    1    2    0    0 -0.42456719965E+02 -0.72021529101E+01 -0.54017886223E+01  0.43400730374E+02  0.00000000000E+00 0.  1.
         11    1    3    3    0    0  0.31558409464E+02  0.28178746316E+01 -0.35214352148E+01  0.31879054747E+02  0.51100000000E-03 0. -1.
        -11    1    3    3    0    0  0.93287871036E+01  0.93081383956E+00  0.64588980131E+01  0.11384640839E+02  0.51100000000E-03 0.  1.
         12    1    3    3    0    0  0.15695233977E+01  0.34534644390E+01  0.24643258240E+01  0.45235740399E+01  0.00000000000E+00 0. -1.
</event>
<event>
 7    1  0.2430096E-009  0.4778727E+02  0.7816164E-02  0.1312668E+00
        -11   -1    0    0    0    0  0.00000000000E+00  0.00000000000E+00  0.45593999997E+02  0.45594000000E+02  0.51100000000E-03 0. -1.
         11   -1    0    0    0    0 -0.00000000000E+00 -0.00000000000E+00 -0.45593999997E+02  0.45594000000E+02  0.51100000000E-03 0.  1.
    9900012    2    1    2    0    0 -0.71409559842E+01 -0.33673911265E+02  0.26432889048E+02  0.47787272176E+02  0.20000005159E+02 0.  0.
        -12    1    1    2    0    0  0.71409559842E+01  0.33673911265E+02 -0.26432889048E+02  0.43400727824E+02  0.00000000000E+00 0.  1.
         11    1    3    3    0    0 -0.94455991144E+01 -0.55087899844E+01  0.10347684826E+02  0.15054590371E+02  0.51100000000E-03 0. -1.
        -11    1    3    3    0    0  0.27574543358E+00 -0.11235821288E+01 -0.84859581385E-01  0.11600317901E+01  0.51100000000E-03 0.  1.
         12    1    3    3    0    0  0.20288976967E+01 -0.27041539152E+02  0.16170063803E+02  0.31572650015E+02  0.00000000000E+00 0. -1.
</event>
<event>
 7    1  0.2516279E-009  0.4778727E+02  0.7816164E-02  0.1312668E+00
        -11   -1    0    0    0    0  0.00000000000E+00  0.00000000000E+00  0.45593999997E+02  0.45594000000E+02  0.51100000000E-03 0. -1.
         11   -1    0    0    0    0 -0.00000000000E+00 -0.00000000000E+00 -0.45593999997E+02  0.45594000000E+02  0.51100000000E-03 0.  1.
    9900012    2    1    2    0    0 -0.79593027749E+01  0.20256609040E+02  0.37549201540E+02  0.47787271357E+02  0.20000001423E+02 0.  0.
        -12    1    1    2    0    0  0.79593027749E+01 -0.20256609040E+02 -0.37549201540E+02  0.43400728643E+02  0.00000000000E+00 0.  1.
         11    1    3    3    0    0 -0.15303613860E+01  0.66728595227E+01  0.66419577869E+01  0.95385881390E+01  0.51100000000E-03 0. -1.
        -11    1    3    3    0    0 -0.56350785588E+01  0.16695327717E+02  0.30193520482E+02  0.34959072604E+02  0.51100000000E-03 0.  1.
        -12    1    3    3    0    0 -0.79386283009E+00 -0.31115781992E+01  0.71372327101E+00  0.32896106138E+01  0.00000000000E+00 0.  1.
</event>
<event>
 7    1  0.2430096E-009  0.4778727E+02  0.7816164E-02  0.1312668E+00
        -11   -1    0    0    0    0  0.00000000000E+00  0.00000000000E+00  0.45593999997E+02  0.45594000000E+02  0.51100000000E-03 0.  1.
         11   -1    0    0    0    0 -0.00000000000E+00 -0.00000000000E+00 -0.45593999997E+02  0.45594000000E+02  0.51100000000E-03 0. -1.
    9900012    2    1    2    0    0  0.55046995733E+01 -0.55758735919E+01 -0.42687599396E+02  0.47787271597E+02  0.20000002518E+02 0.  0.
        -12    1    1    2    0    0 -0.55046995733E+01  0.55758735919E+01  0.42687599396E+02  0.43400728403E+02  0.00000000000E+00 0.  1.
         11    1    3    3    0    0  0.52032379664E+01 -0.32410952905E+01 -0.34518750757E+02  0.35058843936E+02  0.51100000000E-03 0. -1.
        -11    1    3    3    0    0 -0.34742908992E+01 -0.20938393968E+01 -0.38610961561E+00  0.40747934387E+01  0.51100000000E-03 0.  1.
         12    1    3    3    0    0  0.37757525060E+01 -0.24093890463E+00 -0.77827390234E+01  0.86536342221E+01  0.00000000000E+00 0. -1.
</event>
<event>
 7    1  0.2430096E-009  0.4778727E+02  0.7816164E-02  0.1312668E+00
        -11   -1    0    0    0    0  0.00000000000E+00  0.00000000000E+00  0.45593999997E+02  0.45594000000E+02  0.51100000000E-03 0. -1.
         11   -1    0    0    0    0 -0.00000000000E+00 -0.00000000000E+00 -0.45593999997E+02  0.45594000000E+02  0.51100000000E-03 0.  1.
    9900012    2    1    2    0    0  0.26155791870E+02 -0.15470499936E+02  0.30986471331E+02  0.47787271640E+02  0.20000002717E+02 0.  0.
        -12    1    1    2    0    0 -0.26155791870E+02  0.15470499936E+02 -0.30986471331E+02  0.43400728360E+02  0.00000000000E+00 0.  1.
         11    1    3    3    0    0  0.44837233979E+01  0.94276394325E+00  0.72067809774E+01  0.85399222291E+01  0.51100000000E-03 0. -1.
        -11    1    3    3    0    0  0.23398778167E+02 -0.11635260425E+02  0.20281762486E+02  0.33079177660E+02  0.51100000000E-03 0.  1.
        -12    1    3    3    0    0 -0.17267096952E+01 -0.47780034548E+01  0.34979278679E+01  0.61681717514E+01  0.00000000000E+00 0.  1.
</event>
<event>
 7    1  0.2430096E-009  0.4778727E+02  0.7816164E-02  0.1312668E+00
        -11   -1    0    0    0    0  0.00000000000E+00  0.00000000000E+00  0.45593999997E+02  0.45594000000E+02  0.51100000000E-03 0.  1.
         11   -1    0    0    0    0 -0.00000000000E+00 -0.00000000000E+00 -0.45593999997E+02  0.45594000000E+02  0.51100000000E-03 0. -1.
    9900012    2    1    2    0    0  0.17101608886E+01  0.31588426665E+02 -0.29713135065E+02  0.47787265619E+02  0.19999975263E+02 0.  0.
        -12    1    1    2    0    0 -0.17101608886E+01 -0.31588426665E+02  0.29713135065E+02  0.43400734381E+02  0.00000000000E+00 0.  1.
         11    1    3    3    0    0  0.50608917809E+01  0.70199194695E+00 -0.53143940368E+01  0.73721233407E+01  0.51100000000E-03 0. -1.
        -11    1    3    3    0    0 -0.10259011917E+01  0.26343853475E+02 -0.16798958647E+02  0.31261095647E+02  0.51100000000E-03 0.  1.
         12    1    3    3    0    0 -0.23248297006E+01  0.45425812432E+01 -0.75997823810E+01  0.91540466312E+01  0.00000000000E+00 0. -1.
</event>
<event>
 7    1  0.2430096E-009  0.4778727E+02  0.7816164E-02  0.1312668E+00
        -11   -1    0    0    0    0  0.00000000000E+00  0.00000000000E+00  0.45593999997E+02  0.45594000000E+02  0.51100000000E-03 0.  1.
         11   -1    0    0    0    0 -0.00000000000E+00 -0.00000000000E+00 -0.45593999997E+02  0.45594000000E+02  0.51100000000E-03 0. -1.
    9900012    2    1    2    0    0 -0.38717636188E+02 -0.19058616767E+02 -0.46192209303E+01  0.47787269280E+02  0.19999991956E+02 0.  0.
        -12    1    1    2    0    0  0.38717636188E+02  0.19058616767E+02  0.46192209303E+01  0.43400730720E+02  0.00000000000E+00 0.  1.
         11    1    3    3    0    0 -0.14235158530E+02  0.11307019682E+01 -0.46270324945E+01  0.15010917869E+02  0.51100000000E-03 0. -1.
        -11    1    3    3    0    0 -0.16476850628E+01 -0.36228870959E+01  0.20769831207E+01  0.44893246843E+01  0.51100000000E-03 0.  1.
         12    1    3    3    0    0 -0.22834792595E+02 -0.16566431639E+02 -0.20691715566E+01  0.28287026727E+02  0.00000000000E+00 0. -1.
</event>
<event>
 7    1  0.3438547E-009  0.4778728E+02  0.7816164E-02  0.1312668E+00
        -11   -1    0    0    0    0  0.00000000000E+00  0.00000000000E+00  0.45593999997E+02  0.45594000000E+02  0.51100000000E-03 0. -1.
         11   -1    0    0    0    0 -0.00000000000E+00 -0.00000000000E+00 -0.45593999997E+02  0.45594000000E+02  0.51100000000E-03 0.  1.
    9900012    2    1    2    0    0 -0.67202533848E+01  0.20759208236E+02  0.37516880902E+02  0.47787275527E+02  0.20000020439E+02 0.  0.
        -12    1    1    2    0    0  0.67202533848E+01 -0.20759208236E+02 -0.37516880902E+02  0.43400724473E+02  0.00000000000E+00 0.  1.
         11    1    3    3    0    0 -0.39457225753E+00  0.11838694368E+02  0.21843705061E+02  0.24848698611E+02  0.51100000000E-03 0. -1.
        -11    1    3    3    0    0 -0.71040995317E+01 -0.50292087910E+00  0.83775745124E+01  0.10995677084E+02  0.51100000000E-03 0.  1.
        -12    1    3    3    0    0  0.77841840438E+00  0.94234347476E+01  0.72956013281E+01  0.11942899832E+02  0.00000000000E+00 0.  1.
</event>
<event>
 7    1  0.2430096E-009  0.4778727E+02  0.7816164E-02  0.1312668E+00
        -11   -1    0    0    0    0  0.00000000000E+00  0.00000000000E+00  0.45593999997E+02  0.45594000000E+02  0.51100000000E-03 0.  1.
         11   -1    0    0    0    0 -0.00000000000E+00 -0.00000000000E+00 -0.45593999997E+02  0.45594000000E+02  0.51100000000E-03 0. -1.
    9900012    2    1    2    0    0 -0.29928802118E+02  0.15403795518E+02 -0.27397319632E+02  0.47787271486E+02  0.20000002012E+02 0.  0.
        -12    1    1    2    0    0  0.29928802118E+02 -0.15403795518E+02  0.27397319632E+02  0.43400728514E+02  0.00000000000E+00 0.  1.
         11    1    3    3    0    0 -0.26808129458E+02  0.15093681461E+02 -0.21536701948E+02  0.37554288119E+02  0.51100000000E-03 0. -1.
        -11    1    3    3    0    0  0.74175883634E+00 -0.24502555864E+01 -0.46902192099E+01  0.53434179238E+01  0.51100000000E-03 0.  1.
        -12    1    3    3    0    0 -0.38624314961E+01  0.27603696434E+01 -0.11703984736E+01  0.48895654426E+01  0.00000000000E+00 0.  1.
</event>
<event>
 7    1  0.2430096E-009  0.4778729E+02  0.7816164E-02  0.1312668E+00
        -11   -1    0    0    0    0  0.00000000000E+00  0.00000000000E+00  0.45593999997E+02  0.45594000000E+02  0.51100000000E-03 0.  1.
         11   -1    0    0    0    0 -0.00000000000E+00 -0.00000000000E+00 -0.45593999997E+02  0.45594000000E+02  0.51100000000E-03 0. -1.
    9900012    2    1    2    0    0 -0.31747589693E+02 -0.29499182543E+02 -0.23474883646E+01  0.47787286600E+02  0.20000070924E+02 0.  0.
        -12    1    1    2    0    0  0.31747589693E+02  0.29499182543E+02  0.23474883646E+01  0.43400713400E+02  0.00000000000E+00 0.  1.
         11    1    3    3    0    0 -0.25540813041E+02 -0.22953696918E+02 -0.65210356027E+01  0.34953243607E+02  0.51100000000E-03 0. -1.
        -11    1    3    3    0    0 -0.65068799100E+01 -0.10015987466E+01  0.21836673654E+01  0.69362158009E+01  0.51100000000E-03 0.  1.
         12    1    3    3    0    0  0.30010325863E+00 -0.55438868781E+01  0.19898798728E+01  0.58978271923E+01  0.00000000000E+00 0. -1.
</event>
<event>
 7    1  0.2430096E-009  0.4778727E+02  0.7816164E-02  0.1312668E+00
        -11   -1    0    0    0    0  0.00000000000E+00  0.00000000000E+00  0.45593999997E+02  0.45594000000E+02  0.51100000000E-03 0. -1.
         11   -1    0    0    0    0 -0.00000000000E+00 -0.00000000000E+00 -0.45593999997E+02  0.45594000000E+02  0.51100000000E-03 0.  1.
    9900012    2    1    2    0    0 -0.35007086347E+02 -0.21447663123E+02  0.14075683406E+02  0.47787271765E+02  0.20000003286E+02 0.  0.
        -12    1    1    2    0    0  0.35007086347E+02  0.21447663123E+02 -0.14075683406E+02  0.43400728235E+02  0.00000000000E+00 0.  1.
         11    1    3    3    0    0 -0.17189487816E+02 -0.96722687175E-01  0.20146649684E+01  0.17307418116E+02  0.51100000000E-03 0. -1.
        -11    1    3    3    0    0 -0.12770849679E+02 -0.14405998110E+02  0.97981762667E+01  0.21601658304E+02  0.51100000000E-03 0.  1.
         12    1    3    3    0    0 -0.50467488522E+01 -0.69449423260E+01  0.22628421708E+01  0.88781953447E+01  0.00000000000E+00 0. -1.
</event>
<event>
 7    1  0.2430096E-009  0.4778727E+02  0.7816164E-02  0.1312668E+00
        -11   -1    0    0    0    0  0.00000000000E+00  0.00000000000E+00  0.45593999997E+02  0.45594000000E+02  0.51100000000E-03 0.  1.
         11   -1    0    0    0    0 -0.00000000000E+00 -0.00000000000E+00 -0.45593999997E+02  0.45594000000E+02  0.51100000000E-03 0. -1.
    9900012    2    1    2    0    0  0.34280500291E+02 -0.25248486270E+02 -0.84252177680E+01  0.47787273583E+02  0.20000011573E+02 0.  0.
        -12    1    1    2    0    0 -0.34280500291E+02  0.25248486270E+02  0.84252177680E+01  0.43400726417E+02  0.00000000000E+00 0.  1.
         11    1    3    3    0    0  0.68357245303E+01 -0.52511561079E+01 -0.32850758700E+01  0.92246134909E+01  0.51100000000E-03 0. -1.
        -11    1    3    3    0    0  0.19675399890E+02 -0.82087231169E+01 -0.10110070896E+02  0.23594872957E+02  0.51100000000E-03 0.  1.
        -12    1    3    3    0    0  0.77693758707E+01 -0.11788607045E+02  0.49699289982E+01  0.14967787135E+02  0.00000000000E+00 0.  1.
</event>
<event>
 7    1  0.2430096E-009  0.4778727E+02  0.7816164E-02  0.1312668E+00
        -11   -1    0    0    0    0  0.00000000000E+00  0.00000000000E+00  0.45593999997E+02  0.45594000000E+02  0.51100000000E-03 0. -1.
         11   -1    0    0    0    0 -0.00000000000E+00 -0.00000000000E+00 -0.45593999997E+02  0.45594000000E+02  0.51100000000E-03 0.  1.
    9900012    2    1    2    0    0 -0.42440598318E+02  0.50274025781E+01  0.75593744237E+01  0.47787270698E+02  0.19999998422E+02 0.  0.
        -12    1    1    2    0    0  0.42440598318E+02 -0.50274025781E+01 -0.75593744237E+01  0.43400729302E+02  0.00000000000E+00 0.  1.
         11    1    3    3    0    0 -0.31248812703E+02  0.10409291376E+02  0.89030469200E+01  0.34118995984E+02  0.51100000000E-03 0. -1.
        -11    1    3    3    0    0 -0.63178896039E+01 -0.59693661980E+01 -0.93818971587E+00  0.87423830880E+01  0.51100000000E-03 0.  1.
         12    1    3    3    0    0 -0.48738960111E+01  0.58747740048E+00 -0.40548278050E+00  0.49258916258E+01  0.00000000000E+00 0. -1.
</event>
<event>
 7    1  0.2430096E-009  0.4778727E+02  0.7816164E-02  0.1312668E+00
        -11   -1    0    0    0    0  0.00000000000E+00  0.00000000000E+00  0.45593999997E+02  0.45594000000E+02  0.51100000000E-03 0.  1.
         11   -1    0    0    0    0 -0.00000000000E+00 -0.00000000000E+00 -0.45593999997E+02  0.45594000000E+02  0.51100000000E-03 0. -1.
    9900012    2    1    2    0    0 -0.14083968222E+02 -0.34124825393E+02 -0.22820202440E+02  0.47787268343E+02  0.19999987682E+02 0.  0.
        -12    1    1    2    0    0  0.14083968222E+02  0.34124825393E+02  0.22820202440E+02  0.43400731657E+02  0.00000000000E+00 0.  1.
         11    1    3    3    0    0 -0.43267653188E+01 -0.90256037747E+01 -0.94657399239E+01  0.13776162535E+02  0.51100000000E-03 0. -1.
        -11    1    3    3    0    0 -0.12455125188E+02 -0.14486749791E+02 -0.12898830544E+02  0.23051591976E+02  0.51100000000E-03 0.  1.
        -12    1    3    3    0    0  0.26979222849E+01 -0.10612471827E+02 -0.45563197222E+00  0.10959513832E+02  0.00000000000E+00 0.  1.
</event>
<event>
 7    1  0.2430096E-009  0.4778728E+02  0.7816164E-02  0.1312668E+00
        -11   -1    0    0    0    0  0.00000000000E+00  0.00000000000E+00  0.45593999997E+02  0.45594000000E+02  0.51100000000E-03 0.  1.
         11   -1    0    0    0    0 -0.00000000000E+00 -0.00000000000E+00 -0.45593999997E+02  0.45594000000E+02  0.51100000000E-03 0. -1.
    9900012    2    1    2    0    0  0.26323463141E+02 -0.33757987383E+02  0.71481698794E+01  0.47787277005E+02  0.20000027175E+02 0.  0.
        -12    1    1    2    0    0 -0.26323463141E+02  0.33757987383E+02 -0.71481698794E+01  0.43400722995E+02  0.00000000000E+00 0.  1.
         11    1    3    3    0    0  0.10168014300E+01 -0.34481954267E+01 -0.30814580378E+01  0.47349045131E+01  0.51100000000E-03 0. -1.
        -11    1    3    3    0    0 -0.10323731062E+01  0.61094099154E+00  0.23072866031E+00  0.12215887612E+01  0.51100000000E-03 0.  1.
         12    1    3    3    0    0  0.26339034818E+02 -0.30920732948E+02  0.99988992569E+01  0.41830783730E+02  0.00000000000E+00 0. -1.
</event>
<event>
 7    1  0.2430096E-009  0.4778727E+02  0.7816164E-02  0.1312668E+00
        -11   -1    0    0    0    0  0.00000000000E+00  0.00000000000E+00  0.45593999997E+02  0.45594000000E+02  0.51100000000E-03 0. -1.
         11   -1    0    0    0    0 -0.00000000000E+00 -0.00000000000E+00 -0.45593999997E+02  0.45594000000E+02  0.51100000000E-03 0.  1.
    9900012    2    1    2    0    0 -0.20766113760E+02  0.23433295678E+02  0.30054492282E+02  0.47787270360E+02  0.19999996877E+02 0.  0.
        -12    1    1    2    0    0  0.20766113760E+02 -0.23433295678E+02 -0.30054492282E+02  0.43400729640E+02  0.00000000000E+00 0.  1.
         11    1    3    3    0    0 -0.20813682021E+02  0.24079276183E+02  0.26669919170E+02  0.41524757549E+02  0.51100000000E-03 0. -1.
        -11    1    3    3    0    0  0.12534343252E+00  0.23077684870E+01  0.13776251700E+01  0.26906054590E+01  0.51100000000E-03 0.  1.
         12    1    3    3    0    0 -0.77775171069E-01 -0.29537489916E+01  0.20069479419E+01  0.35719073510E+01  0.00000000000E+00 0. -1.
</event>
<event>
 7    1  0.2430096E-009  0.4778724E+02  0.7816164E-02  0.1312668E+00
        -11   -1    0    0    0    0  0.00000000000E+00  0.00000000000E+00  0.45593999997E+02  0.45594000000E+02  0.51100000000E-03 0.  1.
         11   -1    0    0    0    0 -0.00000000000E+00 -0.00000000000E+00 -0.45593999997E+02  0.45594000000E+02  0.51100000000E-03 0. -1.
    9900012    2    1    2    0    0 -0.11932979501E+02 -0.39428351295E+02 -0.13661445382E+02  0.47787239919E+02  0.19999858088E+02 0.  0.
        -12    1    1    2    0    0  0.11932979501E+02  0.39428351295E+02  0.13661445382E+02  0.43400760081E+02  0.00000000000E+00 0.  1.
         11    1    3    3    0    0  0.12834591233E+00 -0.75709698254E+00 -0.43425388848E+00  0.88218207586E+00  0.51100000000E-03 0. -1.
        -11    1    3    3    0    0 -0.11101261944E+02 -0.98395559825E+01  0.74266970978E+00  0.14852825901E+02  0.51100000000E-03 0.  1.
        -12    1    3    3    0    0 -0.96006346954E+00 -0.28831698330E+02 -0.13969861203E+02  0.32052231943E+02  0.00000000000E+00 0.  1.
</event>
<event>
 7    1  0.2430096E-009  0.4778727E+02  0.7816164E-02  0.1312668E+00
        -11   -1    0    0    0    0  0.00000000000E+00  0.00000000000E+00  0.45593999997E+02  0.45594000000E+02  0.51100000000E-03 0.  1.
         11   -1    0    0    0    0 -0.00000000000E+00 -0.00000000000E+00 -0.45593999997E+02  0.45594000000E+02  0.51100000000E-03 0. -1.
    9900012    2    1    2    0    0  0.23740708387E+02 -0.81483547248E+01 -0.35406303799E+02  0.47787271110E+02  0.20000000299E+02 0.  0.
        -12    1    1    2    0    0 -0.23740708387E+02  0.81483547248E+01  0.35406303799E+02  0.43400728890E+02  0.00000000000E+00 0.  1.
         11    1    3    3    0    0  0.13106166140E+02 -0.10455974295E+02 -0.18783623523E+02  0.25177837521E+02  0.51100000000E-03 0. -1.
        -11    1    3    3    0    0 -0.87502835283E+00  0.17247810243E+01 -0.79620823870E+01  0.81936133909E+01  0.51100000000E-03 0.  1.
        -12    1    3    3    0    0  0.11509570600E+02  0.58283854600E+00 -0.86605978894E+01  0.14415820198E+02  0.00000000000E+00 0.  1.
</event>
<event>
 7    1  0.2430096E-009  0.4778727E+02  0.7816164E-02  0.1312668E+00
        -11   -1    0    0    0    0  0.00000000000E+00  0.00000000000E+00  0.45593999997E+02  0.45594000000E+02  0.51100000000E-03 0.  1.
         11   -1    0    0    0    0 -0.00000000000E+00 -0.00000000000E+00 -0.45593999997E+02  0.45594000000E+02  0.51100000000E-03 0. -1.
    9900012    2    1    2    0    0  0.28582861972E+02 -0.78891288576E+01 -0.31692346375E+02  0.47787272225E+02  0.20000005384E+02 0.  0.
        -12    1    1    2    0    0 -0.28582861972E+02  0.78891288576E+01  0.31692346375E+02  0.43400727775E+02  0.00000000000E+00 0.  1.
         11    1    3    3    0    0  0.12946784492E+02 -0.99368227329E+00 -0.13943495058E+02  0.19053285487E+02  0.51100000000E-03 0. -1.
        -11    1    3    3    0    0  0.26160177753E+01 -0.60640198093E+01  0.12461431935E+00  0.66054079539E+01  0.51100000000E-03 0.  1.
        -12    1    3    3    0    0  0.13020059704E+02 -0.83142677499E+00 -0.17873465636E+02  0.22128578785E+02  0.00000000000E+00 0.  1.
</event>
<event>
 7    1  0.2430096E-009  0.4778728E+02  0.7816164E-02  0.1312668E+00
        -11   -1    0    0    0    0  0.00000000000E+00  0.00000000000E+00  0.45593999997E+02  0.45594000000E+02  0.51100000000E-03 0.  1.
         11   -1    0    0    0    0 -0.00000000000E+00 -0.00000000000E+00 -0.45593999997E+02  0.45594000000E+02  0.51100000000E-03 0. -1.
    9900012    2    1    2    0    0 -0.91395992738E+01 -0.21794549694E+02 -0.36401757088E+02  0.47787278919E+02  0.20000035901E+02 0.  0.
        -12    1    1    2    0    0  0.91395992738E+01  0.21794549694E+02  0.36401757088E+02  0.43400721081E+02  0.00000000000E+00 0.  1.
         11    1    3    3    0    0 -0.92786257418E+00 -0.20137830292E+02 -0.31068882393E+02  0.37036044487E+02  0.51100000000E-03 0. -1.
        -11    1    3    3    0    0 -0.49688502360E+01  0.73294356244E+00 -0.42513504609E+01  0.65803236954E+01  0.51100000000E-03 0.  1.
         12    1    3    3    0    0 -0.32428864636E+01 -0.23896629648E+01 -0.10815242348E+01  0.41709107365E+01  0.00000000000E+00 0. -1.
</event>
<event>
 7    1  0.2430096E-009  0.4778727E+02  0.7816164E-02  0.1312668E+00
        -11   -1    0    0    0    0  0.00000000000E+00  0.00000000000E+00  0.45593999997E+02  0.45594000000E+02  0.51100000000E-03 0.  1.
         11   -1    0    0    0    0 -0.00000000000E+00 -0.00000000000E+00 -0.45593999997E+02  0.45594000000E+02  0.51100000000E-03 0. -1.
    9900012    2    1    2    0    0  0.31371124018E+02 -0.20264436791E+02 -0.22109471141E+02  0.47787268039E+02  0.19999986295E+02 0.  0.
        -12    1    1    2    0    0 -0.31371124018E+02  0.20264436791E+02  0.22109471141E+02  0.43400731961E+02  0.00000000000E+00 0.  1.
         11    1    3    3    0    0  0.91435013367E+01 -0.14034216127E+02 -0.13298593872E+02  0.21387272809E+02  0.51100000000E-03 0. -1.
        -11    1    3    3    0    0  0.38892764325E+00 -0.24940806033E+01 -0.20008575188E+01  0.32210454575E+01  0.51100000000E-03 0.  1.
         12    1    3    3    0    0  0.21838695038E+02 -0.37361400615E+01 -0.68100197504E+01  0.23178949772E+02  0.00000000000E+00 0. -1.
</event>
<event>
 7    1  0.2430096E-009  0.4778727E+02  0.7816164E-02  0.1312668E+00
        -11   -1    0    0    0    0  0.00000000000E+00  0.00000000000E+00  0.45593999997E+02  0.45594000000E+02  0.51100000000E-03 0.  1.
         11   -1    0    0    0    0 -0.00000000000E+00 -0.00000000000E+00 -0.45593999997E+02  0.45594000000E+02  0.51100000000E-03 0. -1.
    9900012    2    1    2    0    0 -0.31779867682E+02 -0.57327162118E+01 -0.28996538787E+02  0.47787270897E+02  0.19999999327E+02 0.  0.
        -12    1    1    2    0    0  0.31779867682E+02  0.57327162118E+01  0.28996538787E+02  0.43400729103E+02  0.00000000000E+00 0.  1.
         11    1    3    3    0    0 -0.12939331585E+02 -0.23341339409E+01 -0.72404513301E+01  0.15009950661E+02  0.51100000000E-03 0. -1.
        -11    1    3    3    0    0 -0.16060818041E+02 -0.84728703711E+01 -0.19276776494E+02  0.26482702293E+02  0.51100000000E-03 0.  1.
        -12    1    3    3    0    0 -0.27797180565E+01  0.50742881003E+01 -0.24793109631E+01  0.62946179432E+01  0.00000000000E+00 0.  1.
</event>
<event>
 7    1  0.2430096E-009  0.4778727E+02  0.7816164E-02  0.1312668E+00
        -11   -1    0    0    0    0  0.00000000000E+00  0.00000000000E+00  0.45593999997E+02  0.45594000000E+02  0.51100000000E-03 0.  1.
         11   -1    0    0    0    0 -0.00000000000E+00 -0.00000000000E+00 -0.45593999997E+02  0.45594000000E+02  0.51100000000E-03 0. -1.
    9900012    2    1    2    0    0 -0.13338770030E+02  0.20545580811E+02 -0.35827076391E+02  0.47787273284E+02  0.20000010209E+02 0.  0.
        -12    1    1    2    0    0  0.13338770030E+02 -0.20545580811E+02  0.35827076391E+02  0.43400726716E+02  0.00000000000E+00 0.  1.
         11    1    3    3    0    0 -0.13175306543E+02  0.64341049446E+01 -0.92854289298E+01  0.17355275844E+02  0.51100000000E-03 0. -1.
        -11    1    3    3    0    0  0.12451646007E+01  0.31134396976E+01 -0.97442150884E+01  0.10305031275E+02  0.51100000000E-03 0.  1.
         12    1    3    3    0    0 -0.14086280878E+01  0.10998036169E+02 -0.16797432373E+02  0.20126966164E+02  0.00000000000E+00 0. -1.
</event>
<event>
 7    1  0.2430096E-009  0.4778725E+02  0.7816164E-02  0.1312668E+00
        -11   -1    0    0    0    0  0.00000000000E+00  0.00000000000E+00  0.45593999997E+02  0.45594000000E+02  0.51100000000E-03 0.  1.
         11   -1    0    0    0    0 -0.00000000000E+00 -0.00000000000E+00 -0.45593999997E+02  0.45594000000E+02  0.51100000000E-03 0. -1.
    9900012    2    1    2    0    0 -0.10860338074E+02 -0.37535733933E+02 -0.18887731550E+02  0.47787254983E+02  0.19999926768E+02 0.  0.
        -12    1    1    2    0    0  0.10860338074E+02  0.37535733933E+02  0.18887731550E+02  0.43400745017E+02  0.00000000000E+00 0.  1.
         11    1    3    3    0    0  0.15159607008E+01  0.14164771774E+01 -0.16607755437E+01  0.26575778650E+01  0.51100000000E-03 0.  1.
        -11    1    3    3    0    0  0.11063888160E+01 -0.55122887969E+01 -0.29612916993E+01  0.63544215143E+01  0.51100000000E-03 0. -1.
         12    1    3    3    0    0 -0.13482687590E+02 -0.33439922314E+02 -0.14265664307E+02  0.38775255603E+02  0.00000000000E+00 0. -1.
</event>
<event>
 7    1  0.2430096E-009  0.4778727E+02  0.7816164E-02  0.1312668E+00
        -11   -1    0    0    0    0  0.00000000000E+00  0.00000000000E+00  0.45593999997E+02  0.45594000000E+02  0.51100000000E-03 0. -1.
         11   -1    0    0    0    0 -0.00000000000E+00 -0.00000000000E+00 -0.45593999997E+02  0.45594000000E+02  0.51100000000E-03 0.  1.
    9900012    2    1    2    0    0 -0.24032501558E+02  0.42089460990E+01  0.35893546228E+02  0.47787273978E+02  0.20000013375E+02 0.  0.
        -12    1    1    2    0    0  0.24032501558E+02 -0.42089460990E+01 -0.35893546228E+02  0.43400726022E+02  0.00000000000E+00 0.  1.
         11    1    3    3    0    0 -0.13393472501E+02  0.53830172840E+01  0.23218284503E+02  0.27339544916E+02  0.51100000000E-03 0. -1.
        -11    1    3    3    0    0 -0.43337283926E+01 -0.38553342010E+01 -0.26390749329E+00  0.58064146432E+01  0.51100000000E-03 0.  1.
        -12    1    3    3    0    0 -0.63053006640E+01  0.26812630161E+01  0.12939169219E+02  0.14641314418E+02  0.00000000000E+00 0.  1.
</event>
<event>
 7    1  0.2781162E-009  0.4778727E+02  0.7816164E-02  0.1312668E+00
        -11   -1    0    0    0    0  0.00000000000E+00  0.00000000000E+00  0.45593999997E+02  0.45594000000E+02  0.51100000000E-03 0. -1.
         11   -1    0    0    0    0 -0.00000000000E+00 -0.00000000000E+00 -0.45593999997E+02  0.45594000000E+02  0.51100000000E-03 0.  1.
    9900012    2    1    2    0    0  0.20584838857E+00  0.40522457471E+02  0.15540631794E+02  0.47787272246E+02  0.20000005476E+02 0.  0.
        -12    1    1    2    0    0 -0.20584838857E+00 -0.40522457471E+02 -0.15540631794E+02  0.43400727754E+02  0.00000000000E+00 0.  1.
         11    1    3    3    0    0  0.11888839120E+00  0.32369259574E+02  0.13869325770E+02  0.35215639955E+02  0.51100000000E-03 0. -1.
        -11    1    3    3    0    0 -0.24872684442E+01 -0.11488617151E+01 -0.17333440507E+00  0.27452563871E+01  0.51100000000E-03 0.  1.
        -12    1    3    3    0    0  0.25742284415E+01  0.93020596116E+01  0.18446404294E+01  0.98263759037E+01  0.00000000000E+00 0.  1.
</event>
<event>
 7    1  0.2430096E-009  0.4778727E+02  0.7816164E-02  0.1312668E+00
        -11   -1    0    0    0    0  0.00000000000E+00  0.00000000000E+00  0.45593999997E+02  0.45594000000E+02  0.51100000000E-03 0.  1.
         11   -1    0    0    0    0 -0.00000000000E+00 -0.00000000000E+00 -0.45593999997E+02  0.45594000000E+02  0.51100000000E-03 0. -1.
    9900012    2    1    2    0    0 -0.35254477896E+02 -0.18141786732E+02 -0.17652780689E+02  0.47787270702E+02  0.19999998439E+02 0.  0.
        -12    1    1    2    0    0  0.35254477896E+02  0.18141786732E+02  0.17652780689E+02  0.43400729298E+02  0.00000000000E+00 0.  1.
         11    1    3    3    0    0 -0.78025876137E+01 -0.10596499888E+02 -0.55136122252E+01  0.14267659352E+02  0.51100000000E-03 0. -1.
        -11    1    3    3    0    0 -0.85336443475E+01  0.14070171533E+01  0.11538621165E+01  0.87254903108E+01  0.51100000000E-03 0.  1.
        -12    1    3    3    0    0 -0.18918245935E+02 -0.89523039974E+01 -0.13293030581E+02  0.24794121040E+02  0.00000000000E+00 0.  1.
</event>
<event>
 7    1  0.2430096E-009  0.4778727E+02  0.7816164E-02  0.1312668E+00
        -11   -1    0    0    0    0  0.00000000000E+00  0.00000000000E+00  0.45593999997E+02  0.45594000000E+02  0.51100000000E-03 0.  1.
         11   -1    0    0    0    0 -0.00000000000E+00 -0.00000000000E+00 -0.45593999997E+02  0.45594000000E+02  0.51100000000E-03 0. -1.
    9900012    2    1    2    0    0 -0.21886830709E+02  0.64424761848E+01 -0.36919971271E+02  0.47787272627E+02  0.20000007214E+02 0.  0.
        -12    1    1    2    0    0  0.21886830709E+02 -0.64424761848E+01  0.36919971271E+02  0.43400727373E+02  0.00000000000E+00 0.  1.
         11    1    3    3    0    0 -0.13763807330E+02  0.70883807206E+01 -0.19111002344E+02  0.24595079677E+02  0.51100000000E-03 0. -1.
        -11    1    3    3    0    0 -0.55268444594E+01 -0.50192588870E+01 -0.16233275377E+02  0.17867797826E+02  0.51100000000E-03 0.  1.
        -12    1    3    3    0    0 -0.25961789191E+01  0.43733543512E+01 -0.15756935508E+01  0.53243951231E+01  0.00000000000E+00 0.  1.
</event>
<event>
 7    1  0.2430096E-009  0.4778727E+02  0.7816164E-02  0.1312668E+00
        -11   -1    0    0    0    0  0.00000000000E+00  0.00000000000E+00  0.45593999997E+02  0.45594000000E+02  0.51100000000E-03 0.  1.
         11   -1    0    0    0    0 -0.00000000000E+00 -0.00000000000E+00 -0.45593999997E+02  0.45594000000E+02  0.51100000000E-03 0. -1.
    9900012    2    1    2    0    0 -0.27214408856E+00 -0.30888368897E+02 -0.30487020214E+02  0.47787265017E+02  0.19999972519E+02 0.  0.
        -12    1    1    2    0    0  0.27214408856E+00  0.30888368897E+02  0.30487020214E+02  0.43400734983E+02  0.00000000000E+00 0.  1.
         11    1    3    3    0    0  0.49073008409E+00 -0.29889303706E+01 -0.84440407750E+01  0.89708609201E+01  0.51100000000E-03 0. -1.
        -11    1    3    3    0    0  0.44861254567E+01 -0.20290318619E+02 -0.20950018182E+02  0.29508060142E+02  0.51100000000E-03 0.  1.
        -12    1    3    3    0    0 -0.52489996294E+01 -0.76091199071E+01 -0.10929612572E+01  0.93083439547E+01  0.00000000000E+00 0.  1.
</event>
<event>
 7    1  0.2430096E-009  0.4778727E+02  0.7816164E-02  0.1312668E+00
        -11   -1    0    0    0    0  0.00000000000E+00  0.00000000000E+00  0.45593999997E+02  0.45594000000E+02  0.51100000000E-03 0.  1.
         11   -1    0    0    0    0 -0.00000000000E+00 -0.00000000000E+00 -0.45593999997E+02  0.45594000000E+02  0.51100000000E-03 0. -1.
    9900012    2    1    2    0    0 -0.42490717052E+02  0.47359594738E+01 -0.74654379337E+01  0.47787272918E+02  0.20000008540E+02 0.  0.
        -12    1    1    2    0    0  0.42490717052E+02 -0.47359594738E+01  0.74654379337E+01  0.43400727082E+02  0.00000000000E+00 0.  1.
         11    1    3    3    0    0 -0.17312203424E+02 -0.47834314932E+01 -0.55481116728E+01  0.18798275124E+02  0.51100000000E-03 0. -1.
        -11    1    3    3    0    0 -0.12123409962E+02  0.10181531501E+02 -0.48738600259E+00  0.15839135020E+02  0.51100000000E-03 0.  1.
        -12    1    3    3    0    0 -0.13055103666E+02 -0.66214053355E+00 -0.14299402584E+01  0.13149862773E+02  0.00000000000E+00 0.  1.
</event>
<event>
 7    1  0.2430096E-009  0.4778727E+02  0.7816164E-02  0.1312668E+00
        -11   -1    0    0    0    0  0.00000000000E+00  0.00000000000E+00  0.45593999997E+02  0.45594000000E+02  0.51100000000E-03 0.  1.
         11   -1    0    0    0    0 -0.00000000000E+00 -0.00000000000E+00 -0.45593999997E+02  0.45594000000E+02  0.51100000000E-03 0. -1.
    9900012    2    1    2    0    0 -0.10669598867E+01  0.42671272807E+02  0.78515691454E+01  0.47787273457E+02  0.20000011001E+02 0.  0.
        -12    1    1    2    0    0  0.10669598867E+01 -0.42671272807E+02 -0.78515691454E+01  0.43400726543E+02  0.00000000000E+00 0.  1.
         11    1    3    3    0    0 -0.31578197654E+01  0.37084449749E+02  0.91341477095E+01  0.38323111741E+02  0.51100000000E-03 0. -1.
        -11    1    3    3    0    0  0.41150409592E+01  0.50527307262E+01 -0.25718204895E+01  0.70055628453E+01  0.51100000000E-03 0.  1.
         12    1    3    3    0    0 -0.20241810805E+01  0.53409233195E+00  0.12892419254E+01  0.24585988709E+01  0.00000000000E+00 0. -1.
</event>
<event>
 7    1  0.2430096E-009  0.4778727E+02  0.7816164E-02  0.1312668E+00
        -11   -1    0    0    0    0  0.00000000000E+00  0.00000000000E+00  0.45593999997E+02  0.45594000000E+02  0.51100000000E-03 0. -1.
         11   -1    0    0    0    0 -0.00000000000E+00 -0.00000000000E+00 -0.45593999997E+02  0.45594000000E+02  0.51100000000E-03 0.  1.
    9900012    2    1    2    0    0 -0.38280323944E+02 -0.11456603730E+02  0.16940669568E+02  0.47787271254E+02  0.20000000953E+02 0.  0.
        -12    1    1    2    0    0  0.38280323944E+02  0.11456603730E+02 -0.16940669568E+02  0.43400728746E+02  0.00000000000E+00 0.  1.
         11    1    3    3    0    0 -0.27079840992E+02 -0.32684623062E+00  0.10771778716E+02  0.29145425603E+02  0.51100000000E-03 0. -1.
        -11    1    3    3    0    0 -0.12517423357E+01 -0.56824526985E+01  0.40853147513E+01  0.71096360261E+01  0.51100000000E-03 0.  1.
        -12    1    3    3    0    0 -0.99487406170E+01 -0.54473048012E+01  0.20835761006E+01  0.11532209625E+02  0.00000000000E+00 0.  1.
</event>
<event>
 7    1  0.2430096E-009  0.4778725E+02  0.7816164E-02  0.1312668E+00
        -11   -1    0    0    0    0  0.00000000000E+00  0.00000000000E+00  0.45593999997E+02  0.45594000000E+02  0.51100000000E-03 0.  1.
         11   -1    0    0    0    0 -0.00000000000E+00 -0.00000000000E+00 -0.45593999997E+02  0.45594000000E+02  0.51100000000E-03 0. -1.
    9900012    2    1    2    0    0  0.69004206166E+01  0.20691081782E+01 -0.42798694268E+02  0.47787248343E+02  0.19999896493E+02 0.  0.
        -12    1    1    2    0    0 -0.69004206166E+01 -0.20691081782E+01  0.42798694268E+02  0.43400751657E+02  0.00000000000E+00 0.  1.
         11    1    3    3    0    0 -0.48855771595E+00 -0.11072255915E+01 -0.49552609863E+01  0.51009066700E+01  0.51100000000E-03 0. -1.
        -11    1    3    3    0    0 -0.10593534689E+01 -0.63655676784E+01 -0.83171680589E+01  0.10527011277E+02  0.51100000000E-03 0.  1.
        -12    1    3    3    0    0  0.84483318014E+01  0.95419014482E+01 -0.29526265223E+02  0.32159330396E+02  0.00000000000E+00 0.  1.
</event>
<event>
 7    1  0.2430096E-009  0.4778727E+02  0.7816164E-02  0.1312668E+00
        -11   -1    0    0    0    0  0.00000000000E+00  0.00000000000E+00  0.45593999997E+02  0.45594000000E+02  0.51100000000E-03 0.  1.
         11   -1    0    0    0    0 -0.00000000000E+00 -0.00000000000E+00 -0.45593999997E+02  0.45594000000E+02  0.51100000000E-03 0. -1.
    9900012    2    1    2    0    0 -0.79917812284E+01  0.33304381931E+02 -0.26656574276E+02  0.47787269878E+02  0.19999994681E+02 0.  0.
        -12    1    1    2    0    0  0.79917812284E+01 -0.33304381931E+02  0.26656574276E+02  0.43400730122E+02  0.00000000000E+00 0.  1.
         11    1    3    3    0    0 -0.47861797128E+01  0.66650936694E+01 -0.73364035095E+01  0.11006988988E+02  0.51100000000E-03 0. -1.
        -11    1    3    3    0    0  0.16133261385E+01  0.16001194165E+02 -0.19272921795E+02  0.25101524868E+02  0.51100000000E-03 0.  1.
        -12    1    3    3    0    0 -0.48189276542E+01  0.10638094097E+02 -0.47248971187E-01  0.11678756022E+02  0.00000000000E+00 0.  1.
</event>
<event>
 7    1  0.2430096E-009  0.4778727E+02  0.7816164E-02  0.1312668E+00
        -11   -1    0    0    0    0  0.00000000000E+00  0.00000000000E+00  0.45593999997E+02  0.45594000000E+02  0.51100000000E-03 0.  1.
         11   -1    0    0    0    0 -0.00000000000E+00 -0.00000000000E+00 -0.45593999997E+02  0.45594000000E+02  0.51100000000E-03 0. -1.
    9900012    2    1    2    0    0 -0.74211765072E+01 -0.34932600958E+02  0.24662989710E+02  0.47787268072E+02  0.19999986446E+02 0.  0.
        -12    1    1    2    0    0  0.74211765072E+01  0.34932600958E+02 -0.24662989710E+02  0.43400731928E+02  0.00000000000E+00 0.  1.
         11    1    3    3    0    0 -0.37840176256E+00 -0.38504611520E+01  0.51151650967E+00  0.39026770784E+01  0.51100000000E-03 0. -1.
        -11    1    3    3    0    0 -0.37833807515E+01 -0.21871484107E+02  0.55598907832E+01  0.22882049138E+02  0.51100000000E-03 0.  1.
        -12    1    3    3    0    0 -0.32593939931E+01 -0.92106556989E+01  0.18591582417E+02  0.21002541855E+02  0.00000000000E+00 0.  1.
</event>
<event>
 7    1  0.2430096E-009  0.4778727E+02  0.7816164E-02  0.1312668E+00
        -11   -1    0    0    0    0  0.00000000000E+00  0.00000000000E+00  0.45593999997E+02  0.45594000000E+02  0.51100000000E-03 0.  1.
         11   -1    0    0    0    0 -0.00000000000E+00 -0.00000000000E+00 -0.45593999997E+02  0.45594000000E+02  0.51100000000E-03 0. -1.
    9900012    2    1    2    0    0 -0.12444190994E+02  0.80722809307E+01 -0.40787299060E+02  0.47787269896E+02  0.19999994764E+02 0.  0.
        -12    1    1    2    0    0  0.12444190994E+02 -0.80722809307E+01  0.40787299060E+02  0.43400730104E+02  0.00000000000E+00 0.  1.
         11    1    3    3    0    0 -0.27966827472E+01 -0.31287243199E+01 -0.37445239578E+01  0.56242164068E+01  0.51100000000E-03 0. -1.
        -11    1    3    3    0    0 -0.12082385455E+02  0.12483684322E+02 -0.32484362556E+02  0.36838298324E+02  0.51100000000E-03 0.  1.
        -12    1    3    3    0    0  0.24348772080E+01 -0.12826790711E+01 -0.45584125470E+01  0.53247551650E+01  0.00000000000E+00 0.  1.
</event>
<event>
 7    1  0.2430096E-009  0.4778727E+02  0.7816164E-02  0.1312668E+00
        -11   -1    0    0    0    0  0.00000000000E+00  0.00000000000E+00  0.45593999997E+02  0.45594000000E+02  0.51100000000E-03 0.  1.
         11   -1    0    0    0    0 -0.00000000000E+00 -0.00000000000E+00 -0.45593999997E+02  0.45594000000E+02  0.51100000000E-03 0. -1.
    9900012    2    1    2    0    0 -0.21136304470E+02 -0.33148148627E+02 -0.18386949322E+02  0.47787273860E+02  0.20000012839E+02 0.  0.
        -12    1    1    2    0    0  0.21136304470E+02  0.33148148627E+02  0.18386949322E+02  0.43400726140E+02  0.00000000000E+00 0.  1.
         11    1    3    3    0    0 -0.76330918883E+01 -0.12934443906E+02 -0.85882519784E+01  0.17300924925E+02  0.51100000000E-03 0. -1.
        -11    1    3    3    0    0 -0.17023147086E+02 -0.16278539214E+02 -0.74137778960E+01  0.24692964152E+02  0.51100000000E-03 0.  1.
        -12    1    3    3    0    0  0.35199345043E+01 -0.39351655069E+01 -0.23849194479E+01  0.57933847839E+01  0.00000000000E+00 0.  1.
</event>
<event>
 7    1  0.2430096E-009  0.4778726E+02  0.7816164E-02  0.1312668E+00
        -11   -1    0    0    0    0  0.00000000000E+00  0.00000000000E+00  0.45593999997E+02  0.45594000000E+02  0.51100000000E-03 0. -1.
         11   -1    0    0    0    0 -0.00000000000E+00 -0.00000000000E+00 -0.45593999997E+02  0.45594000000E+02  0.51100000000E-03 0.  1.
    9900012    2    1    2    0    0  0.30896741460E+02 -0.27935601844E+02 -0.12190875969E+02  0.47787263369E+02  0.19999965005E+02 0.  0.
        -12    1    1    2    0    0 -0.30896741460E+02  0.27935601844E+02  0.12190875969E+02  0.43400736631E+02  0.00000000000E+00 0.  1.
         11    1    3    3    0    0  0.25159628956E+01 -0.10549151191E+02 -0.34995508636E-01  0.10845085757E+02  0.51100000000E-03 0. -1.
        -11    1    3    3    0    0  0.45712256487E+01 -0.80901630566E+01 -0.25400805600E+01  0.96332160635E+01  0.51100000000E-03 0.  1.
         12    1    3    3    0    0  0.23809552915E+02 -0.92962875966E+01 -0.96157999005E+01  0.27308961548E+02  0.00000000000E+00 0. -1.
</event>
<event>
 7    1  0.2430096E-009  0.4778727E+02  0.7816164E-02  0.1312668E+00
        -11   -1    0    0    0    0  0.00000000000E+00  0.00000000000E+00  0.45593999997E+02  0.45594000000E+02  0.51100000000E-03 0. -1.
         11   -1    0    0    0    0 -0.00000000000E+00 -0.00000000000E+00 -0.45593999997E+02  0.45594000000E+02  0.51100000000E-03 0.  1.
    9900012    2    1    2    0    0 -0.23204669393E+02  0.23184072788E+02  0.28419451173E+02  0.47787272844E+02  0.20000008206E+02 0.  0.
        -12    1    1    2    0    0  0.23204669393E+02 -0.23184072788E+02 -0.28419451173E+02  0.43400727156E+02  0.00000000000E+00 0.  1.
         11    1    3    3    0    0 -0.53425971702E+01  0.26554670345E+01  0.77170039385E+01  0.97543323575E+01  0.51100000000E-03 0. -1.
        -11    1    3    3    0    0 -0.97196451380E+00  0.12092493214E+02  0.38552237030E+01  0.12729330588E+02  0.51100000000E-03 0.  1.
        -12    1    3    3    0    0 -0.16890107709E+02  0.84361125396E+01  0.16847223531E+02  0.25303609899E+02  0.00000000000E+00 0.  1.
</event>
<event>
 7    1  0.2430096E-009  0.4778727E+02  0.7816164E-02  0.1312668E+00
        -11   -1    0    0    0    0  0.00000000000E+00  0.00000000000E+00  0.45593999997E+02  0.45594000000E+02  0.51100000000E-03 0. -1.
         11   -1    0    0    0    0 -0.00000000000E+00 -0.00000000000E+00 -0.45593999997E+02  0.45594000000E+02  0.51100000000E-03 0.  1.
    9900012    2    1    2    0    0 -0.26483737775E+02  0.33123479968E+02  0.92233392537E+01  0.47787270989E+02  0.19999999746E+02 0.  0.
        -12    1    1    2    0    0  0.26483737775E+02 -0.33123479968E+02 -0.92233392537E+01  0.43400729011E+02  0.00000000000E+00 0.  1.
         11    1    3    3    0    0 -0.20435764824E+01  0.54455774911E+01 -0.14639702935E+00  0.58182429824E+01  0.51100000000E-03 0. -1.
        -11    1    3    3    0    0 -0.24356085171E+01 -0.16948645564E+01 -0.19634574888E+01  0.35580781729E+01  0.51100000000E-03 0.  1.
        -12    1    3    3    0    0 -0.22004552775E+02  0.29372767033E+02  0.11333193772E+02  0.38410949833E+02  0.00000000000E+00 0.  1.
</event>
<event>
 7    1  0.2430096E-009  0.4778727E+02  0.7816164E-02  0.1312668E+00
        -11   -1    0    0    0    0  0.00000000000E+00  0.00000000000E+00  0.45593999997E+02  0.45594000000E+02  0.51100000000E-03 0.  1.
         11   -1    0    0    0    0 -0.00000000000E+00 -0.00000000000E+00 -0.45593999997E+02  0.45594000000E+02  0.51100000000E-03 0. -1.
    9900012    2    1    2    0    0  0.36040476361E+02 -0.24044433374E+02  0.25637822808E+01  0.47787266225E+02  0.19999978026E+02 0.  0.
        -12    1    1    2    0    0 -0.36040476361E+02  0.24044433374E+02 -0.25637822808E+01  0.43400733775E+02  0.00000000000E+00 0.  1.
         11    1    3    3    0    0  0.27877170667E+01  0.19741910769E+01 -0.28399093353E+00  0.34277467764E+01  0.51100000000E-03 0. -1.
        -11    1    3    3    0    0  0.31869253012E+02 -0.24253270628E+02  0.59952971089E+01  0.40494617067E+02  0.51100000000E-03 0.  1.
        -12    1    3    3    0    0  0.13835062831E+01 -0.17653538228E+01 -0.31475238946E+01  0.38649023820E+01  0.00000000000E+00 0.  1.
</event>
<event>
 7    1  0.2430096E-009  0.4778727E+02  0.7816164E-02  0.1312668E+00
        -11   -1    0    0    0    0  0.00000000000E+00  0.00000000000E+00  0.45593999997E+02  0.45594000000E+02  0.51100000000E-03 0.  1.
         11   -1    0    0    0    0 -0.00000000000E+00 -0.00000000000E+00 -0.45593999997E+02  0.45594000000E+02  0.51100000000E-03 0. -1.
    9900012    2    1    2    0    0  0.37488549033E+02 -0.20836359248E+02 -0.66391178096E+01  0.47787273502E+02  0.20000011205E+02 0.  0.
        -12    1    1    2    0    0 -0.37488549033E+02  0.20836359248E+02  0.66391178096E+01  0.43400726498E+02  0.00000000000E+00 0.  1.
         11    1    3    3    0    0  0.17488532567E+02 -0.58925725668E+01 -0.96196920852E+01  0.20811286815E+02  0.51100000000E-03 0. -1.
        -11    1    3    3    0    0  0.53595493294E+01 -0.58653821886E+01  0.53621279687E+01  0.95854000358E+01  0.51100000000E-03 0.  1.
         12    1    3    3    0    0  0.14640467136E+02 -0.90784044923E+01 -0.23815536931E+01  0.17390586651E+02  0.00000000000E+00 0. -1.
</event>
<event>
 7    1  0.2430096E-009  0.4778727E+02  0.7816164E-02  0.1312668E+00
        -11   -1    0    0    0    0  0.00000000000E+00  0.00000000000E+00  0.45593999997E+02  0.45594000000E+02  0.51100000000E-03 0.  1.
         11   -1    0    0    0    0 -0.00000000000E+00 -0.00000000000E+00 -0.45593999997E+02  0.45594000000E+02  0.51100000000E-03 0. -1.
    9900012    2    1    2    0    0 -0.40880227224E+02 -0.13561447190E+02 -0.53401664450E+01  0.47787271833E+02  0.20000003595E+02 0.  0.
        -12    1    1    2    0    0  0.40880227224E+02  0.13561447190E+02  0.53401664450E+01  0.43400728167E+02  0.00000000000E+00 0.  1.
         11    1    3    3    0    0 -0.81161113652E+01 -0.82922863598E+00 -0.34537509740E+01  0.88593047061E+01  0.51100000000E-03 0. -1.
        -11    1    3    3    0    0 -0.11764635233E+02 -0.75560580110E+00 -0.76785578286E+01  0.14069038093E+02  0.51100000000E-03 0.  1.
        -12    1    3    3    0    0 -0.20999480626E+02 -0.11976612753E+02  0.57921423577E+01  0.24858929034E+02  0.00000000000E+00 0.  1.
</event>
<event>
 7    1  0.2430096E-009  0.4778727E+02  0.7816164E-02  0.1312668E+00
        -11   -1    0    0    0    0  0.00000000000E+00  0.00000000000E+00  0.45593999997E+02  0.45594000000E+02  0.51100000000E-03 0.  1.
         11   -1    0    0    0    0 -0.00000000000E+00 -0.00000000000E+00 -0.45593999997E+02  0.45594000000E+02  0.51100000000E-03 0. -1.
    9900012    2    1    2    0    0  0.35462069932E+02  0.24499161347E+02 -0.50849166447E+01  0.47787266275E+02  0.19999978254E+02 0.  0.
        -12    1    1    2    0    0 -0.35462069932E+02 -0.24499161347E+02  0.50849166447E+01  0.43400733725E+02  0.00000000000E+00 0.  1.
         11    1    3    3    0    0 -0.90925012836E+00  0.71247807306E+00 -0.29076148941E+01  0.31286715126E+01  0.51100000000E-03 0. -1.
        -11    1    3    3    0    0  0.46354765240E+01  0.36794085441E+01  0.31646341596E+01  0.67112293556E+01  0.51100000000E-03 0.  1.
         12    1    3    3    0    0  0.31735843537E+02  0.20107274730E+02 -0.53419359102E+01  0.37947365407E+02  0.00000000000E+00 0. -1.
</event>
<event>
 7    1  0.2430096E-009  0.4778727E+02  0.7816164E-02  0.1312668E+00
        -11   -1    0    0    0    0  0.00000000000E+00  0.00000000000E+00  0.45593999997E+02  0.45594000000E+02  0.51100000000E-03 0.  1.
         11   -1    0    0    0    0 -0.00000000000E+00 -0.00000000000E+00 -0.45593999997E+02  0.45594000000E+02  0.51100000000E-03 0. -1.
    9900012    2    1    2    0    0  0.11540049070E+01 -0.22115541369E+02 -0.37325517675E+02  0.47787272275E+02  0.20000005611E+02 0.  0.
        -12    1    1    2    0    0 -0.11540049070E+01  0.22115541369E+02  0.37325517675E+02  0.43400727725E+02  0.00000000000E+00 0.  1.
         11    1    3    3    0    0 -0.32421941989E+01 -0.20035447801E+01 -0.71995573199E+01  0.81461426929E+01  0.51100000000E-03 0. -1.
        -11    1    3    3    0    0 -0.47974879813E+01 -0.21674354812E+01 -0.38558758945E+01  0.65254460898E+01  0.51100000000E-03 0.  1.
         12    1    3    3    0    0  0.91936870872E+01 -0.17944561108E+02 -0.26270084460E+02  0.33115683492E+02  0.00000000000E+00 0. -1.
</event>
<event>
 7    1  0.2430096E-009  0.4778727E+02  0.7816164E-02  0.1312668E+00
        -11   -1    0    0    0    0  0.00000000000E+00  0.00000000000E+00  0.45593999997E+02  0.45594000000E+02  0.51100000000E-03 0. -1.
         11   -1    0    0    0    0 -0.00000000000E+00 -0.00000000000E+00 -0.45593999997E+02  0.45594000000E+02  0.51100000000E-03 0.  1.
    9900012    2    1    2    0    0 -0.25465455443E+02 -0.15034520402E+02  0.31766285227E+02  0.47787273028E+02  0.20000009042E+02 0.  0.
        -12    1    1    2    0    0  0.25465455443E+02  0.15034520402E+02 -0.31766285227E+02  0.43400726972E+02  0.00000000000E+00 0.  1.
         11    1    3    3    0    0 -0.12069655449E+02 -0.78173511888E+01  0.16426081029E+02  0.21831255129E+02  0.51100000000E-03 0. -1.
        -11    1    3    3    0    0 -0.35981670820E+01 -0.33039795222E+01 -0.23017560369E+01  0.54001081607E+01  0.51100000000E-03 0.  1.
        -12    1    3    3    0    0 -0.97976329115E+01 -0.39131896912E+01  0.17641960235E+02  0.20555909738E+02  0.00000000000E+00 0.  1.
</event>
<event>
 7    1  0.2430096E-009  0.4778727E+02  0.7816164E-02  0.1312668E+00
        -11   -1    0    0    0    0  0.00000000000E+00  0.00000000000E+00  0.45593999997E+02  0.45594000000E+02  0.51100000000E-03 0.  1.
         11   -1    0    0    0    0 -0.00000000000E+00 -0.00000000000E+00 -0.45593999997E+02  0.45594000000E+02  0.51100000000E-03 0. -1.
    9900012    2    1    2    0    0 -0.35330848293E+02 -0.24777246964E+02  0.46306398215E+01  0.47787266903E+02  0.19999981116E+02 0.  0.
        -12    1    1    2    0    0  0.35330848293E+02  0.24777246964E+02 -0.46306398215E+01  0.43400733097E+02  0.00000000000E+00 0.  1.
         11    1    3    3    0    0 -0.11958616000E+02 -0.15131178018E+02 -0.43298842950E+01  0.19766358874E+02  0.51100000000E-03 0. -1.
        -11    1    3    3    0    0 -0.12999737698E+02 -0.29753718712E+01  0.82213702450E+01  0.15666427383E+02  0.51100000000E-03 0.  1.
         12    1    3    3    0    0 -0.10372494595E+02 -0.66706970754E+01  0.73915387150E+00  0.12354480646E+02  0.00000000000E+00 0. -1.
</event>
<event>
 7    1  0.2430096E-009  0.4778727E+02  0.7816164E-02  0.1312668E+00
        -11   -1    0    0    0    0  0.00000000000E+00  0.00000000000E+00  0.45593999997E+02  0.45594000000E+02  0.51100000000E-03 0.  1.
         11   -1    0    0    0    0 -0.00000000000E+00 -0.00000000000E+00 -0.45593999997E+02  0.45594000000E+02  0.51100000000E-03 0. -1.
    9900012    2    1    2    0    0 -0.34990550272E+02 -0.24432434916E+02 -0.78956198462E+01  0.47787270778E+02  0.19999998783E+02 0.  0.
        -12    1    1    2    0    0  0.34990550272E+02  0.24432434916E+02  0.78956198462E+01  0.43400729222E+02  0.00000000000E+00 0.  1.
         11    1    3    3    0    0 -0.17532871132E+02 -0.13035404019E+02 -0.11144498980E+02  0.24525969621E+02  0.51100000000E-03 0. -1.
        -11    1    3    3    0    0 -0.14819090593E+02 -0.10845477700E+02  0.60876784604E+01  0.19346567185E+02  0.51100000000E-03 0.  1.
        -12    1    3    3    0    0 -0.26385885477E+01 -0.55155319673E+00 -0.28387993270E+01  0.39147339720E+01  0.00000000000E+00 0.  1.
</event>
<event>
 7    1  0.2430096E-009  0.4778727E+02  0.7816164E-02  0.1312668E+00
        -11   -1    0    0    0    0  0.00000000000E+00  0.00000000000E+00  0.45593999997E+02  0.45594000000E+02  0.51100000000E-03 0.  1.
         11   -1    0    0    0    0 -0.00000000000E+00 -0.00000000000E+00 -0.45593999997E+02  0.45594000000E+02  0.51100000000E-03 0. -1.
    9900012    2    1    2    0    0  0.70220177736E+01  0.18729141782E+02 -0.38516670877E+02  0.47787269350E+02  0.19999992276E+02 0.  0.
        -12    1    1    2    0    0 -0.70220177736E+01 -0.18729141782E+02  0.38516670877E+02  0.43400730650E+02  0.00000000000E+00 0.  1.
         11    1    3    3    0    0  0.31160442748E+01 -0.17513988178E+01 -0.12664143453E+02  0.13158938385E+02  0.51100000000E-03 0. -1.
        -11    1    3    3    0    0 -0.17094092118E+01  0.10897586110E+01 -0.27791014968E+00  0.20461886512E+01  0.51100000000E-03 0.  1.
         12    1    3    3    0    0  0.56153827106E+01  0.19390781989E+02 -0.25574617273E+02  0.32582142315E+02  0.00000000000E+00 0. -1.
</event>
<event>
 7    1  0.3035258E-009  0.4778727E+02  0.7816164E-02  0.1312668E+00
        -11   -1    0    0    0    0  0.00000000000E+00  0.00000000000E+00  0.45593999997E+02  0.45594000000E+02  0.51100000000E-03 0. -1.
         11   -1    0    0    0    0 -0.00000000000E+00 -0.00000000000E+00 -0.45593999997E+02  0.45594000000E+02  0.51100000000E-03 0.  1.
    9900012    2    1    2    0    0 -0.18223217793E+02  0.22350149745E+02  0.32434682301E+02  0.47787268712E+02  0.19999989366E+02 0.  0.
        -12    1    1    2    0    0  0.18223217793E+02 -0.22350149745E+02 -0.32434682301E+02  0.43400731288E+02  0.00000000000E+00 0.  1.
         11    1    3    3    0    0 -0.76000998072E+01  0.62362487991E+01  0.97707167239E+01  0.13860707836E+02  0.51100000000E-03 0. -1.
        -11    1    3    3    0    0 -0.82815658626E+01 -0.37378734316E-01  0.42066148168E+01  0.92887748807E+01  0.51100000000E-03 0.  1.
        -12    1    3    3    0    0 -0.23415521234E+01  0.16151279680E+02  0.18457350760E+02  0.24637785995E+02  0.00000000000E+00 0.  1.
</event>
<event>
 7    1  0.2430096E-009  0.4778726E+02  0.7816164E-02  0.1312668E+00
        -11   -1    0    0    0    0  0.00000000000E+00  0.00000000000E+00  0.45593999997E+02  0.45594000000E+02  0.51100000000E-03 0.  1.
         11   -1    0    0    0    0 -0.00000000000E+00 -0.00000000000E+00 -0.45593999997E+02  0.45594000000E+02  0.51100000000E-03 0. -1.
    9900012    2    1    2    0    0 -0.30457194981E+02 -0.17173971399E+02  0.25710658549E+02  0.47787262878E+02  0.19999962765E+02 0.  0.
        -12    1    1    2    0    0  0.30457194981E+02  0.17173971399E+02 -0.25710658549E+02  0.43400737122E+02  0.00000000000E+00 0.  1.
         11    1    3    3    0    0 -0.39469950256E+01 -0.95315963140E+01  0.11002687253E+02  0.15082745939E+02  0.51100000000E-03 0.  1.
        -11    1    3    3    0    0 -0.13674054838E+02 -0.37497974615E+01  0.21705151174E+01  0.14344054268E+02  0.51100000000E-03 0. -1.
         12    1    3    3    0    0 -0.12836145118E+02 -0.38925776233E+01  0.12537456179E+02  0.18360462671E+02  0.00000000000E+00 0. -1.
</event>
<event>
 7    1  0.2430096E-009  0.4778727E+02  0.7816164E-02  0.1312668E+00
        -11   -1    0    0    0    0  0.00000000000E+00  0.00000000000E+00  0.45593999997E+02  0.45594000000E+02  0.51100000000E-03 0.  1.
         11   -1    0    0    0    0 -0.00000000000E+00 -0.00000000000E+00 -0.45593999997E+02  0.45594000000E+02  0.51100000000E-03 0. -1.
    9900012    2    1    2    0    0 -0.45484518772E+01  0.21969859012E+02 -0.37151850190E+02  0.47787273139E+02  0.20000009552E+02 0.  0.
        -12    1    1    2    0    0  0.45484518772E+01 -0.21969859012E+02  0.37151850190E+02  0.43400726861E+02  0.00000000000E+00 0.  1.
         11    1    3    3    0    0 -0.78662116456E+01  0.62387919533E+01 -0.22480454378E+02  0.24620532894E+02  0.51100000000E-03 0. -1.
        -11    1    3    3    0    0  0.13859066560E+01  0.71398297295E+01 -0.16673725574E+01  0.74617717287E+01  0.51100000000E-03 0.  1.
         12    1    3    3    0    0  0.19318531125E+01  0.85912373292E+01 -0.13004023255E+02  0.15704968517E+02  0.00000000000E+00 0. -1.
</event>
<event>
 7    1  0.2430096E-009  0.4778727E+02  0.7816164E-02  0.1312668E+00
        -11   -1    0    0    0    0  0.00000000000E+00  0.00000000000E+00  0.45593999997E+02  0.45594000000E+02  0.51100000000E-03 0. -1.
         11   -1    0    0    0    0 -0.00000000000E+00 -0.00000000000E+00 -0.45593999997E+02  0.45594000000E+02  0.51100000000E-03 0.  1.
    9900012    2    1    2    0    0 -0.21074487277E+02  0.19356717965E+02  0.32631373416E+02  0.47787273331E+02  0.20000010425E+02 0.  0.
        -12    1    1    2    0    0  0.21074487277E+02 -0.19356717965E+02 -0.32631373416E+02  0.43400726669E+02  0.00000000000E+00 0.  1.
         11    1    3    3    0    0 -0.21020350326E+02  0.11833780807E+02  0.16269985767E+02  0.29096493485E+02  0.51100000000E-03 0. -1.
        -11    1    3    3    0    0  0.71631865227E+00  0.58235897284E+01  0.69471137857E+01  0.90933877047E+01  0.51100000000E-03 0.  1.
         12    1    3    3    0    0 -0.77045560276E+00  0.16993474302E+01  0.94142738638E+01  0.95973921409E+01  0.00000000000E+00 0. -1.
</event>
<event>
 7    1  0.2430096E-009  0.4778733E+02  0.7816164E-02  0.1312668E+00
        -11   -1    0    0    0    0  0.00000000000E+00  0.00000000000E+00  0.45593999997E+02  0.45594000000E+02  0.51100000000E-03 0.  1.
         11   -1    0    0    0    0 -0.00000000000E+00 -0.00000000000E+00 -0.45593999997E+02  0.45594000000E+02  0.51100000000E-03 0. -1.
    9900012    2    1    2    0    0  0.67311135048E+01  0.29076742116E+00 -0.42874535472E+02  0.47787329191E+02  0.20000265112E+02 0.  0.
        -12    1    1    2    0    0 -0.67311135048E+01 -0.29076742116E+00  0.42874535472E+02  0.43400670809E+02  0.00000000000E+00 0.  1.
         11    1    3    3    0    0  0.11089253179E+02  0.26666435565E+00 -0.32800793118E+02  0.34625636101E+02  0.51100000000E-03 0. -1.
        -11    1    3    3    0    0 -0.23682571742E+01  0.30748291822E+01 -0.21404933031E+01  0.44322599636E+01  0.51100000000E-03 0.  1.
         12    1    3    3    0    0 -0.19898825003E+01 -0.30507261167E+01 -0.79332490511E+01  0.87294331265E+01  0.00000000000E+00 0. -1.
</event>
<event>
 7    1  0.2932144E-009  0.4778727E+02  0.7816164E-02  0.1312668E+00
        -11   -1    0    0    0    0  0.00000000000E+00  0.00000000000E+00  0.45593999997E+02  0.45594000000E+02  0.51100000000E-03 0. -1.
         11   -1    0    0    0    0 -0.00000000000E+00 -0.00000000000E+00 -0.45593999997E+02  0.45594000000E+02  0.51100000000E-03 0.  1.
    9900012    2    1    2    0    0 -0.40632515402E+02  0.14989676515E+02 -0.28163294930E+01  0.47787269341E+02  0.19999992236E+02 0.  0.
        -12    1    1    2    0    0  0.40632515402E+02 -0.14989676515E+02  0.28163294930E+01  0.43400730659E+02  0.00000000000E+00 0.  1.
         11    1    3    3    0    0 -0.98542127053E+01  0.86472643849E+01 -0.38743867600E+01  0.13670828885E+02  0.51100000000E-03 0. -1.
        -11    1    3    3    0    0 -0.16631992889E+02  0.30581561864E+01  0.71598898080E+01  0.18364082581E+02  0.51100000000E-03 0.  1.
        -12    1    3    3    0    0 -0.14146309807E+02  0.32842559434E+01 -0.61018325410E+01  0.15752357875E+02  0.00000000000E+00 0.  1.
</event>
<event>
 7    1  0.2430096E-009  0.4778728E+02  0.7816164E-02  0.1312668E+00
        -11   -1    0    0    0    0  0.00000000000E+00  0.00000000000E+00  0.45593999997E+02  0.45594000000E+02  0.51100000000E-03 0.  1.
         11   -1    0    0    0    0 -0.00000000000E+00 -0.00000000000E+00 -0.45593999997E+02  0.45594000000E+02  0.51100000000E-03 0. -1.
    9900012    2    1    2    0    0 -0.10451037938E+02  0.10688845900E+02 -0.40744905136E+02  0.47787275176E+02  0.20000018839E+02 0.  0.
        -12    1    1    2    0    0  0.10451037938E+02 -0.10688845900E+02  0.40744905136E+02  0.43400724824E+02  0.00000000000E+00 0.  1.
         11    1    3    3    0    0  0.70996875222E+00 -0.39351951386E+01 -0.78475088537E+01  0.88075656045E+01  0.51100000000E-03 0. -1.
        -11    1    3    3    0    0 -0.12990059380E+02  0.11925047057E+02 -0.28279288358E+02  0.33326664104E+02  0.51100000000E-03 0.  1.
        -12    1    3    3    0    0  0.18290526903E+01  0.26989939814E+01 -0.46181079247E+01  0.56530454677E+01  0.00000000000E+00 0.  1.
</event>
<event>
 7    1  0.2430096E-009  0.4778727E+02  0.7816164E-02  0.1312668E+00
        -11   -1    0    0    0    0  0.00000000000E+00  0.00000000000E+00  0.45593999997E+02  0.45594000000E+02  0.51100000000E-03 0.  1.
         11   -1    0    0    0    0 -0.00000000000E+00 -0.00000000000E+00 -0.45593999997E+02  0.45594000000E+02  0.51100000000E-03 0. -1.
    9900012    2    1    2    0    0  0.17209372921E+02  0.92554232213E+01 -0.38753034703E+02  0.47787273347E+02  0.20000010497E+02 0.  0.
        -12    1    1    2    0    0 -0.17209372921E+02 -0.92554232213E+01  0.38753034703E+02  0.43400726653E+02  0.00000000000E+00 0.  1.
         11    1    3    3    0    0  0.14000486677E+02  0.83355755620E+01 -0.40128429995E+02  0.43310349124E+02  0.51100000000E-03 0. -1.
        -11    1    3    3    0    0  0.25576406184E+01  0.15146350312E+01  0.16205562640E+00  0.29768955471E+01  0.51100000000E-03 0.  1.
         12    1    3    3    0    0  0.65124562556E+00 -0.59478737194E+00  0.12133396655E+01  0.15000286752E+01  0.00000000000E+00 0. -1.
</event>
<event>
 7    1  0.2430096E-009  0.4778728E+02  0.7816164E-02  0.1312668E+00
        -11   -1    0    0    0    0  0.00000000000E+00  0.00000000000E+00  0.45593999997E+02  0.45594000000E+02  0.51100000000E-03 0.  1.
         11   -1    0    0    0    0 -0.00000000000E+00 -0.00000000000E+00 -0.45593999997E+02  0.45594000000E+02  0.51100000000E-03 0. -1.
    9900012    2    1    2    0    0  0.30945886158E+01 -0.53953720702E+01 -0.42952721310E+02  0.47787276660E+02  0.20000025606E+02 0.  0.
        -12    1    1    2    0    0 -0.30945886158E+01  0.53953720702E+01  0.42952721310E+02  0.43400723340E+02  0.00000000000E+00 0.  1.
         11    1    3    3    0    0  0.21200724251E+01 -0.57379364722E+01 -0.61654237581E+01  0.86851063566E+01  0.51100000000E-03 0. -1.
        -11    1    3    3    0    0 -0.78550257602E+00  0.22716852840E+01 -0.36379909488E+02  0.36459229050E+02  0.51100000000E-03 0.  1.
        -12    1    3    3    0    0  0.17600187667E+01 -0.19291208820E+01 -0.40738806396E+00  0.26429412539E+01  0.00000000000E+00 0.  1.
</event>
<event>
 7    1  0.2430096E-009  0.4778727E+02  0.7816164E-02  0.1312668E+00
        -11   -1    0    0    0    0  0.00000000000E+00  0.00000000000E+00  0.45593999997E+02  0.45594000000E+02  0.51100000000E-03 0.  1.
         11   -1    0    0    0    0 -0.00000000000E+00 -0.00000000000E+00 -0.45593999997E+02  0.45594000000E+02  0.51100000000E-03 0. -1.
    9900012    2    1    2    0    0  0.15163390278E+02 -0.39856072168E+02 -0.80739304913E+01  0.47787271355E+02  0.20000001414E+02 0.  0.
        -12    1    1    2    0    0 -0.15163390278E+02  0.39856072168E+02  0.80739304913E+01  0.43400728645E+02  0.00000000000E+00 0.  1.
         11    1    3    3    0    0 -0.23715108468E+01 -0.74488610724E+01 -0.35668583784E+01  0.85925592186E+01  0.51100000000E-03 0. -1.
        -11    1    3    3    0    0  0.10487449974E+02 -0.17634498378E+02  0.37579523146E+01  0.20858675554E+02  0.51100000000E-03 0.  1.
        -12    1    3    3    0    0  0.70474511502E+01 -0.14772712718E+02 -0.82650244275E+01  0.18336036582E+02  0.00000000000E+00 0.  1.
</event>
<event>
 7    1  0.2430096E-009  0.4778727E+02  0.7816164E-02  0.1312668E+00
        -11   -1    0    0    0    0  0.00000000000E+00  0.00000000000E+00  0.45593999997E+02  0.45594000000E+02  0.51100000000E-03 0. -1.
         11   -1    0    0    0    0 -0.00000000000E+00 -0.00000000000E+00 -0.45593999997E+02  0.45594000000E+02  0.51100000000E-03 0.  1.
    9900012    2    1    2    0    0  0.29034343121E+02  0.21119729620E+02  0.24384164070E+02  0.47787268243E+02  0.19999987226E+02 0.  0.
        -12    1    1    2    0    0 -0.29034343121E+02 -0.21119729620E+02 -0.24384164070E+02  0.43400731757E+02  0.00000000000E+00 0.  1.
         11    1    3    3    0    0  0.61830628762E+01  0.13617340483E+02  0.10086083847E+02  0.18038606265E+02  0.51100000000E-03 0.  1.
        -11    1    3    3    0    0  0.19177522016E+01  0.54784731370E+00  0.57597645405E+01  0.60953095089E+01  0.51100000000E-03 0. -1.
        -12    1    3    3    0    0  0.20933528043E+02  0.69545418229E+01  0.85383156826E+01  0.23653352468E+02  0.00000000000E+00 0.  1.
</event>
<event>
 7    1  0.2430096E-009  0.4778727E+02  0.7816164E-02  0.1312668E+00
        -11   -1    0    0    0    0  0.00000000000E+00  0.00000000000E+00  0.45593999997E+02  0.45594000000E+02  0.51100000000E-03 0.  1.
         11   -1    0    0    0    0 -0.00000000000E+00 -0.00000000000E+00 -0.45593999997E+02  0.45594000000E+02  0.51100000000E-03 0. -1.
    9900012    2    1    2    0    0 -0.19135900553E+02  0.33863899930E+02 -0.19252967266E+02  0.47787272391E+02  0.20000006142E+02 0.  0.
        -12    1    1    2    0    0  0.19135900553E+02 -0.33863899930E+02  0.19252967266E+02  0.43400727609E+02  0.00000000000E+00 0.  1.
         11    1    3    3    0    0 -0.19964671859E+01  0.12102127351E+02 -0.11615918275E+02  0.16893102891E+02  0.51100000000E-03 0. -1.
        -11    1    3    3    0    0 -0.18236560848E+02  0.18495720775E+02 -0.85226414508E+01  0.27336774793E+02  0.51100000000E-03 0.  1.
        -12    1    3    3    0    0  0.10971274812E+01  0.32660518034E+01  0.88559246060E+00  0.35573947066E+01  0.00000000000E+00 0.  1.
</event>
<event>
 7    1  0.2430096E-009  0.4778727E+02  0.7816164E-02  0.1312668E+00
        -11   -1    0    0    0    0  0.00000000000E+00  0.00000000000E+00  0.45593999997E+02  0.45594000000E+02  0.51100000000E-03 0.  1.
         11   -1    0    0    0    0 -0.00000000000E+00 -0.00000000000E+00 -0.45593999997E+02  0.45594000000E+02  0.51100000000E-03 0. -1.
    9900012    2    1    2    0    0 -0.36178637485E+02  0.35490643245E+01 -0.23709357479E+02  0.47787270744E+02  0.19999998630E+02 0.  0.
        -12    1    1    2    0    0  0.36178637485E+02 -0.35490643245E+01  0.23709357479E+02  0.43400729256E+02  0.00000000000E+00 0.  1.
         11    1    3    3    0    0 -0.23653802373E+02 -0.24058538394E+01 -0.12403684838E+02  0.26816821161E+02  0.51100000000E-03 0. -1.
        -11    1    3    3    0    0  0.61361168297E+00  0.20422034841E+01  0.11721725211E+01  0.24333316766E+01  0.51100000000E-03 0.  1.
        -12    1    3    3    0    0 -0.13138446796E+02  0.39127146798E+01 -0.12477845162E+02  0.18537117906E+02  0.00000000000E+00 0.  1.
</event>
<event>
 7    1  0.2430096E-009  0.4778727E+02  0.7816164E-02  0.1312668E+00
        -11   -1    0    0    0    0  0.00000000000E+00  0.00000000000E+00  0.45593999997E+02  0.45594000000E+02  0.51100000000E-03 0. -1.
         11   -1    0    0    0    0 -0.00000000000E+00 -0.00000000000E+00 -0.45593999997E+02  0.45594000000E+02  0.51100000000E-03 0.  1.
    9900012    2    1    2    0    0  0.41252918993E+02 -0.13482415980E+02 -0.21069407698E+00  0.47787271226E+02  0.20000000829E+02 0.  0.
        -12    1    1    2    0    0 -0.41252918993E+02  0.13482415980E+02  0.21069407698E+00  0.43400728774E+02  0.00000000000E+00 0.  1.
         11    1    3    3    0    0  0.30331909160E+02 -0.87519733492E+01  0.10649910289E+01  0.31587275237E+02  0.51100000000E-03 0. -1.
        -11    1    3    3    0    0  0.47558126481E+01 -0.78716909407E+01 -0.12442691370E+01  0.92805968642E+01  0.51100000000E-03 0.  1.
        -12    1    3    3    0    0  0.61651971854E+01  0.31412483103E+01 -0.31415968886E-01  0.69193991245E+01  0.00000000000E+00 0.  1.
</event>
<event>
 7    1  0.2430096E-009  0.4778728E+02  0.7816164E-02  0.1312668E+00
        -11   -1    0    0    0    0  0.00000000000E+00  0.00000000000E+00  0.45593999997E+02  0.45594000000E+02  0.51100000000E-03 0.  1.
         11   -1    0    0    0    0 -0.00000000000E+00 -0.00000000000E+00 -0.45593999997E+02  0.45594000000E+02  0.51100000000E-03 0. -1.
    9900012    2    1    2    0    0 -0.35923973351E+02  0.10342771687E+02 -0.22048082078E+02  0.47787277531E+02  0.20000029577E+02 0.  0.
        -12    1    1    2    0    0  0.35923973351E+02 -0.10342771687E+02  0.22048082078E+02  0.43400722469E+02  0.00000000000E+00 0.  1.
         11    1    3    3    0    0 -0.32005262411E+01 -0.39786694188E+01  0.75461005600E+00  0.51616484927E+01  0.51100000000E-03 0.  1.
        -11    1    3    3    0    0 -0.26222430177E+02  0.12350559945E+02 -0.20295812239E+02  0.35384631834E+02  0.51100000000E-03 0. -1.
        -12    1    3    3    0    0 -0.65010169326E+01  0.19708811605E+01 -0.25068798949E+01  0.72409972044E+01  0.00000000000E+00 0.  1.
</event>
<event>
 7    1  0.2430096E-009  0.4778727E+02  0.7816164E-02  0.1312668E+00
        -11   -1    0    0    0    0  0.00000000000E+00  0.00000000000E+00  0.45593999997E+02  0.45594000000E+02  0.51100000000E-03 0. -1.
         11   -1    0    0    0    0 -0.00000000000E+00 -0.00000000000E+00 -0.45593999997E+02  0.45594000000E+02  0.51100000000E-03 0.  1.
    9900012    2    1    2    0    0 -0.28373990138E+02  0.16126304600E+02  0.28609128855E+02  0.47787271086E+02  0.20000000188E+02 0.  0.
        -12    1    1    2    0    0  0.28373990138E+02 -0.16126304600E+02 -0.28609128855E+02  0.43400728914E+02  0.00000000000E+00 0.  1.
         11    1    3    3    0    0 -0.40217327274E+01  0.24322023409E+01  0.45539685357E+01  0.65443542113E+01  0.51100000000E-03 0. -1.
        -11    1    3    3    0    0 -0.14485746612E+02  0.14494456573E+02  0.23709533079E+02  0.31337965559E+02  0.51100000000E-03 0.  1.
        -12    1    3    3    0    0 -0.98665107991E+01 -0.80035431389E+00  0.34562724008E+00  0.99049513156E+01  0.00000000000E+00 0.  1.
</event>
<event>
 7    1  0.2430096E-009  0.4778727E+02  0.7816164E-02  0.1312668E+00
        -11   -1    0    0    0    0  0.00000000000E+00  0.00000000000E+00  0.45593999997E+02  0.45594000000E+02  0.51100000000E-03 0.  1.
         11   -1    0    0    0    0 -0.00000000000E+00 -0.00000000000E+00 -0.45593999997E+02  0.45594000000E+02  0.51100000000E-03 0. -1.
    9900012    2    1    2    0    0  0.97985076401E+01 -0.14220575564E+02 -0.39816928659E+02  0.47787270408E+02  0.19999997096E+02 0.  0.
        -12    1    1    2    0    0 -0.97985076401E+01  0.14220575564E+02  0.39816928659E+02  0.43400729592E+02  0.00000000000E+00 0.  1.
         11    1    3    3    0    0  0.14526927864E+02 -0.90779712680E+01 -0.30573184113E+02  0.35045124948E+02  0.51100000000E-03 0. -1.
        -11    1    3    3    0    0 -0.18821036959E+01 -0.49261809250E+01 -0.35031658241E+01  0.63310144432E+01  0.51100000000E-03 0.  1.
         12    1    3    3    0    0 -0.28463165283E+01 -0.21642337071E+00 -0.57405787212E+01  0.64111310164E+01  0.00000000000E+00 0. -1.
</event>
<event>
 7    1  0.2430096E-009  0.4778727E+02  0.7816164E-02  0.1312668E+00
        -11   -1    0    0    0    0  0.00000000000E+00  0.00000000000E+00  0.45593999997E+02  0.45594000000E+02  0.51100000000E-03 0. -1.
         11   -1    0    0    0    0 -0.00000000000E+00 -0.00000000000E+00 -0.45593999997E+02  0.45594000000E+02  0.51100000000E-03 0.  1.
    9900012    2    1    2    0    0  0.27369220496E+02 -0.32226848816E+02  0.97968972676E+01  0.47787271766E+02  0.20000003290E+02 0.  0.
        -12    1    1    2    0    0 -0.27369220496E+02  0.32226848816E+02 -0.97968972676E+01  0.43400728234E+02  0.00000000000E+00 0.  1.
         11    1    3    3    0    0  0.28636343393E+01 -0.47024665589E+01  0.67845995427E+01  0.87375273724E+01  0.51100000000E-03 0. -1.
        -11    1    3    3    0    0  0.96158790381E+01 -0.17810941209E+02 -0.25994614660E+01  0.20407154545E+02  0.51100000000E-03 0.  1.
        -12    1    3    3    0    0  0.14889707119E+02 -0.97134410475E+01  0.56117591909E+01  0.18642589849E+02  0.00000000000E+00 0.  1.
</event>
<event>
 7    1  0.2430096E-009  0.4778728E+02  0.7816164E-02  0.1312668E+00
        -11   -1    0    0    0    0  0.00000000000E+00  0.00000000000E+00  0.45593999997E+02  0.45594000000E+02  0.51100000000E-03 0.  1.
         11   -1    0    0    0    0 -0.00000000000E+00 -0.00000000000E+00 -0.45593999997E+02  0.45594000000E+02  0.51100000000E-03 0. -1.
    9900012    2    1    2    0    0 -0.38304312491E+02 -0.19466804861E+02 -0.61192786220E+01  0.47787280907E+02  0.20000044969E+02 0.  0.
        -12    1    1    2    0    0  0.38304312491E+02  0.19466804861E+02  0.61192786220E+01  0.43400719093E+02  0.00000000000E+00 0.  1.
         11    1    3    3    0    0 -0.27301322656E+02 -0.67960491557E+01 -0.89308543618E+01  0.29517937983E+02  0.51100000000E-03 0. -1.
        -11    1    3    3    0    0 -0.64934496764E+00 -0.14535108628E+01  0.25449758679E+01  0.30018736057E+01  0.51100000000E-03 0.  1.
         12    1    3    3    0    0 -0.10353644868E+02 -0.11217244842E+02  0.26659987183E+00  0.15267469319E+02  0.00000000000E+00 0. -1.
</event>
<event>
 7    1  0.2430096E-009  0.4778727E+02  0.7816164E-02  0.1312668E+00
        -11   -1    0    0    0    0  0.00000000000E+00  0.00000000000E+00  0.45593999997E+02  0.45594000000E+02  0.51100000000E-03 0.  1.
         11   -1    0    0    0    0 -0.00000000000E+00 -0.00000000000E+00 -0.45593999997E+02  0.45594000000E+02  0.51100000000E-03 0. -1.
    9900012    2    1    2    0    0  0.46462825860E+01 -0.35887874726E+02 -0.23960298855E+02  0.47787269413E+02  0.19999992562E+02 0.  0.
        -12    1    1    2    0    0 -0.46462825860E+01  0.35887874726E+02  0.23960298855E+02  0.43400730587E+02  0.00000000000E+00 0.  1.
         11    1    3    3    0    0 -0.16854104787E+01 -0.56625881100E+01 -0.27749523846E+01  0.65273174875E+01  0.51100000000E-03 0. -1.
        -11    1    3    3    0    0  0.79888396195E+01 -0.26122671568E+02 -0.97606593045E+01  0.29008378076E+02  0.51100000000E-03 0.  1.
        -12    1    3    3    0    0 -0.16571465548E+01 -0.41026150487E+01 -0.11424687166E+02  0.12251573849E+02  0.00000000000E+00 0.  1.
</event>
<event>
 7    1  0.2430096E-009  0.4778727E+02  0.7816164E-02  0.1312668E+00
        -11   -1    0    0    0    0  0.00000000000E+00  0.00000000000E+00  0.45593999997E+02  0.45594000000E+02  0.51100000000E-03 0.  1.
         11   -1    0    0    0    0 -0.00000000000E+00 -0.00000000000E+00 -0.45593999997E+02  0.45594000000E+02  0.51100000000E-03 0. -1.
    9900012    2    1    2    0    0 -0.31129248845E+01  0.42962124205E+02 -0.53093083265E+01  0.47787272213E+02  0.20000005327E+02 0.  0.
        -12    1    1    2    0    0  0.31129248845E+01 -0.42962124205E+02  0.53093083265E+01  0.43400727787E+02  0.00000000000E+00 0.  1.
         11    1    3    3    0    0 -0.23269924423E+01  0.32705554330E+02 -0.70730001960E+01  0.33542443410E+02  0.51100000000E-03 0. -1.
        -11    1    3    3    0    0  0.29158048999E+01  0.55706101733E+01 -0.26458009256E+01  0.68215745041E+01  0.51100000000E-03 0.  1.
         12    1    3    3    0    0 -0.37017373421E+01  0.46859597015E+01  0.44094927951E+01  0.74232542988E+01  0.00000000000E+00 0. -1.
</event>
<event>
 7    1  0.2430096E-009  0.4778722E+02  0.7816164E-02  0.1312668E+00
        -11   -1    0    0    0    0  0.00000000000E+00  0.00000000000E+00  0.45593999997E+02  0.45594000000E+02  0.51100000000E-03 0. -1.
         11   -1    0    0    0    0 -0.00000000000E+00 -0.00000000000E+00 -0.45593999997E+02  0.45594000000E+02  0.51100000000E-03 0.  1.
    9900012    2    1    2    0    0 -0.30262777996E+01  0.20486413082E+02  0.38141527417E+02  0.47787221297E+02  0.19999773182E+02 0.  0.
        -12    1    1    2    0    0  0.30262777996E+01 -0.20486413082E+02 -0.38141527417E+02  0.43400778703E+02  0.00000000000E+00 0.  1.
         11    1    3    3    0    0 -0.61199307404E+01  0.76414242449E+01  0.30702425024E+02  0.32225515036E+02  0.51100000000E-03 0. -1.
        -11    1    3    3    0    0  0.10543393737E+01  0.34309899282E+01  0.35907146940E+00  0.36072504741E+01  0.51100000000E-03 0.  1.
         12    1    3    3    0    0  0.20393135671E+01  0.94139989089E+01  0.70800309240E+01  0.11954455787E+02  0.00000000000E+00 0. -1.
</event>
<event>
 7    1  0.2430096E-009  0.4778726E+02  0.7816164E-02  0.1312668E+00
        -11   -1    0    0    0    0  0.00000000000E+00  0.00000000000E+00  0.45593999997E+02  0.45594000000E+02  0.51100000000E-03 0.  1.
         11   -1    0    0    0    0 -0.00000000000E+00 -0.00000000000E+00 -0.45593999997E+02  0.45594000000E+02  0.51100000000E-03 0. -1.
    9900012    2    1    2    0    0 -0.97642422228E+01 -0.30865914939E+02 -0.28906387399E+02  0.47787258489E+02  0.19999942756E+02 0.  0.
        -12    1    1    2    0    0  0.97642422228E+01  0.30865914939E+02  0.28906387399E+02  0.43400741511E+02  0.00000000000E+00 0.  1.
         11    1    3    3    0    0 -0.23624351642E+01  0.15732479727E+01 -0.50633280658E+01  0.58046102756E+01  0.51100000000E-03 0. -1.
        -11    1    3    3    0    0 -0.71037108232E+01 -0.21337544425E+02 -0.20380040859E+02  0.30349622324E+02  0.51100000000E-03 0.  1.
        -12    1    3    3    0    0 -0.29809623536E+00 -0.11101618487E+02 -0.34630184745E+01  0.11633025890E+02  0.00000000000E+00 0.  1.
</event>
<event>
 7    1  0.2430096E-009  0.4778727E+02  0.7816164E-02  0.1312668E+00
        -11   -1    0    0    0    0  0.00000000000E+00  0.00000000000E+00  0.45593999997E+02  0.45594000000E+02  0.51100000000E-03 0. -1.
         11   -1    0    0    0    0 -0.00000000000E+00 -0.00000000000E+00 -0.45593999997E+02  0.45594000000E+02  0.51100000000E-03 0.  1.
    9900012    2    1    2    0    0 -0.21590061291E+02 -0.37297456949E+02 -0.51373867969E+01  0.47787265161E+02  0.19999973177E+02 0.  0.
        -12    1    1    2    0    0  0.21590061291E+02  0.37297456949E+02  0.51373867969E+01  0.43400734839E+02  0.00000000000E+00 0.  1.
         11    1    3    3    0    0 -0.93715000860E+01 -0.58459180306E+01 -0.14691137169E+01  0.11142623877E+02  0.51100000000E-03 0. -1.
        -11    1    3    3    0    0  0.23327872102E+01 -0.11631625865E+02 -0.80621141146E+00  0.11890609469E+02  0.51100000000E-03 0.  1.
        -12    1    3    3    0    0 -0.14551348416E+02 -0.19819913053E+02 -0.28620616685E+01  0.24754031816E+02  0.00000000000E+00 0.  1.
</event>
<event>
 7    1  0.2430096E-009  0.4778727E+02  0.7816164E-02  0.1312668E+00
        -11   -1    0    0    0    0  0.00000000000E+00  0.00000000000E+00  0.45593999997E+02  0.45594000000E+02  0.51100000000E-03 0. -1.
         11   -1    0    0    0    0 -0.00000000000E+00 -0.00000000000E+00 -0.45593999997E+02  0.45594000000E+02  0.51100000000E-03 0.  1.
    9900012    2    1    2    0    0 -0.40835216604E+02 -0.12693863924E+02 -0.74144501829E+01  0.47787272265E+02  0.20000005565E+02 0.  0.
        -12    1    1    2    0    0  0.40835216604E+02  0.12693863924E+02  0.74144501829E+01  0.43400727735E+02  0.00000000000E+00 0.  1.
         11    1    3    3    0    0 -0.86774310925E+01 -0.96474275269E+01 -0.26302119274E+01  0.13239663262E+02  0.51100000000E-03 0. -1.
        -11    1    3    3    0    0  0.47906177560E+00 -0.13130698966E+00  0.11455386203E+01  0.12485994963E+01  0.51100000000E-03 0.  1.
         12    1    3    3    0    0 -0.32636847287E+02 -0.29151294072E+01 -0.59297768758E+01  0.33299009506E+02  0.00000000000E+00 0. -1.
</event>
<event>
 7    1  0.2430096E-009  0.4778728E+02  0.7816164E-02  0.1312668E+00
        -11   -1    0    0    0    0  0.00000000000E+00  0.00000000000E+00  0.45593999997E+02  0.45594000000E+02  0.51100000000E-03 0.  1.
         11   -1    0    0    0    0 -0.00000000000E+00 -0.00000000000E+00 -0.45593999997E+02  0.45594000000E+02  0.51100000000E-03 0. -1.
    9900012    2    1    2    0    0 -0.14381586525E+02  0.26759745744E+02 -0.30995296412E+02  0.47787280848E+02  0.20000044696E+02 0.  0.
        -12    1    1    2    0    0  0.14381586525E+02 -0.26759745744E+02  0.30995296412E+02  0.43400719152E+02  0.00000000000E+00 0.  1.
         11    1    3    3    0    0 -0.71369403742E+01  0.23099505093E+02 -0.30238688216E+02  0.38715646950E+02  0.51100000000E-03 0. -1.
        -11    1    3    3    0    0 -0.67595880550E+01  0.39426147645E+01  0.34748581085E+00  0.78330701838E+01  0.51100000000E-03 0.  1.
        -12    1    3    3    0    0 -0.48505809598E+00 -0.28237411385E+00 -0.11040940075E+01  0.12385637141E+01  0.00000000000E+00 0.  1.
</event>
<event>
 7    1  0.2430096E-009  0.4778727E+02  0.7816164E-02  0.1312668E+00
        -11   -1    0    0    0    0  0.00000000000E+00  0.00000000000E+00  0.45593999997E+02  0.45594000000E+02  0.51100000000E-03 0. -1.
         11   -1    0    0    0    0 -0.00000000000E+00 -0.00000000000E+00 -0.45593999997E+02  0.45594000000E+02  0.51100000000E-03 0.  1.
    9900012    2    1    2    0    0  0.42228554208E+02 -0.51262372321E+01  0.86078006275E+01  0.47787270394E+02  0.19999997036E+02 0.  0.
        -12    1    1    2    0    0 -0.42228554208E+02  0.51262372321E+01 -0.86078006275E+01  0.43400729606E+02  0.00000000000E+00 0.  1.
         11    1    3    3    0    0  0.17581069912E+02 -0.25219222920E+01 -0.57520946087E+01  0.18669244869E+02  0.51100000000E-03 0. -1.
        -11    1    3    3    0    0  0.99566323773E+00 -0.11988671979E+01  0.14837103845E+01  0.21517491971E+01  0.51100000000E-03 0.  1.
         12    1    3    3    0    0  0.23651821058E+02 -0.14054477422E+01  0.12876184852E+02  0.26966276329E+02  0.00000000000E+00 0. -1.
</event>
<event>
 7    1  0.2430096E-009  0.4778728E+02  0.7816164E-02  0.1312668E+00
        -11   -1    0    0    0    0  0.00000000000E+00  0.00000000000E+00  0.45593999997E+02  0.45594000000E+02  0.51100000000E-03 0. -1.
         11   -1    0    0    0    0 -0.00000000000E+00 -0.00000000000E+00 -0.45593999997E+02  0.45594000000E+02  0.51100000000E-03 0.  1.
    9900012    2    1    2    0    0 -0.13623568589E+02  0.32277114819E+02  0.25616563065E+02  0.47787284967E+02  0.20000063476E+02 0.  0.
        -12    1    1    2    0    0  0.13623568589E+02 -0.32277114819E+02 -0.25616563065E+02  0.43400715033E+02  0.00000000000E+00 0.  1.
         11    1    3    3    0    0 -0.16046482554E+01  0.79753928018E+01  0.34657450801E+01  0.88426905174E+01  0.51100000000E-03 0. -1.
        -11    1    3    3    0    0 -0.14606313708E+02  0.15253619378E+02  0.94494268933E+01  0.23136745085E+02  0.51100000000E-03 0.  1.
        -12    1    3    3    0    0  0.25873933743E+01  0.90481026390E+01  0.12701391092E+02  0.15807849364E+02  0.00000000000E+00 0.  1.
</event>
<event>
 7    1  0.2430096E-009  0.4778727E+02  0.7816164E-02  0.1312668E+00
        -11   -1    0    0    0    0  0.00000000000E+00  0.00000000000E+00  0.45593999997E+02  0.45594000000E+02  0.51100000000E-03 0.  1.
         11   -1    0    0    0    0 -0.00000000000E+00 -0.00000000000E+00 -0.45593999997E+02  0.45594000000E+02  0.51100000000E-03 0. -1.
    9900012    2    1    2    0    0  0.18055896959E+02 -0.38658197771E+02 -0.79467849056E+01  0.47787273506E+02  0.20000011222E+02 0.  0.
        -12    1    1    2    0    0 -0.18055896959E+02  0.38658197771E+02  0.79467849056E+01  0.43400726494E+02  0.00000000000E+00 0.  1.
         11    1    3    3    0    0  0.74648009925E+01 -0.22721728498E+02  0.33159050764E+01  0.24145298228E+02  0.51100000000E-03 0. -1.
        -11    1    3    3    0    0 -0.15788564988E-01 -0.27484826392E+01  0.79567258082E+00  0.28613809976E+01  0.51100000000E-03 0.  1.
         12    1    3    3    0    0  0.10606884532E+02 -0.13187986633E+02 -0.12058362563E+02  0.20780594280E+02  0.00000000000E+00 0. -1.
</event>
<event>
 7    1  0.2430096E-009  0.4778727E+02  0.7816164E-02  0.1312668E+00
        -11   -1    0    0    0    0  0.00000000000E+00  0.00000000000E+00  0.45593999997E+02  0.45594000000E+02  0.51100000000E-03 0.  1.
         11   -1    0    0    0    0 -0.00000000000E+00 -0.00000000000E+00 -0.45593999997E+02  0.45594000000E+02  0.51100000000E-03 0. -1.
    9900012    2    1    2    0    0  0.30348698688E+02 -0.29520097638E+02  0.95469285978E+01  0.47787268183E+02  0.19999986955E+02 0.  0.
        -12    1    1    2    0    0 -0.30348698688E+02  0.29520097638E+02 -0.95469285978E+01  0.43400731817E+02  0.00000000000E+00 0.  1.
         11    1    3    3    0    0  0.17049684159E+02 -0.85071458748E+01  0.99679002408E+01  0.21504006518E+02  0.51100000000E-03 0. -1.
        -11    1    3    3    0    0  0.11096857377E+01 -0.13484720836E+01  0.24084411000E+01  0.29749568383E+01  0.51100000000E-03 0.  1.
         12    1    3    3    0    0  0.12189328791E+02 -0.19664479679E+02 -0.28294127430E+01  0.23308304827E+02  0.00000000000E+00 0. -1.
</event>
<event>
 7    1  0.2430096E-009  0.4778727E+02  0.7816164E-02  0.1312668E+00
        -11   -1    0    0    0    0  0.00000000000E+00  0.00000000000E+00  0.45593999997E+02  0.45594000000E+02  0.51100000000E-03 0.  1.
         11   -1    0    0    0    0 -0.00000000000E+00 -0.00000000000E+00 -0.45593999997E+02  0.45594000000E+02  0.51100000000E-03 0. -1.
    9900012    2    1    2    0    0  0.40129109611E+02  0.10431788963E+02 -0.12824023591E+02  0.47787271433E+02  0.20000001770E+02 0.  0.
        -12    1    1    2    0    0 -0.40129109611E+02 -0.10431788963E+02  0.12824023591E+02  0.43400728567E+02  0.00000000000E+00 0.  1.
         11    1    3    3    0    0  0.23956770760E+02  0.59806686497E+01  0.22205074942E+01  0.24791650137E+02  0.51100000000E-03 0. -1.
        -11    1    3    3    0    0  0.14716675859E+02  0.48051217640E+01 -0.11947773883E+02  0.19555537439E+02  0.51100000000E-03 0.  1.
         12    1    3    3    0    0  0.14556629922E+01 -0.35400145058E+00 -0.30967572022E+01  0.34400838571E+01  0.00000000000E+00 0. -1.
</event>
<event>
 7    1  0.2430096E-009  0.4778727E+02  0.7816164E-02  0.1312668E+00
        -11   -1    0    0    0    0  0.00000000000E+00  0.00000000000E+00  0.45593999997E+02  0.45594000000E+02  0.51100000000E-03 0.  1.
         11   -1    0    0    0    0 -0.00000000000E+00 -0.00000000000E+00 -0.45593999997E+02  0.45594000000E+02  0.51100000000E-03 0. -1.
    9900012    2    1    2    0    0 -0.34151118233E+02  0.18553970949E+02 -0.19315142215E+02  0.47787269207E+02  0.19999991624E+02 0.  0.
        -12    1    1    2    0    0  0.34151118233E+02 -0.18553970949E+02  0.19315142215E+02  0.43400730793E+02  0.00000000000E+00 0.  1.
         11    1    3    3    0    0 -0.77203911338E+01  0.12052528222E+02 -0.27163820729E+01  0.14568685858E+02  0.51100000000E-03 0. -1.
        -11    1    3    3    0    0 -0.13214320459E+02  0.28290001551E+01 -0.13610190134E+02  0.19179645013E+02  0.51100000000E-03 0.  1.
         12    1    3    3    0    0 -0.13216406641E+02  0.36724425720E+01 -0.29885700076E+01  0.14038938337E+02  0.00000000000E+00 0. -1.
</event>
<event>
 7    1  0.2430096E-009  0.4778728E+02  0.7816164E-02  0.1312668E+00
        -11   -1    0    0    0    0  0.00000000000E+00  0.00000000000E+00  0.45593999997E+02  0.45594000000E+02  0.51100000000E-03 0. -1.
         11   -1    0    0    0    0 -0.00000000000E+00 -0.00000000000E+00 -0.45593999997E+02  0.45594000000E+02  0.51100000000E-03 0.  1.
    9900012    2    1    2    0    0  0.40624482846E+02  0.55606456775E+01  0.14225097382E+02  0.47787276707E+02  0.20000025816E+02 0.  0.
        -12    1    1    2    0    0 -0.40624482846E+02 -0.55606456775E+01 -0.14225097382E+02  0.43400723293E+02  0.00000000000E+00 0.  1.
         11    1    3    3    0    0  0.32297424342E+02  0.35352605802E+01  0.14913514004E+02  0.35749609603E+02  0.51100000000E-03 0. -1.
        -11    1    3    3    0    0  0.47331350697E+01 -0.28178357676E+01 -0.20097571801E+01  0.58636072673E+01  0.51100000000E-03 0.  1.
         12    1    3    3    0    0  0.35939234339E+01  0.48432208650E+01  0.13213405581E+01  0.61740598366E+01  0.00000000000E+00 0. -1.
</event>
<event>
 7    1  0.3062917E-009  0.4778727E+02  0.7816164E-02  0.1312668E+00
        -11   -1    0    0    0    0  0.00000000000E+00  0.00000000000E+00  0.45593999997E+02  0.45594000000E+02  0.51100000000E-03 0. -1.
         11   -1    0    0    0    0 -0.00000000000E+00 -0.00000000000E+00 -0.45593999997E+02  0.45594000000E+02  0.51100000000E-03 0.  1.
    9900012    2    1    2    0    0 -0.12696421139E+02  0.33838509949E+02  0.24028718154E+02  0.47787272340E+02  0.20000005908E+02 0.  0.
        -12    1    1    2    0    0  0.12696421139E+02 -0.33838509949E+02 -0.24028718154E+02  0.43400727660E+02  0.00000000000E+00 0.  1.
         11    1    3    3    0    0 -0.37561663672E+01  0.86256541033E+01  0.64435500492E+01  0.11403071165E+02  0.51100000000E-03 0. -1.
        -11    1    3    3    0    0 -0.45240669697E+01  0.25002272513E+02  0.94188706458E+01  0.27097895439E+02  0.51100000000E-03 0.  1.
        -12    1    3    3    0    0 -0.44161878020E+01  0.21058333309E+00  0.81662974587E+01  0.92863057362E+01  0.00000000000E+00 0.  1.
</event>
<event>
 7    1  0.2430096E-009  0.4778728E+02  0.7816164E-02  0.1312668E+00
        -11   -1    0    0    0    0  0.00000000000E+00  0.00000000000E+00  0.45593999997E+02  0.45594000000E+02  0.51100000000E-03 0.  1.
         11   -1    0    0    0    0 -0.00000000000E+00 -0.00000000000E+00 -0.45593999997E+02  0.45594000000E+02  0.51100000000E-03 0. -1.
    9900012    2    1    2    0    0 -0.17387197039E+02  0.85735887794E+00 -0.39756420369E+02  0.47787278282E+02  0.20000032999E+02 0.  0.
        -12    1    1    2    0    0  0.17387197039E+02 -0.85735887794E+00  0.39756420369E+02  0.43400721718E+02  0.00000000000E+00 0.  1.
         11    1    3    3    0    0  0.22773844168E+01  0.37673937473E+01 -0.71845341178E+01  0.84259875492E+01  0.51100000000E-03 0. -1.
        -11    1    3    3    0    0 -0.11108073082E+02 -0.50112240321E+01 -0.12582618311E+02  0.17516390545E+02  0.51100000000E-03 0.  1.
         12    1    3    3    0    0 -0.85565083731E+01  0.21011891628E+01 -0.19989267940E+02  0.21844900187E+02  0.00000000000E+00 0. -1.
</event>
<event>
 7    1  0.2430096E-009  0.4778725E+02  0.7816164E-02  0.1312668E+00
        -11   -1    0    0    0    0  0.00000000000E+00  0.00000000000E+00  0.45593999997E+02  0.45594000000E+02  0.51100000000E-03 0. -1.
         11   -1    0    0    0    0 -0.00000000000E+00 -0.00000000000E+00 -0.45593999997E+02  0.45594000000E+02  0.51100000000E-03 0.  1.
    9900012    2    1    2    0    0  0.10306282345E+02  0.39873575781E+02 -0.13693203018E+02  0.47787247585E+02  0.19999893038E+02 0.  0.
        -12    1    1    2    0    0 -0.10306282345E+02 -0.39873575781E+02  0.13693203018E+02  0.43400752415E+02  0.00000000000E+00 0.  1.
         11    1    3    3    0    0 -0.34426527614E+01  0.13384066101E+02  0.93821501575E-01  0.13820053768E+02  0.51100000000E-03 0. -1.
        -11    1    3    3    0    0  0.40522081074E+01  0.54578437568E+01 -0.71719888748E+01  0.98815926702E+01  0.51100000000E-03 0.  1.
         12    1    3    3    0    0  0.96967269985E+01  0.21031665923E+02 -0.66150356443E+01  0.24085601146E+02  0.00000000000E+00 0. -1.
</event>
<event>
 7    1  0.2430096E-009  0.4778725E+02  0.7816164E-02  0.1312668E+00
        -11   -1    0    0    0    0  0.00000000000E+00  0.00000000000E+00  0.45593999997E+02  0.45594000000E+02  0.51100000000E-03 0. -1.
         11   -1    0    0    0    0 -0.00000000000E+00 -0.00000000000E+00 -0.45593999997E+02  0.45594000000E+02  0.51100000000E-03 0.  1.
    9900012    2    1    2    0    0  0.47098203450E+01 -0.42876988517E+02  0.47965165998E+01  0.47787249737E+02  0.19999902849E+02 0.  0.
        -12    1    1    2    0    0 -0.47098203450E+01  0.42876988517E+02 -0.47965165998E+01  0.43400750263E+02  0.00000000000E+00 0.  1.
         11    1    3    3    0    0  0.10563354340E+02 -0.23777383558E+02 -0.25881753806E+01  0.26146645594E+02  0.51100000000E-03 0. -1.
        -11    1    3    3    0    0 -0.28743265367E+01 -0.38561775551E+01  0.17010196193E+01  0.51015023652E+01  0.51100000000E-03 0.  1.
         12    1    3    3    0    0 -0.29792074581E+01 -0.15243427404E+02  0.56836723611E+01  0.16539101777E+02  0.00000000000E+00 0. -1.
</event>
<event>
 7    1  0.2430096E-009  0.4778729E+02  0.7816164E-02  0.1312668E+00
        -11   -1    0    0    0    0  0.00000000000E+00  0.00000000000E+00  0.45593999997E+02  0.45594000000E+02  0.51100000000E-03 0.  1.
         11   -1    0    0    0    0 -0.00000000000E+00 -0.00000000000E+00 -0.45593999997E+02  0.45594000000E+02  0.51100000000E-03 0. -1.
    9900012    2    1    2    0    0 -0.10666930938E+02 -0.13215795428E+02 -0.39939720304E+02  0.47787286615E+02  0.20000070991E+02 0.  0.
        -12    1    1    2    0    0  0.10666930938E+02  0.13215795428E+02  0.39939720304E+02  0.43400713385E+02  0.00000000000E+00 0.  1.
         11    1    3    3    0    0 -0.84922918927E+01 -0.55325856023E+01 -0.87207977001E+01  0.13370895177E+02  0.51100000000E-03 0. -1.
        -11    1    3    3    0    0 -0.24287879449E+01 -0.14178814763E+01 -0.26291605775E+02  0.26441594756E+02  0.51100000000E-03 0.  1.
         12    1    3    3    0    0  0.25414889942E+00 -0.62653283494E+01 -0.49273168285E+01  0.79747966819E+01  0.00000000000E+00 0. -1.
</event>
<event>
 7    1  0.2430096E-009  0.4778727E+02  0.7816164E-02  0.1312668E+00
        -11   -1    0    0    0    0  0.00000000000E+00  0.00000000000E+00  0.45593999997E+02  0.45594000000E+02  0.51100000000E-03 0. -1.
         11   -1    0    0    0    0 -0.00000000000E+00 -0.00000000000E+00 -0.45593999997E+02  0.45594000000E+02  0.51100000000E-03 0.  1.
    9900012    2    1    2    0    0  0.16047633289E+02 -0.78575245863E+01  0.39551939630E+02  0.47787272411E+02  0.20000006230E+02 0.  0.
        -12    1    1    2    0    0 -0.16047633289E+02  0.78575245863E+01 -0.39551939630E+02  0.43400727589E+02  0.00000000000E+00 0.  1.
         11    1    3    3    0    0  0.98516994998E+01 -0.76704372504E+01  0.18197922178E+02  0.22069344406E+02  0.51100000000E-03 0. -1.
        -11    1    3    3    0    0 -0.38568034161E+01 -0.13322244562E+01  0.46291209338E+01  0.61707791625E+01  0.51100000000E-03 0.  1.
        -12    1    3    3    0    0  0.10052737205E+02  0.11451371202E+01  0.16724896518E+02  0.19547148842E+02  0.00000000000E+00 0.  1.
</event>
<event>
 7    1  0.2430096E-009  0.4778727E+02  0.7816164E-02  0.1312668E+00
        -11   -1    0    0    0    0  0.00000000000E+00  0.00000000000E+00  0.45593999997E+02  0.45594000000E+02  0.51100000000E-03 0.  1.
         11   -1    0    0    0    0 -0.00000000000E+00 -0.00000000000E+00 -0.45593999997E+02  0.45594000000E+02  0.51100000000E-03 0. -1.
    9900012    2    1    2    0    0  0.15216348381E+02 -0.38035713806E+02 -0.14330749038E+02  0.47787272463E+02  0.20000006466E+02 0.  0.
        -12    1    1    2    0    0 -0.15216348381E+02  0.38035713806E+02  0.14330749038E+02  0.43400727537E+02  0.00000000000E+00 0.  1.
         11    1    3    3    0    0  0.53605980090E+01 -0.38265938164E+01 -0.90916931709E+01  0.11226652049E+02  0.51100000000E-03 0. -1.
        -11    1    3    3    0    0  0.99833787504E+00 -0.12193496575E+02  0.10928992736E+00  0.12234785727E+02  0.51100000000E-03 0.  1.
         12    1    3    3    0    0  0.88574124971E+01 -0.22015623415E+02 -0.53483457943E+01  0.24325834687E+02  0.00000000000E+00 0. -1.
</event>
<event>
 7    1  0.2430096E-009  0.4778727E+02  0.7816164E-02  0.1312668E+00
        -11   -1    0    0    0    0  0.00000000000E+00  0.00000000000E+00  0.45593999997E+02  0.45594000000E+02  0.51100000000E-03 0.  1.
         11   -1    0    0    0    0 -0.00000000000E+00 -0.00000000000E+00 -0.45593999997E+02  0.45594000000E+02  0.51100000000E-03 0. -1.
    9900012    2    1    2    0    0  0.37370198610E+02  0.14029455937E+02 -0.17037191911E+02  0.47787270902E+02  0.19999999350E+02 0.  0.
        -12    1    1    2    0    0 -0.37370198610E+02 -0.14029455937E+02  0.17037191911E+02  0.43400729098E+02  0.00000000000E+00 0.  1.
         11    1    3    3    0    0  0.24569042791E+02  0.10648149951E+02 -0.12931855252E+02  0.29736405996E+02  0.51100000000E-03 0. -1.
        -11    1    3    3    0    0  0.43753719923E+01  0.55904694384E+01  0.20450307290E+01  0.73877858358E+01  0.51100000000E-03 0.  1.
        -12    1    3    3    0    0  0.84257838273E+01 -0.22091634521E+01 -0.61503673873E+01  0.10663079070E+02  0.00000000000E+00 0.  1.
</event>
<event>
 7    1  0.2430096E-009  0.4778727E+02  0.7816164E-02  0.1312668E+00
        -11   -1    0    0    0    0  0.00000000000E+00  0.00000000000E+00  0.45593999997E+02  0.45594000000E+02  0.51100000000E-03 0.  1.
         11   -1    0    0    0    0 -0.00000000000E+00 -0.00000000000E+00 -0.45593999997E+02  0.45594000000E+02  0.51100000000E-03 0. -1.
    9900012    2    1    2    0    0 -0.21546894877E+01  0.43251471216E+02  0.28793858132E+01  0.47787270607E+02  0.19999998006E+02 0.  0.
        -12    1    1    2    0    0  0.21546894877E+01 -0.43251471216E+02 -0.28793858132E+01  0.43400729393E+02  0.00000000000E+00 0.  1.
         11    1    3    3    0    0  0.50743374968E+00  0.10228541798E+02 -0.30527898124E+01  0.10686443853E+02  0.51100000000E-03 0. -1.
        -11    1    3    3    0    0 -0.31494680848E+01  0.15626672319E+02  0.10524837253E+02  0.19101943264E+02  0.51100000000E-03 0.  1.
        -12    1    3    3    0    0  0.48734484745E+00  0.17396257099E+02 -0.45926616276E+01  0.17998883490E+02  0.00000000000E+00 0.  1.
</event>
<event>
 7    1  0.2430096E-009  0.4778724E+02  0.7816164E-02  0.1312668E+00
        -11   -1    0    0    0    0  0.00000000000E+00  0.00000000000E+00  0.45593999997E+02  0.45594000000E+02  0.51100000000E-03 0. -1.
         11   -1    0    0    0    0 -0.00000000000E+00 -0.00000000000E+00 -0.45593999997E+02  0.45594000000E+02  0.51100000000E-03 0.  1.
    9900012    2    1    2    0    0  0.23909721734E+02  0.33264718129E+02 -0.14332110517E+02  0.47787243585E+02  0.19999874799E+02 0.  0.
        -12    1    1    2    0    0 -0.23909721734E+02 -0.33264718129E+02  0.14332110517E+02  0.43400756415E+02  0.00000000000E+00 0.  1.
         11    1    3    3    0    0  0.14199249737E+02  0.66256859437E+01 -0.65296935678E+01  0.16975137869E+02  0.51100000000E-03 0. -1.
        -11    1    3    3    0    0  0.31910823053E+01  0.45107173610E+01 -0.52167542523E+01  0.75989540451E+01  0.51100000000E-03 0.  1.
         12    1    3    3    0    0  0.65193896911E+01  0.22128314824E+02 -0.25856626971E+01  0.23213151670E+02  0.00000000000E+00 0. -1.
</event>
<event>
 7    1  0.2430096E-009  0.4778727E+02  0.7816164E-02  0.1312668E+00
        -11   -1    0    0    0    0  0.00000000000E+00  0.00000000000E+00  0.45593999997E+02  0.45594000000E+02  0.51100000000E-03 0.  1.
         11   -1    0    0    0    0 -0.00000000000E+00 -0.00000000000E+00 -0.45593999997E+02  0.45594000000E+02  0.51100000000E-03 0. -1.
    9900012    2    1    2    0    0 -0.55452647453E+01 -0.23268031212E+00 -0.43044388400E+02  0.47787268739E+02  0.19999989489E+02 0.  0.
        -12    1    1    2    0    0  0.55452647453E+01  0.23268031212E+00  0.43044388400E+02  0.43400731261E+02  0.00000000000E+00 0.  1.
         11    1    3    3    0    0 -0.36425474807E+01 -0.86148109951E+00 -0.21886192803E+02  0.22203957699E+02  0.51100000000E-03 0. -1.
        -11    1    3    3    0    0  0.58210614325E+01 -0.39707904456E+00 -0.51615228802E+01  0.77899773217E+01  0.51100000000E-03 0.  1.
        -12    1    3    3    0    0 -0.77237786971E+01  0.10258798320E+01 -0.15996672717E+02  0.17793333718E+02  0.00000000000E+00 0.  1.
</event>
<event>
 7    1  0.2430096E-009  0.4778727E+02  0.7816164E-02  0.1312668E+00
        -11   -1    0    0    0    0  0.00000000000E+00  0.00000000000E+00  0.45593999997E+02  0.45594000000E+02  0.51100000000E-03 0.  1.
         11   -1    0    0    0    0 -0.00000000000E+00 -0.00000000000E+00 -0.45593999997E+02  0.45594000000E+02  0.51100000000E-03 0. -1.
    9900012    2    1    2    0    0 -0.20981653410E+02 -0.34211754463E+02 -0.16521183759E+02  0.47787269176E+02  0.19999991481E+02 0.  0.
        -12    1    1    2    0    0  0.20981653410E+02  0.34211754463E+02  0.16521183759E+02  0.43400730824E+02  0.00000000000E+00 0.  1.
         11    1    3    3    0    0 -0.22916760341E+02 -0.24014662099E+02 -0.15239401603E+02  0.36525624727E+02  0.51100000000E-03 0. -1.
        -11    1    3    3    0    0 -0.27558517803E+00 -0.23573005950E+01  0.13136114637E+01  0.27126349965E+01  0.51100000000E-03 0.  1.
         12    1    3    3    0    0  0.22106921081E+01 -0.78397917687E+01 -0.25953936196E+01  0.85490094522E+01  0.00000000000E+00 0. -1.
</event>
<event>
 7    1  0.2430096E-009  0.4778727E+02  0.7816164E-02  0.1312668E+00
        -11   -1    0    0    0    0  0.00000000000E+00  0.00000000000E+00  0.45593999997E+02  0.45594000000E+02  0.51100000000E-03 0. -1.
         11   -1    0    0    0    0 -0.00000000000E+00 -0.00000000000E+00 -0.45593999997E+02  0.45594000000E+02  0.51100000000E-03 0.  1.
    9900012    2    1    2    0    0  0.29819827981E+02  0.30588780970E+02  0.76634100401E+01  0.47787268261E+02  0.19999987309E+02 0.  0.
        -12    1    1    2    0    0 -0.29819827981E+02 -0.30588780970E+02 -0.76634100401E+01  0.43400731739E+02  0.00000000000E+00 0.  1.
         11    1    3    3    0    0  0.12770915028E+02  0.20689352719E+01 -0.33230388946E+00  0.12941684201E+02  0.51100000000E-03 0. -1.
        -11    1    3    3    0    0  0.48175922859E+01  0.12094453926E+02  0.57893007474E+01  0.14247842454E+02  0.51100000000E-03 0.  1.
         12    1    3    3    0    0  0.12231320666E+02  0.16425391773E+02  0.22064131822E+01  0.20597741606E+02  0.00000000000E+00 0. -1.
</event>
<event>
 7    1  0.2430096E-009  0.4778729E+02  0.7816164E-02  0.1312668E+00
        -11   -1    0    0    0    0  0.00000000000E+00  0.00000000000E+00  0.45593999997E+02  0.45594000000E+02  0.51100000000E-03 0.  1.
         11   -1    0    0    0    0 -0.00000000000E+00 -0.00000000000E+00 -0.45593999997E+02  0.45594000000E+02  0.51100000000E-03 0. -1.
    9900012    2    1    2    0    0  0.16625538191E+02  0.39091361514E+01 -0.39899024743E+02  0.47787285248E+02  0.20000064759E+02 0.  0.
        -12    1    1    2    0    0 -0.16625538191E+02 -0.39091361514E+01  0.39899024743E+02  0.43400714752E+02  0.00000000000E+00 0.  1.
         11    1    3    3    0    0  0.13179640035E+01  0.17658826434E+01 -0.12814578061E+01  0.25490203990E+01  0.51100000000E-03 0. -1.
        -11    1    3    3    0    0  0.14640203071E+02  0.86517972591E+01 -0.28579111889E+02  0.33255898400E+02  0.51100000000E-03 0.  1.
        -12    1    3    3    0    0  0.66737111574E+00 -0.65085437510E+01 -0.10038455048E+02  0.11982366449E+02  0.00000000000E+00 0.  1.
</event>
<event>
 7    1  0.2430096E-009  0.4778726E+02  0.7816164E-02  0.1312668E+00
        -11   -1    0    0    0    0  0.00000000000E+00  0.00000000000E+00  0.45593999997E+02  0.45594000000E+02  0.51100000000E-03 0. -1.
         11   -1    0    0    0    0 -0.00000000000E+00 -0.00000000000E+00 -0.45593999997E+02  0.45594000000E+02  0.51100000000E-03 0.  1.
    9900012    2    1    2    0    0  0.39018861338E+02 -0.18773077538E+02  0.29537191765E+01  0.47787257641E+02  0.19999938889E+02 0.  0.
        -12    1    1    2    0    0 -0.39018861338E+02  0.18773077538E+02 -0.29537191765E+01  0.43400742359E+02  0.00000000000E+00 0.  1.
         11    1    3    3    0    0  0.29323943431E+02 -0.10349371978E+02  0.55840216884E+01  0.31594057308E+02  0.51100000000E-03 0. -1.
        -11    1    3    3    0    0  0.60323137221E+01 -0.76247021293E+01 -0.57679888289E+01  0.11304626787E+02  0.51100000000E-03 0.  1.
        -12    1    3    3    0    0  0.36626041843E+01 -0.79900342981E+00  0.31376863170E+01  0.48885735461E+01  0.00000000000E+00 0.  1.
</event>
<event>
 7    1  0.2430096E-009  0.4778727E+02  0.7816164E-02  0.1312668E+00
        -11   -1    0    0    0    0  0.00000000000E+00  0.00000000000E+00  0.45593999997E+02  0.45594000000E+02  0.51100000000E-03 0.  1.
         11   -1    0    0    0    0 -0.00000000000E+00 -0.00000000000E+00 -0.45593999997E+02  0.45594000000E+02  0.51100000000E-03 0. -1.
    9900012    2    1    2    0    0 -0.41282550512E+02 -0.12743739599E+02  0.41196215361E+01  0.47787272387E+02  0.20000006122E+02 0.  0.
        -12    1    1    2    0    0  0.41282550512E+02  0.12743739599E+02 -0.41196215361E+01  0.43400727613E+02  0.00000000000E+00 0.  1.
         11    1    3    3    0    0 -0.15699853958E+02 -0.97457842658E+00 -0.46340354593E+01  0.16398460364E+02  0.51100000000E-03 0.  1.
        -11    1    3    3    0    0 -0.87112809252E+01 -0.97312497309E+01  0.26146450764E+01  0.13319910128E+02  0.51100000000E-03 0. -1.
         12    1    3    3    0    0 -0.16871415629E+02 -0.20379114410E+01  0.61390119189E+01  0.18068901895E+02  0.00000000000E+00 0. -1.
</event>
<event>
 7    1  0.2430096E-009  0.4778727E+02  0.7816164E-02  0.1312668E+00
        -11   -1    0    0    0    0  0.00000000000E+00  0.00000000000E+00  0.45593999997E+02  0.45594000000E+02  0.51100000000E-03 0. -1.
         11   -1    0    0    0    0 -0.00000000000E+00 -0.00000000000E+00 -0.45593999997E+02  0.45594000000E+02  0.51100000000E-03 0.  1.
    9900012    2    1    2    0    0  0.53909971338E+01  0.22542956986E+02  0.36692996942E+02  0.47787265164E+02  0.19999973187E+02 0.  0.
        -12    1    1    2    0    0 -0.53909971338E+01 -0.22542956986E+02 -0.36692996942E+02  0.43400734836E+02  0.00000000000E+00 0.  1.
         11    1    3    3    0    0  0.81076608534E+01  0.43540573381E+01  0.15068645588E+02  0.17656615189E+02  0.51100000000E-03 0. -1.
        -11    1    3    3    0    0  0.28500563949E+00  0.17932927502E+02  0.17884730242E+02  0.25328535155E+02  0.51100000000E-03 0.  1.
         12    1    3    3    0    0 -0.30016693591E+01  0.25597214606E+00  0.37396211113E+01  0.48021148193E+01  0.00000000000E+00 0. -1.
</event>
<event>
 7    1  0.2430096E-009  0.4778727E+02  0.7816164E-02  0.1312668E+00
        -11   -1    0    0    0    0  0.00000000000E+00  0.00000000000E+00  0.45593999997E+02  0.45594000000E+02  0.51100000000E-03 0. -1.
         11   -1    0    0    0    0 -0.00000000000E+00 -0.00000000000E+00 -0.45593999997E+02  0.45594000000E+02  0.51100000000E-03 0.  1.
    9900012    2    1    2    0    0  0.17960672798E+02 -0.37093182270E+02  0.13606373241E+02  0.47787270386E+02  0.19999996998E+02 0.  0.
        -12    1    1    2    0    0 -0.17960672798E+02  0.37093182270E+02 -0.13606373241E+02  0.43400729614E+02  0.00000000000E+00 0.  1.
         11    1    3    3    0    0  0.24677277361E+01 -0.76615136338E+01  0.11968454783E+02  0.14423327685E+02  0.51100000000E-03 0. -1.
        -11    1    3    3    0    0  0.11540951428E+02 -0.20088749915E+02  0.73659260006E+00  0.23179603144E+02  0.51100000000E-03 0.  1.
         12    1    3    3    0    0  0.39519936340E+01 -0.93429187207E+01  0.90132585766E+00  0.10184339557E+02  0.00000000000E+00 0. -1.
</event>
<event>
 7    1  0.2430096E-009  0.4778727E+02  0.7816164E-02  0.1312668E+00
        -11   -1    0    0    0    0  0.00000000000E+00  0.00000000000E+00  0.45593999997E+02  0.45594000000E+02  0.51100000000E-03 0. -1.
         11   -1    0    0    0    0 -0.00000000000E+00 -0.00000000000E+00 -0.45593999997E+02  0.45594000000E+02  0.51100000000E-03 0.  1.
    9900012    2    1    2    0    0  0.11487764937E+02  0.53193347354E+01  0.41513362170E+02  0.47787270698E+02  0.19999998420E+02 0.  0.
        -12    1    1    2    0    0 -0.11487764937E+02 -0.53193347354E+01 -0.41513362170E+02  0.43400729302E+02  0.00000000000E+00 0.  1.
         11    1    3    3    0    0  0.79228911000E+01  0.76508077289E+01  0.32346645432E+02  0.34170345817E+02  0.51100000000E-03 0. -1.
        -11    1    3    3    0    0  0.18776610689E+01  0.19955546084E+01 -0.59750636553E+00  0.28044363787E+01  0.51100000000E-03 0.  1.
         12    1    3    3    0    0  0.16872127678E+01 -0.43270276018E+01  0.97642231038E+01  0.10812488502E+02  0.00000000000E+00 0. -1.
</event>
<event>
 7    1  0.2430096E-009  0.4778727E+02  0.7816164E-02  0.1312668E+00
        -11   -1    0    0    0    0  0.00000000000E+00  0.00000000000E+00  0.45593999997E+02  0.45594000000E+02  0.51100000000E-03 0. -1.
         11   -1    0    0    0    0 -0.00000000000E+00 -0.00000000000E+00 -0.45593999997E+02  0.45594000000E+02  0.51100000000E-03 0.  1.
    9900012    2    1    2    0    0  0.30055575084E+00  0.43137560689E+02  0.47627766231E+01  0.47787268242E+02  0.19999987222E+02 0.  0.
        -12    1    1    2    0    0 -0.30055575084E+00 -0.43137560689E+02 -0.47627766231E+01  0.43400731758E+02  0.00000000000E+00 0.  1.
         11    1    3    3    0    0  0.42659160143E+01  0.88872004236E+01  0.37929160230E+01  0.10562508368E+02  0.51100000000E-03 0. -1.
        -11    1    3    3    0    0 -0.81862952793E+01  0.19030964116E+02  0.41126349722E+01  0.21121240311E+02  0.51100000000E-03 0.  1.
        -12    1    3    3    0    0  0.42209350158E+01  0.15219396150E+02 -0.31427743722E+01  0.16103519563E+02  0.00000000000E+00 0.  1.
</event>
<event>
 7    1  0.2430096E-009  0.4778727E+02  0.7816164E-02  0.1312668E+00
        -11   -1    0    0    0    0  0.00000000000E+00  0.00000000000E+00  0.45593999997E+02  0.45594000000E+02  0.51100000000E-03 0.  1.
         11   -1    0    0    0    0 -0.00000000000E+00 -0.00000000000E+00 -0.45593999997E+02  0.45594000000E+02  0.51100000000E-03 0. -1.
    9900012    2    1    2    0    0 -0.36277986862E+02  0.21697549477E+02 -0.98360185179E+01  0.47787271384E+02  0.20000001549E+02 0.  0.
        -12    1    1    2    0    0  0.36277986862E+02 -0.21697549477E+02  0.98360185179E+01  0.43400728616E+02  0.00000000000E+00 0.  1.
         11    1    3    3    0    0 -0.44482790494E+01  0.69296615167E+01 -0.45185104702E+01  0.93927808644E+01  0.51100000000E-03 0. -1.
        -11    1    3    3    0    0 -0.32416868897E+02  0.12646896400E+02 -0.25941830440E+01  0.34893081887E+02  0.51100000000E-03 0.  1.
        -12    1    3    3    0    0  0.58716108401E+00  0.21209915606E+01 -0.27233250036E+01  0.35014086328E+01  0.00000000000E+00 0.  1.
</event>
<event>
 7    1  0.2430096E-009  0.4778727E+02  0.7816164E-02  0.1312668E+00
        -11   -1    0    0    0    0  0.00000000000E+00  0.00000000000E+00  0.45593999997E+02  0.45594000000E+02  0.51100000000E-03 0.  1.
         11   -1    0    0    0    0 -0.00000000000E+00 -0.00000000000E+00 -0.45593999997E+02  0.45594000000E+02  0.51100000000E-03 0. -1.
    9900012    2    1    2    0    0  0.82992368734E+01 -0.35824236028E+02 -0.23051463274E+02  0.47787272141E+02  0.20000004999E+02 0.  0.
        -12    1    1    2    0    0 -0.82992368734E+01  0.35824236028E+02  0.23051463274E+02  0.43400727859E+02  0.00000000000E+00 0.  1.
         11    1    3    3    0    0  0.11307602067E+02 -0.16304436536E+02 -0.87302728598E+01  0.21677504001E+02  0.51100000000E-03 0. -1.
        -11    1    3    3    0    0 -0.62592859186E+01 -0.10268946335E+02 -0.79152420316E+01  0.14397255840E+02  0.51100000000E-03 0.  1.
        -12    1    3    3    0    0  0.32509207253E+01 -0.92508531568E+01 -0.64059483826E+01  0.11712512300E+02  0.00000000000E+00 0.  1.
</event>
<event>
 7    1  0.2430096E-009  0.4778727E+02  0.7816164E-02  0.1312668E+00
        -11   -1    0    0    0    0  0.00000000000E+00  0.00000000000E+00  0.45593999997E+02  0.45594000000E+02  0.51100000000E-03 0. -1.
         11   -1    0    0    0    0 -0.00000000000E+00 -0.00000000000E+00 -0.45593999997E+02  0.45594000000E+02  0.51100000000E-03 0.  1.
    9900012    2    1    2    0    0  0.38905704329E+02  0.18396024409E+02 -0.56174428003E+01  0.47787271815E+02  0.20000003514E+02 0.  0.
        -12    1    1    2    0    0 -0.38905704329E+02 -0.18396024409E+02  0.56174428003E+01  0.43400728185E+02  0.00000000000E+00 0.  1.
         11    1    3    3    0    0 -0.10449674140E+01 -0.14130828729E+01 -0.62603460269E+00  0.18656579769E+01  0.51100000000E-03 0. -1.
        -11    1    3    3    0    0  0.34300820623E+01 -0.10374701196E+01 -0.82387945434E-01  0.35844937213E+01  0.51100000000E-03 0.  1.
         12    1    3    3    0    0  0.36520589680E+02  0.20846577402E+02 -0.49090202522E+01  0.42337120117E+02  0.00000000000E+00 0. -1.
</event>
<event>
 7    1  0.2430096E-009  0.4778727E+02  0.7816164E-02  0.1312668E+00
        -11   -1    0    0    0    0  0.00000000000E+00  0.00000000000E+00  0.45593999997E+02  0.45594000000E+02  0.51100000000E-03 0. -1.
         11   -1    0    0    0    0 -0.00000000000E+00 -0.00000000000E+00 -0.45593999997E+02  0.45594000000E+02  0.51100000000E-03 0.  1.
    9900012    2    1    2    0    0 -0.12618402985E+02  0.34076209038E+02  0.23732067985E+02  0.47787272274E+02  0.20000005605E+02 0.  0.
        -12    1    1    2    0    0  0.12618402985E+02 -0.34076209038E+02 -0.23732067985E+02  0.43400727726E+02  0.00000000000E+00 0.  1.
         11    1    3    3    0    0 -0.12937672797E+02  0.13498559681E+02  0.96852025619E+01  0.21057009279E+02  0.51100000000E-03 0. -1.
        -11    1    3    3    0    0  0.38010522799E+01  0.54484000626E+01  0.70963418383E+01  0.97206547837E+01  0.51100000000E-03 0.  1.
         12    1    3    3    0    0 -0.34817824681E+01  0.15129249294E+02  0.69505235853E+01  0.17009608211E+02  0.00000000000E+00 0. -1.
</event>
<event>
 7    1  0.2430096E-009  0.4778727E+02  0.7816164E-02  0.1312668E+00
        -11   -1    0    0    0    0  0.00000000000E+00  0.00000000000E+00  0.45593999997E+02  0.45594000000E+02  0.51100000000E-03 0.  1.
         11   -1    0    0    0    0 -0.00000000000E+00 -0.00000000000E+00 -0.45593999997E+02  0.45594000000E+02  0.51100000000E-03 0. -1.
    9900012    2    1    2    0    0  0.96005538711E+00 -0.42217131456E+02 -0.10020760995E+02  0.47787267914E+02  0.19999985727E+02 0.  0.
        -12    1    1    2    0    0 -0.96005538711E+00  0.42217131456E+02  0.10020760995E+02  0.43400732086E+02  0.00000000000E+00 0.  1.
         11    1    3    3    0    0 -0.18963924986E+01 -0.13515406037E+02 -0.22979567030E+01  0.13839910047E+02  0.51100000000E-03 0. -1.
        -11    1    3    3    0    0 -0.18964335272E+01 -0.15139217729E+02 -0.11478924730E+02  0.19093404274E+02  0.51100000000E-03 0.  1.
        -12    1    3    3    0    0  0.47528814129E+01 -0.13562507690E+02  0.37561204382E+01  0.14853953592E+02  0.00000000000E+00 0.  1.
</event>
<event>
 7    1  0.2430096E-009  0.4778729E+02  0.7816164E-02  0.1312668E+00
        -11   -1    0    0    0    0  0.00000000000E+00  0.00000000000E+00  0.45593999997E+02  0.45594000000E+02  0.51100000000E-03 0. -1.
         11   -1    0    0    0    0 -0.00000000000E+00 -0.00000000000E+00 -0.45593999997E+02  0.45594000000E+02  0.51100000000E-03 0.  1.
    9900012    2    1    2    0    0  0.42820320215E+02  0.35644984474E+01  0.61103571895E+01  0.47787286440E+02  0.20000070196E+02 0.  0.
        -12    1    1    2    0    0 -0.42820320215E+02 -0.35644984474E+01 -0.61103571895E+01  0.43400713560E+02  0.00000000000E+00 0.  1.
         11    1    3    3    0    0  0.36276503412E+01  0.13651261546E+01  0.28580894874E+00  0.38865284551E+01  0.51100000000E-03 0. -1.
        -11    1    3    3    0    0  0.25527394561E+02  0.49152366130E+01 -0.47283298527E+01  0.26422803172E+02  0.51100000000E-03 0.  1.
        -12    1    3    3    0    0  0.13665275313E+02 -0.27158643202E+01  0.10552878094E+02  0.17477954813E+02  0.00000000000E+00 0.  1.
</event>
<event>
 7    1  0.2430096E-009  0.4778727E+02  0.7816164E-02  0.1312668E+00
        -11   -1    0    0    0    0  0.00000000000E+00  0.00000000000E+00  0.45593999997E+02  0.45594000000E+02  0.51100000000E-03 0.  1.
         11   -1    0    0    0    0 -0.00000000000E+00 -0.00000000000E+00 -0.45593999997E+02  0.45594000000E+02  0.51100000000E-03 0. -1.
    9900012    2    1    2    0    0 -0.76368336591E+01 -0.13576156207E+02 -0.40509134517E+02  0.47787271607E+02  0.20000002565E+02 0.  0.
        -12    1    1    2    0    0  0.76368336591E+01  0.13576156207E+02  0.40509134517E+02  0.43400728393E+02  0.00000000000E+00 0.  1.
         11    1    3    3    0    0 -0.48046999292E+01 -0.17138107407E+02 -0.36232169438E+02  0.40367932438E+02  0.51100000000E-03 0. -1.
        -11    1    3    3    0    0  0.97589480442E-01  0.28371121560E+01 -0.11197405233E+01  0.30516468002E+01  0.51100000000E-03 0.  1.
         12    1    3    3    0    0 -0.29297232104E+01  0.72483904385E+00 -0.31572245562E+01  0.43676923686E+01  0.00000000000E+00 0. -1.
</event>
<event>
 7    1  0.2430096E-009  0.4778727E+02  0.7816164E-02  0.1312668E+00
        -11   -1    0    0    0    0  0.00000000000E+00  0.00000000000E+00  0.45593999997E+02  0.45594000000E+02  0.51100000000E-03 0.  1.
         11   -1    0    0    0    0 -0.00000000000E+00 -0.00000000000E+00 -0.45593999997E+02  0.45594000000E+02  0.51100000000E-03 0. -1.
    9900012    2    1    2    0    0 -0.35880612739E+02 -0.16161198311E+00 -0.24416772659E+02  0.47787271020E+02  0.19999999888E+02 0.  0.
        -12    1    1    2    0    0  0.35880612739E+02  0.16161198311E+00  0.24416772659E+02  0.43400728980E+02  0.00000000000E+00 0.  1.
         11    1    3    3    0    0 -0.23125599163E+02  0.85986828259E+01 -0.11348218269E+02  0.27157185810E+02  0.51100000000E-03 0. -1.
        -11    1    3    3    0    0 -0.94577298786E+01 -0.70471709256E+01 -0.76441197247E+01  0.14055028963E+02  0.51100000000E-03 0.  1.
         12    1    3    3    0    0 -0.32972836971E+01 -0.17131238834E+01 -0.54244346646E+01  0.65750562469E+01  0.00000000000E+00 0. -1.
</event>
<event>
 7    1  0.2430096E-009  0.4778727E+02  0.7816164E-02  0.1312668E+00
        -11   -1    0    0    0    0  0.00000000000E+00  0.00000000000E+00  0.45593999997E+02  0.45594000000E+02  0.51100000000E-03 0. -1.
         11   -1    0    0    0    0 -0.00000000000E+00 -0.00000000000E+00 -0.45593999997E+02  0.45594000000E+02  0.51100000000E-03 0.  1.
    9900012    2    1    2    0    0 -0.38015523230E+02 -0.20926495899E+02 -0.72439420419E+00  0.47787274383E+02  0.20000015223E+02 0.  0.
        -12    1    1    2    0    0  0.38015523230E+02  0.20926495899E+02  0.72439420419E+00  0.43400725617E+02  0.00000000000E+00 0.  1.
         11    1    3    3    0    0 -0.32019685327E+02 -0.15458314499E+02  0.28635564087E+01  0.35670992293E+02  0.51100000000E-03 0. -1.
        -11    1    3    3    0    0 -0.67245261153E+01 -0.28101701220E+01 -0.51725931219E+01  0.89371151641E+01  0.51100000000E-03 0.  1.
         12    1    3    3    0    0  0.72868821176E+00 -0.26580112782E+01  0.15846425090E+01  0.31791669265E+01  0.00000000000E+00 0. -1.
</event>
<event>
 7    1  0.2430096E-009  0.4778727E+02  0.7816164E-02  0.1312668E+00
        -11   -1    0    0    0    0  0.00000000000E+00  0.00000000000E+00  0.45593999997E+02  0.45594000000E+02  0.51100000000E-03 0.  1.
         11   -1    0    0    0    0 -0.00000000000E+00 -0.00000000000E+00 -0.45593999997E+02  0.45594000000E+02  0.51100000000E-03 0. -1.
    9900012    2    1    2    0    0 -0.10905473462E+02  0.23361024141E+02 -0.34913556506E+02  0.47787271571E+02  0.20000002399E+02 0.  0.
        -12    1    1    2    0    0  0.10905473462E+02 -0.23361024141E+02  0.34913556506E+02  0.43400728429E+02  0.00000000000E+00 0.  1.
         11    1    3    3    0    0 -0.36774159997E+00  0.10862111729E+02 -0.23401132775E+02  0.25801816225E+02  0.51100000000E-03 0. -1.
        -11    1    3    3    0    0 -0.73001645536E+01  0.13491922598E+02 -0.95948392934E+01  0.18093792284E+02  0.51100000000E-03 0.  1.
        -12    1    3    3    0    0 -0.32375673085E+01 -0.99301018638E+00 -0.19175844373E+01  0.38916630612E+01  0.00000000000E+00 0.  1.
</event>
<event>
 7    1  0.2430096E-009  0.4778727E+02  0.7816164E-02  0.1312668E+00
        -11   -1    0    0    0    0  0.00000000000E+00  0.00000000000E+00  0.45593999997E+02  0.45594000000E+02  0.51100000000E-03 0. -1.
         11   -1    0    0    0    0 -0.00000000000E+00 -0.00000000000E+00 -0.45593999997E+02  0.45594000000E+02  0.51100000000E-03 0.  1.
    9900012    2    1    2    0    0 -0.25151617953E+02  0.33431713332E+01  0.35211399867E+02  0.47787270043E+02  0.19999995433E+02 0.  0.
        -12    1    1    2    0    0  0.25151617953E+02 -0.33431713332E+01 -0.35211399867E+02  0.43400729957E+02  0.00000000000E+00 0.  1.
         11    1    3    3    0    0 -0.15636556171E+02  0.51625453832E+01  0.11969856770E+02  0.20357584215E+02  0.51100000000E-03 0. -1.
        -11    1    3    3    0    0 -0.41071799816E+01  0.87217947484E+00  0.91090074601E+00  0.42964362986E+01  0.51100000000E-03 0.  1.
         12    1    3    3    0    0 -0.54078818000E+01 -0.26915535249E+01  0.22330642351E+02  0.23133249529E+02  0.00000000000E+00 0. -1.
</event>
<event>
 7    1  0.2430096E-009  0.4778727E+02  0.7816164E-02  0.1312668E+00
        -11   -1    0    0    0    0  0.00000000000E+00  0.00000000000E+00  0.45593999997E+02  0.45594000000E+02  0.51100000000E-03 0. -1.
         11   -1    0    0    0    0 -0.00000000000E+00 -0.00000000000E+00 -0.45593999997E+02  0.45594000000E+02  0.51100000000E-03 0.  1.
    9900012    2    1    2    0    0  0.44491563666E+01  0.29804800628E+02  0.31233035097E+02  0.47787267124E+02  0.19999982124E+02 0.  0.
        -12    1    1    2    0    0 -0.44491563666E+01 -0.29804800628E+02 -0.31233035097E+02  0.43400732876E+02  0.00000000000E+00 0.  1.
         11    1    3    3    0    0  0.45096685474E+01  0.89724181155E+01  0.19088640193E+02  0.21568903123E+02  0.51100000000E-03 0. -1.
        -11    1    3    3    0    0 -0.41286768691E+00  0.11566887852E+01 -0.17433672302E+01  0.21325379793E+01  0.51100000000E-03 0.  1.
         12    1    3    3    0    0  0.35235550609E+00  0.19675693727E+02  0.13887762134E+02  0.24085826021E+02  0.00000000000E+00 0. -1.
</event>
<event>
 7    1  0.2430096E-009  0.4778727E+02  0.7816164E-02  0.1312668E+00
        -11   -1    0    0    0    0  0.00000000000E+00  0.00000000000E+00  0.45593999997E+02  0.45594000000E+02  0.51100000000E-03 0. -1.
         11   -1    0    0    0    0 -0.00000000000E+00 -0.00000000000E+00 -0.45593999997E+02  0.45594000000E+02  0.51100000000E-03 0.  1.
    9900012    2    1    2    0    0  0.35808192277E+02 -0.19002541331E+02  0.15501614921E+02  0.47787271016E+02  0.19999999870E+02 0.  0.
        -12    1    1    2    0    0 -0.35808192277E+02  0.19002541331E+02 -0.15501614921E+02  0.43400728984E+02  0.00000000000E+00 0.  1.
         11    1    3    3    0    0  0.35398733150E+02 -0.19879707212E+02  0.16168538175E+02  0.43700053712E+02  0.51100000000E-03 0. -1.
        -11    1    3    3    0    0  0.47483142104E+00  0.21486631190E+01 -0.14095893590E+01  0.26132662512E+01  0.51100000000E-03 0.  1.
        -12    1    3    3    0    0 -0.65372293529E-01 -0.12714972376E+01  0.74266610502E+00  0.14739510526E+01  0.00000000000E+00 0.  1.
</event>
<event>
 7    1  0.2430096E-009  0.4778727E+02  0.7816164E-02  0.1312668E+00
        -11   -1    0    0    0    0  0.00000000000E+00  0.00000000000E+00  0.45593999997E+02  0.45594000000E+02  0.51100000000E-03 0.  1.
         11   -1    0    0    0    0 -0.00000000000E+00 -0.00000000000E+00 -0.45593999997E+02  0.45594000000E+02  0.51100000000E-03 0. -1.
    9900012    2    1    2    0    0 -0.30019368742E+02  0.23176462184E+02 -0.21102420031E+02  0.47787273852E+02  0.20000012800E+02 0.  0.
        -12    1    1    2    0    0  0.30019368742E+02 -0.23176462184E+02  0.21102420031E+02  0.43400726148E+02  0.00000000000E+00 0.  1.
         11    1    3    3    0    0 -0.62889046022E+01  0.24030852408E+01 -0.13041168634E+02  0.14676417116E+02  0.51100000000E-03 0. -1.
        -11    1    3    3    0    0 -0.23095567832E+02  0.21012272194E+02 -0.84259970378E+01  0.32340659588E+02  0.51100000000E-03 0.  1.
        -12    1    3    3    0    0 -0.63489630764E+00 -0.23889525150E+00  0.36474564125E+00  0.77019714714E+00  0.00000000000E+00 0.  1.
</event>
<event>
 7    1  0.2430096E-009  0.4778727E+02  0.7816164E-02  0.1312668E+00
        -11   -1    0    0    0    0  0.00000000000E+00  0.00000000000E+00  0.45593999997E+02  0.45594000000E+02  0.51100000000E-03 0.  1.
         11   -1    0    0    0    0 -0.00000000000E+00 -0.00000000000E+00 -0.45593999997E+02  0.45594000000E+02  0.51100000000E-03 0. -1.
    9900012    2    1    2    0    0 -0.49281195460E+01 -0.32047298926E+02 -0.28849741516E+02  0.47787270557E+02  0.19999997776E+02 0.  0.
        -12    1    1    2    0    0  0.49281195460E+01  0.32047298926E+02  0.28849741516E+02  0.43400729443E+02  0.00000000000E+00 0.  1.
         11    1    3    3    0    0  0.45816886517E+01 -0.12262399137E+02 -0.60189201423E+01  0.14407834793E+02  0.51100000000E-03 0. -1.
        -11    1    3    3    0    0 -0.11272716865E+02 -0.16340135220E+02 -0.15869450984E+02  0.25414831090E+02  0.51100000000E-03 0.  1.
        -12    1    3    3    0    0  0.17629086676E+01 -0.34447645689E+01 -0.69613703899E+01  0.79646046739E+01  0.00000000000E+00 0.  1.
</event>
<event>
 7    1  0.2430096E-009  0.4778727E+02  0.7816164E-02  0.1312668E+00
        -11   -1    0    0    0    0  0.00000000000E+00  0.00000000000E+00  0.45593999997E+02  0.45594000000E+02  0.51100000000E-03 0.  1.
         11   -1    0    0    0    0 -0.00000000000E+00 -0.00000000000E+00 -0.45593999997E+02  0.45594000000E+02  0.51100000000E-03 0. -1.
    9900012    2    1    2    0    0  0.32077710528E+02  0.28464952458E+02 -0.66626165393E+01  0.47787268551E+02  0.19999988632E+02 0.  0.
        -12    1    1    2    0    0 -0.32077710528E+02 -0.28464952458E+02  0.66626165393E+01  0.43400731449E+02  0.00000000000E+00 0.  1.
         11    1    3    3    0    0  0.12908076745E+02  0.17536528715E+02  0.20761710149E+01  0.21873700441E+02  0.51100000000E-03 0. -1.
        -11    1    3    3    0    0  0.19854751750E+02  0.11943899918E+02 -0.83247696756E+01  0.24620513860E+02  0.51100000000E-03 0.  1.
        -12    1    3    3    0    0 -0.68511796707E+00 -0.10154761750E+01 -0.41401787863E+00  0.12930542504E+01  0.00000000000E+00 0.  1.
</event>
<event>
 7    1  0.2430096E-009  0.4778727E+02  0.7816164E-02  0.1312668E+00
        -11   -1    0    0    0    0  0.00000000000E+00  0.00000000000E+00  0.45593999997E+02  0.45594000000E+02  0.51100000000E-03 0.  1.
         11   -1    0    0    0    0 -0.00000000000E+00 -0.00000000000E+00 -0.45593999997E+02  0.45594000000E+02  0.51100000000E-03 0. -1.
    9900012    2    1    2    0    0 -0.19613060757E+02  0.67012282953E+01 -0.38131937931E+02  0.47787270705E+02  0.19999998453E+02 0.  0.
        -12    1    1    2    0    0  0.19613060757E+02 -0.67012282953E+01  0.38131937931E+02  0.43400729295E+02  0.00000000000E+00 0.  1.
         11    1    3    3    0    0 -0.11673450949E+02  0.72005102594E+01 -0.22052899851E+02  0.25970121239E+02  0.51100000000E-03 0. -1.
        -11    1    3    3    0    0 -0.47415552775E+00 -0.48182937548E+01 -0.18594745834E+01  0.51863690728E+01  0.51100000000E-03 0.  1.
        -12    1    3    3    0    0 -0.74654542800E+01  0.43190117907E+01 -0.14219563497E+02  0.16630780394E+02  0.00000000000E+00 0.  1.
</event>
<event>
 7    1  0.2430096E-009  0.4778728E+02  0.7816164E-02  0.1312668E+00
        -11   -1    0    0    0    0  0.00000000000E+00  0.00000000000E+00  0.45593999997E+02  0.45594000000E+02  0.51100000000E-03 0.  1.
         11   -1    0    0    0    0 -0.00000000000E+00 -0.00000000000E+00 -0.45593999997E+02  0.45594000000E+02  0.51100000000E-03 0. -1.
    9900012    2    1    2    0    0 -0.68829422406E+01 -0.11234982587E+02 -0.41352426284E+02  0.47787275499E+02  0.20000020310E+02 0.  0.
        -12    1    1    2    0    0  0.68829422406E+01  0.11234982587E+02  0.41352426284E+02  0.43400724501E+02  0.00000000000E+00 0.  1.
         11    1    3    3    0    0 -0.35092858682E+01 -0.12084933550E+02 -0.23695353917E+02  0.26829657168E+02  0.51100000000E-03 0.  1.
        -11    1    3    3    0    0 -0.93891138415E+00  0.13209124201E+01 -0.18319300127E+02  0.18390843418E+02  0.51100000000E-03 0. -1.
        -12    1    3    3    0    0 -0.24347449883E+01 -0.47096145729E+00  0.66222775974E+00  0.25667749138E+01  0.00000000000E+00 0.  1.
</event>
<event>
 7    1  0.2430096E-009  0.4778728E+02  0.7816164E-02  0.1312668E+00
        -11   -1    0    0    0    0  0.00000000000E+00  0.00000000000E+00  0.45593999997E+02  0.45594000000E+02  0.51100000000E-03 0. -1.
         11   -1    0    0    0    0 -0.00000000000E+00 -0.00000000000E+00 -0.45593999997E+02  0.45594000000E+02  0.51100000000E-03 0.  1.
    9900012    2    1    2    0    0 -0.21634571137E+02 -0.33349660381E+01  0.37475940178E+02  0.47787276976E+02  0.20000027045E+02 0.  0.
        -12    1    1    2    0    0  0.21634571137E+02  0.33349660381E+01 -0.37475940178E+02  0.43400723024E+02  0.00000000000E+00 0.  1.
         11    1    3    3    0    0 -0.28343529608E+01 -0.17358317768E+01  0.20504073685E+02  0.20771704470E+02  0.51100000000E-03 0. -1.
        -11    1    3    3    0    0 -0.14245473886E+02 -0.51733310536E+01  0.13264547294E+02  0.20140632949E+02  0.51100000000E-03 0.  1.
        -12    1    3    3    0    0 -0.45547442904E+01  0.35741967922E+01  0.37073191996E+01  0.68749395567E+01  0.00000000000E+00 0.  1.
</event>
<event>
 7    1  0.2430096E-009  0.4778726E+02  0.7816164E-02  0.1312668E+00
        -11   -1    0    0    0    0  0.00000000000E+00  0.00000000000E+00  0.45593999997E+02  0.45594000000E+02  0.51100000000E-03 0.  1.
         11   -1    0    0    0    0 -0.00000000000E+00 -0.00000000000E+00 -0.45593999997E+02  0.45594000000E+02  0.51100000000E-03 0. -1.
    9900012    2    1    2    0    0  0.17375269062E+02  0.29381243599E+02 -0.26804224500E+02  0.47787263814E+02  0.19999967035E+02 0.  0.
        -12    1    1    2    0    0 -0.17375269062E+02 -0.29381243599E+02  0.26804224500E+02  0.43400736186E+02  0.00000000000E+00 0.  1.
         11    1    3    3    0    0  0.43048039456E+01  0.20458844205E+02 -0.23519402782E+02  0.31468364284E+02  0.51100000000E-03 0. -1.
        -11    1    3    3    0    0  0.60417142992E+01  0.44602084016E+01 -0.26717588448E+01  0.79708259450E+01  0.51100000000E-03 0.  1.
         12    1    3    3    0    0  0.70287508175E+01  0.44621909926E+01 -0.61306287327E+00  0.83480735859E+01  0.00000000000E+00 0. -1.
</event>
<event>
 7    1  0.2430096E-009  0.4778728E+02  0.7816164E-02  0.1312668E+00
        -11   -1    0    0    0    0  0.00000000000E+00  0.00000000000E+00  0.45593999997E+02  0.45594000000E+02  0.51100000000E-03 0.  1.
         11   -1    0    0    0    0 -0.00000000000E+00 -0.00000000000E+00 -0.45593999997E+02  0.45594000000E+02  0.51100000000E-03 0. -1.
    9900012    2    1    2    0    0  0.50163668275E+01 -0.15512382890E+02 -0.40222188253E+02  0.47787281262E+02  0.20000046587E+02 0.  0.
        -12    1    1    2    0    0 -0.50163668275E+01  0.15512382890E+02  0.40222188253E+02  0.43400718738E+02  0.00000000000E+00 0.  1.
         11    1    3    3    0    0  0.83225090232E+01 -0.99513989948E+01 -0.15436761765E+02  0.20164030164E+02  0.51100000000E-03 0. -1.
        -11    1    3    3    0    0 -0.16222549304E+01  0.29700050652E+00 -0.19458717739E+02  0.19528482190E+02  0.51100000000E-03 0.  1.
        -12    1    3    3    0    0 -0.16838872653E+01 -0.58579844021E+01 -0.53267087495E+01  0.80947689083E+01  0.00000000000E+00 0.  1.
</event>
<event>
 7    1  0.2430096E-009  0.4778726E+02  0.7816164E-02  0.1312668E+00
        -11   -1    0    0    0    0  0.00000000000E+00  0.00000000000E+00  0.45593999997E+02  0.45594000000E+02  0.51100000000E-03 0.  1.
         11   -1    0    0    0    0 -0.00000000000E+00 -0.00000000000E+00 -0.45593999997E+02  0.45594000000E+02  0.51100000000E-03 0. -1.
    9900012    2    1    2    0    0 -0.34980313750E+02 -0.20917822082E+02 -0.14914632649E+02  0.47787263857E+02  0.19999967231E+02 0.  0.
        -12    1    1    2    0    0  0.34980313750E+02  0.20917822082E+02  0.14914632649E+02  0.43400736143E+02  0.00000000000E+00 0.  1.
         11    1    3    3    0    0 -0.18083964500E+02 -0.20239398308E+02 -0.45992712826E+01  0.27528463679E+02  0.51100000000E-03 0. -1.
        -11    1    3    3    0    0 -0.41303758716E+01  0.23380173771E+00 -0.47601695513E+01  0.63066538285E+01  0.51100000000E-03 0.  1.
         12    1    3    3    0    0 -0.12765973378E+02 -0.91222551169E+00 -0.55551918151E+01  0.13952146350E+02  0.00000000000E+00 0. -1.
</event>
<event>
 7    1  0.2430096E-009  0.4778725E+02  0.7816164E-02  0.1312668E+00
        -11   -1    0    0    0    0  0.00000000000E+00  0.00000000000E+00  0.45593999997E+02  0.45594000000E+02  0.51100000000E-03 0.  1.
         11   -1    0    0    0    0 -0.00000000000E+00 -0.00000000000E+00 -0.45593999997E+02  0.45594000000E+02  0.51100000000E-03 0. -1.
    9900012    2    1    2    0    0  0.12585603207E+02 -0.17510248599E+02 -0.37664552274E+02  0.47787254476E+02  0.19999924456E+02 0.  0.
        -12    1    1    2    0    0 -0.12585603207E+02  0.17510248599E+02  0.37664552274E+02  0.43400745524E+02  0.00000000000E+00 0.  1.
         11    1    3    3    0    0  0.14989291011E+02 -0.83569622461E+01 -0.24360186019E+02  0.29798260455E+02  0.51100000000E-03 0. -1.
        -11    1    3    3    0    0 -0.44569962880E+01 -0.66728785671E+01 -0.60420301504E+01  0.10044812237E+02  0.51100000000E-03 0.  1.
        -12    1    3    3    0    0  0.20533084844E+01 -0.24804077863E+01 -0.72623361044E+01  0.79441817836E+01  0.00000000000E+00 0.  1.
</event>
<event>
 7    1  0.2430096E-009  0.4778727E+02  0.7816164E-02  0.1312668E+00
        -11   -1    0    0    0    0  0.00000000000E+00  0.00000000000E+00  0.45593999997E+02  0.45594000000E+02  0.51100000000E-03 0.  1.
         11   -1    0    0    0    0 -0.00000000000E+00 -0.00000000000E+00 -0.45593999997E+02  0.45594000000E+02  0.51100000000E-03 0. -1.
    9900012    2    1    2    0    0 -0.20764359114E+02 -0.31432550631E+02 -0.21551318078E+02  0.47787272362E+02  0.20000006007E+02 0.  0.
        -12    1    1    2    0    0  0.20764359114E+02  0.31432550631E+02  0.21551318078E+02  0.43400727638E+02  0.00000000000E+00 0.  1.
         11    1    3    3    0    0  0.31358015830E+01 -0.42898085533E+01 -0.23077903724E+01  0.57932379250E+01  0.51100000000E-03 0. -1.
        -11    1    3    3    0    0  0.58315494334E+00 -0.21088511874E+01 -0.19916755073E+01  0.29587319253E+01  0.51100000000E-03 0.  1.
         12    1    3    3    0    0 -0.24483315641E+02 -0.25033890891E+02 -0.17251852198E+02  0.39035302511E+02  0.00000000000E+00 0. -1.
</event>
<event>
 7    1  0.2430096E-009  0.4778727E+02  0.7816164E-02  0.1312668E+00
        -11   -1    0    0    0    0  0.00000000000E+00  0.00000000000E+00  0.45593999997E+02  0.45594000000E+02  0.51100000000E-03 0.  1.
         11   -1    0    0    0    0 -0.00000000000E+00 -0.00000000000E+00 -0.45593999997E+02  0.45594000000E+02  0.51100000000E-03 0. -1.
    9900012    2    1    2    0    0 -0.37843837022E+01  0.14296459658E+02 -0.40803342975E+02  0.47787272855E+02  0.20000008255E+02 0.  0.
        -12    1    1    2    0    0  0.37843837022E+01 -0.14296459658E+02  0.40803342975E+02  0.43400727145E+02  0.00000000000E+00 0.  1.
         11    1    3    3    0    0 -0.43439448701E+01  0.69052996804E+01 -0.11622944197E+02  0.14200206083E+02  0.51100000000E-03 0.  1.
        -11    1    3    3    0    0  0.56992915552E+01  0.73837446515E+01 -0.97694236153E+01  0.13507155413E+02  0.51100000000E-03 0. -1.
        -12    1    3    3    0    0 -0.51397303873E+01  0.74153261917E-02 -0.19410975163E+02  0.20079911360E+02  0.00000000000E+00 0.  1.
</event>
<event>
 7    1  0.2430096E-009  0.4778727E+02  0.7816164E-02  0.1312668E+00
        -11   -1    0    0    0    0  0.00000000000E+00  0.00000000000E+00  0.45593999997E+02  0.45594000000E+02  0.51100000000E-03 0. -1.
         11   -1    0    0    0    0 -0.00000000000E+00 -0.00000000000E+00 -0.45593999997E+02  0.45594000000E+02  0.51100000000E-03 0.  1.
    9900012    2    1    2    0    0  0.12726587380E+02  0.13392664813E+02 -0.39272052929E+02  0.47787266845E+02  0.19999980854E+02 0.  0.
        -12    1    1    2    0    0 -0.12726587380E+02 -0.13392664813E+02  0.39272052929E+02  0.43400733155E+02  0.00000000000E+00 0.  1.
         11    1    3    3    0    0 -0.33427352207E+01 -0.12526846268E+01 -0.18865849266E+01  0.40376107386E+01  0.51100000000E-03 0. -1.
        -11    1    3    3    0    0  0.12817021454E+02  0.87506887268E+01 -0.29860549170E+02  0.33652681753E+02  0.51100000000E-03 0.  1.
         12    1    3    3    0    0  0.32523011468E+01  0.58946607133E+01 -0.75249188318E+01  0.10096974354E+02  0.00000000000E+00 0. -1.
</event>
<event>
 7    1  0.2430096E-009  0.4778727E+02  0.7816164E-02  0.1312668E+00
        -11   -1    0    0    0    0  0.00000000000E+00  0.00000000000E+00  0.45593999997E+02  0.45594000000E+02  0.51100000000E-03 0.  1.
         11   -1    0    0    0    0 -0.00000000000E+00 -0.00000000000E+00 -0.45593999997E+02  0.45594000000E+02  0.51100000000E-03 0. -1.
    9900012    2    1    2    0    0  0.36124148449E+02  0.34309873342E+01 -0.23809610730E+02  0.47787270301E+02  0.19999996610E+02 0.  0.
        -12    1    1    2    0    0 -0.36124148449E+02 -0.34309873342E+01  0.23809610730E+02  0.43400729699E+02  0.00000000000E+00 0.  1.
         11    1    3    3    0    0 -0.17708025772E+01  0.12643028349E+01 -0.51393479419E+00  0.22356951178E+01  0.51100000000E-03 0. -1.
        -11    1    3    3    0    0  0.15497110338E+02 -0.21634742016E+01 -0.53852176335E+01  0.16548160582E+02  0.51100000000E-03 0.  1.
         12    1    3    3    0    0  0.22397840689E+02  0.43301587009E+01 -0.17910458302E+02  0.29003414601E+02  0.00000000000E+00 0. -1.
</event>
<event>
 7    1  0.2430096E-009  0.4778727E+02  0.7816164E-02  0.1312668E+00
        -11   -1    0    0    0    0  0.00000000000E+00  0.00000000000E+00  0.45593999997E+02  0.45594000000E+02  0.51100000000E-03 0. -1.
         11   -1    0    0    0    0 -0.00000000000E+00 -0.00000000000E+00 -0.45593999997E+02  0.45594000000E+02  0.51100000000E-03 0.  1.
    9900012    2    1    2    0    0  0.27396886491E+02  0.30484126090E+02 -0.14274175221E+02  0.47787269463E+02  0.19999992790E+02 0.  0.
        -12    1    1    2    0    0 -0.27396886491E+02 -0.30484126090E+02  0.14274175221E+02  0.43400730537E+02  0.00000000000E+00 0.  1.
         11    1    3    3    0    0  0.11275867722E+02  0.10164074984E+02 -0.10206490306E+02  0.18292787043E+02  0.51100000000E-03 0. -1.
        -11    1    3    3    0    0  0.14881564783E+02  0.19467243695E+02  0.68093536826E+00  0.24513225424E+02  0.51100000000E-03 0.  1.
        -12    1    3    3    0    0  0.12394539857E+01  0.85280741122E+00 -0.47486202834E+01  0.49812569959E+01  0.00000000000E+00 0.  1.
</event>
<event>
 7    1  0.2430096E-009  0.4778727E+02  0.7816164E-02  0.1312668E+00
        -11   -1    0    0    0    0  0.00000000000E+00  0.00000000000E+00  0.45593999997E+02  0.45594000000E+02  0.51100000000E-03 0.  1.
         11   -1    0    0    0    0 -0.00000000000E+00 -0.00000000000E+00 -0.45593999997E+02  0.45594000000E+02  0.51100000000E-03 0. -1.
    9900012    2    1    2    0    0 -0.91271015055E+01 -0.20511328491E+02 -0.37143030107E+02  0.47787271159E+02  0.20000000524E+02 0.  0.
        -12    1    1    2    0    0  0.91271015055E+01  0.20511328491E+02  0.37143030107E+02  0.43400728841E+02  0.00000000000E+00 0.  1.
         11    1    3    3    0    0 -0.10337302918E+02 -0.16616008032E+02 -0.19478920395E+02  0.27611227690E+02  0.51100000000E-03 0. -1.
        -11    1    3    3    0    0  0.35248358352E+01 -0.57563685079E+01 -0.12969910335E+02  0.14621177122E+02  0.51100000000E-03 0.  1.
        -12    1    3    3    0    0 -0.23146344232E+01  0.18610480486E+01 -0.46941993772E+01  0.55548663480E+01  0.00000000000E+00 0.  1.
</event>
<event>
 7    1  0.2430096E-009  0.4778727E+02  0.7816164E-02  0.1312668E+00
        -11   -1    0    0    0    0  0.00000000000E+00  0.00000000000E+00  0.45593999997E+02  0.45594000000E+02  0.51100000000E-03 0. -1.
         11   -1    0    0    0    0 -0.00000000000E+00 -0.00000000000E+00 -0.45593999997E+02  0.45594000000E+02  0.51100000000E-03 0.  1.
    9900012    2    1    2    0    0 -0.33808037462E+02  0.26139015237E+02 -0.75757235938E+01  0.47787273018E+02  0.20000008997E+02 0.  0.
        -12    1    1    2    0    0  0.33808037462E+02 -0.26139015237E+02  0.75757235938E+01  0.43400726982E+02  0.00000000000E+00 0.  1.
         11    1    3    3    0    0 -0.13377423013E+02  0.18472329056E+01  0.10145743367E+00  0.13504740269E+02  0.51100000000E-03 0. -1.
        -11    1    3    3    0    0 -0.85202106860E-01  0.57381331031E+01 -0.25250401496E+01  0.62697096365E+01  0.51100000000E-03 0.  1.
         12    1    3    3    0    0 -0.20345412343E+02  0.18553649228E+02 -0.51521408778E+01  0.28012823112E+02  0.00000000000E+00 0. -1.
</event>
<event>
 7    1  0.2430096E-009  0.4778727E+02  0.7816164E-02  0.1312668E+00
        -11   -1    0    0    0    0  0.00000000000E+00  0.00000000000E+00  0.45593999997E+02  0.45594000000E+02  0.51100000000E-03 0.  1.
         11   -1    0    0    0    0 -0.00000000000E+00 -0.00000000000E+00 -0.45593999997E+02  0.45594000000E+02  0.51100000000E-03 0. -1.
    9900012    2    1    2    0    0  0.91858803648E+01 -0.22871447530E+02 -0.35723097008E+02  0.47787272240E+02  0.20000005453E+02 0.  0.
        -12    1    1    2    0    0 -0.91858803648E+01  0.22871447530E+02  0.35723097008E+02  0.43400727760E+02  0.00000000000E+00 0.  1.
         11    1    3    3    0    0  0.14182167895E+01 -0.17797001257E+02 -0.26470147489E+02  0.31928252394E+02  0.51100000000E-03 0. -1.
        -11    1    3    3    0    0 -0.20012990190E+01 -0.97551835275E+00 -0.10561891992E+01  0.24642178689E+01  0.51100000000E-03 0.  1.
         12    1    3    3    0    0  0.97689625943E+01 -0.40989279209E+01 -0.81967603202E+01  0.13394801978E+02  0.00000000000E+00 0. -1.
</event>
<event>
 7    1  0.2430096E-009  0.4778727E+02  0.7816164E-02  0.1312668E+00
        -11   -1    0    0    0    0  0.00000000000E+00  0.00000000000E+00  0.45593999997E+02  0.45594000000E+02  0.51100000000E-03 0.  1.
         11   -1    0    0    0    0 -0.00000000000E+00 -0.00000000000E+00 -0.45593999997E+02  0.45594000000E+02  0.51100000000E-03 0. -1.
    9900012    2    1    2    0    0  0.43289367072E+02 -0.30178953573E+01  0.73894877650E+00  0.47787273748E+02  0.20000012327E+02 0.  0.
        -12    1    1    2    0    0 -0.43289367072E+02  0.30178953573E+01 -0.73894877650E+00  0.43400726252E+02  0.00000000000E+00 0.  1.
         11    1    3    3    0    0  0.39175232033E+02 -0.38024246754E+01  0.14694194846E+01  0.39386754527E+02  0.51100000000E-03 0. -1.
        -11    1    3    3    0    0 -0.14032592650E+00  0.31785569644E+01 -0.13943963585E+01  0.34737957924E+01  0.51100000000E-03 0.  1.
        -12    1    3    3    0    0  0.42544609656E+01 -0.23940276463E+01  0.66392565039E+00  0.49267234292E+01  0.00000000000E+00 0.  1.
</event>
<event>
 7    1  0.2430096E-009  0.4778727E+02  0.7816164E-02  0.1312668E+00
        -11   -1    0    0    0    0  0.00000000000E+00  0.00000000000E+00  0.45593999997E+02  0.45594000000E+02  0.51100000000E-03 0. -1.
         11   -1    0    0    0    0 -0.00000000000E+00 -0.00000000000E+00 -0.45593999997E+02  0.45594000000E+02  0.51100000000E-03 0.  1.
    9900012    2    1    2    0    0  0.91308221712E+01 -0.42423984921E+02 -0.67607288551E+00  0.47787268616E+02  0.19999988930E+02 0.  0.
        -12    1    1    2    0    0 -0.91308221712E+01  0.42423984921E+02  0.67607288551E+00  0.43400731384E+02  0.00000000000E+00 0.  1.
         11    1    3    3    0    0  0.10735188929E+02 -0.17387023764E+02  0.20206258362E+01  0.20533772321E+02  0.51100000000E-03 0. -1.
        -11    1    3    3    0    0  0.16167200985E+00 -0.82347772497E+01 -0.58032931612E+01  0.10075510209E+02  0.51100000000E-03 0.  1.
         12    1    3    3    0    0 -0.17660387674E+01 -0.16802183907E+02  0.31065944396E+01  0.17177986086E+02  0.00000000000E+00 0. -1.
</event>
<event>
 7    1  0.2430096E-009  0.4778727E+02  0.7816164E-02  0.1312668E+00
        -11   -1    0    0    0    0  0.00000000000E+00  0.00000000000E+00  0.45593999997E+02  0.45594000000E+02  0.51100000000E-03 0. -1.
         11   -1    0    0    0    0 -0.00000000000E+00 -0.00000000000E+00 -0.45593999997E+02  0.45594000000E+02  0.51100000000E-03 0.  1.
    9900012    2    1    2    0    0 -0.35210958409E+02  0.88448100297E+01  0.23781952974E+02  0.47787267935E+02  0.19999985823E+02 0.  0.
        -12    1    1    2    0    0  0.35210958409E+02 -0.88448100297E+01 -0.23781952974E+02  0.43400732065E+02  0.00000000000E+00 0.  1.
         11    1    3    3    0    0 -0.15166509295E+02  0.65555992687E+01  0.11448235925E+02  0.20101268418E+02  0.51100000000E-03 0. -1.
        -11    1    3    3    0    0 -0.80538414673E+01  0.67399364047E+01  0.10346615500E+02  0.14742576358E+02  0.51100000000E-03 0.  1.
        -12    1    3    3    0    0 -0.11990607646E+02 -0.44507256438E+01  0.19871015490E+01  0.12943423158E+02  0.00000000000E+00 0.  1.
</event>
<event>
 7    1  0.2430096E-009  0.4778726E+02  0.7816164E-02  0.1312668E+00
        -11   -1    0    0    0    0  0.00000000000E+00  0.00000000000E+00  0.45593999997E+02  0.45594000000E+02  0.51100000000E-03 0.  1.
         11   -1    0    0    0    0 -0.00000000000E+00 -0.00000000000E+00 -0.45593999997E+02  0.45594000000E+02  0.51100000000E-03 0. -1.
    9900012    2    1    2    0    0  0.10529717654E+02 -0.27190099562E+02 -0.32147286235E+02  0.47787257145E+02  0.19999936625E+02 0.  0.
        -12    1    1    2    0    0 -0.10529717654E+02  0.27190099562E+02  0.32147286235E+02  0.43400742855E+02  0.00000000000E+00 0.  1.
         11    1    3    3    0    0  0.26896966700E+01 -0.43785143079E+01 -0.10265306965E+02  0.11479650825E+02  0.51100000000E-03 0. -1.
        -11    1    3    3    0    0 -0.34215007783E+01 -0.12442158355E+02 -0.14174269352E+02  0.19168304151E+02  0.51100000000E-03 0.  1.
        -12    1    3    3    0    0  0.11261521763E+02 -0.10369426900E+02 -0.77077099186E+01  0.17139302169E+02  0.00000000000E+00 0.  1.
</event>
<event>
 7    1  0.2430096E-009  0.4778728E+02  0.7816164E-02  0.1312668E+00
        -11   -1    0    0    0    0  0.00000000000E+00  0.00000000000E+00  0.45593999997E+02  0.45594000000E+02  0.51100000000E-03 0.  1.
         11   -1    0    0    0    0 -0.00000000000E+00 -0.00000000000E+00 -0.45593999997E+02  0.45594000000E+02  0.51100000000E-03 0. -1.
    9900012    2    1    2    0    0  0.10050339632E+02 -0.40907738842E+02 -0.10448458831E+02  0.47787277474E+02  0.20000029313E+02 0.  0.
        -12    1    1    2    0    0 -0.10050339632E+02  0.40907738842E+02  0.10448458831E+02  0.43400722526E+02  0.00000000000E+00 0.  1.
         11    1    3    3    0    0 -0.25266938686E+01 -0.14418512445E+02 -0.73241650970E+01  0.16368294891E+02  0.51100000000E-03 0. -1.
        -11    1    3    3    0    0  0.43878044872E+01 -0.41011045209E+01  0.31309648192E+01  0.67730958556E+01  0.51100000000E-03 0.  1.
        -12    1    3    3    0    0  0.81892290130E+01 -0.22388121876E+02 -0.62552585536E+01  0.24645886727E+02  0.00000000000E+00 0.  1.
</event>
<event>
 7    1  0.2430096E-009  0.4778726E+02  0.7816164E-02  0.1312668E+00
        -11   -1    0    0    0    0  0.00000000000E+00  0.00000000000E+00  0.45593999997E+02  0.45594000000E+02  0.51100000000E-03 0.  1.
         11   -1    0    0    0    0 -0.00000000000E+00 -0.00000000000E+00 -0.45593999997E+02  0.45594000000E+02  0.51100000000E-03 0. -1.
    9900012    2    1    2    0    0  0.19076886223E+02  0.35952299943E+01 -0.38817143687E+02  0.47787263708E+02  0.19999966549E+02 0.  0.
        -12    1    1    2    0    0 -0.19076886223E+02 -0.35952299943E+01  0.38817143687E+02  0.43400736292E+02  0.00000000000E+00 0.  1.
         11    1    3    3    0    0  0.18541678272E+02  0.17124090011E+01 -0.39799407819E+02  0.43939948119E+02  0.51100000000E-03 0. -1.
        -11    1    3    3    0    0 -0.83854451810E+00  0.90105689317E+00  0.16267905685E+01  0.20399775117E+01  0.51100000000E-03 0.  1.
         12    1    3    3    0    0  0.13737524694E+01  0.98176410005E+00 -0.64452643655E+00  0.18073380765E+01  0.00000000000E+00 0. -1.
</event>
<event>
 7    1  0.2430096E-009  0.4778727E+02  0.7816164E-02  0.1312668E+00
        -11   -1    0    0    0    0  0.00000000000E+00  0.00000000000E+00  0.45593999997E+02  0.45594000000E+02  0.51100000000E-03 0.  1.
         11   -1    0    0    0    0 -0.00000000000E+00 -0.00000000000E+00 -0.45593999997E+02  0.45594000000E+02  0.51100000000E-03 0. -1.
    9900012    2    1    2    0    0  0.16602806812E+02 -0.40005515602E+02 -0.27438313140E+01  0.47787273245E+02  0.20000010032E+02 0.  0.
        -12    1    1    2    0    0 -0.16602806812E+02  0.40005515602E+02  0.27438313140E+01  0.43400726755E+02  0.00000000000E+00 0.  1.
         11    1    3    3    0    0  0.23186575836E+01 -0.14599589229E+01 -0.41214528038E+01  0.49491440191E+01  0.51100000000E-03 0. -1.
        -11    1    3    3    0    0  0.11225404101E+02 -0.35768027566E+02 -0.19415071764E+01  0.37538392928E+02  0.51100000000E-03 0.  1.
        -12    1    3    3    0    0  0.30587451270E+01 -0.27775291127E+01  0.33191286662E+01  0.52997362978E+01  0.00000000000E+00 0.  1.
</event>
<event>
 7    1  0.2430096E-009  0.4778727E+02  0.7816164E-02  0.1312668E+00
        -11   -1    0    0    0    0  0.00000000000E+00  0.00000000000E+00  0.45593999997E+02  0.45594000000E+02  0.51100000000E-03 0.  1.
         11   -1    0    0    0    0 -0.00000000000E+00 -0.00000000000E+00 -0.45593999997E+02  0.45594000000E+02  0.51100000000E-03 0. -1.
    9900012    2    1    2    0    0 -0.79278868851E+01  0.17583580788E+02 -0.38879162733E+02  0.47787274215E+02  0.20000014458E+02 0.  0.
        -12    1    1    2    0    0  0.79278868851E+01 -0.17583580788E+02  0.38879162733E+02  0.43400725785E+02  0.00000000000E+00 0.  1.
         11    1    3    3    0    0  0.16779510547E+01  0.24404392522E+01 -0.31632924909E+01  0.43333224123E+01  0.51100000000E-03 0. -1.
        -11    1    3    3    0    0  0.35743731378E+01  0.20796792606E+01 -0.12676462096E+01  0.43252903173E+01  0.51100000000E-03 0.  1.
        -12    1    3    3    0    0 -0.13180211078E+02  0.13063462275E+02 -0.34448224033E+02  0.39128661486E+02  0.00000000000E+00 0.  1.
</event>
<event>
 7    1  0.2430096E-009  0.4778727E+02  0.7816164E-02  0.1312668E+00
        -11   -1    0    0    0    0  0.00000000000E+00  0.00000000000E+00  0.45593999997E+02  0.45594000000E+02  0.51100000000E-03 0. -1.
         11   -1    0    0    0    0 -0.00000000000E+00 -0.00000000000E+00 -0.45593999997E+02  0.45594000000E+02  0.51100000000E-03 0.  1.
    9900012    2    1    2    0    0  0.11103473487E+02 -0.39469738301E+02  0.14229407316E+02  0.47787269619E+02  0.19999993501E+02 0.  0.
        -12    1    1    2    0    0 -0.11103473487E+02  0.39469738301E+02 -0.14229407316E+02  0.43400730381E+02  0.00000000000E+00 0.  1.
         11    1    3    3    0    0  0.77882719428E+00 -0.27817105295E+02  0.11123691395E+02  0.29968891026E+02  0.51100000000E-03 0. -1.
        -11    1    3    3    0    0  0.36515102237E+01 -0.55722089710E+01 -0.25856905225E+01  0.71462462503E+01  0.51100000000E-03 0.  1.
         12    1    3    3    0    0  0.66731360692E+01 -0.60804240351E+01  0.56914064430E+01  0.10672132343E+02  0.00000000000E+00 0. -1.
</event>
<event>
 7    1  0.2430096E-009  0.4778727E+02  0.7816164E-02  0.1312668E+00
        -11   -1    0    0    0    0  0.00000000000E+00  0.00000000000E+00  0.45593999997E+02  0.45594000000E+02  0.51100000000E-03 0.  1.
         11   -1    0    0    0    0 -0.00000000000E+00 -0.00000000000E+00 -0.45593999997E+02  0.45594000000E+02  0.51100000000E-03 0. -1.
    9900012    2    1    2    0    0  0.32796215023E+02 -0.16653743087E+02 -0.23036595687E+02  0.47787267063E+02  0.19999981845E+02 0.  0.
        -12    1    1    2    0    0 -0.32796215023E+02  0.16653743087E+02  0.23036595687E+02  0.43400732937E+02  0.00000000000E+00 0.  1.
         11    1    3    3    0    0  0.67090930447E+01 -0.33610117889E+01 -0.12874456918E+02  0.14901676782E+02  0.51100000000E-03 0. -1.
        -11    1    3    3    0    0  0.22253477663E+02 -0.65333393102E+01 -0.95785995517E+01  0.25092854765E+02  0.51100000000E-03 0.  1.
        -12    1    3    3    0    0  0.38336443151E+01 -0.67593919883E+01 -0.58353921757E+00  0.77927355148E+01  0.00000000000E+00 0.  1.
</event>
<event>
 7    1  0.2430096E-009  0.4778726E+02  0.7816164E-02  0.1312668E+00
        -11   -1    0    0    0    0  0.00000000000E+00  0.00000000000E+00  0.45593999997E+02  0.45594000000E+02  0.51100000000E-03 0.  1.
         11   -1    0    0    0    0 -0.00000000000E+00 -0.00000000000E+00 -0.45593999997E+02  0.45594000000E+02  0.51100000000E-03 0. -1.
    9900012    2    1    2    0    0 -0.35612528024E+02 -0.95326295184E+01 -0.22901979662E+02  0.47787264404E+02  0.19999969724E+02 0.  0.
        -12    1    1    2    0    0  0.35612528024E+02  0.95326295184E+01  0.22901979662E+02  0.43400735596E+02  0.00000000000E+00 0.  1.
         11    1    3    3    0    0 -0.18563538453E+02 -0.30806853832E+01 -0.58233094081E+00  0.18826435986E+02  0.51100000000E-03 0. -1.
        -11    1    3    3    0    0 -0.14971959362E+02 -0.45905116816E+01 -0.18690659121E+02  0.24383869736E+02  0.51100000000E-03 0.  1.
         12    1    3    3    0    0 -0.20770302090E+01 -0.18614324535E+01 -0.36289895996E+01  0.45769586826E+01  0.00000000000E+00 0. -1.
</event>
<event>
 7    1  0.2430096E-009  0.4778727E+02  0.7816164E-02  0.1312668E+00
        -11   -1    0    0    0    0  0.00000000000E+00  0.00000000000E+00  0.45593999997E+02  0.45594000000E+02  0.51100000000E-03 0.  1.
         11   -1    0    0    0    0 -0.00000000000E+00 -0.00000000000E+00 -0.45593999997E+02  0.45594000000E+02  0.51100000000E-03 0. -1.
    9900012    2    1    2    0    0  0.39285183638E+01 -0.61824439126E+01 -0.42778119908E+02  0.47787269451E+02  0.19999992737E+02 0.  0.
        -12    1    1    2    0    0 -0.39285183638E+01  0.61824439126E+01  0.42778119908E+02  0.43400730549E+02  0.00000000000E+00 0.  1.
         11    1    3    3    0    0  0.54874870427E+01 -0.79457120883E+01 -0.35913518626E+02  0.37189080051E+02  0.51100000000E-03 0. -1.
        -11    1    3    3    0    0 -0.32957388501E+01  0.34804120645E+01 -0.20775759440E+01  0.52241252638E+01  0.51100000000E-03 0.  1.
        -12    1    3    3    0    0  0.17367701712E+01 -0.17171438888E+01 -0.47870253378E+01  0.53740641369E+01  0.00000000000E+00 0.  1.
</event>
<event>
 7    1  0.2430096E-009  0.4778727E+02  0.7816164E-02  0.1312668E+00
        -11   -1    0    0    0    0  0.00000000000E+00  0.00000000000E+00  0.45593999997E+02  0.45594000000E+02  0.51100000000E-03 0.  1.
         11   -1    0    0    0    0 -0.00000000000E+00 -0.00000000000E+00 -0.45593999997E+02  0.45594000000E+02  0.51100000000E-03 0. -1.
    9900012    2    1    2    0    0  0.42608956086E+02  0.71366759018E+01 -0.41434276258E+01  0.47787271041E+02  0.19999999985E+02 0.  0.
        -12    1    1    2    0    0 -0.42608956086E+02 -0.71366759018E+01  0.41434276258E+01  0.43400728959E+02  0.00000000000E+00 0.  1.
         11    1    3    3    0    0  0.25338535798E+02  0.86234438580E+01  0.13983994379E+01  0.26802251801E+02  0.51100000000E-03 0. -1.
        -11    1    3    3    0    0  0.13525362772E+02 -0.42835525133E+01 -0.73439232755E+01  0.15975527209E+02  0.51100000000E-03 0.  1.
        -12    1    3    3    0    0  0.37450575159E+01  0.27967845571E+01  0.18020962118E+01  0.50094920314E+01  0.00000000000E+00 0.  1.
</event>
<event>
 7    1  0.2430096E-009  0.4778727E+02  0.7816164E-02  0.1312668E+00
        -11   -1    0    0    0    0  0.00000000000E+00  0.00000000000E+00  0.45593999997E+02  0.45594000000E+02  0.51100000000E-03 0.  1.
         11   -1    0    0    0    0 -0.00000000000E+00 -0.00000000000E+00 -0.45593999997E+02  0.45594000000E+02  0.51100000000E-03 0. -1.
    9900012    2    1    2    0    0 -0.27205693449E+01 -0.36366644037E+02 -0.23530596133E+02  0.47787271314E+02  0.20000001230E+02 0.  0.
        -12    1    1    2    0    0  0.27205693449E+01  0.36366644037E+02  0.23530596133E+02  0.43400728686E+02  0.00000000000E+00 0.  1.
         11    1    3    3    0    0  0.20065375436E+01 -0.22112816745E+02 -0.39153721075E+01  0.22546241290E+02  0.51100000000E-03 0. -1.
        -11    1    3    3    0    0 -0.30312531427E+01 -0.13144108921E+02 -0.18594101186E+02  0.22971649791E+02  0.51100000000E-03 0.  1.
         12    1    3    3    0    0 -0.16958537458E+01 -0.11097183711E+01 -0.10211228394E+01  0.22693802333E+01  0.00000000000E+00 0. -1.
</event>
<event>
 7    1  0.2430096E-009  0.4778727E+02  0.7816164E-02  0.1312668E+00
        -11   -1    0    0    0    0  0.00000000000E+00  0.00000000000E+00  0.45593999997E+02  0.45594000000E+02  0.51100000000E-03 0.  1.
         11   -1    0    0    0    0 -0.00000000000E+00 -0.00000000000E+00 -0.45593999997E+02  0.45594000000E+02  0.51100000000E-03 0. -1.
    9900012    2    1    2    0    0  0.39579666637E+02  0.11635119664E+02 -0.13479504211E+02  0.47787273572E+02  0.20000011524E+02 0.  0.
        -12    1    1    2    0    0 -0.39579666637E+02 -0.11635119664E+02  0.13479504211E+02  0.43400726428E+02  0.00000000000E+00 0.  1.
         11    1    3    3    0    0  0.77490206612E+01  0.30638352983E+01 -0.43409117008E+01  0.93956331664E+01  0.51100000000E-03 0. -1.
        -11    1    3    3    0    0  0.10645637968E+02 -0.15333905022E+01 -0.10299323198E+02  0.14891506061E+02  0.51100000000E-03 0.  1.
        -12    1    3    3    0    0  0.21185008007E+02  0.10104674868E+02  0.11607306876E+01  0.23500134344E+02  0.00000000000E+00 0.  1.
</event>
<event>
 7    1  0.2430096E-009  0.4778727E+02  0.7816164E-02  0.1312668E+00
        -11   -1    0    0    0    0  0.00000000000E+00  0.00000000000E+00  0.45593999997E+02  0.45594000000E+02  0.51100000000E-03 0.  1.
         11   -1    0    0    0    0 -0.00000000000E+00 -0.00000000000E+00 -0.45593999997E+02  0.45594000000E+02  0.51100000000E-03 0. -1.
    9900012    2    1    2    0    0  0.40800966044E+02  0.41632343111E+01  0.14197614228E+02  0.47787267289E+02  0.19999982878E+02 0.  0.
        -12    1    1    2    0    0 -0.40800966044E+02 -0.41632343111E+01 -0.14197614228E+02  0.43400732711E+02  0.00000000000E+00 0.  1.
         11    1    3    3    0    0  0.52304597414E+01  0.76429430140E+01  0.46736279070E+01  0.10373769088E+02  0.51100000000E-03 0. -1.
        -11    1    3    3    0    0  0.25837366476E+01 -0.62346813438E+00 -0.72201810194E+00  0.27542182156E+01  0.51100000000E-03 0.  1.
         12    1    3    3    0    0  0.32986769655E+02 -0.28562405685E+01  0.10246004423E+02  0.34659279985E+02  0.00000000000E+00 0. -1.
</event>
<event>
 7    1  0.2430096E-009  0.4778728E+02  0.7816164E-02  0.1312668E+00
        -11   -1    0    0    0    0  0.00000000000E+00  0.00000000000E+00  0.45593999997E+02  0.45594000000E+02  0.51100000000E-03 0.  1.
         11   -1    0    0    0    0 -0.00000000000E+00 -0.00000000000E+00 -0.45593999997E+02  0.45594000000E+02  0.51100000000E-03 0. -1.
    9900012    2    1    2    0    0 -0.20118914837E+02 -0.18609786497E+01 -0.38410790585E+02  0.47787276398E+02  0.20000024411E+02 0.  0.
        -12    1    1    2    0    0  0.20118914837E+02  0.18609786497E+01  0.38410790585E+02  0.43400723602E+02  0.00000000000E+00 0.  1.
         11    1    3    3    0    0  0.13048135649E+01 -0.18747389657E+01 -0.13174150397E+02  0.13370692711E+02  0.51100000000E-03 0. -1.
        -11    1    3    3    0    0 -0.15219211176E+02 -0.97521980724E+00 -0.10845177127E+02  0.18713452639E+02  0.51100000000E-03 0.  1.
        -12    1    3    3    0    0 -0.62045172264E+01  0.98898012319E+00 -0.14391463061E+02  0.15703131049E+02  0.00000000000E+00 0.  1.
</event>
<event>
 7    1  0.2430096E-009  0.4778724E+02  0.7816164E-02  0.1312668E+00
        -11   -1    0    0    0    0  0.00000000000E+00  0.00000000000E+00  0.45593999997E+02  0.45594000000E+02  0.51100000000E-03 0.  1.
         11   -1    0    0    0    0 -0.00000000000E+00 -0.00000000000E+00 -0.45593999997E+02  0.45594000000E+02  0.51100000000E-03 0. -1.
    9900012    2    1    2    0    0 -0.12272128076E+02  0.13243565156E+01 -0.41608500287E+02  0.47787235677E+02  0.19999838746E+02 0.  0.
        -12    1    1    2    0    0  0.12272128076E+02 -0.13243565156E+01  0.41608500287E+02  0.43400764323E+02  0.00000000000E+00 0.  1.
         11    1    3    3    0    0  0.31288065154E+01  0.16400487646E+01 -0.62113112809E+01  0.71455985229E+01  0.51100000000E-03 0. -1.
        -11    1    3    3    0    0  0.22114417015E+01  0.39470359669E+00 -0.28609597881E+01  0.36374931613E+01  0.51100000000E-03 0.  1.
         12    1    3    3    0    0 -0.17612376293E+02 -0.71039584565E+00 -0.32536229218E+02  0.37004143993E+02  0.00000000000E+00 0. -1.
</event>
<event>
 7    1  0.2958749E-009  0.4778727E+02  0.7816164E-02  0.1312668E+00
        -11   -1    0    0    0    0  0.00000000000E+00  0.00000000000E+00  0.45593999997E+02  0.45594000000E+02  0.51100000000E-03 0. -1.
         11   -1    0    0    0    0 -0.00000000000E+00 -0.00000000000E+00 -0.45593999997E+02  0.45594000000E+02  0.51100000000E-03 0.  1.
    9900012    2    1    2    0    0 -0.89959726019E+00 -0.26726645759E+02  0.34183336314E+02  0.47787270164E+02  0.19999995986E+02 0.  0.
        -12    1    1    2    0    0  0.89959726019E+00  0.26726645759E+02 -0.34183336314E+02  0.43400729836E+02  0.00000000000E+00 0.  1.
         11    1    3    3    0    0  0.12615513351E+01 -0.79048832337E+01  0.94249085632E+01  0.12365580957E+02  0.51100000000E-03 0. -1.
        -11    1    3    3    0    0 -0.32326079991E+01 -0.19137354256E+02  0.26802867659E+02  0.33092020147E+02  0.51100000000E-03 0.  1.
        -12    1    3    3    0    0  0.10714594039E+01  0.31559173048E+00 -0.20444399084E+01  0.23296690609E+01  0.00000000000E+00 0.  1.
</event>
<event>
 7    1  0.2430096E-009  0.4778728E+02  0.7816164E-02  0.1312668E+00
        -11   -1    0    0    0    0  0.00000000000E+00  0.00000000000E+00  0.45593999997E+02  0.45594000000E+02  0.51100000000E-03 0. -1.
         11   -1    0    0    0    0 -0.00000000000E+00 -0.00000000000E+00 -0.45593999997E+02  0.45594000000E+02  0.51100000000E-03 0.  1.
    9900012    2    1    2    0    0 -0.26741754286E+02 -0.33360889092E+02 -0.74533067736E+01  0.47787284278E+02  0.20000060336E+02 0.  0.
        -12    1    1    2    0    0  0.26741754286E+02  0.33360889092E+02  0.74533067736E+01  0.43400715722E+02  0.00000000000E+00 0.  1.
         11    1    3    3    0    0 -0.12219481993E+02 -0.24579603952E+02  0.10487922931E+01  0.27469485546E+02  0.51100000000E-03 0. -1.
        -11    1    3    3    0    0 -0.87258752777E+01 -0.15477363978E+01 -0.60475099504E+01  0.10728875252E+02  0.51100000000E-03 0.  1.
        -12    1    3    3    0    0 -0.57963970154E+01 -0.72335487428E+01 -0.24545891163E+01  0.95889234800E+01  0.00000000000E+00 0.  1.
</event>
<event>
 7    1  0.2430096E-009  0.4778727E+02  0.7816164E-02  0.1312668E+00
        -11   -1    0    0    0    0  0.00000000000E+00  0.00000000000E+00  0.45593999997E+02  0.45594000000E+02  0.51100000000E-03 0.  1.
         11   -1    0    0    0    0 -0.00000000000E+00 -0.00000000000E+00 -0.45593999997E+02  0.45594000000E+02  0.51100000000E-03 0. -1.
    9900012    2    1    2    0    0  0.40619887940E+01 -0.39730311407E+02 -0.16989000387E+02  0.47787268075E+02  0.19999986462E+02 0.  0.
        -12    1    1    2    0    0 -0.40619887940E+01  0.39730311407E+02  0.16989000387E+02  0.43400731925E+02  0.00000000000E+00 0.  1.
         11    1    3    3    0    0 -0.61615806600E+00 -0.67397666840E+01 -0.10188316216E+02  0.12231348793E+02  0.51100000000E-03 0. -1.
        -11    1    3    3    0    0  0.53305985005E+01 -0.14536394055E+02  0.98885466204E+00  0.15514505029E+02  0.51100000000E-03 0.  1.
        -12    1    3    3    0    0 -0.65245164043E+00 -0.18454150669E+02 -0.77895388323E+01  0.20041414253E+02  0.00000000000E+00 0.  1.
</event>
<event>
 7    1  0.2430096E-009  0.4778727E+02  0.7816164E-02  0.1312668E+00
        -11   -1    0    0    0    0  0.00000000000E+00  0.00000000000E+00  0.45593999997E+02  0.45594000000E+02  0.51100000000E-03 0.  1.
         11   -1    0    0    0    0 -0.00000000000E+00 -0.00000000000E+00 -0.45593999997E+02  0.45594000000E+02  0.51100000000E-03 0. -1.
    9900012    2    1    2    0    0 -0.91264310626E+01 -0.23738526517E+02 -0.35168360333E+02  0.47787274734E+02  0.20000016821E+02 0.  0.
        -12    1    1    2    0    0  0.91264310626E+01  0.23738526517E+02  0.35168360333E+02  0.43400725266E+02  0.00000000000E+00 0.  1.
         11    1    3    3    0    0 -0.23136376721E+01 -0.19483743594E+02 -0.16821246773E+02  0.25844216509E+02  0.51100000000E-03 0. -1.
        -11    1    3    3    0    0 -0.62370720389E+00  0.12300645379E+01 -0.10341782841E+02  0.10433338010E+02  0.51100000000E-03 0.  1.
        -12    1    3    3    0    0 -0.61890861866E+01 -0.54848474615E+01 -0.80053307179E+01  0.11509720214E+02  0.00000000000E+00 0.  1.
</event>
<event>
 7    1  0.2430096E-009  0.4778727E+02  0.7816164E-02  0.1312668E+00
        -11   -1    0    0    0    0  0.00000000000E+00  0.00000000000E+00  0.45593999997E+02  0.45594000000E+02  0.51100000000E-03 0. -1.
         11   -1    0    0    0    0 -0.00000000000E+00 -0.00000000000E+00 -0.45593999997E+02  0.45594000000E+02  0.51100000000E-03 0.  1.
    9900012    2    1    2    0    0  0.37490237015E+01  0.35167622872E+02 -0.25155643833E+02  0.47787270814E+02  0.19999998949E+02 0.  0.
        -12    1    1    2    0    0 -0.37490237015E+01 -0.35167622872E+02  0.25155643833E+02  0.43400729186E+02  0.00000000000E+00 0.  1.
         11    1    3    3    0    0  0.74372067750E+01  0.21459128030E+02 -0.21289792882E+02  0.31129752676E+02  0.51100000000E-03 0. -1.
        -11    1    3    3    0    0  0.10591272358E+01  0.77263135037E+01  0.58105821174E+00  0.78201854048E+01  0.51100000000E-03 0.  1.
         12    1    3    3    0    0 -0.47473103093E+01  0.59821813385E+01 -0.44469091631E+01  0.88373327336E+01  0.00000000000E+00 0. -1.
</event>
<event>
 7    1  0.2430096E-009  0.4778727E+02  0.7816164E-02  0.1312668E+00
        -11   -1    0    0    0    0  0.00000000000E+00  0.00000000000E+00  0.45593999997E+02  0.45594000000E+02  0.51100000000E-03 0. -1.
         11   -1    0    0    0    0 -0.00000000000E+00 -0.00000000000E+00 -0.45593999997E+02  0.45594000000E+02  0.51100000000E-03 0.  1.
    9900012    2    1    2    0    0 -0.34999675702E+02  0.25575717764E+02  0.21280544921E+01  0.47787271270E+02  0.20000001027E+02 0.  0.
        -12    1    1    2    0    0  0.34999675702E+02 -0.25575717764E+02 -0.21280544921E+01  0.43400728730E+02  0.00000000000E+00 0.  1.
         11    1    3    3    0    0 -0.73393357367E+01  0.40771848452E+01  0.17652583079E+00  0.83976453216E+01  0.51100000000E-03 0. -1.
        -11    1    3    3    0    0 -0.27381471897E+02  0.15569028006E+02 -0.30254314196E+01  0.31643212097E+02  0.51100000000E-03 0.  1.
        -12    1    3    3    0    0 -0.27886806915E+00  0.59295049127E+01  0.49769600809E+01  0.77464138513E+01  0.00000000000E+00 0.  1.
</event>
<event>
 7    1  0.2430096E-009  0.4778726E+02  0.7816164E-02  0.1312668E+00
        -11   -1    0    0    0    0  0.00000000000E+00  0.00000000000E+00  0.45593999997E+02  0.45594000000E+02  0.51100000000E-03 0. -1.
         11   -1    0    0    0    0 -0.00000000000E+00 -0.00000000000E+00 -0.45593999997E+02  0.45594000000E+02  0.51100000000E-03 0.  1.
    9900012    2    1    2    0    0 -0.38277301402E+02 -0.19227797320E+02 -0.69831270021E+01  0.47787262043E+02  0.19999958961E+02 0.  0.
        -12    1    1    2    0    0  0.38277301402E+02  0.19227797320E+02  0.69831270021E+01  0.43400737957E+02  0.00000000000E+00 0.  1.
         11    1    3    3    0    0 -0.33141719789E+02 -0.82617163847E+01 -0.76997138920E+01  0.35013071023E+02  0.51100000000E-03 0. -1.
        -11    1    3    3    0    0 -0.31222545134E+00  0.17301321231E+00  0.52411313521E+00  0.63412391827E+00  0.51100000000E-03 0.  1.
         12    1    3    3    0    0 -0.48233561625E+01 -0.11139094148E+02  0.19247375468E+00  0.12140067102E+02  0.00000000000E+00 0. -1.
</event>
<event>
 7    1  0.2430096E-009  0.4778727E+02  0.7816164E-02  0.1312668E+00
        -11   -1    0    0    0    0  0.00000000000E+00  0.00000000000E+00  0.45593999997E+02  0.45594000000E+02  0.51100000000E-03 0.  1.
         11   -1    0    0    0    0 -0.00000000000E+00 -0.00000000000E+00 -0.45593999997E+02  0.45594000000E+02  0.51100000000E-03 0. -1.
    9900012    2    1    2    0    0  0.33755884988E+02 -0.13009218543E+02 -0.23977569034E+02  0.47787270107E+02  0.19999995728E+02 0.  0.
        -12    1    1    2    0    0 -0.33755884988E+02  0.13009218543E+02  0.23977569034E+02  0.43400729893E+02  0.00000000000E+00 0.  1.
         11    1    3    3    0    0  0.65887397156E+01 -0.64842053284E+01 -0.91844523137E+01  0.13031138643E+02  0.51100000000E-03 0. -1.
        -11    1    3    3    0    0  0.16694255823E+02  0.28953124923E+01 -0.52372520480E+01  0.17734424749E+02  0.51100000000E-03 0.  1.
        -12    1    3    3    0    0  0.10472889449E+02 -0.94203257070E+01 -0.95558646727E+01  0.17021706715E+02  0.00000000000E+00 0.  1.
</event>
<event>
 7    1  0.2430096E-009  0.4778727E+02  0.7816164E-02  0.1312668E+00
        -11   -1    0    0    0    0  0.00000000000E+00  0.00000000000E+00  0.45593999997E+02  0.45594000000E+02  0.51100000000E-03 0. -1.
         11   -1    0    0    0    0 -0.00000000000E+00 -0.00000000000E+00 -0.45593999997E+02  0.45594000000E+02  0.51100000000E-03 0.  1.
    9900012    2    1    2    0    0  0.19866393241E+02  0.17169496547E+02  0.34556594347E+02  0.47787269534E+02  0.19999993115E+02 0.  0.
        -12    1    1    2    0    0 -0.19866393241E+02 -0.17169496547E+02 -0.34556594347E+02  0.43400730466E+02  0.00000000000E+00 0.  1.
         11    1    3    3    0    0  0.22562976939E+01  0.74097093729E+01  0.13158824368E+02  0.15269228248E+02  0.51100000000E-03 0. -1.
        -11    1    3    3    0    0  0.13858544424E+02  0.59304207754E+01  0.60184229560E+01  0.16231160133E+02  0.51100000000E-03 0.  1.
        -12    1    3    3    0    0  0.37515511231E+01  0.38293663987E+01  0.15379347023E+02  0.16286881153E+02  0.00000000000E+00 0.  1.
</event>
<event>
 7    1  0.2430096E-009  0.4778727E+02  0.7816164E-02  0.1312668E+00
        -11   -1    0    0    0    0  0.00000000000E+00  0.00000000000E+00  0.45593999997E+02  0.45594000000E+02  0.51100000000E-03 0. -1.
         11   -1    0    0    0    0 -0.00000000000E+00 -0.00000000000E+00 -0.45593999997E+02  0.45594000000E+02  0.51100000000E-03 0.  1.
    9900012    2    1    2    0    0  0.26543838930E+02 -0.34015024668E+02 -0.46931722153E+01  0.47787272428E+02  0.20000006309E+02 0.  0.
        -12    1    1    2    0    0 -0.26543838930E+02  0.34015024668E+02  0.46931722153E+01  0.43400727572E+02  0.00000000000E+00 0.  1.
         11    1    3    3    0    0  0.14965547405E+02 -0.23362698903E+02 -0.98253887971E+01  0.29433341204E+02  0.51100000000E-03 0. -1.
        -11    1    3    3    0    0  0.18474641725E+01  0.11132777550E+01  0.15914627667E+01  0.26805345040E+01  0.51100000000E-03 0.  1.
         12    1    3    3    0    0  0.97308273534E+01 -0.11765603520E+02  0.35407538150E+01  0.15673396720E+02  0.00000000000E+00 0. -1.
</event>
<event>
 7    1  0.2430096E-009  0.4778727E+02  0.7816164E-02  0.1312668E+00
        -11   -1    0    0    0    0  0.00000000000E+00  0.00000000000E+00  0.45593999997E+02  0.45594000000E+02  0.51100000000E-03 0.  1.
         11   -1    0    0    0    0 -0.00000000000E+00 -0.00000000000E+00 -0.45593999997E+02  0.45594000000E+02  0.51100000000E-03 0. -1.
    9900012    2    1    2    0    0 -0.13440280167E+02  0.24450675345E+02 -0.33243746404E+02  0.47787270389E+02  0.19999997013E+02 0.  0.
        -12    1    1    2    0    0  0.13440280167E+02 -0.24450675345E+02  0.33243746404E+02  0.43400729611E+02  0.00000000000E+00 0.  1.
         11    1    3    3    0    0  0.14736694172E+01  0.11462233193E+02 -0.16750913018E+02  0.20350616170E+02  0.51100000000E-03 0. -1.
        -11    1    3    3    0    0 -0.71395828882E+01  0.46756528918E+00 -0.46913403237E+01  0.85557545202E+01  0.51100000000E-03 0.  1.
         12    1    3    3    0    0 -0.77743666962E+01  0.12520876863E+02 -0.11801493062E+02  0.18880899699E+02  0.00000000000E+00 0. -1.
</event>
<event>
 7    1  0.2430096E-009  0.4778727E+02  0.7816164E-02  0.1312668E+00
        -11   -1    0    0    0    0  0.00000000000E+00  0.00000000000E+00  0.45593999997E+02  0.45594000000E+02  0.51100000000E-03 0.  1.
         11   -1    0    0    0    0 -0.00000000000E+00 -0.00000000000E+00 -0.45593999997E+02  0.45594000000E+02  0.51100000000E-03 0. -1.
    9900012    2    1    2    0    0  0.23882907324E+02 -0.36236223255E+02 -0.40772612217E+00  0.47787269838E+02  0.19999994497E+02 0.  0.
        -12    1    1    2    0    0 -0.23882907324E+02  0.36236223255E+02  0.40772612217E+00  0.43400730162E+02  0.00000000000E+00 0.  1.
         11    1    3    3    0    0  0.67072052468E+01 -0.19274025100E+02 -0.66101654477E+01  0.21451548505E+02  0.51100000000E-03 0. -1.
        -11    1    3    3    0    0  0.24737595216E+01 -0.13696790157E+01  0.38492843589E+01  0.47762429914E+01  0.51100000000E-03 0.  1.
         12    1    3    3    0    0  0.14701942556E+02 -0.15592519140E+02  0.23531549667E+01  0.21559478341E+02  0.00000000000E+00 0. -1.
</event>
<event>
 7    1  0.2430096E-009  0.4778727E+02  0.7816164E-02  0.1312668E+00
        -11   -1    0    0    0    0  0.00000000000E+00  0.00000000000E+00  0.45593999997E+02  0.45594000000E+02  0.51100000000E-03 0.  1.
         11   -1    0    0    0    0 -0.00000000000E+00 -0.00000000000E+00 -0.45593999997E+02  0.45594000000E+02  0.51100000000E-03 0. -1.
    9900012    2    1    2    0    0  0.15713301656E+02  0.37005588705E+02 -0.16349372244E+02  0.47787269394E+02  0.19999992475E+02 0.  0.
        -12    1    1    2    0    0 -0.15713301656E+02 -0.37005588705E+02  0.16349372244E+02  0.43400730606E+02  0.00000000000E+00 0.  1.
         11    1    3    3    0    0  0.23505179484E+01  0.78465412033E+01 -0.95725576980E+01  0.12598690592E+02  0.51100000000E-03 0. -1.
        -11    1    3    3    0    0  0.15003489106E+02  0.21595230448E+02 -0.26809806584E+01  0.26431918602E+02  0.51100000000E-03 0.  1.
        -12    1    3    3    0    0 -0.16407053980E+01  0.75638170541E+01 -0.40958338873E+01  0.87566602003E+01  0.00000000000E+00 0.  1.
</event>
<event>
 7    1  0.2430096E-009  0.4778727E+02  0.7816164E-02  0.1312668E+00
        -11   -1    0    0    0    0  0.00000000000E+00  0.00000000000E+00  0.45593999997E+02  0.45594000000E+02  0.51100000000E-03 0. -1.
         11   -1    0    0    0    0 -0.00000000000E+00 -0.00000000000E+00 -0.45593999997E+02  0.45594000000E+02  0.51100000000E-03 0.  1.
    9900012    2    1    2    0    0 -0.27882501854E+02 -0.13906711261E+02  0.30212457936E+02  0.47787272560E+02  0.20000006912E+02 0.  0.
        -12    1    1    2    0    0  0.27882501854E+02  0.13906711261E+02 -0.30212457936E+02  0.43400727440E+02  0.00000000000E+00 0.  1.
         11    1    3    3    0    0 -0.19528935473E+02 -0.16375292298E+02  0.24158940218E+02  0.35116718402E+02  0.51100000000E-03 0. -1.
        -11    1    3    3    0    0 -0.61086171279E+01  0.80259291864E-01  0.38336128185E+00  0.61211609113E+01  0.51100000000E-03 0.  1.
         12    1    3    3    0    0 -0.22449492525E+01  0.23883217447E+01  0.56701564360E+01  0.65493932476E+01  0.00000000000E+00 0. -1.
</event>
<event>
 7    1  0.2430096E-009  0.4778727E+02  0.7816164E-02  0.1312668E+00
        -11   -1    0    0    0    0  0.00000000000E+00  0.00000000000E+00  0.45593999997E+02  0.45594000000E+02  0.51100000000E-03 0. -1.
         11   -1    0    0    0    0 -0.00000000000E+00 -0.00000000000E+00 -0.45593999997E+02  0.45594000000E+02  0.51100000000E-03 0.  1.
    9900012    2    1    2    0    0  0.83510446072E+00  0.40358818595E+02  0.15940251089E+02  0.47787271404E+02  0.20000001641E+02 0.  0.
        -12    1    1    2    0    0 -0.83510446072E+00 -0.40358818595E+02 -0.15940251089E+02  0.43400728596E+02  0.00000000000E+00 0.  1.
         11    1    3    3    0    0  0.56542097111E+00  0.15639377334E+02  0.46231022225E+01  0.16318176941E+02  0.51100000000E-03 0. -1.
        -11    1    3    3    0    0 -0.14553327546E+01 -0.19246088992E+01  0.21720291052E+01  0.32465094388E+01  0.51100000000E-03 0.  1.
        -12    1    3    3    0    0  0.17250162442E+01  0.26644050161E+02  0.91451197610E+01  0.28222585024E+02  0.00000000000E+00 0.  1.
</event>
<event>
 7    1  0.2430096E-009  0.4778727E+02  0.7816164E-02  0.1312668E+00
        -11   -1    0    0    0    0  0.00000000000E+00  0.00000000000E+00  0.45593999997E+02  0.45594000000E+02  0.51100000000E-03 0. -1.
         11   -1    0    0    0    0 -0.00000000000E+00 -0.00000000000E+00 -0.45593999997E+02  0.45594000000E+02  0.51100000000E-03 0.  1.
    9900012    2    1    2    0    0 -0.38706691953E+02 -0.57497719211E+01  0.18771126821E+02  0.47787273264E+02  0.20000010120E+02 0.  0.
        -12    1    1    2    0    0  0.38706691953E+02  0.57497719211E+01 -0.18771126821E+02  0.43400726736E+02  0.00000000000E+00 0.  1.
         11    1    3    3    0    0 -0.23986732495E+02 -0.75092774259E+01  0.46688313929E+01  0.25564635145E+02  0.51100000000E-03 0.  1.
        -11    1    3    3    0    0 -0.11415053896E+02  0.18337059569E+01  0.51069461154E+01  0.12639099330E+02  0.51100000000E-03 0. -1.
         12    1    3    3    0    0 -0.33049055625E+01 -0.74200452015E-01  0.89953493124E+01  0.95835387898E+01  0.00000000000E+00 0. -1.
</event>
<event>
 7    1  0.2430096E-009  0.4778727E+02  0.7816164E-02  0.1312668E+00
        -11   -1    0    0    0    0  0.00000000000E+00  0.00000000000E+00  0.45593999997E+02  0.45594000000E+02  0.51100000000E-03 0.  1.
         11   -1    0    0    0    0 -0.00000000000E+00 -0.00000000000E+00 -0.45593999997E+02  0.45594000000E+02  0.51100000000E-03 0. -1.
    9900012    2    1    2    0    0  0.14249559811E+02  0.30874822298E+02 -0.26968848251E+02  0.47787269790E+02  0.19999994281E+02 0.  0.
        -12    1    1    2    0    0 -0.14249559811E+02 -0.30874822298E+02  0.26968848251E+02  0.43400730210E+02  0.00000000000E+00 0.  1.
         11    1    3    3    0    0  0.34609990180E+01 -0.16886671713E+01 -0.32353863397E+01  0.50296954228E+01  0.51100000000E-03 0.  1.
        -11    1    3    3    0    0  0.11538117778E+02  0.23718960466E+02 -0.15189764423E+02  0.30437578598E+02  0.51100000000E-03 0. -1.
        -12    1    3    3    0    0 -0.74955698497E+00  0.88445290035E+01 -0.85436974886E+01  0.12319995769E+02  0.00000000000E+00 0.  1.
</event>
<event>
 7    1  0.2430096E-009  0.4778727E+02  0.7816164E-02  0.1312668E+00
        -11   -1    0    0    0    0  0.00000000000E+00  0.00000000000E+00  0.45593999997E+02  0.45594000000E+02  0.51100000000E-03 0. -1.
         11   -1    0    0    0    0 -0.00000000000E+00 -0.00000000000E+00 -0.45593999997E+02  0.45594000000E+02  0.51100000000E-03 0.  1.
    9900012    2    1    2    0    0  0.25072951170E+02  0.34664845614E+02 -0.73019610719E+01  0.47787273770E+02  0.20000012425E+02 0.  0.
        -12    1    1    2    0    0 -0.25072951170E+02 -0.34664845614E+02  0.73019610719E+01  0.43400726230E+02  0.00000000000E+00 0.  1.
         11    1    3    3    0    0  0.16216011915E+02  0.10636183384E+02 -0.40490372790E+01  0.19811162070E+02  0.51100000000E-03 0. -1.
        -11    1    3    3    0    0  0.91323654180E+00  0.10763282619E+02  0.31332753194E+01  0.11247207129E+02  0.51100000000E-03 0.  1.
         12    1    3    3    0    0  0.79437027129E+01  0.13265379612E+02 -0.63861991123E+01  0.16728904571E+02  0.00000000000E+00 0. -1.
</event>
<event>
 7    1  0.2430096E-009  0.4778727E+02  0.7816164E-02  0.1312668E+00
        -11   -1    0    0    0    0  0.00000000000E+00  0.00000000000E+00  0.45593999997E+02  0.45594000000E+02  0.51100000000E-03 0.  1.
         11   -1    0    0    0    0 -0.00000000000E+00 -0.00000000000E+00 -0.45593999997E+02  0.45594000000E+02  0.51100000000E-03 0. -1.
    9900012    2    1    2    0    0 -0.23704180645E+02 -0.35942279626E+02 -0.54669354592E+01  0.47787273876E+02  0.20000012911E+02 0.  0.
        -12    1    1    2    0    0  0.23704180645E+02  0.35942279626E+02  0.54669354592E+01  0.43400726124E+02  0.00000000000E+00 0.  1.
         11    1    3    3    0    0 -0.52855411845E+01 -0.40315221587E+01  0.12909941684E+01  0.67717636354E+01  0.51100000000E-03 0. -1.
        -11    1    3    3    0    0 -0.78403745384E+01 -0.20007676921E+02  0.39185500124E+01  0.21843389003E+02  0.51100000000E-03 0.  1.
        -12    1    3    3    0    0 -0.10578264922E+02 -0.11903080546E+02 -0.10676479640E+02  0.19172121238E+02  0.00000000000E+00 0.  1.
</event>
<event>
 7    1  0.2430096E-009  0.4778728E+02  0.7816164E-02  0.1312668E+00
        -11   -1    0    0    0    0  0.00000000000E+00  0.00000000000E+00  0.45593999997E+02  0.45594000000E+02  0.51100000000E-03 0. -1.
         11   -1    0    0    0    0 -0.00000000000E+00 -0.00000000000E+00 -0.45593999997E+02  0.45594000000E+02  0.51100000000E-03 0.  1.
    9900012    2    1    2    0    0  0.16240562755E+02  0.37481473177E+02  0.14663083321E+02  0.47787277395E+02  0.20000028956E+02 0.  0.
        -12    1    1    2    0    0 -0.16240562755E+02 -0.37481473177E+02 -0.14663083321E+02  0.43400722605E+02  0.00000000000E+00 0.  1.
         11    1    3    3    0    0  0.13620076127E+01  0.20672460342E+01  0.72289392876E+01  0.76410820168E+01  0.51100000000E-03 0. -1.
        -11    1    3    3    0    0  0.51642234008E+01  0.15212618709E+02 -0.12341896864E+01  0.16112609837E+02  0.51100000000E-03 0.  1.
        -12    1    3    3    0    0  0.97143317419E+01  0.20201608433E+02  0.86683337199E+01  0.24033585541E+02  0.00000000000E+00 0.  1.
</event>
<event>
 7    1  0.2430096E-009  0.4778727E+02  0.7816164E-02  0.1312668E+00
        -11   -1    0    0    0    0  0.00000000000E+00  0.00000000000E+00  0.45593999997E+02  0.45594000000E+02  0.51100000000E-03 0. -1.
         11   -1    0    0    0    0 -0.00000000000E+00 -0.00000000000E+00 -0.45593999997E+02  0.45594000000E+02  0.51100000000E-03 0.  1.
    9900012    2    1    2    0    0  0.52158329728E+01  0.35917088120E+02 -0.23798757263E+02  0.47787274432E+02  0.20000015444E+02 0.  0.
        -12    1    1    2    0    0 -0.52158329728E+01 -0.35917088120E+02  0.23798757263E+02  0.43400725568E+02  0.00000000000E+00 0.  1.
         11    1    3    3    0    0  0.21549918111E+01  0.25036406671E+02 -0.19107223257E+02  0.31568205992E+02  0.51100000000E-03 0. -1.
        -11    1    3    3    0    0 -0.16140143101E+01  0.22668404607E+01  0.27508555853E+01  0.39129035995E+01  0.51100000000E-03 0.  1.
         12    1    3    3    0    0  0.46748554717E+01  0.86138409882E+01 -0.74423895907E+01  0.12306164840E+02  0.00000000000E+00 0. -1.
</event>
<event>
 7    1  0.2430096E-009  0.4778727E+02  0.7816164E-02  0.1312668E+00
        -11   -1    0    0    0    0  0.00000000000E+00  0.00000000000E+00  0.45593999997E+02  0.45594000000E+02  0.51100000000E-03 0.  1.
         11   -1    0    0    0    0 -0.00000000000E+00 -0.00000000000E+00 -0.45593999997E+02  0.45594000000E+02  0.51100000000E-03 0. -1.
    9900012    2    1    2    0    0  0.37028581522E+02  0.19261448676E+02 -0.11895554689E+02  0.47787268716E+02  0.19999989382E+02 0.  0.
        -12    1    1    2    0    0 -0.37028581522E+02 -0.19261448676E+02  0.11895554689E+02  0.43400731284E+02  0.00000000000E+00 0.  1.
         11    1    3    3    0    0  0.16614657689E+02  0.12499197120E+02 -0.43446073928E+01  0.21240348218E+02  0.51100000000E-03 0. -1.
        -11    1    3    3    0    0  0.85892069902E+01 -0.35863025060E+01 -0.51898387348E+01  0.10656944625E+02  0.51100000000E-03 0.  1.
        -12    1    3    3    0    0  0.11824716843E+02  0.10348554062E+02 -0.23611085617E+01  0.15889975873E+02  0.00000000000E+00 0.  1.
</event>
<event>
 7    1  0.2430096E-009  0.4778727E+02  0.7816164E-02  0.1312668E+00
        -11   -1    0    0    0    0  0.00000000000E+00  0.00000000000E+00  0.45593999997E+02  0.45594000000E+02  0.51100000000E-03 0. -1.
         11   -1    0    0    0    0 -0.00000000000E+00 -0.00000000000E+00 -0.45593999997E+02  0.45594000000E+02  0.51100000000E-03 0.  1.
    9900012    2    1    2    0    0  0.32530985766E+02 -0.39536905630E+01  0.28455691223E+02  0.47787273428E+02  0.20000010868E+02 0.  0.
        -12    1    1    2    0    0 -0.32530985766E+02  0.39536905630E+01 -0.28455691223E+02  0.43400726572E+02  0.00000000000E+00 0.  1.
         11    1    3    3    0    0  0.51892585706E+01 -0.18331288832E+01  0.11131704324E+02  0.12417874513E+02  0.51100000000E-03 0. -1.
        -11    1    3    3    0    0  0.20270948053E+02 -0.60654635212E+01  0.70802524124E+01  0.22312130270E+02  0.51100000000E-03 0.  1.
        -12    1    3    3    0    0  0.70707791424E+01  0.39449018414E+01  0.10243734487E+02  0.13057268645E+02  0.00000000000E+00 0.  1.
</event>
<event>
 7    1  0.2430096E-009  0.4778728E+02  0.7816164E-02  0.1312668E+00
        -11   -1    0    0    0    0  0.00000000000E+00  0.00000000000E+00  0.45593999997E+02  0.45594000000E+02  0.51100000000E-03 0.  1.
         11   -1    0    0    0    0 -0.00000000000E+00 -0.00000000000E+00 -0.45593999997E+02  0.45594000000E+02  0.51100000000E-03 0. -1.
    9900012    2    1    2    0    0  0.11551451974E+02  0.28077544235E+02 -0.31013519122E+02  0.47787275337E+02  0.20000019570E+02 0.  0.
        -12    1    1    2    0    0 -0.11551451974E+02 -0.28077544235E+02  0.31013519122E+02  0.43400724663E+02  0.00000000000E+00 0.  1.
         11    1    3    3    0    0  0.20335489123E+01 -0.20469171105E+01 -0.42442915039E+01  0.51321731720E+01  0.51100000000E-03 0.  1.
        -11    1    3    3    0    0  0.60222428659E+01  0.20004948848E+02 -0.11043961984E+02  0.23631218422E+02  0.51100000000E-03 0. -1.
        -12    1    3    3    0    0  0.34956601953E+01  0.10119512498E+02 -0.15725265634E+02  0.19023883743E+02  0.00000000000E+00 0.  1.
</event>
<event>
 7    1  0.2430096E-009  0.4778728E+02  0.7816164E-02  0.1312668E+00
        -11   -1    0    0    0    0  0.00000000000E+00  0.00000000000E+00  0.45593999997E+02  0.45594000000E+02  0.51100000000E-03 0.  1.
         11   -1    0    0    0    0 -0.00000000000E+00 -0.00000000000E+00 -0.45593999997E+02  0.45594000000E+02  0.51100000000E-03 0. -1.
    9900012    2    1    2    0    0 -0.72842570128E+01 -0.25479353814E+02 -0.34370990615E+02  0.47787275733E+02  0.20000021377E+02 0.  0.
        -12    1    1    2    0    0  0.72842570128E+01  0.25479353814E+02  0.34370990615E+02  0.43400724267E+02  0.00000000000E+00 0.  1.
         11    1    3    3    0    0 -0.51608337470E+01 -0.19853987835E+02 -0.21120514705E+02  0.29443015803E+02  0.51100000000E-03 0. -1.
        -11    1    3    3    0    0  0.42513888371E+01 -0.38915796481E+00 -0.59836328490E+01  0.73504838820E+01  0.51100000000E-03 0.  1.
        -12    1    3    3    0    0 -0.63748121029E+01 -0.52362080150E+01 -0.72668430616E+01  0.10993776049E+02  0.00000000000E+00 0.  1.
</event>
<event>
 7    1  0.2430096E-009  0.4778727E+02  0.7816164E-02  0.1312668E+00
        -11   -1    0    0    0    0  0.00000000000E+00  0.00000000000E+00  0.45593999997E+02  0.45594000000E+02  0.51100000000E-03 0.  1.
         11   -1    0    0    0    0 -0.00000000000E+00 -0.00000000000E+00 -0.45593999997E+02  0.45594000000E+02  0.51100000000E-03 0. -1.
    9900012    2    1    2    0    0  0.21990474913E+02  0.64985058821E+01 -0.36848500008E+02  0.47787268227E+02  0.19999987156E+02 0.  0.
        -12    1    1    2    0    0 -0.21990474913E+02 -0.64985058821E+01  0.36848500008E+02  0.43400731773E+02  0.00000000000E+00 0.  1.
         11    1    3    3    0    0  0.78677240541E+00  0.38584580251E+00  0.22392745424E+01  0.24046285656E+01  0.51100000000E-03 0.  1.
        -11    1    3    3    0    0  0.18362059989E+02  0.37887895230E+01 -0.27953566298E+02  0.33658907322E+02  0.51100000000E-03 0. -1.
        -12    1    3    3    0    0  0.28416425180E+01  0.23238705566E+01 -0.11134208252E+02  0.11723732339E+02  0.00000000000E+00 0.  1.
</event>
<event>
 7    1  0.2430096E-009  0.4778727E+02  0.7816164E-02  0.1312668E+00
        -11   -1    0    0    0    0  0.00000000000E+00  0.00000000000E+00  0.45593999997E+02  0.45594000000E+02  0.51100000000E-03 0.  1.
         11   -1    0    0    0    0 -0.00000000000E+00 -0.00000000000E+00 -0.45593999997E+02  0.45594000000E+02  0.51100000000E-03 0. -1.
    9900012    2    1    2    0    0  0.57843519955E+01 -0.40778937121E+02  0.13683672471E+02  0.47787270363E+02  0.19999996895E+02 0.  0.
        -12    1    1    2    0    0 -0.57843519955E+01  0.40778937121E+02 -0.13683672471E+02  0.43400729637E+02  0.00000000000E+00 0.  1.
         11    1    3    3    0    0  0.17560287613E+01 -0.15062719141E+02 -0.41725757569E+01  0.15728303585E+02  0.51100000000E-03 0. -1.
        -11    1    3    3    0    0  0.51704819528E+01 -0.22357316290E+02  0.16487323679E+02  0.28256243870E+02  0.51100000000E-03 0.  1.
        -12    1    3    3    0    0 -0.11421587186E+01 -0.33589016895E+01  0.13689245494E+01  0.38027229087E+01  0.00000000000E+00 0.  1.
</event>
<event>
 7    1  0.2430096E-009  0.4778727E+02  0.7816164E-02  0.1312668E+00
        -11   -1    0    0    0    0  0.00000000000E+00  0.00000000000E+00  0.45593999997E+02  0.45594000000E+02  0.51100000000E-03 0.  1.
         11   -1    0    0    0    0 -0.00000000000E+00 -0.00000000000E+00 -0.45593999997E+02  0.45594000000E+02  0.51100000000E-03 0. -1.
    9900012    2    1    2    0    0 -0.38047540107E+01  0.29832447664E+02 -0.31291724803E+02  0.47787272727E+02  0.20000007671E+02 0.  0.
        -12    1    1    2    0    0  0.38047540107E+01 -0.29832447664E+02  0.31291724803E+02  0.43400727273E+02  0.00000000000E+00 0.  1.
         11    1    3    3    0    0 -0.30900925775E+01  0.27975067255E+02 -0.31973081148E+02  0.42596138069E+02  0.51100000000E-03 0. -1.
        -11    1    3    3    0    0 -0.24398706281E+01 -0.11559602158E+00  0.79235943556E+00  0.25679106017E+01  0.51100000000E-03 0.  1.
        -12    1    3    3    0    0  0.17252091949E+01  0.19729764303E+01 -0.11100309037E+00  0.26232240558E+01  0.00000000000E+00 0.  1.
</event>
<event>
 7    1  0.2430096E-009  0.4778727E+02  0.7816164E-02  0.1312668E+00
        -11   -1    0    0    0    0  0.00000000000E+00  0.00000000000E+00  0.45593999997E+02  0.45594000000E+02  0.51100000000E-03 0.  1.
         11   -1    0    0    0    0 -0.00000000000E+00 -0.00000000000E+00 -0.45593999997E+02  0.45594000000E+02  0.51100000000E-03 0. -1.
    9900012    2    1    2    0    0 -0.12808846118E+02  0.88101852531E+01 -0.40520824339E+02  0.47787272953E+02  0.20000008701E+02 0.  0.
        -12    1    1    2    0    0  0.12808846118E+02 -0.88101852531E+01  0.40520824339E+02  0.43400727047E+02  0.00000000000E+00 0.  1.
         11    1    3    3    0    0 -0.86384934041E+01  0.71460296884E+01 -0.10180583746E+02  0.15143764204E+02  0.51100000000E-03 0. -1.
        -11    1    3    3    0    0 -0.15908026286E+01  0.34121795063E+01 -0.29013573625E+02  0.29256812484E+02  0.51100000000E-03 0.  1.
        -12    1    3    3    0    0 -0.25795500853E+01 -0.17480239416E+01 -0.13266669686E+01  0.33866962646E+01  0.00000000000E+00 0.  1.
</event>
<event>
 7    1  0.2430096E-009  0.4778727E+02  0.7816164E-02  0.1312668E+00
        -11   -1    0    0    0    0  0.00000000000E+00  0.00000000000E+00  0.45593999997E+02  0.45594000000E+02  0.51100000000E-03 0.  1.
         11   -1    0    0    0    0 -0.00000000000E+00 -0.00000000000E+00 -0.45593999997E+02  0.45594000000E+02  0.51100000000E-03 0. -1.
    9900012    2    1    2    0    0  0.38259489200E+02  0.17298569191E+02  0.10981544553E+02  0.47787270390E+02  0.19999997018E+02 0.  0.
        -12    1    1    2    0    0 -0.38259489200E+02 -0.17298569191E+02 -0.10981544553E+02  0.43400729610E+02  0.00000000000E+00 0.  1.
         11    1    3    3    0    0  0.28755456214E+02  0.10821175266E+02  0.14098175046E+01  0.30756490077E+02  0.51100000000E-03 0. -1.
        -11    1    3    3    0    0  0.10021996142E+02  0.76423327587E+01  0.94447562588E+01  0.15749573890E+02  0.51100000000E-03 0.  1.
         12    1    3    3    0    0 -0.51796315714E+00 -0.11649388329E+01  0.12697078949E+00  0.12812064228E+01  0.00000000000E+00 0. -1.
</event>
<event>
 7    1  0.2430096E-009  0.4778727E+02  0.7816164E-02  0.1312668E+00
        -11   -1    0    0    0    0  0.00000000000E+00  0.00000000000E+00  0.45593999997E+02  0.45594000000E+02  0.51100000000E-03 0. -1.
         11   -1    0    0    0    0 -0.00000000000E+00 -0.00000000000E+00 -0.45593999997E+02  0.45594000000E+02  0.51100000000E-03 0.  1.
    9900012    2    1    2    0    0  0.31926425496E+02  0.11056116297E+02  0.27241314109E+02  0.47787267899E+02  0.19999985659E+02 0.  0.
        -12    1    1    2    0    0 -0.31926425496E+02 -0.11056116297E+02 -0.27241314109E+02  0.43400732101E+02  0.00000000000E+00 0.  1.
         11    1    3    3    0    0  0.10635282001E+02  0.32896958767E+01  0.83151191858E+00  0.11163455314E+02  0.51100000000E-03 0. -1.
        -11    1    3    3    0    0  0.15367017473E+02 -0.18108360286E-01  0.18455758949E+02  0.24015840451E+02  0.51100000000E-03 0.  1.
        -12    1    3    3    0    0  0.59241260213E+01  0.77845287801E+01  0.79540432421E+01  0.12607972134E+02  0.00000000000E+00 0.  1.
</event>
<event>
 7    1  0.2430096E-009  0.4778729E+02  0.7816164E-02  0.1312668E+00
        -11   -1    0    0    0    0  0.00000000000E+00  0.00000000000E+00  0.45593999997E+02  0.45594000000E+02  0.51100000000E-03 0.  1.
         11   -1    0    0    0    0 -0.00000000000E+00 -0.00000000000E+00 -0.45593999997E+02  0.45594000000E+02  0.51100000000E-03 0. -1.
    9900012    2    1    2    0    0  0.15164066125E+01 -0.36760795214E+02 -0.23021001417E+02  0.47787285029E+02  0.20000063759E+02 0.  0.
        -12    1    1    2    0    0 -0.15164066125E+01  0.36760795214E+02  0.23021001417E+02  0.43400714971E+02  0.00000000000E+00 0.  1.
         11    1    3    3    0    0  0.47981492607E+01 -0.29627514482E+02 -0.14049764720E+02  0.33139217548E+02  0.51100000000E-03 0. -1.
        -11    1    3    3    0    0  0.15210389558E+01  0.51432689736E+00  0.37803754917E+00  0.16495466990E+01  0.51100000000E-03 0.  1.
         12    1    3    3    0    0 -0.48027816040E+01 -0.76476076293E+01 -0.93492742461E+01  0.12998520782E+02  0.00000000000E+00 0. -1.
</event>
<event>
 7    1  0.2430096E-009  0.4778728E+02  0.7816164E-02  0.1312668E+00
        -11   -1    0    0    0    0  0.00000000000E+00  0.00000000000E+00  0.45593999997E+02  0.45594000000E+02  0.51100000000E-03 0. -1.
         11   -1    0    0    0    0 -0.00000000000E+00 -0.00000000000E+00 -0.45593999997E+02  0.45594000000E+02  0.51100000000E-03 0.  1.
    9900012    2    1    2    0    0 -0.84119988798E+01  0.33021524564E+02  0.26878235692E+02  0.47787281531E+02  0.20000047812E+02 0.  0.
        -12    1    1    2    0    0  0.84119988798E+01 -0.33021524564E+02 -0.26878235692E+02  0.43400718469E+02  0.00000000000E+00 0.  1.
         11    1    3    3    0    0 -0.10498176987E+01 -0.19318889378E+01  0.42637817488E+01  0.47973062369E+01  0.51100000000E-03 0. -1.
        -11    1    3    3    0    0 -0.27834915902E+01  0.29278695567E+01  0.12812951370E+01  0.42381556204E+01  0.51100000000E-03 0.  1.
         12    1    3    3    0    0 -0.45786895909E+01  0.32025543945E+02  0.21333158806E+02  0.38751819674E+02  0.00000000000E+00 0. -1.
</event>
<event>
 7    1  0.2430096E-009  0.4778727E+02  0.7816164E-02  0.1312668E+00
        -11   -1    0    0    0    0  0.00000000000E+00  0.00000000000E+00  0.45593999997E+02  0.45594000000E+02  0.51100000000E-03 0.  1.
         11   -1    0    0    0    0 -0.00000000000E+00 -0.00000000000E+00 -0.45593999997E+02  0.45594000000E+02  0.51100000000E-03 0. -1.
    9900012    2    1    2    0    0 -0.11275500934E+02  0.85755777036E+01 -0.41023721206E+02  0.47787272404E+02  0.20000006199E+02 0.  0.
        -12    1    1    2    0    0  0.11275500934E+02 -0.85755777036E+01  0.41023721206E+02  0.43400727596E+02  0.00000000000E+00 0.  1.
         11    1    3    3    0    0 -0.53305091220E+00  0.51577971692E+00 -0.15611662579E+02  0.15629273199E+02  0.51100000000E-03 0. -1.
        -11    1    3    3    0    0 -0.83456893744E+01  0.11897696498E+02 -0.22472181860E+02  0.26762000503E+02  0.51100000000E-03 0.  1.
        -12    1    3    3    0    0 -0.23967606469E+01 -0.38378985118E+01 -0.29398767666E+01  0.53959987016E+01  0.00000000000E+00 0.  1.
</event>
<event>
 7    1  0.2430096E-009  0.4778727E+02  0.7816164E-02  0.1312668E+00
        -11   -1    0    0    0    0  0.00000000000E+00  0.00000000000E+00  0.45593999997E+02  0.45594000000E+02  0.51100000000E-03 0.  1.
         11   -1    0    0    0    0 -0.00000000000E+00 -0.00000000000E+00 -0.45593999997E+02  0.45594000000E+02  0.51100000000E-03 0. -1.
    9900012    2    1    2    0    0  0.40231535130E+02 -0.16173517302E+02 -0.18611717861E+01  0.47787273725E+02  0.20000012220E+02 0.  0.
        -12    1    1    2    0    0 -0.40231535130E+02  0.16173517302E+02  0.18611717861E+01  0.43400726275E+02  0.00000000000E+00 0.  1.
         11    1    3    3    0    0  0.18102554903E+02 -0.89387030311E+01 -0.50404403137E+01  0.20808866973E+02  0.51100000000E-03 0. -1.
        -11    1    3    3    0    0  0.45430636967E+01 -0.19991507450E+01  0.66562646531E+01  0.83031253662E+01  0.51100000000E-03 0.  1.
        -12    1    3    3    0    0  0.17585916530E+02 -0.52356635264E+01 -0.34769961255E+01  0.18675281385E+02  0.00000000000E+00 0.  1.
</event>
<event>
 7    1  0.2430096E-009  0.4778727E+02  0.7816164E-02  0.1312668E+00
        -11   -1    0    0    0    0  0.00000000000E+00  0.00000000000E+00  0.45593999997E+02  0.45594000000E+02  0.51100000000E-03 0.  1.
         11   -1    0    0    0    0 -0.00000000000E+00 -0.00000000000E+00 -0.45593999997E+02  0.45594000000E+02  0.51100000000E-03 0. -1.
    9900012    2    1    2    0    0 -0.30921358031E+02  0.24580629572E+02 -0.17980133936E+02  0.47787274787E+02  0.20000017065E+02 0.  0.
        -12    1    1    2    0    0  0.30921358031E+02 -0.24580629572E+02  0.17980133936E+02  0.43400725213E+02  0.00000000000E+00 0.  1.
         11    1    3    3    0    0 -0.64165469129E+01  0.15444489204E+02 -0.26769123486E+01  0.16937242427E+02  0.51100000000E-03 0. -1.
        -11    1    3    3    0    0 -0.67916195689E+01  0.10050196946E-01 -0.29431150209E+01  0.74019000035E+01  0.51100000000E-03 0.  1.
         12    1    3    3    0    0 -0.17713191550E+02  0.91260901712E+01 -0.12360106566E+02  0.23448132357E+02  0.00000000000E+00 0. -1.
</event>
<event>
 7    1  0.2430096E-009  0.4778727E+02  0.7816164E-02  0.1312668E+00
        -11   -1    0    0    0    0  0.00000000000E+00  0.00000000000E+00  0.45593999997E+02  0.45594000000E+02  0.51100000000E-03 0.  1.
         11   -1    0    0    0    0 -0.00000000000E+00 -0.00000000000E+00 -0.45593999997E+02  0.45594000000E+02  0.51100000000E-03 0. -1.
    9900012    2    1    2    0    0 -0.78330735367E+00 -0.43369836278E+02 -0.14378521556E+01  0.47787266273E+02  0.19999978247E+02 0.  0.
        -12    1    1    2    0    0  0.78330735367E+00  0.43369836278E+02  0.14378521556E+01  0.43400733727E+02  0.00000000000E+00 0.  1.
         11    1    3    3    0    0  0.36733498791E+01 -0.38142677817E+02 -0.32014455415E+01  0.38452654319E+02  0.51100000000E-03 0. -1.
        -11    1    3    3    0    0 -0.53624015602E+01 -0.29920692878E+01 -0.31794267700E+00  0.61488955857E+01  0.51100000000E-03 0.  1.
         12    1    3    3    0    0  0.90574432745E+00 -0.22350891733E+01  0.20815360629E+01  0.31857163685E+01  0.00000000000E+00 0. -1.
</event>
<event>
 7    1  0.2430096E-009  0.4778733E+02  0.7816164E-02  0.1312667E+00
        -11   -1    0    0    0    0  0.00000000000E+00  0.00000000000E+00  0.45593999997E+02  0.45594000000E+02  0.51100000000E-03 0. -1.
         11   -1    0    0    0    0 -0.00000000000E+00 -0.00000000000E+00 -0.45593999997E+02  0.45594000000E+02  0.51100000000E-03 0.  1.
    9900012    2    1    2    0    0  0.30200356239E+02 -0.20438540000E+02  0.23533435746E+02  0.47787331430E+02  0.20000275320E+02 0.  0.
        -12    1    1    2    0    0 -0.30200356239E+02  0.20438540000E+02 -0.23533435746E+02  0.43400668570E+02  0.00000000000E+00 0.  1.
         11    1    3    3    0    0  0.26318262695E+02 -0.81024914569E+01  0.13031000532E+02  0.30464869838E+02  0.51100000000E-03 0. -1.
        -11    1    3    3    0    0  0.13091741707E+01 -0.60368668964E+00  0.12119015456E+00  0.14467418371E+01  0.51100000000E-03 0.  1.
         12    1    3    3    0    0  0.25729193733E+01 -0.11732361854E+02  0.10381245059E+02  0.15875719755E+02  0.00000000000E+00 0. -1.
</event>
<event>
 7    1  0.2430096E-009  0.4778729E+02  0.7816164E-02  0.1312668E+00
        -11   -1    0    0    0    0  0.00000000000E+00  0.00000000000E+00  0.45593999997E+02  0.45594000000E+02  0.51100000000E-03 0.  1.
         11   -1    0    0    0    0 -0.00000000000E+00 -0.00000000000E+00 -0.45593999997E+02  0.45594000000E+02  0.51100000000E-03 0. -1.
    9900012    2    1    2    0    0 -0.32682999328E+02  0.28554768190E+02 -0.26233768514E+00  0.47787285115E+02  0.20000064155E+02 0.  0.
        -12    1    1    2    0    0  0.32682999328E+02 -0.28554768190E+02  0.26233768514E+00  0.43400714885E+02  0.00000000000E+00 0.  1.
         11    1    3    3    0    0 -0.77898491268E+01  0.15955885534E+02 -0.57940908230E+01  0.18677353167E+02  0.51100000000E-03 0. -1.
        -11    1    3    3    0    0 -0.75742110097E+01  0.80701970063E+00  0.18203944763E+01  0.78315892083E+01  0.51100000000E-03 0.  1.
         12    1    3    3    0    0 -0.17318939191E+02  0.11791862955E+02  0.37113586616E+01  0.21278342740E+02  0.00000000000E+00 0. -1.
</event>
<event>
 7    1  0.2430096E-009  0.4778727E+02  0.7816164E-02  0.1312668E+00
        -11   -1    0    0    0    0  0.00000000000E+00  0.00000000000E+00  0.45593999997E+02  0.45594000000E+02  0.51100000000E-03 0.  1.
         11   -1    0    0    0    0 -0.00000000000E+00 -0.00000000000E+00 -0.45593999997E+02  0.45594000000E+02  0.51100000000E-03 0. -1.
    9900012    2    1    2    0    0  0.10600981237E+01  0.26653360413E+02 -0.34235910302E+02  0.47787274390E+02  0.20000015253E+02 0.  0.
        -12    1    1    2    0    0 -0.10600981237E+01 -0.26653360413E+02  0.34235910302E+02  0.43400725610E+02  0.00000000000E+00 0.  1.
         11    1    3    3    0    0 -0.34703505694E+01  0.13754050629E+01 -0.14016707697E+02  0.14505280662E+02  0.51100000000E-03 0. -1.
        -11    1    3    3    0    0  0.40904704874E+01  0.18314409820E+02 -0.11110887907E+02  0.21808287099E+02  0.51100000000E-03 0.  1.
        -12    1    3    3    0    0  0.43997820575E+00  0.69635455300E+01 -0.91083146978E+01  0.11473706629E+02  0.00000000000E+00 0.  1.
</event>
<event>
 7    1  0.2430096E-009  0.4778727E+02  0.7816164E-02  0.1312668E+00
        -11   -1    0    0    0    0  0.00000000000E+00  0.00000000000E+00  0.45593999997E+02  0.45594000000E+02  0.51100000000E-03 0. -1.
         11   -1    0    0    0    0 -0.00000000000E+00 -0.00000000000E+00 -0.45593999997E+02  0.45594000000E+02  0.51100000000E-03 0.  1.
    9900012    2    1    2    0    0 -0.27700189106E+02  0.32332043813E+02  0.84238790791E+01  0.47787271062E+02  0.20000000078E+02 0.  0.
        -12    1    1    2    0    0  0.27700189106E+02 -0.32332043813E+02 -0.84238790791E+01  0.43400728938E+02  0.00000000000E+00 0.  1.
         11    1    3    3    0    0 -0.13237218298E+02  0.18890974665E+02  0.82624592899E+00  0.23081931346E+02  0.51100000000E-03 0. -1.
        -11    1    3    3    0    0 -0.14635086302E+02  0.60075344525E+01  0.68258325577E+01  0.17229863947E+02  0.51100000000E-03 0.  1.
        -12    1    3    3    0    0  0.17211549365E+00  0.74335346953E+01  0.77180059234E+00  0.74754757684E+01  0.00000000000E+00 0.  1.
</event>
<event>
 7    1  0.2430096E-009  0.4778726E+02  0.7816164E-02  0.1312668E+00
        -11   -1    0    0    0    0  0.00000000000E+00  0.00000000000E+00  0.45593999997E+02  0.45594000000E+02  0.51100000000E-03 0. -1.
         11   -1    0    0    0    0 -0.00000000000E+00 -0.00000000000E+00 -0.45593999997E+02  0.45594000000E+02  0.51100000000E-03 0.  1.
    9900012    2    1    2    0    0  0.15373054983E+02  0.34431840243E+02  0.21488171632E+02  0.47787263115E+02  0.19999963849E+02 0.  0.
        -12    1    1    2    0    0 -0.15373054983E+02 -0.34431840243E+02 -0.21488171632E+02  0.43400736885E+02  0.00000000000E+00 0.  1.
         11    1    3    3    0    0  0.29800362085E+01  0.25059981574E+01  0.72996703097E+01  0.82731994694E+01  0.51100000000E-03 0. -1.
        -11    1    3    3    0    0  0.95538328885E+01  0.28126724921E+02  0.16772389987E+02  0.34113068519E+02  0.51100000000E-03 0.  1.
        -12    1    3    3    0    0  0.28391858856E+01  0.37991171646E+01 -0.25838886653E+01  0.54009951267E+01  0.00000000000E+00 0.  1.
</event>
<event>
 7    1  0.2430096E-009  0.4778727E+02  0.7816164E-02  0.1312668E+00
        -11   -1    0    0    0    0  0.00000000000E+00  0.00000000000E+00  0.45593999997E+02  0.45594000000E+02  0.51100000000E-03 0.  1.
         11   -1    0    0    0    0 -0.00000000000E+00 -0.00000000000E+00 -0.45593999997E+02  0.45594000000E+02  0.51100000000E-03 0. -1.
    9900012    2    1    2    0    0 -0.16171985684E+02  0.34364585161E+02 -0.21003944112E+02  0.47787268411E+02  0.19999987993E+02 0.  0.
        -12    1    1    2    0    0  0.16171985684E+02 -0.34364585161E+02  0.21003944112E+02  0.43400731589E+02  0.00000000000E+00 0.  1.
         11    1    3    3    0    0 -0.55802221026E+01  0.19494840761E+02 -0.18915051695E+02  0.27730251998E+02  0.51100000000E-03 0. -1.
        -11    1    3    3    0    0 -0.61302291310E+01  0.12861809787E+02 -0.40088269268E+01  0.14801234874E+02  0.51100000000E-03 0.  1.
         12    1    3    3    0    0 -0.44615344502E+01  0.20079346130E+01  0.19199345106E+01  0.52557815389E+01  0.00000000000E+00 0. -1.
</event>
<event>
 7    1  0.2430096E-009  0.4778727E+02  0.7816164E-02  0.1312668E+00
        -11   -1    0    0    0    0  0.00000000000E+00  0.00000000000E+00  0.45593999997E+02  0.45594000000E+02  0.51100000000E-03 0.  1.
         11   -1    0    0    0    0 -0.00000000000E+00 -0.00000000000E+00 -0.45593999997E+02  0.45594000000E+02  0.51100000000E-03 0. -1.
    9900012    2    1    2    0    0  0.26698326010E+02 -0.34180481173E+02  0.15866363949E+01  0.47787270513E+02  0.19999997578E+02 0.  0.
        -12    1    1    2    0    0 -0.26698326010E+02  0.34180481173E+02 -0.15866363949E+01  0.43400729487E+02  0.00000000000E+00 0.  1.
         11    1    3    3    0    0  0.14505091953E+02 -0.79408271955E+01 -0.48098102579E+01  0.17221750901E+02  0.51100000000E-03 0. -1.
        -11    1    3    3    0    0  0.84457065303E+01 -0.19235177387E+02  0.79672556652E+01  0.22467736224E+02  0.51100000000E-03 0.  1.
         12    1    3    3    0    0  0.37475275270E+01 -0.70044765897E+01 -0.15708090125E+01  0.80977833890E+01  0.00000000000E+00 0. -1.
</event>
<event>
 7    1  0.2430096E-009  0.4778727E+02  0.7816164E-02  0.1312668E+00
        -11   -1    0    0    0    0  0.00000000000E+00  0.00000000000E+00  0.45593999997E+02  0.45594000000E+02  0.51100000000E-03 0.  1.
         11   -1    0    0    0    0 -0.00000000000E+00 -0.00000000000E+00 -0.45593999997E+02  0.45594000000E+02  0.51100000000E-03 0. -1.
    9900012    2    1    2    0    0  0.33517371351E+02 -0.16645930564E+02 -0.21980044419E+02  0.47787267987E+02  0.19999986058E+02 0.  0.
        -12    1    1    2    0    0 -0.33517371351E+02  0.16645930564E+02  0.21980044419E+02  0.43400732013E+02  0.00000000000E+00 0.  1.
         11    1    3    3    0    0  0.23519683668E+02 -0.10506322265E+02 -0.18317507485E+02  0.31608375601E+02  0.51100000000E-03 0. -1.
        -11    1    3    3    0    0  0.74982405479E+01 -0.87445968954E+01 -0.75573195274E+00  0.11543947212E+02  0.51100000000E-03 0.  1.
         12    1    3    3    0    0  0.24994471356E+01  0.26049885968E+01 -0.29068049810E+01  0.46349451745E+01  0.00000000000E+00 0. -1.
</event>
<event>
 7    1  0.2430096E-009  0.4778728E+02  0.7816164E-02  0.1312668E+00
        -11   -1    0    0    0    0  0.00000000000E+00  0.00000000000E+00  0.45593999997E+02  0.45594000000E+02  0.51100000000E-03 0.  1.
         11   -1    0    0    0    0 -0.00000000000E+00 -0.00000000000E+00 -0.45593999997E+02  0.45594000000E+02  0.51100000000E-03 0. -1.
    9900012    2    1    2    0    0  0.85562026556E+01  0.31937372787E+02 -0.28114380459E+02  0.47787276814E+02  0.20000026307E+02 0.  0.
        -12    1    1    2    0    0 -0.85562026556E+01 -0.31937372787E+02  0.28114380459E+02  0.43400723186E+02  0.00000000000E+00 0.  1.
         11    1    3    3    0    0  0.51726883478E+01  0.90118424291E+00 -0.74318932074E+01  0.90995535435E+01  0.51100000000E-03 0. -1.
        -11    1    3    3    0    0 -0.58054856420E+00  0.25614136275E+02 -0.13926232898E+02  0.29160949517E+02  0.51100000000E-03 0.  1.
         12    1    3    3    0    0  0.39640628720E+01  0.54220522700E+01 -0.67562543538E+01  0.95267737542E+01  0.00000000000E+00 0. -1.
</event>
<event>
 7    1  0.2430096E-009  0.4778727E+02  0.7816164E-02  0.1312668E+00
        -11   -1    0    0    0    0  0.00000000000E+00  0.00000000000E+00  0.45593999997E+02  0.45594000000E+02  0.51100000000E-03 0. -1.
         11   -1    0    0    0    0 -0.00000000000E+00 -0.00000000000E+00 -0.45593999997E+02  0.45594000000E+02  0.51100000000E-03 0.  1.
    9900012    2    1    2    0    0  0.22840512798E+02 -0.65006728819E+01  0.36327339381E+02  0.47787270060E+02  0.19999995512E+02 0.  0.
        -12    1    1    2    0    0 -0.22840512798E+02  0.65006728819E+01 -0.36327339381E+02  0.43400729940E+02  0.00000000000E+00 0.  1.
         11    1    3    3    0    0  0.16926873134E+02  0.22451970325E+01  0.20132102662E+02  0.26398134435E+02  0.51100000000E-03 0. -1.
        -11    1    3    3    0    0  0.62706890781E+01 -0.90543593634E+01  0.17116646582E+02  0.20353932187E+02  0.51100000000E-03 0.  1.
         12    1    3    3    0    0 -0.35704941362E+00  0.30848944903E+00 -0.92140986262E+00  0.10352034384E+01  0.00000000000E+00 0. -1.
</event>
<event>
 7    1  0.2430096E-009  0.4778728E+02  0.7816164E-02  0.1312668E+00
        -11   -1    0    0    0    0  0.00000000000E+00  0.00000000000E+00  0.45593999997E+02  0.45594000000E+02  0.51100000000E-03 0. -1.
         11   -1    0    0    0    0 -0.00000000000E+00 -0.00000000000E+00 -0.45593999997E+02  0.45594000000E+02  0.51100000000E-03 0.  1.
    9900012    2    1    2    0    0 -0.17900122974E+01  0.23414016528E+02  0.36499347215E+02  0.47787278104E+02  0.20000032187E+02 0.  0.
        -12    1    1    2    0    0  0.17900122974E+01 -0.23414016528E+02 -0.36499347215E+02  0.43400721896E+02  0.00000000000E+00 0.  1.
         11    1    3    3    0    0 -0.31091546084E+01  0.55851263664E+01  0.15570305570E+02  0.16831366394E+02  0.51100000000E-03 0. -1.
        -11    1    3    3    0    0  0.73893059980E+01  0.91624594898E+01  0.79202817047E+01  0.14187437033E+02  0.51100000000E-03 0.  1.
        -12    1    3    3    0    0 -0.60701636871E+01  0.86664306715E+01  0.13008759940E+02  0.16768474676E+02  0.00000000000E+00 0.  1.
</event>
<event>
 7    1  0.2430096E-009  0.4778727E+02  0.7816164E-02  0.1312668E+00
        -11   -1    0    0    0    0  0.00000000000E+00  0.00000000000E+00  0.45593999997E+02  0.45594000000E+02  0.51100000000E-03 0. -1.
         11   -1    0    0    0    0 -0.00000000000E+00 -0.00000000000E+00 -0.45593999997E+02  0.45594000000E+02  0.51100000000E-03 0.  1.
    9900012    2    1    2    0    0 -0.38543889256E+02 -0.14782133631E+02 -0.13397038110E+02  0.47787268396E+02  0.19999987925E+02 0.  0.
        -12    1    1    2    0    0  0.38543889256E+02  0.14782133631E+02  0.13397038110E+02  0.43400731604E+02  0.00000000000E+00 0.  1.
         11    1    3    3    0    0 -0.12141501658E+02 -0.31208169126E+01  0.11353862735E+01  0.12587480406E+02  0.51100000000E-03 0. -1.
        -11    1    3    3    0    0 -0.16143062435E+02 -0.74405209255E-01 -0.45084828413E+01  0.16760979049E+02  0.51100000000E-03 0.  1.
         12    1    3    3    0    0 -0.10259325163E+02 -0.11586911509E+02 -0.10023941542E+02  0.18438808941E+02  0.00000000000E+00 0. -1.
</event>
<event>
 7    1  0.2430096E-009  0.4778728E+02  0.7816164E-02  0.1312668E+00
        -11   -1    0    0    0    0  0.00000000000E+00  0.00000000000E+00  0.45593999997E+02  0.45594000000E+02  0.51100000000E-03 0. -1.
         11   -1    0    0    0    0 -0.00000000000E+00 -0.00000000000E+00 -0.45593999997E+02  0.45594000000E+02  0.51100000000E-03 0.  1.
    9900012    2    1    2    0    0 -0.39897352099E+02 -0.12238911738E+02  0.11917735427E+02  0.47787284767E+02  0.20000062567E+02 0.  0.
        -12    1    1    2    0    0  0.39897352099E+02  0.12238911738E+02 -0.11917735427E+02  0.43400715233E+02  0.00000000000E+00 0.  1.
         11    1    3    3    0    0 -0.36981602118E+01  0.44667644225E+01  0.31894027405E+01  0.66182069672E+01  0.51100000000E-03 0.  1.
        -11    1    3    3    0    0 -0.26019409593E+02 -0.14153619077E+02  0.50433815687E+01  0.30046136298E+02  0.51100000000E-03 0. -1.
        -12    1    3    3    0    0 -0.10179782294E+02 -0.25520570827E+01  0.36849511177E+01  0.11122941502E+02  0.00000000000E+00 0.  1.
</event>
<event>
 7    1  0.2430096E-009  0.4778730E+02  0.7816164E-02  0.1312668E+00
        -11   -1    0    0    0    0  0.00000000000E+00  0.00000000000E+00  0.45593999997E+02  0.45594000000E+02  0.51100000000E-03 0.  1.
         11   -1    0    0    0    0 -0.00000000000E+00 -0.00000000000E+00 -0.45593999997E+02  0.45594000000E+02  0.51100000000E-03 0. -1.
    9900012    2    1    2    0    0 -0.60199316939E+01  0.10787612451E+02 -0.41605389383E+02  0.47787302013E+02  0.20000141199E+02 0.  0.
        -12    1    1    2    0    0  0.60199316939E+01 -0.10787612451E+02  0.41605389383E+02  0.43400697987E+02  0.00000000000E+00 0.  1.
         11    1    3    3    0    0 -0.45382096685E+01  0.64082826612E+00 -0.86663813858E+01  0.98036816782E+01  0.51100000000E-03 0. -1.
        -11    1    3    3    0    0  0.66247051204E+01  0.77300917344E+01 -0.14729845084E+02  0.17905568201E+02  0.51100000000E-03 0.  1.
        -12    1    3    3    0    0 -0.81064271459E+01  0.24166924509E+01 -0.18209162914E+02  0.20078052134E+02  0.00000000000E+00 0.  1.
</event>
<event>
 7    1  0.2430096E-009  0.4778727E+02  0.7816164E-02  0.1312668E+00
        -11   -1    0    0    0    0  0.00000000000E+00  0.00000000000E+00  0.45593999997E+02  0.45594000000E+02  0.51100000000E-03 0.  1.
         11   -1    0    0    0    0 -0.00000000000E+00 -0.00000000000E+00 -0.45593999997E+02  0.45594000000E+02  0.51100000000E-03 0. -1.
    9900012    2    1    2    0    0  0.36949066411E+02  0.19023740449E+01 -0.22688564945E+02  0.47787268268E+02  0.19999987340E+02 0.  0.
        -12    1    1    2    0    0 -0.36949066411E+02 -0.19023740449E+01  0.22688564945E+02  0.43400731732E+02  0.00000000000E+00 0.  1.
         11    1    3    3    0    0  0.11397530011E+02  0.40872166527E+01 -0.16521120871E+02  0.20483077538E+02  0.51100000000E-03 0. -1.
        -11    1    3    3    0    0  0.19493014008E+02  0.13416486679E+01 -0.52662435409E+01  0.20236376592E+02  0.51100000000E-03 0.  1.
        -12    1    3    3    0    0  0.60585223917E+01 -0.35264912757E+01 -0.90120053224E+00  0.70678141378E+01  0.00000000000E+00 0.  1.
</event>
<event>
 7    1  0.2430096E-009  0.4778727E+02  0.7816164E-02  0.1312668E+00
        -11   -1    0    0    0    0  0.00000000000E+00  0.00000000000E+00  0.45593999997E+02  0.45594000000E+02  0.51100000000E-03 0. -1.
         11   -1    0    0    0    0 -0.00000000000E+00 -0.00000000000E+00 -0.45593999997E+02  0.45594000000E+02  0.51100000000E-03 0.  1.
    9900012    2    1    2    0    0  0.20588827680E+02  0.34281620067E+02  0.16866953665E+02  0.47787269297E+02  0.19999992031E+02 0.  0.
        -12    1    1    2    0    0 -0.20588827680E+02 -0.34281620067E+02 -0.16866953665E+02  0.43400730703E+02  0.00000000000E+00 0.  1.
         11    1    3    3    0    0  0.17690627475E+02  0.30868140043E+02  0.82613819255E+01  0.36524660187E+02  0.51100000000E-03 0. -1.
        -11    1    3    3    0    0  0.30850077835E+01 -0.33226830122E+00  0.58039658326E+01  0.65813140705E+01  0.51100000000E-03 0.  1.
        -12    1    3    3    0    0 -0.18680757914E+00  0.37457483257E+01  0.28016059065E+01  0.46812950394E+01  0.00000000000E+00 0.  1.
</event>
<event>
 7    1  0.2430096E-009  0.4778727E+02  0.7816164E-02  0.1312668E+00
        -11   -1    0    0    0    0  0.00000000000E+00  0.00000000000E+00  0.45593999997E+02  0.45594000000E+02  0.51100000000E-03 0.  1.
         11   -1    0    0    0    0 -0.00000000000E+00 -0.00000000000E+00 -0.45593999997E+02  0.45594000000E+02  0.51100000000E-03 0. -1.
    9900012    2    1    2    0    0 -0.28186160066E+02  0.14053793899E+02 -0.29860584717E+02  0.47787271183E+02  0.20000000631E+02 0.  0.
        -12    1    1    2    0    0  0.28186160066E+02 -0.14053793899E+02  0.29860584717E+02  0.43400728817E+02  0.00000000000E+00 0.  1.
         11    1    3    3    0    0 -0.87617095078E+01  0.79149073172E+01 -0.23189210327E+02  0.26022159541E+02  0.51100000000E-03 0. -1.
        -11    1    3    3    0    0 -0.80352899618E+01  0.93000952410E+00 -0.15577243428E+01  0.82375547266E+01  0.51100000000E-03 0.  1.
         12    1    3    3    0    0 -0.11389160596E+02  0.52088770572E+01 -0.51136500476E+01  0.13527556915E+02  0.00000000000E+00 0. -1.
</event>
<event>
 7    1  0.2430096E-009  0.4778727E+02  0.7816164E-02  0.1312668E+00
        -11   -1    0    0    0    0  0.00000000000E+00  0.00000000000E+00  0.45593999997E+02  0.45594000000E+02  0.51100000000E-03 0. -1.
         11   -1    0    0    0    0 -0.00000000000E+00 -0.00000000000E+00 -0.45593999997E+02  0.45594000000E+02  0.51100000000E-03 0.  1.
    9900012    2    1    2    0    0  0.20699005546E+02 -0.22289853722E+02  0.30957019241E+02  0.47787269017E+02  0.19999990758E+02 0.  0.
        -12    1    1    2    0    0 -0.20699005546E+02  0.22289853722E+02 -0.30957019241E+02  0.43400730983E+02  0.00000000000E+00 0.  1.
         11    1    3    3    0    0  0.16731505641E+02 -0.12624527291E+02  0.11654779376E+02  0.23982407154E+02  0.51100000000E-03 0. -1.
        -11    1    3    3    0    0  0.51375255837E+01 -0.57820585994E+01  0.17923478958E+02  0.19521205623E+02  0.51100000000E-03 0.  1.
        -12    1    3    3    0    0 -0.11700256794E+01 -0.38832678316E+01  0.13787609071E+01  0.42836562399E+01  0.00000000000E+00 0.  1.
</event>
<event>
 7    1  0.2430096E-009  0.4778727E+02  0.7816164E-02  0.1312668E+00
        -11   -1    0    0    0    0  0.00000000000E+00  0.00000000000E+00  0.45593999997E+02  0.45594000000E+02  0.51100000000E-03 0. -1.
         11   -1    0    0    0    0 -0.00000000000E+00 -0.00000000000E+00 -0.45593999997E+02  0.45594000000E+02  0.51100000000E-03 0.  1.
    9900012    2    1    2    0    0 -0.10112574568E+02 -0.28090525979E+02  0.31500497025E+02  0.47787272736E+02  0.20000007715E+02 0.  0.
        -12    1    1    2    0    0  0.10112574568E+02  0.28090525979E+02 -0.31500497025E+02  0.43400727264E+02  0.00000000000E+00 0.  1.
         11    1    3    3    0    0  0.27404932474E+01 -0.90364186325E+01  0.31933861117E+01  0.99681934201E+01  0.51100000000E-03 0. -1.
        -11    1    3    3    0    0  0.16000526818E+01 -0.10720415074E+01  0.14327635603E+01  0.24004693831E+01  0.51100000000E-03 0.  1.
         12    1    3    3    0    0 -0.14453120497E+02 -0.17982065839E+02  0.26874347353E+02  0.35418609933E+02  0.00000000000E+00 0. -1.
</event>
<event>
 7    1  0.2430096E-009  0.4778727E+02  0.7816164E-02  0.1312668E+00
        -11   -1    0    0    0    0  0.00000000000E+00  0.00000000000E+00  0.45593999997E+02  0.45594000000E+02  0.51100000000E-03 0.  1.
         11   -1    0    0    0    0 -0.00000000000E+00 -0.00000000000E+00 -0.45593999997E+02  0.45594000000E+02  0.51100000000E-03 0. -1.
    9900012    2    1    2    0    0  0.41025119420E+02  0.31955380716E+01 -0.13796805556E+02  0.47787265783E+02  0.19999976011E+02 0.  0.
        -12    1    1    2    0    0 -0.41025119420E+02 -0.31955380716E+01  0.13796805556E+02  0.43400734217E+02  0.00000000000E+00 0.  1.
         11    1    3    3    0    0  0.21149186373E+02 -0.14219023169E+01 -0.12566803610E+02  0.24642127418E+02  0.51100000000E-03 0. -1.
        -11    1    3    3    0    0  0.17500724729E+02 -0.38573959050E-02 -0.27862320897E+01  0.17721130619E+02  0.51100000000E-03 0.  1.
         12    1    3    3    0    0  0.23752083184E+01  0.46212977843E+01  0.15562301435E+01  0.54240077459E+01  0.00000000000E+00 0. -1.
</event>
<event>
 7    1  0.3176147E-009  0.4778727E+02  0.7816164E-02  0.1312668E+00
        -11   -1    0    0    0    0  0.00000000000E+00  0.00000000000E+00  0.45593999997E+02  0.45594000000E+02  0.51100000000E-03 0. -1.
         11   -1    0    0    0    0 -0.00000000000E+00 -0.00000000000E+00 -0.45593999997E+02  0.45594000000E+02  0.51100000000E-03 0.  1.
    9900012    2    1    2    0    0 -0.98776830298E+01  0.21351695727E+02  0.36471358057E+02  0.47787268544E+02  0.19999988598E+02 0.  0.
        -12    1    1    2    0    0  0.98776830298E+01 -0.21351695727E+02 -0.36471358057E+02  0.43400731456E+02  0.00000000000E+00 0.  1.
         11    1    3    3    0    0 -0.24577484976E+00  0.13748718761E+02  0.28002385492E+02  0.31196494456E+02  0.51100000000E-03 0. -1.
        -11    1    3    3    0    0 -0.80639129132E+01  0.30305849029E+01  0.79619794532E+01  0.11730483937E+02  0.51100000000E-03 0.  1.
        -12    1    3    3    0    0 -0.15679952668E+01  0.45723920624E+01  0.50699311147E+00  0.48602901502E+01  0.00000000000E+00 0.  1.
</event>
<event>
 7    1  0.2430096E-009  0.4778727E+02  0.7816164E-02  0.1312668E+00
        -11   -1    0    0    0    0  0.00000000000E+00  0.00000000000E+00  0.45593999997E+02  0.45594000000E+02  0.51100000000E-03 0. -1.
         11   -1    0    0    0    0 -0.00000000000E+00 -0.00000000000E+00 -0.45593999997E+02  0.45594000000E+02  0.51100000000E-03 0.  1.
    9900012    2    1    2    0    0 -0.14336242717E+01  0.38349869534E+02  0.20269578933E+02  0.47787267265E+02  0.19999982766E+02 0.  0.
        -12    1    1    2    0    0  0.14336242717E+01 -0.38349869534E+02 -0.20269578933E+02  0.43400732735E+02  0.00000000000E+00 0.  1.
         11    1    3    3    0    0 -0.17270547819E+01  0.30265411702E+02  0.19777979379E+02  0.36195943588E+02  0.51100000000E-03 0. -1.
        -11    1    3    3    0    0  0.35610758167E+00  0.90539807691E+01 -0.16771606425E+01  0.92148927535E+01  0.51100000000E-03 0.  1.
        -12    1    3    3    0    0 -0.62677071468E-01 -0.96952293634E+00  0.21687601968E+01  0.23764309227E+01  0.00000000000E+00 0.  1.
</event>
<event>
 7    1  0.2430096E-009  0.4778727E+02  0.7816164E-02  0.1312668E+00
        -11   -1    0    0    0    0  0.00000000000E+00  0.00000000000E+00  0.45593999997E+02  0.45594000000E+02  0.51100000000E-03 0. -1.
         11   -1    0    0    0    0 -0.00000000000E+00 -0.00000000000E+00 -0.45593999997E+02  0.45594000000E+02  0.51100000000E-03 0.  1.
    9900012    2    1    2    0    0  0.35944161245E+01  0.42333377982E+02 -0.88650202747E+01  0.47787270707E+02  0.19999998463E+02 0.  0.
        -12    1    1    2    0    0 -0.35944161245E+01 -0.42333377982E+02  0.88650202747E+01  0.43400729293E+02  0.00000000000E+00 0.  1.
         11    1    3    3    0    0  0.35226172672E+01  0.40486534015E+02 -0.12801831689E+02  0.42608158419E+02  0.51100000000E-03 0. -1.
        -11    1    3    3    0    0  0.20748520265E-01 -0.72708861800E+00  0.13265638386E+01  0.15128979604E+01  0.51100000000E-03 0.  1.
         12    1    3    3    0    0  0.51050337056E-01  0.25739325849E+01  0.26102475761E+01  0.36662143278E+01  0.00000000000E+00 0. -1.
</event>
<event>
 7    1  0.2430096E-009  0.4778727E+02  0.7816164E-02  0.1312668E+00
        -11   -1    0    0    0    0  0.00000000000E+00  0.00000000000E+00  0.45593999997E+02  0.45594000000E+02  0.51100000000E-03 0.  1.
         11   -1    0    0    0    0 -0.00000000000E+00 -0.00000000000E+00 -0.45593999997E+02  0.45594000000E+02  0.51100000000E-03 0. -1.
    9900012    2    1    2    0    0  0.37586712414E+01  0.19221620603E+02 -0.38730153216E+02  0.47787273321E+02  0.20000010382E+02 0.  0.
        -12    1    1    2    0    0 -0.37586712414E+01 -0.19221620603E+02  0.38730153216E+02  0.43400726679E+02  0.00000000000E+00 0.  1.
         11    1    3    3    0    0  0.74302938149E+01  0.18292012347E+02 -0.34860597769E+02  0.40063303145E+02  0.51100000000E-03 0. -1.
        -11    1    3    3    0    0 -0.23821487267E+01  0.16246942379E+01  0.66460382198E+00  0.29590475536E+01  0.51100000000E-03 0.  1.
         12    1    3    3    0    0 -0.12894738468E+01 -0.69508598135E+00 -0.45341592690E+01  0.47649226226E+01  0.00000000000E+00 0. -1.
</event>
<event>
 7    1  0.2430096E-009  0.4778727E+02  0.7816164E-02  0.1312668E+00
        -11   -1    0    0    0    0  0.00000000000E+00  0.00000000000E+00  0.45593999997E+02  0.45594000000E+02  0.51100000000E-03 0.  1.
         11   -1    0    0    0    0 -0.00000000000E+00 -0.00000000000E+00 -0.45593999997E+02  0.45594000000E+02  0.51100000000E-03 0. -1.
    9900012    2    1    2    0    0  0.11564885632E+02  0.34783735693E+02 -0.23237221703E+02  0.47787270503E+02  0.19999997529E+02 0.  0.
        -12    1    1    2    0    0 -0.11564885632E+02 -0.34783735693E+02  0.23237221703E+02  0.43400729497E+02  0.00000000000E+00 0.  1.
         11    1    3    3    0    0  0.41045625602E+01  0.24444838540E+01 -0.94292924906E+01  0.10570453739E+02  0.51100000000E-03 0. -1.
        -11    1    3    3    0    0  0.60451649691E+00  0.56707615267E+00 -0.27683618291E+01  0.28897825239E+01  0.51100000000E-03 0.  1.
         12    1    3    3    0    0  0.68558065745E+01  0.31772175687E+02 -0.11039567383E+02  0.34327034239E+02  0.00000000000E+00 0. -1.
</event>
<event>
 7    1  0.2430096E-009  0.4778727E+02  0.7816164E-02  0.1312668E+00
        -11   -1    0    0    0    0  0.00000000000E+00  0.00000000000E+00  0.45593999997E+02  0.45594000000E+02  0.51100000000E-03 0.  1.
         11   -1    0    0    0    0 -0.00000000000E+00 -0.00000000000E+00 -0.45593999997E+02  0.45594000000E+02  0.51100000000E-03 0. -1.
    9900012    2    1    2    0    0 -0.16025056572E+02  0.39729491166E+02 -0.69561618413E+01  0.47787273117E+02  0.20000009450E+02 0.  0.
        -12    1    1    2    0    0  0.16025056572E+02 -0.39729491166E+02  0.69561618413E+01  0.43400726883E+02  0.00000000000E+00 0.  1.
         11    1    3    3    0    0 -0.37348796469E+01 -0.21174739635E-02 -0.35920634976E+00  0.37521140605E+01  0.51100000000E-03 0. -1.
        -11    1    3    3    0    0 -0.14998760774E+02  0.32203901227E+02 -0.57940806263E+01  0.35994797535E+02  0.51100000000E-03 0.  1.
        -12    1    3    3    0    0  0.27085838488E+01  0.75277074124E+01 -0.80287486529E+00  0.80403615218E+01  0.00000000000E+00 0.  1.
</event>
<event>
 7    1  0.2430096E-009  0.4778723E+02  0.7816164E-02  0.1312668E+00
        -11   -1    0    0    0    0  0.00000000000E+00  0.00000000000E+00  0.45593999997E+02  0.45594000000E+02  0.51100000000E-03 0. -1.
         11   -1    0    0    0    0 -0.00000000000E+00 -0.00000000000E+00 -0.45593999997E+02  0.45594000000E+02  0.51100000000E-03 0.  1.
    9900012    2    1    2    0    0  0.24491662677E+02  0.68483871755E+01  0.35169368190E+02  0.47787234955E+02  0.19999835454E+02 0.  0.
        -12    1    1    2    0    0 -0.24491662677E+02 -0.68483871755E+01 -0.35169368190E+02  0.43400765045E+02  0.00000000000E+00 0.  1.
         11    1    3    3    0    0  0.53067040824E+01  0.78922806000E+01  0.31151256828E+01  0.10007657546E+02  0.51100000000E-03 0. -1.
        -11    1    3    3    0    0 -0.30201861703E+00  0.94453619134E-01  0.94768014685E-01  0.33033009086E+00  0.51100000000E-03 0.  1.
         12    1    3    3    0    0  0.19486977212E+02 -0.11383470436E+01  0.31959474492E+02  0.37449247318E+02  0.00000000000E+00 0. -1.
</event>
<event>
 7    1  0.2430096E-009  0.4778727E+02  0.7816164E-02  0.1312668E+00
        -11   -1    0    0    0    0  0.00000000000E+00  0.00000000000E+00  0.45593999997E+02  0.45594000000E+02  0.51100000000E-03 0. -1.
         11   -1    0    0    0    0 -0.00000000000E+00 -0.00000000000E+00 -0.45593999997E+02  0.45594000000E+02  0.51100000000E-03 0.  1.
    9900012    2    1    2    0    0  0.11215341094E+02  0.30648622687E+02  0.28609461387E+02  0.47787271558E+02  0.20000002341E+02 0.  0.
        -12    1    1    2    0    0 -0.11215341094E+02 -0.30648622687E+02 -0.28609461387E+02  0.43400728442E+02  0.00000000000E+00 0.  1.
         11    1    3    3    0    0  0.54848471240E+00  0.74486845305E+01  0.13900943420E+02  0.15780366439E+02  0.51100000000E-03 0. -1.
        -11    1    3    3    0    0  0.10995713374E+02  0.24391695397E+02  0.15084294391E+02  0.30714759554E+02  0.51100000000E-03 0.  1.
        -12    1    3    3    0    0 -0.32885699246E+00 -0.11917572404E+01 -0.37577642372E+00  0.12921455653E+01  0.00000000000E+00 0.  1.
</event>
<event>
 7    1  0.2430096E-009  0.4778726E+02  0.7816164E-02  0.1312668E+00
        -11   -1    0    0    0    0  0.00000000000E+00  0.00000000000E+00  0.45593999997E+02  0.45594000000E+02  0.51100000000E-03 0.  1.
         11   -1    0    0    0    0 -0.00000000000E+00 -0.00000000000E+00 -0.45593999997E+02  0.45594000000E+02  0.51100000000E-03 0. -1.
    9900012    2    1    2    0    0 -0.32272890162E+01  0.29762709566E+02 -0.31422759537E+02  0.47787261619E+02  0.19999957024E+02 0.  0.
        -12    1    1    2    0    0  0.32272890162E+01 -0.29762709566E+02  0.31422759537E+02  0.43400738381E+02  0.00000000000E+00 0.  1.
         11    1    3    3    0    0 -0.24668656390E+01  0.58227936483E+01 -0.16619508881E+02  0.17781969173E+02  0.51100000000E-03 0. -1.
        -11    1    3    3    0    0  0.20574805339E+01  0.71228676939E+01 -0.96951807611E+01  0.12205121900E+02  0.51100000000E-03 0.  1.
        -12    1    3    3    0    0 -0.28179039111E+01  0.16817048224E+02 -0.51080698947E+01  0.17800170546E+02  0.00000000000E+00 0.  1.
</event>
<event>
 7    1  0.2430096E-009  0.4778728E+02  0.7816164E-02  0.1312668E+00
        -11   -1    0    0    0    0  0.00000000000E+00  0.00000000000E+00  0.45593999997E+02  0.45594000000E+02  0.51100000000E-03 0.  1.
         11   -1    0    0    0    0 -0.00000000000E+00 -0.00000000000E+00 -0.45593999997E+02  0.45594000000E+02  0.51100000000E-03 0. -1.
    9900012    2    1    2    0    0 -0.32109177533E+02  0.29159669792E+02 -0.15288098437E+01  0.47787275539E+02  0.20000020491E+02 0.  0.
        -12    1    1    2    0    0  0.32109177533E+02 -0.29159669792E+02  0.15288098437E+01  0.43400724461E+02  0.00000000000E+00 0.  1.
         11    1    3    3    0    0 -0.75178687716E+01  0.83287091134E+01 -0.64297253489E+01  0.12931632329E+02  0.51100000000E-03 0. -1.
        -11    1    3    3    0    0 -0.56757312844E+01  0.72148502781E+01  0.68702904032E+01  0.11465987992E+02  0.51100000000E-03 0.  1.
        -12    1    3    3    0    0 -0.18915577477E+02  0.13616110401E+02 -0.19693748979E+01  0.23389655218E+02  0.00000000000E+00 0.  1.
</event>
<event>
 7    1  0.2430096E-009  0.4778727E+02  0.7816164E-02  0.1312668E+00
        -11   -1    0    0    0    0  0.00000000000E+00  0.00000000000E+00  0.45593999997E+02  0.45594000000E+02  0.51100000000E-03 0.  1.
         11   -1    0    0    0    0 -0.00000000000E+00 -0.00000000000E+00 -0.45593999997E+02  0.45594000000E+02  0.51100000000E-03 0. -1.
    9900012    2    1    2    0    0  0.10993755737E+02 -0.37272870099E+02 -0.19325981681E+02  0.47787273295E+02  0.20000010262E+02 0.  0.
        -12    1    1    2    0    0 -0.10993755737E+02  0.37272870099E+02  0.19325981681E+02  0.43400726705E+02  0.00000000000E+00 0.  1.
         11    1    3    3    0    0  0.14376045981E+01 -0.17363898115E+02 -0.56937488672E+01  0.18330042039E+02  0.51100000000E-03 0. -1.
        -11    1    3    3    0    0  0.10336850307E+02 -0.13007509282E+02 -0.14993399355E+02  0.22379629051E+02  0.51100000000E-03 0.  1.
        -12    1    3    3    0    0 -0.78069916844E+00 -0.69014627017E+01  0.13611665416E+01  0.70776022048E+01  0.00000000000E+00 0.  1.
</event>
<event>
 7    1  0.2430096E-009  0.4778727E+02  0.7816164E-02  0.1312668E+00
        -11   -1    0    0    0    0  0.00000000000E+00  0.00000000000E+00  0.45593999997E+02  0.45594000000E+02  0.51100000000E-03 0.  1.
         11   -1    0    0    0    0 -0.00000000000E+00 -0.00000000000E+00 -0.45593999997E+02  0.45594000000E+02  0.51100000000E-03 0. -1.
    9900012    2    1    2    0    0 -0.35750629468E+02 -0.15889070270E+02 -0.18789719086E+02  0.47787267232E+02  0.19999982619E+02 0.  0.
        -12    1    1    2    0    0  0.35750629468E+02  0.15889070270E+02  0.18789719086E+02  0.43400732768E+02  0.00000000000E+00 0.  1.
         11    1    3    3    0    0 -0.70704770842E+01 -0.69617295706E+01 -0.12297724905E+02  0.15801625325E+02  0.51100000000E-03 0. -1.
        -11    1    3    3    0    0 -0.18489234986E+02 -0.97529412544E+01 -0.26851231629E+01  0.21075615297E+02  0.51100000000E-03 0.  1.
        -12    1    3    3    0    0 -0.10190917398E+02  0.82560055476E+00 -0.38068710184E+01  0.10910026610E+02  0.00000000000E+00 0.  1.
</event>
<event>
 7    1  0.2430096E-009  0.4778727E+02  0.7816164E-02  0.1312668E+00
        -11   -1    0    0    0    0  0.00000000000E+00  0.00000000000E+00  0.45593999997E+02  0.45594000000E+02  0.51100000000E-03 0.  1.
         11   -1    0    0    0    0 -0.00000000000E+00 -0.00000000000E+00 -0.45593999997E+02  0.45594000000E+02  0.51100000000E-03 0. -1.
    9900012    2    1    2    0    0  0.19772140633E+02  0.36071203814E+02  0.13840297851E+02  0.47787272651E+02  0.20000007326E+02 0.  0.
        -12    1    1    2    0    0 -0.19772140633E+02 -0.36071203814E+02 -0.13840297851E+02  0.43400727349E+02  0.00000000000E+00 0.  1.
         11    1    3    3    0    0  0.50411458004E+00  0.14279472246E+02 -0.10844170566E+01  0.14329459856E+02  0.51100000000E-03 0. -1.
        -11    1    3    3    0    0  0.13869479583E+02  0.10550464925E+02  0.77622563421E+01  0.19076881239E+02  0.51100000000E-03 0.  1.
        -12    1    3    3    0    0  0.53985464699E+01  0.11241266643E+02  0.71624585656E+01  0.14380931556E+02  0.00000000000E+00 0.  1.
</event>
<event>
 7    1  0.2430096E-009  0.4778727E+02  0.7816164E-02  0.1312668E+00
        -11   -1    0    0    0    0  0.00000000000E+00  0.00000000000E+00  0.45593999997E+02  0.45594000000E+02  0.51100000000E-03 0. -1.
         11   -1    0    0    0    0 -0.00000000000E+00 -0.00000000000E+00 -0.45593999997E+02  0.45594000000E+02  0.51100000000E-03 0.  1.
    9900012    2    1    2    0    0  0.23704925377E+02 -0.20127111166E+02  0.30275391617E+02  0.47787269262E+02  0.19999991875E+02 0.  0.
        -12    1    1    2    0    0 -0.23704925377E+02  0.20127111166E+02 -0.30275391617E+02  0.43400730738E+02  0.00000000000E+00 0.  1.
         11    1    3    3    0    0  0.16680368633E+02 -0.21718054261E+02  0.18941756384E+02  0.33297127711E+02  0.51100000000E-03 0. -1.
        -11    1    3    3    0    0 -0.33924040281E+00  0.15103093684E+01  0.11767071278E+01  0.19444172302E+01  0.51100000000E-03 0.  1.
         12    1    3    3    0    0  0.73637971473E+01  0.80633727368E-01  0.10156928105E+02  0.12545724321E+02  0.00000000000E+00 0. -1.
</event>
<event>
 7    1  0.2430096E-009  0.4778728E+02  0.7816164E-02  0.1312668E+00
        -11   -1    0    0    0    0  0.00000000000E+00  0.00000000000E+00  0.45593999997E+02  0.45594000000E+02  0.51100000000E-03 0. -1.
         11   -1    0    0    0    0 -0.00000000000E+00 -0.00000000000E+00 -0.45593999997E+02  0.45594000000E+02  0.51100000000E-03 0.  1.
    9900012    2    1    2    0    0 -0.41232988495E+02 -0.72920794047E+01  0.11414423219E+02  0.47787276277E+02  0.20000023857E+02 0.  0.
        -12    1    1    2    0    0  0.41232988495E+02  0.72920794047E+01 -0.11414423219E+02  0.43400723723E+02  0.00000000000E+00 0.  1.
         11    1    3    3    0    0 -0.17155951480E+02 -0.28836497456E+01 -0.12875849122E+01  0.17444196233E+02  0.51100000000E-03 0. -1.
        -11    1    3    3    0    0 -0.31094040561E+01  0.31264687385E+01 -0.51173418598E+00  0.44390395915E+01  0.51100000000E-03 0.  1.
         12    1    3    3    0    0 -0.20967632959E+02 -0.75348983975E+01  0.13213742317E+02  0.25904040453E+02  0.00000000000E+00 0. -1.
</event>
<event>
 7    1  0.2430096E-009  0.4778727E+02  0.7816164E-02  0.1312668E+00
        -11   -1    0    0    0    0  0.00000000000E+00  0.00000000000E+00  0.45593999997E+02  0.45594000000E+02  0.51100000000E-03 0.  1.
         11   -1    0    0    0    0 -0.00000000000E+00 -0.00000000000E+00 -0.45593999997E+02  0.45594000000E+02  0.51100000000E-03 0. -1.
    9900012    2    1    2    0    0 -0.11188621530E+02  0.14926226944E+02 -0.39187318061E+02  0.47787269599E+02  0.19999993409E+02 0.  0.
        -12    1    1    2    0    0  0.11188621530E+02 -0.14926226944E+02  0.39187318061E+02  0.43400730401E+02  0.00000000000E+00 0.  1.
         11    1    3    3    0    0  0.15263918968E+01  0.10773737662E+02 -0.25587027228E+02  0.27804662524E+02  0.51100000000E-03 0. -1.
        -11    1    3    3    0    0 -0.10807146795E+02  0.56673891642E+01 -0.11246780046E+02  0.16595294015E+02  0.51100000000E-03 0.  1.
         12    1    3    3    0    0 -0.19078666320E+01 -0.15148998826E+01 -0.23535107873E+01  0.33873130600E+01  0.00000000000E+00 0. -1.
</event>
<event>
 7    1  0.2430096E-009  0.4778727E+02  0.7816164E-02  0.1312668E+00
        -11   -1    0    0    0    0  0.00000000000E+00  0.00000000000E+00  0.45593999997E+02  0.45594000000E+02  0.51100000000E-03 0.  1.
         11   -1    0    0    0    0 -0.00000000000E+00 -0.00000000000E+00 -0.45593999997E+02  0.45594000000E+02  0.51100000000E-03 0. -1.
    9900012    2    1    2    0    0 -0.48821977620E+01 -0.42894288554E+02 -0.44573006950E+01  0.47787269879E+02  0.19999994687E+02 0.  0.
        -12    1    1    2    0    0  0.48821977620E+01  0.42894288554E+02  0.44573006950E+01  0.43400730121E+02  0.00000000000E+00 0.  1.
         11    1    3    3    0    0 -0.78626761241E+01 -0.12338158608E+02 -0.37336384230E+01  0.15099400312E+02  0.51100000000E-03 0. -1.
        -11    1    3    3    0    0 -0.24807664306E+01 -0.41778717382E+01  0.26586344954E+01  0.55386958740E+01  0.51100000000E-03 0.  1.
         12    1    3    3    0    0  0.54612447926E+01 -0.26378258208E+02 -0.33822967673E+01  0.27149173693E+02  0.00000000000E+00 0. -1.
</event>
<event>
 7    1  0.2430096E-009  0.4778727E+02  0.7816164E-02  0.1312668E+00
        -11   -1    0    0    0    0  0.00000000000E+00  0.00000000000E+00  0.45593999997E+02  0.45594000000E+02  0.51100000000E-03 0.  1.
         11   -1    0    0    0    0 -0.00000000000E+00 -0.00000000000E+00 -0.45593999997E+02  0.45594000000E+02  0.51100000000E-03 0. -1.
    9900012    2    1    2    0    0 -0.40891413265E+02 -0.77468979472E+01 -0.12308598006E+02  0.47787266233E+02  0.19999978063E+02 0.  0.
        -12    1    1    2    0    0  0.40891413265E+02  0.77468979472E+01  0.12308598006E+02  0.43400733767E+02  0.00000000000E+00 0.  1.
         11    1    3    3    0    0 -0.11433782528E+02 -0.57943686117E+00 -0.11747859626E+02  0.16403637890E+02  0.51100000000E-03 0. -1.
        -11    1    3    3    0    0 -0.28628866419E+02 -0.55526195627E+01 -0.17480258186E+01  0.29214708127E+02  0.51100000000E-03 0.  1.
        -12    1    3    3    0    0 -0.82876431931E+00 -0.16148415234E+01  0.11872874390E+01  0.21689202165E+01  0.00000000000E+00 0.  1.
</event>
<event>
 7    1  0.2430096E-009  0.4778727E+02  0.7816164E-02  0.1312668E+00
        -11   -1    0    0    0    0  0.00000000000E+00  0.00000000000E+00  0.45593999997E+02  0.45594000000E+02  0.51100000000E-03 0. -1.
         11   -1    0    0    0    0 -0.00000000000E+00 -0.00000000000E+00 -0.45593999997E+02  0.45594000000E+02  0.51100000000E-03 0.  1.
    9900012    2    1    2    0    0  0.22947402100E+02  0.13904350641E+02  0.34113177613E+02  0.47787272855E+02  0.20000008255E+02 0.  0.
        -12    1    1    2    0    0 -0.22947402100E+02 -0.13904350641E+02 -0.34113177613E+02  0.43400727145E+02  0.00000000000E+00 0.  1.
         11    1    3    3    0    0  0.18313461603E+02  0.83663465309E+01  0.30108195702E+02  0.36219912739E+02  0.51100000000E-03 0. -1.
        -11    1    3    3    0    0  0.50066605262E+00  0.45495480202E+01 -0.13113432571E+01  0.47611632069E+01  0.51100000000E-03 0.  1.
        -12    1    3    3    0    0  0.41332744434E+01  0.98845608984E+00  0.53163251682E+01  0.68061969088E+01  0.00000000000E+00 0.  1.
</event>
<event>
 7    1  0.2430096E-009  0.4778727E+02  0.7816164E-02  0.1312668E+00
        -11   -1    0    0    0    0  0.00000000000E+00  0.00000000000E+00  0.45593999997E+02  0.45594000000E+02  0.51100000000E-03 0. -1.
         11   -1    0    0    0    0 -0.00000000000E+00 -0.00000000000E+00 -0.45593999997E+02  0.45594000000E+02  0.51100000000E-03 0.  1.
    9900012    2    1    2    0    0 -0.24426630514E+01 -0.36133419105E+02  0.23917200613E+02  0.47787273460E+02  0.20000011016E+02 0.  0.
        -12    1    1    2    0    0  0.24426630514E+01  0.36133419105E+02 -0.23917200613E+02  0.43400726540E+02  0.00000000000E+00 0.  1.
         11    1    3    3    0    0  0.46594202317E+01 -0.10723337860E+02  0.98703086579E+01  0.15301083786E+02  0.51100000000E-03 0. -1.
        -11    1    3    3    0    0 -0.46413932210E+01 -0.26015428168E+02  0.11276315869E+02  0.28731521603E+02  0.51100000000E-03 0.  1.
        -12    1    3    3    0    0 -0.24606900621E+01  0.60534692301E+00  0.27705760860E+01  0.37546680715E+01  0.00000000000E+00 0.  1.
</event>
<event>
 7    1  0.2430096E-009  0.4778727E+02  0.7816164E-02  0.1312668E+00
        -11   -1    0    0    0    0  0.00000000000E+00  0.00000000000E+00  0.45593999997E+02  0.45594000000E+02  0.51100000000E-03 0. -1.
         11   -1    0    0    0    0 -0.00000000000E+00 -0.00000000000E+00 -0.45593999997E+02  0.45594000000E+02  0.51100000000E-03 0.  1.
    9900012    2    1    2    0    0  0.36745133300E+02  0.41748625814E+01 -0.22715387760E+02  0.47787272588E+02  0.20000007038E+02 0.  0.
        -12    1    1    2    0    0 -0.36745133300E+02 -0.41748625814E+01  0.22715387760E+02  0.43400727412E+02  0.00000000000E+00 0.  1.
         11    1    3    3    0    0  0.51049758508E+01 -0.11133647548E+01 -0.15733231209E+01  0.54567119603E+01  0.51100000000E-03 0. -1.
        -11    1    3    3    0    0  0.18393123672E+02  0.55667619028E+01 -0.23834073488E+01  0.19364309111E+02  0.51100000000E-03 0.  1.
        -12    1    3    3    0    0  0.13247033777E+02 -0.27853456660E+00 -0.18758657290E+02  0.22966251517E+02  0.00000000000E+00 0.  1.
</event>
<event>
 7    1  0.2430096E-009  0.4778731E+02  0.7816164E-02  0.1312668E+00
        -11   -1    0    0    0    0  0.00000000000E+00  0.00000000000E+00  0.45593999997E+02  0.45594000000E+02  0.51100000000E-03 0. -1.
         11   -1    0    0    0    0 -0.00000000000E+00 -0.00000000000E+00 -0.45593999997E+02  0.45594000000E+02  0.51100000000E-03 0.  1.
    9900012    2    1    2    0    0 -0.35396921751E+02 -0.15493842880E+02  0.19764081731E+02  0.47787306880E+02  0.20000163390E+02 0.  0.
        -12    1    1    2    0    0  0.35396921751E+02  0.15493842880E+02 -0.19764081731E+02  0.43400693120E+02  0.00000000000E+00 0.  1.
         11    1    3    3    0    0  0.59772165081E+00 -0.37109098641E+01 -0.50258624269E+00  0.37921915015E+01  0.51100000000E-03 0. -1.
        -11    1    3    3    0    0 -0.57718461504E+01 -0.11383817455E+01 -0.34927463653E+00  0.58933957966E+01  0.51100000000E-03 0.  1.
         12    1    3    3    0    0 -0.30222797251E+02 -0.10644551270E+02  0.20615942610E+02  0.38101719582E+02  0.00000000000E+00 0. -1.
</event>
<event>
 7    1  0.2430096E-009  0.4778727E+02  0.7816164E-02  0.1312668E+00
        -11   -1    0    0    0    0  0.00000000000E+00  0.00000000000E+00  0.45593999997E+02  0.45594000000E+02  0.51100000000E-03 0.  1.
         11   -1    0    0    0    0 -0.00000000000E+00 -0.00000000000E+00 -0.45593999997E+02  0.45594000000E+02  0.51100000000E-03 0. -1.
    9900012    2    1    2    0    0 -0.26080093648E+02 -0.34689535627E+02 -0.29669674287E+00  0.47787271945E+02  0.20000004106E+02 0.  0.
        -12    1    1    2    0    0  0.26080093648E+02  0.34689535627E+02  0.29669674287E+00  0.43400728055E+02  0.00000000000E+00 0.  1.
         11    1    3    3    0    0 -0.21498800291E+02 -0.14156154533E+02  0.11510392770E+01  0.25766645432E+02  0.51100000000E-03 0. -1.
        -11    1    3    3    0    0 -0.15924406381E+01 -0.12287180048E+02  0.20861401515E+01  0.12564340083E+02  0.51100000000E-03 0.  1.
         12    1    3    3    0    0 -0.29888527193E+01 -0.82462010459E+01 -0.35338761714E+01  0.94562864308E+01  0.00000000000E+00 0. -1.
</event>
<event>
 7    1  0.2430096E-009  0.4778727E+02  0.7816164E-02  0.1312668E+00
        -11   -1    0    0    0    0  0.00000000000E+00  0.00000000000E+00  0.45593999997E+02  0.45594000000E+02  0.51100000000E-03 0.  1.
         11   -1    0    0    0    0 -0.00000000000E+00 -0.00000000000E+00 -0.45593999997E+02  0.45594000000E+02  0.51100000000E-03 0. -1.
    9900012    2    1    2    0    0  0.14527607037E+02  0.13421999496E+02 -0.38631872490E+02  0.47787274099E+02  0.20000013925E+02 0.  0.
        -12    1    1    2    0    0 -0.14527607037E+02 -0.13421999496E+02  0.38631872490E+02  0.43400725901E+02  0.00000000000E+00 0.  1.
         11    1    3    3    0    0  0.80994310233E+01  0.28980477794E+01 -0.23904968309E+01  0.89282663039E+01  0.51100000000E-03 0.  1.
        -11    1    3    3    0    0  0.13136237466E+01  0.35891388453E+01 -0.21048189695E+02  0.21392377491E+02  0.51100000000E-03 0. -1.
         12    1    3    3    0    0  0.51145522668E+01  0.69348128709E+01 -0.15193185964E+02  0.17466630304E+02  0.00000000000E+00 0. -1.
</event>
<event>
 7    1  0.2430096E-009  0.4778727E+02  0.7816164E-02  0.1312668E+00
        -11   -1    0    0    0    0  0.00000000000E+00  0.00000000000E+00  0.45593999997E+02  0.45594000000E+02  0.51100000000E-03 0. -1.
         11   -1    0    0    0    0 -0.00000000000E+00 -0.00000000000E+00 -0.45593999997E+02  0.45594000000E+02  0.51100000000E-03 0.  1.
    9900012    2    1    2    0    0  0.17023915163E+02  0.39908504346E+02 -0.10587246791E+01  0.47787270691E+02  0.19999998389E+02 0.  0.
        -12    1    1    2    0    0 -0.17023915163E+02 -0.39908504346E+02  0.10587246791E+01  0.43400729309E+02  0.00000000000E+00 0.  1.
         11    1    3    3    0    0  0.40148835497E+00  0.12553073874E+01  0.10714223027E+01  0.16985098022E+01  0.51100000000E-03 0. -1.
        -11    1    3    3    0    0  0.18160821431E+02  0.26398430827E+02 -0.70252139943E+01  0.32803143402E+02  0.51100000000E-03 0.  1.
        -12    1    3    3    0    0 -0.15383946220E+01  0.12254766131E+02  0.48950670125E+01  0.13285617487E+02  0.00000000000E+00 0.  1.
</event>
<event>
 7    1  0.2430096E-009  0.4778727E+02  0.7816164E-02  0.1312668E+00
        -11   -1    0    0    0    0  0.00000000000E+00  0.00000000000E+00  0.45593999997E+02  0.45594000000E+02  0.51100000000E-03 0. -1.
         11   -1    0    0    0    0 -0.00000000000E+00 -0.00000000000E+00 -0.45593999997E+02  0.45594000000E+02  0.51100000000E-03 0.  1.
    9900012    2    1    2    0    0 -0.40837413948E+02  0.14215561922E+02  0.37211551062E+01  0.47787267587E+02  0.19999984234E+02 0.  0.
        -12    1    1    2    0    0  0.40837413948E+02 -0.14215561922E+02 -0.37211551062E+01  0.43400732413E+02  0.00000000000E+00 0.  1.
         11    1    3    3    0    0 -0.55546545470E+01 -0.28769424061E+01 -0.40242794137E+01  0.74381321449E+01  0.51100000000E-03 0.  1.
        -11    1    3    3    0    0 -0.26538756247E+02  0.12183982997E+02  0.81354507124E+01  0.30314032779E+02  0.51100000000E-03 0. -1.
        -12    1    3    3    0    0 -0.87440031542E+01  0.49085213308E+01 -0.39001619248E+00  0.10035102662E+02  0.00000000000E+00 0.  1.
</event>
<event>
 7    1  0.2430096E-009  0.4778727E+02  0.7816164E-02  0.1312668E+00
        -11   -1    0    0    0    0  0.00000000000E+00  0.00000000000E+00  0.45593999997E+02  0.45594000000E+02  0.51100000000E-03 0.  1.
         11   -1    0    0    0    0 -0.00000000000E+00 -0.00000000000E+00 -0.45593999997E+02  0.45594000000E+02  0.51100000000E-03 0. -1.
    9900012    2    1    2    0    0  0.38389791373E+02 -0.17207165169E+02 -0.10665858464E+02  0.47787272453E+02  0.20000006422E+02 0.  0.
        -12    1    1    2    0    0 -0.38389791373E+02  0.17207165169E+02  0.10665858464E+02  0.43400727547E+02  0.00000000000E+00 0.  1.
         11    1    3    3    0    0  0.72345814373E+01  0.36171456578E+01 -0.13030074861E+01  0.81927248246E+01  0.51100000000E-03 0. -1.
        -11    1    3    3    0    0  0.43208971086E+01 -0.76301743011E+00  0.10458912170E+01  0.45106802281E+01  0.51100000000E-03 0.  1.
         12    1    3    3    0    0  0.26834312828E+02 -0.20061293396E+02 -0.10408742195E+02  0.35083867400E+02  0.00000000000E+00 0. -1.
</event>
<event>
 7    1  0.2430096E-009  0.4778727E+02  0.7816164E-02  0.1312668E+00
        -11   -1    0    0    0    0  0.00000000000E+00  0.00000000000E+00  0.45593999997E+02  0.45594000000E+02  0.51100000000E-03 0.  1.
         11   -1    0    0    0    0 -0.00000000000E+00 -0.00000000000E+00 -0.45593999997E+02  0.45594000000E+02  0.51100000000E-03 0. -1.
    9900012    2    1    2    0    0  0.31755285472E+02 -0.69066652075E+01 -0.28766699229E+02  0.47787272308E+02  0.20000005761E+02 0.  0.
        -12    1    1    2    0    0 -0.31755285472E+02  0.69066652075E+01  0.28766699229E+02  0.43400727692E+02  0.00000000000E+00 0.  1.
         11    1    3    3    0    0  0.38669033192E+00  0.91886591795E+00 -0.53356086269E+01  0.54279428579E+01  0.51100000000E-03 0.  1.
        -11    1    3    3    0    0  0.24735485610E+02 -0.10995699126E+02 -0.14229523913E+02  0.30581514002E+02  0.51100000000E-03 0. -1.
         12    1    3    3    0    0  0.66331095302E+01  0.31701680006E+01 -0.92015666890E+01  0.11777815448E+02  0.00000000000E+00 0. -1.
</event>
<event>
 7    1  0.2430096E-009  0.4778727E+02  0.7816164E-02  0.1312668E+00
        -11   -1    0    0    0    0  0.00000000000E+00  0.00000000000E+00  0.45593999997E+02  0.45594000000E+02  0.51100000000E-03 0.  1.
         11   -1    0    0    0    0 -0.00000000000E+00 -0.00000000000E+00 -0.45593999997E+02  0.45594000000E+02  0.51100000000E-03 0. -1.
    9900012    2    1    2    0    0  0.17949779246E+01  0.38014424739E+02 -0.20863958820E+02  0.47787271761E+02  0.20000003268E+02 0.  0.
        -12    1    1    2    0    0 -0.17949779246E+01 -0.38014424739E+02  0.20863958820E+02  0.43400728239E+02  0.00000000000E+00 0.  1.
         11    1    3    3    0    0  0.13815470347E+01  0.10508834975E+02 -0.50401848336E+01  0.11736598663E+02  0.51100000000E-03 0. -1.
        -11    1    3    3    0    0  0.59284593043E-01  0.19084789977E+02 -0.19106787916E+02  0.27005593270E+02  0.51100000000E-03 0.  1.
        -12    1    3    3    0    0  0.35414629680E+00  0.84207997866E+01  0.32830139294E+01  0.90450798286E+01  0.00000000000E+00 0.  1.
</event>
<event>
 7    1  0.2430096E-009  0.4778727E+02  0.7816164E-02  0.1312668E+00
        -11   -1    0    0    0    0  0.00000000000E+00  0.00000000000E+00  0.45593999997E+02  0.45594000000E+02  0.51100000000E-03 0.  1.
         11   -1    0    0    0    0 -0.00000000000E+00 -0.00000000000E+00 -0.45593999997E+02  0.45594000000E+02  0.51100000000E-03 0. -1.
    9900012    2    1    2    0    0 -0.23639397621E+00 -0.34769090764E+02 -0.25974559330E+02  0.47787270893E+02  0.19999999309E+02 0.  0.
        -12    1    1    2    0    0  0.23639397621E+00  0.34769090764E+02  0.25974559330E+02  0.43400729107E+02  0.00000000000E+00 0.  1.
         11    1    3    3    0    0 -0.80427091100E+01 -0.82890004631E+01 -0.10307722565E+02  0.15480369609E+02  0.51100000000E-03 0. -1.
        -11    1    3    3    0    0  0.39668736317E+01 -0.10346980341E+02 -0.31215624165E+01  0.11512612248E+02  0.51100000000E-03 0.  1.
        -12    1    3    3    0    0  0.38394415020E+01 -0.16133109959E+02 -0.12545274349E+02  0.20794289035E+02  0.00000000000E+00 0.  1.
</event>
<event>
 7    1  0.2430096E-009  0.4778727E+02  0.7816164E-02  0.1312668E+00
        -11   -1    0    0    0    0  0.00000000000E+00  0.00000000000E+00  0.45593999997E+02  0.45594000000E+02  0.51100000000E-03 0. -1.
         11   -1    0    0    0    0 -0.00000000000E+00 -0.00000000000E+00 -0.45593999997E+02  0.45594000000E+02  0.51100000000E-03 0.  1.
    9900012    2    1    2    0    0 -0.16496487593E+02  0.37231445568E+02  0.15010285118E+02  0.47787270728E+02  0.19999998558E+02 0.  0.
        -12    1    1    2    0    0  0.16496487593E+02 -0.37231445568E+02 -0.15010285118E+02  0.43400729272E+02  0.00000000000E+00 0.  1.
         11    1    3    3    0    0 -0.14379954260E+02  0.19750902495E+02  0.84323945448E+01  0.25845435031E+02  0.51100000000E-03 0. -1.
        -11    1    3    3    0    0  0.25966098355E+01  0.42226707008E+01  0.61037376898E+01  0.78631383386E+01  0.51100000000E-03 0.  1.
        -12    1    3    3    0    0 -0.47131431676E+01  0.13257872372E+02  0.47415288338E+00  0.14078697359E+02  0.00000000000E+00 0.  1.
</event>
<event>
 7    1  0.2430096E-009  0.4778727E+02  0.7816164E-02  0.1312668E+00
        -11   -1    0    0    0    0  0.00000000000E+00  0.00000000000E+00  0.45593999997E+02  0.45594000000E+02  0.51100000000E-03 0. -1.
         11   -1    0    0    0    0 -0.00000000000E+00 -0.00000000000E+00 -0.45593999997E+02  0.45594000000E+02  0.51100000000E-03 0.  1.
    9900012    2    1    2    0    0  0.25963923293E+02  0.34311007731E+02  0.56791692636E+01  0.47787268119E+02  0.19999986662E+02 0.  0.
        -12    1    1    2    0    0 -0.25963923293E+02 -0.34311007731E+02 -0.56791692636E+01  0.43400731881E+02  0.00000000000E+00 0.  1.
         11    1    3    3    0    0  0.26865988297E+02  0.31609498240E+02  0.62084891989E+01  0.41946239934E+02  0.51100000000E-03 0. -1.
        -11    1    3    3    0    0 -0.24330464095E+01 -0.34335808154E-01 -0.10726272857E+01  0.26592147965E+01  0.51100000000E-03 0.  1.
        -12    1    3    3    0    0  0.15309814046E+01  0.27358452991E+01  0.54330735039E+00  0.31818133884E+01  0.00000000000E+00 0.  1.
</event>
<event>
 7    1  0.2430096E-009  0.4778727E+02  0.7816164E-02  0.1312668E+00
        -11   -1    0    0    0    0  0.00000000000E+00  0.00000000000E+00  0.45593999997E+02  0.45594000000E+02  0.51100000000E-03 0.  1.
         11   -1    0    0    0    0 -0.00000000000E+00 -0.00000000000E+00 -0.45593999997E+02  0.45594000000E+02  0.51100000000E-03 0. -1.
    9900012    2    1    2    0    0 -0.27451821630E+02  0.29114690677E+02 -0.16803436120E+02  0.47787272016E+02  0.20000004432E+02 0.  0.
        -12    1    1    2    0    0  0.27451821630E+02 -0.29114690677E+02  0.16803436120E+02  0.43400727984E+02  0.00000000000E+00 0.  1.
         11    1    3    3    0    0 -0.89224415253E+00  0.43113274225E+01 -0.49213801446E+01  0.66033042154E+01  0.51100000000E-03 0. -1.
        -11    1    3    3    0    0 -0.13017984230E+02  0.19477146991E+02 -0.18305073091E+01  0.23498466452E+02  0.51100000000E-03 0.  1.
        -12    1    3    3    0    0 -0.13541593248E+02  0.53262162636E+01 -0.10051548666E+02  0.17685501349E+02  0.00000000000E+00 0.  1.
</event>
<event>
 7    1  0.2430096E-009  0.4778727E+02  0.7816164E-02  0.1312668E+00
        -11   -1    0    0    0    0  0.00000000000E+00  0.00000000000E+00  0.45593999997E+02  0.45594000000E+02  0.51100000000E-03 0. -1.
         11   -1    0    0    0    0 -0.00000000000E+00 -0.00000000000E+00 -0.45593999997E+02  0.45594000000E+02  0.51100000000E-03 0.  1.
    9900012    2    1    2    0    0 -0.37089099508E+02  0.21462382464E+02  0.68839102415E+01  0.47787269781E+02  0.19999994239E+02 0.  0.
        -12    1    1    2    0    0  0.37089099508E+02 -0.21462382464E+02 -0.68839102415E+01  0.43400730219E+02  0.00000000000E+00 0.  1.
         11    1    3    3    0    0 -0.65955743113E+01  0.51189373827E+01  0.15100263055E+01  0.84844151318E+01  0.51100000000E-03 0. -1.
        -11    1    3    3    0    0 -0.13260562056E+02  0.75092119705E+01 -0.65213858322E+01  0.16575863293E+02  0.51100000000E-03 0.  1.
        -12    1    3    3    0    0 -0.17232963141E+02  0.88342331103E+01  0.11895269768E+02  0.22726991356E+02  0.00000000000E+00 0.  1.
</event>
<event>
 7    1  0.2430096E-009  0.4778727E+02  0.7816164E-02  0.1312668E+00
        -11   -1    0    0    0    0  0.00000000000E+00  0.00000000000E+00  0.45593999997E+02  0.45594000000E+02  0.51100000000E-03 0. -1.
         11   -1    0    0    0    0 -0.00000000000E+00 -0.00000000000E+00 -0.45593999997E+02  0.45594000000E+02  0.51100000000E-03 0.  1.
    9900012    2    1    2    0    0 -0.26098244779E+02  0.27683025739E+02  0.20884321938E+02  0.47787271925E+02  0.20000004016E+02 0.  0.
        -12    1    1    2    0    0  0.26098244779E+02 -0.27683025739E+02 -0.20884321938E+02  0.43400728075E+02  0.00000000000E+00 0.  1.
         11    1    3    3    0    0 -0.14120479918E+02  0.21173728063E+02  0.18302088596E+02  0.31347745700E+02  0.51100000000E-03 0. -1.
        -11    1    3    3    0    0 -0.35547689925E+01  0.49919268736E+01 -0.23477364494E+01  0.65625896716E+01  0.51100000000E-03 0.  1.
         12    1    3    3    0    0 -0.84229958685E+01  0.15173708024E+01  0.49299697907E+01  0.98769365540E+01  0.00000000000E+00 0. -1.
</event>
<event>
 7    1  0.2430096E-009  0.4778727E+02  0.7816164E-02  0.1312668E+00
        -11   -1    0    0    0    0  0.00000000000E+00  0.00000000000E+00  0.45593999997E+02  0.45594000000E+02  0.51100000000E-03 0.  1.
         11   -1    0    0    0    0 -0.00000000000E+00 -0.00000000000E+00 -0.45593999997E+02  0.45594000000E+02  0.51100000000E-03 0. -1.
    9900012    2    1    2    0    0  0.37581327949E+02 -0.21708690921E+02 -0.72261712846E-02  0.47787268161E+02  0.19999986854E+02 0.  0.
        -12    1    1    2    0    0 -0.37581327949E+02  0.21708690921E+02  0.72261712846E-02  0.43400731839E+02  0.00000000000E+00 0.  1.
         11    1    3    3    0    0  0.40853084739E+01 -0.38322048526E+01 -0.64263314158E+01  0.85248621740E+01  0.51100000000E-03 0.  1.
        -11    1    3    3    0    0  0.10761886939E+02 -0.93767528578E+01  0.42575272376E+01  0.14895242297E+02  0.51100000000E-03 0. -1.
         12    1    3    3    0    0  0.22734132536E+02 -0.84997332107E+01  0.21615780069E+01  0.24367163690E+02  0.00000000000E+00 0. -1.
</event>
<event>
 7    1  0.2430096E-009  0.4778727E+02  0.7816164E-02  0.1312668E+00
        -11   -1    0    0    0    0  0.00000000000E+00  0.00000000000E+00  0.45593999997E+02  0.45594000000E+02  0.51100000000E-03 0.  1.
         11   -1    0    0    0    0 -0.00000000000E+00 -0.00000000000E+00 -0.45593999997E+02  0.45594000000E+02  0.51100000000E-03 0. -1.
    9900012    2    1    2    0    0 -0.56051194290E+01 -0.41993306290E+02 -0.94216930675E+01  0.47787269163E+02  0.19999991421E+02 0.  0.
        -12    1    1    2    0    0  0.56051194290E+01  0.41993306290E+02  0.94216930675E+01  0.43400730837E+02  0.00000000000E+00 0.  1.
         11    1    3    3    0    0 -0.99994737491E+01 -0.18426298676E+02 -0.33595628140E+01  0.21232160058E+02  0.51100000000E-03 0. -1.
        -11    1    3    3    0    0  0.29058647527E+01 -0.66306489487E+01 -0.62324055222E+01  0.95526140033E+01  0.51100000000E-03 0.  1.
         12    1    3    3    0    0  0.14884895674E+01 -0.16936358665E+02  0.17027526869E+00  0.17002495102E+02  0.00000000000E+00 0. -1.
</event>
<event>
 7    1  0.2430096E-009  0.4778727E+02  0.7816164E-02  0.1312668E+00
        -11   -1    0    0    0    0  0.00000000000E+00  0.00000000000E+00  0.45593999997E+02  0.45594000000E+02  0.51100000000E-03 0. -1.
         11   -1    0    0    0    0 -0.00000000000E+00 -0.00000000000E+00 -0.45593999997E+02  0.45594000000E+02  0.51100000000E-03 0.  1.
    9900012    2    1    2    0    0  0.12441648913E+02 -0.41557238560E+02  0.13508293679E+01  0.47787269080E+02  0.19999991045E+02 0.  0.
        -12    1    1    2    0    0 -0.12441648913E+02  0.41557238560E+02 -0.13508293679E+01  0.43400730920E+02  0.00000000000E+00 0.  1.
         11    1    3    3    0    0  0.14092481632E+02 -0.38510304986E+02 -0.31141035691E+01  0.41125895370E+02  0.51100000000E-03 0. -1.
        -11    1    3    3    0    0 -0.25223804452E+01 -0.26603123249E+01  0.23856185101E+01  0.43738816528E+01  0.51100000000E-03 0.  1.
         12    1    3    3    0    0  0.87154772579E+00 -0.38662124901E+00  0.20793144269E+01  0.22874920578E+01  0.00000000000E+00 0. -1.
</event>
<event>
 7    1  0.2430096E-009  0.4778727E+02  0.7816164E-02  0.1312668E+00
        -11   -1    0    0    0    0  0.00000000000E+00  0.00000000000E+00  0.45593999997E+02  0.45594000000E+02  0.51100000000E-03 0.  1.
         11   -1    0    0    0    0 -0.00000000000E+00 -0.00000000000E+00 -0.45593999997E+02  0.45594000000E+02  0.51100000000E-03 0. -1.
    9900012    2    1    2    0    0 -0.27632812956E+02 -0.67101808194E+01 -0.32787565453E+02  0.47787270434E+02  0.19999997218E+02 0.  0.
        -12    1    1    2    0    0  0.27632812956E+02  0.67101808194E+01  0.32787565453E+02  0.43400729566E+02  0.00000000000E+00 0.  1.
         11    1    3    3    0    0 -0.85064434376E+01  0.89922508159E+00 -0.15893622441E+02  0.18049249853E+02  0.51100000000E-03 0. -1.
        -11    1    3    3    0    0 -0.16667130363E+02 -0.77063894331E+00 -0.88117310889E+01  0.18868855926E+02  0.51100000000E-03 0.  1.
        -12    1    3    3    0    0 -0.24592391553E+01 -0.68387669577E+01 -0.80822119237E+01  0.10869164655E+02  0.00000000000E+00 0.  1.
</event>
<event>
 7    1  0.2430096E-009  0.4778728E+02  0.7816164E-02  0.1312668E+00
        -11   -1    0    0    0    0  0.00000000000E+00  0.00000000000E+00  0.45593999997E+02  0.45594000000E+02  0.51100000000E-03 0.  1.
         11   -1    0    0    0    0 -0.00000000000E+00 -0.00000000000E+00 -0.45593999997E+02  0.45594000000E+02  0.51100000000E-03 0. -1.
    9900012    2    1    2    0    0 -0.16654932839E+02 -0.33249932722E+02 -0.22375832074E+02  0.47787277945E+02  0.20000031460E+02 0.  0.
        -12    1    1    2    0    0  0.16654932839E+02  0.33249932722E+02  0.22375832074E+02  0.43400722055E+02  0.00000000000E+00 0.  1.
         11    1    3    3    0    0 -0.67858175712E+01 -0.25557297067E+01 -0.87010315983E+01  0.11326386254E+02  0.51100000000E-03 0. -1.
        -11    1    3    3    0    0 -0.10831041073E+02 -0.28944868587E+02 -0.14692967179E+02  0.34219879501E+02  0.51100000000E-03 0.  1.
        -12    1    3    3    0    0  0.96192580542E+00 -0.17493344281E+01  0.10181667032E+01  0.22410121892E+01  0.00000000000E+00 0.  1.
</event>
<event>
 7    1  0.2430096E-009  0.4778727E+02  0.7816164E-02  0.1312668E+00
        -11   -1    0    0    0    0  0.00000000000E+00  0.00000000000E+00  0.45593999997E+02  0.45594000000E+02  0.51100000000E-03 0. -1.
         11   -1    0    0    0    0 -0.00000000000E+00 -0.00000000000E+00 -0.45593999997E+02  0.45594000000E+02  0.51100000000E-03 0.  1.
    9900012    2    1    2    0    0 -0.25911395161E+02 -0.32338914395E+02 -0.12900290477E+02  0.47787270999E+02  0.19999999793E+02 0.  0.
        -12    1    1    2    0    0  0.25911395161E+02  0.32338914395E+02  0.12900290477E+02  0.43400729001E+02  0.00000000000E+00 0.  1.
         11    1    3    3    0    0 -0.14130277540E+02 -0.63161381129E+01 -0.90439812696E+01  0.17926291906E+02  0.51100000000E-03 0.  1.
        -11    1    3    3    0    0 -0.47014853252E+01 -0.31742301028E+01 -0.33091500146E+00  0.56823591938E+01  0.51100000000E-03 0. -1.
         12    1    3    3    0    0 -0.70796322958E+01 -0.22848546179E+02 -0.35253942059E+01  0.24178619900E+02  0.00000000000E+00 0. -1.
</event>
<event>
 7    1  0.2430096E-009  0.4778728E+02  0.7816164E-02  0.1312668E+00
        -11   -1    0    0    0    0  0.00000000000E+00  0.00000000000E+00  0.45593999997E+02  0.45594000000E+02  0.51100000000E-03 0.  1.
         11   -1    0    0    0    0 -0.00000000000E+00 -0.00000000000E+00 -0.45593999997E+02  0.45594000000E+02  0.51100000000E-03 0. -1.
    9900012    2    1    2    0    0 -0.30095031303E+02 -0.30193627875E+02 -0.81398288305E+01  0.47787275504E+02  0.20000020334E+02 0.  0.
        -12    1    1    2    0    0  0.30095031303E+02  0.30193627875E+02  0.81398288305E+01  0.43400724496E+02  0.00000000000E+00 0.  1.
         11    1    3    3    0    0 -0.14879833337E+02 -0.84518432678E+01 -0.66155355989E+00  0.17125441545E+02  0.51100000000E-03 0. -1.
        -11    1    3    3    0    0 -0.28073409679E+01 -0.15484860147E+02 -0.27009163172E+01  0.15967373181E+02  0.51100000000E-03 0.  1.
        -12    1    3    3    0    0 -0.12407856998E+02 -0.62569244599E+01 -0.47773589534E+01  0.14694460778E+02  0.00000000000E+00 0.  1.
</event>
<event>
 7    1  0.2856388E-009  0.4778727E+02  0.7816164E-02  0.1312668E+00
        -11   -1    0    0    0    0  0.00000000000E+00  0.00000000000E+00  0.45593999997E+02  0.45594000000E+02  0.51100000000E-03 0. -1.
         11   -1    0    0    0    0 -0.00000000000E+00 -0.00000000000E+00 -0.45593999997E+02  0.45594000000E+02  0.51100000000E-03 0.  1.
    9900012    2    1    2    0    0  0.42348720320E+02  0.67845178738E+01 -0.66467740033E+01  0.47787269590E+02  0.19999993368E+02 0.  0.
        -12    1    1    2    0    0 -0.42348720320E+02 -0.67845178738E+01  0.66467740033E+01  0.43400730410E+02  0.00000000000E+00 0.  1.
         11    1    3    3    0    0  0.16785331016E+02  0.37533854323E+01 -0.26510543738E+01  0.17402968973E+02  0.51100000000E-03 0. -1.
        -11    1    3    3    0    0  0.12618651878E+02  0.84912166446E+01 -0.56778291051E+01  0.16234804555E+02  0.51100000000E-03 0.  1.
        -12    1    3    3    0    0  0.12944737426E+02 -0.54600842031E+01  0.16821094756E+01  0.14149496063E+02  0.00000000000E+00 0.  1.
</event>
<event>
 7    1  0.2430096E-009  0.4778727E+02  0.7816164E-02  0.1312668E+00
        -11   -1    0    0    0    0  0.00000000000E+00  0.00000000000E+00  0.45593999997E+02  0.45594000000E+02  0.51100000000E-03 0.  1.
         11   -1    0    0    0    0 -0.00000000000E+00 -0.00000000000E+00 -0.45593999997E+02  0.45594000000E+02  0.51100000000E-03 0. -1.
    9900012    2    1    2    0    0  0.70249132977E+01 -0.57241203641E+01 -0.42444179658E+02  0.47787270195E+02  0.19999996127E+02 0.  0.
        -12    1    1    2    0    0 -0.70249132977E+01  0.57241203641E+01  0.42444179658E+02  0.43400729805E+02  0.00000000000E+00 0.  1.
         11    1    3    3    0    0  0.11837597781E+02 -0.36087972589E+01 -0.35573135916E+02  0.37664308543E+02  0.51100000000E-03 0. -1.
        -11    1    3    3    0    0 -0.10506030562E+01  0.11001151047E+01  0.15483780975E+00  0.15290503700E+01  0.51100000000E-03 0.  1.
         12    1    3    3    0    0 -0.37620814266E+01 -0.32154382100E+01 -0.70258815518E+01  0.85939112820E+01  0.00000000000E+00 0. -1.
</event>
<event>
 7    1  0.2430096E-009  0.4778729E+02  0.7816164E-02  0.1312668E+00
        -11   -1    0    0    0    0  0.00000000000E+00  0.00000000000E+00  0.45593999997E+02  0.45594000000E+02  0.51100000000E-03 0. -1.
         11   -1    0    0    0    0 -0.00000000000E+00 -0.00000000000E+00 -0.45593999997E+02  0.45594000000E+02  0.51100000000E-03 0.  1.
    9900012    2    1    2    0    0  0.41308853295E+01  0.28527397945E+02  0.32446036334E+02  0.47787286632E+02  0.20000071068E+02 0.  0.
        -12    1    1    2    0    0 -0.41308853295E+01 -0.28527397945E+02 -0.32446036334E+02  0.43400713368E+02  0.00000000000E+00 0.  1.
         11    1    3    3    0    0 -0.58219944396E+01  0.94907521738E+01  0.14108641155E+02  0.17972861530E+02  0.51100000000E-03 0. -1.
        -11    1    3    3    0    0  0.64460675421E+01  0.41560738147E+01  0.93006137415E+01  0.12055129719E+02  0.51100000000E-03 0.  1.
         12    1    3    3    0    0  0.35068122269E+01  0.14880571956E+02  0.90367814371E+01  0.17759295382E+02  0.00000000000E+00 0. -1.
</event>
<event>
 7    1  0.2430096E-009  0.4778727E+02  0.7816164E-02  0.1312668E+00
        -11   -1    0    0    0    0  0.00000000000E+00  0.00000000000E+00  0.45593999997E+02  0.45594000000E+02  0.51100000000E-03 0. -1.
         11   -1    0    0    0    0 -0.00000000000E+00 -0.00000000000E+00 -0.45593999997E+02  0.45594000000E+02  0.51100000000E-03 0.  1.
    9900012    2    1    2    0    0  0.95719654821E+01 -0.14721589624E+02  0.39689744965E+02  0.47787267522E+02  0.19999983938E+02 0.  0.
        -12    1    1    2    0    0 -0.95719654821E+01  0.14721589624E+02 -0.39689744965E+02  0.43400732478E+02  0.00000000000E+00 0.  1.
         11    1    3    3    0    0  0.51118593673E+01 -0.10379704310E+01  0.85382884029E+01  0.10005541361E+02  0.51100000000E-03 0. -1.
        -11    1    3    3    0    0 -0.21746900266E+01  0.19837138718E+01  0.11103878338E+02  0.11487406663E+02  0.51100000000E-03 0.  1.
        -12    1    3    3    0    0  0.66347961414E+01 -0.15667333065E+02  0.20047578225E+02  0.26294319498E+02  0.00000000000E+00 0.  1.
</event>
<event>
 7    1  0.2430096E-009  0.4778727E+02  0.7816164E-02  0.1312668E+00
        -11   -1    0    0    0    0  0.00000000000E+00  0.00000000000E+00  0.45593999997E+02  0.45594000000E+02  0.51100000000E-03 0.  1.
         11   -1    0    0    0    0 -0.00000000000E+00 -0.00000000000E+00 -0.45593999997E+02  0.45594000000E+02  0.51100000000E-03 0. -1.
    9900012    2    1    2    0    0  0.56717205662E+01  0.28199957588E+02 -0.32499498184E+02  0.47787269541E+02  0.19999993145E+02 0.  0.
        -12    1    1    2    0    0 -0.56717205662E+01 -0.28199957588E+02  0.32499498184E+02  0.43400730459E+02  0.00000000000E+00 0.  1.
         11    1    3    3    0    0  0.56164612146E+01  0.16692268520E+02 -0.23320155935E+02  0.29223383411E+02  0.51100000000E-03 0. -1.
        -11    1    3    3    0    0  0.40276365529E+01  0.97413353062E+00 -0.17383231718E+00  0.41474100681E+01  0.51100000000E-03 0.  1.
         12    1    3    3    0    0 -0.39723772013E+01  0.10533555538E+02 -0.90055099320E+01  0.14416476061E+02  0.00000000000E+00 0. -1.
</event>
<event>
 7    1  0.2430096E-009  0.4778727E+02  0.7816164E-02  0.1312668E+00
        -11   -1    0    0    0    0  0.00000000000E+00  0.00000000000E+00  0.45593999997E+02  0.45594000000E+02  0.51100000000E-03 0. -1.
         11   -1    0    0    0    0 -0.00000000000E+00 -0.00000000000E+00 -0.45593999997E+02  0.45594000000E+02  0.51100000000E-03 0.  1.
    9900012    2    1    2    0    0 -0.20326310519E+02  0.35645900431E+02  0.14136287023E+02  0.47787265817E+02  0.19999976164E+02 0.  0.
        -12    1    1    2    0    0  0.20326310519E+02 -0.35645900431E+02 -0.14136287023E+02  0.43400734183E+02  0.00000000000E+00 0.  1.
         11    1    3    3    0    0 -0.11233697683E+02  0.47164120321E+01  0.60246173491E+01  0.13591781360E+02  0.51100000000E-03 0. -1.
        -11    1    3    3    0    0 -0.35074335936E+01  0.18230770690E+02  0.82654727711E+01  0.20321937180E+02  0.51100000000E-03 0.  1.
         12    1    3    3    0    0 -0.55851792425E+01  0.12698717709E+02 -0.15380309682E+00  0.13873547276E+02  0.00000000000E+00 0. -1.
</event>
<event>
 7    1  0.2430096E-009  0.4778727E+02  0.7816164E-02  0.1312668E+00
        -11   -1    0    0    0    0  0.00000000000E+00  0.00000000000E+00  0.45593999997E+02  0.45594000000E+02  0.51100000000E-03 0.  1.
         11   -1    0    0    0    0 -0.00000000000E+00 -0.00000000000E+00 -0.45593999997E+02  0.45594000000E+02  0.51100000000E-03 0. -1.
    9900012    2    1    2    0    0 -0.31881691741E+02 -0.26561293166E+02 -0.12715292191E+02  0.47787271683E+02  0.20000002911E+02 0.  0.
        -12    1    1    2    0    0  0.31881691741E+02  0.26561293166E+02  0.12715292191E+02  0.43400728317E+02  0.00000000000E+00 0.  1.
         11    1    3    3    0    0 -0.86322403880E+01 -0.12894157012E+02 -0.35638699957E+01  0.15920930525E+02  0.51100000000E-03 0. -1.
        -11    1    3    3    0    0 -0.23876821123E+02 -0.15419617660E+02 -0.75444390109E+01  0.29407239856E+02  0.51100000000E-03 0.  1.
        -12    1    3    3    0    0  0.62736976969E+00  0.17524815058E+01 -0.16069831847E+01  0.24591013017E+01  0.00000000000E+00 0.  1.
</event>
<event>
 7    1  0.2431000E-009  0.4778727E+02  0.7816164E-02  0.1312668E+00
        -11   -1    0    0    0    0  0.00000000000E+00  0.00000000000E+00  0.45593999997E+02  0.45594000000E+02  0.51100000000E-03 0. -1.
         11   -1    0    0    0    0 -0.00000000000E+00 -0.00000000000E+00 -0.45593999997E+02  0.45594000000E+02  0.51100000000E-03 0.  1.
    9900012    2    1    2    0    0  0.25133252376E+02 -0.12298731015E+02  0.33176555971E+02  0.47787273904E+02  0.20000013038E+02 0.  0.
        -12    1    1    2    0    0 -0.25133252376E+02  0.12298731015E+02 -0.33176555971E+02  0.43400726096E+02  0.00000000000E+00 0.  1.
         11    1    3    3    0    0  0.93214086193E+01 -0.56747989964E+01  0.11359414567E+02  0.15752088810E+02  0.51100000000E-03 0. -1.
        -11    1    3    3    0    0  0.31535832145E+01 -0.96606979096E+01  0.12036648175E+02  0.15752938480E+02  0.51100000000E-03 0.  1.
        -12    1    3    3    0    0  0.12658260542E+02  0.30367658909E+01  0.97804932281E+01  0.16282246614E+02  0.00000000000E+00 0.  1.
</event>
<event>
 7    1  0.2430096E-009  0.4778727E+02  0.7816164E-02  0.1312668E+00
        -11   -1    0    0    0    0  0.00000000000E+00  0.00000000000E+00  0.45593999997E+02  0.45594000000E+02  0.51100000000E-03 0.  1.
         11   -1    0    0    0    0 -0.00000000000E+00 -0.00000000000E+00 -0.45593999997E+02  0.45594000000E+02  0.51100000000E-03 0. -1.
    9900012    2    1    2    0    0  0.31922692713E+02  0.24602791012E+02 -0.16101790569E+02  0.47787270800E+02  0.19999998885E+02 0.  0.
        -12    1    1    2    0    0 -0.31922692713E+02 -0.24602791012E+02  0.16101790569E+02  0.43400729200E+02  0.00000000000E+00 0.  1.
         11    1    3    3    0    0  0.30223576996E+02  0.15567656481E+02 -0.11332658919E+02  0.35836373885E+02  0.51100000000E-03 0. -1.
        -11    1    3    3    0    0 -0.29166638537E+00  0.13277628878E+01 -0.36717014099E+01  0.39152796926E+01  0.51100000000E-03 0.  1.
        -12    1    3    3    0    0  0.19907821017E+01  0.77073716427E+01 -0.10974302398E+01  0.80356172225E+01  0.00000000000E+00 0.  1.
</event>
<event>
 7    1  0.2430096E-009  0.4778729E+02  0.7816164E-02  0.1312668E+00
        -11   -1    0    0    0    0  0.00000000000E+00  0.00000000000E+00  0.45593999997E+02  0.45594000000E+02  0.51100000000E-03 0.  1.
         11   -1    0    0    0    0 -0.00000000000E+00 -0.00000000000E+00 -0.45593999997E+02  0.45594000000E+02  0.51100000000E-03 0. -1.
    9900012    2    1    2    0    0 -0.22696639250E+02 -0.36172456111E+02 -0.77484194152E+01  0.47787285515E+02  0.20000065977E+02 0.  0.
        -12    1    1    2    0    0  0.22696639250E+02  0.36172456111E+02  0.77484194152E+01  0.43400714485E+02  0.00000000000E+00 0.  1.
         11    1    3    3    0    0 -0.20143466045E+01  0.73205080682E+00  0.30567044260E+01  0.37332201698E+01  0.51100000000E-03 0. -1.
        -11    1    3    3    0    0 -0.21043031578E+00 -0.81956999802E+00 -0.12013314630E+01  0.14694126189E+01  0.51100000000E-03 0.  1.
         12    1    3    3    0    0 -0.20471862330E+02 -0.36084936920E+02 -0.96037923783E+01  0.42584652726E+02  0.00000000000E+00 0. -1.
</event>
<event>
 7    1  0.2430096E-009  0.4778729E+02  0.7816164E-02  0.1312668E+00
        -11   -1    0    0    0    0  0.00000000000E+00  0.00000000000E+00  0.45593999997E+02  0.45594000000E+02  0.51100000000E-03 0. -1.
         11   -1    0    0    0    0 -0.00000000000E+00 -0.00000000000E+00 -0.45593999997E+02  0.45594000000E+02  0.51100000000E-03 0.  1.
    9900012    2    1    2    0    0 -0.43163062717E+02 -0.56209840967E+00 -0.45006618101E+01  0.47787286936E+02  0.20000072456E+02 0.  0.
        -12    1    1    2    0    0  0.43163062717E+02  0.56209840967E+00  0.45006618101E+01  0.43400713064E+02  0.00000000000E+00 0.  1.
         11    1    3    3    0    0 -0.10377533943E+02  0.48014650705E+00 -0.39422410358E+00  0.10396112943E+02  0.51100000000E-03 0. -1.
        -11    1    3    3    0    0 -0.24043855821E+02 -0.35020272197E+01  0.46924258014E+01  0.24746516069E+02  0.51100000000E-03 0.  1.
        -12    1    3    3    0    0 -0.87416729528E+01  0.24597823030E+01 -0.87988635079E+01  0.12644657924E+02  0.00000000000E+00 0.  1.
</event>
<event>
 7    1  0.2430096E-009  0.4778728E+02  0.7816164E-02  0.1312668E+00
        -11   -1    0    0    0    0  0.00000000000E+00  0.00000000000E+00  0.45593999997E+02  0.45594000000E+02  0.51100000000E-03 0.  1.
         11   -1    0    0    0    0 -0.00000000000E+00 -0.00000000000E+00 -0.45593999997E+02  0.45594000000E+02  0.51100000000E-03 0. -1.
    9900012    2    1    2    0    0 -0.28530769023E+02  0.79164024523E+01 -0.31732454034E+02  0.47787275952E+02  0.20000022377E+02 0.  0.
        -12    1    1    2    0    0  0.28530769023E+02 -0.79164024523E+01  0.31732454034E+02  0.43400724048E+02  0.00000000000E+00 0.  1.
         11    1    3    3    0    0  0.30348451956E+00  0.99711970854E+00 -0.87695330319E+01  0.88312547480E+01  0.51100000000E-03 0. -1.
        -11    1    3    3    0    0 -0.23250397860E+02  0.92714551280E+00 -0.17395053377E+02  0.29052168279E+02  0.51100000000E-03 0.  1.
        -12    1    3    3    0    0 -0.55838556824E+01  0.59921372310E+01 -0.55678676253E+01  0.99038529255E+01  0.00000000000E+00 0.  1.
</event>
<event>
 7    1  0.2430096E-009  0.4778727E+02  0.7816164E-02  0.1312668E+00
        -11   -1    0    0    0    0  0.00000000000E+00  0.00000000000E+00  0.45593999997E+02  0.45594000000E+02  0.51100000000E-03 0.  1.
         11   -1    0    0    0    0 -0.00000000000E+00 -0.00000000000E+00 -0.45593999997E+02  0.45594000000E+02  0.51100000000E-03 0. -1.
    9900012    2    1    2    0    0 -0.16561427820E+02  0.16698183555E+02 -0.36476200742E+02  0.47787269060E+02  0.19999990954E+02 0.  0.
        -12    1    1    2    0    0  0.16561427820E+02 -0.16698183555E+02  0.36476200742E+02  0.43400730940E+02  0.00000000000E+00 0.  1.
         11    1    3    3    0    0  0.11520462541E+01  0.40096208851E+01  0.55623497335E+00  0.42087608414E+01  0.51100000000E-03 0.  1.
        -11    1    3    3    0    0 -0.14039541968E+02  0.12261857168E+02 -0.34085204648E+02  0.38849234948E+02  0.51100000000E-03 0. -1.
        -12    1    3    3    0    0 -0.36739321064E+01  0.42670550280E+00 -0.29472310676E+01  0.47292732713E+01  0.00000000000E+00 0.  1.
</event>
<event>
 7    1  0.2430096E-009  0.4778727E+02  0.7816164E-02  0.1312668E+00
        -11   -1    0    0    0    0  0.00000000000E+00  0.00000000000E+00  0.45593999997E+02  0.45594000000E+02  0.51100000000E-03 0. -1.
         11   -1    0    0    0    0 -0.00000000000E+00 -0.00000000000E+00 -0.45593999997E+02  0.45594000000E+02  0.51100000000E-03 0.  1.
    9900012    2    1    2    0    0  0.29080589996E+02 -0.29914099857E+02 -0.11961996565E+02  0.47787269055E+02  0.19999990927E+02 0.  0.
        -12    1    1    2    0    0 -0.29080589996E+02  0.29914099857E+02  0.11961996565E+02  0.43400730945E+02  0.00000000000E+00 0.  1.
         11    1    3    3    0    0 -0.25192430229E+01 -0.12425638106E+01 -0.22035437554E+01  0.35701758465E+01  0.51100000000E-03 0. -1.
        -11    1    3    3    0    0  0.15476905766E+02 -0.10716291385E+02 -0.62291525558E+01  0.19828662460E+02  0.51100000000E-03 0.  1.
         12    1    3    3    0    0  0.16122927253E+02 -0.17955244662E+02 -0.35293002541E+01  0.24388430748E+02  0.00000000000E+00 0. -1.
</event>
<event>
 7    1  0.2430096E-009  0.4778728E+02  0.7816164E-02  0.1312668E+00
        -11   -1    0    0    0    0  0.00000000000E+00  0.00000000000E+00  0.45593999997E+02  0.45594000000E+02  0.51100000000E-03 0.  1.
         11   -1    0    0    0    0 -0.00000000000E+00 -0.00000000000E+00 -0.45593999997E+02  0.45594000000E+02  0.51100000000E-03 0. -1.
    9900012    2    1    2    0    0  0.21023180431E+01 -0.56375636176E+01 -0.42981635881E+02  0.47787275493E+02  0.20000020282E+02 0.  0.
        -12    1    1    2    0    0 -0.21023180431E+01  0.56375636176E+01  0.42981635881E+02  0.43400724507E+02  0.00000000000E+00 0.  1.
         11    1    3    3    0    0 -0.29170532860E+01  0.33674281524E+01 -0.68553216889E+01  0.81758307196E+01  0.51100000000E-03 0. -1.
        -11    1    3    3    0    0  0.87780001978E+00  0.21935114452E+01 -0.16278700811E+02  0.16449259123E+02  0.51100000000E-03 0.  1.
         12    1    3    3    0    0  0.41415713093E+01 -0.11198503215E+02 -0.19847613382E+02  0.23162185651E+02  0.00000000000E+00 0. -1.
</event>
<event>
 7    1  0.2430096E-009  0.4778727E+02  0.7816164E-02  0.1312668E+00
        -11   -1    0    0    0    0  0.00000000000E+00  0.00000000000E+00  0.45593999997E+02  0.45594000000E+02  0.51100000000E-03 0.  1.
         11   -1    0    0    0    0 -0.00000000000E+00 -0.00000000000E+00 -0.45593999997E+02  0.45594000000E+02  0.51100000000E-03 0. -1.
    9900012    2    1    2    0    0  0.26962295176E+02  0.33203614789E+02 -0.73605557815E+01  0.47787272153E+02  0.20000005056E+02 0.  0.
        -12    1    1    2    0    0 -0.26962295176E+02 -0.33203614789E+02  0.73605557815E+01  0.43400727847E+02  0.00000000000E+00 0.  1.
         11    1    3    3    0    0  0.12542281541E+02  0.65515065263E+01 -0.42270370766E+01  0.14768172085E+02  0.51100000000E-03 0. -1.
        -11    1    3    3    0    0  0.15247645401E+02  0.26326877017E+02 -0.70376271411E+00  0.30431733864E+02  0.51100000000E-03 0.  1.
         12    1    3    3    0    0 -0.82763176589E+00  0.32523124572E+00 -0.24297559908E+01  0.25873662049E+01  0.00000000000E+00 0. -1.
</event>
<event>
 7    1  0.2430096E-009  0.4778727E+02  0.7816164E-02  0.1312668E+00
        -11   -1    0    0    0    0  0.00000000000E+00  0.00000000000E+00  0.45593999997E+02  0.45594000000E+02  0.51100000000E-03 0. -1.
         11   -1    0    0    0    0 -0.00000000000E+00 -0.00000000000E+00 -0.45593999997E+02  0.45594000000E+02  0.51100000000E-03 0.  1.
    9900012    2    1    2    0    0 -0.11329418406E+02  0.21849132716E+02  0.35747490592E+02  0.47787269528E+02  0.19999993086E+02 0.  0.
        -12    1    1    2    0    0  0.11329418406E+02 -0.21849132716E+02 -0.35747490592E+02  0.43400730472E+02  0.00000000000E+00 0.  1.
         11    1    3    3    0    0 -0.10553457718E+02  0.22014427246E+02  0.19054629433E+02  0.30969168214E+02  0.51100000000E-03 0. -1.
        -11    1    3    3    0    0  0.59944463968E+00 -0.65412382460E-01  0.72559298356E+01  0.72809429812E+01  0.51100000000E-03 0.  1.
         12    1    3    3    0    0 -0.13754053276E+01 -0.99882146978E-01  0.94369313236E+01  0.95371583328E+01  0.00000000000E+00 0. -1.
</event>
<event>
 7    1  0.2430096E-009  0.4778728E+02  0.7816164E-02  0.1312668E+00
        -11   -1    0    0    0    0  0.00000000000E+00  0.00000000000E+00  0.45593999997E+02  0.45594000000E+02  0.51100000000E-03 0. -1.
         11   -1    0    0    0    0 -0.00000000000E+00 -0.00000000000E+00 -0.45593999997E+02  0.45594000000E+02  0.51100000000E-03 0.  1.
    9900012    2    1    2    0    0 -0.33579922389E+02  0.42250608673E+01  0.27169109947E+02  0.47787275786E+02  0.20000021620E+02 0.  0.
        -12    1    1    2    0    0  0.33579922389E+02 -0.42250608673E+01 -0.27169109947E+02  0.43400724214E+02  0.00000000000E+00 0.  1.
         11    1    3    3    0    0 -0.19762229206E+02  0.45289121977E+01  0.69635671979E+01  0.21437071098E+02  0.51100000000E-03 0. -1.
        -11    1    3    3    0    0  0.29741516307E+00  0.21876515073E+01  0.49365811834E+01  0.54077822569E+01  0.51100000000E-03 0.  1.
         12    1    3    3    0    0 -0.14115108346E+02 -0.24915028377E+01  0.15268961565E+02  0.20942422431E+02  0.00000000000E+00 0. -1.
</event>
<event>
 7    1  0.2430096E-009  0.4778727E+02  0.7816164E-02  0.1312668E+00
        -11   -1    0    0    0    0  0.00000000000E+00  0.00000000000E+00  0.45593999997E+02  0.45594000000E+02  0.51100000000E-03 0.  1.
         11   -1    0    0    0    0 -0.00000000000E+00 -0.00000000000E+00 -0.45593999997E+02  0.45594000000E+02  0.51100000000E-03 0. -1.
    9900012    2    1    2    0    0  0.39425764932E+02  0.99894112919E+01  0.15147411448E+02  0.47787270144E+02  0.19999995895E+02 0.  0.
        -12    1    1    2    0    0 -0.39425764932E+02 -0.99894112919E+01 -0.15147411448E+02  0.43400729856E+02  0.00000000000E+00 0.  1.
         11    1    3    3    0    0  0.19840334705E+02 -0.10237295853E+01  0.69388381034E+01  0.21043630341E+02  0.51100000000E-03 0. -1.
        -11    1    3    3    0    0  0.15674336269E+02  0.13609113408E+02  0.67628646167E+01  0.21831837379E+02  0.51100000000E-03 0.  1.
         12    1    3    3    0    0  0.39110939581E+01 -0.25959725308E+01  0.14457087278E+01  0.49118024243E+01  0.00000000000E+00 0. -1.
</event>
<event>
 7    1  0.2430096E-009  0.4778727E+02  0.7816164E-02  0.1312668E+00
        -11   -1    0    0    0    0  0.00000000000E+00  0.00000000000E+00  0.45593999997E+02  0.45594000000E+02  0.51100000000E-03 0.  1.
         11   -1    0    0    0    0 -0.00000000000E+00 -0.00000000000E+00 -0.45593999997E+02  0.45594000000E+02  0.51100000000E-03 0. -1.
    9900012    2    1    2    0    0 -0.23732180982E+02  0.15787317930E+02 -0.32728693319E+02  0.47787272034E+02  0.20000004511E+02 0.  0.
        -12    1    1    2    0    0  0.23732180982E+02 -0.15787317930E+02  0.32728693319E+02  0.43400727966E+02  0.00000000000E+00 0.  1.
         11    1    3    3    0    0 -0.91133852582E+01  0.15451583553E+02 -0.20116977949E+02  0.26953627348E+02  0.51100000000E-03 0. -1.
        -11    1    3    3    0    0 -0.32387192906E+01 -0.33098487734E+01 -0.36727975697E+01  0.59104859187E+01  0.51100000000E-03 0.  1.
         12    1    3    3    0    0 -0.11380076434E+02  0.36455831509E+01 -0.89389178007E+01  0.14923158767E+02  0.00000000000E+00 0. -1.
</event>
<event>
 7    1  0.2430096E-009  0.4778727E+02  0.7816164E-02  0.1312668E+00
        -11   -1    0    0    0    0  0.00000000000E+00  0.00000000000E+00  0.45593999997E+02  0.45594000000E+02  0.51100000000E-03 0. -1.
         11   -1    0    0    0    0 -0.00000000000E+00 -0.00000000000E+00 -0.45593999997E+02  0.45594000000E+02  0.51100000000E-03 0.  1.
    9900012    2    1    2    0    0  0.16385877628E+02 -0.33014827186E+02  0.22916090337E+02  0.47787274244E+02  0.20000014590E+02 0.  0.
        -12    1    1    2    0    0 -0.16385877628E+02  0.33014827186E+02 -0.22916090337E+02  0.43400725756E+02  0.00000000000E+00 0.  1.
         11    1    3    3    0    0  0.18183970083E+02 -0.20841841096E+02  0.14722653635E+02  0.31333618345E+02  0.51100000000E-03 0. -1.
        -11    1    3    3    0    0 -0.53978161250E+00 -0.71644971231E+01  0.51902347722E+00  0.72035247516E+01  0.51100000000E-03 0.  1.
         12    1    3    3    0    0 -0.12583108428E+01 -0.50084889668E+01  0.76744132246E+01  0.92501311477E+01  0.00000000000E+00 0. -1.
</event>
<event>
 7    1  0.2430096E-009  0.4778727E+02  0.7816164E-02  0.1312668E+00
        -11   -1    0    0    0    0  0.00000000000E+00  0.00000000000E+00  0.45593999997E+02  0.45594000000E+02  0.51100000000E-03 0.  1.
         11   -1    0    0    0    0 -0.00000000000E+00 -0.00000000000E+00 -0.45593999997E+02  0.45594000000E+02  0.51100000000E-03 0. -1.
    9900012    2    1    2    0    0 -0.24877029736E+02 -0.25417609713E+02 -0.24873721426E+02  0.47787268329E+02  0.19999987620E+02 0.  0.
        -12    1    1    2    0    0  0.24877029736E+02  0.25417609713E+02  0.24873721426E+02  0.43400731671E+02  0.00000000000E+00 0.  1.
         11    1    3    3    0    0 -0.13102367742E+02 -0.16091754537E+02 -0.21805734384E+02  0.30101605552E+02  0.51100000000E-03 0. -1.
        -11    1    3    3    0    0 -0.13178917028E+02 -0.83625116132E+01 -0.33389033319E+01  0.15961319815E+02  0.51100000000E-03 0.  1.
        -12    1    3    3    0    0  0.14042550332E+01 -0.96334356189E+00  0.27091628996E+00  0.17243429626E+01  0.00000000000E+00 0.  1.
</event>
<event>
 7    1  0.2430096E-009  0.4778726E+02  0.7816164E-02  0.1312668E+00
        -11   -1    0    0    0    0  0.00000000000E+00  0.00000000000E+00  0.45593999997E+02  0.45594000000E+02  0.51100000000E-03 0. -1.
         11   -1    0    0    0    0 -0.00000000000E+00 -0.00000000000E+00 -0.45593999997E+02  0.45594000000E+02  0.51100000000E-03 0.  1.
    9900012    2    1    2    0    0  0.29681306934E+02  0.21381595579E+02  0.23355331365E+02  0.47787261366E+02  0.19999955870E+02 0.  0.
        -12    1    1    2    0    0 -0.29681306934E+02 -0.21381595579E+02 -0.23355331365E+02  0.43400738634E+02  0.00000000000E+00 0.  1.
         11    1    3    3    0    0  0.13544969737E+02  0.17060878568E+02  0.16689854488E+02  0.27442504000E+02  0.51100000000E-03 0. -1.
        -11    1    3    3    0    0  0.86797136074E+01 -0.21743939397E+01  0.51966728893E+01  0.10347503404E+02  0.51100000000E-03 0.  1.
         12    1    3    3    0    0  0.74566235893E+01  0.64951109509E+01  0.14688039876E+01  0.99972539615E+01  0.00000000000E+00 0. -1.
</event>
<event>
 7    1  0.2430096E-009  0.4778733E+02  0.7816164E-02  0.1312668E+00
        -11   -1    0    0    0    0  0.00000000000E+00  0.00000000000E+00  0.45593999997E+02  0.45594000000E+02  0.51100000000E-03 0.  1.
         11   -1    0    0    0    0 -0.00000000000E+00 -0.00000000000E+00 -0.45593999997E+02  0.45594000000E+02  0.51100000000E-03 0. -1.
    9900012    2    1    2    0    0 -0.27563173836E+01  0.90219599181E+01 -0.42363020183E+02  0.47787325751E+02  0.20000249427E+02 0.  0.
        -12    1    1    2    0    0  0.27563173836E+01 -0.90219599181E+01  0.42363020183E+02  0.43400674249E+02  0.00000000000E+00 0.  1.
         11    1    3    3    0    0  0.50585730779E+01  0.37406136801E+01 -0.14444909256E+02  0.15755530964E+02  0.51100000000E-03 0. -1.
        -11    1    3    3    0    0 -0.99628174600E+01  0.25768603593E+01 -0.12303333366E+02  0.16039636942E+02  0.51100000000E-03 0.  1.
        -12    1    3    3    0    0  0.21479269985E+01  0.27044858786E+01 -0.15614777561E+02  0.15992157845E+02  0.00000000000E+00 0.  1.
</event>
<event>
 7    1  0.2430096E-009  0.4778727E+02  0.7816164E-02  0.1312668E+00
        -11   -1    0    0    0    0  0.00000000000E+00  0.00000000000E+00  0.45593999997E+02  0.45594000000E+02  0.51100000000E-03 0.  1.
         11   -1    0    0    0    0 -0.00000000000E+00 -0.00000000000E+00 -0.45593999997E+02  0.45594000000E+02  0.51100000000E-03 0. -1.
    9900012    2    1    2    0    0 -0.13659431861E+02 -0.40428939795E+02 -0.79084748537E+01  0.47787271594E+02  0.20000002505E+02 0.  0.
        -12    1    1    2    0    0  0.13659431861E+02  0.40428939795E+02  0.79084748537E+01  0.43400728406E+02  0.00000000000E+00 0.  1.
         11    1    3    3    0    0 -0.54450843702E+01 -0.33193954512E+02 -0.10516779665E+02  0.35243300281E+02  0.51100000000E-03 0. -1.
        -11    1    3    3    0    0 -0.61067945182E+01 -0.19818729557E+01  0.24791864199E+01  0.68823778787E+01  0.51100000000E-03 0.  1.
        -12    1    3    3    0    0 -0.21075529724E+01 -0.52531123271E+01  0.12911839115E+00  0.56615934340E+01  0.00000000000E+00 0.  1.
</event>
<event>
 7    1  0.2430096E-009  0.4778727E+02  0.7816164E-02  0.1312668E+00
        -11   -1    0    0    0    0  0.00000000000E+00  0.00000000000E+00  0.45593999997E+02  0.45594000000E+02  0.51100000000E-03 0.  1.
         11   -1    0    0    0    0 -0.00000000000E+00 -0.00000000000E+00 -0.45593999997E+02  0.45594000000E+02  0.51100000000E-03 0. -1.
    9900012    2    1    2    0    0  0.11541980957E+02 -0.11114368976E+02 -0.40334557291E+02  0.47787273808E+02  0.20000012601E+02 0.  0.
        -12    1    1    2    0    0 -0.11541980957E+02  0.11114368976E+02  0.40334557291E+02  0.43400726192E+02  0.00000000000E+00 0.  1.
         11    1    3    3    0    0  0.14321192458E+01 -0.73833701105E+01 -0.32986365634E+02  0.33832904660E+02  0.51100000000E-03 0. -1.
        -11    1    3    3    0    0  0.67624240806E+01 -0.56019217922E+00 -0.24165713351E+01  0.72030557406E+01  0.51100000000E-03 0.  1.
         12    1    3    3    0    0  0.33474376304E+01 -0.31708066865E+01 -0.49316203211E+01  0.67513134074E+01  0.00000000000E+00 0. -1.
</event>
<event>
 7    1  0.2430096E-009  0.4778726E+02  0.7816164E-02  0.1312668E+00
        -11   -1    0    0    0    0  0.00000000000E+00  0.00000000000E+00  0.45593999997E+02  0.45594000000E+02  0.51100000000E-03 0.  1.
         11   -1    0    0    0    0 -0.00000000000E+00 -0.00000000000E+00 -0.45593999997E+02  0.45594000000E+02  0.51100000000E-03 0. -1.
    9900012    2    1    2    0    0  0.16719967970E+02 -0.13285790476E+02 -0.37782991578E+02  0.47787262563E+02  0.19999961331E+02 0.  0.
        -12    1    1    2    0    0 -0.16719967970E+02  0.13285790476E+02  0.37782991578E+02  0.43400737437E+02  0.00000000000E+00 0.  1.
         11    1    3    3    0    0  0.12673989983E+02 -0.14953959777E+02 -0.35472604893E+02  0.40528466949E+02  0.51100000000E-03 0. -1.
        -11    1    3    3    0    0 -0.47575291781E+00  0.20429245937E+01 -0.16604403053E+01  0.26752465312E+01  0.51100000000E-03 0.  1.
         12    1    3    3    0    0  0.45217309042E+01 -0.37475529296E+00 -0.64994637992E+00  0.45835490831E+01  0.00000000000E+00 0. -1.
</event>
<event>
 7    1  0.2430096E-009  0.4778727E+02  0.7816164E-02  0.1312668E+00
        -11   -1    0    0    0    0  0.00000000000E+00  0.00000000000E+00  0.45593999997E+02  0.45594000000E+02  0.51100000000E-03 0.  1.
         11   -1    0    0    0    0 -0.00000000000E+00 -0.00000000000E+00 -0.45593999997E+02  0.45594000000E+02  0.51100000000E-03 0. -1.
    9900012    2    1    2    0    0 -0.97666420102E+01 -0.35318561094E+01 -0.42139791175E+02  0.47787270697E+02  0.19999998416E+02 0.  0.
        -12    1    1    2    0    0  0.97666420102E+01  0.35318561094E+01  0.42139791175E+02  0.43400729303E+02  0.00000000000E+00 0.  1.
         11    1    3    3    0    0 -0.12164004433E+02  0.54693667558E+00 -0.19819587127E+02  0.23261087200E+02  0.51100000000E-03 0. -1.
        -11    1    3    3    0    0  0.33873920923E+01  0.20145044422E+01 -0.75207271227E+01  0.84908179848E+01  0.51100000000E-03 0.  1.
         12    1    3    3    0    0 -0.99002966942E+00 -0.60932972272E+01 -0.14799476926E+02  0.16035365512E+02  0.00000000000E+00 0. -1.
</event>
<event>
 7    1  0.2430096E-009  0.4778727E+02  0.7816164E-02  0.1312668E+00
        -11   -1    0    0    0    0  0.00000000000E+00  0.00000000000E+00  0.45593999997E+02  0.45594000000E+02  0.51100000000E-03 0.  1.
         11   -1    0    0    0    0 -0.00000000000E+00 -0.00000000000E+00 -0.45593999997E+02  0.45594000000E+02  0.51100000000E-03 0. -1.
    9900012    2    1    2    0    0 -0.42751671356E+02  0.38971325114E+01  0.63820312543E+01  0.47787269954E+02  0.19999995029E+02 0.  0.
        -12    1    1    2    0    0  0.42751671356E+02 -0.38971325114E+01 -0.63820312543E+01  0.43400730046E+02  0.00000000000E+00 0.  1.
         11    1    3    3    0    0 -0.30328620549E+02  0.90306695570E+01  0.42443160417E+01  0.31927925645E+02  0.51100000000E-03 0. -1.
        -11    1    3    3    0    0 -0.12178177972E+02 -0.55310379847E+01 -0.29860084961E+00  0.13378698092E+02  0.51100000000E-03 0.  1.
         12    1    3    3    0    0 -0.24487283564E+00  0.39750093904E+00  0.24363160622E+01  0.24806462176E+01  0.00000000000E+00 0. -1.
</event>
<event>
 7    1  0.2430096E-009  0.4778727E+02  0.7816164E-02  0.1312668E+00
        -11   -1    0    0    0    0  0.00000000000E+00  0.00000000000E+00  0.45593999997E+02  0.45594000000E+02  0.51100000000E-03 0.  1.
         11   -1    0    0    0    0 -0.00000000000E+00 -0.00000000000E+00 -0.45593999997E+02  0.45594000000E+02  0.51100000000E-03 0. -1.
    9900012    2    1    2    0    0 -0.25537151421E+02 -0.80552857265E+01 -0.34155372650E+02  0.47787271761E+02  0.20000003268E+02 0.  0.
        -12    1    1    2    0    0  0.25537151421E+02  0.80552857265E+01  0.34155372650E+02  0.43400728239E+02  0.00000000000E+00 0.  1.
         11    1    3    3    0    0 -0.11037404975E+02 -0.10739432121E+02 -0.17167395536E+02  0.23062505948E+02  0.51100000000E-03 0. -1.
        -11    1    3    3    0    0 -0.59003901162E+01  0.58907908638E+01 -0.10850574765E+02  0.13683968486E+02  0.51100000000E-03 0.  1.
         12    1    3    3    0    0 -0.85993563297E+01 -0.32066444697E+01 -0.61374023485E+01  0.11040797327E+02  0.00000000000E+00 0. -1.
</event>
<event>
 7    1  0.2430096E-009  0.4778727E+02  0.7816164E-02  0.1312668E+00
        -11   -1    0    0    0    0  0.00000000000E+00  0.00000000000E+00  0.45593999997E+02  0.45594000000E+02  0.51100000000E-03 0. -1.
         11   -1    0    0    0    0 -0.00000000000E+00 -0.00000000000E+00 -0.45593999997E+02  0.45594000000E+02  0.51100000000E-03 0.  1.
    9900012    2    1    2    0    0 -0.17781108978E+02 -0.36248240675E+02  0.15922324039E+02  0.47787271996E+02  0.20000004337E+02 0.  0.
        -12    1    1    2    0    0  0.17781108978E+02  0.36248240675E+02 -0.15922324039E+02  0.43400728004E+02  0.00000000000E+00 0.  1.
         11    1    3    3    0    0 -0.41048078233E+01 -0.88603330536E+01  0.80944592727E+01  0.12683659577E+02  0.51100000000E-03 0. -1.
        -11    1    3    3    0    0 -0.10675796262E+02 -0.18445066857E+02 -0.20927918629E+01  0.21414315194E+02  0.51100000000E-03 0.  1.
        -12    1    3    3    0    0 -0.30005048927E+01 -0.89428407641E+01  0.99206566294E+01  0.13689297225E+02  0.00000000000E+00 0.  1.
</event>
<event>
 7    1  0.2430096E-009  0.4778727E+02  0.7816164E-02  0.1312668E+00
        -11   -1    0    0    0    0  0.00000000000E+00  0.00000000000E+00  0.45593999997E+02  0.45594000000E+02  0.51100000000E-03 0.  1.
         11   -1    0    0    0    0 -0.00000000000E+00 -0.00000000000E+00 -0.45593999997E+02  0.45594000000E+02  0.51100000000E-03 0. -1.
    9900012    2    1    2    0    0  0.17178251895E+02 -0.11970321055E+02 -0.38016342270E+02  0.47787271851E+02  0.20000003676E+02 0.  0.
        -12    1    1    2    0    0 -0.17178251895E+02  0.11970321055E+02  0.38016342270E+02  0.43400728149E+02  0.00000000000E+00 0.  1.
         11    1    3    3    0    0  0.84610703857E+01 -0.12202148347E+02 -0.31583630066E+02  0.34899968836E+02  0.51100000000E-03 0. -1.
        -11    1    3    3    0    0  0.82563866225E+01  0.25227918525E+01 -0.59930044939E+01  0.10509448221E+02  0.51100000000E-03 0.  1.
        -12    1    3    3    0    0  0.46079488691E+00 -0.22909645609E+01 -0.43970770950E+00  0.23778547930E+01  0.00000000000E+00 0.  1.
</event>
<event>
 7    1  0.2430096E-009  0.4778727E+02  0.7816164E-02  0.1312668E+00
        -11   -1    0    0    0    0  0.00000000000E+00  0.00000000000E+00  0.45593999997E+02  0.45594000000E+02  0.51100000000E-03 0.  1.
         11   -1    0    0    0    0 -0.00000000000E+00 -0.00000000000E+00 -0.45593999997E+02  0.45594000000E+02  0.51100000000E-03 0. -1.
    9900012    2    1    2    0    0 -0.24116611597E+01  0.17592928272E+02 -0.39601720463E+02  0.47787268458E+02  0.19999988209E+02 0.  0.
        -12    1    1    2    0    0  0.24116611597E+01 -0.17592928272E+02  0.39601720463E+02  0.43400731542E+02  0.00000000000E+00 0.  1.
         11    1    3    3    0    0 -0.14829443730E+01  0.27357126561E+01 -0.90714745856E+01  0.95903544861E+01  0.51100000000E-03 0. -1.
        -11    1    3    3    0    0 -0.50031288633E+01  0.30966562387E+01 -0.76402781429E+00  0.59333225975E+01  0.51100000000E-03 0.  1.
        -12    1    3    3    0    0  0.40744120766E+01  0.11760559378E+02 -0.29766218063E+02  0.32263591375E+02  0.00000000000E+00 0.  1.
</event>
<event>
 7    1  0.2430096E-009  0.4778727E+02  0.7816164E-02  0.1312668E+00
        -11   -1    0    0    0    0  0.00000000000E+00  0.00000000000E+00  0.45593999997E+02  0.45594000000E+02  0.51100000000E-03 0.  1.
         11   -1    0    0    0    0 -0.00000000000E+00 -0.00000000000E+00 -0.45593999997E+02  0.45594000000E+02  0.51100000000E-03 0. -1.
    9900012    2    1    2    0    0 -0.16430334967E+02 -0.20539389403E+01 -0.40117938600E+02  0.47787267635E+02  0.19999984453E+02 0.  0.
        -12    1    1    2    0    0  0.16430334967E+02  0.20539389403E+01  0.40117938600E+02  0.43400732365E+02  0.00000000000E+00 0.  1.
         11    1    3    3    0    0 -0.71936137967E+01  0.29784347659E+00 -0.20108573429E+02  0.21358640308E+02  0.51100000000E-03 0. -1.
        -11    1    3    3    0    0 -0.85273130270E+01 -0.22526312664E+00 -0.26605307704E+01  0.89355601491E+01  0.51100000000E-03 0.  1.
        -12    1    3    3    0    0 -0.70940814328E+00 -0.21265192903E+01 -0.17348834401E+02  0.17493067177E+02  0.00000000000E+00 0.  1.
</event>
<event>
 7    1  0.2430096E-009  0.4778727E+02  0.7816164E-02  0.1312668E+00
        -11   -1    0    0    0    0  0.00000000000E+00  0.00000000000E+00  0.45593999997E+02  0.45594000000E+02  0.51100000000E-03 0.  1.
         11   -1    0    0    0    0 -0.00000000000E+00 -0.00000000000E+00 -0.45593999997E+02  0.45594000000E+02  0.51100000000E-03 0. -1.
    9900012    2    1    2    0    0  0.26304427276E+02  0.46139793140E+00 -0.34517927878E+02  0.47787272732E+02  0.20000007695E+02 0.  0.
        -12    1    1    2    0    0 -0.26304427276E+02 -0.46139793140E+00  0.34517927878E+02  0.43400727268E+02  0.00000000000E+00 0.  1.
         11    1    3    3    0    0  0.69208386347E+01  0.20793600653E+01 -0.46665677352E-01  0.72266121824E+01  0.51100000000E-03 0. -1.
        -11    1    3    3    0    0  0.14349064171E+01  0.14280492670E+01 -0.91673488457E+01  0.93882142207E+01  0.51100000000E-03 0.  1.
         12    1    3    3    0    0  0.17948682224E+02 -0.30460114008E+01 -0.25303913355E+02  0.31172446329E+02  0.00000000000E+00 0. -1.
</event>
<event>
 7    1  0.2430096E-009  0.4778727E+02  0.7816164E-02  0.1312668E+00
        -11   -1    0    0    0    0  0.00000000000E+00  0.00000000000E+00  0.45593999997E+02  0.45594000000E+02  0.51100000000E-03 0.  1.
         11   -1    0    0    0    0 -0.00000000000E+00 -0.00000000000E+00 -0.45593999997E+02  0.45594000000E+02  0.51100000000E-03 0. -1.
    9900012    2    1    2    0    0  0.38169127246E+02  0.99220168901E+01 -0.18118895358E+02  0.47787273476E+02  0.20000011084E+02 0.  0.
        -12    1    1    2    0    0 -0.38169127246E+02 -0.99220168901E+01  0.18118895358E+02  0.43400726524E+02  0.00000000000E+00 0.  1.
         11    1    3    3    0    0  0.34382107790E+02  0.11396746620E+02 -0.12844003884E+02  0.38431544409E+02  0.51100000000E-03 0. -1.
        -11    1    3    3    0    0  0.13220482896E+01 -0.31559539429E+01 -0.14929095249E+00  0.34249299292E+01  0.51100000000E-03 0.  1.
        -12    1    3    3    0    0  0.24649711657E+01  0.16812242134E+01 -0.51256005216E+01  0.59307991376E+01  0.00000000000E+00 0.  1.
</event>
<event>
 7    1  0.2430096E-009  0.4778726E+02  0.7816164E-02  0.1312668E+00
        -11   -1    0    0    0    0  0.00000000000E+00  0.00000000000E+00  0.45593999997E+02  0.45594000000E+02  0.51100000000E-03 0.  1.
         11   -1    0    0    0    0 -0.00000000000E+00 -0.00000000000E+00 -0.45593999997E+02  0.45594000000E+02  0.51100000000E-03 0. -1.
    9900012    2    1    2    0    0  0.26688781114E+02 -0.88192836362E+01 -0.33068913188E+02  0.47787264746E+02  0.19999971282E+02 0.  0.
        -12    1    1    2    0    0 -0.26688781114E+02  0.88192836362E+01  0.33068913188E+02  0.43400735254E+02  0.00000000000E+00 0.  1.
         11    1    3    3    0    0  0.18965156476E+02 -0.11725234120E+02 -0.15786556930E+02  0.27319839957E+02  0.51100000000E-03 0. -1.
        -11    1    3    3    0    0  0.36870242131E+01  0.38930566584E+01 -0.14517750516E+02  0.15476275973E+02  0.51100000000E-03 0.  1.
        -12    1    3    3    0    0  0.40366004246E+01 -0.98710617422E+00 -0.27646057420E+01  0.49911488152E+01  0.00000000000E+00 0.  1.
</event>
<event>
 7    1  0.2430096E-009  0.4778727E+02  0.7816164E-02  0.1312668E+00
        -11   -1    0    0    0    0  0.00000000000E+00  0.00000000000E+00  0.45593999997E+02  0.45594000000E+02  0.51100000000E-03 0.  1.
         11   -1    0    0    0    0 -0.00000000000E+00 -0.00000000000E+00 -0.45593999997E+02  0.45594000000E+02  0.51100000000E-03 0. -1.
    9900012    2    1    2    0    0 -0.99641431630E+01  0.16365169011E+02 -0.38942525868E+02  0.47787271588E+02  0.20000002477E+02 0.  0.
        -12    1    1    2    0    0  0.99641431630E+01 -0.16365169011E+02  0.38942525868E+02  0.43400728412E+02  0.00000000000E+00 0.  1.
         11    1    3    3    0    0  0.10147093023E+00  0.42787649876E+01 -0.32666607768E+01  0.53841618717E+01  0.51100000000E-03 0. -1.
        -11    1    3    3    0    0  0.14582889321E+01  0.55467202908E+01 -0.24212131297E+02  0.24882122393E+02  0.51100000000E-03 0.  1.
        -12    1    3    3    0    0 -0.11523903025E+02  0.65396837326E+01 -0.11463733794E+02  0.17520987323E+02  0.00000000000E+00 0.  1.
</event>
<event>
 7    1  0.2430096E-009  0.4778727E+02  0.7816164E-02  0.1312668E+00
        -11   -1    0    0    0    0  0.00000000000E+00  0.00000000000E+00  0.45593999997E+02  0.45594000000E+02  0.51100000000E-03 0.  1.
         11   -1    0    0    0    0 -0.00000000000E+00 -0.00000000000E+00 -0.45593999997E+02  0.45594000000E+02  0.51100000000E-03 0. -1.
    9900012    2    1    2    0    0  0.11704223824E+02 -0.10531119845E+02 -0.40444157644E+02  0.47787271573E+02  0.20000002408E+02 0.  0.
        -12    1    1    2    0    0 -0.11704223824E+02  0.10531119845E+02  0.40444157644E+02  0.43400728427E+02  0.00000000000E+00 0.  1.
         11    1    3    3    0    0  0.37706675908E+01 -0.14589835542E+02 -0.25344344991E+02  0.29485878968E+02  0.51100000000E-03 0. -1.
        -11    1    3    3    0    0  0.62852017418E+01  0.85081302566E+00 -0.11877962848E+02  0.13465275542E+02  0.51100000000E-03 0.  1.
         12    1    3    3    0    0  0.16483544917E+01  0.32079026716E+01 -0.32218498044E+01  0.48361170626E+01  0.00000000000E+00 0. -1.
</event>
<event>
 7    1  0.2430096E-009  0.4778727E+02  0.7816164E-02  0.1312668E+00
        -11   -1    0    0    0    0  0.00000000000E+00  0.00000000000E+00  0.45593999997E+02  0.45594000000E+02  0.51100000000E-03 0.  1.
         11   -1    0    0    0    0 -0.00000000000E+00 -0.00000000000E+00 -0.45593999997E+02  0.45594000000E+02  0.51100000000E-03 0. -1.
    9900012    2    1    2    0    0 -0.17424031371E+02  0.45937204197E+01 -0.39483213024E+02  0.47787271351E+02  0.20000001400E+02 0.  0.
        -12    1    1    2    0    0  0.17424031371E+02 -0.45937204197E+01  0.39483213024E+02  0.43400728649E+02  0.00000000000E+00 0.  1.
         11    1    3    3    0    0 -0.16657624358E+02  0.69860866944E+01 -0.33135927531E+02  0.37739522389E+02  0.51100000000E-03 0. -1.
        -11    1    3    3    0    0  0.10203704465E+01  0.24293727764E+01 -0.24168423740E+01  0.35754909113E+01  0.51100000000E-03 0.  1.
         12    1    3    3    0    0 -0.17867774593E+01 -0.48217390511E+01 -0.39304431190E+01  0.64722580509E+01  0.00000000000E+00 0. -1.
</event>
<event>
 7    1  0.2430096E-009  0.4778727E+02  0.7816164E-02  0.1312668E+00
        -11   -1    0    0    0    0  0.00000000000E+00  0.00000000000E+00  0.45593999997E+02  0.45594000000E+02  0.51100000000E-03 0.  1.
         11   -1    0    0    0    0 -0.00000000000E+00 -0.00000000000E+00 -0.45593999997E+02  0.45594000000E+02  0.51100000000E-03 0. -1.
    9900012    2    1    2    0    0 -0.14574382335E+02  0.11893495406E+02 -0.39112089949E+02  0.47787269204E+02  0.19999991609E+02 0.  0.
        -12    1    1    2    0    0  0.14574382335E+02 -0.11893495406E+02  0.39112089949E+02  0.43400730796E+02  0.00000000000E+00 0.  1.
         11    1    3    3    0    0 -0.49584834707E+01  0.92919026451E+00 -0.27255005124E+02  0.27717959114E+02  0.51100000000E-03 0. -1.
        -11    1    3    3    0    0 -0.10548697022E+02  0.10359784599E+02 -0.11865707450E+02  0.18957720310E+02  0.51100000000E-03 0.  1.
        -12    1    3    3    0    0  0.93279815762E+00  0.60452054200E+00  0.86226250742E-02  0.11115897796E+01  0.00000000000E+00 0.  1.
</event>
<event>
 7    1  0.2430096E-009  0.4778727E+02  0.7816164E-02  0.1312668E+00
        -11   -1    0    0    0    0  0.00000000000E+00  0.00000000000E+00  0.45593999997E+02  0.45594000000E+02  0.51100000000E-03 0.  1.
         11   -1    0    0    0    0 -0.00000000000E+00 -0.00000000000E+00 -0.45593999997E+02  0.45594000000E+02  0.51100000000E-03 0. -1.
    9900012    2    1    2    0    0 -0.15808145764E+02  0.15598970402E+02 -0.37288042680E+02  0.47787268704E+02  0.19999989331E+02 0.  0.
        -12    1    1    2    0    0  0.15808145764E+02 -0.15598970402E+02  0.37288042680E+02  0.43400731296E+02  0.00000000000E+00 0.  1.
         11    1    3    3    0    0  0.10513784431E+00 -0.18678043300E+00 -0.11836295212E+02  0.11838235743E+02  0.51100000000E-03 0. -1.
        -11    1    3    3    0    0 -0.80147667417E+01  0.15464632058E+02 -0.18670775464E+02  0.25534078940E+02  0.51100000000E-03 0.  1.
        -12    1    3    3    0    0 -0.78985168662E+01  0.32111877681E+00 -0.67809720032E+01  0.10414954021E+02  0.00000000000E+00 0.  1.
</event>
<event>
 7    1  0.2430096E-009  0.4778727E+02  0.7816164E-02  0.1312668E+00
        -11   -1    0    0    0    0  0.00000000000E+00  0.00000000000E+00  0.45593999997E+02  0.45594000000E+02  0.51100000000E-03 0.  1.
         11   -1    0    0    0    0 -0.00000000000E+00 -0.00000000000E+00 -0.45593999997E+02  0.45594000000E+02  0.51100000000E-03 0. -1.
    9900012    2    1    2    0    0  0.31867953967E+02 -0.27970808169E+02 -0.92569184850E+01  0.47787272592E+02  0.20000007057E+02 0.  0.
        -12    1    1    2    0    0 -0.31867953967E+02  0.27970808169E+02  0.92569184850E+01  0.43400727408E+02  0.00000000000E+00 0.  1.
         11    1    3    3    0    0  0.12091924820E+02 -0.74806605220E+01 -0.11465861621E+02  0.18265839994E+02  0.51100000000E-03 0. -1.
        -11    1    3    3    0    0  0.18368557860E+02 -0.16272319594E+02  0.37311260599E+01  0.24821635819E+02  0.51100000000E-03 0.  1.
         12    1    3    3    0    0  0.14074712874E+01 -0.42178280536E+01 -0.15221829235E+01  0.46997967793E+01  0.00000000000E+00 0. -1.
</event>
<event>
 7    1  0.2430096E-009  0.4778727E+02  0.7816164E-02  0.1312668E+00
        -11   -1    0    0    0    0  0.00000000000E+00  0.00000000000E+00  0.45593999997E+02  0.45594000000E+02  0.51100000000E-03 0. -1.
         11   -1    0    0    0    0 -0.00000000000E+00 -0.00000000000E+00 -0.45593999997E+02  0.45594000000E+02  0.51100000000E-03 0.  1.
    9900012    2    1    2    0    0  0.38219134142E+02 -0.14833199172E+02  0.14244202813E+02  0.47787270444E+02  0.19999997261E+02 0.  0.
        -12    1    1    2    0    0 -0.38219134142E+02  0.14833199172E+02 -0.14244202813E+02  0.43400729556E+02  0.00000000000E+00 0.  1.
         11    1    3    3    0    0  0.15336919349E+01 -0.20324867667E+01 -0.11039667687E+01  0.27752398627E+01  0.51100000000E-03 0. -1.
        -11    1    3    3    0    0  0.13169644451E+01  0.19275230817E+01 -0.18865688736E+01  0.30014801276E+01  0.51100000000E-03 0.  1.
        -12    1    3    3    0    0  0.35368477762E+02 -0.14728235487E+02  0.17234738455E+02  0.42010550453E+02  0.00000000000E+00 0.  1.
</event>
<event>
 7    1  0.2430096E-009  0.4778727E+02  0.7816164E-02  0.1312668E+00
        -11   -1    0    0    0    0  0.00000000000E+00  0.00000000000E+00  0.45593999997E+02  0.45594000000E+02  0.51100000000E-03 0.  1.
         11   -1    0    0    0    0 -0.00000000000E+00 -0.00000000000E+00 -0.45593999997E+02  0.45594000000E+02  0.51100000000E-03 0. -1.
    9900012    2    1    2    0    0 -0.84843690352E+01 -0.63611658246E+01 -0.42085324174E+02  0.47787268907E+02  0.19999990253E+02 0.  0.
        -12    1    1    2    0    0  0.84843690352E+01  0.63611658246E+01  0.42085324174E+02  0.43400731093E+02  0.00000000000E+00 0.  1.
         11    1    3    3    0    0 -0.74122883946E+01 -0.15258749377E+00 -0.55550223967E+01  0.92641014824E+01  0.51100000000E-03 0. -1.
        -11    1    3    3    0    0 -0.55161001073E+01 -0.20122147950E+01 -0.14069263553E+02  0.15245345058E+02  0.51100000000E-03 0.  1.
         12    1    3    3    0    0  0.44440194666E+01 -0.41963635358E+01 -0.22461038225E+02  0.23277822366E+02  0.00000000000E+00 0. -1.
</event>
<event>
 7    1  0.2430096E-009  0.4778726E+02  0.7816164E-02  0.1312668E+00
        -11   -1    0    0    0    0  0.00000000000E+00  0.00000000000E+00  0.45593999997E+02  0.45594000000E+02  0.51100000000E-03 0.  1.
         11   -1    0    0    0    0 -0.00000000000E+00 -0.00000000000E+00 -0.45593999997E+02  0.45594000000E+02  0.51100000000E-03 0. -1.
    9900012    2    1    2    0    0  0.28429682634E+02  0.19140952383E+02 -0.26627077802E+02  0.47787260547E+02  0.19999952138E+02 0.  0.
        -12    1    1    2    0    0 -0.28429682634E+02 -0.19140952383E+02  0.26627077802E+02  0.43400739453E+02  0.00000000000E+00 0.  1.
         11    1    3    3    0    0  0.17789681256E+02  0.35870197817E+01 -0.88696825106E+01  0.20199275685E+02  0.51100000000E-03 0. -1.
        -11    1    3    3    0    0  0.35928165738E+01 -0.19376684700E+00 -0.15536704085E+01  0.39191540571E+01  0.51100000000E-03 0.  1.
         12    1    3    3    0    0  0.70471848039E+01  0.15747699449E+02 -0.16203724883E+02  0.23668830805E+02  0.00000000000E+00 0. -1.
</event>
<event>
 7    1  0.2430096E-009  0.4778727E+02  0.7816164E-02  0.1312668E+00
        -11   -1    0    0    0    0  0.00000000000E+00  0.00000000000E+00  0.45593999997E+02  0.45594000000E+02  0.51100000000E-03 0. -1.
         11   -1    0    0    0    0 -0.00000000000E+00 -0.00000000000E+00 -0.45593999997E+02  0.45594000000E+02  0.51100000000E-03 0.  1.
    9900012    2    1    2    0    0 -0.23493234139E+02  0.33678771838E+02  0.14051040315E+02  0.47787268937E+02  0.19999990391E+02 0.  0.
        -12    1    1    2    0    0  0.23493234139E+02 -0.33678771838E+02 -0.14051040315E+02  0.43400731063E+02  0.00000000000E+00 0.  1.
         11    1    3    3    0    0 -0.14212889868E+01  0.46392539817E+01  0.98839631046E+01  0.11010697835E+02  0.51100000000E-03 0. -1.
        -11    1    3    3    0    0 -0.14496087433E+02  0.18432712763E+02  0.17075746198E+01  0.23512066307E+02  0.51100000000E-03 0.  1.
         12    1    3    3    0    0 -0.75758577195E+01  0.10606805094E+02  0.24595025907E+01  0.13264504796E+02  0.00000000000E+00 0. -1.
</event>
<event>
 7    1  0.2430096E-009  0.4778727E+02  0.7816164E-02  0.1312668E+00
        -11   -1    0    0    0    0  0.00000000000E+00  0.00000000000E+00  0.45593999997E+02  0.45594000000E+02  0.51100000000E-03 0.  1.
         11   -1    0    0    0    0 -0.00000000000E+00 -0.00000000000E+00 -0.45593999997E+02  0.45594000000E+02  0.51100000000E-03 0. -1.
    9900012    2    1    2    0    0  0.25350662850E+02 -0.71330874666E+01 -0.34497626524E+02  0.47787270979E+02  0.19999999702E+02 0.  0.
        -12    1    1    2    0    0 -0.25350662850E+02  0.71330874666E+01  0.34497626524E+02  0.43400729021E+02  0.00000000000E+00 0.  1.
         11    1    3    3    0    0  0.59735966267E+01 -0.16935530312E+01 -0.10287185939E+01  0.62936667162E+01  0.51100000000E-03 0. -1.
        -11    1    3    3    0    0  0.10728555386E+02 -0.52206029153E+00 -0.28325956713E+02  0.30294129326E+02  0.51100000000E-03 0.  1.
        -12    1    3    3    0    0  0.86485108367E+01 -0.49174741439E+01 -0.51429512174E+01  0.11199474937E+02  0.00000000000E+00 0.  1.
</event>
<event>
 7    1  0.2430096E-009  0.4778726E+02  0.7816164E-02  0.1312668E+00
        -11   -1    0    0    0    0  0.00000000000E+00  0.00000000000E+00  0.45593999997E+02  0.45594000000E+02  0.51100000000E-03 0.  1.
         11   -1    0    0    0    0 -0.00000000000E+00 -0.00000000000E+00 -0.45593999997E+02  0.45594000000E+02  0.51100000000E-03 0. -1.
    9900012    2    1    2    0    0 -0.73641883767E+01  0.66049910701E+01 -0.42258333703E+02  0.47787263315E+02  0.19999964758E+02 0.  0.
        -12    1    1    2    0    0  0.73641883767E+01 -0.66049910701E+01  0.42258333703E+02  0.43400736685E+02  0.00000000000E+00 0.  1.
         11    1    3    3    0    0 -0.45394192944E+01 -0.33521573627E+01 -0.36105496489E+01  0.66992055904E+01  0.51100000000E-03 0. -1.
        -11    1    3    3    0    0 -0.42418117235E-01 -0.11553952458E+01 -0.50408594776E+00  0.12612852075E+01  0.51100000000E-03 0.  1.
         12    1    3    3    0    0 -0.27823509651E+01  0.11112543679E+02 -0.38143698106E+02  0.39826772517E+02  0.00000000000E+00 0. -1.
</event>
<event>
 7    1  0.2430096E-009  0.4778727E+02  0.7816164E-02  0.1312668E+00
        -11   -1    0    0    0    0  0.00000000000E+00  0.00000000000E+00  0.45593999997E+02  0.45594000000E+02  0.51100000000E-03 0.  1.
         11   -1    0    0    0    0 -0.00000000000E+00 -0.00000000000E+00 -0.45593999997E+02  0.45594000000E+02  0.51100000000E-03 0. -1.
    9900012    2    1    2    0    0  0.18458111166E+02 -0.39029048358E+02  0.44334059470E+01  0.47787267611E+02  0.19999984347E+02 0.  0.
        -12    1    1    2    0    0 -0.18458111166E+02  0.39029048358E+02 -0.44334059470E+01  0.43400732389E+02  0.00000000000E+00 0.  1.
         11    1    3    3    0    0  0.21956877966E+02 -0.37883641759E+02  0.44840691199E+01  0.44015698098E+02  0.51100000000E-03 0. -1.
        -11    1    3    3    0    0 -0.27417460134E+01 -0.12192505572E+01 -0.15069812924E+00  0.30044056501E+01  0.51100000000E-03 0.  1.
         12    1    3    3    0    0 -0.75702078633E+00  0.73843957418E-01  0.10003495632E+00  0.76716386351E+00  0.00000000000E+00 0. -1.
</event>
<event>
 7    1  0.2430096E-009  0.4778729E+02  0.7816164E-02  0.1312668E+00
        -11   -1    0    0    0    0  0.00000000000E+00  0.00000000000E+00  0.45593999997E+02  0.45594000000E+02  0.51100000000E-03 0.  1.
         11   -1    0    0    0    0 -0.00000000000E+00 -0.00000000000E+00 -0.45593999997E+02  0.45594000000E+02  0.51100000000E-03 0. -1.
    9900012    2    1    2    0    0  0.30559677648E+02 -0.20561113309E+02 -0.22955791991E+02  0.47787289586E+02  0.20000084540E+02 0.  0.
        -12    1    1    2    0    0 -0.30559677648E+02  0.20561113309E+02  0.22955791991E+02  0.43400710414E+02  0.00000000000E+00 0.  1.
         11    1    3    3    0    0  0.28960241390E+01  0.29037559231E+01 -0.11626981930E+01  0.42627012121E+01  0.51100000000E-03 0. -1.
        -11    1    3    3    0    0  0.22301167180E+02 -0.12760290593E+02 -0.15312765760E+02  0.29910664805E+02  0.51100000000E-03 0.  1.
         12    1    3    3    0    0  0.53624863295E+01 -0.10704578639E+02 -0.64803280377E+01  0.13613923569E+02  0.00000000000E+00 0. -1.
</event>
<event>
 7    1  0.2430096E-009  0.4778727E+02  0.7816164E-02  0.1312668E+00
        -11   -1    0    0    0    0  0.00000000000E+00  0.00000000000E+00  0.45593999997E+02  0.45594000000E+02  0.51100000000E-03 0.  1.
         11   -1    0    0    0    0 -0.00000000000E+00 -0.00000000000E+00 -0.45593999997E+02  0.45594000000E+02  0.51100000000E-03 0. -1.
    9900012    2    1    2    0    0  0.13165569387E+02  0.50416885080E+01 -0.41047201417E+02  0.47787267466E+02  0.19999983685E+02 0.  0.
        -12    1    1    2    0    0 -0.13165569387E+02 -0.50416885080E+01  0.41047201417E+02  0.43400732534E+02  0.00000000000E+00 0.  1.
         11    1    3    3    0    0  0.10512353842E+02  0.68813420759E+01 -0.21654093819E+02  0.25035219820E+02  0.51100000000E-03 0. -1.
        -11    1    3    3    0    0  0.14954290180E+01 -0.67068839723E+01 -0.10511963263E+02  0.12558661253E+02  0.51100000000E-03 0.  1.
        -12    1    3    3    0    0  0.11577865264E+01  0.48672304044E+01 -0.88811443352E+01  0.10193386393E+02  0.00000000000E+00 0.  1.
</event>
<event>
 7    1  0.2430096E-009  0.4778727E+02  0.7816164E-02  0.1312668E+00
        -11   -1    0    0    0    0  0.00000000000E+00  0.00000000000E+00  0.45593999997E+02  0.45594000000E+02  0.51100000000E-03 0.  1.
         11   -1    0    0    0    0 -0.00000000000E+00 -0.00000000000E+00 -0.45593999997E+02  0.45594000000E+02  0.51100000000E-03 0. -1.
    9900012    2    1    2    0    0  0.30639560875E+02  0.16899549976E+02 -0.25675786014E+02  0.47787268815E+02  0.19999989835E+02 0.  0.
        -12    1    1    2    0    0 -0.30639560875E+02 -0.16899549976E+02  0.25675786014E+02  0.43400731185E+02  0.00000000000E+00 0.  1.
         11    1    3    3    0    0  0.11421749764E+02  0.39564173269E+01 -0.99352483694E+01  0.15646685469E+02  0.51100000000E-03 0. -1.
        -11    1    3    3    0    0  0.39806473076E+01 -0.36555462290E+01 -0.40700763845E+01  0.67656554196E+01  0.51100000000E-03 0.  1.
        -12    1    3    3    0    0  0.15237163803E+02  0.16598678878E+02 -0.11670461260E+02  0.25374927926E+02  0.00000000000E+00 0.  1.
</event>
<event>
 7    1  0.2430096E-009  0.4778726E+02  0.7816164E-02  0.1312668E+00
        -11   -1    0    0    0    0  0.00000000000E+00  0.00000000000E+00  0.45593999997E+02  0.45594000000E+02  0.51100000000E-03 0. -1.
         11   -1    0    0    0    0 -0.00000000000E+00 -0.00000000000E+00 -0.45593999997E+02  0.45594000000E+02  0.51100000000E-03 0.  1.
    9900012    2    1    2    0    0  0.26733827576E+02  0.25799266008E+02  0.22434887241E+02  0.47787264650E+02  0.19999970847E+02 0.  0.
        -12    1    1    2    0    0 -0.26733827576E+02 -0.25799266008E+02 -0.22434887241E+02  0.43400735350E+02  0.00000000000E+00 0.  1.
         11    1    3    3    0    0  0.36840286300E+01  0.10496793311E+02  0.65844063589E+01  0.12927070206E+02  0.51100000000E-03 0. -1.
        -11    1    3    3    0    0  0.24652796807E+02  0.12244120325E+02  0.13321107299E+02  0.30579907993E+02  0.51100000000E-03 0.  1.
        -12    1    3    3    0    0 -0.16029978620E+01  0.30583523719E+01  0.25293735834E+01  0.42802864508E+01  0.00000000000E+00 0.  1.
</event>
<event>
 7    1  0.2430096E-009  0.4778727E+02  0.7816164E-02  0.1312668E+00
        -11   -1    0    0    0    0  0.00000000000E+00  0.00000000000E+00  0.45593999997E+02  0.45594000000E+02  0.51100000000E-03 0.  1.
         11   -1    0    0    0    0 -0.00000000000E+00 -0.00000000000E+00 -0.45593999997E+02  0.45594000000E+02  0.51100000000E-03 0. -1.
    9900012    2    1    2    0    0  0.63043571780E+01  0.66872942870E+01 -0.42416488102E+02  0.47787270891E+02  0.19999999299E+02 0.  0.
        -12    1    1    2    0    0 -0.63043571780E+01 -0.66872942870E+01  0.42416488102E+02  0.43400729109E+02  0.00000000000E+00 0.  1.
         11    1    3    3    0    0  0.81729568090E+01  0.10398932917E+02 -0.21093348931E+02  0.24897076097E+02  0.51100000000E-03 0. -1.
        -11    1    3    3    0    0  0.12826100004E+01 -0.42363071812E+00 -0.30560889100E+00  0.13849001603E+01  0.51100000000E-03 0.  1.
         12    1    3    3    0    0 -0.31512096315E+01 -0.32880079122E+01 -0.21017530280E+02  0.21505294633E+02  0.00000000000E+00 0. -1.
</event>
<event>
 7    1  0.2430096E-009  0.4778727E+02  0.7816164E-02  0.1312668E+00
        -11   -1    0    0    0    0  0.00000000000E+00  0.00000000000E+00  0.45593999997E+02  0.45594000000E+02  0.51100000000E-03 0.  1.
         11   -1    0    0    0    0 -0.00000000000E+00 -0.00000000000E+00 -0.45593999997E+02  0.45594000000E+02  0.51100000000E-03 0. -1.
    9900012    2    1    2    0    0 -0.35108229404E+02 -0.16484311898E+02  0.19475704110E+02  0.47787270038E+02  0.19999995410E+02 0.  0.
        -12    1    1    2    0    0  0.35108229404E+02  0.16484311898E+02 -0.19475704110E+02  0.43400729962E+02  0.00000000000E+00 0.  1.
         11    1    3    3    0    0 -0.25044513067E+01 -0.33509454520E-01  0.59278494553E+01  0.64352776674E+01  0.51100000000E-03 0. -1.
        -11    1    3    3    0    0 -0.28195611895E+01  0.24230380049E+01  0.48422170366E+00  0.37490678033E+01  0.51100000000E-03 0.  1.
         12    1    3    3    0    0 -0.29784216908E+02 -0.18873840448E+02  0.13063632952E+02  0.37602924567E+02  0.00000000000E+00 0. -1.
</event>
<event>
 7    1  0.2430096E-009  0.4778727E+02  0.7816164E-02  0.1312668E+00
        -11   -1    0    0    0    0  0.00000000000E+00  0.00000000000E+00  0.45593999997E+02  0.45594000000E+02  0.51100000000E-03 0. -1.
         11   -1    0    0    0    0 -0.00000000000E+00 -0.00000000000E+00 -0.45593999997E+02  0.45594000000E+02  0.51100000000E-03 0.  1.
    9900012    2    1    2    0    0  0.23748616105E+02 -0.34967164807E+02 -0.98450027578E+01  0.47787268891E+02  0.19999990182E+02 0.  0.
        -12    1    1    2    0    0 -0.23748616105E+02  0.34967164807E+02  0.98450027578E+01  0.43400731109E+02  0.00000000000E+00 0.  1.
         11    1    3    3    0    0  0.12993258364E+02 -0.25547695257E+02 -0.31972339445E+01  0.28839760765E+02  0.51100000000E-03 0. -1.
        -11    1    3    3    0    0  0.38267191353E+01  0.14211041985E+01  0.68469205255E+00  0.41390965139E+01  0.51100000000E-03 0.  1.
         12    1    3    3    0    0  0.69286386048E+01 -0.10840573748E+02 -0.73324608659E+01  0.14808411612E+02  0.00000000000E+00 0. -1.
</event>
<event>
 7    1  0.2430096E-009  0.4778727E+02  0.7816164E-02  0.1312668E+00
        -11   -1    0    0    0    0  0.00000000000E+00  0.00000000000E+00  0.45593999997E+02  0.45594000000E+02  0.51100000000E-03 0.  1.
         11   -1    0    0    0    0 -0.00000000000E+00 -0.00000000000E+00 -0.45593999997E+02  0.45594000000E+02  0.51100000000E-03 0. -1.
    9900012    2    1    2    0    0 -0.32287088986E+02  0.25612096404E+02 -0.13608371137E+02  0.47787270025E+02  0.19999995351E+02 0.  0.
        -12    1    1    2    0    0  0.32287088986E+02 -0.25612096404E+02  0.13608371137E+02  0.43400729975E+02  0.00000000000E+00 0.  1.
         11    1    3    3    0    0 -0.23754572640E+02  0.24248392997E+02 -0.10485640389E+02  0.35527636269E+02  0.51100000000E-03 0. -1.
        -11    1    3    3    0    0  0.65957141736E+00 -0.15136023727E+01 -0.19523530376E+01  0.25568944526E+01  0.51100000000E-03 0.  1.
        -12    1    3    3    0    0 -0.91920877634E+01  0.28773057799E+01 -0.11703777103E+01  0.97027393032E+01  0.00000000000E+00 0.  1.
</event>
<event>
 7    1  0.2430096E-009  0.4778727E+02  0.7816164E-02  0.1312668E+00
        -11   -1    0    0    0    0  0.00000000000E+00  0.00000000000E+00  0.45593999997E+02  0.45594000000E+02  0.51100000000E-03 0. -1.
         11   -1    0    0    0    0 -0.00000000000E+00 -0.00000000000E+00 -0.45593999997E+02  0.45594000000E+02  0.51100000000E-03 0.  1.
    9900012    2    1    2    0    0 -0.18966019933E+01 -0.24406899389E+02  0.35837537938E+02  0.47787274633E+02  0.20000016361E+02 0.  0.
        -12    1    1    2    0    0  0.18966019933E+01  0.24406899389E+02 -0.35837537938E+02  0.43400725367E+02  0.00000000000E+00 0.  1.
         11    1    3    3    0    0 -0.98685621030E+01 -0.10465100635E+02  0.13569998517E+02  0.19775027415E+02  0.51100000000E-03 0. -1.
        -11    1    3    3    0    0  0.44951357867E+01 -0.44105983032E+01  0.12144288312E+02  0.13680035160E+02  0.51100000000E-03 0.  1.
         12    1    3    3    0    0  0.34768243230E+01 -0.95312004515E+01  0.10123251110E+02  0.14332212057E+02  0.00000000000E+00 0. -1.
</event>
<event>
 7    1  0.2430096E-009  0.4778727E+02  0.7816164E-02  0.1312668E+00
        -11   -1    0    0    0    0  0.00000000000E+00  0.00000000000E+00  0.45593999997E+02  0.45594000000E+02  0.51100000000E-03 0.  1.
         11   -1    0    0    0    0 -0.00000000000E+00 -0.00000000000E+00 -0.45593999997E+02  0.45594000000E+02  0.51100000000E-03 0. -1.
    9900012    2    1    2    0    0  0.25602647103E+02 -0.33647633713E+02  0.97961466568E+01  0.47787270945E+02  0.19999999548E+02 0.  0.
        -12    1    1    2    0    0 -0.25602647103E+02  0.33647633713E+02 -0.97961466568E+01  0.43400729055E+02  0.00000000000E+00 0.  1.
         11    1    3    3    0    0  0.30395238506E+01 -0.14507680284E+02  0.29570174778E+01  0.15114742640E+02  0.51100000000E-03 0. -1.
        -11    1    3    3    0    0  0.12487613548E+02 -0.32330551779E+01  0.46697821095E+01  0.13718600625E+02  0.51100000000E-03 0.  1.
         12    1    3    3    0    0  0.10075509704E+02 -0.15906898251E+02  0.21693470695E+01  0.18953927680E+02  0.00000000000E+00 0. -1.
</event>
<event>
 7    1  0.2430096E-009  0.4778727E+02  0.7816164E-02  0.1312668E+00
        -11   -1    0    0    0    0  0.00000000000E+00  0.00000000000E+00  0.45593999997E+02  0.45594000000E+02  0.51100000000E-03 0. -1.
         11   -1    0    0    0    0 -0.00000000000E+00 -0.00000000000E+00 -0.45593999997E+02  0.45594000000E+02  0.51100000000E-03 0.  1.
    9900012    2    1    2    0    0  0.17605056105E+02  0.35541971494E+02  0.17619688641E+02  0.47787272288E+02  0.20000005669E+02 0.  0.
        -12    1    1    2    0    0 -0.17605056105E+02 -0.35541971494E+02 -0.17619688641E+02  0.43400727712E+02  0.00000000000E+00 0.  1.
         11    1    3    3    0    0  0.94890537475E+01  0.28998137403E+02  0.57705596274E+01  0.31052108987E+02  0.51100000000E-03 0. -1.
        -11    1    3    3    0    0  0.66301909675E+01  0.19714401323E+01  0.59421710353E+01  0.91189585663E+01  0.51100000000E-03 0.  1.
         12    1    3    3    0    0  0.14858113903E+01  0.45723939585E+01  0.59069579780E+01  0.76162047342E+01  0.00000000000E+00 0. -1.
</event>
<event>
 7    1  0.2430096E-009  0.4778727E+02  0.7816164E-02  0.1312668E+00
        -11   -1    0    0    0    0  0.00000000000E+00  0.00000000000E+00  0.45593999997E+02  0.45594000000E+02  0.51100000000E-03 0.  1.
         11   -1    0    0    0    0 -0.00000000000E+00 -0.00000000000E+00 -0.45593999997E+02  0.45594000000E+02  0.51100000000E-03 0. -1.
    9900012    2    1    2    0    0  0.55186980059E+01 -0.61474460058E+01 -0.42607228450E+02  0.47787273782E+02  0.20000012482E+02 0.  0.
        -12    1    1    2    0    0 -0.55186980059E+01  0.61474460058E+01  0.42607228450E+02  0.43400726218E+02  0.00000000000E+00 0.  1.
         11    1    3    3    0    0 -0.31619700197E+01 -0.77772977761E+01 -0.22666810111E+02  0.24171650667E+02  0.51100000000E-03 0. -1.
        -11    1    3    3    0    0  0.10567573964E+02  0.86823749941E+00 -0.16303618105E+02  0.19448275487E+02  0.51100000000E-03 0.  1.
        -12    1    3    3    0    0 -0.18869059380E+01  0.76161427089E+00 -0.36368002342E+01  0.41673476289E+01  0.00000000000E+00 0.  1.
</event>
<event>
 7    1  0.2430096E-009  0.4778727E+02  0.7816164E-02  0.1312668E+00
        -11   -1    0    0    0    0  0.00000000000E+00  0.00000000000E+00  0.45593999997E+02  0.45594000000E+02  0.51100000000E-03 0. -1.
         11   -1    0    0    0    0 -0.00000000000E+00 -0.00000000000E+00 -0.45593999997E+02  0.45594000000E+02  0.51100000000E-03 0.  1.
    9900012    2    1    2    0    0  0.12785934086E+02  0.32620967795E+02 -0.25612807556E+02  0.47787267734E+02  0.19999984905E+02 0.  0.
        -12    1    1    2    0    0 -0.12785934086E+02 -0.32620967795E+02  0.25612807556E+02  0.43400732266E+02  0.00000000000E+00 0.  1.
         11    1    3    3    0    0  0.59374051040E+01  0.96485308761E+01 -0.16271660343E+01  0.11445287109E+02  0.51100000000E-03 0. -1.
        -11    1    3    3    0    0  0.87714353535E+00  0.53688202081E+01 -0.14470748365E+02  0.15459500953E+02  0.51100000000E-03 0.  1.
        -12    1    3    3    0    0  0.59713854464E+01  0.17603616711E+02 -0.95148931565E+01  0.20882479672E+02  0.00000000000E+00 0.  1.
</event>
<event>
 7    1  0.2430096E-009  0.4778727E+02  0.7816164E-02  0.1312668E+00
        -11   -1    0    0    0    0  0.00000000000E+00  0.00000000000E+00  0.45593999997E+02  0.45594000000E+02  0.51100000000E-03 0.  1.
         11   -1    0    0    0    0 -0.00000000000E+00 -0.00000000000E+00 -0.45593999997E+02  0.45594000000E+02  0.51100000000E-03 0. -1.
    9900012    2    1    2    0    0 -0.43271946344E+02  0.33227548820E+01  0.34785448671E+00  0.47787273703E+02  0.20000012120E+02 0.  0.
        -12    1    1    2    0    0  0.43271946344E+02 -0.33227548820E+01 -0.34785448671E+00  0.43400726297E+02  0.00000000000E+00 0.  1.
         11    1    3    3    0    0 -0.27989665904E+02 -0.47043633572E+01 -0.45580552482E+01  0.28745926667E+02  0.51100000000E-03 0. -1.
        -11    1    3    3    0    0 -0.15410417279E+02  0.81948488927E+01  0.55886342768E+01  0.18326738456E+02  0.51100000000E-03 0.  1.
        -12    1    3    3    0    0  0.12813683976E+00 -0.16773065357E+00 -0.68272454195E+00  0.71460857959E+00  0.00000000000E+00 0.  1.
</event>
<event>
 7    1  0.2430096E-009  0.4778726E+02  0.7816164E-02  0.1312668E+00
        -11   -1    0    0    0    0  0.00000000000E+00  0.00000000000E+00  0.45593999997E+02  0.45594000000E+02  0.51100000000E-03 0.  1.
         11   -1    0    0    0    0 -0.00000000000E+00 -0.00000000000E+00 -0.45593999997E+02  0.45594000000E+02  0.51100000000E-03 0. -1.
    9900012    2    1    2    0    0  0.41201107153E+02 -0.13041149075E+02 -0.40026247069E+01  0.47787264933E+02  0.19999972134E+02 0.  0.
        -12    1    1    2    0    0 -0.41201107153E+02  0.13041149075E+02  0.40026247069E+01  0.43400735067E+02  0.00000000000E+00 0.  1.
         11    1    3    3    0    0  0.17969172187E+02 -0.10122056969E+02 -0.64525147408E+01  0.21609769391E+02  0.51100000000E-03 0. -1.
        -11    1    3    3    0    0  0.75013071479E+01 -0.50210341449E+00  0.62936540574E+01  0.98046824743E+01  0.51100000000E-03 0.  1.
        -12    1    3    3    0    0  0.15730627818E+02 -0.24169886919E+01 -0.38437640235E+01  0.16372813068E+02  0.00000000000E+00 0.  1.
</event>
<event>
 7    1  0.2430096E-009  0.4778727E+02  0.7816164E-02  0.1312668E+00
        -11   -1    0    0    0    0  0.00000000000E+00  0.00000000000E+00  0.45593999997E+02  0.45594000000E+02  0.51100000000E-03 0.  1.
         11   -1    0    0    0    0 -0.00000000000E+00 -0.00000000000E+00 -0.45593999997E+02  0.45594000000E+02  0.51100000000E-03 0. -1.
    9900012    2    1    2    0    0 -0.14091777028E+00  0.36766893977E+02 -0.23060766891E+02  0.47787270512E+02  0.19999997570E+02 0.  0.
        -12    1    1    2    0    0  0.14091777028E+00 -0.36766893977E+02  0.23060766891E+02  0.43400729488E+02  0.00000000000E+00 0.  1.
         11    1    3    3    0    0 -0.31034622208E+01  0.75587926476E+01 -0.14144335273E+02  0.16334902651E+02  0.51100000000E-03 0. -1.
        -11    1    3    3    0    0  0.16437818808E+01  0.17396100300E+02 -0.17198928666E+01  0.17558028257E+02  0.51100000000E-03 0.  1.
         12    1    3    3    0    0  0.13187625697E+01  0.11812001029E+02 -0.71965387516E+01  0.13894339604E+02  0.00000000000E+00 0. -1.
</event>
<event>
 7    1  0.2430096E-009  0.4778726E+02  0.7816164E-02  0.1312668E+00
        -11   -1    0    0    0    0  0.00000000000E+00  0.00000000000E+00  0.45593999997E+02  0.45594000000E+02  0.51100000000E-03 0.  1.
         11   -1    0    0    0    0 -0.00000000000E+00 -0.00000000000E+00 -0.45593999997E+02  0.45594000000E+02  0.51100000000E-03 0. -1.
    9900012    2    1    2    0    0  0.10929135528E+02  0.12331389609E+02 -0.40151149883E+02  0.47787262563E+02  0.19999961332E+02 0.  0.
        -12    1    1    2    0    0 -0.10929135528E+02 -0.12331389609E+02  0.40151149883E+02  0.43400737437E+02  0.00000000000E+00 0.  1.
         11    1    3    3    0    0  0.35421278934E+01 -0.21423367768E+01 -0.16719797365E+02  0.17224630651E+02  0.51100000000E-03 0. -1.
        -11    1    3    3    0    0  0.96599836577E+00  0.12828160904E+02 -0.13751794157E+02  0.18831003898E+02  0.51100000000E-03 0.  1.
         12    1    3    3    0    0  0.64210092690E+01  0.16455654819E+01 -0.96795583611E+01  0.11731628014E+02  0.00000000000E+00 0. -1.
</event>
<event>
 7    1  0.2430096E-009  0.4778727E+02  0.7816164E-02  0.1312668E+00
        -11   -1    0    0    0    0  0.00000000000E+00  0.00000000000E+00  0.45593999997E+02  0.45594000000E+02  0.51100000000E-03 0.  1.
         11   -1    0    0    0    0 -0.00000000000E+00 -0.00000000000E+00 -0.45593999997E+02  0.45594000000E+02  0.51100000000E-03 0. -1.
    9900012    2    1    2    0    0 -0.13192938376E+02 -0.29546235664E+02 -0.28923854727E+02  0.47787273771E+02  0.20000012434E+02 0.  0.
        -12    1    1    2    0    0  0.13192938376E+02  0.29546235664E+02  0.28923854727E+02  0.43400726229E+02  0.00000000000E+00 0.  1.
         11    1    3    3    0    0 -0.31782562241E+01 -0.15366033253E+02 -0.89798194204E+01  0.18079088684E+02  0.51100000000E-03 0. -1.
        -11    1    3    3    0    0 -0.95652281448E+01 -0.11187023446E+02 -0.67883126032E+01  0.16208771431E+02  0.51100000000E-03 0.  1.
        -12    1    3    3    0    0 -0.44945400726E+00 -0.29931789645E+01 -0.13155722703E+02  0.13499413656E+02  0.00000000000E+00 0.  1.
</event>
<event>
 7    1  0.2430096E-009  0.4778727E+02  0.7816164E-02  0.1312668E+00
        -11   -1    0    0    0    0  0.00000000000E+00  0.00000000000E+00  0.45593999997E+02  0.45594000000E+02  0.51100000000E-03 0.  1.
         11   -1    0    0    0    0 -0.00000000000E+00 -0.00000000000E+00 -0.45593999997E+02  0.45594000000E+02  0.51100000000E-03 0. -1.
    9900012    2    1    2    0    0  0.19400967342E+02 -0.51245111084E+01 -0.38483309752E+02  0.47787271005E+02  0.19999999819E+02 0.  0.
        -12    1    1    2    0    0 -0.19400967342E+02  0.51245111084E+01  0.38483309752E+02  0.43400728995E+02  0.00000000000E+00 0.  1.
         11    1    3    3    0    0  0.11637620598E+02 -0.87259046158E+01 -0.27999794845E+02  0.31552561483E+02  0.51100000000E-03 0. -1.
        -11    1    3    3    0    0  0.93829791837E+01  0.39088519576E+01 -0.68860568674E+01  0.12277507949E+02  0.51100000000E-03 0.  1.
        -12    1    3    3    0    0 -0.16196324403E+01 -0.30745845016E+00 -0.35974580394E+01  0.39572015725E+01  0.00000000000E+00 0.  1.
</event>
<event>
 7    1  0.2430096E-009  0.4778727E+02  0.7816164E-02  0.1312668E+00
        -11   -1    0    0    0    0  0.00000000000E+00  0.00000000000E+00  0.45593999997E+02  0.45594000000E+02  0.51100000000E-03 0. -1.
         11   -1    0    0    0    0 -0.00000000000E+00 -0.00000000000E+00 -0.45593999997E+02  0.45594000000E+02  0.51100000000E-03 0.  1.
    9900012    2    1    2    0    0  0.21728424858E+02  0.29737012344E+02  0.22961031340E+02  0.47787270626E+02  0.19999998093E+02 0.  0.
        -12    1    1    2    0    0 -0.21728424858E+02 -0.29737012344E+02 -0.22961031340E+02  0.43400729374E+02  0.00000000000E+00 0.  1.
         11    1    3    3    0    0  0.14865010382E+02  0.92772914669E+01  0.17026022863E+02  0.24431989796E+02  0.51100000000E-03 0. -1.
        -11    1    3    3    0    0  0.49604411774E+01  0.19552844982E+02  0.41537721750E+01  0.20595473947E+02  0.51100000000E-03 0.  1.
        -12    1    3    3    0    0  0.19029732989E+01  0.90687589520E+00  0.17812363023E+01  0.27598068828E+01  0.00000000000E+00 0.  1.
</event>
<event>
 7    1  0.2430096E-009  0.4778727E+02  0.7816164E-02  0.1312668E+00
        -11   -1    0    0    0    0  0.00000000000E+00  0.00000000000E+00  0.45593999997E+02  0.45594000000E+02  0.51100000000E-03 0.  1.
         11   -1    0    0    0    0 -0.00000000000E+00 -0.00000000000E+00 -0.45593999997E+02  0.45594000000E+02  0.51100000000E-03 0. -1.
    9900012    2    1    2    0    0  0.46387984010E+01 -0.12925161649E+02 -0.41170925117E+02  0.47787270406E+02  0.19999997091E+02 0.  0.
        -12    1    1    2    0    0 -0.46387984010E+01  0.12925161649E+02  0.41170925117E+02  0.43400729594E+02  0.00000000000E+00 0.  1.
         11    1    3    3    0    0  0.30953197154E+01  0.10105656589E+01 -0.27685348432E+02  0.27876168409E+02  0.51100000000E-03 0. -1.
        -11    1    3    3    0    0 -0.27685347302E+00 -0.65601149298E+01 -0.37470586787E+01  0.75599077204E+01  0.51100000000E-03 0.  1.
        -12    1    3    3    0    0  0.18203321586E+01 -0.73756123779E+01 -0.97385180065E+01  0.12351194277E+02  0.00000000000E+00 0.  1.
</event>
<event>
 7    1  0.2430096E-009  0.4778729E+02  0.7816164E-02  0.1312668E+00
        -11   -1    0    0    0    0  0.00000000000E+00  0.00000000000E+00  0.45593999997E+02  0.45594000000E+02  0.51100000000E-03 0.  1.
         11   -1    0    0    0    0 -0.00000000000E+00 -0.00000000000E+00 -0.45593999997E+02  0.45594000000E+02  0.51100000000E-03 0. -1.
    9900012    2    1    2    0    0 -0.34739617146E+02  0.14565188186E+02 -0.21555422891E+02  0.47787286153E+02  0.20000068888E+02 0.  0.
        -12    1    1    2    0    0  0.34739617146E+02 -0.14565188186E+02  0.21555422891E+02  0.43400713847E+02  0.00000000000E+00 0.  1.
         11    1    3    3    0    0 -0.12961453562E+02 -0.29736542555E+01 -0.46512227554E+01  0.14088142938E+02  0.51100000000E-03 0. -1.
        -11    1    3    3    0    0 -0.22426583440E+01  0.16093081158E+01  0.82592159836E+00  0.28812385891E+01  0.51100000000E-03 0.  1.
         12    1    3    3    0    0 -0.19535505240E+02  0.15929534326E+02 -0.17730121734E+02  0.30817904626E+02  0.00000000000E+00 0. -1.
</event>
<event>
 7    1  0.2430096E-009  0.4778728E+02  0.7816164E-02  0.1312668E+00
        -11   -1    0    0    0    0  0.00000000000E+00  0.00000000000E+00  0.45593999997E+02  0.45594000000E+02  0.51100000000E-03 0. -1.
         11   -1    0    0    0    0 -0.00000000000E+00 -0.00000000000E+00 -0.45593999997E+02  0.45594000000E+02  0.51100000000E-03 0.  1.
    9900012    2    1    2    0    0 -0.39247024842E+02 -0.18156670778E+02  0.36917432793E+01  0.47787278564E+02  0.20000034287E+02 0.  0.
        -12    1    1    2    0    0  0.39247024842E+02  0.18156670778E+02 -0.36917432793E+01  0.43400721436E+02  0.00000000000E+00 0.  1.
         11    1    3    3    0    0 -0.17731311029E+02 -0.94857899502E+01 -0.14416129684E+01  0.20160799835E+02  0.51100000000E-03 0. -1.
        -11    1    3    3    0    0 -0.12683637699E+02  0.20724093444E+01  0.14930634788E+00  0.12852697709E+02  0.51100000000E-03 0.  1.
        -12    1    3    3    0    0 -0.88320761142E+01 -0.10743290173E+02  0.49840498998E+01  0.14773781020E+02  0.00000000000E+00 0.  1.
</event>
<event>
 7    1  0.2430096E-009  0.4778727E+02  0.7816164E-02  0.1312668E+00
        -11   -1    0    0    0    0  0.00000000000E+00  0.00000000000E+00  0.45593999997E+02  0.45594000000E+02  0.51100000000E-03 0.  1.
         11   -1    0    0    0    0 -0.00000000000E+00 -0.00000000000E+00 -0.45593999997E+02  0.45594000000E+02  0.51100000000E-03 0. -1.
    9900012    2    1    2    0    0  0.18148513052E+02 -0.20818090854E+02 -0.33479273143E+02  0.47787272321E+02  0.20000005822E+02 0.  0.
        -12    1    1    2    0    0 -0.18148513052E+02  0.20818090854E+02  0.33479273143E+02  0.43400727679E+02  0.00000000000E+00 0.  1.
         11    1    3    3    0    0 -0.13659811878E+01 -0.86462304715E+01 -0.15436956668E+02  0.17746065406E+02  0.51100000000E-03 0. -1.
        -11    1    3    3    0    0  0.20004344323E+02 -0.12336207247E+02 -0.17689754906E+02  0.29415696998E+02  0.51100000000E-03 0.  1.
         12    1    3    3    0    0 -0.48985008279E+00  0.16434686437E+00 -0.35256156967E+00  0.62550991666E+00  0.00000000000E+00 0. -1.
</event>
<event>
 7    1  0.2430096E-009  0.4778727E+02  0.7816164E-02  0.1312668E+00
        -11   -1    0    0    0    0  0.00000000000E+00  0.00000000000E+00  0.45593999997E+02  0.45594000000E+02  0.51100000000E-03 0.  1.
         11   -1    0    0    0    0 -0.00000000000E+00 -0.00000000000E+00 -0.45593999997E+02  0.45594000000E+02  0.51100000000E-03 0. -1.
    9900012    2    1    2    0    0 -0.91850092039E+01  0.36875725285E+02  0.20962819803E+02  0.47787270474E+02  0.19999997397E+02 0.  0.
        -12    1    1    2    0    0  0.91850092039E+01 -0.36875725285E+02 -0.20962819803E+02  0.43400729526E+02  0.00000000000E+00 0.  1.
         11    1    3    3    0    0  0.16311664515E+01  0.19683469722E+02  0.14861073718E+02  0.24717426982E+02  0.51100000000E-03 0. -1.
        -11    1    3    3    0    0 -0.86639628815E+01  0.15495362648E+02  0.16335168313E+01  0.17828036737E+02  0.51100000000E-03 0.  1.
         12    1    3    3    0    0 -0.21522127739E+01  0.16968929142E+01  0.44682292532E+01  0.52418067539E+01  0.00000000000E+00 0. -1.
</event>
<event>
 7    1  0.2430096E-009  0.4778726E+02  0.7816164E-02  0.1312668E+00
        -11   -1    0    0    0    0  0.00000000000E+00  0.00000000000E+00  0.45593999997E+02  0.45594000000E+02  0.51100000000E-03 0. -1.
         11   -1    0    0    0    0 -0.00000000000E+00 -0.00000000000E+00 -0.45593999997E+02  0.45594000000E+02  0.51100000000E-03 0.  1.
    9900012    2    1    2    0    0 -0.25540502665E+00 -0.16692665979E+02  0.40061374896E+02  0.47787261668E+02  0.19999957250E+02 0.  0.
        -12    1    1    2    0    0  0.25540502665E+00  0.16692665979E+02 -0.40061374896E+02  0.43400738332E+02  0.00000000000E+00 0.  1.
         11    1    3    3    0    0  0.10297845888E+01  0.32816874338E+01  0.88652787016E+01  0.95091059217E+01  0.51100000000E-03 0. -1.
        -11    1    3    3    0    0  0.33877538181E+01 -0.30420540269E+01  0.53053537636E+01  0.69912622217E+01  0.51100000000E-03 0.  1.
         12    1    3    3    0    0 -0.46729434336E+01 -0.16932299386E+02  0.25890742431E+02  0.31286893525E+02  0.00000000000E+00 0. -1.
</event>
<event>
 7    1  0.2430096E-009  0.4778726E+02  0.7816164E-02  0.1312668E+00
        -11   -1    0    0    0    0  0.00000000000E+00  0.00000000000E+00  0.45593999997E+02  0.45594000000E+02  0.51100000000E-03 0.  1.
         11   -1    0    0    0    0 -0.00000000000E+00 -0.00000000000E+00 -0.45593999997E+02  0.45594000000E+02  0.51100000000E-03 0. -1.
    9900012    2    1    2    0    0 -0.19989132009E+02 -0.36194581076E+02 -0.13191328373E+02  0.47787259891E+02  0.19999949148E+02 0.  0.
        -12    1    1    2    0    0  0.19989132009E+02  0.36194581076E+02  0.13191328373E+02  0.43400740109E+02  0.00000000000E+00 0.  1.
         11    1    3    3    0    0 -0.29942524004E+01 -0.13965285421E+02 -0.58755539945E+01  0.15443991690E+02  0.51100000000E-03 0. -1.
        -11    1    3    3    0    0 -0.88001328902E+01 -0.41652324981E+01  0.27258032981E+01  0.10110465100E+02  0.51100000000E-03 0.  1.
        -12    1    3    3    0    0 -0.81947467183E+01 -0.18064063157E+02 -0.10041577676E+02  0.22232803101E+02  0.00000000000E+00 0.  1.
</event>
<event>
 7    1  0.2430096E-009  0.4778727E+02  0.7816164E-02  0.1312668E+00
        -11   -1    0    0    0    0  0.00000000000E+00  0.00000000000E+00  0.45593999997E+02  0.45594000000E+02  0.51100000000E-03 0.  1.
         11   -1    0    0    0    0 -0.00000000000E+00 -0.00000000000E+00 -0.45593999997E+02  0.45594000000E+02  0.51100000000E-03 0. -1.
    9900012    2    1    2    0    0  0.33787645114E+02  0.23758007264E+02 -0.13325741450E+02  0.47787271242E+02  0.20000000900E+02 0.  0.
        -12    1    1    2    0    0 -0.33787645114E+02 -0.23758007264E+02  0.13325741450E+02  0.43400728758E+02  0.00000000000E+00 0.  1.
         11    1    3    3    0    0  0.57536192965E+01  0.19121182585E+01  0.11333085115E+01  0.61680401820E+01  0.51100000000E-03 0. -1.
        -11    1    3    3    0    0  0.69308943883E+01 -0.12365640069E+01 -0.59218361943E+01  0.91997028070E+01  0.51100000000E-03 0.  1.
        -12    1    3    3    0    0  0.21103131430E+02  0.23082453013E+02 -0.85372137676E+01  0.32419528253E+02  0.00000000000E+00 0.  1.
</event>
<event>
 7    1  0.2513453E-009  0.4778727E+02  0.7816164E-02  0.1312668E+00
        -11   -1    0    0    0    0  0.00000000000E+00  0.00000000000E+00  0.45593999997E+02  0.45594000000E+02  0.51100000000E-03 0. -1.
         11   -1    0    0    0    0 -0.00000000000E+00 -0.00000000000E+00 -0.45593999997E+02  0.45594000000E+02  0.51100000000E-03 0.  1.
    9900012    2    1    2    0    0 -0.34434337015E+02  0.95038224156E+01  0.24649076948E+02  0.47787271889E+02  0.20000003853E+02 0.  0.
        -12    1    1    2    0    0  0.34434337015E+02 -0.95038224156E+01 -0.24649076948E+02  0.43400728111E+02  0.00000000000E+00 0.  1.
         11    1    3    3    0    0 -0.23080003839E+02  0.47813379379E+01  0.85164933471E+01  0.25061492950E+02  0.51100000000E-03 0. -1.
        -11    1    3    3    0    0 -0.77608096586E+01 -0.10096822118E+01  0.13213866193E+02  0.15357600228E+02  0.51100000000E-03 0.  1.
        -12    1    3    3    0    0 -0.35935235173E+01  0.57321666895E+01  0.29187174075E+01  0.73681787119E+01  0.00000000000E+00 0.  1.
</event>
<event>
 7    1  0.2430096E-009  0.4778727E+02  0.7816164E-02  0.1312668E+00
        -11   -1    0    0    0    0  0.00000000000E+00  0.00000000000E+00  0.45593999997E+02  0.45594000000E+02  0.51100000000E-03 0. -1.
         11   -1    0    0    0    0 -0.00000000000E+00 -0.00000000000E+00 -0.45593999997E+02  0.45594000000E+02  0.51100000000E-03 0.  1.
    9900012    2    1    2    0    0 -0.55975948319E+01  0.16862969702E+02  0.39597101578E+02  0.47787271107E+02  0.20000000287E+02 0.  0.
        -12    1    1    2    0    0  0.55975948319E+01 -0.16862969702E+02 -0.39597101578E+02  0.43400728893E+02  0.00000000000E+00 0.  1.
         11    1    3    3    0    0 -0.45056615066E+01 -0.12190642870E+01  0.16848638982E+02  0.17483241667E+02  0.51100000000E-03 0. -1.
        -11    1    3    3    0    0 -0.56721569797E-01 -0.90636854101E+00  0.17691152648E+01  0.19885900407E+01  0.51100000000E-03 0.  1.
         12    1    3    3    0    0 -0.10352117555E+01  0.18988402530E+02  0.20979347330E+02  0.28315439400E+02  0.00000000000E+00 0. -1.
</event>
<event>
 7    1  0.2430096E-009  0.4778727E+02  0.7816164E-02  0.1312668E+00
        -11   -1    0    0    0    0  0.00000000000E+00  0.00000000000E+00  0.45593999997E+02  0.45594000000E+02  0.51100000000E-03 0. -1.
         11   -1    0    0    0    0 -0.00000000000E+00 -0.00000000000E+00 -0.45593999997E+02  0.45594000000E+02  0.51100000000E-03 0.  1.
    9900012    2    1    2    0    0 -0.24849460014E+02 -0.26970231057E+02  0.23210646599E+02  0.47787272566E+02  0.20000006938E+02 0.  0.
        -12    1    1    2    0    0  0.24849460014E+02  0.26970231057E+02 -0.23210646599E+02  0.43400727434E+02  0.00000000000E+00 0.  1.
         11    1    3    3    0    0 -0.13757496737E+02 -0.19578958404E+02  0.10878640209E+02  0.26285911468E+02  0.51100000000E-03 0. -1.
        -11    1    3    3    0    0 -0.10165872148E+02 -0.34230128067E+01  0.13518521380E+02  0.17257241778E+02  0.51100000000E-03 0.  1.
         12    1    3    3    0    0 -0.92609112858E+00 -0.39682598457E+01 -0.11865149896E+01  0.42441193200E+01  0.00000000000E+00 0. -1.
</event>
<event>
 7    1  0.2430096E-009  0.4778727E+02  0.7816164E-02  0.1312668E+00
        -11   -1    0    0    0    0  0.00000000000E+00  0.00000000000E+00  0.45593999997E+02  0.45594000000E+02  0.51100000000E-03 0.  1.
         11   -1    0    0    0    0 -0.00000000000E+00 -0.00000000000E+00 -0.45593999997E+02  0.45594000000E+02  0.51100000000E-03 0. -1.
    9900012    2    1    2    0    0  0.34578618789E+02  0.68540070746E+01 -0.25317292351E+02  0.47787267491E+02  0.19999983799E+02 0.  0.
        -12    1    1    2    0    0 -0.34578618789E+02 -0.68540070746E+01  0.25317292351E+02  0.43400732509E+02  0.00000000000E+00 0.  1.
         11    1    3    3    0    0  0.19430891260E+02  0.51119568133E+01 -0.22645096126E+02  0.30273619150E+02  0.51100000000E-03 0. -1.
        -11    1    3    3    0    0  0.42462093916E+01  0.90395451538E+00  0.29208320995E+01  0.52324648473E+01  0.51100000000E-03 0.  1.
         12    1    3    3    0    0  0.10901518137E+02  0.83809574591E+00 -0.55930283240E+01  0.12281183494E+02  0.00000000000E+00 0. -1.
</event>
<event>
 7    1  0.2430096E-009  0.4778727E+02  0.7816164E-02  0.1312668E+00
        -11   -1    0    0    0    0  0.00000000000E+00  0.00000000000E+00  0.45593999997E+02  0.45594000000E+02  0.51100000000E-03 0.  1.
         11   -1    0    0    0    0 -0.00000000000E+00 -0.00000000000E+00 -0.45593999997E+02  0.45594000000E+02  0.51100000000E-03 0. -1.
    9900012    2    1    2    0    0 -0.31295726943E+02 -0.29302376282E+02 -0.67506814485E+01  0.47787268662E+02  0.19999989138E+02 0.  0.
        -12    1    1    2    0    0  0.31295726943E+02  0.29302376282E+02  0.67506814485E+01  0.43400731338E+02  0.00000000000E+00 0.  1.
         11    1    3    3    0    0 -0.25216019560E+02 -0.22992532946E+02 -0.88708222162E+01  0.35258980427E+02  0.51100000000E-03 0. -1.
        -11    1    3    3    0    0  0.22207706209E+01 -0.82585995068E+00  0.75411009678E+00  0.24864732269E+01  0.51100000000E-03 0.  1.
        -12    1    3    3    0    0 -0.83004780039E+01 -0.54839833854E+01  0.13660306709E+01  0.10041815008E+02  0.00000000000E+00 0.  1.
</event>
<event>
 7    1  0.2430096E-009  0.4778727E+02  0.7816164E-02  0.1312668E+00
        -11   -1    0    0    0    0  0.00000000000E+00  0.00000000000E+00  0.45593999997E+02  0.45594000000E+02  0.51100000000E-03 0.  1.
         11   -1    0    0    0    0 -0.00000000000E+00 -0.00000000000E+00 -0.45593999997E+02  0.45594000000E+02  0.51100000000E-03 0. -1.
    9900012    2    1    2    0    0 -0.25823149000E+02  0.34212603399E+02 -0.68033802186E+01  0.47787271458E+02  0.20000001884E+02 0.  0.
        -12    1    1    2    0    0  0.25823149000E+02 -0.34212603399E+02  0.68033802186E+01  0.43400728542E+02  0.00000000000E+00 0.  1.
         11    1    3    3    0    0 -0.11179445495E+02  0.16135953618E+02 -0.40064389029E+01  0.20034983247E+02  0.51100000000E-03 0. -1.
        -11    1    3    3    0    0 -0.48893523686E+00 -0.22521131205E+01  0.12977785864E+01  0.26448630766E+01  0.51100000000E-03 0.  1.
        -12    1    3    3    0    0 -0.14154768268E+02  0.20328762901E+02 -0.40947199021E+01  0.25107425134E+02  0.00000000000E+00 0.  1.
</event>
<event>
 7    1  0.2430096E-009  0.4778727E+02  0.7816164E-02  0.1312668E+00
        -11   -1    0    0    0    0  0.00000000000E+00  0.00000000000E+00  0.45593999997E+02  0.45594000000E+02  0.51100000000E-03 0.  1.
         11   -1    0    0    0    0 -0.00000000000E+00 -0.00000000000E+00 -0.45593999997E+02  0.45594000000E+02  0.51100000000E-03 0. -1.
    9900012    2    1    2    0    0 -0.18600217231E+02 -0.76810579134E+01 -0.38453307178E+02  0.47787267695E+02  0.19999984728E+02 0.  0.
        -12    1    1    2    0    0  0.18600217231E+02  0.76810579134E+01  0.38453307178E+02  0.43400732305E+02  0.00000000000E+00 0.  1.
         11    1    3    3    0    0  0.61468593588E+00 -0.70222528131E+01 -0.68385772574E+01  0.98212021941E+01  0.51100000000E-03 0. -1.
        -11    1    3    3    0    0 -0.14597997022E+02 -0.19348091031E+01 -0.16524148730E+02  0.22133515194E+02  0.51100000000E-03 0.  1.
         12    1    3    3    0    0 -0.46169061455E+01  0.12760040028E+01 -0.15090581190E+02  0.15832550307E+02  0.00000000000E+00 0. -1.
</event>
<event>
 7    1  0.2430096E-009  0.4778727E+02  0.7816164E-02  0.1312668E+00
        -11   -1    0    0    0    0  0.00000000000E+00  0.00000000000E+00  0.45593999997E+02  0.45594000000E+02  0.51100000000E-03 0.  1.
         11   -1    0    0    0    0 -0.00000000000E+00 -0.00000000000E+00 -0.45593999997E+02  0.45594000000E+02  0.51100000000E-03 0. -1.
    9900012    2    1    2    0    0 -0.37187986272E+02 -0.15207638761E+02  0.16413553770E+02  0.47787270202E+02  0.19999996157E+02 0.  0.
        -12    1    1    2    0    0  0.37187986272E+02  0.15207638761E+02 -0.16413553770E+02  0.43400729798E+02  0.00000000000E+00 0.  1.
         11    1    3    3    0    0 -0.24473370790E+02 -0.13480564499E+02  0.47642583461E+01  0.28343776299E+02  0.51100000000E-03 0. -1.
        -11    1    3    3    0    0 -0.20008016310E+01  0.31995553739E+01  0.27099086026E+01  0.46458547817E+01  0.51100000000E-03 0.  1.
        -12    1    3    3    0    0 -0.10713813851E+02 -0.49266296363E+01  0.89393868208E+01  0.14797639120E+02  0.00000000000E+00 0.  1.
</event>
<event>
 7    1  0.2430096E-009  0.4778727E+02  0.7816164E-02  0.1312668E+00
        -11   -1    0    0    0    0  0.00000000000E+00  0.00000000000E+00  0.45593999997E+02  0.45594000000E+02  0.51100000000E-03 0. -1.
         11   -1    0    0    0    0 -0.00000000000E+00 -0.00000000000E+00 -0.45593999997E+02  0.45594000000E+02  0.51100000000E-03 0.  1.
    9900012    2    1    2    0    0  0.86401536064E+01 -0.18811497655E+02  0.38145759024E+02  0.47787266942E+02  0.19999981298E+02 0.  0.
        -12    1    1    2    0    0 -0.86401536064E+01  0.18811497655E+02 -0.38145759024E+02  0.43400733058E+02  0.00000000000E+00 0.  1.
         11    1    3    3    0    0  0.19449631610E+01 -0.15421012328E+02  0.23466300051E+02  0.28147073405E+02  0.51100000000E-03 0. -1.
        -11    1    3    3    0    0  0.82087586769E+01 -0.78610864563E+00  0.14426896463E+02  0.16617371261E+02  0.51100000000E-03 0.  1.
        -12    1    3    3    0    0 -0.15135682316E+01 -0.26043766814E+01  0.25256251020E+00  0.30228222760E+01  0.00000000000E+00 0.  1.
</event>
<event>
 7    1  0.2446171E-009  0.4778730E+02  0.7816164E-02  0.1312668E+00
        -11   -1    0    0    0    0  0.00000000000E+00  0.00000000000E+00  0.45593999997E+02  0.45594000000E+02  0.51100000000E-03 0.  1.
         11   -1    0    0    0    0 -0.00000000000E+00 -0.00000000000E+00 -0.45593999997E+02  0.45594000000E+02  0.51100000000E-03 0. -1.
    9900012    2    1    2    0    0  0.81665885796E+01 -0.42492529425E+02 -0.33634007533E+01  0.47787300806E+02  0.20000135692E+02 0.  0.
        -12    1    1    2    0    0 -0.81665885796E+01  0.42492529425E+02  0.33634007533E+01  0.43400699194E+02  0.00000000000E+00 0.  1.
         11    1    3    3    0    0 -0.19143088265E+01 -0.26650324110E+02 -0.23220224276E+00  0.26719997597E+02  0.51100000000E-03 0. -1.
        -11    1    3    3    0    0  0.90147148386E+01 -0.14178399817E+02  0.63566265822E+00  0.16813571075E+02  0.51100000000E-03 0.  1.
        -12    1    3    3    0    0  0.10661825675E+01 -0.16638054973E+01 -0.37668611688E+01  0.42537321337E+01  0.00000000000E+00 0.  1.
</event>
<event>
 7    1  0.2430096E-009  0.4778727E+02  0.7816164E-02  0.1312668E+00
        -11   -1    0    0    0    0  0.00000000000E+00  0.00000000000E+00  0.45593999997E+02  0.45594000000E+02  0.51100000000E-03 0.  1.
         11   -1    0    0    0    0 -0.00000000000E+00 -0.00000000000E+00 -0.45593999997E+02  0.45594000000E+02  0.51100000000E-03 0. -1.
    9900012    2    1    2    0    0  0.14556720064E+02  0.27488032298E+02  0.30267694317E+02  0.47787270306E+02  0.19999996635E+02 0.  0.
        -12    1    1    2    0    0 -0.14556720064E+02 -0.27488032298E+02 -0.30267694317E+02  0.43400729694E+02  0.00000000000E+00 0.  1.
         11    1    3    3    0    0  0.26403936148E+01 -0.21354509207E+01  0.42148326974E+01  0.54126374351E+01  0.51100000000E-03 0. -1.
        -11    1    3    3    0    0  0.37478462190E+01  0.13433946369E+01  0.32524412760E+01  0.51409566179E+01  0.51100000000E-03 0.  1.
         12    1    3    3    0    0  0.81684802300E+01  0.28280088582E+02  0.22800420344E+02  0.37233676253E+02  0.00000000000E+00 0. -1.
</event>
<event>
 7    1  0.2430096E-009  0.4778727E+02  0.7816164E-02  0.1312668E+00
        -11   -1    0    0    0    0  0.00000000000E+00  0.00000000000E+00  0.45593999997E+02  0.45594000000E+02  0.51100000000E-03 0.  1.
         11   -1    0    0    0    0 -0.00000000000E+00 -0.00000000000E+00 -0.45593999997E+02  0.45594000000E+02  0.51100000000E-03 0. -1.
    9900012    2    1    2    0    0 -0.12053136848E+02 -0.35875744103E+02 -0.21243257937E+02  0.47787272696E+02  0.20000007528E+02 0.  0.
        -12    1    1    2    0    0  0.12053136848E+02  0.35875744103E+02  0.21243257937E+02  0.43400727304E+02  0.00000000000E+00 0.  1.
         11    1    3    3    0    0  0.17486909715E+00 -0.31996340217E+01  0.15232589533E+00  0.32080275114E+01  0.51100000000E-03 0. -1.
        -11    1    3    3    0    0 -0.10687301309E+01  0.13845914138E+00 -0.69437359592E+01  0.70268644756E+01  0.51100000000E-03 0.  1.
        -12    1    3    3    0    0 -0.11159275814E+02 -0.32814569222E+02 -0.14451847873E+02  0.37552380709E+02  0.00000000000E+00 0.  1.
</event>
<event>
 7    1  0.2430096E-009  0.4778727E+02  0.7816164E-02  0.1312668E+00
        -11   -1    0    0    0    0  0.00000000000E+00  0.00000000000E+00  0.45593999997E+02  0.45594000000E+02  0.51100000000E-03 0.  1.
         11   -1    0    0    0    0 -0.00000000000E+00 -0.00000000000E+00 -0.45593999997E+02  0.45594000000E+02  0.51100000000E-03 0. -1.
    9900012    2    1    2    0    0  0.26513237915E+02  0.25592733035E+02 -0.22927788189E+02  0.47787271433E+02  0.20000001771E+02 0.  0.
        -12    1    1    2    0    0 -0.26513237915E+02 -0.25592733035E+02  0.22927788189E+02  0.43400728567E+02  0.00000000000E+00 0.  1.
         11    1    3    3    0    0  0.14140802491E+02  0.42844339353E+01 -0.10371292363E+02  0.18052212462E+02  0.51100000000E-03 0.  1.
        -11    1    3    3    0    0  0.14545117516E+01  0.13160571893E+02 -0.49750162268E+01  0.14144505778E+02  0.51100000000E-03 0. -1.
         12    1    3    3    0    0  0.10917923672E+02  0.81477272066E+01 -0.75814795993E+01  0.15590553193E+02  0.00000000000E+00 0. -1.
</event>
<event>
 7    1  0.2430096E-009  0.4778727E+02  0.7816164E-02  0.1312668E+00
        -11   -1    0    0    0    0  0.00000000000E+00  0.00000000000E+00  0.45593999997E+02  0.45594000000E+02  0.51100000000E-03 0.  1.
         11   -1    0    0    0    0 -0.00000000000E+00 -0.00000000000E+00 -0.45593999997E+02  0.45594000000E+02  0.51100000000E-03 0. -1.
    9900012    2    1    2    0    0  0.35295702621E+02 -0.17053549637E+02 -0.18628285857E+02  0.47787271749E+02  0.20000003214E+02 0.  0.
        -12    1    1    2    0    0 -0.35295702621E+02  0.17053549637E+02  0.18628285857E+02  0.43400728251E+02  0.00000000000E+00 0.  1.
         11    1    3    3    0    0  0.26239645021E+02 -0.19078812397E+02 -0.18008748957E+02  0.37105728568E+02  0.51100000000E-03 0. -1.
        -11    1    3    3    0    0  0.21638702893E+01 -0.14179434814E+01  0.10606619800E+01  0.27960512231E+01  0.51100000000E-03 0.  1.
         12    1    3    3    0    0  0.68921873106E+01  0.34432062415E+01 -0.16801988802E+01  0.78854919582E+01  0.00000000000E+00 0. -1.
</event>
<event>
 7    1  0.2430096E-009  0.4778727E+02  0.7816164E-02  0.1312668E+00
        -11   -1    0    0    0    0  0.00000000000E+00  0.00000000000E+00  0.45593999997E+02  0.45594000000E+02  0.51100000000E-03 0.  1.
         11   -1    0    0    0    0 -0.00000000000E+00 -0.00000000000E+00 -0.45593999997E+02  0.45594000000E+02  0.51100000000E-03 0. -1.
    9900012    2    1    2    0    0  0.18295007368E+02 -0.39331424137E+02  0.13982033440E+01  0.47787271989E+02  0.20000004308E+02 0.  0.
        -12    1    1    2    0    0 -0.18295007368E+02  0.39331424137E+02 -0.13982033440E+01  0.43400728011E+02  0.00000000000E+00 0.  1.
         11    1    3    3    0    0 -0.15797655808E+01 -0.86937572287E+01  0.43026289779E+01  0.98280054143E+01  0.51100000000E-03 0. -1.
        -11    1    3    3    0    0  0.19678540622E+02 -0.31401706544E+02 -0.28817496574E+01  0.37170103797E+02  0.51100000000E-03 0.  1.
        -12    1    3    3    0    0  0.19623232721E+00  0.76403963560E+00 -0.22675976432E-01  0.78916277847E+00  0.00000000000E+00 0.  1.
</event>
<event>
 7    1  0.2430096E-009  0.4778727E+02  0.7816164E-02  0.1312668E+00
        -11   -1    0    0    0    0  0.00000000000E+00  0.00000000000E+00  0.45593999997E+02  0.45594000000E+02  0.51100000000E-03 0. -1.
         11   -1    0    0    0    0 -0.00000000000E+00 -0.00000000000E+00 -0.45593999997E+02  0.45594000000E+02  0.51100000000E-03 0.  1.
    9900012    2    1    2    0    0  0.29247344271E+02  0.13764728014E+02  0.28961154315E+02  0.47787270243E+02  0.19999996345E+02 0.  0.
        -12    1    1    2    0    0 -0.29247344271E+02 -0.13764728014E+02 -0.28961154315E+02  0.43400729757E+02  0.00000000000E+00 0.  1.
         11    1    3    3    0    0  0.36286375934E+00  0.24969000463E+01  0.27188339943E+01  0.37092099561E+01  0.51100000000E-03 0. -1.
        -11    1    3    3    0    0  0.10686673375E+02  0.11450117934E+02  0.18662596586E+02  0.24363963145E+02  0.51100000000E-03 0.  1.
        -12    1    3    3    0    0  0.18197807137E+02 -0.18228996669E+00  0.75797237345E+01  0.19714097142E+02  0.00000000000E+00 0.  1.
</event>
<event>
 7    1  0.2430096E-009  0.4778726E+02  0.7816164E-02  0.1312668E+00
        -11   -1    0    0    0    0  0.00000000000E+00  0.00000000000E+00  0.45593999997E+02  0.45594000000E+02  0.51100000000E-03 0.  1.
         11   -1    0    0    0    0 -0.00000000000E+00 -0.00000000000E+00 -0.45593999997E+02  0.45594000000E+02  0.51100000000E-03 0. -1.
    9900012    2    1    2    0    0 -0.42086606533E+02 -0.95881218305E+01  0.45177074050E+01  0.47787260261E+02  0.19999950835E+02 0.  0.
        -12    1    1    2    0    0  0.42086606533E+02  0.95881218305E+01 -0.45177074050E+01  0.43400739739E+02  0.00000000000E+00 0.  1.
         11    1    3    3    0    0 -0.73058363506E+01  0.21685994250E+01  0.60606126543E+01  0.97369961618E+01  0.51100000000E-03 0. -1.
        -11    1    3    3    0    0 -0.17740220969E+00 -0.93607529792E+00  0.13799435249E+01  0.16768878616E+01  0.51100000000E-03 0.  1.
         12    1    3    3    0    0 -0.34603367972E+02 -0.10820645958E+02 -0.29228487742E+01  0.36373376238E+02  0.00000000000E+00 0. -1.
</event>
<event>
 7    1  0.2430096E-009  0.4778727E+02  0.7816164E-02  0.1312668E+00
        -11   -1    0    0    0    0  0.00000000000E+00  0.00000000000E+00  0.45593999997E+02  0.45594000000E+02  0.51100000000E-03 0.  1.
         11   -1    0    0    0    0 -0.00000000000E+00 -0.00000000000E+00 -0.45593999997E+02  0.45594000000E+02  0.51100000000E-03 0. -1.
    9900012    2    1    2    0    0  0.21381409874E+02 -0.29823457896E+02 -0.23173690364E+02  0.47787271272E+02  0.20000001036E+02 0.  0.
        -12    1    1    2    0    0 -0.21381409874E+02  0.29823457896E+02  0.23173690364E+02  0.43400728728E+02  0.00000000000E+00 0.  1.
         11    1    3    3    0    0  0.46892522834E+01 -0.11865265977E+02 -0.11488971085E+02  0.17168869518E+02  0.51100000000E-03 0. -1.
        -11    1    3    3    0    0  0.19255095218E+02 -0.15770230369E+02 -0.97342074324E+01  0.26724776002E+02  0.51100000000E-03 0.  1.
        -12    1    3    3    0    0 -0.25629376280E+01 -0.21879615500E+01 -0.19505118466E+01  0.38936257516E+01  0.00000000000E+00 0.  1.
</event>
<event>
 7    1  0.2430096E-009  0.4778727E+02  0.7816164E-02  0.1312668E+00
        -11   -1    0    0    0    0  0.00000000000E+00  0.00000000000E+00  0.45593999997E+02  0.45594000000E+02  0.51100000000E-03 0.  1.
         11   -1    0    0    0    0 -0.00000000000E+00 -0.00000000000E+00 -0.45593999997E+02  0.45594000000E+02  0.51100000000E-03 0. -1.
    9900012    2    1    2    0    0  0.39608581524E+02  0.98909207758E+01 -0.14729342608E+02  0.47787267543E+02  0.19999984037E+02 0.  0.
        -12    1    1    2    0    0 -0.39608581524E+02 -0.98909207758E+01  0.14729342608E+02  0.43400732457E+02  0.00000000000E+00 0.  1.
         11    1    3    3    0    0  0.20977607650E+02  0.47018158395E+01 -0.19260306256E+01  0.21584176824E+02  0.51100000000E-03 0. -1.
        -11    1    3    3    0    0  0.15720057799E+02  0.74094042178E+01 -0.14037213543E+02  0.22339714689E+02  0.51100000000E-03 0.  1.
        -12    1    3    3    0    0  0.29109160743E+01 -0.22202992815E+01  0.12339015607E+01  0.38633760305E+01  0.00000000000E+00 0.  1.
</event>
<event>
 7    1  0.2430096E-009  0.4778727E+02  0.7816164E-02  0.1312668E+00
        -11   -1    0    0    0    0  0.00000000000E+00  0.00000000000E+00  0.45593999997E+02  0.45594000000E+02  0.51100000000E-03 0. -1.
         11   -1    0    0    0    0 -0.00000000000E+00 -0.00000000000E+00 -0.45593999997E+02  0.45594000000E+02  0.51100000000E-03 0.  1.
    9900012    2    1    2    0    0  0.12252396746E+02  0.15841826646E+02  0.38503752887E+02  0.47787266321E+02  0.19999978464E+02 0.  0.
        -12    1    1    2    0    0 -0.12252396746E+02 -0.15841826646E+02 -0.38503752887E+02  0.43400733679E+02  0.00000000000E+00 0.  1.
         11    1    3    3    0    0  0.53757055100E+01  0.54000859414E+01  0.25176599269E+01  0.80248208499E+01  0.51100000000E-03 0. -1.
        -11    1    3    3    0    0  0.93928339009E+00  0.51990769662E+01  0.35304797549E+01  0.63542853374E+01  0.51100000000E-03 0.  1.
         12    1    3    3    0    0  0.59374078461E+01  0.52426637381E+01  0.32455613205E+02  0.33408160134E+02  0.00000000000E+00 0. -1.
</event>
<event>
 7    1  0.2430096E-009  0.4778727E+02  0.7816164E-02  0.1312668E+00
        -11   -1    0    0    0    0  0.00000000000E+00  0.00000000000E+00  0.45593999997E+02  0.45594000000E+02  0.51100000000E-03 0.  1.
         11   -1    0    0    0    0 -0.00000000000E+00 -0.00000000000E+00 -0.45593999997E+02  0.45594000000E+02  0.51100000000E-03 0. -1.
    9900012    2    1    2    0    0 -0.39830972975E+02  0.50656122843E+01 -0.16475935420E+02  0.47787270929E+02  0.19999999474E+02 0.  0.
        -12    1    1    2    0    0  0.39830972975E+02 -0.50656122843E+01  0.16475935420E+02  0.43400729071E+02  0.00000000000E+00 0.  1.
         11    1    3    3    0    0 -0.14533310151E+02 -0.14116083619E+01 -0.80026035587E+00  0.14623616482E+02  0.51100000000E-03 0. -1.
        -11    1    3    3    0    0 -0.22053483982E+02  0.10180820676E+02 -0.13377047962E+02  0.27729959932E+02  0.51100000000E-03 0.  1.
        -12    1    3    3    0    0 -0.32441788423E+01 -0.37036000295E+01 -0.22986271018E+01  0.54336945159E+01  0.00000000000E+00 0.  1.
</event>
<event>
 7    1  0.2430096E-009  0.4778727E+02  0.7816164E-02  0.1312668E+00
        -11   -1    0    0    0    0  0.00000000000E+00  0.00000000000E+00  0.45593999997E+02  0.45594000000E+02  0.51100000000E-03 0.  1.
         11   -1    0    0    0    0 -0.00000000000E+00 -0.00000000000E+00 -0.45593999997E+02  0.45594000000E+02  0.51100000000E-03 0. -1.
    9900012    2    1    2    0    0 -0.30573534719E+02 -0.25561717135E+02 -0.17189561917E+02  0.47787269050E+02  0.19999990907E+02 0.  0.
        -12    1    1    2    0    0  0.30573534719E+02  0.25561717135E+02  0.17189561917E+02  0.43400730950E+02  0.00000000000E+00 0.  1.
         11    1    3    3    0    0 -0.25535964103E+01 -0.47567910322E+01 -0.62742867444E+01  0.82773540435E+01  0.51100000000E-03 0. -1.
        -11    1    3    3    0    0 -0.28280053614E+02 -0.17397483830E+02 -0.63457596120E+01  0.33803883524E+02  0.51100000000E-03 0.  1.
        -12    1    3    3    0    0  0.26011530523E+00 -0.34074422726E+01 -0.45695155610E+01  0.57060314822E+01  0.00000000000E+00 0.  1.
</event>
<event>
 7    1  0.2430096E-009  0.4778727E+02  0.7816164E-02  0.1312668E+00
        -11   -1    0    0    0    0  0.00000000000E+00  0.00000000000E+00  0.45593999997E+02  0.45594000000E+02  0.51100000000E-03 0.  1.
         11   -1    0    0    0    0 -0.00000000000E+00 -0.00000000000E+00 -0.45593999997E+02  0.45594000000E+02  0.51100000000E-03 0. -1.
    9900012    2    1    2    0    0 -0.18050958816E+02  0.96175701572E+01 -0.38279088718E+02  0.47787269557E+02  0.19999993218E+02 0.  0.
        -12    1    1    2    0    0  0.18050958816E+02 -0.96175701572E+01  0.38279088718E+02  0.43400730443E+02  0.00000000000E+00 0.  1.
         11    1    3    3    0    0  0.25083026810E+01  0.24146031118E+01 -0.93163593407E+01  0.99456745449E+01  0.51100000000E-03 0. -1.
        -11    1    3    3    0    0 -0.15615277831E+02  0.99775719920E+01 -0.23887291692E+02  0.30232293152E+02  0.51100000000E-03 0.  1.
        -12    1    3    3    0    0 -0.49439836658E+01 -0.27746049466E+01 -0.50754376851E+01  0.76093018598E+01  0.00000000000E+00 0.  1.
</event>
<event>
 7    1  0.2430096E-009  0.4778727E+02  0.7816164E-02  0.1312668E+00
        -11   -1    0    0    0    0  0.00000000000E+00  0.00000000000E+00  0.45593999997E+02  0.45594000000E+02  0.51100000000E-03 0. -1.
         11   -1    0    0    0    0 -0.00000000000E+00 -0.00000000000E+00 -0.45593999997E+02  0.45594000000E+02  0.51100000000E-03 0.  1.
    9900012    2    1    2    0    0 -0.39986427106E+02 -0.11106874782E+02  0.12702222137E+02  0.47787268815E+02  0.19999989836E+02 0.  0.
        -12    1    1    2    0    0  0.39986427106E+02  0.11106874782E+02 -0.12702222137E+02  0.43400731185E+02  0.00000000000E+00 0.  1.
         11    1    3    3    0    0 -0.30413979695E+02 -0.10125063768E+02  0.16068547587E+02  0.35857011853E+02  0.51100000000E-03 0. -1.
        -11    1    3    3    0    0 -0.46503378683E+01 -0.25245535990E+01 -0.41345172091E+01  0.67151504806E+01  0.51100000000E-03 0.  1.
         12    1    3    3    0    0 -0.49221095432E+01  0.15427425850E+01  0.76819175926E+00  0.52151064819E+01  0.00000000000E+00 0. -1.
</event>
<event>
 7    1  0.2430096E-009  0.4778727E+02  0.7816164E-02  0.1312668E+00
        -11   -1    0    0    0    0  0.00000000000E+00  0.00000000000E+00  0.45593999997E+02  0.45594000000E+02  0.51100000000E-03 0.  1.
         11   -1    0    0    0    0 -0.00000000000E+00 -0.00000000000E+00 -0.45593999997E+02  0.45594000000E+02  0.51100000000E-03 0. -1.
    9900012    2    1    2    0    0 -0.38699970874E+02 -0.14519217101E+02 -0.13233592555E+02  0.47787269789E+02  0.19999994277E+02 0.  0.
        -12    1    1    2    0    0  0.38699970874E+02  0.14519217101E+02  0.13233592555E+02  0.43400730211E+02  0.00000000000E+00 0.  1.
         11    1    3    3    0    0 -0.10400903602E+02  0.22237745643E+00  0.25850426714E+01  0.10719640541E+02  0.51100000000E-03 0. -1.
        -11    1    3    3    0    0 -0.75931217084E+01  0.78635854394E+00 -0.39352574693E+01  0.85883705468E+01  0.51100000000E-03 0.  1.
         12    1    3    3    0    0 -0.20705945565E+02 -0.15527953101E+02 -0.11883377758E+02  0.28479258701E+02  0.00000000000E+00 0. -1.
</event>
<event>
 7    1  0.2430096E-009  0.4778727E+02  0.7816164E-02  0.1312668E+00
        -11   -1    0    0    0    0  0.00000000000E+00  0.00000000000E+00  0.45593999997E+02  0.45594000000E+02  0.51100000000E-03 0. -1.
         11   -1    0    0    0    0 -0.00000000000E+00 -0.00000000000E+00 -0.45593999997E+02  0.45594000000E+02  0.51100000000E-03 0.  1.
    9900012    2    1    2    0    0 -0.29634764233E+02 -0.41493735822E+01 -0.31435442249E+02  0.47787267499E+02  0.19999983833E+02 0.  0.
        -12    1    1    2    0    0  0.29634764233E+02  0.41493735822E+01  0.31435442249E+02  0.43400732501E+02  0.00000000000E+00 0.  1.
         11    1    3    3    0    0 -0.11454658427E+02 -0.41155701447E+01 -0.19270199891E+01  0.12323170192E+02  0.51100000000E-03 0. -1.
        -11    1    3    3    0    0 -0.17586326488E+02 -0.56750184496E+00 -0.23263399200E+02  0.29168247810E+02  0.51100000000E-03 0.  1.
        -12    1    3    3    0    0 -0.59377931857E+00  0.53369840747E+00 -0.62450230597E+01  0.62958494967E+01  0.00000000000E+00 0.  1.
</event>
<event>
 7    1  0.2430096E-009  0.4778728E+02  0.7816164E-02  0.1312668E+00
        -11   -1    0    0    0    0  0.00000000000E+00  0.00000000000E+00  0.45593999997E+02  0.45594000000E+02  0.51100000000E-03 0. -1.
         11   -1    0    0    0    0 -0.00000000000E+00 -0.00000000000E+00 -0.45593999997E+02  0.45594000000E+02  0.51100000000E-03 0.  1.
    9900012    2    1    2    0    0  0.27016752650E+02 -0.33413909096E+02 -0.61015091088E+01  0.47787278137E+02  0.20000032338E+02 0.  0.
        -12    1    1    2    0    0 -0.27016752650E+02  0.33413909096E+02  0.61015091088E+01  0.43400721863E+02  0.00000000000E+00 0.  1.
         11    1    3    3    0    0  0.18872210608E+02 -0.25817243279E+02 -0.82302568631E+01  0.33021621887E+02  0.51100000000E-03 0. -1.
        -11    1    3    3    0    0 -0.16593059718E+01  0.18816324377E+00 -0.88400595239E+00  0.18894889519E+01  0.51100000000E-03 0.  1.
        -12    1    3    3    0    0  0.98038480141E+01 -0.77848290606E+01  0.30127537067E+01  0.12876167298E+02  0.00000000000E+00 0.  1.
</event>
<event>
 7    1  0.2430096E-009  0.4778727E+02  0.7816164E-02  0.1312668E+00
        -11   -1    0    0    0    0  0.00000000000E+00  0.00000000000E+00  0.45593999997E+02  0.45594000000E+02  0.51100000000E-03 0. -1.
         11   -1    0    0    0    0 -0.00000000000E+00 -0.00000000000E+00 -0.45593999997E+02  0.45594000000E+02  0.51100000000E-03 0.  1.
    9900012    2    1    2    0    0 -0.35923723657E+02  0.22619670067E+02  0.90255345184E+01  0.47787266497E+02  0.19999979265E+02 0.  0.
        -12    1    1    2    0    0  0.35923723657E+02 -0.22619670067E+02 -0.90255345184E+01  0.43400733503E+02  0.00000000000E+00 0.  1.
         11    1    3    3    0    0 -0.10038683541E+02  0.47976347164E+01  0.10908219743E+02  0.15581454500E+02  0.51100000000E-03 0. -1.
        -11    1    3    3    0    0 -0.11464081167E+02  0.39777324876E+01 -0.90208295878E-01  0.12134893924E+02  0.51100000000E-03 0.  1.
         12    1    3    3    0    0 -0.14420958948E+02  0.13844302863E+02 -0.17924769287E+01  0.20070918073E+02  0.00000000000E+00 0. -1.
</event>
<event>
 7    1  0.2430096E-009  0.4778728E+02  0.7816164E-02  0.1312668E+00
        -11   -1    0    0    0    0  0.00000000000E+00  0.00000000000E+00  0.45593999997E+02  0.45594000000E+02  0.51100000000E-03 0.  1.
         11   -1    0    0    0    0 -0.00000000000E+00 -0.00000000000E+00 -0.45593999997E+02  0.45594000000E+02  0.51100000000E-03 0. -1.
    9900012    2    1    2    0    0 -0.51682889888E+01  0.89359998395E+01 -0.42155183956E+02  0.47787276060E+02  0.20000022867E+02 0.  0.
        -12    1    1    2    0    0  0.51682889888E+01 -0.89359998395E+01  0.42155183956E+02  0.43400723940E+02  0.00000000000E+00 0.  1.
         11    1    3    3    0    0 -0.97263197233E+00  0.94379008728E+01 -0.11942961928E+02  0.15253010382E+02  0.51100000000E-03 0. -1.
        -11    1    3    3    0    0 -0.22088375297E+01 -0.51161355572E+01 -0.79266600216E+01  0.96894657042E+01  0.51100000000E-03 0.  1.
        -12    1    3    3    0    0 -0.19868194868E+01  0.46142345239E+01 -0.22285562006E+02  0.22844799973E+02  0.00000000000E+00 0.  1.
</event>
<event>
 7    1  0.2430096E-009  0.4778727E+02  0.7816164E-02  0.1312668E+00
        -11   -1    0    0    0    0  0.00000000000E+00  0.00000000000E+00  0.45593999997E+02  0.45594000000E+02  0.51100000000E-03 0.  1.
         11   -1    0    0    0    0 -0.00000000000E+00 -0.00000000000E+00 -0.45593999997E+02  0.45594000000E+02  0.51100000000E-03 0. -1.
    9900012    2    1    2    0    0  0.91842491129E+01  0.36829702668E+02 -0.21043901838E+02  0.47787271493E+02  0.20000002043E+02 0.  0.
        -12    1    1    2    0    0 -0.91842491129E+01 -0.36829702668E+02  0.21043901838E+02  0.43400728507E+02  0.00000000000E+00 0.  1.
         11    1    3    3    0    0 -0.31965003874E+00  0.63213115404E+01 -0.10505377866E+02  0.12264751123E+02  0.51100000000E-03 0. -1.
        -11    1    3    3    0    0  0.44633309348E+01  0.17479515455E+02 -0.28241380009E-01  0.18040387508E+02  0.51100000000E-03 0.  1.
        -12    1    3    3    0    0  0.50405682169E+01  0.13028875673E+02 -0.10510282591E+02  0.17482132862E+02  0.00000000000E+00 0.  1.
</event>
<event>
 7    1  0.2430096E-009  0.4778727E+02  0.7816164E-02  0.1312668E+00
        -11   -1    0    0    0    0  0.00000000000E+00  0.00000000000E+00  0.45593999997E+02  0.45594000000E+02  0.51100000000E-03 0.  1.
         11   -1    0    0    0    0 -0.00000000000E+00 -0.00000000000E+00 -0.45593999997E+02  0.45594000000E+02  0.51100000000E-03 0. -1.
    9900012    2    1    2    0    0 -0.14604094114E+02 -0.10505523184E+02 -0.39496552234E+02  0.47787271658E+02  0.20000002795E+02 0.  0.
        -12    1    1    2    0    0  0.14604094114E+02  0.10505523184E+02  0.39496552234E+02  0.43400728342E+02  0.00000000000E+00 0.  1.
         11    1    3    3    0    0 -0.58699816709E+00 -0.58091327011E+01 -0.11038565206E+01  0.59421451569E+01  0.51100000000E-03 0. -1.
        -11    1    3    3    0    0 -0.12483206066E+02 -0.14671985554E+01 -0.24977208448E+02  0.27961474342E+02  0.51100000000E-03 0.  1.
         12    1    3    3    0    0 -0.15338898811E+01 -0.32291919273E+01 -0.13415487266E+02  0.13883652158E+02  0.00000000000E+00 0. -1.
</event>
<event>
 7    1  0.2430096E-009  0.4778727E+02  0.7816164E-02  0.1312668E+00
        -11   -1    0    0    0    0  0.00000000000E+00  0.00000000000E+00  0.45593999997E+02  0.45594000000E+02  0.51100000000E-03 0.  1.
         11   -1    0    0    0    0 -0.00000000000E+00 -0.00000000000E+00 -0.45593999997E+02  0.45594000000E+02  0.51100000000E-03 0. -1.
    9900012    2    1    2    0    0 -0.58090050779E+01 -0.56568761184E+01 -0.42636588409E+02  0.47787268917E+02  0.19999990298E+02 0.  0.
        -12    1    1    2    0    0  0.58090050779E+01  0.56568761184E+01  0.42636588409E+02  0.43400731083E+02  0.00000000000E+00 0.  1.
         11    1    3    3    0    0 -0.14703630366E+01 -0.75131100328E+00 -0.59476579269E+01  0.61726064803E+01  0.51100000000E-03 0. -1.
        -11    1    3    3    0    0  0.60648559422E+01  0.12268163054E+01 -0.59319065091E+01  0.85717600842E+01  0.51100000000E-03 0.  1.
        -12    1    3    3    0    0 -0.10403497983E+02 -0.61323814206E+01 -0.30757023973E+02  0.33042902352E+02  0.00000000000E+00 0.  1.
</event>
<event>
 7    1  0.2430096E-009  0.4778727E+02  0.7816164E-02  0.1312668E+00
        -11   -1    0    0    0    0  0.00000000000E+00  0.00000000000E+00  0.45593999997E+02  0.45594000000E+02  0.51100000000E-03 0.  1.
         11   -1    0    0    0    0 -0.00000000000E+00 -0.00000000000E+00 -0.45593999997E+02  0.45594000000E+02  0.51100000000E-03 0. -1.
    9900012    2    1    2    0    0 -0.20679784607E+01  0.35156778529E+02 -0.25364306055E+02  0.47787266906E+02  0.19999981133E+02 0.  0.
        -12    1    1    2    0    0  0.20679784607E+01 -0.35156778529E+02  0.25364306055E+02  0.43400733094E+02  0.00000000000E+00 0.  1.
         11    1    3    3    0    0 -0.26734116200E+01  0.13792075954E+02 -0.50909296039E+01  0.14942759226E+02  0.51100000000E-03 0. -1.
        -11    1    3    3    0    0  0.61639621116E+01  0.14040789839E+02 -0.17441712041E+02  0.23223942978E+02  0.51100000000E-03 0.  1.
        -12    1    3    3    0    0 -0.55585289522E+01  0.73239127353E+01 -0.28316644095E+01  0.96205647025E+01  0.00000000000E+00 0.  1.
</event>
<event>
 7    1  0.2430096E-009  0.4778727E+02  0.7816164E-02  0.1312668E+00
        -11   -1    0    0    0    0  0.00000000000E+00  0.00000000000E+00  0.45593999997E+02  0.45594000000E+02  0.51100000000E-03 0.  1.
         11   -1    0    0    0    0 -0.00000000000E+00 -0.00000000000E+00 -0.45593999997E+02  0.45594000000E+02  0.51100000000E-03 0. -1.
    9900012    2    1    2    0    0  0.27089418912E+02  0.12318293292E+02 -0.31591869324E+02  0.47787272194E+02  0.20000005243E+02 0.  0.
        -12    1    1    2    0    0 -0.27089418912E+02 -0.12318293292E+02  0.31591869324E+02  0.43400727806E+02  0.00000000000E+00 0.  1.
         11    1    3    3    0    0  0.97902951839E+01  0.34679910664E+01 -0.12975725051E+02  0.16620658311E+02  0.51100000000E-03 0. -1.
        -11    1    3    3    0    0  0.13132136981E+02  0.17527272187E+01 -0.18722018368E+02  0.22935541119E+02  0.51100000000E-03 0.  1.
        -12    1    3    3    0    0  0.41669867471E+01  0.70975750072E+01  0.10587409418E+00  0.82310727646E+01  0.00000000000E+00 0.  1.
</event>
<event>
 7    1  0.2430096E-009  0.4778727E+02  0.7816164E-02  0.1312668E+00
        -11   -1    0    0    0    0  0.00000000000E+00  0.00000000000E+00  0.45593999997E+02  0.45594000000E+02  0.51100000000E-03 0. -1.
         11   -1    0    0    0    0 -0.00000000000E+00 -0.00000000000E+00 -0.45593999997E+02  0.45594000000E+02  0.51100000000E-03 0.  1.
    9900012    2    1    2    0    0 -0.61677908727E+01  0.11911738434E+02  0.41275801660E+02  0.47787274667E+02  0.20000016515E+02 0.  0.
        -12    1    1    2    0    0  0.61677908727E+01 -0.11911738434E+02 -0.41275801660E+02  0.43400725333E+02  0.00000000000E+00 0.  1.
         11    1    3    3    0    0 -0.66010223451E+01 -0.16561318565E+01  0.25121317510E+02  0.26026848876E+02  0.51100000000E-03 0. -1.
        -11    1    3    3    0    0  0.28319289441E+01  0.85321892402E+01  0.95485400553E+01  0.13114598439E+02  0.51100000000E-03 0.  1.
         12    1    3    3    0    0 -0.23986974717E+01  0.50356810506E+01  0.66059440947E+01  0.86458273512E+01  0.00000000000E+00 0. -1.
</event>
<event>
 7    1  0.2430096E-009  0.4778728E+02  0.7816164E-02  0.1312668E+00
        -11   -1    0    0    0    0  0.00000000000E+00  0.00000000000E+00  0.45593999997E+02  0.45594000000E+02  0.51100000000E-03 0.  1.
         11   -1    0    0    0    0 -0.00000000000E+00 -0.00000000000E+00 -0.45593999997E+02  0.45594000000E+02  0.51100000000E-03 0. -1.
    9900012    2    1    2    0    0  0.90104446948E+01  0.17789035711E+02 -0.38548476208E+02  0.47787275086E+02  0.20000018426E+02 0.  0.
        -12    1    1    2    0    0 -0.90104446948E+01 -0.17789035711E+02  0.38548476208E+02  0.43400724914E+02  0.00000000000E+00 0.  1.
         11    1    3    3    0    0  0.11987856025E+02  0.11291683344E+02 -0.27992061822E+02  0.32477166289E+02  0.51100000000E-03 0. -1.
        -11    1    3    3    0    0 -0.58702217871E+01  0.31815977055E+01 -0.60192229254E+01  0.89896113752E+01  0.51100000000E-03 0.  1.
        -12    1    3    3    0    0  0.28928104567E+01  0.33157546606E+01 -0.45371914605E+01  0.63204974217E+01  0.00000000000E+00 0.  1.
</event>
<event>
 7    1  0.2430096E-009  0.4778727E+02  0.7816164E-02  0.1312668E+00
        -11   -1    0    0    0    0  0.00000000000E+00  0.00000000000E+00  0.45593999997E+02  0.45594000000E+02  0.51100000000E-03 0.  1.
         11   -1    0    0    0    0 -0.00000000000E+00 -0.00000000000E+00 -0.45593999997E+02  0.45594000000E+02  0.51100000000E-03 0. -1.
    9900012    2    1    2    0    0 -0.53620932626E+01 -0.19989414524E+01 -0.43021801043E+02  0.47787272171E+02  0.20000005138E+02 0.  0.
        -12    1    1    2    0    0  0.53620932626E+01  0.19989414524E+01  0.43021801043E+02  0.43400727829E+02  0.00000000000E+00 0.  1.
         11    1    3    3    0    0 -0.67345994814E+01  0.76615602251E-03 -0.65748413927E+01  0.94118739028E+01  0.51100000000E-03 0. -1.
        -11    1    3    3    0    0  0.44911746741E+01 -0.44495063971E+01 -0.11572594285E+02  0.13186875895E+02  0.51100000000E-03 0.  1.
         12    1    3    3    0    0 -0.31186684553E+01  0.24497987887E+01 -0.24874365365E+02  0.25188522373E+02  0.00000000000E+00 0. -1.
</event>
<event>
 7    1  0.2430096E-009  0.4778727E+02  0.7816164E-02  0.1312668E+00
        -11   -1    0    0    0    0  0.00000000000E+00  0.00000000000E+00  0.45593999997E+02  0.45594000000E+02  0.51100000000E-03 0. -1.
         11   -1    0    0    0    0 -0.00000000000E+00 -0.00000000000E+00 -0.45593999997E+02  0.45594000000E+02  0.51100000000E-03 0.  1.
    9900012    2    1    2    0    0 -0.36881289884E+02 -0.20794238723E+02  0.95390613958E+01  0.47787267288E+02  0.19999982874E+02 0.  0.
        -12    1    1    2    0    0  0.36881289884E+02  0.20794238723E+02 -0.95390613958E+01  0.43400732712E+02  0.00000000000E+00 0.  1.
         11    1    3    3    0    0 -0.23460423725E+02 -0.23045714617E+02  0.61445772056E+01  0.33455227885E+02  0.51100000000E-03 0. -1.
        -11    1    3    3    0    0 -0.12609197695E+02  0.15023084438E+01  0.25753743249E+01  0.12956903578E+02  0.51100000000E-03 0.  1.
         12    1    3    3    0    0 -0.81166846464E+00  0.74916744995E+00  0.81910986530E+00  0.13751358246E+01  0.00000000000E+00 0. -1.
</event>
<event>
 7    1  0.2430096E-009  0.4778727E+02  0.7816164E-02  0.1312668E+00
        -11   -1    0    0    0    0  0.00000000000E+00  0.00000000000E+00  0.45593999997E+02  0.45594000000E+02  0.51100000000E-03 0. -1.
         11   -1    0    0    0    0 -0.00000000000E+00 -0.00000000000E+00 -0.45593999997E+02  0.45594000000E+02  0.51100000000E-03 0.  1.
    9900012    2    1    2    0    0 -0.24503537172E+02 -0.32400834865E+02  0.15276968040E+02  0.47787272052E+02  0.20000004595E+02 0.  0.
        -12    1    1    2    0    0  0.24503537172E+02  0.32400834865E+02 -0.15276968040E+02  0.43400727948E+02  0.00000000000E+00 0.  1.
         11    1    3    3    0    0 -0.11435005348E+02 -0.12486966933E+02  0.10319566185E+02  0.19828694788E+02  0.51100000000E-03 0. -1.
        -11    1    3    3    0    0 -0.42319982686E+01 -0.82596807095E+00 -0.32297391534E+01  0.53873228843E+01  0.51100000000E-03 0.  1.
         12    1    3    3    0    0 -0.88365335553E+01 -0.19087899861E+02  0.81871410089E+01  0.22571254380E+02  0.00000000000E+00 0. -1.
</event>
<event>
 7    1  0.2430096E-009  0.4778728E+02  0.7816164E-02  0.1312668E+00
        -11   -1    0    0    0    0  0.00000000000E+00  0.00000000000E+00  0.45593999997E+02  0.45594000000E+02  0.51100000000E-03 0.  1.
         11   -1    0    0    0    0 -0.00000000000E+00 -0.00000000000E+00 -0.45593999997E+02  0.45594000000E+02  0.51100000000E-03 0. -1.
    9900012    2    1    2    0    0  0.24165627355E+02 -0.48802716579E+01 -0.35718739155E+02  0.47787275079E+02  0.20000018394E+02 0.  0.
        -12    1    1    2    0    0 -0.24165627355E+02  0.48802716579E+01  0.35718739155E+02  0.43400724921E+02  0.00000000000E+00 0.  1.
         11    1    3    3    0    0  0.21824646776E+02 -0.97489194579E+01 -0.22366047285E+02  0.32735251777E+02  0.51100000000E-03 0. -1.
        -11    1    3    3    0    0  0.14176081541E+01  0.37876509468E+01 -0.43570340117E+01  0.59447168320E+01  0.51100000000E-03 0.  1.
         12    1    3    3    0    0  0.92337242436E+00  0.10809968533E+01 -0.89956578579E+01  0.91073064694E+01  0.00000000000E+00 0. -1.
</event>
<event>
 7    1  0.2430096E-009  0.4778727E+02  0.7816164E-02  0.1312668E+00
        -11   -1    0    0    0    0  0.00000000000E+00  0.00000000000E+00  0.45593999997E+02  0.45594000000E+02  0.51100000000E-03 0.  1.
         11   -1    0    0    0    0 -0.00000000000E+00 -0.00000000000E+00 -0.45593999997E+02  0.45594000000E+02  0.51100000000E-03 0. -1.
    9900012    2    1    2    0    0  0.32737398570E+02  0.18298481514E+02 -0.21841510947E+02  0.47787270844E+02  0.19999999087E+02 0.  0.
        -12    1    1    2    0    0 -0.32737398570E+02 -0.18298481514E+02  0.21841510947E+02  0.43400729156E+02  0.00000000000E+00 0.  1.
         11    1    3    3    0    0  0.19723923554E+02  0.70812886194E+01 -0.44663016641E+01  0.21427217731E+02  0.51100000000E-03 0. -1.
        -11    1    3    3    0    0  0.99689408171E+01  0.53564892686E+01 -0.16026558699E+02  0.19619437869E+02  0.51100000000E-03 0.  1.
         12    1    3    3    0    0  0.30445341988E+01  0.58607036255E+01 -0.13486505831E+01  0.67406152441E+01  0.00000000000E+00 0. -1.
</event>
<event>
 7    1  0.2430096E-009  0.4778727E+02  0.7816164E-02  0.1312668E+00
        -11   -1    0    0    0    0  0.00000000000E+00  0.00000000000E+00  0.45593999997E+02  0.45594000000E+02  0.51100000000E-03 0. -1.
         11   -1    0    0    0    0 -0.00000000000E+00 -0.00000000000E+00 -0.45593999997E+02  0.45594000000E+02  0.51100000000E-03 0.  1.
    9900012    2    1    2    0    0 -0.27764466610E+02 -0.86415816312E+01  0.32219262789E+02  0.47787269201E+02  0.19999991594E+02 0.  0.
        -12    1    1    2    0    0  0.27764466610E+02  0.86415816312E+01 -0.32219262789E+02  0.43400730799E+02  0.00000000000E+00 0.  1.
         11    1    3    3    0    0 -0.46328607773E+01  0.28814151750E+01  0.10285595633E+02  0.11642999191E+02  0.51100000000E-03 0. -1.
        -11    1    3    3    0    0 -0.22666322839E+02 -0.10805350063E+02  0.23479640428E+02  0.34377482397E+02  0.51100000000E-03 0.  1.
         12    1    3    3    0    0 -0.46528299387E+00 -0.71764674305E+00 -0.15459732715E+01  0.17667876127E+01  0.00000000000E+00 0. -1.
</event>
<event>
 7    1  0.2430096E-009  0.4778727E+02  0.7816164E-02  0.1312668E+00
        -11   -1    0    0    0    0  0.00000000000E+00  0.00000000000E+00  0.45593999997E+02  0.45594000000E+02  0.51100000000E-03 0. -1.
         11   -1    0    0    0    0 -0.00000000000E+00 -0.00000000000E+00 -0.45593999997E+02  0.45594000000E+02  0.51100000000E-03 0.  1.
    9900012    2    1    2    0    0 -0.10185365588E+02 -0.12601216821E+02  0.40262773340E+02  0.47787271267E+02  0.20000001015E+02 0.  0.
        -12    1    1    2    0    0  0.10185365588E+02  0.12601216821E+02 -0.40262773340E+02  0.43400728733E+02  0.00000000000E+00 0.  1.
         11    1    3    3    0    0  0.74590406573E+00 -0.10915306366E+02  0.89751456993E+01  0.14151096301E+02  0.51100000000E-03 0. -1.
        -11    1    3    3    0    0 -0.33933676199E+01 -0.50302575238E+00  0.17909563276E+02  0.18235142876E+02  0.51100000000E-03 0.  1.
        -12    1    3    3    0    0 -0.75379020338E+01 -0.11828847026E+01  0.13378064364E+02  0.15401032090E+02  0.00000000000E+00 0.  1.
</event>
<event>
 7    1  0.2430096E-009  0.4778727E+02  0.7816164E-02  0.1312668E+00
        -11   -1    0    0    0    0  0.00000000000E+00  0.00000000000E+00  0.45593999997E+02  0.45594000000E+02  0.51100000000E-03 0. -1.
         11   -1    0    0    0    0 -0.00000000000E+00 -0.00000000000E+00 -0.45593999997E+02  0.45594000000E+02  0.51100000000E-03 0.  1.
    9900012    2    1    2    0    0  0.16874022288E+02  0.31544960422E+02  0.24572467637E+02  0.47787270490E+02  0.19999997472E+02 0.  0.
        -12    1    1    2    0    0 -0.16874022288E+02 -0.31544960422E+02 -0.24572467637E+02  0.43400729510E+02  0.00000000000E+00 0.  1.
         11    1    3    3    0    0  0.14107555349E+02  0.24378460868E+02  0.96885617878E+01  0.29785914490E+02  0.51100000000E-03 0. -1.
        -11    1    3    3    0    0 -0.12768844762E+01  0.20627314298E+01  0.86619337498E+01  0.89952427129E+01  0.51100000000E-03 0.  1.
         12    1    3    3    0    0  0.40433514155E+01  0.51037681245E+01  0.62219720995E+01  0.90061132874E+01  0.00000000000E+00 0. -1.
</event>
<event>
 7    1  0.2430096E-009  0.4778727E+02  0.7816164E-02  0.1312668E+00
        -11   -1    0    0    0    0  0.00000000000E+00  0.00000000000E+00  0.45593999997E+02  0.45594000000E+02  0.51100000000E-03 0. -1.
         11   -1    0    0    0    0 -0.00000000000E+00 -0.00000000000E+00 -0.45593999997E+02  0.45594000000E+02  0.51100000000E-03 0.  1.
    9900012    2    1    2    0    0  0.59075611189E+01  0.39096584813E+02  0.17893597731E+02  0.47787273483E+02  0.20000011119E+02 0.  0.
        -12    1    1    2    0    0 -0.59075611189E+01 -0.39096584813E+02 -0.17893597731E+02  0.43400726517E+02  0.00000000000E+00 0.  1.
         11    1    3    3    0    0  0.18978702527E+01  0.12078771176E+02  0.13428005755E+02  0.18160670787E+02  0.51100000000E-03 0. -1.
        -11    1    3    3    0    0 -0.13540429548E+01  0.18209764940E+02 -0.30812284618E+00  0.18262637034E+02  0.51100000000E-03 0.  1.
        -12    1    3    3    0    0  0.53637338210E+01  0.88080486969E+01  0.47737148217E+01  0.11363965661E+02  0.00000000000E+00 0.  1.
</event>
<event>
 7    1  0.2430096E-009  0.4778728E+02  0.7816164E-02  0.1312668E+00
        -11   -1    0    0    0    0  0.00000000000E+00  0.00000000000E+00  0.45593999997E+02  0.45594000000E+02  0.51100000000E-03 0.  1.
         11   -1    0    0    0    0 -0.00000000000E+00 -0.00000000000E+00 -0.45593999997E+02  0.45594000000E+02  0.51100000000E-03 0. -1.
    9900012    2    1    2    0    0  0.34775487534E+02  0.41888410486E+01 -0.25626970655E+02  0.47787279413E+02  0.20000038155E+02 0.  0.
        -12    1    1    2    0    0 -0.34775487534E+02 -0.41888410486E+01  0.25626970655E+02  0.43400720587E+02  0.00000000000E+00 0.  1.
         11    1    3    3    0    0  0.22055447824E+02 -0.16215648400E+01 -0.55290960817E+01  0.22795682814E+02  0.51100000000E-03 0. -1.
        -11    1    3    3    0    0  0.17564111773E+01  0.19658389951E+01 -0.70185110431E+01  0.74972662153E+01  0.51100000000E-03 0.  1.
         12    1    3    3    0    0  0.10963628533E+02  0.38445668935E+01 -0.13079363530E+02  0.17494330383E+02  0.00000000000E+00 0. -1.
</event>
<event>
 7    1  0.2430096E-009  0.4778726E+02  0.7816164E-02  0.1312668E+00
        -11   -1    0    0    0    0  0.00000000000E+00  0.00000000000E+00  0.45593999997E+02  0.45594000000E+02  0.51100000000E-03 0. -1.
         11   -1    0    0    0    0 -0.00000000000E+00 -0.00000000000E+00 -0.45593999997E+02  0.45594000000E+02  0.51100000000E-03 0.  1.
    9900012    2    1    2    0    0  0.17114612387E+02 -0.29420250990E+02  0.26928852541E+02  0.47787260091E+02  0.19999950059E+02 0.  0.
        -12    1    1    2    0    0 -0.17114612387E+02  0.29420250990E+02 -0.26928852541E+02  0.43400739909E+02  0.00000000000E+00 0.  1.
         11    1    3    3    0    0  0.67951464870E+01 -0.21594001025E+02  0.10072748082E+02  0.24777714790E+02  0.51100000000E-03 0. -1.
        -11    1    3    3    0    0 -0.92864061431E+00 -0.75532969256E-01 -0.38915752719E+00  0.10097140497E+01  0.51100000000E-03 0.  1.
         12    1    3    3    0    0  0.11248106515E+02 -0.77507169958E+01  0.17245261986E+02  0.21999831251E+02  0.00000000000E+00 0. -1.
</event>
<event>
 7    1  0.2430096E-009  0.4778727E+02  0.7816164E-02  0.1312668E+00
        -11   -1    0    0    0    0  0.00000000000E+00  0.00000000000E+00  0.45593999997E+02  0.45594000000E+02  0.51100000000E-03 0.  1.
         11   -1    0    0    0    0 -0.00000000000E+00 -0.00000000000E+00 -0.45593999997E+02  0.45594000000E+02  0.51100000000E-03 0. -1.
    9900012    2    1    2    0    0  0.71170775351E+01  0.39882590744E+02 -0.15567588417E+02  0.47787266755E+02  0.19999980443E+02 0.  0.
        -12    1    1    2    0    0 -0.71170775351E+01 -0.39882590744E+02  0.15567588417E+02  0.43400733245E+02  0.00000000000E+00 0.  1.
         11    1    3    3    0    0  0.37939540798E+01  0.21880308582E+02 -0.15162896166E+02  0.26889689689E+02  0.51100000000E-03 0. -1.
        -11    1    3    3    0    0  0.22905438990E-01  0.35588556615E+01  0.40837718497E+01  0.54169337323E+01  0.51100000000E-03 0.  1.
        -12    1    3    3    0    0  0.33002180164E+01  0.14443426500E+02 -0.44884641013E+01  0.15480643333E+02  0.00000000000E+00 0.  1.
</event>
<event>
 7    1  0.2430096E-009  0.4778726E+02  0.7816164E-02  0.1312668E+00
        -11   -1    0    0    0    0  0.00000000000E+00  0.00000000000E+00  0.45593999997E+02  0.45594000000E+02  0.51100000000E-03 0.  1.
         11   -1    0    0    0    0 -0.00000000000E+00 -0.00000000000E+00 -0.45593999997E+02  0.45594000000E+02  0.51100000000E-03 0. -1.
    9900012    2    1    2    0    0  0.51061892064E+01  0.34234490389E+02 -0.26183022265E+02  0.47787260890E+02  0.19999953700E+02 0.  0.
        -12    1    1    2    0    0 -0.51061892064E+01 -0.34234490389E+02  0.26183022265E+02  0.43400739110E+02  0.00000000000E+00 0.  1.
         11    1    3    3    0    0 -0.63319981669E+01  0.76680521271E+01 -0.69905067619E+01  0.12155673953E+02  0.51100000000E-03 0. -1.
        -11    1    3    3    0    0 -0.89304047138E+00  0.18430893753E+01 -0.10393456101E+00  0.20506833942E+01  0.51100000000E-03 0.  1.
         12    1    3    3    0    0  0.12331227845E+02  0.24723348886E+02 -0.19088580942E+02  0.33580903542E+02  0.00000000000E+00 0. -1.
</event>
<event>
 7    1  0.2430096E-009  0.4778727E+02  0.7816164E-02  0.1312668E+00
        -11   -1    0    0    0    0  0.00000000000E+00  0.00000000000E+00  0.45593999997E+02  0.45594000000E+02  0.51100000000E-03 0.  1.
         11   -1    0    0    0    0 -0.00000000000E+00 -0.00000000000E+00 -0.45593999997E+02  0.45594000000E+02  0.51100000000E-03 0. -1.
    9900012    2    1    2    0    0 -0.25390572278E+02 -0.29639358456E+02 -0.18985535334E+02  0.47787270949E+02  0.19999999564E+02 0.  0.
        -12    1    1    2    0    0  0.25390572278E+02  0.29639358456E+02  0.18985535334E+02  0.43400729051E+02  0.00000000000E+00 0.  1.
         11    1    3    3    0    0 -0.30988084929E+01 -0.77355316678E+01  0.35704917334E+00  0.83407762608E+01  0.51100000000E-03 0. -1.
        -11    1    3    3    0    0 -0.21271029745E+02 -0.13823901461E+02 -0.10587495047E+02  0.27489125298E+02  0.51100000000E-03 0.  1.
        -12    1    3    3    0    0 -0.10207340397E+01 -0.80799253271E+01 -0.87550894602E+01  0.11957369390E+02  0.00000000000E+00 0.  1.
</event>
<event>
 7    1  0.2430096E-009  0.4778727E+02  0.7816164E-02  0.1312668E+00
        -11   -1    0    0    0    0  0.00000000000E+00  0.00000000000E+00  0.45593999997E+02  0.45594000000E+02  0.51100000000E-03 0.  1.
         11   -1    0    0    0    0 -0.00000000000E+00 -0.00000000000E+00 -0.45593999997E+02  0.45594000000E+02  0.51100000000E-03 0. -1.
    9900012    2    1    2    0    0 -0.35637103902E+02 -0.15612509780E+02 -0.19231993738E+02  0.47787271674E+02  0.20000002869E+02 0.  0.
        -12    1    1    2    0    0  0.35637103902E+02  0.15612509780E+02  0.19231993738E+02  0.43400728326E+02  0.00000000000E+00 0.  1.
         11    1    3    3    0    0 -0.14465372527E+02 -0.90223597971E+01 -0.91984803387E+01  0.19371680863E+02  0.51100000000E-03 0. -1.
        -11    1    3    3    0    0 -0.28684721996E+01  0.42977035431E+01 -0.30647943817E+01  0.60076079572E+01  0.51100000000E-03 0.  1.
        -12    1    3    3    0    0 -0.18303259175E+02 -0.10887853525E+02 -0.69687190178E+01  0.22407982853E+02  0.00000000000E+00 0.  1.
</event>
<event>
 7    1  0.2430096E-009  0.4778727E+02  0.7816164E-02  0.1312668E+00
        -11   -1    0    0    0    0  0.00000000000E+00  0.00000000000E+00  0.45593999997E+02  0.45594000000E+02  0.51100000000E-03 0.  1.
         11   -1    0    0    0    0 -0.00000000000E+00 -0.00000000000E+00 -0.45593999997E+02  0.45594000000E+02  0.51100000000E-03 0. -1.
    9900012    2    1    2    0    0  0.26470813275E+02 -0.21082863877E+02 -0.27174112043E+02  0.47787268784E+02  0.19999989696E+02 0.  0.
        -12    1    1    2    0    0 -0.26470813275E+02  0.21082863877E+02  0.27174112043E+02  0.43400731216E+02  0.00000000000E+00 0.  1.
         11    1    3    3    0    0  0.90858772587E+01 -0.15288307556E+02 -0.18773159846E+02  0.25859563885E+02  0.51100000000E-03 0. -1.
        -11    1    3    3    0    0  0.66091048842E+01 -0.61581354142E+01 -0.15834150111E+01  0.91711560072E+01  0.51100000000E-03 0.  1.
         12    1    3    3    0    0  0.10775831132E+02  0.36357909258E+00 -0.68175371863E+01  0.12756548892E+02  0.00000000000E+00 0. -1.
</event>
<event>
 7    1  0.2430096E-009  0.4778727E+02  0.7816164E-02  0.1312668E+00
        -11   -1    0    0    0    0  0.00000000000E+00  0.00000000000E+00  0.45593999997E+02  0.45594000000E+02  0.51100000000E-03 0. -1.
         11   -1    0    0    0    0 -0.00000000000E+00 -0.00000000000E+00 -0.45593999997E+02  0.45594000000E+02  0.51100000000E-03 0.  1.
    9900012    2    1    2    0    0  0.12402307369E+02  0.41578127085E+02  0.10321890126E+01  0.47787270811E+02  0.19999998936E+02 0.  0.
        -12    1    1    2    0    0 -0.12402307369E+02 -0.41578127085E+02 -0.10321890126E+01  0.43400729189E+02  0.00000000000E+00 0.  1.
         11    1    3    3    0    0 -0.10652897676E+01  0.17829819338E+02 -0.42222896897E+00  0.17866605091E+02  0.51100000000E-03 0. -1.
        -11    1    3    3    0    0  0.13300599495E+02  0.18402080515E+02  0.53208988994E+01  0.23320687802E+02  0.51100000000E-03 0.  1.
        -12    1    3    3    0    0  0.16699764124E+00  0.53462272314E+01 -0.38664809178E+01  0.65999779174E+01  0.00000000000E+00 0.  1.
</event>
<event>
 7    1  0.2430096E-009  0.4778727E+02  0.7816164E-02  0.1312668E+00
        -11   -1    0    0    0    0  0.00000000000E+00  0.00000000000E+00  0.45593999997E+02  0.45594000000E+02  0.51100000000E-03 0.  1.
         11   -1    0    0    0    0 -0.00000000000E+00 -0.00000000000E+00 -0.45593999997E+02  0.45594000000E+02  0.51100000000E-03 0. -1.
    9900012    2    1    2    0    0 -0.28735851670E+02 -0.30110389201E+02 -0.12297908149E+02  0.47787271275E+02  0.20000001050E+02 0.  0.
        -12    1    1    2    0    0  0.28735851670E+02  0.30110389201E+02  0.12297908149E+02  0.43400728725E+02  0.00000000000E+00 0.  1.
         11    1    3    3    0    0 -0.22228463084E+02 -0.27626438787E+02 -0.92382143651E+01  0.36642452102E+02  0.51100000000E-03 0. -1.
        -11    1    3    3    0    0  0.15258176936E+01 -0.20965521480E+01 -0.16879683880E+00  0.25984886333E+01  0.51100000000E-03 0.  1.
         12    1    3    3    0    0 -0.80332062791E+01 -0.38739826643E+00 -0.28908969450E+01  0.85463305392E+01  0.00000000000E+00 0. -1.
</event>
<event>
 7    1  0.2430096E-009  0.4778727E+02  0.7816164E-02  0.1312668E+00
        -11   -1    0    0    0    0  0.00000000000E+00  0.00000000000E+00  0.45593999997E+02  0.45594000000E+02  0.51100000000E-03 0. -1.
         11   -1    0    0    0    0 -0.00000000000E+00 -0.00000000000E+00 -0.45593999997E+02  0.45594000000E+02  0.51100000000E-03 0.  1.
    9900012    2    1    2    0    0  0.41928852697E+02 -0.10353490720E+02  0.42895103171E+01  0.47787270083E+02  0.19999995614E+02 0.  0.
        -12    1    1    2    0    0 -0.41928852697E+02  0.10353490720E+02 -0.42895103171E+01  0.43400729917E+02  0.00000000000E+00 0.  1.
         11    1    3    3    0    0  0.16305570622E+02  0.16689880235E+01  0.91058650461E+00  0.16416038571E+02  0.51100000000E-03 0. -1.
        -11    1    3    3    0    0  0.41064079504E+01 -0.51919425933E+01 -0.38614533965E+01  0.76635290005E+01  0.51100000000E-03 0.  1.
         12    1    3    3    0    0  0.21516874125E+02 -0.68305361503E+01  0.72403772090E+01  0.23707702511E+02  0.00000000000E+00 0. -1.
</event>
<event>
 7    1  0.2430096E-009  0.4778727E+02  0.7816164E-02  0.1312668E+00
        -11   -1    0    0    0    0  0.00000000000E+00  0.00000000000E+00  0.45593999997E+02  0.45594000000E+02  0.51100000000E-03 0.  1.
         11   -1    0    0    0    0 -0.00000000000E+00 -0.00000000000E+00 -0.45593999997E+02  0.45594000000E+02  0.51100000000E-03 0. -1.
    9900012    2    1    2    0    0  0.12160492002E+02 -0.18747400151E+02 -0.37205924923E+02  0.47787269274E+02  0.19999991928E+02 0.  0.
        -12    1    1    2    0    0 -0.12160492002E+02  0.18747400151E+02  0.37205924923E+02  0.43400730726E+02  0.00000000000E+00 0.  1.
         11    1    3    3    0    0  0.93335863781E+01 -0.13755053353E+02 -0.29211165931E+02  0.33609664425E+02  0.51100000000E-03 0. -1.
        -11    1    3    3    0    0 -0.38278134770E+01 -0.21287355330E+01 -0.38475066671E+01  0.58298352291E+01  0.51100000000E-03 0.  1.
        -12    1    3    3    0    0  0.66547191005E+01 -0.28636112648E+01 -0.41472523251E+01  0.83477696201E+01  0.00000000000E+00 0.  1.
</event>
<event>
 7    1  0.2430096E-009  0.4778726E+02  0.7816164E-02  0.1312668E+00
        -11   -1    0    0    0    0  0.00000000000E+00  0.00000000000E+00  0.45593999997E+02  0.45594000000E+02  0.51100000000E-03 0.  1.
         11   -1    0    0    0    0 -0.00000000000E+00 -0.00000000000E+00 -0.45593999997E+02  0.45594000000E+02  0.51100000000E-03 0. -1.
    9900012    2    1    2    0    0  0.22362987348E+02  0.77767327953E+00 -0.37187578079E+02  0.47787263345E+02  0.19999964893E+02 0.  0.
        -12    1    1    2    0    0 -0.22362987348E+02 -0.77767327953E+00  0.37187578079E+02  0.43400736655E+02  0.00000000000E+00 0.  1.
         11    1    3    3    0    0  0.14227615205E+02 -0.26031587279E+01 -0.30715344571E+02  0.33950461884E+02  0.51100000000E-03 0. -1.
        -11    1    3    3    0    0  0.67342144482E+01  0.36400617190E+01 -0.47187910730E+00  0.76695738933E+01  0.51100000000E-03 0.  1.
        -12    1    3    3    0    0  0.14011576947E+01 -0.25922971153E+00 -0.60003544010E+01  0.61672275672E+01  0.00000000000E+00 0.  1.
</event>
<event>
 7    1  0.2430096E-009  0.4778727E+02  0.7816164E-02  0.1312668E+00
        -11   -1    0    0    0    0  0.00000000000E+00  0.00000000000E+00  0.45593999997E+02  0.45594000000E+02  0.51100000000E-03 0.  1.
         11   -1    0    0    0    0 -0.00000000000E+00 -0.00000000000E+00 -0.45593999997E+02  0.45594000000E+02  0.51100000000E-03 0. -1.
    9900012    2    1    2    0    0  0.39036522013E+02 -0.16942095762E+01 -0.18891872082E+02  0.47787271577E+02  0.20000002427E+02 0.  0.
        -12    1    1    2    0    0 -0.39036522013E+02  0.16942095762E+01  0.18891872082E+02  0.43400728423E+02  0.00000000000E+00 0.  1.
         11    1    3    3    0    0  0.21943361142E+02  0.42108277275E+01 -0.18220120332E+02  0.28830798698E+02  0.51100000000E-03 0. -1.
        -11    1    3    3    0    0  0.74708928489E+01 -0.20204911523E+01  0.24541546420E+01  0.81190824435E+01  0.51100000000E-03 0.  1.
        -12    1    3    3    0    0  0.96222680218E+01 -0.38845461514E+01 -0.31259063914E+01  0.10837390436E+02  0.00000000000E+00 0.  1.
</event>
<event>
 7    1  0.2430096E-009  0.4778726E+02  0.7816164E-02  0.1312668E+00
        -11   -1    0    0    0    0  0.00000000000E+00  0.00000000000E+00  0.45593999997E+02  0.45594000000E+02  0.51100000000E-03 0.  1.
         11   -1    0    0    0    0 -0.00000000000E+00 -0.00000000000E+00 -0.45593999997E+02  0.45594000000E+02  0.51100000000E-03 0. -1.
    9900012    2    1    2    0    0  0.58542314558E+01 -0.42506806438E+02  0.65209935541E+01  0.47787262951E+02  0.19999963097E+02 0.  0.
        -12    1    1    2    0    0 -0.58542314558E+01  0.42506806438E+02 -0.65209935541E+01  0.43400737049E+02  0.00000000000E+00 0.  1.
         11    1    3    3    0    0  0.11470153788E+02 -0.30888006543E+02  0.35239409718E+00  0.32950835467E+02  0.51100000000E-03 0. -1.
        -11    1    3    3    0    0 -0.31645311068E+01 -0.75723149754E+01  0.58810691839E+01  0.10096592803E+02  0.51100000000E-03 0.  1.
         12    1    3    3    0    0 -0.24513912256E+01 -0.40464849193E+01  0.28753027298E+00  0.47398346808E+01  0.00000000000E+00 0. -1.
</event>
<event>
 7    1  0.2430096E-009  0.4778727E+02  0.7816164E-02  0.1312668E+00
        -11   -1    0    0    0    0  0.00000000000E+00  0.00000000000E+00  0.45593999997E+02  0.45594000000E+02  0.51100000000E-03 0.  1.
         11   -1    0    0    0    0 -0.00000000000E+00 -0.00000000000E+00 -0.45593999997E+02  0.45594000000E+02  0.51100000000E-03 0. -1.
    9900012    2    1    2    0    0  0.40088556727E+02 -0.11020618709E+02 -0.12452981533E+02  0.47787272285E+02  0.20000005655E+02 0.  0.
        -12    1    1    2    0    0 -0.40088556727E+02  0.11020618709E+02  0.12452981533E+02  0.43400727715E+02  0.00000000000E+00 0.  1.
         11    1    3    3    0    0  0.12477324949E+02  0.52565330139E+01 -0.39991914970E+01  0.14117659512E+02  0.51100000000E-03 0. -1.
        -11    1    3    3    0    0 -0.28823194274E+00 -0.50938765127E-01  0.40851650229E-01  0.29553600298E+00  0.51100000000E-03 0.  1.
         12    1    3    3    0    0  0.27899463721E+02 -0.16226212958E+02 -0.84946416860E+01  0.33374076770E+02  0.00000000000E+00 0. -1.
</event>
<event>
 7    1  0.2430096E-009  0.4778727E+02  0.7816164E-02  0.1312668E+00
        -11   -1    0    0    0    0  0.00000000000E+00  0.00000000000E+00  0.45593999997E+02  0.45594000000E+02  0.51100000000E-03 0.  1.
         11   -1    0    0    0    0 -0.00000000000E+00 -0.00000000000E+00 -0.45593999997E+02  0.45594000000E+02  0.51100000000E-03 0. -1.
    9900012    2    1    2    0    0  0.49947778059E+01 -0.43026594630E+02 -0.27180396404E+01  0.47787269703E+02  0.19999993886E+02 0.  0.
        -12    1    1    2    0    0 -0.49947778059E+01  0.43026594630E+02  0.27180396404E+01  0.43400730297E+02  0.00000000000E+00 0.  1.
         11    1    3    3    0    0 -0.68279842119E+00 -0.22143910715E+01  0.13757790935E+01  0.26949044281E+01  0.51100000000E-03 0.  1.
        -11    1    3    3    0    0 -0.47335171797E+01 -0.24130807245E+02 -0.60725527007E+01  0.25329388855E+02  0.51100000000E-03 0. -1.
        -12    1    3    3    0    0  0.10411093407E+02 -0.16681396313E+02  0.19787339669E+01  0.19762976421E+02  0.00000000000E+00 0.  1.
</event>
<event>
 7    1  0.2430096E-009  0.4778727E+02  0.7816164E-02  0.1312668E+00
        -11   -1    0    0    0    0  0.00000000000E+00  0.00000000000E+00  0.45593999997E+02  0.45594000000E+02  0.51100000000E-03 0. -1.
         11   -1    0    0    0    0 -0.00000000000E+00 -0.00000000000E+00 -0.45593999997E+02  0.45594000000E+02  0.51100000000E-03 0.  1.
    9900012    2    1    2    0    0  0.27079130298E+02 -0.50288879114E+01  0.33541823992E+02  0.47787274568E+02  0.20000016064E+02 0.  0.
        -12    1    1    2    0    0 -0.27079130298E+02  0.50288879114E+01 -0.33541823992E+02  0.43400725432E+02  0.00000000000E+00 0.  1.
         11    1    3    3    0    0  0.16824849694E+02 -0.73471760427E+01  0.22152149188E+02  0.28771066663E+02  0.51100000000E-03 0. -1.
        -11    1    3    3    0    0 -0.52761946775E+00 -0.30937242307E+01  0.19158176791E+01  0.36769375245E+01  0.51100000000E-03 0.  1.
         12    1    3    3    0    0  0.10781900072E+02  0.54120123620E+01  0.94738571254E+01  0.15339270380E+02  0.00000000000E+00 0. -1.
</event>
<event>
 7    1  0.2430096E-009  0.4778727E+02  0.7816164E-02  0.1312668E+00
        -11   -1    0    0    0    0  0.00000000000E+00  0.00000000000E+00  0.45593999997E+02  0.45594000000E+02  0.51100000000E-03 0.  1.
         11   -1    0    0    0    0 -0.00000000000E+00 -0.00000000000E+00 -0.45593999997E+02  0.45594000000E+02  0.51100000000E-03 0. -1.
    9900012    2    1    2    0    0 -0.21698445205E+02 -0.33865990135E+02 -0.16306292297E+02  0.47787274422E+02  0.20000015402E+02 0.  0.
        -12    1    1    2    0    0  0.21698445205E+02  0.33865990135E+02  0.16306292297E+02  0.43400725578E+02  0.00000000000E+00 0.  1.
         11    1    3    3    0    0 -0.38723980544E+01 -0.11868243992E+02 -0.74629754152E+01  0.14544644528E+02  0.51100000000E-03 0. -1.
        -11    1    3    3    0    0 -0.53084616794E+01 -0.70394476362E+01  0.42126569033E+01  0.97713902220E+01  0.51100000000E-03 0.  1.
        -12    1    3    3    0    0 -0.12517585472E+02 -0.14958298507E+02 -0.13055973785E+02  0.23471239672E+02  0.00000000000E+00 0.  1.
</event>
<event>
 7    1  0.2430096E-009  0.4778726E+02  0.7816164E-02  0.1312668E+00
        -11   -1    0    0    0    0  0.00000000000E+00  0.00000000000E+00  0.45593999997E+02  0.45594000000E+02  0.51100000000E-03 0.  1.
         11   -1    0    0    0    0 -0.00000000000E+00 -0.00000000000E+00 -0.45593999997E+02  0.45594000000E+02  0.51100000000E-03 0. -1.
    9900012    2    1    2    0    0 -0.33315229102E+02 -0.22592035885E+02 -0.16227132817E+02  0.47787257898E+02  0.19999940061E+02 0.  0.
        -12    1    1    2    0    0  0.33315229102E+02  0.22592035885E+02  0.16227132817E+02  0.43400742102E+02  0.00000000000E+00 0.  1.
         11    1    3    3    0    0 -0.50881785383E+01 -0.72008087705E+01 -0.71188966049E+01  0.11332250303E+02  0.51100000000E-03 0. -1.
        -11    1    3    3    0    0 -0.10166099984E+02 -0.12578517848E+02 -0.32682632501E+00  0.16176387601E+02  0.51100000000E-03 0.  1.
        -12    1    3    3    0    0 -0.18060950580E+02 -0.28127092669E+01 -0.87814098867E+01  0.20278619994E+02  0.00000000000E+00 0.  1.
</event>
<event>
 7    1  0.2430096E-009  0.4778727E+02  0.7816164E-02  0.1312668E+00
        -11   -1    0    0    0    0  0.00000000000E+00  0.00000000000E+00  0.45593999997E+02  0.45594000000E+02  0.51100000000E-03 0.  1.
         11   -1    0    0    0    0 -0.00000000000E+00 -0.00000000000E+00 -0.45593999997E+02  0.45594000000E+02  0.51100000000E-03 0. -1.
    9900012    2    1    2    0    0 -0.18737402732E+02 -0.34552207356E+02 -0.18403214359E+02  0.47787267368E+02  0.19999983236E+02 0.  0.
        -12    1    1    2    0    0  0.18737402732E+02  0.34552207356E+02  0.18403214359E+02  0.43400732632E+02  0.00000000000E+00 0.  1.
         11    1    3    3    0    0 -0.96872179851E+01 -0.19135425068E+02 -0.14095436955E+02  0.25664918236E+02  0.51100000000E-03 0. -1.
        -11    1    3    3    0    0 -0.29023840306E+01 -0.75320551652E+01  0.41048835742E+01  0.90557030368E+01  0.51100000000E-03 0.  1.
        -12    1    3    3    0    0 -0.61478007160E+01 -0.78847271225E+01 -0.84126609784E+01  0.13066646095E+02  0.00000000000E+00 0.  1.
</event>
<event>
 7    1  0.2430096E-009  0.4778727E+02  0.7816164E-02  0.1312668E+00
        -11   -1    0    0    0    0  0.00000000000E+00  0.00000000000E+00  0.45593999997E+02  0.45594000000E+02  0.51100000000E-03 0.  1.
         11   -1    0    0    0    0 -0.00000000000E+00 -0.00000000000E+00 -0.45593999997E+02  0.45594000000E+02  0.51100000000E-03 0. -1.
    9900012    2    1    2    0    0  0.16675576298E+02  0.17972068260E+02 -0.35812751909E+02  0.47787270955E+02  0.19999999590E+02 0.  0.
        -12    1    1    2    0    0 -0.16675576298E+02 -0.17972068260E+02  0.35812751909E+02  0.43400729045E+02  0.00000000000E+00 0.  1.
         11    1    3    3    0    0  0.66445923800E+01  0.21526669314E+01 -0.62809999099E+01  0.93933776110E+01  0.51100000000E-03 0. -1.
        -11    1    3    3    0    0 -0.24665332266E+01  0.12509162570E+01 -0.12274608745E+02  0.12582312894E+02  0.51100000000E-03 0.  1.
        -12    1    3    3    0    0  0.12497517144E+02  0.14568485072E+02 -0.17257143253E+02  0.25811580450E+02  0.00000000000E+00 0.  1.
</event>
<event>
 7    1  0.2430096E-009  0.4778727E+02  0.7816164E-02  0.1312668E+00
        -11   -1    0    0    0    0  0.00000000000E+00  0.00000000000E+00  0.45593999997E+02  0.45594000000E+02  0.51100000000E-03 0.  1.
         11   -1    0    0    0    0 -0.00000000000E+00 -0.00000000000E+00 -0.45593999997E+02  0.45594000000E+02  0.51100000000E-03 0. -1.
    9900012    2    1    2    0    0  0.30705209466E+02 -0.23305321226E+02 -0.19941793060E+02  0.47787274243E+02  0.20000014583E+02 0.  0.
        -12    1    1    2    0    0 -0.30705209466E+02  0.23305321226E+02  0.19941793060E+02  0.43400725757E+02  0.00000000000E+00 0.  1.
         11    1    3    3    0    0  0.15166959640E+02 -0.71922061026E+01 -0.14681327836E+02  0.22300356065E+02  0.51100000000E-03 0. -1.
        -11    1    3    3    0    0  0.15374444479E+00 -0.28146740585E+01 -0.42837315954E+01  0.51280000051E+01  0.51100000000E-03 0.  1.
         12    1    3    3    0    0  0.15384505381E+02 -0.13298441065E+02 -0.97673362862E+00  0.20358918173E+02  0.00000000000E+00 0. -1.
</event>
<event>
 7    1  0.2430096E-009  0.4778727E+02  0.7816164E-02  0.1312668E+00
        -11   -1    0    0    0    0  0.00000000000E+00  0.00000000000E+00  0.45593999997E+02  0.45594000000E+02  0.51100000000E-03 0.  1.
         11   -1    0    0    0    0 -0.00000000000E+00 -0.00000000000E+00 -0.45593999997E+02  0.45594000000E+02  0.51100000000E-03 0. -1.
    9900012    2    1    2    0    0  0.39931030438E+02  0.35057930607E+01 -0.16638670430E+02  0.47787272696E+02  0.20000007530E+02 0.  0.
        -12    1    1    2    0    0 -0.39931030438E+02 -0.35057930607E+01  0.16638670430E+02  0.43400727304E+02  0.00000000000E+00 0.  1.
         11    1    3    3    0    0  0.47163516660E+01  0.29950347300E+01 -0.47837173467E+00  0.56074099055E+01  0.51100000000E-03 0. -1.
        -11    1    3    3    0    0  0.36188919702E+01  0.47190476604E+01 -0.66397721691E+01  0.89136055910E+01  0.51100000000E-03 0.  1.
        -12    1    3    3    0    0  0.31595786802E+02 -0.42082893297E+01 -0.95205265265E+01  0.33266257199E+02  0.00000000000E+00 0.  1.
</event>
<event>
 7    1  0.2430096E-009  0.4778727E+02  0.7816164E-02  0.1312668E+00
        -11   -1    0    0    0    0  0.00000000000E+00  0.00000000000E+00  0.45593999997E+02  0.45594000000E+02  0.51100000000E-03 0.  1.
         11   -1    0    0    0    0 -0.00000000000E+00 -0.00000000000E+00 -0.45593999997E+02  0.45594000000E+02  0.51100000000E-03 0. -1.
    9900012    2    1    2    0    0 -0.35253324743E+02  0.25252148923E+02  0.17762708946E+01  0.47787273405E+02  0.20000010764E+02 0.  0.
        -12    1    1    2    0    0  0.35253324743E+02 -0.25252148923E+02 -0.17762708946E+01  0.43400726595E+02  0.00000000000E+00 0.  1.
         11    1    3    3    0    0 -0.37497796161E+01  0.38831892885E+01 -0.34548473686E+01  0.64090542844E+01  0.51100000000E-03 0. -1.
        -11    1    3    3    0    0 -0.18787948911E+02  0.38301927314E+01  0.37834940792E+00  0.19178126843E+02  0.51100000000E-03 0.  1.
        -12    1    3    3    0    0 -0.12715596216E+02  0.17538766903E+02  0.48527688553E+01  0.22200092278E+02  0.00000000000E+00 0.  1.
</event>
<event>
 7    1  0.2430096E-009  0.4778727E+02  0.7816164E-02  0.1312668E+00
        -11   -1    0    0    0    0  0.00000000000E+00  0.00000000000E+00  0.45593999997E+02  0.45594000000E+02  0.51100000000E-03 0.  1.
         11   -1    0    0    0    0 -0.00000000000E+00 -0.00000000000E+00 -0.45593999997E+02  0.45594000000E+02  0.51100000000E-03 0. -1.
    9900012    2    1    2    0    0 -0.32752796751E+02  0.70368850343E+01 -0.27592754548E+02  0.47787267868E+02  0.19999985519E+02 0.  0.
        -12    1    1    2    0    0  0.32752796751E+02 -0.70368850343E+01  0.27592754548E+02  0.43400732132E+02  0.00000000000E+00 0.  1.
         11    1    3    3    0    0 -0.22792578671E+02  0.14008444172E+01 -0.11278141089E+02  0.25468813758E+02  0.51100000000E-03 0. -1.
        -11    1    3    3    0    0 -0.43334343896E+01  0.12668198920E+01 -0.14180252876E+02  0.14881634928E+02  0.51100000000E-03 0.  1.
         12    1    3    3    0    0 -0.56267836904E+01  0.43692207251E+01 -0.21343605827E+01  0.74368191816E+01  0.00000000000E+00 0. -1.
</event>
<event>
 7    1  0.2430096E-009  0.4778722E+02  0.7816164E-02  0.1312668E+00
        -11   -1    0    0    0    0  0.00000000000E+00  0.00000000000E+00  0.45593999997E+02  0.45594000000E+02  0.51100000000E-03 0. -1.
         11   -1    0    0    0    0 -0.00000000000E+00 -0.00000000000E+00 -0.45593999997E+02  0.45594000000E+02  0.51100000000E-03 0.  1.
    9900012    2    1    2    0    0  0.12963554962E+02 -0.40177809104E+02  0.10065646607E+02  0.47787224163E+02  0.19999786247E+02 0.  0.
        -12    1    1    2    0    0 -0.12963554962E+02  0.40177809104E+02 -0.10065646607E+02  0.43400775837E+02  0.00000000000E+00 0.  1.
         11    1    3    3    0    0  0.23489244973E+01 -0.29672866883E+02  0.82977533683E+01  0.30900634080E+02  0.51100000000E-03 0. -1.
        -11    1    3    3    0    0  0.11852542270E+02 -0.97138987120E+01  0.16330722483E+01  0.15411343604E+02  0.51100000000E-03 0.  1.
        -12    1    3    3    0    0 -0.12379118057E+01 -0.79104350920E+00  0.13482099059E+00  0.14752464783E+01  0.00000000000E+00 0.  1.
</event>
<event>
 7    1  0.2430096E-009  0.4778726E+02  0.7816164E-02  0.1312668E+00
        -11   -1    0    0    0    0  0.00000000000E+00  0.00000000000E+00  0.45593999997E+02  0.45594000000E+02  0.51100000000E-03 0. -1.
         11   -1    0    0    0    0 -0.00000000000E+00 -0.00000000000E+00 -0.45593999997E+02  0.45594000000E+02  0.51100000000E-03 0.  1.
    9900012    2    1    2    0    0 -0.23780203248E+02 -0.19105799144E+02  0.30872228620E+02  0.47787261211E+02  0.19999955166E+02 0.  0.
        -12    1    1    2    0    0  0.23780203248E+02  0.19105799144E+02 -0.30872228620E+02  0.43400738789E+02  0.00000000000E+00 0.  1.
         11    1    3    3    0    0 -0.14627599895E+02 -0.42011382151E+01  0.10009867882E+02  0.18215754068E+02  0.51100000000E-03 0.  1.
        -11    1    3    3    0    0 -0.77755354032E+01 -0.14511089212E+02  0.22182187202E+02  0.27623904327E+02  0.51100000000E-03 0. -1.
        -12    1    3    3    0    0 -0.13770679497E+01 -0.39357171717E+00 -0.13198264639E+01  0.19476028162E+01  0.00000000000E+00 0.  1.
</event>
<event>
 7    1  0.2430096E-009  0.4778727E+02  0.7816164E-02  0.1312668E+00
        -11   -1    0    0    0    0  0.00000000000E+00  0.00000000000E+00  0.45593999997E+02  0.45594000000E+02  0.51100000000E-03 0.  1.
         11   -1    0    0    0    0 -0.00000000000E+00 -0.00000000000E+00 -0.45593999997E+02  0.45594000000E+02  0.51100000000E-03 0. -1.
    9900012    2    1    2    0    0  0.30602554619E+02 -0.30178230781E+02 -0.60317079145E+01  0.47787268870E+02  0.19999990087E+02 0.  0.
        -12    1    1    2    0    0 -0.30602554619E+02  0.30178230781E+02  0.60317079145E+01  0.43400731130E+02  0.00000000000E+00 0.  1.
         11    1    3    3    0    0  0.25017109245E+02 -0.17007915822E+02 -0.34076592254E+00  0.30252951546E+02  0.51100000000E-03 0. -1.
        -11    1    3    3    0    0  0.36055341981E+00 -0.10817784646E+02 -0.42294332242E+01  0.11620781776E+02  0.51100000000E-03 0.  1.
        -12    1    3    3    0    0  0.52248919542E+01 -0.23525303120E+01 -0.14615087677E+01  0.59135355482E+01  0.00000000000E+00 0.  1.
</event>
<event>
 7    1  0.2430096E-009  0.4778727E+02  0.7816164E-02  0.1312668E+00
        -11   -1    0    0    0    0  0.00000000000E+00  0.00000000000E+00  0.45593999997E+02  0.45594000000E+02  0.51100000000E-03 0.  1.
         11   -1    0    0    0    0 -0.00000000000E+00 -0.00000000000E+00 -0.45593999997E+02  0.45594000000E+02  0.51100000000E-03 0. -1.
    9900012    2    1    2    0    0  0.17266443657E+02  0.28341307370E+01 -0.39717259029E+02  0.47787273757E+02  0.20000012370E+02 0.  0.
        -12    1    1    2    0    0 -0.17266443657E+02 -0.28341307370E+01  0.39717259029E+02  0.43400726243E+02  0.00000000000E+00 0.  1.
         11    1    3    3    0    0  0.14578960495E+02  0.59003602106E+01 -0.25811917278E+02  0.30226071752E+02  0.51100000000E-03 0. -1.
        -11    1    3    3    0    0  0.39512238087E+01  0.14742483817E+01 -0.18272655448E+01  0.45961372379E+01  0.51100000000E-03 0.  1.
         12    1    3    3    0    0 -0.12637406471E+01 -0.45404778553E+01 -0.12078076206E+02  0.12965064768E+02  0.00000000000E+00 0. -1.
</event>
<event>
 7    1  0.2430096E-009  0.4778727E+02  0.7816164E-02  0.1312668E+00
        -11   -1    0    0    0    0  0.00000000000E+00  0.00000000000E+00  0.45593999997E+02  0.45594000000E+02  0.51100000000E-03 0.  1.
         11   -1    0    0    0    0 -0.00000000000E+00 -0.00000000000E+00 -0.45593999997E+02  0.45594000000E+02  0.51100000000E-03 0. -1.
    9900012    2    1    2    0    0  0.11990163550E+02 -0.18854384585E+02 -0.37207140596E+02  0.47787272455E+02  0.20000006433E+02 0.  0.
        -12    1    1    2    0    0 -0.11990163550E+02  0.18854384585E+02  0.37207140596E+02  0.43400727545E+02  0.00000000000E+00 0.  1.
         11    1    3    3    0    0  0.65892916264E+01 -0.19936402763E+01 -0.20792672752E+01  0.71914336785E+01  0.51100000000E-03 0. -1.
        -11    1    3    3    0    0  0.75312434052E+01 -0.16556139666E+02 -0.31057444858E+02  0.35991530521E+02  0.51100000000E-03 0.  1.
        -12    1    3    3    0    0 -0.21303714820E+01 -0.30460464251E+00 -0.40704284632E+01  0.46043082557E+01  0.00000000000E+00 0.  1.
</event>
<event>
 7    1  0.2430096E-009  0.4778727E+02  0.7816164E-02  0.1312668E+00
        -11   -1    0    0    0    0  0.00000000000E+00  0.00000000000E+00  0.45593999997E+02  0.45594000000E+02  0.51100000000E-03 0.  1.
         11   -1    0    0    0    0 -0.00000000000E+00 -0.00000000000E+00 -0.45593999997E+02  0.45594000000E+02  0.51100000000E-03 0. -1.
    9900012    2    1    2    0    0 -0.35068161196E+02  0.18669298943E+01 -0.25502203587E+02  0.47787265621E+02  0.19999975270E+02 0.  0.
        -12    1    1    2    0    0  0.35068161196E+02 -0.18669298943E+01  0.25502203587E+02  0.43400734379E+02  0.00000000000E+00 0.  1.
         11    1    3    3    0    0 -0.13149993230E+02  0.72428634304E+01 -0.39796919430E+01  0.15531237582E+02  0.51100000000E-03 0. -1.
        -11    1    3    3    0    0 -0.13802320691E+02 -0.67328392831E+01 -0.16830548312E+02  0.22783821848E+02  0.51100000000E-03 0.  1.
        -12    1    3    3    0    0 -0.81158472756E+01  0.13569057470E+01 -0.46919633317E+01  0.94722061904E+01  0.00000000000E+00 0.  1.
</event>
<event>
 7    1  0.2430096E-009  0.4778727E+02  0.7816164E-02  0.1312668E+00
        -11   -1    0    0    0    0  0.00000000000E+00  0.00000000000E+00  0.45593999997E+02  0.45594000000E+02  0.51100000000E-03 0.  1.
         11   -1    0    0    0    0 -0.00000000000E+00 -0.00000000000E+00 -0.45593999997E+02  0.45594000000E+02  0.51100000000E-03 0. -1.
    9900012    2    1    2    0    0  0.11833840354E+02 -0.26372104801E+02 -0.32374303804E+02  0.47787271481E+02  0.20000001991E+02 0.  0.
        -12    1    1    2    0    0 -0.11833840354E+02  0.26372104801E+02  0.32374303804E+02  0.43400728519E+02  0.00000000000E+00 0.  1.
         11    1    3    3    0    0  0.11008564054E+02 -0.18304980041E+02 -0.16650651685E+02  0.27083297041E+02  0.51100000000E-03 0. -1.
        -11    1    3    3    0    0 -0.35716427611E+01 -0.25046739302E+01 -0.11843426459E+02  0.12621282584E+02  0.51100000000E-03 0.  1.
        -12    1    3    3    0    0  0.43969190613E+01 -0.55624508300E+01 -0.38802256600E+01  0.80826918560E+01  0.00000000000E+00 0.  1.
</event>
<event>
 7    1  0.2430096E-009  0.4778727E+02  0.7816164E-02  0.1312668E+00
        -11   -1    0    0    0    0  0.00000000000E+00  0.00000000000E+00  0.45593999997E+02  0.45594000000E+02  0.51100000000E-03 0. -1.
         11   -1    0    0    0    0 -0.00000000000E+00 -0.00000000000E+00 -0.45593999997E+02  0.45594000000E+02  0.51100000000E-03 0.  1.
    9900012    2    1    2    0    0 -0.16686735532E+02 -0.32073237478E+02  0.24010067271E+02  0.47787273792E+02  0.20000012527E+02 0.  0.
        -12    1    1    2    0    0  0.16686735532E+02  0.32073237478E+02 -0.24010067271E+02  0.43400726208E+02  0.00000000000E+00 0.  1.
         11    1    3    3    0    0 -0.74444732108E+01 -0.23625142294E+02  0.16899357900E+02  0.29985927157E+02  0.51100000000E-03 0. -1.
        -11    1    3    3    0    0 -0.10096933224E+02 -0.67656552478E+01  0.19539637466E+01  0.12310163526E+02  0.51100000000E-03 0.  1.
        -12    1    3    3    0    0  0.85467090260E+00 -0.16824399358E+01  0.51567456246E+01  0.54911831081E+01  0.00000000000E+00 0.  1.
</event>
<event>
 7    1  0.2430096E-009  0.4778727E+02  0.7816164E-02  0.1312668E+00
        -11   -1    0    0    0    0  0.00000000000E+00  0.00000000000E+00  0.45593999997E+02  0.45594000000E+02  0.51100000000E-03 0. -1.
         11   -1    0    0    0    0 -0.00000000000E+00 -0.00000000000E+00 -0.45593999997E+02  0.45594000000E+02  0.51100000000E-03 0.  1.
    9900012    2    1    2    0    0  0.21698211623E+02  0.19203032807E+02  0.32311837455E+02  0.47787266177E+02  0.19999977809E+02 0.  0.
        -12    1    1    2    0    0 -0.21698211623E+02 -0.19203032807E+02 -0.32311837455E+02  0.43400733823E+02  0.00000000000E+00 0.  1.
         11    1    3    3    0    0  0.21459769351E+02  0.18833780207E+02  0.31576419864E+02  0.42571155366E+02  0.51100000000E-03 0. -1.
        -11    1    3    3    0    0 -0.28630001678E+00  0.24506681073E+01 -0.78096549908E+00  0.25879816931E+01  0.51100000000E-03 0.  1.
         12    1    3    3    0    0  0.52474228855E+00 -0.20814155079E+01  0.15163830904E+01  0.26281291184E+01  0.00000000000E+00 0. -1.
</event>
<event>
 7    1  0.2430096E-009  0.4778727E+02  0.7816164E-02  0.1312668E+00
        -11   -1    0    0    0    0  0.00000000000E+00  0.00000000000E+00  0.45593999997E+02  0.45594000000E+02  0.51100000000E-03 0.  1.
         11   -1    0    0    0    0 -0.00000000000E+00 -0.00000000000E+00 -0.45593999997E+02  0.45594000000E+02  0.51100000000E-03 0. -1.
    9900012    2    1    2    0    0 -0.40500643041E+02  0.13912672910E+02 -0.70539710190E+01  0.47787273493E+02  0.20000011165E+02 0.  0.
        -12    1    1    2    0    0  0.40500643041E+02 -0.13912672910E+02  0.70539710190E+01  0.43400726507E+02  0.00000000000E+00 0.  1.
         11    1    3    3    0    0 -0.10786373602E+02  0.13535699340E+02 -0.18317516107E+01  0.17404491556E+02  0.51100000000E-03 0. -1.
        -11    1    3    3    0    0 -0.10018890465E+01  0.13013643170E+00 -0.88599305334E+00  0.13437637828E+01  0.51100000000E-03 0.  1.
         12    1    3    3    0    0 -0.28712380392E+02  0.24683713792E+00 -0.43362263549E+01  0.29039018154E+02  0.00000000000E+00 0. -1.
</event>
<event>
 7    1  0.2430096E-009  0.4778724E+02  0.7816164E-02  0.1312668E+00
        -11   -1    0    0    0    0  0.00000000000E+00  0.00000000000E+00  0.45593999997E+02  0.45594000000E+02  0.51100000000E-03 0. -1.
         11   -1    0    0    0    0 -0.00000000000E+00 -0.00000000000E+00 -0.45593999997E+02  0.45594000000E+02  0.51100000000E-03 0.  1.
    9900012    2    1    2    0    0  0.76984425439E+00  0.40295839058E+02  0.16102136476E+02  0.47787238432E+02  0.19999851308E+02 0.  0.
        -12    1    1    2    0    0 -0.76984425439E+00 -0.40295839058E+02 -0.16102136476E+02  0.43400761568E+02  0.00000000000E+00 0.  1.
         11    1    3    3    0    0 -0.16439304192E+01  0.61385160886E+01  0.24640419076E+01  0.68158190833E+01  0.51100000000E-03 0. -1.
        -11    1    3    3    0    0  0.51491555328E+00  0.34878657053E+02  0.91766535676E+01  0.36069333607E+02  0.51100000000E-03 0.  1.
        -12    1    3    3    0    0  0.18988591203E+01 -0.72133408406E+00  0.44614410008E+01  0.49020857421E+01  0.00000000000E+00 0.  1.
</event>
<event>
 7    1  0.2430096E-009  0.4778727E+02  0.7816164E-02  0.1312668E+00
        -11   -1    0    0    0    0  0.00000000000E+00  0.00000000000E+00  0.45593999997E+02  0.45594000000E+02  0.51100000000E-03 0.  1.
         11   -1    0    0    0    0 -0.00000000000E+00 -0.00000000000E+00 -0.45593999997E+02  0.45594000000E+02  0.51100000000E-03 0. -1.
    9900012    2    1    2    0    0 -0.28203336932E+02  0.29408136946E+02 -0.14945117171E+02  0.47787271204E+02  0.20000000729E+02 0.  0.
        -12    1    1    2    0    0  0.28203336932E+02 -0.29408136946E+02  0.14945117171E+02  0.43400728796E+02  0.00000000000E+00 0.  1.
         11    1    3    3    0    0 -0.20554419878E+02  0.23507238440E+02 -0.13379765782E+02  0.33971937952E+02  0.51100000000E-03 0. -1.
        -11    1    3    3    0    0  0.18274306792E+01 -0.79142369783E+00 -0.92681574627E+00  0.21965523088E+01  0.51100000000E-03 0.  1.
         12    1    3    3    0    0 -0.94763477334E+01  0.66923222039E+01 -0.63853564302E+00  0.11618780943E+02  0.00000000000E+00 0. -1.
</event>
<event>
 7    1  0.2430096E-009  0.4778727E+02  0.7816164E-02  0.1312668E+00
        -11   -1    0    0    0    0  0.00000000000E+00  0.00000000000E+00  0.45593999997E+02  0.45594000000E+02  0.51100000000E-03 0.  1.
         11   -1    0    0    0    0 -0.00000000000E+00 -0.00000000000E+00 -0.45593999997E+02  0.45594000000E+02  0.51100000000E-03 0. -1.
    9900012    2    1    2    0    0 -0.22792793768E+02 -0.14036181333E+01 -0.36907204261E+02  0.47787270536E+02  0.19999997683E+02 0.  0.
        -12    1    1    2    0    0  0.22792793768E+02  0.14036181333E+01  0.36907204261E+02  0.43400729464E+02  0.00000000000E+00 0.  1.
         11    1    3    3    0    0 -0.13846274663E+02 -0.55507548273E+00 -0.16912235161E+02  0.21864380376E+02  0.51100000000E-03 0. -1.
        -11    1    3    3    0    0 -0.10222718407E+00  0.49965569174E+01 -0.28165424078E+01  0.57366316617E+01  0.51100000000E-03 0.  1.
        -12    1    3    3    0    0 -0.88442919216E+01 -0.58450995679E+01 -0.17178426692E+02  0.20186258498E+02  0.00000000000E+00 0.  1.
</event>
<event>
 7    1  0.2430096E-009  0.4778730E+02  0.7816164E-02  0.1312668E+00
        -11   -1    0    0    0    0  0.00000000000E+00  0.00000000000E+00  0.45593999997E+02  0.45594000000E+02  0.51100000000E-03 0. -1.
         11   -1    0    0    0    0 -0.00000000000E+00 -0.00000000000E+00 -0.45593999997E+02  0.45594000000E+02  0.51100000000E-03 0.  1.
    9900012    2    1    2    0    0  0.43339372562E+02  0.99455221559E+00  0.20809022340E+01  0.47787302975E+02  0.20000145583E+02 0.  0.
        -12    1    1    2    0    0 -0.43339372562E+02 -0.99455221559E+00 -0.20809022340E+01  0.43400697025E+02  0.00000000000E+00 0.  1.
         11    1    3    3    0    0  0.20423900109E+01 -0.21792802169E+01  0.20071052130E+01  0.35984845169E+01  0.51100000000E-03 0. -1.
        -11    1    3    3    0    0  0.14679007743E+02  0.16496529245E+01  0.74247276100E+01  0.16532428843E+02  0.51100000000E-03 0.  1.
        -12    1    3    3    0    0  0.26617974807E+02  0.15241795080E+01 -0.73509305890E+01  0.27656389615E+02  0.00000000000E+00 0.  1.
</event>
<event>
 7    1  0.2430096E-009  0.4778727E+02  0.7816164E-02  0.1312668E+00
        -11   -1    0    0    0    0  0.00000000000E+00  0.00000000000E+00  0.45593999997E+02  0.45594000000E+02  0.51100000000E-03 0. -1.
         11   -1    0    0    0    0 -0.00000000000E+00 -0.00000000000E+00 -0.45593999997E+02  0.45594000000E+02  0.51100000000E-03 0.  1.
    9900012    2    1    2    0    0  0.58769378764E+00 -0.40328570592E+02  0.16027609923E+02  0.47787271091E+02  0.20000000214E+02 0.  0.
        -12    1    1    2    0    0 -0.58769378764E+00  0.40328570592E+02 -0.16027609923E+02  0.43400728909E+02  0.00000000000E+00 0.  1.
         11    1    3    3    0    0 -0.54087123268E+01 -0.22805509095E+02  0.31285647993E+01  0.23646000340E+02  0.51100000000E-03 0. -1.
        -11    1    3    3    0    0  0.62018695106E+01 -0.15265746860E+02  0.13999539393E+02  0.21621593746E+02  0.51100000000E-03 0.  1.
        -12    1    3    3    0    0 -0.20546339619E+00 -0.22573146358E+01 -0.11004942694E+01  0.25196770049E+01  0.00000000000E+00 0.  1.
</event>
<event>
 7    1  0.2430096E-009  0.4778727E+02  0.7816164E-02  0.1312668E+00
        -11   -1    0    0    0    0  0.00000000000E+00  0.00000000000E+00  0.45593999997E+02  0.45594000000E+02  0.51100000000E-03 0. -1.
         11   -1    0    0    0    0 -0.00000000000E+00 -0.00000000000E+00 -0.45593999997E+02  0.45594000000E+02  0.51100000000E-03 0.  1.
    9900012    2    1    2    0    0 -0.42068079068E+02 -0.10296137523E+02 -0.28087900814E+01  0.47787273899E+02  0.20000013014E+02 0.  0.
        -12    1    1    2    0    0  0.42068079068E+02  0.10296137523E+02  0.28087900814E+01  0.43400726101E+02  0.00000000000E+00 0.  1.
         11    1    3    3    0    0 -0.20279536392E+02 -0.56655840507E+01  0.72650824270E+00  0.21068608246E+02  0.51100000000E-03 0. -1.
        -11    1    3    3    0    0 -0.42389371768E+00  0.35548766480E+01 -0.87550904643E+00  0.36855596885E+01  0.51100000000E-03 0.  1.
        -12    1    3    3    0    0 -0.21364648958E+02 -0.81854301203E+01 -0.26597892777E+01  0.23033105965E+02  0.00000000000E+00 0.  1.
</event>
<event>
 7    1  0.2430096E-009  0.4778727E+02  0.7816164E-02  0.1312668E+00
        -11   -1    0    0    0    0  0.00000000000E+00  0.00000000000E+00  0.45593999997E+02  0.45594000000E+02  0.51100000000E-03 0.  1.
         11   -1    0    0    0    0 -0.00000000000E+00 -0.00000000000E+00 -0.45593999997E+02  0.45594000000E+02  0.51100000000E-03 0. -1.
    9900012    2    1    2    0    0  0.18436901080E+01 -0.47460452535E+01 -0.43101035919E+02  0.47787269176E+02  0.19999991481E+02 0.  0.
        -12    1    1    2    0    0 -0.18436901080E+01  0.47460452535E+01  0.43101035919E+02  0.43400730824E+02  0.00000000000E+00 0.  1.
         11    1    3    3    0    0 -0.56420080802E+01 -0.40260124858E+01 -0.31759809308E+02  0.32507330239E+02  0.51100000000E-03 0. -1.
        -11    1    3    3    0    0  0.50268500568E+01 -0.37395564765E+01 -0.60433796134E+01  0.87049377682E+01  0.51100000000E-03 0.  1.
         12    1    3    3    0    0  0.24588481314E+01  0.30195237087E+01 -0.52978469973E+01  0.65750011686E+01  0.00000000000E+00 0. -1.
</event>
<event>
 7    1  0.2430096E-009  0.4778727E+02  0.7816164E-02  0.1312668E+00
        -11   -1    0    0    0    0  0.00000000000E+00  0.00000000000E+00  0.45593999997E+02  0.45594000000E+02  0.51100000000E-03 0.  1.
         11   -1    0    0    0    0 -0.00000000000E+00 -0.00000000000E+00 -0.45593999997E+02  0.45594000000E+02  0.51100000000E-03 0. -1.
    9900012    2    1    2    0    0  0.32462258412E+02 -0.12729415386E+02 -0.25841571049E+02  0.47787273836E+02  0.20000012728E+02 0.  0.
        -12    1    1    2    0    0 -0.32462258412E+02  0.12729415386E+02  0.25841571049E+02  0.43400726164E+02  0.00000000000E+00 0.  1.
         11    1    3    3    0    0  0.14070531654E+02  0.42677973937E+01 -0.11126220476E+02  0.18438729294E+02  0.51100000000E-03 0.  1.
        -11    1    3    3    0    0  0.92201642777E+01 -0.11303299221E+02 -0.80347653727E+01  0.16653331722E+02  0.51100000000E-03 0. -1.
        -12    1    3    3    0    0  0.91715624797E+01 -0.56939135588E+01 -0.66805852008E+01  0.12695212821E+02  0.00000000000E+00 0.  1.
</event>
<event>
 7    1  0.2430096E-009  0.4778727E+02  0.7816164E-02  0.1312668E+00
        -11   -1    0    0    0    0  0.00000000000E+00  0.00000000000E+00  0.45593999997E+02  0.45594000000E+02  0.51100000000E-03 0.  1.
         11   -1    0    0    0    0 -0.00000000000E+00 -0.00000000000E+00 -0.45593999997E+02  0.45594000000E+02  0.51100000000E-03 0. -1.
    9900012    2    1    2    0    0 -0.64826467067E+01 -0.22362506491E+02 -0.36626720198E+02  0.47787273769E+02  0.20000012425E+02 0.  0.
        -12    1    1    2    0    0  0.64826467067E+01  0.22362506491E+02  0.36626720198E+02  0.43400726231E+02  0.00000000000E+00 0.  1.
         11    1    3    3    0    0 -0.39512885904E+01 -0.34479415092E+01 -0.21027048112E+02  0.21671126753E+02  0.51100000000E-03 0. -1.
        -11    1    3    3    0    0  0.71839822204E+00  0.49144622933E+00 -0.20462809044E+01  0.22237088844E+01  0.51100000000E-03 0.  1.
         12    1    3    3    0    0 -0.32497563383E+01 -0.19406011211E+02 -0.13553391181E+02  0.23892438132E+02  0.00000000000E+00 0. -1.
</event>
<event>
 7    1  0.2430096E-009  0.4778727E+02  0.7816164E-02  0.1312668E+00
        -11   -1    0    0    0    0  0.00000000000E+00  0.00000000000E+00  0.45593999997E+02  0.45594000000E+02  0.51100000000E-03 0. -1.
         11   -1    0    0    0    0 -0.00000000000E+00 -0.00000000000E+00 -0.45593999997E+02  0.45594000000E+02  0.51100000000E-03 0.  1.
    9900012    2    1    2    0    0 -0.20507750391E+02 -0.22517451740E+02  0.30919572335E+02  0.47787269449E+02  0.19999992726E+02 0.  0.
        -12    1    1    2    0    0  0.20507750391E+02  0.22517451740E+02 -0.30919572335E+02  0.43400730551E+02  0.00000000000E+00 0.  1.
         11    1    3    3    0    0 -0.61076084779E+01 -0.47777215627E+01 -0.90042970192E+00  0.78064254663E+01  0.51100000000E-03 0. -1.
        -11    1    3    3    0    0 -0.51013437734E+01 -0.42678873684E+01  0.15495820923E+02  0.16862948652E+02  0.51100000000E-03 0.  1.
         12    1    3    3    0    0 -0.92987981395E+01 -0.13471842809E+02  0.16324181114E+02  0.23117895331E+02  0.00000000000E+00 0. -1.
</event>
<event>
 7    1  0.2430096E-009  0.4778727E+02  0.7816164E-02  0.1312668E+00
        -11   -1    0    0    0    0  0.00000000000E+00  0.00000000000E+00  0.45593999997E+02  0.45594000000E+02  0.51100000000E-03 0.  1.
         11   -1    0    0    0    0 -0.00000000000E+00 -0.00000000000E+00 -0.45593999997E+02  0.45594000000E+02  0.51100000000E-03 0. -1.
    9900012    2    1    2    0    0 -0.38109336638E+02 -0.10836360786E+02 -0.17716528349E+02  0.47787266933E+02  0.19999981253E+02 0.  0.
        -12    1    1    2    0    0  0.38109336638E+02  0.10836360786E+02  0.17716528349E+02  0.43400733067E+02  0.00000000000E+00 0.  1.
         11    1    3    3    0    0 -0.26793727830E+02 -0.11706880908E+02 -0.16638569239E+02  0.33642189260E+02  0.51100000000E-03 0. -1.
        -11    1    3    3    0    0 -0.19520829226E+01 -0.29059595314E+01 -0.19567502680E+01  0.40104987729E+01  0.51100000000E-03 0.  1.
         12    1    3    3    0    0 -0.93635258855E+01  0.37764796541E+01  0.87879115802E+00  0.10134578900E+02  0.00000000000E+00 0. -1.
</event>
<event>
 7    1  0.2430096E-009  0.4778723E+02  0.7816164E-02  0.1312668E+00
        -11   -1    0    0    0    0  0.00000000000E+00  0.00000000000E+00  0.45593999997E+02  0.45594000000E+02  0.51100000000E-03 0. -1.
         11   -1    0    0    0    0 -0.00000000000E+00 -0.00000000000E+00 -0.45593999997E+02  0.45594000000E+02  0.51100000000E-03 0.  1.
    9900012    2    1    2    0    0  0.61553445143E+01  0.38261628623E+02  0.19539354306E+02  0.47787229757E+02  0.19999811755E+02 0.  0.
        -12    1    1    2    0    0 -0.61553445143E+01 -0.38261628623E+02 -0.19539354306E+02  0.43400770243E+02  0.00000000000E+00 0.  1.
         11    1    3    3    0    0  0.45059793445E+01  0.81767186970E+01  0.13541394713E+00  0.93370721161E+01  0.51100000000E-03 0. -1.
        -11    1    3    3    0    0  0.75383964603E+01  0.12967771353E+02  0.10232450471E+02  0.18157465626E+02  0.51100000000E-03 0.  1.
        -12    1    3    3    0    0 -0.58890312905E+01  0.17117138573E+02  0.91714898881E+01  0.20292692016E+02  0.00000000000E+00 0.  1.
</event>
<event>
 7    1  0.2430096E-009  0.4778727E+02  0.7816164E-02  0.1312668E+00
        -11   -1    0    0    0    0  0.00000000000E+00  0.00000000000E+00  0.45593999997E+02  0.45594000000E+02  0.51100000000E-03 0. -1.
         11   -1    0    0    0    0 -0.00000000000E+00 -0.00000000000E+00 -0.45593999997E+02  0.45594000000E+02  0.51100000000E-03 0.  1.
    9900012    2    1    2    0    0 -0.31959378895E+02  0.29363124823E+02 -0.16813406090E+00  0.47787271114E+02  0.20000000319E+02 0.  0.
        -12    1    1    2    0    0  0.31959378895E+02 -0.29363124823E+02  0.16813406090E+00  0.43400728886E+02  0.00000000000E+00 0.  1.
         11    1    3    3    0    0 -0.11147488064E+02  0.17292640708E+02 -0.27733063050E+01  0.20760374296E+02  0.51100000000E-03 0. -1.
        -11    1    3    3    0    0 -0.27088203111E+01  0.10720170430E+01  0.49207602179E+01  0.57184621535E+01  0.51100000000E-03 0.  1.
        -12    1    3    3    0    0 -0.18103070521E+02  0.10998467072E+02 -0.23155879738E+01  0.21308434665E+02  0.00000000000E+00 0.  1.
</event>
<event>
 7    1  0.2430096E-009  0.4778727E+02  0.7816164E-02  0.1312668E+00
        -11   -1    0    0    0    0  0.00000000000E+00  0.00000000000E+00  0.45593999997E+02  0.45594000000E+02  0.51100000000E-03 0.  1.
         11   -1    0    0    0    0 -0.00000000000E+00 -0.00000000000E+00 -0.45593999997E+02  0.45594000000E+02  0.51100000000E-03 0. -1.
    9900012    2    1    2    0    0 -0.85525766122E+01  0.27217696301E+02 -0.32705872968E+02  0.47787266306E+02  0.19999978394E+02 0.  0.
        -12    1    1    2    0    0  0.85525766122E+01 -0.27217696301E+02  0.32705872968E+02  0.43400733694E+02  0.00000000000E+00 0.  1.
         11    1    3    3    0    0 -0.13369141233E+02  0.19412264125E+02 -0.22910789362E+02  0.32870567462E+02  0.51100000000E-03 0. -1.
        -11    1    3    3    0    0  0.28268195862E+01  0.88627109453E+00 -0.61956379569E+01  0.68674824630E+01  0.51100000000E-03 0.  1.
         12    1    3    3    0    0  0.19897450349E+01  0.69191610810E+01 -0.35994456484E+01  0.80492163808E+01  0.00000000000E+00 0. -1.
</event>
<event>
 7    1  0.2430096E-009  0.4778727E+02  0.7816164E-02  0.1312668E+00
        -11   -1    0    0    0    0  0.00000000000E+00  0.00000000000E+00  0.45593999997E+02  0.45594000000E+02  0.51100000000E-03 0.  1.
         11   -1    0    0    0    0 -0.00000000000E+00 -0.00000000000E+00 -0.45593999997E+02  0.45594000000E+02  0.51100000000E-03 0. -1.
    9900012    2    1    2    0    0 -0.86942296672E+01 -0.38308658947E+02 -0.18452102291E+02  0.47787273522E+02  0.20000011297E+02 0.  0.
        -12    1    1    2    0    0  0.86942296672E+01  0.38308658947E+02  0.18452102291E+02  0.43400726478E+02  0.00000000000E+00 0.  1.
         11    1    3    3    0    0  0.41119809871E+01 -0.11815337173E+02  0.66379097012E+00  0.12528016558E+02  0.51100000000E-03 0. -1.
        -11    1    3    3    0    0 -0.58969978738E+01 -0.84775076826E+01 -0.69920425837E+01  0.12471222081E+02  0.51100000000E-03 0.  1.
         12    1    3    3    0    0 -0.69092127805E+01 -0.18015814091E+02 -0.12123850678E+02  0.22788034884E+02  0.00000000000E+00 0. -1.
</event>
<event>
 7    1  0.2430096E-009  0.4778727E+02  0.7816164E-02  0.1312668E+00
        -11   -1    0    0    0    0  0.00000000000E+00  0.00000000000E+00  0.45593999997E+02  0.45594000000E+02  0.51100000000E-03 0. -1.
         11   -1    0    0    0    0 -0.00000000000E+00 -0.00000000000E+00 -0.45593999997E+02  0.45594000000E+02  0.51100000000E-03 0.  1.
    9900012    2    1    2    0    0 -0.33985933916E+02  0.15459860398E+02  0.22126275322E+02  0.47787273655E+02  0.20000011902E+02 0.  0.
        -12    1    1    2    0    0  0.33985933916E+02 -0.15459860398E+02 -0.22126275322E+02  0.43400726345E+02  0.00000000000E+00 0.  1.
         11    1    3    3    0    0 -0.94108122497E+01  0.15320794303E+01  0.17516735672E+01  0.96942774423E+01  0.51100000000E-03 0. -1.
        -11    1    3    3    0    0 -0.16709765366E+02  0.81101345514E+00  0.12549118172E+02  0.20913019117E+02  0.51100000000E-03 0.  1.
        -12    1    3    3    0    0 -0.78653562996E+01  0.13116767513E+02  0.78254835832E+01  0.17179977096E+02  0.00000000000E+00 0.  1.
</event>
<event>
 7    1  0.2430096E-009  0.4778728E+02  0.7816164E-02  0.1312668E+00
        -11   -1    0    0    0    0  0.00000000000E+00  0.00000000000E+00  0.45593999997E+02  0.45594000000E+02  0.51100000000E-03 0. -1.
         11   -1    0    0    0    0 -0.00000000000E+00 -0.00000000000E+00 -0.45593999997E+02  0.45594000000E+02  0.51100000000E-03 0.  1.
    9900012    2    1    2    0    0 -0.11846589882E+02 -0.35163488045E+02  0.22512443108E+02  0.47787277909E+02  0.20000031297E+02 0.  0.
        -12    1    1    2    0    0  0.11846589882E+02  0.35163488045E+02 -0.22512443108E+02  0.43400722091E+02  0.00000000000E+00 0.  1.
         11    1    3    3    0    0 -0.42447632608E+01 -0.12064055674E+02  0.18462014173E+02  0.22458971972E+02  0.51100000000E-03 0. -1.
        -11    1    3    3    0    0 -0.10907358291E+01 -0.81038304862E+01 -0.95144991639E+00  0.82320732748E+01  0.51100000000E-03 0.  1.
         12    1    3    3    0    0 -0.65110907917E+01 -0.14995601885E+02  0.50018788522E+01  0.17096232662E+02  0.00000000000E+00 0. -1.
</event>
<event>
 7    1  0.2430096E-009  0.4778727E+02  0.7816164E-02  0.1312668E+00
        -11   -1    0    0    0    0  0.00000000000E+00  0.00000000000E+00  0.45593999997E+02  0.45594000000E+02  0.51100000000E-03 0. -1.
         11   -1    0    0    0    0 -0.00000000000E+00 -0.00000000000E+00 -0.45593999997E+02  0.45594000000E+02  0.51100000000E-03 0.  1.
    9900012    2    1    2    0    0 -0.34054470398E+02 -0.97033384958E+01  0.25095044649E+02  0.47787274223E+02  0.20000014490E+02 0.  0.
        -12    1    1    2    0    0  0.34054470398E+02  0.97033384958E+01 -0.25095044649E+02  0.43400725777E+02  0.00000000000E+00 0.  1.
         11    1    3    3    0    0 -0.88051416559E+01 -0.17454098957E+01  0.10902593707E+02  0.14122447560E+02  0.51100000000E-03 0. -1.
        -11    1    3    3    0    0 -0.23504864547E+02 -0.12103157035E+01  0.10414201335E+02  0.25737115440E+02  0.51100000000E-03 0.  1.
        -12    1    3    3    0    0 -0.17444641953E+01 -0.67476128966E+01  0.37782496070E+01  0.79277112223E+01  0.00000000000E+00 0.  1.
</event>
<event>
 7    1  0.2430096E-009  0.4778730E+02  0.7816164E-02  0.1312668E+00
        -11   -1    0    0    0    0  0.00000000000E+00  0.00000000000E+00  0.45593999997E+02  0.45594000000E+02  0.51100000000E-03 0.  1.
         11   -1    0    0    0    0 -0.00000000000E+00 -0.00000000000E+00 -0.45593999997E+02  0.45594000000E+02  0.51100000000E-03 0. -1.
    9900012    2    1    2    0    0 -0.23793583029E+01 -0.97867291641E+01 -0.42215869125E+02  0.47787297015E+02  0.20000118408E+02 0.  0.
        -12    1    1    2    0    0  0.23793583029E+01  0.97867291641E+01  0.42215869125E+02  0.43400702985E+02  0.00000000000E+00 0.  1.
         11    1    3    3    0    0 -0.24342513051E+01 -0.32782352035E+01 -0.19770912861E+02  0.20188150016E+02  0.51100000000E-03 0. -1.
        -11    1    3    3    0    0  0.61618441267E+01 -0.73692154406E+01 -0.16120021175E+02  0.18765093716E+02  0.51100000000E-03 0.  1.
        -12    1    3    3    0    0 -0.61069511245E+01  0.86072148009E+00 -0.63249350894E+01  0.88340532819E+01  0.00000000000E+00 0.  1.
</event>
<event>
 7    1  0.2430096E-009  0.4778727E+02  0.7816164E-02  0.1312668E+00
        -11   -1    0    0    0    0  0.00000000000E+00  0.00000000000E+00  0.45593999997E+02  0.45594000000E+02  0.51100000000E-03 0.  1.
         11   -1    0    0    0    0 -0.00000000000E+00 -0.00000000000E+00 -0.45593999997E+02  0.45594000000E+02  0.51100000000E-03 0. -1.
    9900012    2    1    2    0    0  0.21214583589E+01 -0.11412180023E+01 -0.43333822774E+02  0.47787272353E+02  0.20000005965E+02 0.  0.
        -12    1    1    2    0    0 -0.21214583589E+01  0.11412180023E+01  0.43333822774E+02  0.43400727647E+02  0.00000000000E+00 0.  1.
         11    1    3    3    0    0  0.14481293524E+01  0.23109914276E+00  0.47434564404E+00  0.15412623028E+01  0.51100000000E-03 0.  1.
        -11    1    3    3    0    0 -0.15109522719E+01  0.21720935800E+01 -0.41301660003E+02  0.41386327290E+02  0.51100000000E-03 0. -1.
        -12    1    3    3    0    0  0.21842812784E+01 -0.35444107251E+01 -0.25065084145E+01  0.48596827595E+01  0.00000000000E+00 0.  1.
</event>
<event>
 7    1  0.2430096E-009  0.4778727E+02  0.7816164E-02  0.1312668E+00
        -11   -1    0    0    0    0  0.00000000000E+00  0.00000000000E+00  0.45593999997E+02  0.45594000000E+02  0.51100000000E-03 0.  1.
         11   -1    0    0    0    0 -0.00000000000E+00 -0.00000000000E+00 -0.45593999997E+02  0.45594000000E+02  0.51100000000E-03 0. -1.
    9900012    2    1    2    0    0 -0.24719216104E+02  0.85959926640E+00 -0.35662932226E+02  0.47787270851E+02  0.19999999118E+02 0.  0.
        -12    1    1    2    0    0  0.24719216104E+02 -0.85959926640E+00  0.35662932226E+02  0.43400729149E+02  0.00000000000E+00 0.  1.
         11    1    3    3    0    0 -0.18222710368E+02  0.60516692183E+01 -0.13900944571E+02  0.23704981200E+02  0.51100000000E-03 0. -1.
        -11    1    3    3    0    0 -0.34704696651E+00 -0.20389090211E+01 -0.11664110575E+02  0.11846057039E+02  0.51100000000E-03 0.  1.
         12    1    3    3    0    0 -0.61494587697E+01 -0.31531609308E+01 -0.10097877080E+02  0.12236232612E+02  0.00000000000E+00 0. -1.
</event>
<event>
 7    1  0.2430096E-009  0.4778727E+02  0.7816164E-02  0.1312668E+00
        -11   -1    0    0    0    0  0.00000000000E+00  0.00000000000E+00  0.45593999997E+02  0.45594000000E+02  0.51100000000E-03 0. -1.
         11   -1    0    0    0    0 -0.00000000000E+00 -0.00000000000E+00 -0.45593999997E+02  0.45594000000E+02  0.51100000000E-03 0.  1.
    9900012    2    1    2    0    0 -0.33182651652E+01 -0.35181048383E+02  0.25197342314E+02  0.47787272948E+02  0.20000008677E+02 0.  0.
        -12    1    1    2    0    0  0.33182651652E+01  0.35181048383E+02 -0.25197342314E+02  0.43400727052E+02  0.00000000000E+00 0.  1.
         11    1    3    3    0    0  0.25382663102E+01 -0.18883498903E+02  0.16953991311E+02  0.25504257455E+02  0.51100000000E-03 0. -1.
        -11    1    3    3    0    0 -0.25297068246E+01 -0.65623676100E+00 -0.20012747721E+01  0.32916810719E+01  0.51100000000E-03 0.  1.
        -12    1    3    3    0    0 -0.33268246508E+01 -0.15641312718E+02  0.10244625775E+02  0.18991334420E+02  0.00000000000E+00 0.  1.
</event>
<event>
 7    1  0.2430096E-009  0.4778727E+02  0.7816164E-02  0.1312668E+00
        -11   -1    0    0    0    0  0.00000000000E+00  0.00000000000E+00  0.45593999997E+02  0.45594000000E+02  0.51100000000E-03 0. -1.
         11   -1    0    0    0    0 -0.00000000000E+00 -0.00000000000E+00 -0.45593999997E+02  0.45594000000E+02  0.51100000000E-03 0.  1.
    9900012    2    1    2    0    0 -0.42731645279E+01  0.43181674537E+02 -0.84023259797E+00  0.47787274871E+02  0.20000017446E+02 0.  0.
        -12    1    1    2    0    0  0.42731645279E+01 -0.43181674537E+02  0.84023259797E+00  0.43400725129E+02  0.00000000000E+00 0.  1.
         11    1    3    3    0    0 -0.58464509075E+01  0.68123586417E+01 -0.42212177439E+01  0.99200755027E+01  0.51100000000E-03 0. -1.
        -11    1    3    3    0    0 -0.21723208103E+01  0.26923543223E+02  0.53004516608E+01  0.27526186541E+02  0.51100000000E-03 0.  1.
        -12    1    3    3    0    0  0.37456071899E+01  0.94457726722E+01 -0.19194665149E+01  0.10341012827E+02  0.00000000000E+00 0.  1.
</event>
<event>
 7    1  0.2430096E-009  0.4778727E+02  0.7816164E-02  0.1312668E+00
        -11   -1    0    0    0    0  0.00000000000E+00  0.00000000000E+00  0.45593999997E+02  0.45594000000E+02  0.51100000000E-03 0. -1.
         11   -1    0    0    0    0 -0.00000000000E+00 -0.00000000000E+00 -0.45593999997E+02  0.45594000000E+02  0.51100000000E-03 0.  1.
    9900012    2    1    2    0    0 -0.32417578864E+02  0.25945493268E+02 -0.12631530151E+02  0.47787267354E+02  0.19999983172E+02 0.  0.
        -12    1    1    2    0    0  0.32417578864E+02 -0.25945493268E+02  0.12631530151E+02  0.43400732646E+02  0.00000000000E+00 0.  1.
         11    1    3    3    0    0 -0.31933152555E+02  0.24068733039E+02 -0.81792576378E+01  0.40815810637E+02  0.51100000000E-03 0. -1.
        -11    1    3    3    0    0 -0.10922044484E+01 -0.24243692144E+00 -0.46265969200E+01  0.47599459597E+01  0.51100000000E-03 0.  1.
        -12    1    3    3    0    0  0.60777813972E+00  0.21191971504E+01  0.17432440661E+00  0.22115107570E+01  0.00000000000E+00 0.  1.
</event>
<event>
 7    1  0.2430096E-009  0.4778728E+02  0.7816164E-02  0.1312668E+00
        -11   -1    0    0    0    0  0.00000000000E+00  0.00000000000E+00  0.45593999997E+02  0.45594000000E+02  0.51100000000E-03 0.  1.
         11   -1    0    0    0    0 -0.00000000000E+00 -0.00000000000E+00 -0.45593999997E+02  0.45594000000E+02  0.51100000000E-03 0. -1.
    9900012    2    1    2    0    0 -0.35690079922E+02 -0.10225654362E+02 -0.22478360036E+02  0.47787280169E+02  0.20000041602E+02 0.  0.
        -12    1    1    2    0    0  0.35690079922E+02  0.10225654362E+02  0.22478360036E+02  0.43400719831E+02  0.00000000000E+00 0.  1.
         11    1    3    3    0    0 -0.25935687761E+02 -0.31428172956E+00 -0.99905167875E+01  0.27795127245E+02  0.51100000000E-03 0.  1.
        -11    1    3    3    0    0 -0.23547985347E+01 -0.58178087189E+01 -0.21459350569E+01  0.66330243447E+01  0.51100000000E-03 0. -1.
         12    1    3    3    0    0 -0.73995936262E+01 -0.40935639133E+01 -0.10341908192E+02  0.13359128579E+02  0.00000000000E+00 0. -1.
</event>
<event>
 7    1  0.2430096E-009  0.4778728E+02  0.7816164E-02  0.1312668E+00
        -11   -1    0    0    0    0  0.00000000000E+00  0.00000000000E+00  0.45593999997E+02  0.45594000000E+02  0.51100000000E-03 0.  1.
         11   -1    0    0    0    0 -0.00000000000E+00 -0.00000000000E+00 -0.45593999997E+02  0.45594000000E+02  0.51100000000E-03 0. -1.
    9900012    2    1    2    0    0 -0.51884320852E+01 -0.42094206037E+01 -0.42883373988E+02  0.47787276344E+02  0.20000024162E+02 0.  0.
        -12    1    1    2    0    0  0.51884320852E+01  0.42094206037E+01  0.42883373988E+02  0.43400723656E+02  0.00000000000E+00 0.  1.
         11    1    3    3    0    0 -0.38071534997E+01 -0.96666977800E+01 -0.34495738000E+02  0.36026315440E+02  0.51100000000E-03 0. -1.
        -11    1    3    3    0    0 -0.91995116351E+00  0.34734453936E+01 -0.51597285772E+00  0.36300635390E+01  0.51100000000E-03 0.  1.
         12    1    3    3    0    0 -0.46132742200E+00  0.19838317827E+01 -0.78716631299E+01  0.81308973652E+01  0.00000000000E+00 0. -1.
</event>
<event>
 7    1  0.2430096E-009  0.4778728E+02  0.7816164E-02  0.1312668E+00
        -11   -1    0    0    0    0  0.00000000000E+00  0.00000000000E+00  0.45593999997E+02  0.45594000000E+02  0.51100000000E-03 0.  1.
         11   -1    0    0    0    0 -0.00000000000E+00 -0.00000000000E+00 -0.45593999997E+02  0.45594000000E+02  0.51100000000E-03 0. -1.
    9900012    2    1    2    0    0  0.27729053838E+02 -0.21163955362E+02 -0.25822647675E+02  0.47787279196E+02  0.20000037168E+02 0.  0.
        -12    1    1    2    0    0 -0.27729053838E+02  0.21163955362E+02  0.25822647675E+02  0.43400720804E+02  0.00000000000E+00 0.  1.
         11    1    3    3    0    0  0.24684164082E+02 -0.23656808220E+02 -0.18158210574E+02  0.38712700023E+02  0.51100000000E-03 0. -1.
        -11    1    3    3    0    0  0.28470690675E+00  0.59122192129E+00  0.55345041008E-01  0.65853224496E+00  0.51100000000E-03 0.  1.
         12    1    3    3    0    0  0.27601828494E+01  0.19016309365E+01 -0.77197821416E+01  0.84160469280E+01  0.00000000000E+00 0. -1.
</event>
<event>
 7    1  0.2430096E-009  0.4778728E+02  0.7816164E-02  0.1312668E+00
        -11   -1    0    0    0    0  0.00000000000E+00  0.00000000000E+00  0.45593999997E+02  0.45594000000E+02  0.51100000000E-03 0.  1.
         11   -1    0    0    0    0 -0.00000000000E+00 -0.00000000000E+00 -0.45593999997E+02  0.45594000000E+02  0.51100000000E-03 0. -1.
    9900012    2    1    2    0    0 -0.31834281484E+02  0.16465322579E+02 -0.24476406989E+02  0.47787276224E+02  0.20000023616E+02 0.  0.
        -12    1    1    2    0    0  0.31834281484E+02 -0.16465322579E+02  0.24476406989E+02  0.43400723776E+02  0.00000000000E+00 0.  1.
         11    1    3    3    0    0 -0.97359021773E+01  0.94096816020E+01 -0.98067714387E+01  0.16718333211E+02  0.51100000000E-03 0. -1.
        -11    1    3    3    0    0 -0.12335347636E+02 -0.26896464675E+01 -0.29429868190E+01  0.12963648063E+02  0.51100000000E-03 0.  1.
        -12    1    3    3    0    0 -0.97630316703E+01  0.97452874441E+01 -0.11726648731E+02  0.18105294950E+02  0.00000000000E+00 0.  1.
</event>
<event>
 7    1  0.2430096E-009  0.4778727E+02  0.7816164E-02  0.1312668E+00
        -11   -1    0    0    0    0  0.00000000000E+00  0.00000000000E+00  0.45593999997E+02  0.45594000000E+02  0.51100000000E-03 0. -1.
         11   -1    0    0    0    0 -0.00000000000E+00 -0.00000000000E+00 -0.45593999997E+02  0.45594000000E+02  0.51100000000E-03 0.  1.
    9900012    2    1    2    0    0  0.87638425037E+01 -0.38695976449E+01  0.42330182923E+02  0.47787272960E+02  0.20000008733E+02 0.  0.
        -12    1    1    2    0    0 -0.87638425037E+01  0.38695976449E+01 -0.42330182923E+02  0.43400727040E+02  0.00000000000E+00 0.  1.
         11    1    3    3    0    0 -0.30170655175E+01 -0.49167215791E+01  0.22372211496E+02  0.23103953837E+02  0.51100000000E-03 0. -1.
        -11    1    3    3    0    0  0.56740403931E+01 -0.36779062149E+01  0.83991179761E+01  0.10782713552E+02  0.51100000000E-03 0.  1.
         12    1    3    3    0    0  0.61068676281E+01  0.47250301492E+01  0.11558853450E+02  0.13900605570E+02  0.00000000000E+00 0. -1.
</event>
<event>
 7    1  0.2430096E-009  0.4778729E+02  0.7816164E-02  0.1312668E+00
        -11   -1    0    0    0    0  0.00000000000E+00  0.00000000000E+00  0.45593999997E+02  0.45594000000E+02  0.51100000000E-03 0.  1.
         11   -1    0    0    0    0 -0.00000000000E+00 -0.00000000000E+00 -0.45593999997E+02  0.45594000000E+02  0.51100000000E-03 0. -1.
    9900012    2    1    2    0    0 -0.37957092869E+02  0.18130524715E+02 -0.10684810328E+02  0.47787285752E+02  0.20000067059E+02 0.  0.
        -12    1    1    2    0    0  0.37957092869E+02 -0.18130524715E+02  0.10684810328E+02  0.43400714248E+02  0.00000000000E+00 0.  1.
         11    1    3    3    0    0 -0.12339876949E+02  0.10347303686E+02 -0.48557851297E+01  0.16820163679E+02  0.51100000000E-03 0. -1.
        -11    1    3    3    0    0 -0.21394655776E+02  0.93705400690E+00 -0.76128549648E+01  0.22728064743E+02  0.51100000000E-03 0.  1.
        -12    1    3    3    0    0 -0.42225601434E+01  0.68461670218E+01  0.17838297668E+01  0.82390573303E+01  0.00000000000E+00 0.  1.
</event>
<event>
 7    1  0.2430096E-009  0.4778727E+02  0.7816164E-02  0.1312668E+00
        -11   -1    0    0    0    0  0.00000000000E+00  0.00000000000E+00  0.45593999997E+02  0.45594000000E+02  0.51100000000E-03 0.  1.
         11   -1    0    0    0    0 -0.00000000000E+00 -0.00000000000E+00 -0.45593999997E+02  0.45594000000E+02  0.51100000000E-03 0. -1.
    9900012    2    1    2    0    0  0.97721248767E+01 -0.27612365512E+02 -0.32026339915E+02  0.47787267263E+02  0.19999982757E+02 0.  0.
        -12    1    1    2    0    0 -0.97721248767E+01  0.27612365512E+02  0.32026339915E+02  0.43400732737E+02  0.00000000000E+00 0.  1.
         11    1    3    3    0    0  0.23191569273E+01  0.10515015044E+01 -0.10194677529E+02  0.10507882491E+02  0.51100000000E-03 0. -1.
        -11    1    3    3    0    0  0.10822575996E+01 -0.15376689620E+02 -0.12408507247E+02  0.19788504681E+02  0.51100000000E-03 0.  1.
        -12    1    3    3    0    0  0.63707103498E+01 -0.13287177397E+02 -0.94231551397E+01  0.17490880090E+02  0.00000000000E+00 0.  1.
</event>
<event>
 7    1  0.2430096E-009  0.4778727E+02  0.7816164E-02  0.1312668E+00
        -11   -1    0    0    0    0  0.00000000000E+00  0.00000000000E+00  0.45593999997E+02  0.45594000000E+02  0.51100000000E-03 0. -1.
         11   -1    0    0    0    0 -0.00000000000E+00 -0.00000000000E+00 -0.45593999997E+02  0.45594000000E+02  0.51100000000E-03 0.  1.
    9900012    2    1    2    0    0  0.29949079710E+02  0.33766254151E+01  0.31229382416E+02  0.47787270734E+02  0.19999998586E+02 0.  0.
        -12    1    1    2    0    0 -0.29949079710E+02 -0.33766254151E+01 -0.31229382416E+02  0.43400729266E+02  0.00000000000E+00 0.  1.
         11    1    3    3    0    0  0.23131435669E+02 -0.42421969692E+01  0.15680829389E+02  0.28265667546E+02  0.51100000000E-03 0. -1.
        -11    1    3    3    0    0  0.16359107020E+01  0.52730232121E+01  0.10729630724E+02  0.12066729191E+02  0.51100000000E-03 0.  1.
         12    1    3    3    0    0  0.51817333391E+01  0.23457991722E+01  0.48189223033E+01  0.74548739975E+01  0.00000000000E+00 0. -1.
</event>
<event>
 7    1  0.2430096E-009  0.4778727E+02  0.7816164E-02  0.1312668E+00
        -11   -1    0    0    0    0  0.00000000000E+00  0.00000000000E+00  0.45593999997E+02  0.45594000000E+02  0.51100000000E-03 0.  1.
         11   -1    0    0    0    0 -0.00000000000E+00 -0.00000000000E+00 -0.45593999997E+02  0.45594000000E+02  0.51100000000E-03 0. -1.
    9900012    2    1    2    0    0 -0.25346269874E+02 -0.19606420015E+02 -0.29270771967E+02  0.47787271966E+02  0.20000004203E+02 0.  0.
        -12    1    1    2    0    0  0.25346269874E+02  0.19606420015E+02  0.29270771967E+02  0.43400728034E+02  0.00000000000E+00 0.  1.
         11    1    3    3    0    0  0.31885334339E+00 -0.88615545071E+00 -0.32145937071E+01  0.33497092262E+01  0.51100000000E-03 0. -1.
        -11    1    3    3    0    0 -0.13070016171E+02  0.41006368108E+00 -0.88333362381E+01  0.15780408876E+02  0.51100000000E-03 0.  1.
        -12    1    3    3    0    0 -0.12595107046E+02 -0.19130328245E+02 -0.17222842022E+02  0.28657153864E+02  0.00000000000E+00 0.  1.
</event>
<event>
 7    1  0.2430096E-009  0.4778729E+02  0.7816164E-02  0.1312668E+00
        -11   -1    0    0    0    0  0.00000000000E+00  0.00000000000E+00  0.45593999997E+02  0.45594000000E+02  0.51100000000E-03 0.  1.
         11   -1    0    0    0    0 -0.00000000000E+00 -0.00000000000E+00 -0.45593999997E+02  0.45594000000E+02  0.51100000000E-03 0. -1.
    9900012    2    1    2    0    0  0.43172077648E+02  0.32194601170E+01  0.30705250874E+01  0.47787293368E+02  0.20000101781E+02 0.  0.
        -12    1    1    2    0    0 -0.43172077648E+02 -0.32194601170E+01 -0.30705250874E+01  0.43400706632E+02  0.00000000000E+00 0.  1.
         11    1    3    3    0    0  0.61817902246E+01  0.37640686877E+01  0.20170129947E+01  0.75133937171E+01  0.51100000000E-03 0. -1.
        -11    1    3    3    0    0  0.15510889560E+02 -0.48805685381E+00  0.83078904899E+01  0.17602469687E+02  0.51100000000E-03 0.  1.
        -12    1    3    3    0    0  0.21479397863E+02 -0.56551716842E-01 -0.72543783972E+01  0.22671429963E+02  0.00000000000E+00 0.  1.
</event>
<event>
 7    1  0.2430096E-009  0.4778727E+02  0.7816164E-02  0.1312668E+00
        -11   -1    0    0    0    0  0.00000000000E+00  0.00000000000E+00  0.45593999997E+02  0.45594000000E+02  0.51100000000E-03 0.  1.
         11   -1    0    0    0    0 -0.00000000000E+00 -0.00000000000E+00 -0.45593999997E+02  0.45594000000E+02  0.51100000000E-03 0. -1.
    9900012    2    1    2    0    0 -0.35518227648E+02  0.89809451393E+01 -0.23268460791E+02  0.47787272605E+02  0.20000007116E+02 0.  0.
        -12    1    1    2    0    0  0.35518227648E+02 -0.89809451393E+01  0.23268460791E+02  0.43400727395E+02  0.00000000000E+00 0.  1.
         11    1    3    3    0    0 -0.12118002387E+02  0.58738644981E+01 -0.87332494214E+01  0.16050480109E+02  0.51100000000E-03 0. -1.
        -11    1    3    3    0    0 -0.67048847148E+01  0.16374118851E+01 -0.13234980269E+02  0.14926530062E+02  0.51100000000E-03 0.  1.
        -12    1    3    3    0    0 -0.16695340546E+02  0.14696687561E+01 -0.13002311002E+01  0.16810262434E+02  0.00000000000E+00 0.  1.
</event>
<event>
 7    1  0.2430096E-009  0.4778727E+02  0.7816164E-02  0.1312668E+00
        -11   -1    0    0    0    0  0.00000000000E+00  0.00000000000E+00  0.45593999997E+02  0.45594000000E+02  0.51100000000E-03 0. -1.
         11   -1    0    0    0    0 -0.00000000000E+00 -0.00000000000E+00 -0.45593999997E+02  0.45594000000E+02  0.51100000000E-03 0.  1.
    9900012    2    1    2    0    0  0.12350467172E+01  0.43379188321E+02  0.58630642661E+00  0.47787273336E+02  0.20000010446E+02 0.  0.
        -12    1    1    2    0    0 -0.12350467172E+01 -0.43379188321E+02 -0.58630642661E+00  0.43400726664E+02  0.00000000000E+00 0.  1.
         11    1    3    3    0    0  0.34053635820E+01  0.15540009232E+02  0.35011822919E+01  0.16289464870E+02  0.51100000000E-03 0. -1.
        -11    1    3    3    0    0 -0.58016567599E+01  0.11048625165E+02 -0.63145708526E+01  0.13985890909E+02  0.51100000000E-03 0.  1.
        -12    1    3    3    0    0  0.36313398951E+01  0.16790553924E+02  0.33996949874E+01  0.17511917557E+02  0.00000000000E+00 0.  1.
</event>
<event>
 7    1  0.2430096E-009  0.4778728E+02  0.7816164E-02  0.1312668E+00
        -11   -1    0    0    0    0  0.00000000000E+00  0.00000000000E+00  0.45593999997E+02  0.45594000000E+02  0.51100000000E-03 0.  1.
         11   -1    0    0    0    0 -0.00000000000E+00 -0.00000000000E+00 -0.45593999997E+02  0.45594000000E+02  0.51100000000E-03 0. -1.
    9900012    2    1    2    0    0  0.36129097017E+02  0.69948441221E+01 -0.23008322879E+02  0.47787280913E+02  0.20000044997E+02 0.  0.
        -12    1    1    2    0    0 -0.36129097017E+02 -0.69948441221E+01  0.23008322879E+02  0.43400719087E+02  0.00000000000E+00 0.  1.
         11    1    3    3    0    0  0.23954881308E+02  0.46942274771E+00 -0.11483253542E+02  0.26569189080E+02  0.51100000000E-03 0. -1.
        -11    1    3    3    0    0  0.80878384696E+01  0.94462416092E+01 -0.10032888516E+02  0.15978218420E+02  0.51100000000E-03 0.  1.
        -12    1    3    3    0    0  0.40863772395E+01 -0.29208202348E+01 -0.14921808202E+01  0.52398734134E+01  0.00000000000E+00 0.  1.
</event>
<event>
 7    1  0.2430096E-009  0.4778727E+02  0.7816164E-02  0.1312668E+00
        -11   -1    0    0    0    0  0.00000000000E+00  0.00000000000E+00  0.45593999997E+02  0.45594000000E+02  0.51100000000E-03 0. -1.
         11   -1    0    0    0    0 -0.00000000000E+00 -0.00000000000E+00 -0.45593999997E+02  0.45594000000E+02  0.51100000000E-03 0.  1.
    9900012    2    1    2    0    0 -0.24558156595E+02 -0.28850448118E+02  0.21170069091E+02  0.47787271466E+02  0.20000001921E+02 0.  0.
        -12    1    1    2    0    0  0.24558156595E+02  0.28850448118E+02 -0.21170069091E+02  0.43400728534E+02  0.00000000000E+00 0.  1.
         11    1    3    3    0    0 -0.15845645826E+02 -0.11298809556E+02  0.11097185103E+02  0.22403015567E+02  0.51100000000E-03 0. -1.
        -11    1    3    3    0    0  0.21520371645E+01 -0.20451169424E+00  0.30622631234E+01  0.37484056195E+01  0.51100000000E-03 0.  1.
        -12    1    3    3    0    0 -0.10864547933E+02 -0.17347126868E+02  0.70106208644E+01  0.21635850279E+02  0.00000000000E+00 0.  1.
</event>
<event>
 7    1  0.2430096E-009  0.4778727E+02  0.7816164E-02  0.1312668E+00
        -11   -1    0    0    0    0  0.00000000000E+00  0.00000000000E+00  0.45593999997E+02  0.45594000000E+02  0.51100000000E-03 0.  1.
         11   -1    0    0    0    0 -0.00000000000E+00 -0.00000000000E+00 -0.45593999997E+02  0.45594000000E+02  0.51100000000E-03 0. -1.
    9900012    2    1    2    0    0 -0.26760190936E+02  0.92839147041E+01 -0.32883501012E+02  0.47787268094E+02  0.19999986547E+02 0.  0.
        -12    1    1    2    0    0  0.26760190936E+02 -0.92839147041E+01  0.32883501012E+02  0.43400731906E+02  0.00000000000E+00 0.  1.
         11    1    3    3    0    0 -0.20776566113E+02  0.46823705642E+01 -0.26147091519E+02  0.33723295935E+02  0.51100000000E-03 0. -1.
        -11    1    3    3    0    0 -0.34684157494E+01  0.75780646100E+01 -0.36751368892E+01  0.91084357856E+01  0.51100000000E-03 0.  1.
        -12    1    3    3    0    0 -0.25152090736E+01 -0.29765204701E+01 -0.30612726038E+01  0.49555363733E+01  0.00000000000E+00 0.  1.
</event>
<event>
 7    1  0.2430096E-009  0.4778726E+02  0.7816164E-02  0.1312668E+00
        -11   -1    0    0    0    0  0.00000000000E+00  0.00000000000E+00  0.45593999997E+02  0.45594000000E+02  0.51100000000E-03 0.  1.
         11   -1    0    0    0    0 -0.00000000000E+00 -0.00000000000E+00 -0.45593999997E+02  0.45594000000E+02  0.51100000000E-03 0. -1.
    9900012    2    1    2    0    0  0.31873754165E+02 -0.23320121243E+02 -0.17996106049E+02  0.47787261615E+02  0.19999957008E+02 0.  0.
        -12    1    1    2    0    0 -0.31873754165E+02  0.23320121243E+02  0.17996106049E+02  0.43400738385E+02  0.00000000000E+00 0.  1.
         11    1    3    3    0    0  0.17319573296E+02 -0.12743759406E+02 -0.11262456958E+02  0.24273729832E+02  0.51100000000E-03 0. -1.
        -11    1    3    3    0    0  0.10591958770E+02 -0.48594100746E+00  0.27160992551E+00  0.10606578216E+02  0.51100000000E-03 0.  1.
        -12    1    3    3    0    0  0.39622220992E+01 -0.10090420830E+02 -0.70052590173E+01  0.12906953567E+02  0.00000000000E+00 0.  1.
</event>
<event>
 7    1  0.2430096E-009  0.4778727E+02  0.7816164E-02  0.1312668E+00
        -11   -1    0    0    0    0  0.00000000000E+00  0.00000000000E+00  0.45593999997E+02  0.45594000000E+02  0.51100000000E-03 0. -1.
         11   -1    0    0    0    0 -0.00000000000E+00 -0.00000000000E+00 -0.45593999997E+02  0.45594000000E+02  0.51100000000E-03 0.  1.
    9900012    2    1    2    0    0 -0.25288617334E+02 -0.19854998047E+02  0.29152839527E+02  0.47787272280E+02  0.20000005635E+02 0.  0.
        -12    1    1    2    0    0  0.25288617334E+02  0.19854998047E+02 -0.29152839527E+02  0.43400727720E+02  0.00000000000E+00 0.  1.
         11    1    3    3    0    0 -0.97423568790E+01 -0.19775251505E+01  0.10768921181E+02  0.14655844805E+02  0.51100000000E-03 0. -1.
        -11    1    3    3    0    0 -0.31941278803E+01 -0.26295924005E+01 -0.22055961451E+01  0.46884820277E+01  0.51100000000E-03 0.  1.
        -12    1    3    3    0    0 -0.12352132575E+02 -0.15247880496E+02  0.20589514491E+02  0.28442945448E+02  0.00000000000E+00 0.  1.
</event>
<event>
 7    1  0.2430096E-009  0.4778727E+02  0.7816164E-02  0.1312668E+00
        -11   -1    0    0    0    0  0.00000000000E+00  0.00000000000E+00  0.45593999997E+02  0.45594000000E+02  0.51100000000E-03 0. -1.
         11   -1    0    0    0    0 -0.00000000000E+00 -0.00000000000E+00 -0.45593999997E+02  0.45594000000E+02  0.51100000000E-03 0.  1.
    9900012    2    1    2    0    0 -0.58921551009E+01  0.15205286282E+02  0.40220704216E+02  0.47787271086E+02  0.20000000190E+02 0.  0.
        -12    1    1    2    0    0  0.58921551009E+01 -0.15205286282E+02 -0.40220704216E+02  0.43400728914E+02  0.00000000000E+00 0.  1.
         11    1    3    3    0    0 -0.46689422213E+01  0.11378635461E+02  0.79292543681E+01  0.14633709083E+02  0.51100000000E-03 0. -1.
        -11    1    3    3    0    0  0.10890847367E+01 -0.14112725965E+01  0.72656722838E+01  0.74811623363E+01  0.51100000000E-03 0.  1.
         12    1    3    3    0    0 -0.23122976163E+01  0.52379234173E+01  0.25025777564E+02  0.25672399667E+02  0.00000000000E+00 0. -1.
</event>
<event>
 7    1  0.2430096E-009  0.4778727E+02  0.7816164E-02  0.1312668E+00
        -11   -1    0    0    0    0  0.00000000000E+00  0.00000000000E+00  0.45593999997E+02  0.45594000000E+02  0.51100000000E-03 0.  1.
         11   -1    0    0    0    0 -0.00000000000E+00 -0.00000000000E+00 -0.45593999997E+02  0.45594000000E+02  0.51100000000E-03 0. -1.
    9900012    2    1    2    0    0  0.61595276586E+01 -0.36213869467E+02 -0.23113616705E+02  0.47787269592E+02  0.19999993378E+02 0.  0.
        -12    1    1    2    0    0 -0.61595276586E+01  0.36213869467E+02  0.23113616705E+02  0.43400730408E+02  0.00000000000E+00 0.  1.
         11    1    3    3    0    0  0.46507988851E+01 -0.26215343436E+02 -0.10191171111E+02  0.28508492255E+02  0.51100000000E-03 0. -1.
        -11    1    3    3    0    0  0.15376908561E+01 -0.13184087380E+01 -0.98728557627E+01  0.10078490757E+02  0.51100000000E-03 0.  1.
        -12    1    3    3    0    0 -0.28962082620E-01 -0.86801172926E+01 -0.30495898316E+01  0.92002865802E+01  0.00000000000E+00 0.  1.
</event>
<event>
 7    1  0.2430096E-009  0.4778727E+02  0.7816164E-02  0.1312668E+00
        -11   -1    0    0    0    0  0.00000000000E+00  0.00000000000E+00  0.45593999997E+02  0.45594000000E+02  0.51100000000E-03 0.  1.
         11   -1    0    0    0    0 -0.00000000000E+00 -0.00000000000E+00 -0.45593999997E+02  0.45594000000E+02  0.51100000000E-03 0. -1.
    9900012    2    1    2    0    0 -0.97139488022E+01  0.42248066287E+02 -0.20889209803E+01  0.47787268471E+02  0.19999988268E+02 0.  0.
        -12    1    1    2    0    0  0.97139488022E+01 -0.42248066287E+02  0.20889209803E+01  0.43400731529E+02  0.00000000000E+00 0.  1.
         11    1    3    3    0    0 -0.67673999142E+01  0.16623114340E+02  0.71874375062E+01  0.19333517273E+02  0.51100000000E-03 0. -1.
        -11    1    3    3    0    0 -0.14810449168E+00  0.15180827829E+01  0.12774060294E+01  0.19895418320E+01  0.51100000000E-03 0.  1.
         12    1    3    3    0    0 -0.27984443963E+01  0.24106869164E+02 -0.10553764516E+02  0.26464209367E+02  0.00000000000E+00 0. -1.
</event>
<event>
 7    1  0.2430096E-009  0.4778727E+02  0.7816164E-02  0.1312668E+00
        -11   -1    0    0    0    0  0.00000000000E+00  0.00000000000E+00  0.45593999997E+02  0.45594000000E+02  0.51100000000E-03 0. -1.
         11   -1    0    0    0    0 -0.00000000000E+00 -0.00000000000E+00 -0.45593999997E+02  0.45594000000E+02  0.51100000000E-03 0.  1.
    9900012    2    1    2    0    0  0.12691981109E+02 -0.14090742594E+02  0.39038287568E+02  0.47787270656E+02  0.19999998229E+02 0.  0.
        -12    1    1    2    0    0 -0.12691981109E+02  0.14090742594E+02 -0.39038287568E+02  0.43400729344E+02  0.00000000000E+00 0.  1.
         11    1    3    3    0    0  0.21251156343E+01 -0.89436297828E+01  0.67698476559E+01  0.11416456004E+02  0.51100000000E-03 0. -1.
        -11    1    3    3    0    0  0.49037739909E+01 -0.28835996088E+01  0.28796616100E+02  0.29353147108E+02  0.51100000000E-03 0.  1.
         12    1    3    3    0    0  0.56630914839E+01 -0.22635132025E+01  0.34718238122E+01  0.70176675438E+01  0.00000000000E+00 0. -1.
</event>
<event>
 7    1  0.2430096E-009  0.4778727E+02  0.7816164E-02  0.1312668E+00
        -11   -1    0    0    0    0  0.00000000000E+00  0.00000000000E+00  0.45593999997E+02  0.45594000000E+02  0.51100000000E-03 0.  1.
         11   -1    0    0    0    0 -0.00000000000E+00 -0.00000000000E+00 -0.45593999997E+02  0.45594000000E+02  0.51100000000E-03 0. -1.
    9900012    2    1    2    0    0  0.32209994983E+01 -0.37584802286E+02 -0.21462312265E+02  0.47787273642E+02  0.20000011844E+02 0.  0.
        -12    1    1    2    0    0 -0.32209994983E+01  0.37584802286E+02  0.21462312265E+02  0.43400726358E+02  0.00000000000E+00 0.  1.
         11    1    3    3    0    0  0.79323384159E+01 -0.28949815341E+02 -0.14411677333E+02  0.33297300864E+02  0.51100000000E-03 0. -1.
        -11    1    3    3    0    0 -0.36714492278E+01 -0.86890905056E+01 -0.85051931272E+01  0.12701107969E+02  0.51100000000E-03 0.  1.
         12    1    3    3    0    0 -0.10398896897E+01  0.54103560966E-01  0.14545581950E+01  0.17888648090E+01  0.00000000000E+00 0. -1.
</event>
<event>
 7    1  0.2430096E-009  0.4778727E+02  0.7816164E-02  0.1312668E+00
        -11   -1    0    0    0    0  0.00000000000E+00  0.00000000000E+00  0.45593999997E+02  0.45594000000E+02  0.51100000000E-03 0.  1.
         11   -1    0    0    0    0 -0.00000000000E+00 -0.00000000000E+00 -0.45593999997E+02  0.45594000000E+02  0.51100000000E-03 0. -1.
    9900012    2    1    2    0    0 -0.39235071839E+02  0.17465846638E+02  0.62591118993E+01  0.47787272555E+02  0.20000006886E+02 0.  0.
        -12    1    1    2    0    0  0.39235071839E+02 -0.17465846638E+02 -0.62591118993E+01  0.43400727445E+02  0.00000000000E+00 0.  1.
         11    1    3    3    0    0 -0.21670722475E+02  0.14693333707E+02  0.60712436468E+01  0.26877021184E+02  0.51100000000E-03 0. -1.
        -11    1    3    3    0    0 -0.37173109453E+01 -0.27575831724E+01  0.32923817643E+01  0.56800038345E+01  0.51100000000E-03 0.  1.
         12    1    3    3    0    0 -0.13847038419E+02  0.55300961029E+01 -0.31045135118E+01  0.15230247537E+02  0.00000000000E+00 0. -1.
</event>
<event>
 7    1  0.2430096E-009  0.4778727E+02  0.7816164E-02  0.1312668E+00
        -11   -1    0    0    0    0  0.00000000000E+00  0.00000000000E+00  0.45593999997E+02  0.45594000000E+02  0.51100000000E-03 0.  1.
         11   -1    0    0    0    0 -0.00000000000E+00 -0.00000000000E+00 -0.45593999997E+02  0.45594000000E+02  0.51100000000E-03 0. -1.
    9900012    2    1    2    0    0 -0.10643072862E+02  0.41317837792E+02  0.79488713084E+01  0.47787271034E+02  0.19999999952E+02 0.  0.
        -12    1    1    2    0    0  0.10643072862E+02 -0.41317837792E+02 -0.79488713084E+01  0.43400728966E+02  0.00000000000E+00 0.  1.
         11    1    3    3    0    0 -0.61299270352E+01  0.62538566042E+01 -0.23556434984E+01  0.90683948103E+01  0.51100000000E-03 0. -1.
        -11    1    3    3    0    0 -0.14960200314E+00  0.31964002818E+02  0.90591083783E+01  0.33223294566E+02  0.51100000000E-03 0.  1.
        -12    1    3    3    0    0 -0.43635438233E+01  0.30999783690E+01  0.12454064285E+01  0.54955816578E+01  0.00000000000E+00 0.  1.
</event>
<event>
 7    1  0.2430096E-009  0.4778727E+02  0.7816164E-02  0.1312668E+00
        -11   -1    0    0    0    0  0.00000000000E+00  0.00000000000E+00  0.45593999997E+02  0.45594000000E+02  0.51100000000E-03 0.  1.
         11   -1    0    0    0    0 -0.00000000000E+00 -0.00000000000E+00 -0.45593999997E+02  0.45594000000E+02  0.51100000000E-03 0. -1.
    9900012    2    1    2    0    0 -0.18022109641E+02  0.11397851917E+02 -0.37801004357E+02  0.47787269653E+02  0.19999993657E+02 0.  0.
        -12    1    1    2    0    0  0.18022109641E+02 -0.11397851917E+02  0.37801004357E+02  0.43400730347E+02  0.00000000000E+00 0.  1.
         11    1    3    3    0    0 -0.33021141318E+01  0.43908769486E-01 -0.11651742405E+02  0.12110697216E+02  0.51100000000E-03 0. -1.
        -11    1    3    3    0    0 -0.15645918937E+02  0.49432475846E+01 -0.23538351363E+02  0.28692933994E+02  0.51100000000E-03 0.  1.
        -12    1    3    3    0    0  0.92592342792E+00  0.64106955630E+01 -0.26109105893E+01  0.69836384429E+01  0.00000000000E+00 0.  1.
</event>
<event>
 7    1  0.2430096E-009  0.4778727E+02  0.7816164E-02  0.1312668E+00
        -11   -1    0    0    0    0  0.00000000000E+00  0.00000000000E+00  0.45593999997E+02  0.45594000000E+02  0.51100000000E-03 0. -1.
         11   -1    0    0    0    0 -0.00000000000E+00 -0.00000000000E+00 -0.45593999997E+02  0.45594000000E+02  0.51100000000E-03 0.  1.
    9900012    2    1    2    0    0 -0.11386637111E+02 -0.21343759523E+02  0.36033480060E+02  0.47787271198E+02  0.20000000700E+02 0.  0.
        -12    1    1    2    0    0  0.11386637111E+02  0.21343759523E+02 -0.36033480060E+02  0.43400728802E+02  0.00000000000E+00 0.  1.
         11    1    3    3    0    0 -0.11315749131E+01 -0.13639301469E+02  0.26298520864E+02  0.29646639038E+02  0.51100000000E-03 0. -1.
        -11    1    3    3    0    0 -0.10509461752E+02 -0.83296620521E+01  0.66233058893E+01  0.14956611828E+02  0.51100000000E-03 0.  1.
        -12    1    3    3    0    0  0.25439955409E+00  0.62520399726E+00  0.31116533070E+01  0.31840203319E+01  0.00000000000E+00 0.  1.
</event>
<event>
 7    1  0.2430096E-009  0.4778727E+02  0.7816164E-02  0.1312668E+00
        -11   -1    0    0    0    0  0.00000000000E+00  0.00000000000E+00  0.45593999997E+02  0.45594000000E+02  0.51100000000E-03 0.  1.
         11   -1    0    0    0    0 -0.00000000000E+00 -0.00000000000E+00 -0.45593999997E+02  0.45594000000E+02  0.51100000000E-03 0. -1.
    9900012    2    1    2    0    0  0.13954432713E+02 -0.40641796415E+02  0.60943972275E+01  0.47787268603E+02  0.19999988870E+02 0.  0.
        -12    1    1    2    0    0 -0.13954432713E+02  0.40641796415E+02 -0.60943972275E+01  0.43400731397E+02  0.00000000000E+00 0.  1.
         11    1    3    3    0    0  0.70896310635E+01 -0.10865505291E+02  0.11415141767E+00  0.12974401900E+02  0.51100000000E-03 0.  1.
        -11    1    3    3    0    0  0.31690760978E+01 -0.18848637632E+02 -0.40369868295E+01  0.19534877702E+02  0.51100000000E-03 0. -1.
        -12    1    3    3    0    0  0.36957255521E+01 -0.10927653492E+02  0.10017232639E+02  0.15277989002E+02  0.00000000000E+00 0.  1.
</event>
<event>
 7    1  0.2430096E-009  0.4778726E+02  0.7816164E-02  0.1312668E+00
        -11   -1    0    0    0    0  0.00000000000E+00  0.00000000000E+00  0.45593999997E+02  0.45594000000E+02  0.51100000000E-03 0. -1.
         11   -1    0    0    0    0 -0.00000000000E+00 -0.00000000000E+00 -0.45593999997E+02  0.45594000000E+02  0.51100000000E-03 0.  1.
    9900012    2    1    2    0    0 -0.42084429839E+02 -0.10418149086E+02  0.19968195734E+01  0.47787258605E+02  0.19999943283E+02 0.  0.
        -12    1    1    2    0    0  0.42084429839E+02  0.10418149086E+02 -0.19968195734E+01  0.43400741395E+02  0.00000000000E+00 0.  1.
         11    1    3    3    0    0 -0.82668428311E+01 -0.33437815177E+01  0.58456068614E+01  0.10662677200E+02  0.51100000000E-03 0. -1.
        -11    1    3    3    0    0 -0.22775905650E+02 -0.27314499152E+01 -0.83826799461E+01  0.24422776668E+02  0.51100000000E-03 0.  1.
        -12    1    3    3    0    0 -0.11041681357E+02 -0.43429176530E+01  0.45338926582E+01  0.12701804737E+02  0.00000000000E+00 0.  1.
</event>
<event>
 7    1  0.2453036E-009  0.4778727E+02  0.7816164E-02  0.1312668E+00
        -11   -1    0    0    0    0  0.00000000000E+00  0.00000000000E+00  0.45593999997E+02  0.45594000000E+02  0.51100000000E-03 0.  1.
         11   -1    0    0    0    0 -0.00000000000E+00 -0.00000000000E+00 -0.45593999997E+02  0.45594000000E+02  0.51100000000E-03 0. -1.
    9900012    2    1    2    0    0  0.21356963985E+02 -0.28521830830E+02 -0.24779201379E+02  0.47787267684E+02  0.19999984680E+02 0.  0.
        -12    1    1    2    0    0 -0.21356963985E+02  0.28521830830E+02  0.24779201379E+02  0.43400732316E+02  0.00000000000E+00 0.  1.
         11    1    3    3    0    0  0.11934468274E+02 -0.16143474046E+02 -0.11753731692E+02  0.23263565853E+02  0.51100000000E-03 0. -1.
        -11    1    3    3    0    0 -0.24454052325E+01 -0.40279312378E+01  0.43315668223E+00  0.47320039920E+01  0.51100000000E-03 0.  1.
        -12    1    3    3    0    0  0.11867900943E+02 -0.83504255460E+01 -0.13458626369E+02  0.19791697839E+02  0.00000000000E+00 0.  1.
</event>
<event>
 7    1  0.2430096E-009  0.4778727E+02  0.7816164E-02  0.1312668E+00
        -11   -1    0    0    0    0  0.00000000000E+00  0.00000000000E+00  0.45593999997E+02  0.45594000000E+02  0.51100000000E-03 0.  1.
         11   -1    0    0    0    0 -0.00000000000E+00 -0.00000000000E+00 -0.45593999997E+02  0.45594000000E+02  0.51100000000E-03 0. -1.
    9900012    2    1    2    0    0  0.12623758830E+02 -0.13407403120E+02 -0.39300195114E+02  0.47787273262E+02  0.20000010111E+02 0.  0.
        -12    1    1    2    0    0 -0.12623758830E+02  0.13407403120E+02  0.39300195114E+02  0.43400726738E+02  0.00000000000E+00 0.  1.
         11    1    3    3    0    0  0.28296118734E+00  0.25306957811E+01 -0.11948758826E+02  0.12217091549E+02  0.51100000000E-03 0. -1.
        -11    1    3    3    0    0  0.15765589790E+01  0.14052950121E+01 -0.13220714303E+01  0.24916391017E+01  0.51100000000E-03 0.  1.
         12    1    3    3    0    0  0.10764238664E+02 -0.17343393913E+02 -0.26029364858E+02  0.33078542612E+02  0.00000000000E+00 0. -1.
</event>
<event>
 7    1  0.2430096E-009  0.4778727E+02  0.7816164E-02  0.1312668E+00
        -11   -1    0    0    0    0  0.00000000000E+00  0.00000000000E+00  0.45593999997E+02  0.45594000000E+02  0.51100000000E-03 0.  1.
         11   -1    0    0    0    0 -0.00000000000E+00 -0.00000000000E+00 -0.45593999997E+02  0.45594000000E+02  0.51100000000E-03 0. -1.
    9900012    2    1    2    0    0  0.18582773140E+02 -0.17688529043E+02 -0.35005991898E+02  0.47787274360E+02  0.20000015118E+02 0.  0.
        -12    1    1    2    0    0 -0.18582773140E+02  0.17688529043E+02  0.35005991898E+02  0.43400725640E+02  0.00000000000E+00 0.  1.
         11    1    3    3    0    0  0.18448799405E+02 -0.10211956875E+02 -0.21288254241E+02  0.29963845407E+02  0.51100000000E-03 0. -1.
        -11    1    3    3    0    0  0.39273142841E+01 -0.56509527204E+01 -0.10366000861E+02  0.12442308397E+02  0.51100000000E-03 0.  1.
        -12    1    3    3    0    0 -0.37933405487E+01 -0.18256194469E+01 -0.33517367966E+01  0.53811205559E+01  0.00000000000E+00 0.  1.
</event>
<event>
 7    1  0.2430096E-009  0.4778727E+02  0.7816164E-02  0.1312668E+00
        -11   -1    0    0    0    0  0.00000000000E+00  0.00000000000E+00  0.45593999997E+02  0.45594000000E+02  0.51100000000E-03 0.  1.
         11   -1    0    0    0    0 -0.00000000000E+00 -0.00000000000E+00 -0.45593999997E+02  0.45594000000E+02  0.51100000000E-03 0. -1.
    9900012    2    1    2    0    0 -0.41913237662E+02 -0.10537476512E+02 -0.39831324480E+01  0.47787271358E+02  0.20000001431E+02 0.  0.
        -12    1    1    2    0    0  0.41913237662E+02  0.10537476512E+02  0.39831324480E+01  0.43400728642E+02  0.00000000000E+00 0.  1.
         11    1    3    3    0    0 -0.98625029785E+01 -0.78696499167E+01 -0.97986546941E+00  0.12655453031E+02  0.51100000000E-03 0. -1.
        -11    1    3    3    0    0 -0.48870398848E+01  0.37804755412E+01  0.25189347295E+01  0.66723449090E+01  0.51100000000E-03 0.  1.
        -12    1    3    3    0    0 -0.27163694799E+02 -0.64483021362E+01 -0.55222017081E+01  0.28459473418E+02  0.00000000000E+00 0.  1.
</event>
<event>
 7    1  0.2430096E-009  0.4778727E+02  0.7816164E-02  0.1312668E+00
        -11   -1    0    0    0    0  0.00000000000E+00  0.00000000000E+00  0.45593999997E+02  0.45594000000E+02  0.51100000000E-03 0. -1.
         11   -1    0    0    0    0 -0.00000000000E+00 -0.00000000000E+00 -0.45593999997E+02  0.45594000000E+02  0.51100000000E-03 0.  1.
    9900012    2    1    2    0    0 -0.11958929098E+02  0.12687009133E+02  0.39744774401E+02  0.47787270995E+02  0.19999999776E+02 0.  0.
        -12    1    1    2    0    0  0.11958929098E+02 -0.12687009133E+02 -0.39744774401E+02  0.43400729005E+02  0.00000000000E+00 0.  1.
         11    1    3    3    0    0 -0.79927131552E+01  0.11637425030E+02  0.37047181380E+02  0.39646018380E+02  0.51100000000E-03 0. -1.
        -11    1    3    3    0    0 -0.50216089465E+01  0.27138315156E+01  0.20981671834E+01  0.60814261236E+01  0.51100000000E-03 0.  1.
         12    1    3    3    0    0  0.10553930035E+01 -0.16642474125E+01  0.59942583806E+00  0.20598264920E+01  0.00000000000E+00 0. -1.
</event>
<event>
 7    1  0.2430096E-009  0.4778727E+02  0.7816164E-02  0.1312668E+00
        -11   -1    0    0    0    0  0.00000000000E+00  0.00000000000E+00  0.45593999997E+02  0.45594000000E+02  0.51100000000E-03 0.  1.
         11   -1    0    0    0    0 -0.00000000000E+00 -0.00000000000E+00 -0.45593999997E+02  0.45594000000E+02  0.51100000000E-03 0. -1.
    9900012    2    1    2    0    0  0.22937907255E+02  0.15498135823E+02 -0.33425787929E+02  0.47787273025E+02  0.20000009032E+02 0.  0.
        -12    1    1    2    0    0 -0.22937907255E+02 -0.15498135823E+02  0.33425787929E+02  0.43400726975E+02  0.00000000000E+00 0.  1.
         11    1    3    3    0    0  0.20038362690E+02  0.12543192648E+02 -0.19475968021E+02  0.30629740314E+02  0.51100000000E-03 0. -1.
        -11    1    3    3    0    0  0.46779722853E+00  0.59589814511E+01 -0.69953741151E+01  0.92012799899E+01  0.51100000000E-03 0.  1.
         12    1    3    3    0    0  0.24317473362E+01 -0.30040382761E+01 -0.69544457933E+01  0.79562527211E+01  0.00000000000E+00 0. -1.
</event>
<event>
 7    1  0.2430096E-009  0.4778726E+02  0.7816164E-02  0.1312668E+00
        -11   -1    0    0    0    0  0.00000000000E+00  0.00000000000E+00  0.45593999997E+02  0.45594000000E+02  0.51100000000E-03 0.  1.
         11   -1    0    0    0    0 -0.00000000000E+00 -0.00000000000E+00 -0.45593999997E+02  0.45594000000E+02  0.51100000000E-03 0. -1.
    9900012    2    1    2    0    0 -0.89242189664E+01 -0.35033467634E+02 -0.24013299385E+02  0.47787261688E+02  0.19999957342E+02 0.  0.
        -12    1    1    2    0    0  0.89242189664E+01  0.35033467634E+02  0.24013299385E+02  0.43400738312E+02  0.00000000000E+00 0.  1.
         11    1    3    3    0    0 -0.35126566548E+01 -0.56785570703E+01 -0.43042567355E+01  0.79442679639E+01  0.51100000000E-03 0. -1.
        -11    1    3    3    0    0 -0.92047033103E-01 -0.10700679015E+02 -0.17236499119E+02  0.20288171583E+02  0.51100000000E-03 0.  1.
        -12    1    3    3    0    0 -0.53195152785E+01 -0.18654231549E+02 -0.24725435304E+01  0.19554822141E+02  0.00000000000E+00 0.  1.
</event>
<event>
 7    1  0.2430096E-009  0.4778727E+02  0.7816164E-02  0.1312668E+00
        -11   -1    0    0    0    0  0.00000000000E+00  0.00000000000E+00  0.45593999997E+02  0.45594000000E+02  0.51100000000E-03 0.  1.
         11   -1    0    0    0    0 -0.00000000000E+00 -0.00000000000E+00 -0.45593999997E+02  0.45594000000E+02  0.51100000000E-03 0. -1.
    9900012    2    1    2    0    0 -0.10193930033E+02 -0.34198406928E+02 -0.24701737879E+02  0.47787273045E+02  0.20000009123E+02 0.  0.
        -12    1    1    2    0    0  0.10193930033E+02  0.34198406928E+02  0.24701737879E+02  0.43400726955E+02  0.00000000000E+00 0.  1.
         11    1    3    3    0    0  0.49554380986E+01 -0.86931967596E+01 -0.26381687275E+01  0.10348331805E+02  0.51100000000E-03 0.  1.
        -11    1    3    3    0    0 -0.11398127162E+02 -0.23170015513E+02 -0.19107154564E+02  0.32122426395E+02  0.51100000000E-03 0. -1.
        -12    1    3    3    0    0 -0.37512409696E+01 -0.23351946555E+01 -0.29564145872E+01  0.53165148455E+01  0.00000000000E+00 0.  1.
</event>
<event>
 7    1  0.2430096E-009  0.4778727E+02  0.7816164E-02  0.1312668E+00
        -11   -1    0    0    0    0  0.00000000000E+00  0.00000000000E+00  0.45593999997E+02  0.45594000000E+02  0.51100000000E-03 0.  1.
         11   -1    0    0    0    0 -0.00000000000E+00 -0.00000000000E+00 -0.45593999997E+02  0.45594000000E+02  0.51100000000E-03 0. -1.
    9900012    2    1    2    0    0 -0.19135826041E+02  0.26796835719E+01 -0.38862101890E+02  0.47787268374E+02  0.19999987826E+02 0.  0.
        -12    1    1    2    0    0  0.19135826041E+02 -0.26796835719E+01  0.38862101890E+02  0.43400731626E+02  0.00000000000E+00 0.  1.
         11    1    3    3    0    0 -0.11796347953E+02  0.16869657988E+01 -0.25331814161E+02  0.27994651053E+02  0.51100000000E-03 0. -1.
        -11    1    3    3    0    0 -0.53261613648E+00  0.57701028402E+01 -0.35252297155E+01  0.67826994289E+01  0.51100000000E-03 0.  1.
        -12    1    3    3    0    0 -0.68068619512E+01 -0.47773850671E+01 -0.10005058014E+02  0.13009917892E+02  0.00000000000E+00 0.  1.
</event>
<event>
 7    1  0.2430096E-009  0.4778727E+02  0.7816164E-02  0.1312668E+00
        -11   -1    0    0    0    0  0.00000000000E+00  0.00000000000E+00  0.45593999997E+02  0.45594000000E+02  0.51100000000E-03 0.  1.
         11   -1    0    0    0    0 -0.00000000000E+00 -0.00000000000E+00 -0.45593999997E+02  0.45594000000E+02  0.51100000000E-03 0. -1.
    9900012    2    1    2    0    0  0.36294999009E+02 -0.74525240939E+00 -0.23785309487E+02  0.47787270725E+02  0.19999998544E+02 0.  0.
        -12    1    1    2    0    0 -0.36294999009E+02  0.74525240939E+00  0.23785309487E+02  0.43400729275E+02  0.00000000000E+00 0.  1.
         11    1    3    3    0    0  0.11930155148E+02 -0.41950714432E+01 -0.57246581277E+01  0.13881604274E+02  0.51100000000E-03 0. -1.
        -11    1    3    3    0    0  0.18557726915E+02  0.90060603450E+01 -0.13689333807E+02  0.24756740730E+02  0.51100000000E-03 0.  1.
        -12    1    3    3    0    0  0.58071169450E+01 -0.55562413112E+01 -0.43713175516E+01  0.91489257215E+01  0.00000000000E+00 0.  1.
</event>
<event>
 7    1  0.2430096E-009  0.4778725E+02  0.7816164E-02  0.1312668E+00
        -11   -1    0    0    0    0  0.00000000000E+00  0.00000000000E+00  0.45593999997E+02  0.45594000000E+02  0.51100000000E-03 0.  1.
         11   -1    0    0    0    0 -0.00000000000E+00 -0.00000000000E+00 -0.45593999997E+02  0.45594000000E+02  0.51100000000E-03 0. -1.
    9900012    2    1    2    0    0  0.21641853832E+02 -0.18781376545E+02 -0.32596238740E+02  0.47787254359E+02  0.19999923923E+02 0.  0.
        -12    1    1    2    0    0 -0.21641853832E+02  0.18781376545E+02  0.32596238740E+02  0.43400745641E+02  0.00000000000E+00 0.  1.
         11    1    3    3    0    0  0.16950035542E+02 -0.39423373561E+01 -0.13496739766E+02  0.22022890666E+02  0.51100000000E-03 0. -1.
        -11    1    3    3    0    0 -0.17921950764E+00  0.76444808317E+00 -0.27179516991E+00  0.83088710381E+00  0.51100000000E-03 0.  1.
         12    1    3    3    0    0  0.48710377971E+01 -0.15603487272E+02 -0.18827703804E+02  0.24933476589E+02  0.00000000000E+00 0. -1.
</event>
<event>
 7    1  0.2430096E-009  0.4778725E+02  0.7816164E-02  0.1312668E+00
        -11   -1    0    0    0    0  0.00000000000E+00  0.00000000000E+00  0.45593999997E+02  0.45594000000E+02  0.51100000000E-03 0.  1.
         11   -1    0    0    0    0 -0.00000000000E+00 -0.00000000000E+00 -0.45593999997E+02  0.45594000000E+02  0.51100000000E-03 0. -1.
    9900012    2    1    2    0    0 -0.15394795616E+02  0.10082158320E+01 -0.40566108894E+02  0.47787246297E+02  0.19999887166E+02 0.  0.
        -12    1    1    2    0    0  0.15394795616E+02 -0.10082158320E+01  0.40566108894E+02  0.43400753703E+02  0.00000000000E+00 0.  1.
         11    1    3    3    0    0 -0.26430562714E+01  0.43069766940E+01 -0.58012885735E+01  0.76935521101E+01  0.51100000000E-03 0. -1.
        -11    1    3    3    0    0 -0.23175270744E+01 -0.18748212617E+01  0.73050795429E+00  0.30691250604E+01  0.51100000000E-03 0.  1.
        -12    1    3    3    0    0 -0.10434212270E+02 -0.14239396003E+01 -0.35495328274E+02  0.37024569126E+02  0.00000000000E+00 0.  1.
</event>
<event>
 7    1  0.2430096E-009  0.4778727E+02  0.7816164E-02  0.1312668E+00
        -11   -1    0    0    0    0  0.00000000000E+00  0.00000000000E+00  0.45593999997E+02  0.45594000000E+02  0.51100000000E-03 0.  1.
         11   -1    0    0    0    0 -0.00000000000E+00 -0.00000000000E+00 -0.45593999997E+02  0.45594000000E+02  0.51100000000E-03 0. -1.
    9900012    2    1    2    0    0 -0.29205821746E+02 -0.58540027835E+01 -0.31565386123E+02  0.47787274504E+02  0.20000015775E+02 0.  0.
        -12    1    1    2    0    0  0.29205821746E+02  0.58540027835E+01  0.31565386123E+02  0.43400725496E+02  0.00000000000E+00 0.  1.
         11    1    3    3    0    0 -0.14574037612E+02 -0.36753986322E+01 -0.48337762285E+01  0.15788493288E+02  0.51100000000E-03 0.  1.
        -11    1    3    3    0    0 -0.27364104862E+00 -0.16749030327E+01 -0.90904270310E+01  0.92474884947E+01  0.51100000000E-03 0. -1.
        -12    1    3    3    0    0 -0.14358143086E+02 -0.50370111864E+00 -0.17641182863E+02  0.22751292722E+02  0.00000000000E+00 0.  1.
</event>
<event>
 7    1  0.2430096E-009  0.4778726E+02  0.7816164E-02  0.1312668E+00
        -11   -1    0    0    0    0  0.00000000000E+00  0.00000000000E+00  0.45593999997E+02  0.45594000000E+02  0.51100000000E-03 0. -1.
         11   -1    0    0    0    0 -0.00000000000E+00 -0.00000000000E+00 -0.45593999997E+02  0.45594000000E+02  0.51100000000E-03 0.  1.
    9900012    2    1    2    0    0  0.27142805097E+02  0.14001795018E+02  0.30835721651E+02  0.47787264269E+02  0.19999969108E+02 0.  0.
        -12    1    1    2    0    0 -0.27142805097E+02 -0.14001795018E+02 -0.30835721651E+02  0.43400735731E+02  0.00000000000E+00 0.  1.
         11    1    3    3    0    0  0.55470348639E+01  0.95571065306E+01  0.13480558203E+02  0.17430815550E+02  0.51100000000E-03 0. -1.
        -11    1    3    3    0    0  0.89977249701E+01 -0.14366686384E+01  0.14418374224E+01  0.92250727275E+01  0.51100000000E-03 0.  1.
        -12    1    3    3    0    0  0.12598045263E+02  0.58813571258E+01  0.15913326025E+02  0.21131375991E+02  0.00000000000E+00 0.  1.
</event>
<event>
 7    1  0.2430096E-009  0.4778728E+02  0.7816164E-02  0.1312668E+00
        -11   -1    0    0    0    0  0.00000000000E+00  0.00000000000E+00  0.45593999997E+02  0.45594000000E+02  0.51100000000E-03 0.  1.
         11   -1    0    0    0    0 -0.00000000000E+00 -0.00000000000E+00 -0.45593999997E+02  0.45594000000E+02  0.51100000000E-03 0. -1.
    9900012    2    1    2    0    0  0.29210803425E+02 -0.28003264919E+02 -0.15689756164E+02  0.47787281903E+02  0.20000049508E+02 0.  0.
        -12    1    1    2    0    0 -0.29210803425E+02  0.28003264919E+02  0.15689756164E+02  0.43400718097E+02  0.00000000000E+00 0.  1.
         11    1    3    3    0    0  0.14868670456E+02 -0.11716301643E+02 -0.10590488600E+02  0.21691185638E+02  0.51100000000E-03 0. -1.
        -11    1    3    3    0    0  0.49147531511E+01 -0.46554315099E+01  0.46649689232E+01  0.82213001645E+01  0.51100000000E-03 0.  1.
         12    1    3    3    0    0  0.94273798177E+01 -0.11631531766E+02 -0.97642364877E+01  0.17874796100E+02  0.00000000000E+00 0. -1.
</event>
<event>
 7    1  0.2430096E-009  0.4778727E+02  0.7816164E-02  0.1312668E+00
        -11   -1    0    0    0    0  0.00000000000E+00  0.00000000000E+00  0.45593999997E+02  0.45594000000E+02  0.51100000000E-03 0.  1.
         11   -1    0    0    0    0 -0.00000000000E+00 -0.00000000000E+00 -0.45593999997E+02  0.45594000000E+02  0.51100000000E-03 0. -1.
    9900012    2    1    2    0    0 -0.26192042918E+02 -0.80891632210E+01 -0.33647664647E+02  0.47787274084E+02  0.20000013859E+02 0.  0.
        -12    1    1    2    0    0  0.26192042918E+02  0.80891632210E+01  0.33647664647E+02  0.43400725916E+02  0.00000000000E+00 0.  1.
         11    1    3    3    0    0 -0.22430587404E+02 -0.27458769923E+01 -0.24965946153E+02  0.33674464500E+02  0.51100000000E-03 0. -1.
        -11    1    3    3    0    0  0.15370519119E+01  0.14271405727E+01 -0.32342087602E+00  0.21222299871E+01  0.51100000000E-03 0.  1.
        -12    1    3    3    0    0 -0.52985074258E+01 -0.67704268015E+01 -0.83582976173E+01  0.11990579597E+02  0.00000000000E+00 0.  1.
</event>
<event>
 7    1  0.2430096E-009  0.4778728E+02  0.7816164E-02  0.1312668E+00
        -11   -1    0    0    0    0  0.00000000000E+00  0.00000000000E+00  0.45593999997E+02  0.45594000000E+02  0.51100000000E-03 0.  1.
         11   -1    0    0    0    0 -0.00000000000E+00 -0.00000000000E+00 -0.45593999997E+02  0.45594000000E+02  0.51100000000E-03 0. -1.
    9900012    2    1    2    0    0 -0.29622099474E+02  0.31362789942E+02 -0.47465282995E+01  0.47787275340E+02  0.20000019583E+02 0.  0.
        -12    1    1    2    0    0  0.29622099474E+02 -0.31362789942E+02  0.47465282995E+01  0.43400724660E+02  0.00000000000E+00 0.  1.
         11    1    3    3    0    0 -0.96434462321E+01  0.99577623505E+01 -0.43075364554E+01  0.14515783025E+02  0.51100000000E-03 0. -1.
        -11    1    3    3    0    0 -0.18014052499E+02  0.23185470086E+02 -0.30887031931E+01  0.29523079078E+02  0.51100000000E-03 0.  1.
        -12    1    3    3    0    0 -0.19646007424E+01 -0.17804424955E+01  0.26497113490E+01  0.37484132362E+01  0.00000000000E+00 0.  1.
</event>
<event>
 7    1  0.2430096E-009  0.4778728E+02  0.7816164E-02  0.1312668E+00
        -11   -1    0    0    0    0  0.00000000000E+00  0.00000000000E+00  0.45593999997E+02  0.45594000000E+02  0.51100000000E-03 0.  1.
         11   -1    0    0    0    0 -0.00000000000E+00 -0.00000000000E+00 -0.45593999997E+02  0.45594000000E+02  0.51100000000E-03 0. -1.
    9900012    2    1    2    0    0  0.34382867512E+02  0.22592320910E+02  0.13821297622E+02  0.47787276384E+02  0.20000024346E+02 0.  0.
        -12    1    1    2    0    0 -0.34382867512E+02 -0.22592320910E+02 -0.13821297622E+02  0.43400723616E+02  0.00000000000E+00 0.  1.
         11    1    3    3    0    0  0.12668813744E+02  0.27390693651E+01 -0.26310588180E+01  0.13225876660E+02  0.51100000000E-03 0. -1.
        -11    1    3    3    0    0  0.51493930765E+01  0.84913880199E+01  0.80678047785E+01  0.12794897177E+02  0.51100000000E-03 0.  1.
        -12    1    3    3    0    0  0.16564660692E+02  0.11361863525E+02  0.83845516616E+01  0.21766502547E+02  0.00000000000E+00 0.  1.
</event>
<event>
 7    1  0.2430096E-009  0.4778725E+02  0.7816164E-02  0.1312668E+00
        -11   -1    0    0    0    0  0.00000000000E+00  0.00000000000E+00  0.45593999997E+02  0.45594000000E+02  0.51100000000E-03 0.  1.
         11   -1    0    0    0    0 -0.00000000000E+00 -0.00000000000E+00 -0.45593999997E+02  0.45594000000E+02  0.51100000000E-03 0. -1.
    9900012    2    1    2    0    0 -0.15077559567E+02  0.36887269673E+02 -0.17193643531E+02  0.47787252952E+02  0.19999917510E+02 0.  0.
        -12    1    1    2    0    0  0.15077559567E+02 -0.36887269673E+02  0.17193643531E+02  0.43400747048E+02  0.00000000000E+00 0.  1.
         11    1    3    3    0    0 -0.15003847921E+01 -0.96710137522E+00  0.14917103928E+01  0.23262931353E+01  0.51100000000E-03 0. -1.
        -11    1    3    3    0    0 -0.37225978444E+01  0.21730143248E+01 -0.94724568492E+00  0.44132754974E+01  0.51100000000E-03 0.  1.
         12    1    3    3    0    0 -0.98545769301E+01  0.35681356723E+02 -0.17738108239E+02  0.41047684320E+02  0.00000000000E+00 0. -1.
</event>
<event>
 7    1  0.2430096E-009  0.4778726E+02  0.7816164E-02  0.1312668E+00
        -11   -1    0    0    0    0  0.00000000000E+00  0.00000000000E+00  0.45593999997E+02  0.45594000000E+02  0.51100000000E-03 0.  1.
         11   -1    0    0    0    0 -0.00000000000E+00 -0.00000000000E+00 -0.45593999997E+02  0.45594000000E+02  0.51100000000E-03 0. -1.
    9900012    2    1    2    0    0 -0.11941095313E+02  0.31130166400E+02 -0.27783937089E+02  0.47787260633E+02  0.19999952532E+02 0.  0.
        -12    1    1    2    0    0  0.11941095313E+02 -0.31130166400E+02  0.27783937089E+02  0.43400739367E+02  0.00000000000E+00 0.  1.
         11    1    3    3    0    0  0.10978145825E+01  0.92868020590E+00 -0.42259489331E+01  0.44638871434E+01  0.51100000000E-03 0. -1.
        -11    1    3    3    0    0 -0.25390785731E+01  0.16027675308E+02 -0.19227940928E+02  0.25160425441E+02  0.51100000000E-03 0.  1.
        -12    1    3    3    0    0 -0.10499831323E+02  0.14173810886E+02 -0.43300472283E+01  0.18162948049E+02  0.00000000000E+00 0.  1.
</event>
<event>
 7    1  0.2430096E-009  0.4778727E+02  0.7816164E-02  0.1312668E+00
        -11   -1    0    0    0    0  0.00000000000E+00  0.00000000000E+00  0.45593999997E+02  0.45594000000E+02  0.51100000000E-03 0. -1.
         11   -1    0    0    0    0 -0.00000000000E+00 -0.00000000000E+00 -0.45593999997E+02  0.45594000000E+02  0.51100000000E-03 0.  1.
    9900012    2    1    2    0    0  0.29126558507E+02  0.15700686740E+02  0.28084789002E+02  0.47787270192E+02  0.19999996113E+02 0.  0.
        -12    1    1    2    0    0 -0.29126558507E+02 -0.15700686740E+02 -0.28084789002E+02  0.43400729808E+02  0.00000000000E+00 0.  1.
         11    1    3    3    0    0  0.51100179521E+01  0.89250769805E+00  0.60268868574E+01  0.79518688945E+01  0.51100000000E-03 0. -1.
        -11    1    3    3    0    0  0.18534330774E+02  0.23157882422E+01  0.82321550915E+01  0.20412071677E+02  0.51100000000E-03 0.  1.
        -12    1    3    3    0    0  0.54822097815E+01  0.12492390800E+02  0.13825747053E+02  0.19423329621E+02  0.00000000000E+00 0.  1.
</event>
<event>
 7    1  0.2430096E-009  0.4778727E+02  0.7816164E-02  0.1312668E+00
        -11   -1    0    0    0    0  0.00000000000E+00  0.00000000000E+00  0.45593999997E+02  0.45594000000E+02  0.51100000000E-03 0. -1.
         11   -1    0    0    0    0 -0.00000000000E+00 -0.00000000000E+00 -0.45593999997E+02  0.45594000000E+02  0.51100000000E-03 0.  1.
    9900012    2    1    2    0    0  0.17101460604E+02 -0.83657152985E+01  0.39002286653E+02  0.47787268308E+02  0.19999987525E+02 0.  0.
        -12    1    1    2    0    0 -0.17101460604E+02  0.83657152985E+01 -0.39002286653E+02  0.43400731692E+02  0.00000000000E+00 0.  1.
         11    1    3    3    0    0  0.14208424100E+02  0.14779454309E+01  0.19254223541E+02  0.23974752606E+02  0.51100000000E-03 0. -1.
        -11    1    3    3    0    0  0.40020264014E+01 -0.98421262433E+01  0.20025402616E+02  0.22669371727E+02  0.51100000000E-03 0.  1.
         12    1    3    3    0    0 -0.11089898975E+01 -0.15344860694E-02 -0.27733950418E+00  0.11431439751E+01  0.00000000000E+00 0. -1.
</event>
<event>
 7    1  0.2430096E-009  0.4778724E+02  0.7816164E-02  0.1312668E+00
        -11   -1    0    0    0    0  0.00000000000E+00  0.00000000000E+00  0.45593999997E+02  0.45594000000E+02  0.51100000000E-03 0.  1.
         11   -1    0    0    0    0 -0.00000000000E+00 -0.00000000000E+00 -0.45593999997E+02  0.45594000000E+02  0.51100000000E-03 0. -1.
    9900012    2    1    2    0    0  0.32608022014E+02  0.91051860470E+01 -0.27155811761E+02  0.47787243958E+02  0.19999876501E+02 0.  0.
        -12    1    1    2    0    0 -0.32608022014E+02 -0.91051860470E+01  0.27155811761E+02  0.43400756042E+02  0.00000000000E+00 0.  1.
         11    1    3    3    0    0  0.31224920127E+02  0.75402763979E+01 -0.29027950336E+02  0.43295188025E+02  0.51100000000E-03 0. -1.
        -11    1    3    3    0    0  0.21109940172E+00  0.25052356298E+00  0.25751427764E+01  0.25958978394E+01  0.51100000000E-03 0.  1.
        -12    1    3    3    0    0  0.11720024856E+01  0.13143860861E+01 -0.70300420118E+00  0.18961580938E+01  0.00000000000E+00 0.  1.
</event>
<event>
 7    1  0.2430096E-009  0.4778727E+02  0.7816164E-02  0.1312668E+00
        -11   -1    0    0    0    0  0.00000000000E+00  0.00000000000E+00  0.45593999997E+02  0.45594000000E+02  0.51100000000E-03 0. -1.
         11   -1    0    0    0    0 -0.00000000000E+00 -0.00000000000E+00 -0.45593999997E+02  0.45594000000E+02  0.51100000000E-03 0.  1.
    9900012    2    1    2    0    0 -0.42636771336E+02  0.81057731517E+01 -0.15952827854E+00  0.47787271001E+02  0.19999999802E+02 0.  0.
        -12    1    1    2    0    0  0.42636771336E+02 -0.81057731517E+01  0.15952827854E+00  0.43400728999E+02  0.00000000000E+00 0.  1.
         11    1    3    3    0    0 -0.29484909927E+02  0.53440856457E+01  0.52625191242E+01  0.30423893120E+02  0.51100000000E-03 0. -1.
        -11    1    3    3    0    0 -0.16781834865E+01  0.42305387078E+01 -0.32534827837E+01  0.55945427031E+01  0.51100000000E-03 0.  1.
         12    1    3    3    0    0 -0.11473677923E+02 -0.14688512017E+01 -0.21685646191E+01  0.11768835178E+02  0.00000000000E+00 0. -1.
</event>
<event>
 7    1  0.2430096E-009  0.4778728E+02  0.7816164E-02  0.1312668E+00
        -11   -1    0    0    0    0  0.00000000000E+00  0.00000000000E+00  0.45593999997E+02  0.45594000000E+02  0.51100000000E-03 0. -1.
         11   -1    0    0    0    0 -0.00000000000E+00 -0.00000000000E+00 -0.45593999997E+02  0.45594000000E+02  0.51100000000E-03 0.  1.
    9900012    2    1    2    0    0 -0.23904819041E+02  0.18447609789E+02 -0.31174801391E+02  0.47787275097E+02  0.20000018479E+02 0.  0.
        -12    1    1    2    0    0  0.23904819041E+02 -0.18447609789E+02  0.31174801391E+02  0.43400724903E+02  0.00000000000E+00 0.  1.
         11    1    3    3    0    0 -0.17837441958E+02  0.77495029309E+01 -0.12592396591E+02  0.23168892582E+02  0.51100000000E-03 0. -1.
        -11    1    3    3    0    0 -0.57379891064E+01  0.69577319851E+00 -0.94083128391E+01  0.11041964049E+02  0.51100000000E-03 0.  1.
         12    1    3    3    0    0 -0.32938797644E+00  0.10002333660E+02 -0.91740919602E+01  0.13576418467E+02  0.00000000000E+00 0. -1.
</event>
<event>
 7    1  0.2430096E-009  0.4778727E+02  0.7816164E-02  0.1312668E+00
        -11   -1    0    0    0    0  0.00000000000E+00  0.00000000000E+00  0.45593999997E+02  0.45594000000E+02  0.51100000000E-03 0. -1.
         11   -1    0    0    0    0 -0.00000000000E+00 -0.00000000000E+00 -0.45593999997E+02  0.45594000000E+02  0.51100000000E-03 0.  1.
    9900012    2    1    2    0    0  0.15391152800E+02  0.36640463442E+02  0.17441678096E+02  0.47787270967E+02  0.19999999649E+02 0.  0.
        -12    1    1    2    0    0 -0.15391152800E+02 -0.36640463442E+02 -0.17441678096E+02  0.43400729033E+02  0.00000000000E+00 0.  1.
         11    1    3    3    0    0  0.15168951414E+02  0.19927086605E+02  0.97201669185E+01  0.26863870026E+02  0.51100000000E-03 0. -1.
        -11    1    3    3    0    0 -0.45989436378E+01  0.57017046106E+01  0.39636670472E+01  0.83288879674E+01  0.51100000000E-03 0.  1.
        -12    1    3    3    0    0  0.48211450242E+01  0.11011672226E+02  0.37578441304E+01  0.12594512975E+02  0.00000000000E+00 0.  1.
</event>
<event>
 7    1  0.2430096E-009  0.4778728E+02  0.7816164E-02  0.1312668E+00
        -11   -1    0    0    0    0  0.00000000000E+00  0.00000000000E+00  0.45593999997E+02  0.45594000000E+02  0.51100000000E-03 0.  1.
         11   -1    0    0    0    0 -0.00000000000E+00 -0.00000000000E+00 -0.45593999997E+02  0.45594000000E+02  0.51100000000E-03 0. -1.
    9900012    2    1    2    0    0 -0.44644984845E+01  0.15814915783E+02 -0.40169385439E+02  0.47787276106E+02  0.20000023079E+02 0.  0.
        -12    1    1    2    0    0  0.44644984845E+01 -0.15814915783E+02  0.40169385439E+02  0.43400723894E+02  0.00000000000E+00 0.  1.
         11    1    3    3    0    0 -0.61269722672E+01  0.81880726910E+00 -0.23005579708E+02  0.23821564442E+02  0.51100000000E-03 0. -1.
        -11    1    3    3    0    0  0.18487043153E+01  0.15692925987E+02 -0.15419632464E+02  0.22078285696E+02  0.51100000000E-03 0.  1.
        -12    1    3    3    0    0 -0.18623053260E+00 -0.69681747268E+00 -0.17441732669E+01  0.18874259685E+01  0.00000000000E+00 0.  1.
</event>
<event>
 7    1  0.2430096E-009  0.4778725E+02  0.7816164E-02  0.1312668E+00
        -11   -1    0    0    0    0  0.00000000000E+00  0.00000000000E+00  0.45593999997E+02  0.45594000000E+02  0.51100000000E-03 0.  1.
         11   -1    0    0    0    0 -0.00000000000E+00 -0.00000000000E+00 -0.45593999997E+02  0.45594000000E+02  0.51100000000E-03 0. -1.
    9900012    2    1    2    0    0 -0.22530864692E+02 -0.98596460140E+01 -0.35759924770E+02  0.47787254582E+02  0.19999924940E+02 0.  0.
        -12    1    1    2    0    0  0.22530864692E+02  0.98596460140E+01  0.35759924770E+02  0.43400745418E+02  0.00000000000E+00 0.  1.
         11    1    3    3    0    0 -0.16898538879E+02 -0.12565760102E+01 -0.28224003501E+02  0.32920115027E+02  0.51100000000E-03 0. -1.
        -11    1    3    3    0    0  0.99429945189E+00 -0.21334961941E+01  0.71885695341E+00  0.24611365242E+01  0.51100000000E-03 0.  1.
        -12    1    3    3    0    0 -0.66266252653E+01 -0.64695738098E+01 -0.82547782222E+01  0.12406003030E+02  0.00000000000E+00 0.  1.
</event>
<event>
 7    1  0.2430096E-009  0.4778727E+02  0.7816164E-02  0.1312668E+00
        -11   -1    0    0    0    0  0.00000000000E+00  0.00000000000E+00  0.45593999997E+02  0.45594000000E+02  0.51100000000E-03 0.  1.
         11   -1    0    0    0    0 -0.00000000000E+00 -0.00000000000E+00 -0.45593999997E+02  0.45594000000E+02  0.51100000000E-03 0. -1.
    9900012    2    1    2    0    0 -0.40387734312E+02  0.12357167144E+01 -0.15840677999E+02  0.47787272378E+02  0.20000006081E+02 0.  0.
        -12    1    1    2    0    0  0.40387734312E+02 -0.12357167144E+01  0.15840677999E+02  0.43400727622E+02  0.00000000000E+00 0.  1.
         11    1    3    3    0    0 -0.29680018386E+02 -0.51581134305E+01 -0.93777419013E+01  0.31550779213E+02  0.51100000000E-03 0. -1.
        -11    1    3    3    0    0 -0.10768033230E+01  0.49392700170E+01 -0.31104441364E+01  0.59355502427E+01  0.51100000000E-03 0.  1.
        -12    1    3    3    0    0 -0.96309126029E+01  0.14545601280E+01 -0.33524919612E+01  0.10300942922E+02  0.00000000000E+00 0.  1.
</event>
<event>
 7    1  0.2785740E-009  0.4778727E+02  0.7816164E-02  0.1312668E+00
        -11   -1    0    0    0    0  0.00000000000E+00  0.00000000000E+00  0.45593999997E+02  0.45594000000E+02  0.51100000000E-03 0. -1.
         11   -1    0    0    0    0 -0.00000000000E+00 -0.00000000000E+00 -0.45593999997E+02  0.45594000000E+02  0.51100000000E-03 0.  1.
    9900012    2    1    2    0    0 -0.22880180367E+02 -0.23001137721E+02  0.28828253135E+02  0.47787272254E+02  0.20000005513E+02 0.  0.
        -12    1    1    2    0    0  0.22880180367E+02  0.23001137721E+02 -0.28828253135E+02  0.43400727746E+02  0.00000000000E+00 0.  1.
         11    1    3    3    0    0 -0.55480902981E+01 -0.34659714891E+01  0.15421839629E+02  0.16751937265E+02  0.51100000000E-03 0.  1.
        -11    1    3    3    0    0 -0.14494751198E+02 -0.17839624369E+02  0.14916176672E+02  0.27401502454E+02  0.51100000000E-03 0. -1.
        -12    1    3    3    0    0 -0.28373388703E+01 -0.16955418628E+01 -0.15097631663E+01  0.36338325350E+01  0.00000000000E+00 0.  1.
</event>
<event>
 7    1  0.2854998E-009  0.4778727E+02  0.7816164E-02  0.1312668E+00
        -11   -1    0    0    0    0  0.00000000000E+00  0.00000000000E+00  0.45593999997E+02  0.45594000000E+02  0.51100000000E-03 0.  1.
         11   -1    0    0    0    0 -0.00000000000E+00 -0.00000000000E+00 -0.45593999997E+02  0.45594000000E+02  0.51100000000E-03 0. -1.
    9900012    2    1    2    0    0 -0.32203060632E+01 -0.42377985077E+02  0.87954123798E+01  0.47787271098E+02  0.20000000243E+02 0.  0.
        -12    1    1    2    0    0  0.32203060632E+01  0.42377985077E+02 -0.87954123798E+01  0.43400728902E+02  0.00000000000E+00 0.  1.
         11    1    3    3    0    0 -0.56821409982E+01 -0.24525443877E+02  0.81481250387E+01  0.26460840228E+02  0.51100000000E-03 0. -1.
        -11    1    3    3    0    0 -0.14989814850E+01 -0.20399194171E+01 -0.36745377520E+01  0.44621121313E+01  0.51100000000E-03 0.  1.
        -12    1    3    3    0    0  0.39608164200E+01 -0.15812621783E+02  0.43218250931E+01  0.16864318738E+02  0.00000000000E+00 0.  1.
</event>
<event>
 7    1  0.2430096E-009  0.4778728E+02  0.7816164E-02  0.1312668E+00
        -11   -1    0    0    0    0  0.00000000000E+00  0.00000000000E+00  0.45593999997E+02  0.45594000000E+02  0.51100000000E-03 0.  1.
         11   -1    0    0    0    0 -0.00000000000E+00 -0.00000000000E+00 -0.45593999997E+02  0.45594000000E+02  0.51100000000E-03 0. -1.
    9900012    2    1    2    0    0  0.38557922573E+02  0.19915438181E+02  0.53354088843E+00  0.47787277230E+02  0.20000028203E+02 0.  0.
        -12    1    1    2    0    0 -0.38557922573E+02 -0.19915438181E+02 -0.53354088843E+00  0.43400722770E+02  0.00000000000E+00 0.  1.
         11    1    3    3    0    0  0.12461197253E+02  0.43509502957E+01 -0.30549326749E+01  0.13547871396E+02  0.51100000000E-03 0. -1.
        -11    1    3    3    0    0  0.56296200563E+01 -0.27697347296E+01  0.24569956062E+01  0.67380175216E+01  0.51100000000E-03 0.  1.
        -12    1    3    3    0    0  0.20467105263E+02  0.18334222615E+02  0.11314779571E+01  0.27501388312E+02  0.00000000000E+00 0.  1.
</event>
<event>
 7    1  0.2430096E-009  0.4778727E+02  0.7816164E-02  0.1312668E+00
        -11   -1    0    0    0    0  0.00000000000E+00  0.00000000000E+00  0.45593999997E+02  0.45594000000E+02  0.51100000000E-03 0.  1.
         11   -1    0    0    0    0 -0.00000000000E+00 -0.00000000000E+00 -0.45593999997E+02  0.45594000000E+02  0.51100000000E-03 0. -1.
    9900012    2    1    2    0    0 -0.31969343677E+02 -0.23038653399E+02 -0.18188042811E+02  0.47787269743E+02  0.19999994064E+02 0.  0.
        -12    1    1    2    0    0  0.31969343677E+02  0.23038653399E+02  0.18188042811E+02  0.43400730257E+02  0.00000000000E+00 0.  1.
         11    1    3    3    0    0 -0.11200854498E+02 -0.82733588034E+01  0.21019341252E+01  0.14082817002E+02  0.51100000000E-03 0.  1.
        -11    1    3    3    0    0 -0.17205153918E+02 -0.86291527911E+01 -0.17705436145E+02  0.26152668479E+02  0.51100000000E-03 0. -1.
         12    1    3    3    0    0 -0.35633352600E+01 -0.61361418049E+01 -0.25845407916E+01  0.75517842612E+01  0.00000000000E+00 0. -1.
</event>
<event>
 7    1  0.2430096E-009  0.4778727E+02  0.7816164E-02  0.1312668E+00
        -11   -1    0    0    0    0  0.00000000000E+00  0.00000000000E+00  0.45593999997E+02  0.45594000000E+02  0.51100000000E-03 0.  1.
         11   -1    0    0    0    0 -0.00000000000E+00 -0.00000000000E+00 -0.45593999997E+02  0.45594000000E+02  0.51100000000E-03 0. -1.
    9900012    2    1    2    0    0 -0.38211175956E+00 -0.17601354257E+02 -0.39669506423E+02  0.47787269350E+02  0.19999992274E+02 0.  0.
        -12    1    1    2    0    0  0.38211175956E+00  0.17601354257E+02  0.39669506423E+02  0.43400730650E+02  0.00000000000E+00 0.  1.
         11    1    3    3    0    0 -0.43550531132E+01 -0.15209877844E+01 -0.17408584402E+02  0.18009405948E+02  0.51100000000E-03 0. -1.
        -11    1    3    3    0    0  0.11673010621E+01  0.15174918519E+01 -0.16126735893E+01  0.25032158630E+01  0.51100000000E-03 0.  1.
         12    1    3    3    0    0  0.28056402916E+01 -0.17597858324E+02 -0.20648248432E+02  0.27274647539E+02  0.00000000000E+00 0. -1.
</event>
<event>
 7    1  0.2430096E-009  0.4778727E+02  0.7816164E-02  0.1312668E+00
        -11   -1    0    0    0    0  0.00000000000E+00  0.00000000000E+00  0.45593999997E+02  0.45594000000E+02  0.51100000000E-03 0.  1.
         11   -1    0    0    0    0 -0.00000000000E+00 -0.00000000000E+00 -0.45593999997E+02  0.45594000000E+02  0.51100000000E-03 0. -1.
    9900012    2    1    2    0    0  0.25119672514E+02  0.19850314230E+02 -0.29301707614E+02  0.47787274299E+02  0.20000014840E+02 0.  0.
        -12    1    1    2    0    0 -0.25119672514E+02 -0.19850314230E+02  0.29301707614E+02  0.43400725701E+02  0.00000000000E+00 0.  1.
         11    1    3    3    0    0  0.77766309517E+00  0.49704239007E+01 -0.66067088197E+01  0.83041239954E+01  0.51100000000E-03 0. -1.
        -11    1    3    3    0    0  0.17890060484E+02  0.37383182402E+01 -0.18339690366E+02  0.25891572574E+02  0.51100000000E-03 0.  1.
        -12    1    3    3    0    0  0.64519489351E+01  0.11141572089E+02 -0.43553084290E+01  0.13591577730E+02  0.00000000000E+00 0.  1.
</event>
<event>
 7    1  0.2430096E-009  0.4778727E+02  0.7816164E-02  0.1312668E+00
        -11   -1    0    0    0    0  0.00000000000E+00  0.00000000000E+00  0.45593999997E+02  0.45594000000E+02  0.51100000000E-03 0.  1.
         11   -1    0    0    0    0 -0.00000000000E+00 -0.00000000000E+00 -0.45593999997E+02  0.45594000000E+02  0.51100000000E-03 0. -1.
    9900012    2    1    2    0    0 -0.22534650865E+02 -0.33801725646E+02 -0.15272728516E+02  0.47787269792E+02  0.19999994290E+02 0.  0.
        -12    1    1    2    0    0  0.22534650865E+02  0.33801725646E+02  0.15272728516E+02  0.43400730208E+02  0.00000000000E+00 0.  1.
         11    1    3    3    0    0 -0.10675611690E+02 -0.17257181717E+02 -0.94937948327E+01  0.22403373548E+02  0.51100000000E-03 0. -1.
        -11    1    3    3    0    0 -0.66347455968E+01 -0.51252767833E+00  0.18052291959E+01  0.68950262122E+01  0.51100000000E-03 0.  1.
        -12    1    3    3    0    0 -0.52242935782E+01 -0.16032016251E+02 -0.75841628796E+01  0.18488870031E+02  0.00000000000E+00 0.  1.
</event>
<event>
 7    1  0.2430096E-009  0.4778727E+02  0.7816164E-02  0.1312668E+00
        -11   -1    0    0    0    0  0.00000000000E+00  0.00000000000E+00  0.45593999997E+02  0.45594000000E+02  0.51100000000E-03 0. -1.
         11   -1    0    0    0    0 -0.00000000000E+00 -0.00000000000E+00 -0.45593999997E+02  0.45594000000E+02  0.51100000000E-03 0.  1.
    9900012    2    1    2    0    0 -0.21890224208E+02  0.16867195894E+02  0.33465488463E+02  0.47787272687E+02  0.20000007491E+02 0.  0.
        -12    1    1    2    0    0  0.21890224208E+02 -0.16867195894E+02 -0.33465488463E+02  0.43400727313E+02  0.00000000000E+00 0.  1.
         11    1    3    3    0    0 -0.11884534947E+02  0.13921275122E+02  0.22928685550E+02  0.29338859781E+02  0.51100000000E-03 0. -1.
        -11    1    3    3    0    0 -0.52987203858E+01 -0.37104561826E+01  0.70892371076E+01  0.95969373155E+01  0.51100000000E-03 0.  1.
        -12    1    3    3    0    0 -0.47069688750E+01  0.66563769552E+01  0.34475658050E+01  0.88514755911E+01  0.00000000000E+00 0.  1.
</event>
<event>
 7    1  0.2430096E-009  0.4778727E+02  0.7816164E-02  0.1312668E+00
        -11   -1    0    0    0    0  0.00000000000E+00  0.00000000000E+00  0.45593999997E+02  0.45594000000E+02  0.51100000000E-03 0. -1.
         11   -1    0    0    0    0 -0.00000000000E+00 -0.00000000000E+00 -0.45593999997E+02  0.45594000000E+02  0.51100000000E-03 0.  1.
    9900012    2    1    2    0    0  0.31533724649E+02 -0.22648711279E+02  0.19398018147E+02  0.47787273959E+02  0.20000013289E+02 0.  0.
        -12    1    1    2    0    0 -0.31533724649E+02  0.22648711279E+02 -0.19398018147E+02  0.43400726041E+02  0.00000000000E+00 0.  1.
         11    1    3    3    0    0  0.12493979263E+02 -0.57419823497E+00  0.25029674488E+01  0.12755158476E+02  0.51100000000E-03 0. -1.
        -11    1    3    3    0    0  0.25877969275E+01 -0.97427340722E+01  0.46498428138E+01  0.11101288150E+02  0.51100000000E-03 0.  1.
         12    1    3    3    0    0  0.16451948458E+02 -0.12331778972E+02  0.12245207885E+02  0.23930827333E+02  0.00000000000E+00 0. -1.
</event>
<event>
 7    1  0.2430096E-009  0.4778727E+02  0.7816164E-02  0.1312668E+00
        -11   -1    0    0    0    0  0.00000000000E+00  0.00000000000E+00  0.45593999997E+02  0.45594000000E+02  0.51100000000E-03 0. -1.
         11   -1    0    0    0    0 -0.00000000000E+00 -0.00000000000E+00 -0.45593999997E+02  0.45594000000E+02  0.51100000000E-03 0.  1.
    9900012    2    1    2    0    0 -0.35771500021E+02  0.24379994048E+02  0.31046503295E+01  0.47787272158E+02  0.20000005077E+02 0.  0.
        -12    1    1    2    0    0  0.35771500021E+02 -0.24379994048E+02 -0.31046503295E+01  0.43400727842E+02  0.00000000000E+00 0.  1.
         11    1    3    3    0    0 -0.55601175539E+01  0.66280873151E+01  0.71571048287E+00  0.86809383379E+01  0.51100000000E-03 0. -1.
        -11    1    3    3    0    0 -0.10091175924E+02  0.14399498095E+02  0.56084797248E+01  0.18456229896E+02  0.51100000000E-03 0.  1.
        -12    1    3    3    0    0 -0.20120206544E+02  0.33524086381E+01 -0.32195398781E+01  0.20650103924E+02  0.00000000000E+00 0.  1.
</event>
<event>
 7    1  0.2430096E-009  0.4778727E+02  0.7816164E-02  0.1312668E+00
        -11   -1    0    0    0    0  0.00000000000E+00  0.00000000000E+00  0.45593999997E+02  0.45594000000E+02  0.51100000000E-03 0. -1.
         11   -1    0    0    0    0 -0.00000000000E+00 -0.00000000000E+00 -0.45593999997E+02  0.45594000000E+02  0.51100000000E-03 0.  1.
    9900012    2    1    2    0    0  0.95896884094E+01 -0.17132347579E+02  0.38705862575E+02  0.47787271261E+02  0.20000000988E+02 0.  0.
        -12    1    1    2    0    0 -0.95896884094E+01  0.17132347579E+02 -0.38705862575E+02  0.43400728739E+02  0.00000000000E+00 0.  1.
         11    1    3    3    0    0  0.12611676000E+02 -0.97513273128E+01  0.14279507868E+02  0.21402034976E+02  0.51100000000E-03 0. -1.
        -11    1    3    3    0    0  0.13673640097E+01 -0.53958840088E+00  0.16915368114E+01  0.22410124995E+01  0.51100000000E-03 0.  1.
         12    1    3    3    0    0 -0.43893516006E+01 -0.68414318655E+01  0.22734817896E+02  0.24144223786E+02  0.00000000000E+00 0. -1.
</event>
<event>
 7    1  0.2430096E-009  0.4778727E+02  0.7816164E-02  0.1312668E+00
        -11   -1    0    0    0    0  0.00000000000E+00  0.00000000000E+00  0.45593999997E+02  0.45594000000E+02  0.51100000000E-03 0. -1.
         11   -1    0    0    0    0 -0.00000000000E+00 -0.00000000000E+00 -0.45593999997E+02  0.45594000000E+02  0.51100000000E-03 0.  1.
    9900012    2    1    2    0    0 -0.42226439266E+02 -0.88890761831E+00  0.99880412428E+01  0.47787270769E+02  0.19999998746E+02 0.  0.
        -12    1    1    2    0    0  0.42226439266E+02  0.88890761831E+00 -0.99880412428E+01  0.43400729231E+02  0.00000000000E+00 0.  1.
         11    1    3    3    0    0 -0.23953051034E+02 -0.98421899083E+00  0.11278589531E+02  0.26493846888E+02  0.51100000000E-03 0. -1.
        -11    1    3    3    0    0 -0.17082135592E+02 -0.17598195075E+01 -0.41654199056E+01  0.17670513414E+02  0.51100000000E-03 0.  1.
         12    1    3    3    0    0 -0.11912526410E+01  0.18551308800E+01  0.28748716177E+01  0.36229104674E+01  0.00000000000E+00 0. -1.
</event>
<event>
 7    1  0.2430096E-009  0.4778728E+02  0.7816164E-02  0.1312668E+00
        -11   -1    0    0    0    0  0.00000000000E+00  0.00000000000E+00  0.45593999997E+02  0.45594000000E+02  0.51100000000E-03 0. -1.
         11   -1    0    0    0    0 -0.00000000000E+00 -0.00000000000E+00 -0.45593999997E+02  0.45594000000E+02  0.51100000000E-03 0.  1.
    9900012    2    1    2    0    0  0.12987331542E+02  0.40854424470E+02  0.67725916632E+01  0.47787276766E+02  0.20000026089E+02 0.  0.
        -12    1    1    2    0    0 -0.12987331542E+02 -0.40854424470E+02 -0.67725916632E+01  0.43400723234E+02  0.00000000000E+00 0.  1.
         11    1    3    3    0    0  0.35168248013E+00  0.89624667499E+01  0.79144307638E+01  0.11961927327E+02  0.51100000000E-03 0. -1.
        -11    1    3    3    0    0  0.98559703142E+01  0.12330413188E+02 -0.26645060151E+01  0.16008711153E+02  0.51100000000E-03 0.  1.
         12    1    3    3    0    0  0.27796787481E+01  0.19561544532E+02  0.15226669146E+01  0.19816638286E+02  0.00000000000E+00 0. -1.
</event>
<event>
 7    1  0.2430096E-009  0.4778727E+02  0.7816164E-02  0.1312668E+00
        -11   -1    0    0    0    0  0.00000000000E+00  0.00000000000E+00  0.45593999997E+02  0.45594000000E+02  0.51100000000E-03 0. -1.
         11   -1    0    0    0    0 -0.00000000000E+00 -0.00000000000E+00 -0.45593999997E+02  0.45594000000E+02  0.51100000000E-03 0.  1.
    9900012    2    1    2    0    0 -0.20915707503E+02 -0.37033240187E+02  0.86426536169E+01  0.47787272349E+02  0.20000005947E+02 0.  0.
        -12    1    1    2    0    0  0.20915707503E+02  0.37033240187E+02 -0.86426536169E+01  0.43400727651E+02  0.00000000000E+00 0.  1.
         11    1    3    3    0    0 -0.56508147445E+01 -0.14481718989E+02  0.10209275182E+02  0.18597881389E+02  0.51100000000E-03 0. -1.
        -11    1    3    3    0    0 -0.56053927265E+01 -0.11066932396E+02 -0.56580578489E+01  0.13634919844E+02  0.51100000000E-03 0.  1.
         12    1    3    3    0    0 -0.96595000323E+01 -0.11484588802E+02  0.40914362837E+01  0.15554471116E+02  0.00000000000E+00 0. -1.
</event>
<event>
 7    1  0.2430096E-009  0.4778727E+02  0.7816164E-02  0.1312668E+00
        -11   -1    0    0    0    0  0.00000000000E+00  0.00000000000E+00  0.45593999997E+02  0.45594000000E+02  0.51100000000E-03 0.  1.
         11   -1    0    0    0    0 -0.00000000000E+00 -0.00000000000E+00 -0.45593999997E+02  0.45594000000E+02  0.51100000000E-03 0. -1.
    9900012    2    1    2    0    0 -0.25216045683E+01  0.18427808067E+02 -0.39213271016E+02  0.47787271624E+02  0.20000002643E+02 0.  0.
        -12    1    1    2    0    0  0.25216045683E+01 -0.18427808067E+02  0.39213271016E+02  0.43400728376E+02  0.00000000000E+00 0.  1.
         11    1    3    3    0    0 -0.93158610891E+01  0.13747866572E+02 -0.27869848192E+02  0.32442526745E+02  0.51100000000E-03 0. -1.
        -11    1    3    3    0    0  0.37192829127E+01  0.52861389354E-01 -0.80959858928E+01  0.89095930069E+01  0.51100000000E-03 0.  1.
         12    1    3    3    0    0  0.30749736082E+01  0.46270801052E+01 -0.32474369322E+01  0.64351518722E+01  0.00000000000E+00 0. -1.
</event>
<event>
 7    1  0.2430096E-009  0.4778727E+02  0.7816164E-02  0.1312668E+00
        -11   -1    0    0    0    0  0.00000000000E+00  0.00000000000E+00  0.45593999997E+02  0.45594000000E+02  0.51100000000E-03 0.  1.
         11   -1    0    0    0    0 -0.00000000000E+00 -0.00000000000E+00 -0.45593999997E+02  0.45594000000E+02  0.51100000000E-03 0. -1.
    9900012    2    1    2    0    0 -0.42605099017E+02 -0.34863415059E+01  0.75016016622E+01  0.47787273429E+02  0.20000010874E+02 0.  0.
        -12    1    1    2    0    0  0.42605099017E+02  0.34863415059E+01 -0.75016016622E+01  0.43400726571E+02  0.00000000000E+00 0.  1.
         11    1    3    3    0    0 -0.30753143616E+02 -0.58533761831E+01 -0.23837911738E+00  0.31306144443E+02  0.51100000000E-03 0. -1.
        -11    1    3    3    0    0 -0.23125283492E+00  0.70962602521E-01 -0.14617593991E+01  0.14816390811E+01  0.51100000000E-03 0.  1.
         12    1    3    3    0    0 -0.11620702566E+02  0.22960720747E+01  0.92017401787E+01  0.14999489905E+02  0.00000000000E+00 0. -1.
</event>
<event>
 7    1  0.2430096E-009  0.4778727E+02  0.7816164E-02  0.1312668E+00
        -11   -1    0    0    0    0  0.00000000000E+00  0.00000000000E+00  0.45593999997E+02  0.45594000000E+02  0.51100000000E-03 0.  1.
         11   -1    0    0    0    0 -0.00000000000E+00 -0.00000000000E+00 -0.45593999997E+02  0.45594000000E+02  0.51100000000E-03 0. -1.
    9900012    2    1    2    0    0 -0.17072628976E+02 -0.15460878742E+02 -0.36784644467E+02  0.47787268437E+02  0.19999988111E+02 0.  0.
        -12    1    1    2    0    0  0.17072628976E+02  0.15460878742E+02  0.36784644467E+02  0.43400731563E+02  0.00000000000E+00 0.  1.
         11    1    3    3    0    0 -0.55233325801E+00  0.11673946086E+01  0.12498979119E+01  0.17972554775E+01  0.51100000000E-03 0.  1.
        -11    1    3    3    0    0 -0.11384970985E+02 -0.64538166456E+01 -0.27566053709E+02  0.30514859183E+02  0.51100000000E-03 0. -1.
         12    1    3    3    0    0 -0.51353247334E+01 -0.10174456705E+02 -0.10468488670E+02  0.15475153776E+02  0.00000000000E+00 0. -1.
</event>
<event>
 7    1  0.2430096E-009  0.4778727E+02  0.7816164E-02  0.1312668E+00
        -11   -1    0    0    0    0  0.00000000000E+00  0.00000000000E+00  0.45593999997E+02  0.45594000000E+02  0.51100000000E-03 0. -1.
         11   -1    0    0    0    0 -0.00000000000E+00 -0.00000000000E+00 -0.45593999997E+02  0.45594000000E+02  0.51100000000E-03 0.  1.
    9900012    2    1    2    0    0  0.65831014699E+01 -0.17556063604E+02  0.39141672149E+02  0.47787273130E+02  0.20000009511E+02 0.  0.
        -12    1    1    2    0    0 -0.65831014699E+01  0.17556063604E+02 -0.39141672149E+02  0.43400726870E+02  0.00000000000E+00 0.  1.
         11    1    3    3    0    0  0.51788402536E+01 -0.11851530393E+02  0.33399645887E+02  0.35816413900E+02  0.51100000000E-03 0. -1.
        -11    1    3    3    0    0  0.50172853086E-01 -0.49047066930E+01  0.79010714703E+01  0.92997632066E+01  0.51100000000E-03 0.  1.
         12    1    3    3    0    0  0.13540883633E+01 -0.79982651790E+00 -0.21590452087E+01  0.26710960236E+01  0.00000000000E+00 0. -1.
</event>
<event>
 7    1  0.2430096E-009  0.4778727E+02  0.7816164E-02  0.1312668E+00
        -11   -1    0    0    0    0  0.00000000000E+00  0.00000000000E+00  0.45593999997E+02  0.45594000000E+02  0.51100000000E-03 0.  1.
         11   -1    0    0    0    0 -0.00000000000E+00 -0.00000000000E+00 -0.45593999997E+02  0.45594000000E+02  0.51100000000E-03 0. -1.
    9900012    2    1    2    0    0  0.21586882986E+02  0.37651251874E+02 -0.11416403403E+00  0.47787270534E+02  0.19999997672E+02 0.  0.
        -12    1    1    2    0    0 -0.21586882986E+02 -0.37651251874E+02  0.11416403403E+00  0.43400729466E+02  0.00000000000E+00 0.  1.
         11    1    3    3    0    0  0.48380575212E+00  0.96147263478E+01 -0.24889398684E+01  0.99434326407E+01  0.51100000000E-03 0. -1.
        -11    1    3    3    0    0  0.21464078615E+02  0.29025545408E+02  0.35406573234E+01  0.36272926702E+02  0.51100000000E-03 0.  1.
        -12    1    3    3    0    0 -0.36100138073E+00 -0.98901988157E+00 -0.11658814890E+01  0.15709111908E+01  0.00000000000E+00 0.  1.
</event>
<event>
 7    1  0.2430096E-009  0.4778727E+02  0.7816164E-02  0.1312668E+00
        -11   -1    0    0    0    0  0.00000000000E+00  0.00000000000E+00  0.45593999997E+02  0.45594000000E+02  0.51100000000E-03 0. -1.
         11   -1    0    0    0    0 -0.00000000000E+00 -0.00000000000E+00 -0.45593999997E+02  0.45594000000E+02  0.51100000000E-03 0.  1.
    9900012    2    1    2    0    0 -0.19409089142E+02 -0.32019209047E+02  0.21947222530E+02  0.47787273438E+02  0.20000010915E+02 0.  0.
        -12    1    1    2    0    0  0.19409089142E+02  0.32019209047E+02 -0.21947222530E+02  0.43400726562E+02  0.00000000000E+00 0.  1.
         11    1    3    3    0    0 -0.59949533694E+01 -0.13267664133E+02  0.55384666215E+01  0.15577066162E+02  0.51100000000E-03 0.  1.
        -11    1    3    3    0    0 -0.13259674464E+02 -0.19867441581E+02  0.18244375130E+02  0.30056470618E+02  0.51100000000E-03 0. -1.
        -12    1    3    3    0    0 -0.15446130784E+00  0.11158966666E+01 -0.18356192215E+01  0.21537366581E+01  0.00000000000E+00 0.  1.
</event>
<event>
 7    1  0.2430096E-009  0.4778727E+02  0.7816164E-02  0.1312668E+00
        -11   -1    0    0    0    0  0.00000000000E+00  0.00000000000E+00  0.45593999997E+02  0.45594000000E+02  0.51100000000E-03 0.  1.
         11   -1    0    0    0    0 -0.00000000000E+00 -0.00000000000E+00 -0.45593999997E+02  0.45594000000E+02  0.51100000000E-03 0. -1.
    9900012    2    1    2    0    0 -0.31222661505E+02  0.78422173221E+01 -0.29107873166E+02  0.47787271386E+02  0.20000001557E+02 0.  0.
        -12    1    1    2    0    0  0.31222661505E+02 -0.78422173221E+01  0.29107873166E+02  0.43400728614E+02  0.00000000000E+00 0.  1.
         11    1    3    3    0    0 -0.96793370881E+01 -0.93325257696E+00 -0.12080279357E+02  0.15507858538E+02  0.51100000000E-03 0. -1.
        -11    1    3    3    0    0 -0.10919609535E+02  0.81506922130E+01 -0.18624910070E+01  0.13752837124E+02  0.51100000000E-03 0.  1.
        -12    1    3    3    0    0 -0.10623714882E+02  0.62477768601E+00 -0.15165102802E+02  0.18526575724E+02  0.00000000000E+00 0.  1.
</event>
<event>
 7    1  0.2430096E-009  0.4778721E+02  0.7816164E-02  0.1312668E+00
        -11   -1    0    0    0    0  0.00000000000E+00  0.00000000000E+00  0.45593999997E+02  0.45594000000E+02  0.51100000000E-03 0.  1.
         11   -1    0    0    0    0 -0.00000000000E+00 -0.00000000000E+00 -0.45593999997E+02  0.45594000000E+02  0.51100000000E-03 0. -1.
    9900012    2    1    2    0    0  0.17288086875E+02 -0.32076412763E+02 -0.23576565954E+02  0.47787208927E+02  0.19999716782E+02 0.  0.
        -12    1    1    2    0    0 -0.17288086875E+02  0.32076412763E+02  0.23576565954E+02  0.43400791073E+02  0.00000000000E+00 0.  1.
         11    1    3    3    0    0  0.82512728758E+01 -0.12734333982E+02 -0.92399893412E+01  0.17765814626E+02  0.51100000000E-03 0. -1.
        -11    1    3    3    0    0  0.12692379081E+02 -0.96217004745E+01 -0.96991270699E+01  0.18647966992E+02  0.51100000000E-03 0.  1.
        -12    1    3    3    0    0 -0.36555650825E+01 -0.97203783065E+01 -0.46374495432E+01  0.11373427309E+02  0.00000000000E+00 0.  1.
</event>
<event>
 7    1  0.2430096E-009  0.4778726E+02  0.7816164E-02  0.1312668E+00
        -11   -1    0    0    0    0  0.00000000000E+00  0.00000000000E+00  0.45593999997E+02  0.45594000000E+02  0.51100000000E-03 0.  1.
         11   -1    0    0    0    0 -0.00000000000E+00 -0.00000000000E+00 -0.45593999997E+02  0.45594000000E+02  0.51100000000E-03 0. -1.
    9900012    2    1    2    0    0 -0.29690979920E+02  0.98519755847E+01 -0.30083361001E+02  0.47787258985E+02  0.19999945015E+02 0.  0.
        -12    1    1    2    0    0  0.29690979920E+02 -0.98519755847E+01  0.30083361001E+02  0.43400741015E+02  0.00000000000E+00 0.  1.
         11    1    3    3    0    0 -0.68058744007E+01  0.75735759428E+01 -0.78122838357E+01  0.12833968907E+02  0.51100000000E-03 0. -1.
        -11    1    3    3    0    0 -0.22892291311E+02 -0.45484848135E+00 -0.15495867838E+02  0.27647528080E+02  0.51100000000E-03 0.  1.
        -12    1    3    3    0    0  0.71857913893E-02  0.27332481232E+01 -0.67752093273E+01  0.73057619977E+01  0.00000000000E+00 0.  1.
</event>
<event>
 7    1  0.2430096E-009  0.4778727E+02  0.7816164E-02  0.1312668E+00
        -11   -1    0    0    0    0  0.00000000000E+00  0.00000000000E+00  0.45593999997E+02  0.45594000000E+02  0.51100000000E-03 0.  1.
         11   -1    0    0    0    0 -0.00000000000E+00 -0.00000000000E+00 -0.45593999997E+02  0.45594000000E+02  0.51100000000E-03 0. -1.
    9900012    2    1    2    0    0 -0.19974737468E+02  0.36270088417E+02 -0.13004377506E+02  0.47787270916E+02  0.19999999414E+02 0.  0.
        -12    1    1    2    0    0  0.19974737468E+02 -0.36270088417E+02  0.13004377506E+02  0.43400729084E+02  0.00000000000E+00 0.  1.
         11    1    3    3    0    0 -0.86167845998E+01  0.16457875739E+02 -0.60421307875E+01  0.19535045313E+02  0.51100000000E-03 0. -1.
        -11    1    3    3    0    0 -0.21510288820E+01 -0.22497906529E+01 -0.23625121922E+01  0.39076780001E+01  0.51100000000E-03 0.  1.
        -12    1    3    3    0    0 -0.92069239861E+01  0.22062003331E+02 -0.45997345267E+01  0.24344547602E+02  0.00000000000E+00 0.  1.
</event>
<event>
 7    1  0.2430096E-009  0.4778727E+02  0.7816164E-02  0.1312668E+00
        -11   -1    0    0    0    0  0.00000000000E+00  0.00000000000E+00  0.45593999997E+02  0.45594000000E+02  0.51100000000E-03 0.  1.
         11   -1    0    0    0    0 -0.00000000000E+00 -0.00000000000E+00 -0.45593999997E+02  0.45594000000E+02  0.51100000000E-03 0. -1.
    9900012    2    1    2    0    0 -0.34087536611E+02  0.13316912275E+02 -0.23330726986E+02  0.47787272743E+02  0.20000007743E+02 0.  0.
        -12    1    1    2    0    0  0.34087536611E+02 -0.13316912275E+02  0.23330726986E+02  0.43400727257E+02  0.00000000000E+00 0.  1.
         11    1    3    3    0    0 -0.17789760631E+02 -0.23212847745E+01 -0.74928207570E+01  0.19442384357E+02  0.51100000000E-03 0. -1.
        -11    1    3    3    0    0 -0.10243449888E+02  0.13697410834E+02 -0.10748180494E+02  0.20200760217E+02  0.51100000000E-03 0.  1.
        -12    1    3    3    0    0 -0.60543260924E+01  0.19407862147E+01 -0.50897257350E+01  0.81441281683E+01  0.00000000000E+00 0.  1.
</event>
<event>
 7    1  0.2430096E-009  0.4778727E+02  0.7816164E-02  0.1312668E+00
        -11   -1    0    0    0    0  0.00000000000E+00  0.00000000000E+00  0.45593999997E+02  0.45594000000E+02  0.51100000000E-03 0.  1.
         11   -1    0    0    0    0 -0.00000000000E+00 -0.00000000000E+00 -0.45593999997E+02  0.45594000000E+02  0.51100000000E-03 0. -1.
    9900012    2    1    2    0    0 -0.20167723684E+01 -0.28181100697E+02 -0.32945127878E+02  0.47787271225E+02  0.20000000824E+02 0.  0.
        -12    1    1    2    0    0  0.20167723684E+01  0.28181100697E+02  0.32945127878E+02  0.43400728775E+02  0.00000000000E+00 0.  1.
         11    1    3    3    0    0 -0.22632540967E+01 -0.36561342971E+01 -0.47356952988E+01  0.63965965426E+01  0.51100000000E-03 0. -1.
        -11    1    3    3    0    0 -0.87245477211E+01 -0.13191181536E+02 -0.14006178361E+02  0.21125767105E+02  0.51100000000E-03 0.  1.
        -12    1    3    3    0    0  0.89710294494E+01 -0.11333784864E+02 -0.14203254219E+02  0.20264907578E+02  0.00000000000E+00 0.  1.
</event>
<event>
 7    1  0.2430096E-009  0.4778721E+02  0.7816164E-02  0.1312668E+00
        -11   -1    0    0    0    0  0.00000000000E+00  0.00000000000E+00  0.45593999997E+02  0.45594000000E+02  0.51100000000E-03 0.  1.
         11   -1    0    0    0    0 -0.00000000000E+00 -0.00000000000E+00 -0.45593999997E+02  0.45594000000E+02  0.51100000000E-03 0. -1.
    9900012    2    1    2    0    0 -0.12579818667E+02  0.35929432840E+02 -0.20843529149E+02  0.47787208656E+02  0.19999715543E+02 0.  0.
        -12    1    1    2    0    0  0.12579818667E+02 -0.35929432840E+02  0.20843529149E+02  0.43400791344E+02  0.00000000000E+00 0.  1.
         11    1    3    3    0    0 -0.10459912160E+02  0.30211298498E+02 -0.79824697658E+01  0.32952270683E+02  0.51100000000E-03 0. -1.
        -11    1    3    3    0    0 -0.76796277307E+00  0.79280058832E+00 -0.68882111438E+01  0.69760843326E+01  0.51100000000E-03 0.  1.
        -12    1    3    3    0    0 -0.13519437335E+01  0.49253337535E+01 -0.59728482395E+01  0.78588536399E+01  0.00000000000E+00 0.  1.
</event>
<event>
 7    1  0.2430096E-009  0.4778726E+02  0.7816164E-02  0.1312668E+00
        -11   -1    0    0    0    0  0.00000000000E+00  0.00000000000E+00  0.45593999997E+02  0.45594000000E+02  0.51100000000E-03 0.  1.
         11   -1    0    0    0    0 -0.00000000000E+00 -0.00000000000E+00 -0.45593999997E+02  0.45594000000E+02  0.51100000000E-03 0. -1.
    9900012    2    1    2    0    0 -0.37497656604E+02 -0.21568031719E+02 -0.35171010313E+01  0.47787259883E+02  0.19999949112E+02 0.  0.
        -12    1    1    2    0    0  0.37497656604E+02  0.21568031719E+02  0.35171010313E+01  0.43400740117E+02  0.00000000000E+00 0.  1.
         11    1    3    3    0    0 -0.10673322759E+02  0.25964648499E+01 -0.30472674719E+01  0.11399442432E+02  0.51100000000E-03 0.  1.
        -11    1    3    3    0    0 -0.23020838061E+02 -0.18988707848E+02 -0.15155765332E+01  0.29880210562E+02  0.51100000000E-03 0. -1.
        -12    1    3    3    0    0 -0.38034957838E+01 -0.51757887211E+01  0.10457429738E+01  0.65076068897E+01  0.00000000000E+00 0.  1.
</event>
<event>
 7    1  0.2430096E-009  0.4778727E+02  0.7816164E-02  0.1312668E+00
        -11   -1    0    0    0    0  0.00000000000E+00  0.00000000000E+00  0.45593999997E+02  0.45594000000E+02  0.51100000000E-03 0.  1.
         11   -1    0    0    0    0 -0.00000000000E+00 -0.00000000000E+00 -0.45593999997E+02  0.45594000000E+02  0.51100000000E-03 0. -1.
    9900012    2    1    2    0    0  0.42228673777E+02 -0.99191197802E+01 -0.14048474239E+01  0.47787269332E+02  0.19999992193E+02 0.  0.
        -12    1    1    2    0    0 -0.42228673777E+02  0.99191197802E+01  0.14048474239E+01  0.43400730668E+02  0.00000000000E+00 0.  1.
         11    1    3    3    0    0  0.38322645698E+02 -0.65787122164E+01 -0.33394496692E+01  0.39026357146E+02  0.51100000000E-03 0. -1.
        -11    1    3    3    0    0  0.18315779478E+01 -0.15058628829E+01  0.44354984660E+01  0.50295076999E+01  0.51100000000E-03 0.  1.
         12    1    3    3    0    0  0.20744501315E+01 -0.18345446809E+01 -0.25008962207E+01  0.37314044864E+01  0.00000000000E+00 0. -1.
</event>
<event>
 7    1  0.2430096E-009  0.4778727E+02  0.7816164E-02  0.1312668E+00
        -11   -1    0    0    0    0  0.00000000000E+00  0.00000000000E+00  0.45593999997E+02  0.45594000000E+02  0.51100000000E-03 0.  1.
         11   -1    0    0    0    0 -0.00000000000E+00 -0.00000000000E+00 -0.45593999997E+02  0.45594000000E+02  0.51100000000E-03 0. -1.
    9900012    2    1    2    0    0  0.22445861123E+01 -0.30354989761E+02 -0.30937999213E+02  0.47787269989E+02  0.19999995188E+02 0.  0.
        -12    1    1    2    0    0 -0.22445861123E+01  0.30354989761E+02  0.30937999213E+02  0.43400730011E+02  0.00000000000E+00 0.  1.
         11    1    3    3    0    0  0.19236054321E+01 -0.31028521028E+00 -0.11632004642E+02  0.11794069146E+02  0.51100000000E-03 0. -1.
        -11    1    3    3    0    0 -0.20171861635E+01 -0.16623746633E+02 -0.10217863830E+02  0.19616899185E+02  0.51100000000E-03 0.  1.
         12    1    3    3    0    0  0.23381668437E+01 -0.13420957918E+02 -0.90881307401E+01  0.16376301658E+02  0.00000000000E+00 0. -1.
</event>
<event>
 7    1  0.2430096E-009  0.4778728E+02  0.7816164E-02  0.1312668E+00
        -11   -1    0    0    0    0  0.00000000000E+00  0.00000000000E+00  0.45593999997E+02  0.45594000000E+02  0.51100000000E-03 0.  1.
         11   -1    0    0    0    0 -0.00000000000E+00 -0.00000000000E+00 -0.45593999997E+02  0.45594000000E+02  0.51100000000E-03 0. -1.
    9900012    2    1    2    0    0 -0.17011032189E+01 -0.38343026875E+01 -0.43197534444E+02  0.47787278678E+02  0.20000034804E+02 0.  0.
        -12    1    1    2    0    0  0.17011032189E+01  0.38343026875E+01  0.43197534444E+02  0.43400721322E+02  0.00000000000E+00 0.  1.
         11    1    3    3    0    0 -0.40192040092E+01 -0.34108438693E+01 -0.21615597277E+02  0.22249087682E+02  0.51100000000E-03 0. -1.
        -11    1    3    3    0    0  0.74514689886E+01  0.26181724290E+00 -0.17228074818E+02  0.18772306745E+02  0.51100000000E-03 0.  1.
        -12    1    3    3    0    0 -0.51333681983E+01 -0.68527606111E+00 -0.43538623489E+01  0.67658842506E+01  0.00000000000E+00 0.  1.
</event>
<event>
 7    1  0.2430096E-009  0.4778727E+02  0.7816164E-02  0.1312668E+00
        -11   -1    0    0    0    0  0.00000000000E+00  0.00000000000E+00  0.45593999997E+02  0.45594000000E+02  0.51100000000E-03 0.  1.
         11   -1    0    0    0    0 -0.00000000000E+00 -0.00000000000E+00 -0.45593999997E+02  0.45594000000E+02  0.51100000000E-03 0. -1.
    9900012    2    1    2    0    0  0.12458124897E+02  0.38587069101E+02 -0.15474387443E+02  0.47787269079E+02  0.19999991037E+02 0.  0.
        -12    1    1    2    0    0 -0.12458124897E+02 -0.38587069101E+02  0.15474387443E+02  0.43400730921E+02  0.00000000000E+00 0.  1.
         11    1    3    3    0    0 -0.50822864103E+01  0.93197476539E+01 -0.57854331750E+01  0.12089605815E+02  0.51100000000E-03 0. -1.
        -11    1    3    3    0    0  0.80712203692E+01  0.16620509780E+02 -0.39921747213E+01  0.18902999837E+02  0.51100000000E-03 0.  1.
         12    1    3    3    0    0  0.94691909380E+01  0.12646811668E+02 -0.56967795469E+01  0.16794663426E+02  0.00000000000E+00 0. -1.
</event>
<event>
 7    1  0.2430096E-009  0.4778727E+02  0.7816164E-02  0.1312668E+00
        -11   -1    0    0    0    0  0.00000000000E+00  0.00000000000E+00  0.45593999997E+02  0.45594000000E+02  0.51100000000E-03 0. -1.
         11   -1    0    0    0    0 -0.00000000000E+00 -0.00000000000E+00 -0.45593999997E+02  0.45594000000E+02  0.51100000000E-03 0.  1.
    9900012    2    1    2    0    0  0.27573440516E+02  0.19554021761E+02  0.27220738423E+02  0.47787274324E+02  0.20000014955E+02 0.  0.
        -12    1    1    2    0    0 -0.27573440516E+02 -0.19554021761E+02 -0.27220738423E+02  0.43400725676E+02  0.00000000000E+00 0.  1.
         11    1    3    3    0    0  0.12857176164E+02  0.11735551498E+02  0.72197892202E+01  0.18845569891E+02  0.51100000000E-03 0. -1.
        -11    1    3    3    0    0  0.99011206373E+01  0.66151821916E+01  0.20748361401E+02  0.23922527592E+02  0.51100000000E-03 0.  1.
        -12    1    3    3    0    0  0.48151437139E+01  0.12032880710E+01 -0.74741219840E+00  0.50191768411E+01  0.00000000000E+00 0.  1.
</event>
<event>
 7    1  0.2430096E-009  0.4778727E+02  0.7816164E-02  0.1312668E+00
        -11   -1    0    0    0    0  0.00000000000E+00  0.00000000000E+00  0.45593999997E+02  0.45594000000E+02  0.51100000000E-03 0.  1.
         11   -1    0    0    0    0 -0.00000000000E+00 -0.00000000000E+00 -0.45593999997E+02  0.45594000000E+02  0.51100000000E-03 0. -1.
    9900012    2    1    2    0    0 -0.14292266868E+02 -0.40620117982E+02 -0.54185151650E+01  0.47787272084E+02  0.20000004739E+02 0.  0.
        -12    1    1    2    0    0  0.14292266868E+02  0.40620117982E+02  0.54185151650E+01  0.43400727916E+02  0.00000000000E+00 0.  1.
         11    1    3    3    0    0 -0.42763535206E+01 -0.18869532630E+02  0.53383624796E+01  0.20070988400E+02  0.51100000000E-03 0. -1.
        -11    1    3    3    0    0 -0.47244493992E+01 -0.28420791334E+01 -0.44749168617E+01  0.71008955144E+01  0.51100000000E-03 0.  1.
         12    1    3    3    0    0 -0.52914639478E+01 -0.18908506218E+02 -0.62819607830E+01  0.20615388170E+02  0.00000000000E+00 0. -1.
</event>
<event>
 7    1  0.2430096E-009  0.4778727E+02  0.7816164E-02  0.1312668E+00
        -11   -1    0    0    0    0  0.00000000000E+00  0.00000000000E+00  0.45593999997E+02  0.45594000000E+02  0.51100000000E-03 0.  1.
         11   -1    0    0    0    0 -0.00000000000E+00 -0.00000000000E+00 -0.45593999997E+02  0.45594000000E+02  0.51100000000E-03 0. -1.
    9900012    2    1    2    0    0  0.26906444193E+02  0.13643236319E+02 -0.31201417103E+02  0.47787273443E+02  0.20000010937E+02 0.  0.
        -12    1    1    2    0    0 -0.26906444193E+02 -0.13643236319E+02  0.31201417103E+02  0.43400726557E+02  0.00000000000E+00 0.  1.
         11    1    3    3    0    0  0.93966308344E+01  0.98285390435E+01 -0.79873164997E+01  0.15770037283E+02  0.51100000000E-03 0. -1.
        -11    1    3    3    0    0  0.18447492487E+02  0.47554167595E+00 -0.18184780911E+02  0.25907959703E+02  0.51100000000E-03 0.  1.
        -12    1    3    3    0    0 -0.93767912764E+00  0.33391555997E+01 -0.50293196926E+01  0.61092764576E+01  0.00000000000E+00 0.  1.
</event>
<event>
 7    1  0.2430096E-009  0.4778727E+02  0.7816164E-02  0.1312668E+00
        -11   -1    0    0    0    0  0.00000000000E+00  0.00000000000E+00  0.45593999997E+02  0.45594000000E+02  0.51100000000E-03 0. -1.
         11   -1    0    0    0    0 -0.00000000000E+00 -0.00000000000E+00 -0.45593999997E+02  0.45594000000E+02  0.51100000000E-03 0.  1.
    9900012    2    1    2    0    0 -0.21871927201E+02  0.11875610169E+02  0.35555757348E+02  0.47787271931E+02  0.20000004041E+02 0.  0.
        -12    1    1    2    0    0  0.21871927201E+02 -0.11875610169E+02 -0.35555757348E+02  0.43400728069E+02  0.00000000000E+00 0.  1.
         11    1    3    3    0    0 -0.65760770985E+01 -0.20705673244E+01  0.17817041388E+02  0.19104423654E+02  0.51100000000E-03 0. -1.
        -11    1    3    3    0    0  0.77251566351E+00  0.19872117936E+01  0.35567737400E+00  0.21615498649E+01  0.51100000000E-03 0.  1.
         12    1    3    3    0    0 -0.16068365766E+02  0.11958965700E+02  0.17383038585E+02  0.26521298412E+02  0.00000000000E+00 0. -1.
</event>
<event>
 7    1  0.2430096E-009  0.4778727E+02  0.7816164E-02  0.1312668E+00
        -11   -1    0    0    0    0  0.00000000000E+00  0.00000000000E+00  0.45593999997E+02  0.45594000000E+02  0.51100000000E-03 0.  1.
         11   -1    0    0    0    0 -0.00000000000E+00 -0.00000000000E+00 -0.45593999997E+02  0.45594000000E+02  0.51100000000E-03 0. -1.
    9900012    2    1    2    0    0  0.28818783609E+02 -0.31739879391E+02 -0.67587808020E+01  0.47787270163E+02  0.19999995981E+02 0.  0.
        -12    1    1    2    0    0 -0.28818783609E+02  0.31739879391E+02  0.67587808020E+01  0.43400729837E+02  0.00000000000E+00 0.  1.
         11    1    3    3    0    0  0.16079404958E+02 -0.12694420095E+02  0.15140347163E+01  0.20542343263E+02  0.51100000000E-03 0. -1.
        -11    1    3    3    0    0  0.10362229212E+02 -0.20126630925E+02 -0.92529899647E+01  0.24455569717E+02  0.51100000000E-03 0.  1.
        -12    1    3    3    0    0  0.23771494388E+01  0.10811716294E+01  0.98017444641E+00  0.27893571825E+01  0.00000000000E+00 0.  1.
</event>
<event>
 7    1  0.2430096E-009  0.4778727E+02  0.7816164E-02  0.1312668E+00
        -11   -1    0    0    0    0  0.00000000000E+00  0.00000000000E+00  0.45593999997E+02  0.45594000000E+02  0.51100000000E-03 0.  1.
         11   -1    0    0    0    0 -0.00000000000E+00 -0.00000000000E+00 -0.45593999997E+02  0.45594000000E+02  0.51100000000E-03 0. -1.
    9900012    2    1    2    0    0 -0.55521080577E+01 -0.19096806596E+02 -0.38576019130E+02  0.47787272149E+02  0.20000005036E+02 0.  0.
        -12    1    1    2    0    0  0.55521080577E+01  0.19096806596E+02  0.38576019130E+02  0.43400727851E+02  0.00000000000E+00 0.  1.
         11    1    3    3    0    0 -0.27756842951E+01 -0.41444153177E+01 -0.25703506580E+02  0.26183026036E+02  0.51100000000E-03 0. -1.
        -11    1    3    3    0    0  0.13996858350E+01 -0.38744241767E+01 -0.56967419010E-02  0.41195043212E+01  0.51100000000E-03 0.  1.
         12    1    3    3    0    0 -0.41761095976E+01 -0.11077967102E+02 -0.12866815808E+02  0.17484741791E+02  0.00000000000E+00 0. -1.
</event>
<event>
 7    1  0.2430096E-009  0.4778728E+02  0.7816164E-02  0.1312668E+00
        -11   -1    0    0    0    0  0.00000000000E+00  0.00000000000E+00  0.45593999997E+02  0.45594000000E+02  0.51100000000E-03 0.  1.
         11   -1    0    0    0    0 -0.00000000000E+00 -0.00000000000E+00 -0.45593999997E+02  0.45594000000E+02  0.51100000000E-03 0. -1.
    9900012    2    1    2    0    0 -0.42081514843E+02 -0.10546929404E+02  0.12374497885E+01  0.47787275429E+02  0.20000019990E+02 0.  0.
        -12    1    1    2    0    0  0.42081514843E+02  0.10546929404E+02 -0.12374497885E+01  0.43400724571E+02  0.00000000000E+00 0.  1.
         11    1    3    3    0    0 -0.18326269458E+02 -0.99050320139E+01 -0.42327834954E+01  0.21257428533E+02  0.51100000000E-03 0. -1.
        -11    1    3    3    0    0 -0.87453884069E+01  0.44992955979E+01  0.39237258238E+01  0.10588725318E+02  0.51100000000E-03 0.  1.
        -12    1    3    3    0    0 -0.15009856978E+02 -0.51411929877E+01  0.15465074601E+01  0.15941121578E+02  0.00000000000E+00 0.  1.
</event>
<event>
 7    1  0.2430096E-009  0.4778727E+02  0.7816164E-02  0.1312668E+00
        -11   -1    0    0    0    0  0.00000000000E+00  0.00000000000E+00  0.45593999997E+02  0.45594000000E+02  0.51100000000E-03 0.  1.
         11   -1    0    0    0    0 -0.00000000000E+00 -0.00000000000E+00 -0.45593999997E+02  0.45594000000E+02  0.51100000000E-03 0. -1.
    9900012    2    1    2    0    0 -0.27718044382E+02  0.86741635779E+01 -0.32250461031E+02  0.47787270342E+02  0.19999996799E+02 0.  0.
        -12    1    1    2    0    0  0.27718044382E+02 -0.86741635779E+01  0.32250461031E+02  0.43400729658E+02  0.00000000000E+00 0.  1.
         11    1    3    3    0    0 -0.40630383464E+01  0.23822060654E+01 -0.90881498647E+01  0.10236095670E+02  0.51100000000E-03 0. -1.
        -11    1    3    3    0    0 -0.21817413347E+02  0.11050004156E+02 -0.19160288300E+02  0.31067970081E+02  0.51100000000E-03 0.  1.
        -12    1    3    3    0    0 -0.18375926883E+01 -0.47580466432E+01 -0.40020228662E+01  0.64832045910E+01  0.00000000000E+00 0.  1.
</event>
<event>
 7    1  0.2430096E-009  0.4778727E+02  0.7816164E-02  0.1312668E+00
        -11   -1    0    0    0    0  0.00000000000E+00  0.00000000000E+00  0.45593999997E+02  0.45594000000E+02  0.51100000000E-03 0. -1.
         11   -1    0    0    0    0 -0.00000000000E+00 -0.00000000000E+00 -0.45593999997E+02  0.45594000000E+02  0.51100000000E-03 0.  1.
    9900012    2    1    2    0    0  0.19334272434E+02 -0.34891081347E+02 -0.17100339967E+02  0.47787271031E+02  0.19999999938E+02 0.  0.
        -12    1    1    2    0    0 -0.19334272434E+02  0.34891081347E+02  0.17100339967E+02  0.43400728969E+02  0.00000000000E+00 0.  1.
         11    1    3    3    0    0  0.13453989000E+02 -0.31126720517E+02 -0.13952640459E+02  0.36668225021E+02  0.51100000000E-03 0. -1.
        -11    1    3    3    0    0  0.62155800433E+01 -0.15052007553E+01  0.91304826642E+00  0.64600868405E+01  0.51100000000E-03 0.  1.
         12    1    3    3    0    0 -0.33529660972E+00 -0.22591600744E+01 -0.40607477740E+01  0.46589591694E+01  0.00000000000E+00 0. -1.
</event>
<event>
 7    1  0.2430096E-009  0.4778727E+02  0.7816164E-02  0.1312668E+00
        -11   -1    0    0    0    0  0.00000000000E+00  0.00000000000E+00  0.45593999997E+02  0.45594000000E+02  0.51100000000E-03 0.  1.
         11   -1    0    0    0    0 -0.00000000000E+00 -0.00000000000E+00 -0.45593999997E+02  0.45594000000E+02  0.51100000000E-03 0. -1.
    9900012    2    1    2    0    0  0.35782412015E+02  0.12268427298E+02 -0.21277404944E+02  0.47787270984E+02  0.19999999724E+02 0.  0.
        -12    1    1    2    0    0 -0.35782412015E+02 -0.12268427298E+02  0.21277404944E+02  0.43400729016E+02  0.00000000000E+00 0.  1.
         11    1    3    3    0    0  0.23579691161E+02  0.89579111450E+01 -0.13263362531E+02  0.28498470015E+02  0.51100000000E-03 0. -1.
        -11    1    3    3    0    0  0.10727911117E+01 -0.33148343372E+01  0.85899620875E+00  0.35884372922E+01  0.51100000000E-03 0.  1.
        -12    1    3    3    0    0  0.11129929743E+02  0.66253504899E+01 -0.88730386217E+01  0.15700363677E+02  0.00000000000E+00 0.  1.
</event>
<event>
 7    1  0.2430096E-009  0.4778728E+02  0.7816164E-02  0.1312668E+00
        -11   -1    0    0    0    0  0.00000000000E+00  0.00000000000E+00  0.45593999997E+02  0.45594000000E+02  0.51100000000E-03 0.  1.
         11   -1    0    0    0    0 -0.00000000000E+00 -0.00000000000E+00 -0.45593999997E+02  0.45594000000E+02  0.51100000000E-03 0. -1.
    9900012    2    1    2    0    0 -0.12157480611E+02 -0.13183191562E+02 -0.39522422704E+02  0.47787276838E+02  0.20000026416E+02 0.  0.
        -12    1    1    2    0    0  0.12157480611E+02  0.13183191562E+02  0.39522422704E+02  0.43400723162E+02  0.00000000000E+00 0.  1.
         11    1    3    3    0    0 -0.11729875948E+02 -0.72429441925E+00 -0.22244627677E+02  0.25158260133E+02  0.51100000000E-03 0. -1.
        -11    1    3    3    0    0 -0.30389144111E+01 -0.97498707454E+01 -0.93176765289E+01  0.13824401488E+02  0.51100000000E-03 0.  1.
         12    1    3    3    0    0  0.26113097478E+01 -0.27090263969E+01 -0.79601184977E+01  0.88046152167E+01  0.00000000000E+00 0. -1.
</event>
<event>
 7    1  0.2430096E-009  0.4778728E+02  0.7816164E-02  0.1312668E+00
        -11   -1    0    0    0    0  0.00000000000E+00  0.00000000000E+00  0.45593999997E+02  0.45594000000E+02  0.51100000000E-03 0.  1.
         11   -1    0    0    0    0 -0.00000000000E+00 -0.00000000000E+00 -0.45593999997E+02  0.45594000000E+02  0.51100000000E-03 0. -1.
    9900012    2    1    2    0    0  0.80726552969E+01 -0.18600925158E+02 -0.38372648120E+02  0.47787282218E+02  0.20000050946E+02 0.  0.
        -12    1    1    2    0    0 -0.80726552969E+01  0.18600925158E+02  0.38372648120E+02  0.43400717782E+02  0.00000000000E+00 0.  1.
         11    1    3    3    0    0  0.37137424456E+01 -0.15187627138E+02 -0.16025079578E+02  0.22388815886E+02  0.51100000000E-03 0. -1.
        -11    1    3    3    0    0  0.77076716689E+01 -0.90234211052E+00 -0.16179620083E+02  0.17944428944E+02  0.51100000000E-03 0.  1.
         12    1    3    3    0    0 -0.33487588176E+01 -0.25109559088E+01 -0.61679484583E+01  0.74540373878E+01  0.00000000000E+00 0. -1.
</event>
<event>
 7    1  0.2430096E-009  0.4778727E+02  0.7816164E-02  0.1312668E+00
        -11   -1    0    0    0    0  0.00000000000E+00  0.00000000000E+00  0.45593999997E+02  0.45594000000E+02  0.51100000000E-03 0.  1.
         11   -1    0    0    0    0 -0.00000000000E+00 -0.00000000000E+00 -0.45593999997E+02  0.45594000000E+02  0.51100000000E-03 0. -1.
    9900012    2    1    2    0    0 -0.31743647833E+02 -0.24287277732E+02  0.16914262348E+02  0.47787270650E+02  0.19999998201E+02 0.  0.
        -12    1    1    2    0    0  0.31743647833E+02  0.24287277732E+02 -0.16914262348E+02  0.43400729350E+02  0.00000000000E+00 0.  1.
         11    1    3    3    0    0 -0.15125075970E+02 -0.91589504593E+01  0.14258290927E+02  0.22714602287E+02  0.51100000000E-03 0. -1.
        -11    1    3    3    0    0 -0.11608544438E+02 -0.78196177736E+01  0.64773911940E+01  0.15422753419E+02  0.51100000000E-03 0.  1.
         12    1    3    3    0    0 -0.50100274242E+01 -0.73087094994E+01 -0.38214197731E+01  0.96499149437E+01  0.00000000000E+00 0. -1.
</event>
<event>
 7    1  0.2430096E-009  0.4778725E+02  0.7816164E-02  0.1312668E+00
        -11   -1    0    0    0    0  0.00000000000E+00  0.00000000000E+00  0.45593999997E+02  0.45594000000E+02  0.51100000000E-03 0. -1.
         11   -1    0    0    0    0 -0.00000000000E+00 -0.00000000000E+00 -0.45593999997E+02  0.45594000000E+02  0.51100000000E-03 0.  1.
    9900012    2    1    2    0    0  0.38131716243E+02 -0.19998103726E+02  0.54473370486E+01  0.47787246353E+02  0.19999887420E+02 0.  0.
        -12    1    1    2    0    0 -0.38131716243E+02  0.19998103726E+02 -0.54473370486E+01  0.43400753647E+02  0.00000000000E+00 0.  1.
         11    1    3    3    0    0  0.18685110573E+02 -0.13839323905E+02  0.11518823687E+02  0.25948863995E+02  0.51100000000E-03 0. -1.
        -11    1    3    3    0    0  0.16988371301E+02 -0.36574817895E+01 -0.58035478859E+01  0.18321110797E+02  0.51100000000E-03 0.  1.
        -12    1    3    3    0    0  0.24582343691E+01 -0.25012980315E+01 -0.26793875251E+00  0.35172715606E+01  0.00000000000E+00 0.  1.
</event>
<event>
 7    1  0.2430096E-009  0.4778728E+02  0.7816164E-02  0.1312668E+00
        -11   -1    0    0    0    0  0.00000000000E+00  0.00000000000E+00  0.45593999997E+02  0.45594000000E+02  0.51100000000E-03 0.  1.
         11   -1    0    0    0    0 -0.00000000000E+00 -0.00000000000E+00 -0.45593999997E+02  0.45594000000E+02  0.51100000000E-03 0. -1.
    9900012    2    1    2    0    0  0.23257507524E+02 -0.95120720823E+01 -0.35386886141E+02  0.47787275556E+02  0.20000020570E+02 0.  0.
        -12    1    1    2    0    0 -0.23257507524E+02  0.95120720823E+01  0.35386886141E+02  0.43400724444E+02  0.00000000000E+00 0.  1.
         11    1    3    3    0    0  0.21779228729E+02 -0.43048750280E+01 -0.24607524030E+02  0.33142072841E+02  0.51100000000E-03 0. -1.
        -11    1    3    3    0    0 -0.15003370601E+01  0.11194457347E+01 -0.57078850703E+01  0.60070060999E+01  0.51100000000E-03 0.  1.
         12    1    3    3    0    0  0.29786158552E+01 -0.63266427890E+01 -0.50714770406E+01  0.86381966154E+01  0.00000000000E+00 0. -1.
</event>
<event>
 7    1  0.2430096E-009  0.4778728E+02  0.7816164E-02  0.1312668E+00
        -11   -1    0    0    0    0  0.00000000000E+00  0.00000000000E+00  0.45593999997E+02  0.45594000000E+02  0.51100000000E-03 0. -1.
         11   -1    0    0    0    0 -0.00000000000E+00 -0.00000000000E+00 -0.45593999997E+02  0.45594000000E+02  0.51100000000E-03 0.  1.
    9900012    2    1    2    0    0 -0.94863230799E+01  0.17102935393E+02  0.38744316481E+02  0.47787276686E+02  0.20000025720E+02 0.  0.
        -12    1    1    2    0    0  0.94863230799E+01 -0.17102935393E+02 -0.38744316481E+02  0.43400723314E+02  0.00000000000E+00 0.  1.
         11    1    3    3    0    0 -0.36538955861E+01 -0.33541937048E+01  0.65911608716E+01  0.82489375231E+01  0.51100000000E-03 0.  1.
        -11    1    3    3    0    0 -0.72213997167E+01  0.18107801524E+02  0.23881270219E+02  0.30827847110E+02  0.51100000000E-03 0. -1.
         12    1    3    3    0    0  0.13889722229E+01  0.23493275741E+01  0.82718853901E+01  0.87104920523E+01  0.00000000000E+00 0. -1.
</event>
<event>
 7    1  0.2430096E-009  0.4778727E+02  0.7816164E-02  0.1312668E+00
        -11   -1    0    0    0    0  0.00000000000E+00  0.00000000000E+00  0.45593999997E+02  0.45594000000E+02  0.51100000000E-03 0.  1.
         11   -1    0    0    0    0 -0.00000000000E+00 -0.00000000000E+00 -0.45593999997E+02  0.45594000000E+02  0.51100000000E-03 0. -1.
    9900012    2    1    2    0    0 -0.19532446726E+02 -0.22724693842E+02 -0.31395785141E+02  0.47787268325E+02  0.19999987602E+02 0.  0.
        -12    1    1    2    0    0  0.19532446726E+02  0.22724693842E+02  0.31395785141E+02  0.43400731675E+02  0.00000000000E+00 0.  1.
         11    1    3    3    0    0 -0.59581698502E+01 -0.93039765667E+00 -0.13792822668E+01  0.61861011628E+01  0.51100000000E-03 0. -1.
        -11    1    3    3    0    0 -0.10428036937E+01 -0.13578214665E+02 -0.16751567413E+02  0.21588662860E+02  0.51100000000E-03 0.  1.
         12    1    3    3    0    0 -0.12531473183E+02 -0.82160815202E+01 -0.13264935461E+02  0.20012504302E+02  0.00000000000E+00 0. -1.
</event>
<event>
 7    1  0.2430096E-009  0.4778727E+02  0.7816164E-02  0.1312668E+00
        -11   -1    0    0    0    0  0.00000000000E+00  0.00000000000E+00  0.45593999997E+02  0.45594000000E+02  0.51100000000E-03 0.  1.
         11   -1    0    0    0    0 -0.00000000000E+00 -0.00000000000E+00 -0.45593999997E+02  0.45594000000E+02  0.51100000000E-03 0. -1.
    9900012    2    1    2    0    0 -0.22440318884E+02 -0.37096040245E+02  0.19847865991E+01  0.47787268540E+02  0.19999988579E+02 0.  0.
        -12    1    1    2    0    0  0.22440318884E+02  0.37096040245E+02 -0.19847865991E+01  0.43400731460E+02  0.00000000000E+00 0.  1.
         11    1    3    3    0    0 -0.10585092798E+02 -0.89173958129E+01 -0.19371176209E+01  0.13975570205E+02  0.51100000000E-03 0. -1.
        -11    1    3    3    0    0 -0.10366091922E+02 -0.29183529263E+02  0.17868473078E+01  0.31021396899E+02  0.51100000000E-03 0.  1.
        -12    1    3    3    0    0 -0.14891341643E+01  0.10048848314E+01  0.21350569122E+01  0.27903014357E+01  0.00000000000E+00 0.  1.
</event>
<event>
 7    1  0.2430096E-009  0.4778727E+02  0.7816164E-02  0.1312668E+00
        -11   -1    0    0    0    0  0.00000000000E+00  0.00000000000E+00  0.45593999997E+02  0.45594000000E+02  0.51100000000E-03 0. -1.
         11   -1    0    0    0    0 -0.00000000000E+00 -0.00000000000E+00 -0.45593999997E+02  0.45594000000E+02  0.51100000000E-03 0.  1.
    9900012    2    1    2    0    0  0.10567667380E+02  0.22721963580E+02 -0.35435292197E+02  0.47787272404E+02  0.20000006200E+02 0.  0.
        -12    1    1    2    0    0 -0.10567667380E+02 -0.22721963580E+02  0.35435292197E+02  0.43400727596E+02  0.00000000000E+00 0.  1.
         11    1    3    3    0    0 -0.28729189203E+00  0.82343156701E+01 -0.48794079433E+01  0.95757565406E+01  0.51100000000E-03 0. -1.
        -11    1    3    3    0    0  0.76730193014E+01  0.12430387618E+02 -0.31122584993E+02  0.34380300441E+02  0.51100000000E-03 0.  1.
        -12    1    3    3    0    0  0.31819399708E+01  0.20572602919E+01  0.56670073938E+00  0.38312154226E+01  0.00000000000E+00 0.  1.
</event>
<event>
 7    1  0.2430096E-009  0.4778728E+02  0.7816164E-02  0.1312668E+00
        -11   -1    0    0    0    0  0.00000000000E+00  0.00000000000E+00  0.45593999997E+02  0.45594000000E+02  0.51100000000E-03 0.  1.
         11   -1    0    0    0    0 -0.00000000000E+00 -0.00000000000E+00 -0.45593999997E+02  0.45594000000E+02  0.51100000000E-03 0. -1.
    9900012    2    1    2    0    0  0.28655940639E+02 -0.31032122298E+02 -0.99732981603E+01  0.47787283135E+02  0.20000055126E+02 0.  0.
        -12    1    1    2    0    0 -0.28655940639E+02  0.31032122298E+02  0.99732981603E+01  0.43400716865E+02  0.00000000000E+00 0.  1.
         11    1    3    3    0    0  0.21253758033E+02 -0.20104361183E+02 -0.12194726673E+02  0.31695724128E+02  0.51100000000E-03 0. -1.
        -11    1    3    3    0    0 -0.15003781411E+01 -0.61989341932E+00 -0.12349325484E+01  0.20397208333E+01  0.51100000000E-03 0.  1.
         12    1    3    3    0    0  0.89025607472E+01 -0.10307867695E+02  0.34563610612E+01  0.14051838174E+02  0.00000000000E+00 0. -1.
</event>
<event>
 7    1  0.2430096E-009  0.4778726E+02  0.7816164E-02  0.1312668E+00
        -11   -1    0    0    0    0  0.00000000000E+00  0.00000000000E+00  0.45593999997E+02  0.45594000000E+02  0.51100000000E-03 0.  1.
         11   -1    0    0    0    0 -0.00000000000E+00 -0.00000000000E+00 -0.45593999997E+02  0.45594000000E+02  0.51100000000E-03 0. -1.
    9900012    2    1    2    0    0 -0.66505149206E+01 -0.25792287418E+02 -0.34265914573E+02  0.47787258757E+02  0.19999943975E+02 0.  0.
        -12    1    1    2    0    0  0.66505149206E+01  0.25792287418E+02  0.34265914573E+02  0.43400741243E+02  0.00000000000E+00 0.  1.
         11    1    3    3    0    0 -0.82499387457E+01 -0.23324076489E+02 -0.27249349532E+02  0.36804905699E+02  0.51100000000E-03 0. -1.
        -11    1    3    3    0    0 -0.13684475306E+01  0.23754244886E+01 -0.18828920089E+01  0.33257439353E+01  0.51100000000E-03 0.  1.
         12    1    3    3    0    0  0.29678713557E+01 -0.48436354177E+01 -0.51336730321E+01  0.76566091218E+01  0.00000000000E+00 0. -1.
</event>
<event>
 7    1  0.2430096E-009  0.4778728E+02  0.7816164E-02  0.1312668E+00
        -11   -1    0    0    0    0  0.00000000000E+00  0.00000000000E+00  0.45593999997E+02  0.45594000000E+02  0.51100000000E-03 0.  1.
         11   -1    0    0    0    0 -0.00000000000E+00 -0.00000000000E+00 -0.45593999997E+02  0.45594000000E+02  0.51100000000E-03 0. -1.
    9900012    2    1    2    0    0 -0.17099184179E+02  0.27481242334E+02 -0.28914035322E+02  0.47787283204E+02  0.20000055441E+02 0.  0.
        -12    1    1    2    0    0  0.17099184179E+02 -0.27481242334E+02  0.28914035322E+02  0.43400716796E+02  0.00000000000E+00 0.  1.
         11    1    3    3    0    0 -0.11561500812E+02  0.17074636296E+02 -0.55832288906E+01  0.21363144683E+02  0.51100000000E-03 0. -1.
        -11    1    3    3    0    0 -0.23789260828E+01  0.76115234867E+01 -0.12811013685E+02  0.15090283330E+02  0.51100000000E-03 0.  1.
         12    1    3    3    0    0 -0.31587572835E+01  0.27950825521E+01 -0.10519792746E+02  0.11333855190E+02  0.00000000000E+00 0. -1.
</event>
<event>
 7    1  0.2926073E-009  0.4778727E+02  0.7816164E-02  0.1312668E+00
        -11   -1    0    0    0    0  0.00000000000E+00  0.00000000000E+00  0.45593999997E+02  0.45594000000E+02  0.51100000000E-03 0.  1.
         11   -1    0    0    0    0 -0.00000000000E+00 -0.00000000000E+00 -0.45593999997E+02  0.45594000000E+02  0.51100000000E-03 0. -1.
    9900012    2    1    2    0    0  0.35453053298E+02  0.12181839416E+02 -0.21870238254E+02  0.47787268197E+02  0.19999987019E+02 0.  0.
        -12    1    1    2    0    0 -0.35453053298E+02 -0.12181839416E+02  0.21870238254E+02  0.43400731803E+02  0.00000000000E+00 0.  1.
         11    1    3    3    0    0  0.13162482825E+02  0.24054857882E+01 -0.13433592887E+02  0.18960451843E+02  0.51100000000E-03 0. -1.
        -11    1    3    3    0    0  0.61236532330E+01 -0.10591930650E+01  0.22673134346E+01  0.66152648729E+01  0.51100000000E-03 0.  1.
        -12    1    3    3    0    0  0.16166917240E+02  0.10835546692E+02 -0.10703958802E+02  0.22211551481E+02  0.00000000000E+00 0.  1.
</event>
<event>
 7    1  0.2430096E-009  0.4778727E+02  0.7816164E-02  0.1312668E+00
        -11   -1    0    0    0    0  0.00000000000E+00  0.00000000000E+00  0.45593999997E+02  0.45594000000E+02  0.51100000000E-03 0.  1.
         11   -1    0    0    0    0 -0.00000000000E+00 -0.00000000000E+00 -0.45593999997E+02  0.45594000000E+02  0.51100000000E-03 0. -1.
    9900012    2    1    2    0    0  0.81654419950E+01 -0.38980393340E+02 -0.17247545165E+02  0.47787270488E+02  0.19999997464E+02 0.  0.
        -12    1    1    2    0    0 -0.81654419950E+01  0.38980393340E+02  0.17247545165E+02  0.43400729512E+02  0.00000000000E+00 0.  1.
         11    1    3    3    0    0  0.58523857558E+01 -0.39202362864E+02 -0.12859388560E+02  0.41670607718E+02  0.51100000000E-03 0. -1.
        -11    1    3    3    0    0  0.28740977658E+01  0.12265057561E+00 -0.46669652159E+01  0.54823394385E+01  0.51100000000E-03 0.  1.
         12    1    3    3    0    0 -0.56104152654E+00  0.99318948192E-01  0.27880861099E+00  0.63432333201E+00  0.00000000000E+00 0. -1.
</event>
<event>
 7    1  0.2430096E-009  0.4778728E+02  0.7816164E-02  0.1312668E+00
        -11   -1    0    0    0    0  0.00000000000E+00  0.00000000000E+00  0.45593999997E+02  0.45594000000E+02  0.51100000000E-03 0.  1.
         11   -1    0    0    0    0 -0.00000000000E+00 -0.00000000000E+00 -0.45593999997E+02  0.45594000000E+02  0.51100000000E-03 0. -1.
    9900012    2    1    2    0    0  0.31811942070E+02  0.27217027401E+02 -0.11439256499E+02  0.47787276181E+02  0.20000023418E+02 0.  0.
        -12    1    1    2    0    0 -0.31811942070E+02 -0.27217027401E+02  0.11439256499E+02  0.43400723819E+02  0.00000000000E+00 0.  1.
         11    1    3    3    0    0  0.19021773069E+02  0.13744970195E+02 -0.67731021051E+01  0.24425948676E+02  0.51100000000E-03 0. -1.
        -11    1    3    3    0    0  0.34846839711E+01  0.12943721976E+02 -0.13666835771E+01  0.13474078270E+02  0.51100000000E-03 0.  1.
        -12    1    3    3    0    0  0.93054850296E+01  0.52833523003E+00 -0.32994708166E+01  0.98872492343E+01  0.00000000000E+00 0.  1.
</event>
<event>
 7    1  0.2430096E-009  0.4778726E+02  0.7816164E-02  0.1312668E+00
        -11   -1    0    0    0    0  0.00000000000E+00  0.00000000000E+00  0.45593999997E+02  0.45594000000E+02  0.51100000000E-03 0. -1.
         11   -1    0    0    0    0 -0.00000000000E+00 -0.00000000000E+00 -0.45593999997E+02  0.45594000000E+02  0.51100000000E-03 0.  1.
    9900012    2    1    2    0    0 -0.44930411335E+00  0.41249676117E+02  0.13486520764E+02  0.47787263874E+02  0.19999967308E+02 0.  0.
        -12    1    1    2    0    0  0.44930411335E+00 -0.41249676117E+02 -0.13486520764E+02  0.43400736126E+02  0.00000000000E+00 0.  1.
         11    1    3    3    0    0 -0.25360455178E+01  0.22009219704E+02  0.16097311403E+02  0.27385410596E+02  0.51100000000E-03 0. -1.
        -11    1    3    3    0    0  0.20008400784E+01  0.19674749691E+02 -0.24351991670E+01  0.19925594888E+02  0.51100000000E-03 0.  1.
        -12    1    3    3    0    0  0.85901326046E-01 -0.43429327773E+00 -0.17559147192E+00  0.47625838986E+00  0.00000000000E+00 0.  1.
</event>
<event>
 7    1  0.2430096E-009  0.4778727E+02  0.7816164E-02  0.1312668E+00
        -11   -1    0    0    0    0  0.00000000000E+00  0.00000000000E+00  0.45593999997E+02  0.45594000000E+02  0.51100000000E-03 0.  1.
         11   -1    0    0    0    0 -0.00000000000E+00 -0.00000000000E+00 -0.45593999997E+02  0.45594000000E+02  0.51100000000E-03 0. -1.
    9900012    2    1    2    0    0  0.67532927314E+01 -0.24851502513E+02 -0.34934497424E+02  0.47787271318E+02  0.20000001246E+02 0.  0.
        -12    1    1    2    0    0 -0.67532927314E+01  0.24851502513E+02  0.34934497424E+02  0.43400728682E+02  0.00000000000E+00 0.  1.
         11    1    3    3    0    0  0.30347619461E+01 -0.47418267502E+01 -0.34856474202E+00  0.56405849554E+01  0.51100000000E-03 0. -1.
        -11    1    3    3    0    0  0.63322990065E+01 -0.18263764118E+02 -0.33659728428E+02  0.38815466100E+02  0.51100000000E-03 0.  1.
        -12    1    3    3    0    0 -0.26137682211E+01 -0.18459116448E+01 -0.92620425443E+00  0.33312202622E+01  0.00000000000E+00 0.  1.
</event>
<event>
 7    1  0.2430096E-009  0.4778729E+02  0.7816164E-02  0.1312668E+00
        -11   -1    0    0    0    0  0.00000000000E+00  0.00000000000E+00  0.45593999997E+02  0.45594000000E+02  0.51100000000E-03 0.  1.
         11   -1    0    0    0    0 -0.00000000000E+00 -0.00000000000E+00 -0.45593999997E+02  0.45594000000E+02  0.51100000000E-03 0. -1.
    9900012    2    1    2    0    0 -0.40186997807E+02  0.10196771769E+01 -0.16358097571E+02  0.47787286982E+02  0.20000072667E+02 0.  0.
        -12    1    1    2    0    0  0.40186997807E+02 -0.10196771769E+01  0.16358097571E+02  0.43400713018E+02  0.00000000000E+00 0.  1.
         11    1    3    3    0    0 -0.13931891748E+02 -0.21491744089E+01 -0.74182440587E+01  0.15929435128E+02  0.51100000000E-03 0. -1.
        -11    1    3    3    0    0 -0.57554776828E+01 -0.47432985496E+01  0.13747717684E+01  0.75838250352E+01  0.51100000000E-03 0.  1.
        -12    1    3    3    0    0 -0.20499628376E+02  0.79121501354E+01 -0.10314625281E+02  0.24274026819E+02  0.00000000000E+00 0.  1.
</event>
<event>
 7    1  0.2430096E-009  0.4778727E+02  0.7816164E-02  0.1312668E+00
        -11   -1    0    0    0    0  0.00000000000E+00  0.00000000000E+00  0.45593999997E+02  0.45594000000E+02  0.51100000000E-03 0.  1.
         11   -1    0    0    0    0 -0.00000000000E+00 -0.00000000000E+00 -0.45593999997E+02  0.45594000000E+02  0.51100000000E-03 0. -1.
    9900012    2    1    2    0    0  0.24598608658E+02 -0.22885256345E+02 -0.27473565300E+02  0.47787270787E+02  0.19999998828E+02 0.  0.
        -12    1    1    2    0    0 -0.24598608658E+02  0.22885256345E+02  0.27473565300E+02  0.43400729213E+02  0.00000000000E+00 0.  1.
         11    1    3    3    0    0  0.10958315399E+02 -0.31607392527E+01 -0.17459018170E+02  0.20854070699E+02  0.51100000000E-03 0. -1.
        -11    1    3    3    0    0  0.23391371786E+01 -0.45812607650E+01  0.73185994244E+00  0.51956839948E+01  0.51100000000E-03 0.  1.
        -12    1    3    3    0    0  0.11301156081E+02 -0.15143256327E+02 -0.10746407073E+02  0.21737516094E+02  0.00000000000E+00 0.  1.
</event>
<event>
 7    1  0.2430096E-009  0.4778727E+02  0.7816164E-02  0.1312668E+00
        -11   -1    0    0    0    0  0.00000000000E+00  0.00000000000E+00  0.45593999997E+02  0.45594000000E+02  0.51100000000E-03 0.  1.
         11   -1    0    0    0    0 -0.00000000000E+00 -0.00000000000E+00 -0.45593999997E+02  0.45594000000E+02  0.51100000000E-03 0. -1.
    9900012    2    1    2    0    0  0.45574084796E+00  0.96587647128E+01 -0.42309851077E+02  0.47787274964E+02  0.20000017870E+02 0.  0.
        -12    1    1    2    0    0 -0.45574084796E+00 -0.96587647128E+01  0.42309851077E+02  0.43400725036E+02  0.00000000000E+00 0.  1.
         11    1    3    3    0    0  0.38337317364E+01  0.79852976855E+01 -0.31958216342E+02  0.33163082941E+02  0.51100000000E-03 0. -1.
        -11    1    3    3    0    0 -0.32973495574E+01 -0.23833939284E+01 -0.66567225018E+00  0.41226448462E+01  0.51100000000E-03 0.  1.
        -12    1    3    3    0    0 -0.80641331025E-01  0.40568609558E+01 -0.96859624852E+01  0.10501547177E+02  0.00000000000E+00 0.  1.
</event>
<event>
 7    1  0.2430096E-009  0.4778727E+02  0.7816164E-02  0.1312668E+00
        -11   -1    0    0    0    0  0.00000000000E+00  0.00000000000E+00  0.45593999997E+02  0.45594000000E+02  0.51100000000E-03 0.  1.
         11   -1    0    0    0    0 -0.00000000000E+00 -0.00000000000E+00 -0.45593999997E+02  0.45594000000E+02  0.51100000000E-03 0. -1.
    9900012    2    1    2    0    0  0.71546178186E+01  0.26500150434E+02 -0.33618101166E+02  0.47787271260E+02  0.20000000985E+02 0.  0.
        -12    1    1    2    0    0 -0.71546178186E+01 -0.26500150434E+02  0.33618101166E+02  0.43400728740E+02  0.00000000000E+00 0.  1.
         11    1    3    3    0    0  0.54218707641E+01  0.25610910624E+02 -0.20230093396E+02  0.33084318108E+02  0.51100000000E-03 0. -1.
        -11    1    3    3    0    0 -0.23846102327E-01 -0.17497937082E+01 -0.12314114051E+01  0.21397946088E+01  0.51100000000E-03 0.  1.
         12    1    3    3    0    0  0.17565931568E+01  0.26390335178E+01 -0.12156596365E+02  0.12563158544E+02  0.00000000000E+00 0. -1.
</event>
<event>
 7    1  0.2430096E-009  0.4778728E+02  0.7816164E-02  0.1312668E+00
        -11   -1    0    0    0    0  0.00000000000E+00  0.00000000000E+00  0.45593999997E+02  0.45594000000E+02  0.51100000000E-03 0.  1.
         11   -1    0    0    0    0 -0.00000000000E+00 -0.00000000000E+00 -0.45593999997E+02  0.45594000000E+02  0.51100000000E-03 0. -1.
    9900012    2    1    2    0    0  0.15042115665E+02  0.89863570988E+01 -0.39706458874E+02  0.47787277266E+02  0.20000028365E+02 0.  0.
        -12    1    1    2    0    0 -0.15042115665E+02 -0.89863570988E+01  0.39706458874E+02  0.43400722734E+02  0.00000000000E+00 0.  1.
         11    1    3    3    0    0  0.83351294804E+00  0.36294638014E+01 -0.39218175511E+01  0.54081794059E+01  0.51100000000E-03 0. -1.
        -11    1    3    3    0    0  0.84910019429E+00  0.60792902196E+01 -0.23246469314E+02  0.24043233487E+02  0.51100000000E-03 0.  1.
        -12    1    3    3    0    0  0.13359502523E+02 -0.72239692226E+00 -0.12538172009E+02  0.18335864372E+02  0.00000000000E+00 0.  1.
</event>
<event>
 7    1  0.2430096E-009  0.4778727E+02  0.7816164E-02  0.1312668E+00
        -11   -1    0    0    0    0  0.00000000000E+00  0.00000000000E+00  0.45593999997E+02  0.45594000000E+02  0.51100000000E-03 0. -1.
         11   -1    0    0    0    0 -0.00000000000E+00 -0.00000000000E+00 -0.45593999997E+02  0.45594000000E+02  0.51100000000E-03 0.  1.
    9900012    2    1    2    0    0  0.35179740459E+02  0.48204270134E+01  0.24955416757E+02  0.47787268660E+02  0.19999989129E+02 0.  0.
        -12    1    1    2    0    0 -0.35179740459E+02 -0.48204270134E+01 -0.24955416757E+02  0.43400731340E+02  0.00000000000E+00 0.  1.
         11    1    3    3    0    0  0.16016306947E+02  0.62116834616E+01  0.17122361620E+02  0.24254532924E+02  0.51100000000E-03 0. -1.
        -11    1    3    3    0    0  0.19714204628E+02 -0.29863596188E+00  0.48437939491E+01  0.20302743352E+02  0.51100000000E-03 0.  1.
        -12    1    3    3    0    0 -0.55077111656E+00 -0.10926204864E+01  0.29892611877E+01  0.32299923837E+01  0.00000000000E+00 0.  1.
</event>
<event>
 7    1  0.2430096E-009  0.4778728E+02  0.7816164E-02  0.1312668E+00
        -11   -1    0    0    0    0  0.00000000000E+00  0.00000000000E+00  0.45593999997E+02  0.45594000000E+02  0.51100000000E-03 0.  1.
         11   -1    0    0    0    0 -0.00000000000E+00 -0.00000000000E+00 -0.45593999997E+02  0.45594000000E+02  0.51100000000E-03 0. -1.
    9900012    2    1    2    0    0  0.34568410955E+02  0.25737121010E+02 -0.51233252813E+01  0.47787275401E+02  0.20000019861E+02 0.  0.
        -12    1    1    2    0    0 -0.34568410955E+02 -0.25737121010E+02  0.51233252813E+01  0.43400724599E+02  0.00000000000E+00 0.  1.
         11    1    3    3    0    0  0.26674579023E+02  0.25989970379E+02 -0.14353233839E+01  0.37270254626E+02  0.51100000000E-03 0. -1.
        -11    1    3    3    0    0  0.37980362870E+01 -0.29637044435E+01 -0.10082747644E+01  0.49219144575E+01  0.51100000000E-03 0.  1.
         12    1    3    3    0    0  0.40957956445E+01  0.27108550742E+01 -0.26797271330E+01  0.55951063173E+01  0.00000000000E+00 0. -1.
</event>
<event>
 7    1  0.2430096E-009  0.4778727E+02  0.7816164E-02  0.1312668E+00
        -11   -1    0    0    0    0  0.00000000000E+00  0.00000000000E+00  0.45593999997E+02  0.45594000000E+02  0.51100000000E-03 0. -1.
         11   -1    0    0    0    0 -0.00000000000E+00 -0.00000000000E+00 -0.45593999997E+02  0.45594000000E+02  0.51100000000E-03 0.  1.
    9900012    2    1    2    0    0  0.94032524390E+01  0.10982580152E+02  0.40921692237E+02  0.47787272831E+02  0.20000008146E+02 0.  0.
        -12    1    1    2    0    0 -0.94032524390E+01 -0.10982580152E+02 -0.40921692237E+02  0.43400727169E+02  0.00000000000E+00 0.  1.
         11    1    3    3    0    0  0.22313038634E+01  0.39042101104E+01  0.17468888364E+02  0.18038393345E+02  0.51100000000E-03 0. -1.
        -11    1    3    3    0    0 -0.27695351868E+01  0.70188678020E+01  0.14610457923E+02  0.16443853300E+02  0.51100000000E-03 0.  1.
        -12    1    3    3    0    0  0.99414837624E+01  0.59502239848E-01  0.88423459499E+01  0.13305026186E+02  0.00000000000E+00 0.  1.
</event>
<event>
 7    1  0.2430096E-009  0.4778729E+02  0.7816164E-02  0.1312668E+00
        -11   -1    0    0    0    0  0.00000000000E+00  0.00000000000E+00  0.45593999997E+02  0.45594000000E+02  0.51100000000E-03 0. -1.
         11   -1    0    0    0    0 -0.00000000000E+00 -0.00000000000E+00 -0.45593999997E+02  0.45594000000E+02  0.51100000000E-03 0.  1.
    9900012    2    1    2    0    0  0.32468830829E+02  0.20483550031E+02  0.20244031583E+02  0.47787290190E+02  0.20000087293E+02 0.  0.
        -12    1    1    2    0    0 -0.32468830829E+02 -0.20483550031E+02 -0.20244031583E+02  0.43400709810E+02  0.00000000000E+00 0.  1.
         11    1    3    3    0    0  0.95256331991E+01  0.10895694461E+02  0.30457427893E+00  0.14475724900E+02  0.51100000000E-03 0. -1.
        -11    1    3    3    0    0  0.14404379183E+00  0.22531409998E+00  0.38916793632E+01  0.39008567757E+01  0.51100000000E-03 0.  1.
         12    1    3    3    0    0  0.22799153838E+02  0.93625414704E+01  0.16047777941E+02  0.29410708515E+02  0.00000000000E+00 0. -1.
</event>
<event>
 7    1  0.2430096E-009  0.4778727E+02  0.7816164E-02  0.1312668E+00
        -11   -1    0    0    0    0  0.00000000000E+00  0.00000000000E+00  0.45593999997E+02  0.45594000000E+02  0.51100000000E-03 0.  1.
         11   -1    0    0    0    0 -0.00000000000E+00 -0.00000000000E+00 -0.45593999997E+02  0.45594000000E+02  0.51100000000E-03 0. -1.
    9900012    2    1    2    0    0  0.19824287846E+02 -0.15509944192E+02 -0.35356224836E+02  0.47787269683E+02  0.19999993792E+02 0.  0.
        -12    1    1    2    0    0 -0.19824287846E+02  0.15509944192E+02  0.35356224836E+02  0.43400730317E+02  0.00000000000E+00 0.  1.
         11    1    3    3    0    0  0.44617616795E+00 -0.75772716874E+00 -0.48790337224E+01  0.49576399587E+01  0.51100000000E-03 0. -1.
        -11    1    3    3    0    0  0.10200555202E+02 -0.17706397501E+02 -0.21354106886E+02  0.29556145217E+02  0.51100000000E-03 0.  1.
        -12    1    3    3    0    0  0.91775564753E+01  0.29541804779E+01 -0.91230842271E+01  0.13273484507E+02  0.00000000000E+00 0.  1.
</event>
<event>
 7    1  0.2430096E-009  0.4778727E+02  0.7816164E-02  0.1312668E+00
        -11   -1    0    0    0    0  0.00000000000E+00  0.00000000000E+00  0.45593999997E+02  0.45594000000E+02  0.51100000000E-03 0.  1.
         11   -1    0    0    0    0 -0.00000000000E+00 -0.00000000000E+00 -0.45593999997E+02  0.45594000000E+02  0.51100000000E-03 0. -1.
    9900012    2    1    2    0    0  0.32268412290E+01 -0.22279149382E+02 -0.37105934660E+02  0.47787269724E+02  0.19999993981E+02 0.  0.
        -12    1    1    2    0    0 -0.32268412290E+01  0.22279149382E+02  0.37105934660E+02  0.43400730276E+02  0.00000000000E+00 0.  1.
         11    1    3    3    0    0  0.63486754348E+01 -0.13855362839E+02 -0.20718155134E+02  0.25720006058E+02  0.51100000000E-03 0. -1.
        -11    1    3    3    0    0  0.79329181337E+00  0.24139565552E+01 -0.76334261300E+00  0.26531472551E+01  0.51100000000E-03 0.  1.
        -12    1    3    3    0    0 -0.39151260192E+01 -0.10837743098E+02 -0.15624436913E+02  0.19414116411E+02  0.00000000000E+00 0.  1.
</event>
<event>
 7    1  0.2430096E-009  0.4778726E+02  0.7816164E-02  0.1312668E+00
        -11   -1    0    0    0    0  0.00000000000E+00  0.00000000000E+00  0.45593999997E+02  0.45594000000E+02  0.51100000000E-03 0. -1.
         11   -1    0    0    0    0 -0.00000000000E+00 -0.00000000000E+00 -0.45593999997E+02  0.45594000000E+02  0.51100000000E-03 0.  1.
    9900012    2    1    2    0    0  0.35272768024E+01  0.19646152397E+02  0.38538442487E+02  0.47787256517E+02  0.19999933761E+02 0.  0.
        -12    1    1    2    0    0 -0.35272768024E+01 -0.19646152397E+02 -0.38538442487E+02  0.43400743483E+02  0.00000000000E+00 0.  1.
         11    1    3    3    0    0  0.37028723724E+01  0.44726896245E+01  0.51675202973E+01  0.77729970132E+01  0.51100000000E-03 0. -1.
        -11    1    3    3    0    0  0.12515584438E+01 -0.10345103685E+01 -0.10554013605E+01  0.19366162588E+01  0.51100000000E-03 0.  1.
        -12    1    3    3    0    0 -0.14271540138E+01  0.16207973141E+02  0.34426323550E+02  0.38077643245E+02  0.00000000000E+00 0.  1.
</event>
<event>
 7    1  0.2968629E-009  0.4778727E+02  0.7816164E-02  0.1312668E+00
        -11   -1    0    0    0    0  0.00000000000E+00  0.00000000000E+00  0.45593999997E+02  0.45594000000E+02  0.51100000000E-03 0. -1.
         11   -1    0    0    0    0 -0.00000000000E+00 -0.00000000000E+00 -0.45593999997E+02  0.45594000000E+02  0.51100000000E-03 0.  1.
    9900012    2    1    2    0    0 -0.77457770440E+01  0.39255619023E+02  0.16811373022E+02  0.47787274778E+02  0.20000017025E+02 0.  0.
        -12    1    1    2    0    0  0.77457770440E+01 -0.39255619023E+02 -0.16811373022E+02  0.43400725222E+02  0.00000000000E+00 0.  1.
         11    1    3    3    0    0 -0.20726335112E+01  0.10619251253E+02  0.62985753971E+01  0.12519439250E+02  0.51100000000E-03 0. -1.
        -11    1    3    3    0    0 -0.78584750682E+01  0.28558424058E+02  0.59549816142E+01  0.30212597064E+02  0.51100000000E-03 0.  1.
        -12    1    3    3    0    0  0.21853315354E+01  0.77943711599E-01  0.45578160104E+01  0.50552384639E+01  0.00000000000E+00 0.  1.
</event>
<event>
 7    1  0.2430096E-009  0.4778728E+02  0.7816164E-02  0.1312668E+00
        -11   -1    0    0    0    0  0.00000000000E+00  0.00000000000E+00  0.45593999997E+02  0.45594000000E+02  0.51100000000E-03 0. -1.
         11   -1    0    0    0    0 -0.00000000000E+00 -0.00000000000E+00 -0.45593999997E+02  0.45594000000E+02  0.51100000000E-03 0.  1.
    9900012    2    1    2    0    0 -0.35046417157E+02  0.46505871572E+01  0.25174263717E+02  0.47787275695E+02  0.20000021206E+02 0.  0.
        -12    1    1    2    0    0  0.35046417157E+02 -0.46505871572E+01 -0.25174263717E+02  0.43400724305E+02  0.00000000000E+00 0.  1.
         11    1    3    3    0    0  0.92719507660E-01  0.22151940283E+01  0.65790061431E+01  0.69425502218E+01  0.51100000000E-03 0. -1.
        -11    1    3    3    0    0 -0.21933197870E+01  0.21787767044E+01  0.17102961533E+00  0.30962834183E+01  0.51100000000E-03 0.  1.
         12    1    3    3    0    0 -0.32945816878E+02  0.25661642444E+00  0.18424227958E+02  0.37748442055E+02  0.00000000000E+00 0. -1.
</event>
<event>
 7    1  0.2430096E-009  0.4778727E+02  0.7816164E-02  0.1312668E+00
        -11   -1    0    0    0    0  0.00000000000E+00  0.00000000000E+00  0.45593999997E+02  0.45594000000E+02  0.51100000000E-03 0.  1.
         11   -1    0    0    0    0 -0.00000000000E+00 -0.00000000000E+00 -0.45593999997E+02  0.45594000000E+02  0.51100000000E-03 0. -1.
    9900012    2    1    2    0    0  0.23614634259E+02 -0.17190362572E+02 -0.32100838324E+02  0.47787270310E+02  0.19999996651E+02 0.  0.
        -12    1    1    2    0    0 -0.23614634259E+02  0.17190362572E+02  0.32100838324E+02  0.43400729690E+02  0.00000000000E+00 0.  1.
         11    1    3    3    0    0  0.14897346872E+02 -0.37147534943E+01 -0.99375548209E+01  0.18288940194E+02  0.51100000000E-03 0.  1.
        -11    1    3    3    0    0  0.54129403349E+01 -0.13254325609E+02 -0.11595260031E+02  0.18423548135E+02  0.51100000000E-03 0. -1.
        -12    1    3    3    0    0  0.33043470518E+01 -0.22128346820E+00 -0.10568023473E+02  0.11074781981E+02  0.00000000000E+00 0.  1.
</event>
<event>
 7    1  0.2430096E-009  0.4778727E+02  0.7816164E-02  0.1312668E+00
        -11   -1    0    0    0    0  0.00000000000E+00  0.00000000000E+00  0.45593999997E+02  0.45594000000E+02  0.51100000000E-03 0.  1.
         11   -1    0    0    0    0 -0.00000000000E+00 -0.00000000000E+00 -0.45593999997E+02  0.45594000000E+02  0.51100000000E-03 0. -1.
    9900012    2    1    2    0    0 -0.76747440372E+01  0.17322682945E+02 -0.39046718596E+02  0.47787271048E+02  0.20000000015E+02 0.  0.
        -12    1    1    2    0    0  0.76747440372E+01 -0.17322682945E+02  0.39046718596E+02  0.43400728952E+02  0.00000000000E+00 0.  1.
         11    1    3    3    0    0  0.33222451290E+01  0.78556484377E+00 -0.79169354650E+01  0.86216177275E+01  0.51100000000E-03 0. -1.
        -11    1    3    3    0    0 -0.94049641239E+01  0.17251001431E+02 -0.20506790912E+02  0.28400332292E+02  0.51100000000E-03 0.  1.
         12    1    3    3    0    0 -0.15920250422E+01 -0.71388332918E+00 -0.10622992220E+02  0.10765321028E+02  0.00000000000E+00 0. -1.
</event>
<event>
 7    1  0.2430096E-009  0.4778727E+02  0.7816164E-02  0.1312668E+00
        -11   -1    0    0    0    0  0.00000000000E+00  0.00000000000E+00  0.45593999997E+02  0.45594000000E+02  0.51100000000E-03 0.  1.
         11   -1    0    0    0    0 -0.00000000000E+00 -0.00000000000E+00 -0.45593999997E+02  0.45594000000E+02  0.51100000000E-03 0. -1.
    9900012    2    1    2    0    0 -0.10854333513E+02 -0.96966972499E+00 -0.42010313142E+02  0.47787271600E+02  0.20000002533E+02 0.  0.
        -12    1    1    2    0    0  0.10854333513E+02  0.96966972499E+00  0.42010313142E+02  0.43400728400E+02  0.00000000000E+00 0.  1.
         11    1    3    3    0    0 -0.10636446175E+02 -0.14105649268E+01 -0.14871699646E+02  0.18338242317E+02  0.51100000000E-03 0. -1.
        -11    1    3    3    0    0  0.43634620373E+01  0.18435877170E+01 -0.53758316352E+01  0.71650668282E+01  0.51100000000E-03 0.  1.
         12    1    3    3    0    0 -0.45813493753E+01 -0.14026925152E+01 -0.21762781861E+02  0.22283962455E+02  0.00000000000E+00 0. -1.
</event>
<event>
 7    1  0.2430096E-009  0.4778727E+02  0.7816164E-02  0.1312668E+00
        -11   -1    0    0    0    0  0.00000000000E+00  0.00000000000E+00  0.45593999997E+02  0.45594000000E+02  0.51100000000E-03 0.  1.
         11   -1    0    0    0    0 -0.00000000000E+00 -0.00000000000E+00 -0.45593999997E+02  0.45594000000E+02  0.51100000000E-03 0. -1.
    9900012    2    1    2    0    0 -0.25936401628E+02  0.32419187469E+02 -0.12646043415E+02  0.47787273513E+02  0.20000011255E+02 0.  0.
        -12    1    1    2    0    0  0.25936401628E+02 -0.32419187469E+02  0.12646043415E+02  0.43400726487E+02  0.00000000000E+00 0.  1.
         11    1    3    3    0    0 -0.99287470928E+01  0.41205927924E+01  0.35495983312E+01  0.11320731088E+02  0.51100000000E-03 0.  1.
        -11    1    3    3    0    0 -0.94276961765E+01  0.13639505298E+02 -0.89234505908E+01  0.18829379455E+02  0.51100000000E-03 0. -1.
        -12    1    3    3    0    0 -0.65799583589E+01  0.14659089378E+02 -0.72721911556E+01  0.17637162970E+02  0.00000000000E+00 0.  1.
</event>
<event>
 7    1  0.2430096E-009  0.4778727E+02  0.7816164E-02  0.1312668E+00
        -11   -1    0    0    0    0  0.00000000000E+00  0.00000000000E+00  0.45593999997E+02  0.45594000000E+02  0.51100000000E-03 0.  1.
         11   -1    0    0    0    0 -0.00000000000E+00 -0.00000000000E+00 -0.45593999997E+02  0.45594000000E+02  0.51100000000E-03 0. -1.
    9900012    2    1    2    0    0  0.36147238283E+02 -0.22984027323E+02  0.69810394741E+01  0.47787271209E+02  0.20000000748E+02 0.  0.
        -12    1    1    2    0    0 -0.36147238283E+02  0.22984027323E+02 -0.69810394741E+01  0.43400728791E+02  0.00000000000E+00 0.  1.
         11    1    3    3    0    0  0.14637620018E+02 -0.83232512617E+01  0.27638799719E+01  0.17063864279E+02  0.51100000000E-03 0. -1.
        -11    1    3    3    0    0  0.14166794082E+02 -0.76894354037E+01 -0.51582318561E+01  0.16924326501E+02  0.51100000000E-03 0.  1.
        -12    1    3    3    0    0  0.73428241832E+01 -0.69713406577E+01  0.93753913583E+01  0.13799080429E+02  0.00000000000E+00 0.  1.
</event>
<event>
 7    1  0.2430096E-009  0.4778727E+02  0.7816164E-02  0.1312668E+00
        -11   -1    0    0    0    0  0.00000000000E+00  0.00000000000E+00  0.45593999997E+02  0.45594000000E+02  0.51100000000E-03 0.  1.
         11   -1    0    0    0    0 -0.00000000000E+00 -0.00000000000E+00 -0.45593999997E+02  0.45594000000E+02  0.51100000000E-03 0. -1.
    9900012    2    1    2    0    0  0.16557521765E+02 -0.35459269342E+02 -0.18764648376E+02  0.47787270307E+02  0.19999996636E+02 0.  0.
        -12    1    1    2    0    0 -0.16557521765E+02  0.35459269342E+02  0.18764648376E+02  0.43400729693E+02  0.00000000000E+00 0.  1.
         11    1    3    3    0    0  0.18411181334E+02 -0.25469648668E+02 -0.12463413999E+02  0.33808449981E+02  0.51100000000E-03 0. -1.
        -11    1    3    3    0    0 -0.42684136626E+01 -0.39512328866E+01 -0.18714913415E+01  0.61101617508E+01  0.51100000000E-03 0.  1.
         12    1    3    3    0    0  0.24147540936E+01 -0.60383877872E+01 -0.44297430355E+01  0.78686585745E+01  0.00000000000E+00 0. -1.
</event>
<event>
 7    1  0.2430096E-009  0.4778726E+02  0.7816164E-02  0.1312668E+00
        -11   -1    0    0    0    0  0.00000000000E+00  0.00000000000E+00  0.45593999997E+02  0.45594000000E+02  0.51100000000E-03 0.  1.
         11   -1    0    0    0    0 -0.00000000000E+00 -0.00000000000E+00 -0.45593999997E+02  0.45594000000E+02  0.51100000000E-03 0. -1.
    9900012    2    1    2    0    0  0.19698251437E+02 -0.25244342983E+02 -0.29297201949E+02  0.47787262629E+02  0.19999961628E+02 0.  0.
        -12    1    1    2    0    0 -0.19698251437E+02  0.25244342983E+02  0.29297201949E+02  0.43400737371E+02  0.00000000000E+00 0.  1.
         11    1    3    3    0    0  0.15804096533E+02 -0.25752422748E+02 -0.26329139806E+02  0.40077179888E+02  0.51100000000E-03 0. -1.
        -11    1    3    3    0    0  0.52265462119E+01  0.13425773144E+01 -0.16064723890E+01  0.56302800062E+01  0.51100000000E-03 0.  1.
         12    1    3    3    0    0 -0.13323913069E+01 -0.83449754955E+00 -0.13615897538E+01  0.20798027341E+01  0.00000000000E+00 0. -1.
</event>
<event>
 7    1  0.2430096E-009  0.4778728E+02  0.7816164E-02  0.1312668E+00
        -11   -1    0    0    0    0  0.00000000000E+00  0.00000000000E+00  0.45593999997E+02  0.45594000000E+02  0.51100000000E-03 0. -1.
         11   -1    0    0    0    0 -0.00000000000E+00 -0.00000000000E+00 -0.45593999997E+02  0.45594000000E+02  0.51100000000E-03 0.  1.
    9900012    2    1    2    0    0  0.35789614938E+02  0.92268769107E+01  0.22750628115E+02  0.47787275645E+02  0.20000020976E+02 0.  0.
        -12    1    1    2    0    0 -0.35789614938E+02 -0.92268769107E+01 -0.22750628115E+02  0.43400724355E+02  0.00000000000E+00 0.  1.
         11    1    3    3    0    0  0.46361392624E+01  0.25308808868E+01  0.11981254906E+02  0.13093876993E+02  0.51100000000E-03 0. -1.
        -11    1    3    3    0    0  0.26958549599E+02  0.86119268975E+01  0.10014342568E+02  0.30020255473E+02  0.51100000000E-03 0.  1.
         12    1    3    3    0    0  0.41949260765E+01 -0.19159308736E+01  0.75503064120E+00  0.46731431787E+01  0.00000000000E+00 0. -1.
</event>
<event>
 7    1  0.2430096E-009  0.4778729E+02  0.7816164E-02  0.1312668E+00
        -11   -1    0    0    0    0  0.00000000000E+00  0.00000000000E+00  0.45593999997E+02  0.45594000000E+02  0.51100000000E-03 0.  1.
         11   -1    0    0    0    0 -0.00000000000E+00 -0.00000000000E+00 -0.45593999997E+02  0.45594000000E+02  0.51100000000E-03 0. -1.
    9900012    2    1    2    0    0  0.36691495451E+02  0.22307268515E+02  0.63041089178E+01  0.47787287376E+02  0.20000074461E+02 0.  0.
        -12    1    1    2    0    0 -0.36691495451E+02 -0.22307268515E+02 -0.63041089178E+01  0.43400712624E+02  0.00000000000E+00 0.  1.
         11    1    3    3    0    0  0.26544311181E+02  0.83243703995E+01 -0.29438603005E+01  0.27974308076E+02  0.51100000000E-03 0.  1.
        -11    1    3    3    0    0  0.91321624021E+01  0.12106464001E+02  0.69623819084E+01  0.16686450277E+02  0.51100000000E-03 0. -1.
        -12    1    3    3    0    0  0.10150218685E+01  0.18764341146E+01  0.22855873098E+01  0.31265290228E+01  0.00000000000E+00 0.  1.
</event>
<event>
 7    1  0.2430096E-009  0.4778727E+02  0.7816164E-02  0.1312668E+00
        -11   -1    0    0    0    0  0.00000000000E+00  0.00000000000E+00  0.45593999997E+02  0.45594000000E+02  0.51100000000E-03 0.  1.
         11   -1    0    0    0    0 -0.00000000000E+00 -0.00000000000E+00 -0.45593999997E+02  0.45594000000E+02  0.51100000000E-03 0. -1.
    9900012    2    1    2    0    0  0.13889569589E+02 -0.40585894179E+02 -0.65945661752E+01  0.47787271288E+02  0.20000001109E+02 0.  0.
        -12    1    1    2    0    0 -0.13889569589E+02  0.40585894179E+02  0.65945661752E+01  0.43400728712E+02  0.00000000000E+00 0.  1.
         11    1    3    3    0    0  0.92777175927E+01 -0.11964969450E+02  0.71046917100E+00  0.15157219546E+02  0.51100000000E-03 0. -1.
        -11    1    3    3    0    0 -0.39386185751E+01 -0.11436905734E+02 -0.83113694483E-02  0.12096098478E+02  0.51100000000E-03 0.  1.
        -12    1    3    3    0    0  0.85504705716E+01 -0.17184018995E+02 -0.72967239767E+01  0.20533953263E+02  0.00000000000E+00 0.  1.
</event>
<event>
 7    1  0.2430096E-009  0.4778728E+02  0.7816164E-02  0.1312668E+00
        -11   -1    0    0    0    0  0.00000000000E+00  0.00000000000E+00  0.45593999997E+02  0.45594000000E+02  0.51100000000E-03 0.  1.
         11   -1    0    0    0    0 -0.00000000000E+00 -0.00000000000E+00 -0.45593999997E+02  0.45594000000E+02  0.51100000000E-03 0. -1.
    9900012    2    1    2    0    0  0.18939198652E+02  0.23142201010E+02 -0.31454218255E+02  0.47787279278E+02  0.20000037542E+02 0.  0.
        -12    1    1    2    0    0 -0.18939198652E+02 -0.23142201010E+02  0.31454218255E+02  0.43400720722E+02  0.00000000000E+00 0.  1.
         11    1    3    3    0    0  0.41697474377E+01  0.13493140933E+02 -0.47226650652E+01  0.14891447596E+02  0.51100000000E-03 0. -1.
        -11    1    3    3    0    0  0.89396203840E+01  0.50660802416E+01 -0.21473445056E+02  0.23805268839E+02  0.51100000000E-03 0.  1.
         12    1    3    3    0    0  0.58298308301E+01  0.45829798348E+01 -0.52581081329E+01  0.90905628435E+01  0.00000000000E+00 0. -1.
</event>
<event>
 7    1  0.2430096E-009  0.4778728E+02  0.7816164E-02  0.1312668E+00
        -11   -1    0    0    0    0  0.00000000000E+00  0.00000000000E+00  0.45593999997E+02  0.45594000000E+02  0.51100000000E-03 0.  1.
         11   -1    0    0    0    0 -0.00000000000E+00 -0.00000000000E+00 -0.45593999997E+02  0.45594000000E+02  0.51100000000E-03 0. -1.
    9900012    2    1    2    0    0  0.41187636104E+02 -0.12705366147E+02 -0.50769207592E+01  0.47787276260E+02  0.20000023780E+02 0.  0.
        -12    1    1    2    0    0 -0.41187636104E+02  0.12705366147E+02  0.50769207592E+01  0.43400723740E+02  0.00000000000E+00 0.  1.
         11    1    3    3    0    0  0.18138594637E+02 -0.14547610198E+02  0.50962348234E+00  0.23257284756E+02  0.51100000000E-03 0. -1.
        -11    1    3    3    0    0  0.16431048577E+02  0.40201719513E+01 -0.37948116996E+01  0.17336139592E+02  0.51100000000E-03 0.  1.
         12    1    3    3    0    0  0.66179928894E+01 -0.21779279007E+01 -0.17917325419E+01  0.71938519116E+01  0.00000000000E+00 0. -1.
</event>
<event>
 7    1  0.2430096E-009  0.4778727E+02  0.7816164E-02  0.1312668E+00
        -11   -1    0    0    0    0  0.00000000000E+00  0.00000000000E+00  0.45593999997E+02  0.45594000000E+02  0.51100000000E-03 0. -1.
         11   -1    0    0    0    0 -0.00000000000E+00 -0.00000000000E+00 -0.45593999997E+02  0.45594000000E+02  0.51100000000E-03 0.  1.
    9900012    2    1    2    0    0  0.41884128848E+02 -0.93959395457E+01 -0.64077503446E+01  0.47787271968E+02  0.20000004209E+02 0.  0.
        -12    1    1    2    0    0 -0.41884128848E+02  0.93959395457E+01  0.64077503446E+01  0.43400728032E+02  0.00000000000E+00 0.  1.
         11    1    3    3    0    0  0.23911268639E+02  0.40520637104E+01 -0.36040385185E+01  0.24518504892E+02  0.51100000000E-03 0. -1.
        -11    1    3    3    0    0  0.65583592610E+01 -0.68999563132E+01 -0.33668975685E+01  0.10097399310E+02  0.51100000000E-03 0.  1.
         12    1    3    3    0    0  0.11414500948E+02 -0.65480469428E+01  0.56318574233E+00  0.13171367766E+02  0.00000000000E+00 0. -1.
</event>
<event>
 7    1  0.2430096E-009  0.4778726E+02  0.7816164E-02  0.1312668E+00
        -11   -1    0    0    0    0  0.00000000000E+00  0.00000000000E+00  0.45593999997E+02  0.45594000000E+02  0.51100000000E-03 0. -1.
         11   -1    0    0    0    0 -0.00000000000E+00 -0.00000000000E+00 -0.45593999997E+02  0.45594000000E+02  0.51100000000E-03 0.  1.
    9900012    2    1    2    0    0 -0.28432532256E+01  0.40653215714E+02 -0.14928358735E+02  0.47787263470E+02  0.19999965467E+02 0.  0.
        -12    1    1    2    0    0  0.28432532256E+01 -0.40653215714E+02  0.14928358735E+02  0.43400736530E+02  0.00000000000E+00 0.  1.
         11    1    3    3    0    0  0.36103544767E+01  0.19404487985E+02 -0.17707925146E+00  0.19738291991E+02  0.51100000000E-03 0. -1.
        -11    1    3    3    0    0 -0.18077746879E+00  0.87151911213E-01 -0.30703294153E+01  0.30768813640E+01  0.51100000000E-03 0.  1.
         12    1    3    3    0    0 -0.62728302334E+01  0.21161575818E+02 -0.11680950069E+02  0.24972090115E+02  0.00000000000E+00 0. -1.
</event>
<event>
 7    1  0.2430096E-009  0.4778727E+02  0.7816164E-02  0.1312668E+00
        -11   -1    0    0    0    0  0.00000000000E+00  0.00000000000E+00  0.45593999997E+02  0.45594000000E+02  0.51100000000E-03 0.  1.
         11   -1    0    0    0    0 -0.00000000000E+00 -0.00000000000E+00 -0.45593999997E+02  0.45594000000E+02  0.51100000000E-03 0. -1.
    9900012    2    1    2    0    0  0.13001578315E+02 -0.55188460067E+01 -0.41038088326E+02  0.47787269668E+02  0.19999993722E+02 0.  0.
        -12    1    1    2    0    0 -0.13001578315E+02  0.55188460067E+01  0.41038088326E+02  0.43400730332E+02  0.00000000000E+00 0.  1.
         11    1    3    3    0    0  0.10954859361E+02 -0.83778538840E+01 -0.20508742996E+02  0.24714488035E+02  0.51100000000E-03 0. -1.
        -11    1    3    3    0    0 -0.55314352022E-01 -0.34886165558E+01 -0.10083732822E+02  0.10670293953E+02  0.51100000000E-03 0.  1.
         12    1    3    3    0    0  0.21020333063E+01  0.63476244331E+01 -0.10445612508E+02  0.12402487679E+02  0.00000000000E+00 0. -1.
</event>
<event>
 7    1  0.2430096E-009  0.4778723E+02  0.7816164E-02  0.1312668E+00
        -11   -1    0    0    0    0  0.00000000000E+00  0.00000000000E+00  0.45593999997E+02  0.45594000000E+02  0.51100000000E-03 0.  1.
         11   -1    0    0    0    0 -0.00000000000E+00 -0.00000000000E+00 -0.45593999997E+02  0.45594000000E+02  0.51100000000E-03 0. -1.
    9900012    2    1    2    0    0  0.26614654955E+01  0.31243645494E+00 -0.43317962540E+02  0.47787229342E+02  0.19999809861E+02 0.  0.
        -12    1    1    2    0    0 -0.26614654955E+01 -0.31243645494E+00  0.43317962540E+02  0.43400770658E+02  0.00000000000E+00 0.  1.
         11    1    3    3    0    0 -0.12401208788E+01  0.77157422415E+01 -0.23497795506E+02  0.24763218128E+02  0.51100000000E-03 0.  1.
        -11    1    3    3    0    0  0.50911479767E+01 -0.62875408339E+01 -0.19804214175E+02  0.21392986160E+02  0.51100000000E-03 0. -1.
        -12    1    3    3    0    0 -0.11895616024E+01 -0.11157649527E+01 -0.15952858156E-01  0.16310250547E+01  0.00000000000E+00 0.  1.
</event>
<event>
 7    1  0.2430096E-009  0.4778727E+02  0.7816164E-02  0.1312668E+00
        -11   -1    0    0    0    0  0.00000000000E+00  0.00000000000E+00  0.45593999997E+02  0.45594000000E+02  0.51100000000E-03 0.  1.
         11   -1    0    0    0    0 -0.00000000000E+00 -0.00000000000E+00 -0.45593999997E+02  0.45594000000E+02  0.51100000000E-03 0. -1.
    9900012    2    1    2    0    0  0.34114364937E+02 -0.20580715754E+02 -0.17212413669E+02  0.47787274887E+02  0.20000017519E+02 0.  0.
        -12    1    1    2    0    0 -0.34114364937E+02  0.20580715754E+02  0.17212413669E+02  0.43400725113E+02  0.00000000000E+00 0.  1.
         11    1    3    3    0    0  0.28715828256E+02 -0.12640593258E+02 -0.70343713027E+01  0.32153783140E+02  0.51100000000E-03 0. -1.
        -11    1    3    3    0    0  0.19021983779E+01 -0.81208172053E+01 -0.66984591987E+01  0.10697447670E+02  0.51100000000E-03 0.  1.
         12    1    3    3    0    0  0.34963383036E+01  0.18069470881E+00 -0.34795831676E+01  0.49360440771E+01  0.00000000000E+00 0. -1.
</event>
<event>
 7    1  0.2430096E-009  0.4778727E+02  0.7816164E-02  0.1312668E+00
        -11   -1    0    0    0    0  0.00000000000E+00  0.00000000000E+00  0.45593999997E+02  0.45594000000E+02  0.51100000000E-03 0.  1.
         11   -1    0    0    0    0 -0.00000000000E+00 -0.00000000000E+00 -0.45593999997E+02  0.45594000000E+02  0.51100000000E-03 0. -1.
    9900012    2    1    2    0    0  0.25852857834E+02 -0.61891820646E+01 -0.34306662020E+02  0.47787270839E+02  0.19999999062E+02 0.  0.
        -12    1    1    2    0    0 -0.25852857834E+02  0.61891820646E+01  0.34306662020E+02  0.43400729161E+02  0.00000000000E+00 0.  1.
         11    1    3    3    0    0  0.16033682811E+02  0.30361552640E+01 -0.16273390387E+02  0.23046050817E+02  0.51100000000E-03 0. -1.
        -11    1    3    3    0    0  0.11934660623E+02 -0.86153890817E+01 -0.15289666849E+02  0.21223453202E+02  0.51100000000E-03 0.  1.
        -12    1    3    3    0    0 -0.21154856006E+01 -0.60994824689E+00 -0.27436047837E+01  0.35177668199E+01  0.00000000000E+00 0.  1.
</event>
<event>
 7    1  0.2430096E-009  0.4778727E+02  0.7816164E-02  0.1312668E+00
        -11   -1    0    0    0    0  0.00000000000E+00  0.00000000000E+00  0.45593999997E+02  0.45594000000E+02  0.51100000000E-03 0. -1.
         11   -1    0    0    0    0 -0.00000000000E+00 -0.00000000000E+00 -0.45593999997E+02  0.45594000000E+02  0.51100000000E-03 0.  1.
    9900012    2    1    2    0    0  0.35370300098E+02 -0.21564119868E+02  0.12944273808E+02  0.47787267067E+02  0.19999981863E+02 0.  0.
        -12    1    1    2    0    0 -0.35370300098E+02  0.21564119868E+02 -0.12944273808E+02  0.43400732933E+02  0.00000000000E+00 0.  1.
         11    1    3    3    0    0  0.90522140814E+01 -0.35075365067E+01  0.10941734600E+01  0.97694732685E+01  0.51100000000E-03 0. -1.
        -11    1    3    3    0    0  0.28274204583E+02 -0.18500385532E+02  0.12307156422E+02  0.35960547953E+02  0.51100000000E-03 0.  1.
        -12    1    3    3    0    0 -0.19561185663E+01  0.44380216987E+00 -0.45705607407E+00  0.20572458449E+01  0.00000000000E+00 0.  1.
</event>
<event>
 7    1  0.2430096E-009  0.4778728E+02  0.7816164E-02  0.1312668E+00
        -11   -1    0    0    0    0  0.00000000000E+00  0.00000000000E+00  0.45593999997E+02  0.45594000000E+02  0.51100000000E-03 0.  1.
         11   -1    0    0    0    0 -0.00000000000E+00 -0.00000000000E+00 -0.45593999997E+02  0.45594000000E+02  0.51100000000E-03 0. -1.
    9900012    2    1    2    0    0 -0.84529270898E+01 -0.16456137094E+01 -0.42537776740E+02  0.47787280296E+02  0.20000042182E+02 0.  0.
        -12    1    1    2    0    0  0.84529270898E+01  0.16456137094E+01  0.42537776740E+02  0.43400719704E+02  0.00000000000E+00 0.  1.
         11    1    3    3    0    0  0.73612826185E+00  0.25588641408E+01 -0.28832710495E+02  0.28955394407E+02  0.51100000000E-03 0. -1.
        -11    1    3    3    0    0 -0.48422156629E+01 -0.41636631298E+01 -0.12923338439E+02  0.14415124691E+02  0.51100000000E-03 0.  1.
         12    1    3    3    0    0 -0.43468396887E+01 -0.40814720443E-01 -0.78172780541E+00  0.44167611983E+01  0.00000000000E+00 0. -1.
</event>
<event>
 7    1  0.2430096E-009  0.4778728E+02  0.7816164E-02  0.1312668E+00
        -11   -1    0    0    0    0  0.00000000000E+00  0.00000000000E+00  0.45593999997E+02  0.45594000000E+02  0.51100000000E-03 0.  1.
         11   -1    0    0    0    0 -0.00000000000E+00 -0.00000000000E+00 -0.45593999997E+02  0.45594000000E+02  0.51100000000E-03 0. -1.
    9900012    2    1    2    0    0  0.31091628729E+02  0.27327722225E+02  0.13043332412E+02  0.47787282270E+02  0.20000051184E+02 0.  0.
        -12    1    1    2    0    0 -0.31091628729E+02 -0.27327722225E+02 -0.13043332412E+02  0.43400717730E+02  0.00000000000E+00 0.  1.
         11    1    3    3    0    0  0.20408508913E+02  0.18167244221E+02  0.68219438314E+01  0.28161940923E+02  0.51100000000E-03 0. -1.
        -11    1    3    3    0    0  0.10733914903E+01 -0.14967630741E+01 -0.22916993088E+01  0.29401283942E+01  0.51100000000E-03 0.  1.
         12    1    3    3    0    0  0.96097283263E+01  0.10657241077E+02  0.85130878893E+01  0.16685212953E+02  0.00000000000E+00 0. -1.
</event>
<event>
 7    1  0.2430096E-009  0.4778728E+02  0.7816164E-02  0.1312668E+00
        -11   -1    0    0    0    0  0.00000000000E+00  0.00000000000E+00  0.45593999997E+02  0.45594000000E+02  0.51100000000E-03 0. -1.
         11   -1    0    0    0    0 -0.00000000000E+00 -0.00000000000E+00 -0.45593999997E+02  0.45594000000E+02  0.51100000000E-03 0.  1.
    9900012    2    1    2    0    0 -0.25823175988E+01  0.31565394089E+01  0.43208687987E+02  0.47787276242E+02  0.20000023696E+02 0.  0.
        -12    1    1    2    0    0  0.25823175988E+01 -0.31565394089E+01 -0.43208687987E+02  0.43400723758E+02  0.00000000000E+00 0.  1.
         11    1    3    3    0    0 -0.19863892274E+01 -0.17198091217E+01  0.96297046161E+01  0.99817181302E+01  0.51100000000E-03 0. -1.
        -11    1    3    3    0    0  0.86343012675E+00 -0.30340892285E+01  0.27608164608E+02  0.27787802401E+02  0.51100000000E-03 0.  1.
        -12    1    3    3    0    0 -0.14593584982E+01  0.79104377592E+01  0.59708187631E+01  0.10017755710E+02  0.00000000000E+00 0.  1.
</event>
<event>
 7    1  0.2430096E-009  0.4778727E+02  0.7816164E-02  0.1312668E+00
        -11   -1    0    0    0    0  0.00000000000E+00  0.00000000000E+00  0.45593999997E+02  0.45594000000E+02  0.51100000000E-03 0. -1.
         11   -1    0    0    0    0 -0.00000000000E+00 -0.00000000000E+00 -0.45593999997E+02  0.45594000000E+02  0.51100000000E-03 0.  1.
    9900012    2    1    2    0    0 -0.36136045627E+02 -0.21824039958E+02 -0.10075754498E+02  0.47787270256E+02  0.19999996403E+02 0.  0.
        -12    1    1    2    0    0  0.36136045627E+02  0.21824039958E+02  0.10075754498E+02  0.43400729744E+02  0.00000000000E+00 0.  1.
         11    1    3    3    0    0 -0.21453120677E+02 -0.11055542563E+02 -0.10117562207E+02  0.26169189391E+02  0.51100000000E-03 0. -1.
        -11    1    3    3    0    0 -0.77660467137E+01 -0.12116906323E+02  0.13331496695E+01  0.14453656586E+02  0.51100000000E-03 0.  1.
         12    1    3    3    0    0 -0.69168782368E+01  0.13484089282E+01 -0.12913419609E+01  0.71644242783E+01  0.00000000000E+00 0. -1.
</event>
<event>
 7    1  0.2430096E-009  0.4778727E+02  0.7816164E-02  0.1312668E+00
        -11   -1    0    0    0    0  0.00000000000E+00  0.00000000000E+00  0.45593999997E+02  0.45594000000E+02  0.51100000000E-03 0.  1.
         11   -1    0    0    0    0 -0.00000000000E+00 -0.00000000000E+00 -0.45593999997E+02  0.45594000000E+02  0.51100000000E-03 0. -1.
    9900012    2    1    2    0    0 -0.47124502114E+01 -0.27059931033E+02 -0.33603219937E+02  0.47787269077E+02  0.19999991030E+02 0.  0.
        -12    1    1    2    0    0  0.47124502114E+01  0.27059931033E+02  0.33603219937E+02  0.43400730923E+02  0.00000000000E+00 0.  1.
         11    1    3    3    0    0 -0.35313815462E+00  0.18613298851E+00 -0.89032300821E+01  0.89121747179E+01  0.51100000000E-03 0. -1.
        -11    1    3    3    0    0 -0.37537337514E+01 -0.11868859496E+02 -0.39874908936E+01  0.13071359022E+02  0.51100000000E-03 0.  1.
        -12    1    3    3    0    0 -0.60557830541E+00 -0.15377204526E+02 -0.20712498961E+02  0.25803735337E+02  0.00000000000E+00 0.  1.
</event>
<event>
 7    1  0.2858203E-009  0.4778727E+02  0.7816164E-02  0.1312668E+00
        -11   -1    0    0    0    0  0.00000000000E+00  0.00000000000E+00  0.45593999997E+02  0.45594000000E+02  0.51100000000E-03 0.  1.
         11   -1    0    0    0    0 -0.00000000000E+00 -0.00000000000E+00 -0.45593999997E+02  0.45594000000E+02  0.51100000000E-03 0. -1.
    9900012    2    1    2    0    0  0.29390356588E+02 -0.23186927909E+02 -0.21958978945E+02  0.47787269102E+02  0.19999991141E+02 0.  0.
        -12    1    1    2    0    0 -0.29390356588E+02  0.23186927909E+02  0.21958978945E+02  0.43400730898E+02  0.00000000000E+00 0.  1.
         11    1    3    3    0    0  0.92747632254E+01 -0.70488432873E+01 -0.78683253477E+01  0.14057665831E+02  0.51100000000E-03 0. -1.
        -11    1    3    3    0    0  0.10698940028E+02 -0.15427741898E+02 -0.15286561396E+02  0.24210772341E+02  0.51100000000E-03 0.  1.
        -12    1    3    3    0    0  0.94166533340E+01 -0.71034272344E+00  0.11959077980E+01  0.95188309292E+01  0.00000000000E+00 0.  1.
</event>
<event>
 7    1  0.2430096E-009  0.4778732E+02  0.7816164E-02  0.1312668E+00
        -11   -1    0    0    0    0  0.00000000000E+00  0.00000000000E+00  0.45593999997E+02  0.45594000000E+02  0.51100000000E-03 0. -1.
         11   -1    0    0    0    0 -0.00000000000E+00 -0.00000000000E+00 -0.45593999997E+02  0.45594000000E+02  0.51100000000E-03 0.  1.
    9900012    2    1    2    0    0 -0.78658080153E+01  0.10020816574E+01  0.42670175405E+02  0.47787320599E+02  0.20000225940E+02 0.  0.
        -12    1    1    2    0    0  0.78658080153E+01 -0.10020816574E+01 -0.42670175405E+02  0.43400679401E+02  0.00000000000E+00 0.  1.
         11    1    3    3    0    0 -0.35150135159E+01  0.86000132590E+00  0.94577861649E+01  0.10126432822E+02  0.51100000000E-03 0. -1.
        -11    1    3    3    0    0 -0.90990640281E+01 -0.52337474919E+01  0.21525270439E+02  0.23948326595E+02  0.51100000000E-03 0.  1.
        -12    1    3    3    0    0  0.47482695287E+01  0.53758278234E+01  0.11687118801E+02  0.13712561182E+02  0.00000000000E+00 0.  1.
</event>
<event>
 7    1  0.2430096E-009  0.4778727E+02  0.7816164E-02  0.1312668E+00
        -11   -1    0    0    0    0  0.00000000000E+00  0.00000000000E+00  0.45593999997E+02  0.45594000000E+02  0.51100000000E-03 0. -1.
         11   -1    0    0    0    0 -0.00000000000E+00 -0.00000000000E+00 -0.45593999997E+02  0.45594000000E+02  0.51100000000E-03 0.  1.
    9900012    2    1    2    0    0 -0.18306045747E+02  0.38304909467E+02  0.90136367814E+01  0.47787273645E+02  0.20000011856E+02 0.  0.
        -12    1    1    2    0    0  0.18306045747E+02 -0.38304909467E+02 -0.90136367814E+01  0.43400726355E+02  0.00000000000E+00 0.  1.
         11    1    3    3    0    0 -0.11502519287E+02  0.38023059113E+02  0.93710164529E+01  0.40815155566E+02  0.51100000000E-03 0. -1.
        -11    1    3    3    0    0 -0.38566908382E+01  0.39408977482E+00  0.48046671798E+00  0.39064330917E+01  0.51100000000E-03 0.  1.
         12    1    3    3    0    0 -0.29468356212E+01 -0.11223942110E+00 -0.83784638944E+00  0.30656849868E+01  0.00000000000E+00 0. -1.
</event>
<event>
 7    1  0.2430096E-009  0.4778727E+02  0.7816164E-02  0.1312668E+00
        -11   -1    0    0    0    0  0.00000000000E+00  0.00000000000E+00  0.45593999997E+02  0.45594000000E+02  0.51100000000E-03 0. -1.
         11   -1    0    0    0    0 -0.00000000000E+00 -0.00000000000E+00 -0.45593999997E+02  0.45594000000E+02  0.51100000000E-03 0.  1.
    9900012    2    1    2    0    0  0.24801099143E+02  0.18385355371E+02 -0.30504223468E+02  0.47787268897E+02  0.19999990211E+02 0.  0.
        -12    1    1    2    0    0 -0.24801099143E+02 -0.18385355371E+02  0.30504223468E+02  0.43400731103E+02  0.00000000000E+00 0.  1.
         11    1    3    3    0    0  0.73881322288E+01  0.49927901525E+00 -0.25009701601E+01  0.78159215303E+01  0.51100000000E-03 0. -1.
        -11    1    3    3    0    0  0.13661924694E+02  0.15408545087E+02 -0.28800950517E+02  0.35405736809E+02  0.51100000000E-03 0.  1.
        -12    1    3    3    0    0  0.37510422203E+01  0.24775312689E+01  0.79769720932E+00  0.45656105577E+01  0.00000000000E+00 0.  1.
</event>
<event>
 7    1  0.2430096E-009  0.4778728E+02  0.7816164E-02  0.1312668E+00
        -11   -1    0    0    0    0  0.00000000000E+00  0.00000000000E+00  0.45593999997E+02  0.45594000000E+02  0.51100000000E-03 0. -1.
         11   -1    0    0    0    0 -0.00000000000E+00 -0.00000000000E+00 -0.45593999997E+02  0.45594000000E+02  0.51100000000E-03 0.  1.
    9900012    2    1    2    0    0 -0.41969806779E+02  0.89662315447E+01 -0.64625586293E+01  0.47787278195E+02  0.20000032603E+02 0.  0.
        -12    1    1    2    0    0  0.41969806779E+02 -0.89662315447E+01  0.64625586293E+01  0.43400721805E+02  0.00000000000E+00 0.  1.
         11    1    3    3    0    0 -0.39255802879E+02  0.67869092427E+01 -0.22929146058E+01  0.39904105734E+02  0.51100000000E-03 0. -1.
        -11    1    3    3    0    0 -0.14220726884E+01  0.28043574618E+01 -0.52274759979E+01  0.61002636889E+01  0.51100000000E-03 0.  1.
         12    1    3    3    0    0 -0.12919312112E+01 -0.62503515978E+00  0.10578319743E+01  0.17829087726E+01  0.00000000000E+00 0. -1.
</event>
<event>
 7    1  0.2430096E-009  0.4778727E+02  0.7816164E-02  0.1312668E+00
        -11   -1    0    0    0    0  0.00000000000E+00  0.00000000000E+00  0.45593999997E+02  0.45594000000E+02  0.51100000000E-03 0. -1.
         11   -1    0    0    0    0 -0.00000000000E+00 -0.00000000000E+00 -0.45593999997E+02  0.45594000000E+02  0.51100000000E-03 0.  1.
    9900012    2    1    2    0    0 -0.27487583062E+02 -0.30279072468E+02 -0.14533886349E+02  0.47787270692E+02  0.19999998392E+02 0.  0.
        -12    1    1    2    0    0  0.27487583062E+02  0.30279072468E+02  0.14533886349E+02  0.43400729308E+02  0.00000000000E+00 0.  1.
         11    1    3    3    0    0 -0.30180464945E+01 -0.84966298134E+01 -0.12534898553E+01  0.91034367086E+01  0.51100000000E-03 0. -1.
        -11    1    3    3    0    0 -0.24742456664E+02 -0.16708779380E+02 -0.71101829145E+01  0.30690832043E+02  0.51100000000E-03 0.  1.
        -12    1    3    3    0    0  0.27292009669E+00 -0.50736632742E+01 -0.61702135797E+01  0.79930019404E+01  0.00000000000E+00 0.  1.
</event>
<event>
 7    1  0.2430096E-009  0.4778727E+02  0.7816164E-02  0.1312668E+00
        -11   -1    0    0    0    0  0.00000000000E+00  0.00000000000E+00  0.45593999997E+02  0.45594000000E+02  0.51100000000E-03 0.  1.
         11   -1    0    0    0    0 -0.00000000000E+00 -0.00000000000E+00 -0.45593999997E+02  0.45594000000E+02  0.51100000000E-03 0. -1.
    9900012    2    1    2    0    0  0.19338137202E+02 -0.27586708869E+02 -0.27361168611E+02  0.47787267237E+02  0.19999982640E+02 0.  0.
        -12    1    1    2    0    0 -0.19338137202E+02  0.27586708869E+02  0.27361168611E+02  0.43400732763E+02  0.00000000000E+00 0.  1.
         11    1    3    3    0    0  0.14800148760E+00 -0.63267121549E+01 -0.12157927675E+02  0.13706363366E+02  0.51100000000E-03 0. -1.
        -11    1    3    3    0    0  0.10871872750E+02 -0.16207265599E+02 -0.53603885452E+01  0.20238746031E+02  0.51100000000E-03 0.  1.
        -12    1    3    3    0    0  0.83182629643E+01 -0.50527311144E+01 -0.98428523909E+01  0.13842157839E+02  0.00000000000E+00 0.  1.
</event>
<event>
 7    1  0.2430096E-009  0.4778727E+02  0.7816164E-02  0.1312668E+00
        -11   -1    0    0    0    0  0.00000000000E+00  0.00000000000E+00  0.45593999997E+02  0.45594000000E+02  0.51100000000E-03 0.  1.
         11   -1    0    0    0    0 -0.00000000000E+00 -0.00000000000E+00 -0.45593999997E+02  0.45594000000E+02  0.51100000000E-03 0. -1.
    9900012    2    1    2    0    0  0.26260038739E+02  0.34439040195E+02 -0.28260282156E+01  0.47787267752E+02  0.19999984990E+02 0.  0.
        -12    1    1    2    0    0 -0.26260038739E+02 -0.34439040195E+02  0.28260282156E+01  0.43400732248E+02  0.00000000000E+00 0.  1.
         11    1    3    3    0    0  0.44868535775E+01  0.14065409871E+01 -0.57563485395E+01  0.74327492454E+01  0.51100000000E-03 0. -1.
        -11    1    3    3    0    0  0.19786767280E+02  0.29438681926E+02  0.48876704279E+01  0.35805606759E+02  0.51100000000E-03 0.  1.
         12    1    3    3    0    0  0.19864178823E+01  0.35938172824E+01 -0.19573501040E+01  0.45489117482E+01  0.00000000000E+00 0. -1.
</event>
<event>
 7    1  0.2430096E-009  0.4778727E+02  0.7816164E-02  0.1312668E+00
        -11   -1    0    0    0    0  0.00000000000E+00  0.00000000000E+00  0.45593999997E+02  0.45594000000E+02  0.51100000000E-03 0.  1.
         11   -1    0    0    0    0 -0.00000000000E+00 -0.00000000000E+00 -0.45593999997E+02  0.45594000000E+02  0.51100000000E-03 0. -1.
    9900012    2    1    2    0    0 -0.11228911939E+02  0.20074668569E+02 -0.36804109927E+02  0.47787270870E+02  0.19999999204E+02 0.  0.
        -12    1    1    2    0    0  0.11228911939E+02 -0.20074668569E+02  0.36804109927E+02  0.43400729130E+02  0.00000000000E+00 0.  1.
         11    1    3    3    0    0 -0.10777709047E+02  0.91804611403E+01 -0.29593367616E+02  0.32805598397E+02  0.51100000000E-03 0. -1.
        -11    1    3    3    0    0 -0.35254974167E+01  0.86049078640E+01 -0.51304830176E+01  0.10620519179E+02  0.51100000000E-03 0.  1.
         12    1    3    3    0    0  0.30742945250E+01  0.22892995648E+01 -0.20802592939E+01  0.43611532940E+01  0.00000000000E+00 0. -1.
</event>
<event>
 7    1  0.2430096E-009  0.4778727E+02  0.7816164E-02  0.1312668E+00
        -11   -1    0    0    0    0  0.00000000000E+00  0.00000000000E+00  0.45593999997E+02  0.45594000000E+02  0.51100000000E-03 0.  1.
         11   -1    0    0    0    0 -0.00000000000E+00 -0.00000000000E+00 -0.45593999997E+02  0.45594000000E+02  0.51100000000E-03 0. -1.
    9900012    2    1    2    0    0 -0.18857164931E+02  0.29440696799E+02 -0.25715284609E+02  0.47787272359E+02  0.20000005995E+02 0.  0.
        -12    1    1    2    0    0  0.18857164931E+02 -0.29440696799E+02  0.25715284609E+02  0.43400727641E+02  0.00000000000E+00 0.  1.
         11    1    3    3    0    0 -0.13805563996E+02  0.28210557950E+02 -0.26345705852E+02  0.40994211715E+02  0.51100000000E-03 0. -1.
        -11    1    3    3    0    0 -0.61455503662E+00  0.57174390933E+00  0.19453146475E+01  0.21186831594E+01  0.51100000000E-03 0.  1.
         12    1    3    3    0    0 -0.44370458985E+01  0.65839493993E+00 -0.13148934042E+01  0.46743774844E+01  0.00000000000E+00 0. -1.
</event>
<event>
 7    1  0.2430096E-009  0.4778728E+02  0.7816164E-02  0.1312668E+00
        -11   -1    0    0    0    0  0.00000000000E+00  0.00000000000E+00  0.45593999997E+02  0.45594000000E+02  0.51100000000E-03 0.  1.
         11   -1    0    0    0    0 -0.00000000000E+00 -0.00000000000E+00 -0.45593999997E+02  0.45594000000E+02  0.51100000000E-03 0. -1.
    9900012    2    1    2    0    0  0.94732003283E+01 -0.34731683815E+02 -0.24240278611E+02  0.47787280050E+02  0.20000041058E+02 0.  0.
        -12    1    1    2    0    0 -0.94732003283E+01  0.34731683815E+02  0.24240278611E+02  0.43400719950E+02  0.00000000000E+00 0.  1.
         11    1    3    3    0    0  0.75738550567E+01 -0.66496052868E+01 -0.37454905744E+01  0.10752173306E+02  0.51100000000E-03 0. -1.
        -11    1    3    3    0    0 -0.11068076060E+01 -0.24839003149E+02 -0.12337565508E+02  0.27756379869E+02  0.51100000000E-03 0.  1.
        -12    1    3    3    0    0  0.30061528776E+01 -0.32430753785E+01 -0.81572225285E+01  0.92787268746E+01  0.00000000000E+00 0.  1.
</event>
<event>
 7    1  0.2430096E-009  0.4778730E+02  0.7816164E-02  0.1312668E+00
        -11   -1    0    0    0    0  0.00000000000E+00  0.00000000000E+00  0.45593999997E+02  0.45594000000E+02  0.51100000000E-03 0.  1.
         11   -1    0    0    0    0 -0.00000000000E+00 -0.00000000000E+00 -0.45593999997E+02  0.45594000000E+02  0.51100000000E-03 0. -1.
    9900012    2    1    2    0    0 -0.16543426915E+00  0.50971272221E+01 -0.43100036146E+02  0.47787295049E+02  0.20000109447E+02 0.  0.
        -12    1    1    2    0    0  0.16543426915E+00 -0.50971272221E+01  0.43100036146E+02  0.43400704951E+02  0.00000000000E+00 0.  1.
         11    1    3    3    0    0 -0.18714791320E+01  0.56899418667E+01 -0.68515486877E+01  0.91006369156E+01  0.51100000000E-03 0. -1.
        -11    1    3    3    0    0  0.35985769918E+00 -0.65991091889E+00 -0.37090039328E+02  0.37097654880E+02  0.51100000000E-03 0.  1.
        -12    1    3    3    0    0  0.13461871637E+01  0.67096274224E-01  0.84155186966E+00  0.15890032533E+01  0.00000000000E+00 0.  1.
</event>
<event>
 7    1  0.2430096E-009  0.4778727E+02  0.7816164E-02  0.1312668E+00
        -11   -1    0    0    0    0  0.00000000000E+00  0.00000000000E+00  0.45593999997E+02  0.45594000000E+02  0.51100000000E-03 0.  1.
         11   -1    0    0    0    0 -0.00000000000E+00 -0.00000000000E+00 -0.45593999997E+02  0.45594000000E+02  0.51100000000E-03 0. -1.
    9900012    2    1    2    0    0 -0.25596086401E+02  0.30331965577E+02 -0.17562331550E+02  0.47787271155E+02  0.20000000504E+02 0.  0.
        -12    1    1    2    0    0  0.25596086401E+02 -0.30331965577E+02  0.17562331550E+02  0.43400728845E+02  0.00000000000E+00 0.  1.
         11    1    3    3    0    0 -0.15574656797E+02  0.19556081033E+02 -0.87399384523E+00  0.25015477313E+02  0.51100000000E-03 0. -1.
        -11    1    3    3    0    0 -0.70755026755E+01  0.10004885027E+02 -0.11794940056E+02  0.17008264864E+02  0.51100000000E-03 0.  1.
         12    1    3    3    0    0 -0.29459269287E+01  0.77099951711E+00 -0.48933976489E+01  0.57635289775E+01  0.00000000000E+00 0. -1.
</event>
<event>
 7    1  0.2430096E-009  0.4778728E+02  0.7816164E-02  0.1312668E+00
        -11   -1    0    0    0    0  0.00000000000E+00  0.00000000000E+00  0.45593999997E+02  0.45594000000E+02  0.51100000000E-03 0. -1.
         11   -1    0    0    0    0 -0.00000000000E+00 -0.00000000000E+00 -0.45593999997E+02  0.45594000000E+02  0.51100000000E-03 0.  1.
    9900012    2    1    2    0    0  0.34579081390E+02 -0.30411451995E+01 -0.26051131507E+02  0.47787275505E+02  0.20000020337E+02 0.  0.
        -12    1    1    2    0    0 -0.34579081390E+02  0.30411451995E+01  0.26051131507E+02  0.43400724495E+02  0.00000000000E+00 0.  1.
         11    1    3    3    0    0  0.81120876441E+01 -0.61560213803E+01 -0.14605737296E+01  0.10287654789E+02  0.51100000000E-03 0. -1.
        -11    1    3    3    0    0  0.46261451325E+01 -0.29232748443E+01 -0.32064157111E+01  0.63425433838E+01  0.51100000000E-03 0.  1.
         12    1    3    3    0    0  0.21840848614E+02  0.60381510251E+01 -0.21384142066E+02  0.31157077332E+02  0.00000000000E+00 0. -1.
</event>
<event>
 7    1  0.2430096E-009  0.4778727E+02  0.7816164E-02  0.1312668E+00
        -11   -1    0    0    0    0  0.00000000000E+00  0.00000000000E+00  0.45593999997E+02  0.45594000000E+02  0.51100000000E-03 0.  1.
         11   -1    0    0    0    0 -0.00000000000E+00 -0.00000000000E+00 -0.45593999997E+02  0.45594000000E+02  0.51100000000E-03 0. -1.
    9900012    2    1    2    0    0 -0.15933271172E+02 -0.12857865563E+02 -0.38267870094E+02  0.47787265921E+02  0.19999976639E+02 0.  0.
        -12    1    1    2    0    0  0.15933271172E+02  0.12857865563E+02  0.38267870094E+02  0.43400734079E+02  0.00000000000E+00 0.  1.
         11    1    3    3    0    0 -0.13060391730E+02 -0.10171210330E+02 -0.33092167515E+02  0.37001606760E+02  0.51100000000E-03 0. -1.
        -11    1    3    3    0    0 -0.51122361510E+01  0.92681485351E+00 -0.25336156134E+01  0.57804111077E+01  0.51100000000E-03 0.  1.
         12    1    3    3    0    0  0.22393567090E+01 -0.36134700868E+01 -0.26420869652E+01  0.50052480528E+01  0.00000000000E+00 0. -1.
</event>
<event>
 7    1  0.2430096E-009  0.4778727E+02  0.7816164E-02  0.1312668E+00
        -11   -1    0    0    0    0  0.00000000000E+00  0.00000000000E+00  0.45593999997E+02  0.45594000000E+02  0.51100000000E-03 0. -1.
         11   -1    0    0    0    0 -0.00000000000E+00 -0.00000000000E+00 -0.45593999997E+02  0.45594000000E+02  0.51100000000E-03 0.  1.
    9900012    2    1    2    0    0 -0.24675827301E+02  0.19422839679E+02  0.29957978838E+02  0.47787266709E+02  0.19999980231E+02 0.  0.
        -12    1    1    2    0    0  0.24675827301E+02 -0.19422839679E+02 -0.29957978838E+02  0.43400733291E+02  0.00000000000E+00 0.  1.
         11    1    3    3    0    0 -0.56446664130E+01  0.99638691221E+01  0.18487905016E+02  0.21747266010E+02  0.51100000000E-03 0. -1.
        -11    1    3    3    0    0 -0.92192945956E+01  0.84173907097E+01  0.25563927738E+01  0.12742958976E+02  0.51100000000E-03 0.  1.
        -12    1    3    3    0    0 -0.98118662921E+01  0.10415798469E+01  0.89136810488E+01  0.13297041722E+02  0.00000000000E+00 0.  1.
</event>
<event>
 7    1  0.2430096E-009  0.4778727E+02  0.7816164E-02  0.1312668E+00
        -11   -1    0    0    0    0  0.00000000000E+00  0.00000000000E+00  0.45593999997E+02  0.45594000000E+02  0.51100000000E-03 0.  1.
         11   -1    0    0    0    0 -0.00000000000E+00 -0.00000000000E+00 -0.45593999997E+02  0.45594000000E+02  0.51100000000E-03 0. -1.
    9900012    2    1    2    0    0  0.27688613100E+02 -0.28996243144E+01 -0.33294989018E+02  0.47787269473E+02  0.19999992834E+02 0.  0.
        -12    1    1    2    0    0 -0.27688613100E+02  0.28996243144E+01  0.33294989018E+02  0.43400730527E+02  0.00000000000E+00 0.  1.
         11    1    3    3    0    0  0.76211407618E+01  0.50193228668E+01 -0.33227650127E+01  0.97116505365E+01  0.51100000000E-03 0. -1.
        -11    1    3    3    0    0  0.80764855682E+01 -0.81706047646E+01 -0.14622624393E+02  0.18595955091E+02  0.51100000000E-03 0.  1.
        -12    1    3    3    0    0  0.11990986770E+02  0.25165758349E+00 -0.15349599612E+02  0.19479663845E+02  0.00000000000E+00 0.  1.
</event>
<event>
 7    1  0.2430096E-009  0.4778727E+02  0.7816164E-02  0.1312668E+00
        -11   -1    0    0    0    0  0.00000000000E+00  0.00000000000E+00  0.45593999997E+02  0.45594000000E+02  0.51100000000E-03 0.  1.
         11   -1    0    0    0    0 -0.00000000000E+00 -0.00000000000E+00 -0.45593999997E+02  0.45594000000E+02  0.51100000000E-03 0. -1.
    9900012    2    1    2    0    0 -0.34794339872E+02 -0.15228789487E+01 -0.25897059872E+02  0.47787274689E+02  0.20000016619E+02 0.  0.
        -12    1    1    2    0    0  0.34794339872E+02  0.15228789487E+01  0.25897059872E+02  0.43400725311E+02  0.00000000000E+00 0.  1.
         11    1    3    3    0    0 -0.19107136171E+02 -0.24892502403E+01 -0.37454987253E+01  0.19629258274E+02  0.51100000000E-03 0.  1.
        -11    1    3    3    0    0 -0.11812625090E+02 -0.21856254223E+01 -0.18113750177E+02  0.21735294241E+02  0.51100000000E-03 0. -1.
         12    1    3    3    0    0 -0.38745786113E+01  0.31519967139E+01 -0.40378109704E+01  0.64227221746E+01  0.00000000000E+00 0. -1.
</event>
<event>
 7    1  0.2430096E-009  0.4778727E+02  0.7816164E-02  0.1312668E+00
        -11   -1    0    0    0    0  0.00000000000E+00  0.00000000000E+00  0.45593999997E+02  0.45594000000E+02  0.51100000000E-03 0.  1.
         11   -1    0    0    0    0 -0.00000000000E+00 -0.00000000000E+00 -0.45593999997E+02  0.45594000000E+02  0.51100000000E-03 0. -1.
    9900012    2    1    2    0    0  0.69212460117E+01 -0.39011669154E+02 -0.17714661977E+02  0.47787271602E+02  0.20000002542E+02 0.  0.
        -12    1    1    2    0    0 -0.69212460117E+01  0.39011669154E+02  0.17714661977E+02  0.43400728398E+02  0.00000000000E+00 0.  1.
         11    1    3    3    0    0  0.79310128938E+01 -0.16277370077E+02  0.89658146326E-02  0.18106734184E+02  0.51100000000E-03 0. -1.
        -11    1    3    3    0    0 -0.12250934747E+01 -0.17372606391E+02 -0.16870543058E+02  0.24247134473E+02  0.51100000000E-03 0.  1.
        -12    1    3    3    0    0  0.21532659266E+00 -0.53616926859E+01 -0.85308473347E+00  0.54334029449E+01  0.00000000000E+00 0.  1.
</event>
<event>
 7    1  0.2430096E-009  0.4778727E+02  0.7816164E-02  0.1312668E+00
        -11   -1    0    0    0    0  0.00000000000E+00  0.00000000000E+00  0.45593999997E+02  0.45594000000E+02  0.51100000000E-03 0.  1.
         11   -1    0    0    0    0 -0.00000000000E+00 -0.00000000000E+00 -0.45593999997E+02  0.45594000000E+02  0.51100000000E-03 0. -1.
    9900012    2    1    2    0    0 -0.34840788213E+02 -0.17151778822E+02 -0.19379354026E+02  0.47787269562E+02  0.19999993242E+02 0.  0.
        -12    1    1    2    0    0  0.34840788213E+02  0.17151778822E+02  0.19379354026E+02  0.43400730438E+02  0.00000000000E+00 0.  1.
         11    1    3    3    0    0 -0.34184194764E+02 -0.97650041766E+01 -0.13089157147E+02  0.37884568274E+02  0.51100000000E-03 0. -1.
        -11    1    3    3    0    0 -0.51566276783E+00 -0.35089623547E+01 -0.18305027260E+01  0.39911734349E+01  0.51100000000E-03 0.  1.
         12    1    3    3    0    0 -0.14093068092E+00 -0.38778122907E+01 -0.44596941528E+01  0.59115278529E+01  0.00000000000E+00 0. -1.
</event>
<event>
 7    1  0.2430096E-009  0.4778727E+02  0.7816164E-02  0.1312668E+00
        -11   -1    0    0    0    0  0.00000000000E+00  0.00000000000E+00  0.45593999997E+02  0.45594000000E+02  0.51100000000E-03 0.  1.
         11   -1    0    0    0    0 -0.00000000000E+00 -0.00000000000E+00 -0.45593999997E+02  0.45594000000E+02  0.51100000000E-03 0. -1.
    9900012    2    1    2    0    0 -0.24741787466E+02 -0.11944569925E+01 -0.35637625289E+02  0.47787272924E+02  0.20000008569E+02 0.  0.
        -12    1    1    2    0    0  0.24741787466E+02  0.11944569925E+01  0.35637625289E+02  0.43400727076E+02  0.00000000000E+00 0.  1.
         11    1    3    3    0    0 -0.15699706985E+02  0.67579794812E+01 -0.15779014123E+02  0.23262166129E+02  0.51100000000E-03 0. -1.
        -11    1    3    3    0    0 -0.66313895372E+01 -0.43312214666E+01 -0.18236507875E+02  0.19882279203E+02  0.51100000000E-03 0.  1.
         12    1    3    3    0    0 -0.24106909435E+01 -0.36212150072E+01 -0.16221032916E+01  0.46428275912E+01  0.00000000000E+00 0. -1.
</event>
<event>
 7    1  0.2430096E-009  0.4778728E+02  0.7816164E-02  0.1312668E+00
        -11   -1    0    0    0    0  0.00000000000E+00  0.00000000000E+00  0.45593999997E+02  0.45594000000E+02  0.51100000000E-03 0.  1.
         11   -1    0    0    0    0 -0.00000000000E+00 -0.00000000000E+00 -0.45593999997E+02  0.45594000000E+02  0.51100000000E-03 0. -1.
    9900012    2    1    2    0    0 -0.38651626584E+02 -0.73275957300E+01 -0.18329773028E+02  0.47787280236E+02  0.20000041909E+02 0.  0.
        -12    1    1    2    0    0  0.38651626584E+02  0.73275957300E+01  0.18329773028E+02  0.43400719764E+02  0.00000000000E+00 0.  1.
         11    1    3    3    0    0 -0.13100213355E+02 -0.63534654556E+01 -0.12697822831E+02  0.19318820309E+02  0.51100000000E-03 0. -1.
        -11    1    3    3    0    0 -0.22362946283E+02 -0.35628217581E+01 -0.15815328115E+01  0.22700139023E+02  0.51100000000E-03 0.  1.
        -12    1    3    3    0    0 -0.31884669459E+01  0.25886914837E+01 -0.40504173850E+01  0.57683209044E+01  0.00000000000E+00 0.  1.
</event>
<event>
 7    1  0.2430096E-009  0.4778727E+02  0.7816164E-02  0.1312668E+00
        -11   -1    0    0    0    0  0.00000000000E+00  0.00000000000E+00  0.45593999997E+02  0.45594000000E+02  0.51100000000E-03 0.  1.
         11   -1    0    0    0    0 -0.00000000000E+00 -0.00000000000E+00 -0.45593999997E+02  0.45594000000E+02  0.51100000000E-03 0. -1.
    9900012    2    1    2    0    0  0.89356286142E+01  0.13173311286E+02  0.40376249534E+02  0.47787272870E+02  0.20000008323E+02 0.  0.
        -12    1    1    2    0    0 -0.89356286142E+01 -0.13173311286E+02 -0.40376249534E+02  0.43400727130E+02  0.00000000000E+00 0.  1.
         11    1    3    3    0    0  0.84069857406E+01  0.87844568856E+01  0.12065858229E+02  0.17129770199E+02  0.51100000000E-03 0. -1.
        -11    1    3    3    0    0 -0.51905902079E+01  0.19812359321E+01  0.13009460254E+02  0.14146150674E+02  0.51100000000E-03 0.  1.
        -12    1    3    3    0    0  0.57192330815E+01  0.24076184681E+01  0.15300931051E+02  0.16511351997E+02  0.00000000000E+00 0.  1.
</event>
<event>
 7    1  0.2430096E-009  0.4778728E+02  0.7816164E-02  0.1312668E+00
        -11   -1    0    0    0    0  0.00000000000E+00  0.00000000000E+00  0.45593999997E+02  0.45594000000E+02  0.51100000000E-03 0.  1.
         11   -1    0    0    0    0 -0.00000000000E+00 -0.00000000000E+00 -0.45593999997E+02  0.45594000000E+02  0.51100000000E-03 0. -1.
    9900012    2    1    2    0    0  0.21015016929E+02 -0.91335231671E+01 -0.36858792374E+02  0.47787276996E+02  0.20000027136E+02 0.  0.
        -12    1    1    2    0    0 -0.21015016929E+02  0.91335231671E+01  0.36858792374E+02  0.43400723004E+02  0.00000000000E+00 0.  1.
         11    1    3    3    0    0  0.39835439386E+01 -0.49649371088E+01 -0.19099837781E+02  0.20132635851E+02  0.51100000000E-03 0. -1.
        -11    1    3    3    0    0  0.10545458109E+02  0.34443519361E+01 -0.10701381713E+02  0.15413948807E+02  0.51100000000E-03 0.  1.
        -12    1    3    3    0    0  0.64860148813E+01 -0.76129379944E+01 -0.70575728804E+01  0.12240692338E+02  0.00000000000E+00 0.  1.
</event>
<event>
 7    1  0.2430096E-009  0.4778727E+02  0.7816164E-02  0.1312668E+00
        -11   -1    0    0    0    0  0.00000000000E+00  0.00000000000E+00  0.45593999997E+02  0.45594000000E+02  0.51100000000E-03 0. -1.
         11   -1    0    0    0    0 -0.00000000000E+00 -0.00000000000E+00 -0.45593999997E+02  0.45594000000E+02  0.51100000000E-03 0.  1.
    9900012    2    1    2    0    0  0.57012919661E+01 -0.42928625961E+02 -0.28725575508E+01  0.47787271390E+02  0.20000001575E+02 0.  0.
        -12    1    1    2    0    0 -0.57012919661E+01  0.42928625961E+02  0.28725575508E+01  0.43400728610E+02  0.00000000000E+00 0.  1.
         11    1    3    3    0    0 -0.59284940113E+01 -0.20421972841E+02 -0.20694690589E+01  0.21365549804E+02  0.51100000000E-03 0. -1.
        -11    1    3    3    0    0  0.26667028708E+01 -0.29179476447E+01 -0.27144078858E+01  0.47951781083E+01  0.51100000000E-03 0.  1.
         12    1    3    3    0    0  0.89630831066E+01 -0.19588705475E+02  0.19113193939E+01  0.21626543478E+02  0.00000000000E+00 0. -1.
</event>
<event>
 7    1  0.2430096E-009  0.4778727E+02  0.7816164E-02  0.1312668E+00
        -11   -1    0    0    0    0  0.00000000000E+00  0.00000000000E+00  0.45593999997E+02  0.45594000000E+02  0.51100000000E-03 0.  1.
         11   -1    0    0    0    0 -0.00000000000E+00 -0.00000000000E+00 -0.45593999997E+02  0.45594000000E+02  0.51100000000E-03 0. -1.
    9900012    2    1    2    0    0  0.28397658314E+02 -0.32578317099E+01 -0.32658578944E+02  0.47787271391E+02  0.20000001579E+02 0.  0.
        -12    1    1    2    0    0 -0.28397658314E+02  0.32578317099E+01  0.32658578944E+02  0.43400728609E+02  0.00000000000E+00 0.  1.
         11    1    3    3    0    0  0.87624042302E+00 -0.15172476334E+01 -0.13200351631E+02  0.13316122600E+02  0.51100000000E-03 0. -1.
        -11    1    3    3    0    0  0.10024649196E+02 -0.30016164072E+01 -0.43977782746E+01  0.11350935934E+02  0.51100000000E-03 0.  1.
         12    1    3    3    0    0  0.17496768696E+02  0.12610323307E+01 -0.15060449038E+02  0.23120212857E+02  0.00000000000E+00 0. -1.
</event>
<event>
 7    1  0.2430096E-009  0.4778727E+02  0.7816164E-02  0.1312668E+00
        -11   -1    0    0    0    0  0.00000000000E+00  0.00000000000E+00  0.45593999997E+02  0.45594000000E+02  0.51100000000E-03 0.  1.
         11   -1    0    0    0    0 -0.00000000000E+00 -0.00000000000E+00 -0.45593999997E+02  0.45594000000E+02  0.51100000000E-03 0. -1.
    9900012    2    1    2    0    0 -0.27132102441E+01  0.25825345369E+02 -0.34775183822E+02  0.47787269786E+02  0.19999994263E+02 0.  0.
        -12    1    1    2    0    0  0.27132102441E+01 -0.25825345369E+02  0.34775183822E+02  0.43400730214E+02  0.00000000000E+00 0.  1.
         11    1    3    3    0    0  0.31043178650E+01 -0.20643427704E+01 -0.24224801835E+01  0.44459769434E+01  0.51100000000E-03 0. -1.
        -11    1    3    3    0    0 -0.53676394939E+01  0.18591911449E+02 -0.19504514852E+02  0.27475385802E+02  0.51100000000E-03 0.  1.
         12    1    3    3    0    0 -0.44988861522E+00  0.92977766902E+01 -0.12848188786E+02  0.15865907041E+02  0.00000000000E+00 0. -1.
</event>
<event>
 7    1  0.2430096E-009  0.4778727E+02  0.7816164E-02  0.1312668E+00
        -11   -1    0    0    0    0  0.00000000000E+00  0.00000000000E+00  0.45593999997E+02  0.45594000000E+02  0.51100000000E-03 0.  1.
         11   -1    0    0    0    0 -0.00000000000E+00 -0.00000000000E+00 -0.45593999997E+02  0.45594000000E+02  0.51100000000E-03 0. -1.
    9900012    2    1    2    0    0 -0.11576739724E+02 -0.41645896764E+02 -0.39015107760E+01  0.47787269520E+02  0.19999993047E+02 0.  0.
        -12    1    1    2    0    0  0.11576739724E+02  0.41645896764E+02  0.39015107760E+01  0.43400730480E+02  0.00000000000E+00 0.  1.
         11    1    3    3    0    0 -0.46675143178E+01 -0.56786007221E+01  0.38904181019E+01  0.83167030328E+01  0.51100000000E-03 0. -1.
        -11    1    3    3    0    0 -0.16061421400E+01 -0.16040242620E+02 -0.96139884421E+01  0.18769599087E+02  0.51100000000E-03 0.  1.
         12    1    3    3    0    0 -0.53030832659E+01 -0.19927053422E+02  0.18220595641E+01  0.20700967399E+02  0.00000000000E+00 0. -1.
</event>
<event>
 7    1  0.2430096E-009  0.4778727E+02  0.7816164E-02  0.1312668E+00
        -11   -1    0    0    0    0  0.00000000000E+00  0.00000000000E+00  0.45593999997E+02  0.45594000000E+02  0.51100000000E-03 0. -1.
         11   -1    0    0    0    0 -0.00000000000E+00 -0.00000000000E+00 -0.45593999997E+02  0.45594000000E+02  0.51100000000E-03 0.  1.
    9900012    2    1    2    0    0 -0.28000000273E+02 -0.96682211942E+01  0.31719845347E+02  0.47787272988E+02  0.20000008861E+02 0.  0.
        -12    1    1    2    0    0  0.28000000273E+02  0.96682211942E+01 -0.31719845347E+02  0.43400727012E+02  0.00000000000E+00 0.  1.
         11    1    3    3    0    0 -0.12835370510E+02 -0.19805387658E+01  0.97133263232E+01  0.16217829030E+02  0.51100000000E-03 0. -1.
        -11    1    3    3    0    0 -0.13360579093E+01  0.41350097974E+01  0.31516393840E+01  0.53680711461E+01  0.51100000000E-03 0.  1.
        -12    1    3    3    0    0 -0.13828571853E+02 -0.11822692226E+02  0.18854879640E+02  0.26201372811E+02  0.00000000000E+00 0.  1.
</event>
<event>
 7    1  0.2430096E-009  0.4778727E+02  0.7816164E-02  0.1312668E+00
        -11   -1    0    0    0    0  0.00000000000E+00  0.00000000000E+00  0.45593999997E+02  0.45594000000E+02  0.51100000000E-03 0.  1.
         11   -1    0    0    0    0 -0.00000000000E+00 -0.00000000000E+00 -0.45593999997E+02  0.45594000000E+02  0.51100000000E-03 0. -1.
    9900012    2    1    2    0    0  0.12006089858E+01  0.18021881555E+02 -0.39463829042E+02  0.47787268677E+02  0.19999989204E+02 0.  0.
        -12    1    1    2    0    0 -0.12006089858E+01 -0.18021881555E+02  0.39463829042E+02  0.43400731323E+02  0.00000000000E+00 0.  1.
         11    1    3    3    0    0 -0.22299017676E+01  0.81684211267E+01 -0.17695376912E+02  0.19616878700E+02  0.51100000000E-03 0. -1.
        -11    1    3    3    0    0  0.65298141415E+01  0.56329456044E+01 -0.21220113739E+02  0.22905496638E+02  0.51100000000E-03 0.  1.
        -12    1    3    3    0    0 -0.30993033882E+01  0.42205148243E+01 -0.54833839135E+00  0.52648933385E+01  0.00000000000E+00 0.  1.
</event>
<event>
 7    1  0.2430096E-009  0.4778727E+02  0.7816164E-02  0.1312668E+00
        -11   -1    0    0    0    0  0.00000000000E+00  0.00000000000E+00  0.45593999997E+02  0.45594000000E+02  0.51100000000E-03 0.  1.
         11   -1    0    0    0    0 -0.00000000000E+00 -0.00000000000E+00 -0.45593999997E+02  0.45594000000E+02  0.51100000000E-03 0. -1.
    9900012    2    1    2    0    0  0.10728409666E+02 -0.12391042735E+02 -0.40186895294E+02  0.47787271119E+02  0.20000000340E+02 0.  0.
        -12    1    1    2    0    0 -0.10728409666E+02  0.12391042735E+02  0.40186895294E+02  0.43400728881E+02  0.00000000000E+00 0.  1.
         11    1    3    3    0    0  0.90716594202E+01 -0.95752376378E+01 -0.36361720943E+02  0.38680161978E+02  0.51100000000E-03 0. -1.
        -11    1    3    3    0    0  0.33647842157E+01  0.14526219379E+01 -0.15878797780E+01  0.39941514447E+01  0.51100000000E-03 0.  1.
         12    1    3    3    0    0 -0.17080339699E+01 -0.42684270352E+01 -0.22372945732E+01  0.51129576964E+01  0.00000000000E+00 0. -1.
</event>
<event>
 7    1  0.2430096E-009  0.4778727E+02  0.7816164E-02  0.1312668E+00
        -11   -1    0    0    0    0  0.00000000000E+00  0.00000000000E+00  0.45593999997E+02  0.45594000000E+02  0.51100000000E-03 0. -1.
         11   -1    0    0    0    0 -0.00000000000E+00 -0.00000000000E+00 -0.45593999997E+02  0.45594000000E+02  0.51100000000E-03 0.  1.
    9900012    2    1    2    0    0  0.28893161378E+01  0.29957418405E+01  0.43200706604E+02  0.47787266504E+02  0.19999979300E+02 0.  0.
        -12    1    1    2    0    0 -0.28893161378E+01 -0.29957418405E+01 -0.43200706604E+02  0.43400733496E+02  0.00000000000E+00 0.  1.
         11    1    3    3    0    0  0.96472271173E+00 -0.45866231166E+01  0.24023861424E+02  0.24476799617E+02  0.51100000000E-03 0. -1.
        -11    1    3    3    0    0 -0.13516467014E+01 -0.60381900956E+00 -0.64586266543E+00  0.16151424226E+01  0.51100000000E-03 0.  1.
         12    1    3    3    0    0  0.32762401274E+01  0.81861839666E+01  0.19822707845E+02  0.21695324464E+02  0.00000000000E+00 0. -1.
</event>
<event>
 7    1  0.2430096E-009  0.4778727E+02  0.7816164E-02  0.1312668E+00
        -11   -1    0    0    0    0  0.00000000000E+00  0.00000000000E+00  0.45593999997E+02  0.45594000000E+02  0.51100000000E-03 0. -1.
         11   -1    0    0    0    0 -0.00000000000E+00 -0.00000000000E+00 -0.45593999997E+02  0.45594000000E+02  0.51100000000E-03 0.  1.
    9900012    2    1    2    0    0 -0.10129580897E+02 -0.26551911270E+02  0.32802607870E+02  0.47787268620E+02  0.19999988945E+02 0.  0.
        -12    1    1    2    0    0  0.10129580897E+02  0.26551911270E+02 -0.32802607870E+02  0.43400731380E+02  0.00000000000E+00 0.  1.
         11    1    3    3    0    0 -0.93513102385E+00 -0.78756911982E+01  0.13415725710E+01  0.80436806939E+01  0.51100000000E-03 0. -1.
        -11    1    3    3    0    0 -0.12325193460E+02 -0.15135290591E+02  0.24398178048E+02  0.31245135740E+02  0.51100000000E-03 0.  1.
        -12    1    3    3    0    0  0.31307435871E+01 -0.35409294814E+01  0.70628572517E+01  0.84984521860E+01  0.00000000000E+00 0.  1.
</event>
<event>
 7    1  0.2430096E-009  0.4778726E+02  0.7816164E-02  0.1312668E+00
        -11   -1    0    0    0    0  0.00000000000E+00  0.00000000000E+00  0.45593999997E+02  0.45594000000E+02  0.51100000000E-03 0.  1.
         11   -1    0    0    0    0 -0.00000000000E+00 -0.00000000000E+00 -0.45593999997E+02  0.45594000000E+02  0.51100000000E-03 0. -1.
    9900012    2    1    2    0    0  0.15788973181E+02 -0.40203595565E+02  0.42430181418E+01  0.47787262985E+02  0.19999963256E+02 0.  0.
        -12    1    1    2    0    0 -0.15788973181E+02  0.40203595565E+02 -0.42430181418E+01  0.43400737015E+02  0.00000000000E+00 0.  1.
         11    1    3    3    0    0  0.14310714865E+02 -0.28872905287E+02 -0.26923946719E+01  0.32337133593E+02  0.51100000000E-03 0. -1.
        -11    1    3    3    0    0  0.29714195241E+01 -0.65088667230E+01  0.75064357303E+01  0.10370210106E+02  0.51100000000E-03 0.  1.
         12    1    3    3    0    0 -0.14931612083E+01 -0.48218235550E+01 -0.57102291668E+00  0.50799192868E+01  0.00000000000E+00 0. -1.
</event>
<event>
 7    1  0.2430096E-009  0.4778727E+02  0.7816164E-02  0.1312668E+00
        -11   -1    0    0    0    0  0.00000000000E+00  0.00000000000E+00  0.45593999997E+02  0.45594000000E+02  0.51100000000E-03 0.  1.
         11   -1    0    0    0    0 -0.00000000000E+00 -0.00000000000E+00 -0.45593999997E+02  0.45594000000E+02  0.51100000000E-03 0. -1.
    9900012    2    1    2    0    0 -0.27933154984E+02 -0.17944811216E+02 -0.27952562090E+02  0.47787272767E+02  0.20000007855E+02 0.  0.
        -12    1    1    2    0    0  0.27933154984E+02  0.17944811216E+02  0.27952562090E+02  0.43400727233E+02  0.00000000000E+00 0.  1.
         11    1    3    3    0    0 -0.11114764229E+02 -0.16186617087E+02 -0.11101238534E+02  0.22556197681E+02  0.51100000000E-03 0. -1.
        -11    1    3    3    0    0 -0.87920466094E+01  0.14446602978E+01 -0.13022988032E+02  0.15779269454E+02  0.51100000000E-03 0.  1.
        -12    1    3    3    0    0 -0.80263441454E+01 -0.32028544271E+01 -0.38283355238E+01  0.94518056319E+01  0.00000000000E+00 0.  1.
</event>
<event>
 7    1  0.2430096E-009  0.4778727E+02  0.7816164E-02  0.1312668E+00
        -11   -1    0    0    0    0  0.00000000000E+00  0.00000000000E+00  0.45593999997E+02  0.45594000000E+02  0.51100000000E-03 0.  1.
         11   -1    0    0    0    0 -0.00000000000E+00 -0.00000000000E+00 -0.45593999997E+02  0.45594000000E+02  0.51100000000E-03 0. -1.
    9900012    2    1    2    0    0 -0.12858317096E+02  0.12201144552E+01 -0.41434270812E+02  0.47787265035E+02  0.19999972598E+02 0.  0.
        -12    1    1    2    0    0  0.12858317096E+02 -0.12201144552E+01  0.41434270812E+02  0.43400734965E+02  0.00000000000E+00 0.  1.
         11    1    3    3    0    0 -0.79793314523E+01  0.81258698934E+01 -0.18490062066E+02  0.21715936254E+02  0.51100000000E-03 0. -1.
        -11    1    3    3    0    0 -0.66735152761E+01 -0.54152724725E+01 -0.11306068605E+02  0.14201696013E+02  0.51100000000E-03 0.  1.
         12    1    3    3    0    0  0.17945296323E+01 -0.14904829657E+01 -0.11638140141E+02  0.11869632767E+02  0.00000000000E+00 0. -1.
</event>
<event>
 7    1  0.2430096E-009  0.4778727E+02  0.7816164E-02  0.1312668E+00
        -11   -1    0    0    0    0  0.00000000000E+00  0.00000000000E+00  0.45593999997E+02  0.45594000000E+02  0.51100000000E-03 0.  1.
         11   -1    0    0    0    0 -0.00000000000E+00 -0.00000000000E+00 -0.45593999997E+02  0.45594000000E+02  0.51100000000E-03 0. -1.
    9900012    2    1    2    0    0 -0.28888997476E+02  0.20187188323E+02 -0.25328367794E+02  0.47787274630E+02  0.20000016348E+02 0.  0.
        -12    1    1    2    0    0  0.28888997476E+02 -0.20187188323E+02  0.25328367794E+02  0.43400725370E+02  0.00000000000E+00 0.  1.
         11    1    3    3    0    0 -0.17891700332E+02  0.46882132440E+01 -0.15298895628E+02  0.24003093382E+02  0.51100000000E-03 0. -1.
        -11    1    3    3    0    0 -0.91020428111E+01  0.42725043826E+01 -0.34267247217E+01  0.10622801872E+02  0.51100000000E-03 0.  1.
         12    1    3    3    0    0 -0.18952543335E+01  0.11226470696E+02 -0.66027474437E+01  0.13161379376E+02  0.00000000000E+00 0. -1.
</event>
<event>
 7    1  0.2430096E-009  0.4778727E+02  0.7816164E-02  0.1312668E+00
        -11   -1    0    0    0    0  0.00000000000E+00  0.00000000000E+00  0.45593999997E+02  0.45594000000E+02  0.51100000000E-03 0.  1.
         11   -1    0    0    0    0 -0.00000000000E+00 -0.00000000000E+00 -0.45593999997E+02  0.45594000000E+02  0.51100000000E-03 0. -1.
    9900012    2    1    2    0    0  0.25773693126E+02 -0.10988924972E+02 -0.33144889875E+02  0.47787268967E+02  0.19999990527E+02 0.  0.
        -12    1    1    2    0    0 -0.25773693126E+02  0.10988924972E+02  0.33144889875E+02  0.43400731033E+02  0.00000000000E+00 0.  1.
         11    1    3    3    0    0  0.41400646126E+01  0.51003878284E+01 -0.33781853371E+01  0.73868956558E+01  0.51100000000E-03 0. -1.
        -11    1    3    3    0    0  0.17415126752E+02 -0.14915688714E+02 -0.24648662560E+02  0.33664832925E+02  0.51100000000E-03 0.  1.
         12    1    3    3    0    0  0.42185017612E+01 -0.11736240865E+01 -0.51180419783E+01  0.67355403864E+01  0.00000000000E+00 0. -1.
</event>
<event>
 7    1  0.2430096E-009  0.4778728E+02  0.7816164E-02  0.1312668E+00
        -11   -1    0    0    0    0  0.00000000000E+00  0.00000000000E+00  0.45593999997E+02  0.45594000000E+02  0.51100000000E-03 0.  1.
         11   -1    0    0    0    0 -0.00000000000E+00 -0.00000000000E+00 -0.45593999997E+02  0.45594000000E+02  0.51100000000E-03 0. -1.
    9900012    2    1    2    0    0 -0.37920043591E+02 -0.20504506302E+02 -0.50257540612E+01  0.47787277788E+02  0.20000030749E+02 0.  0.
        -12    1    1    2    0    0  0.37920043591E+02  0.20504506302E+02  0.50257540612E+01  0.43400722212E+02  0.00000000000E+00 0.  1.
         11    1    3    3    0    0 -0.16700214605E+02 -0.18049003960E+02 -0.56411074413E+01  0.25228670302E+02  0.51100000000E-03 0. -1.
        -11    1    3    3    0    0 -0.11930889585E+02 -0.49170704093E+00 -0.31426839675E+01  0.12347646127E+02  0.51100000000E-03 0.  1.
         12    1    3    3    0    0 -0.92889394001E+01 -0.19637953015E+01  0.37580373476E+01  0.10210961359E+02  0.00000000000E+00 0. -1.
</event>
<event>
 7    1  0.2430096E-009  0.4778724E+02  0.7816164E-02  0.1312668E+00
        -11   -1    0    0    0    0  0.00000000000E+00  0.00000000000E+00  0.45593999997E+02  0.45594000000E+02  0.51100000000E-03 0.  1.
         11   -1    0    0    0    0 -0.00000000000E+00 -0.00000000000E+00 -0.45593999997E+02  0.45594000000E+02  0.51100000000E-03 0. -1.
    9900012    2    1    2    0    0  0.27693363927E+02 -0.28457783280E+02 -0.17517360699E+02  0.47787242395E+02  0.19999869376E+02 0.  0.
        -12    1    1    2    0    0 -0.27693363927E+02  0.28457783280E+02  0.17517360699E+02  0.43400757605E+02  0.00000000000E+00 0.  1.
         11    1    3    3    0    0  0.18887153581E+02 -0.19268361936E+02 -0.44104050001E+01  0.27339458930E+02  0.51100000000E-03 0. -1.
        -11    1    3    3    0    0  0.89099861038E+01 -0.91564279721E+01 -0.14342362503E+02  0.19207586730E+02  0.51100000000E-03 0.  1.
        -12    1    3    3    0    0 -0.10377575713E+00 -0.32993372082E-01  0.12354068038E+01  0.12401967349E+01  0.00000000000E+00 0.  1.
</event>
<event>
 7    1  0.2430096E-009  0.4778727E+02  0.7816164E-02  0.1312668E+00
        -11   -1    0    0    0    0  0.00000000000E+00  0.00000000000E+00  0.45593999997E+02  0.45594000000E+02  0.51100000000E-03 0.  1.
         11   -1    0    0    0    0 -0.00000000000E+00 -0.00000000000E+00 -0.45593999997E+02  0.45594000000E+02  0.51100000000E-03 0. -1.
    9900012    2    1    2    0    0 -0.58467299000E+01 -0.10480424185E+02 -0.41708513022E+02  0.47787267286E+02  0.19999982862E+02 0.  0.
        -12    1    1    2    0    0  0.58467299000E+01  0.10480424185E+02  0.41708513022E+02  0.43400732714E+02  0.00000000000E+00 0.  1.
         11    1    3    3    0    0 -0.60620764867E+01 -0.82456183989E+01 -0.15100100081E+02  0.18241491629E+02  0.51100000000E-03 0. -1.
        -11    1    3    3    0    0  0.45030386274E+01 -0.46474449764E-01 -0.23235533209E+02  0.23667900636E+02  0.51100000000E-03 0.  1.
        -12    1    3    3    0    0 -0.42876920408E+01 -0.21883313362E+01 -0.33728797317E+01  0.58778750206E+01  0.00000000000E+00 0.  1.
</event>
<event>
 7    1  0.2430096E-009  0.4778728E+02  0.7816164E-02  0.1312668E+00
        -11   -1    0    0    0    0  0.00000000000E+00  0.00000000000E+00  0.45593999997E+02  0.45594000000E+02  0.51100000000E-03 0. -1.
         11   -1    0    0    0    0 -0.00000000000E+00 -0.00000000000E+00 -0.45593999997E+02  0.45594000000E+02  0.51100000000E-03 0.  1.
    9900012    2    1    2    0    0  0.35684452900E+02 -0.23631444659E+02 -0.71970392945E+01  0.47787277310E+02  0.20000028565E+02 0.  0.
        -12    1    1    2    0    0 -0.35684452900E+02  0.23631444659E+02  0.71970392945E+01  0.43400722690E+02  0.00000000000E+00 0.  1.
         11    1    3    3    0    0  0.17316194077E+02 -0.18243452729E+02 -0.64305195780E+01  0.25962005452E+02  0.51100000000E-03 0. -1.
        -11    1    3    3    0    0  0.13971286668E+01  0.26785221295E+01 -0.76195429625E-01  0.30219621630E+01  0.51100000000E-03 0.  1.
        -12    1    3    3    0    0  0.16971130157E+02 -0.80665140597E+01 -0.69032428688E+00  0.18803309695E+02  0.00000000000E+00 0.  1.
</event>
<event>
 7    1  0.2430096E-009  0.4778727E+02  0.7816164E-02  0.1312668E+00
        -11   -1    0    0    0    0  0.00000000000E+00  0.00000000000E+00  0.45593999997E+02  0.45594000000E+02  0.51100000000E-03 0. -1.
         11   -1    0    0    0    0 -0.00000000000E+00 -0.00000000000E+00 -0.45593999997E+02  0.45594000000E+02  0.51100000000E-03 0.  1.
    9900012    2    1    2    0    0 -0.24487031545E+01  0.17466194391E+00  0.43331243742E+02  0.47787270304E+02  0.19999996625E+02 0.  0.
        -12    1    1    2    0    0  0.24487031545E+01 -0.17466194391E+00 -0.43331243742E+02  0.43400729696E+02  0.00000000000E+00 0.  1.
         11    1    3    3    0    0  0.62091729772E+01 -0.24656492055E+01  0.19525097159E+02  0.20636440449E+02  0.51100000000E-03 0. -1.
        -11    1    3    3    0    0 -0.61737806745E+01  0.34272014465E+01  0.63351767580E+01  0.94866085820E+01  0.51100000000E-03 0.  1.
        -12    1    3    3    0    0 -0.24840954572E+01 -0.78689029705E+00  0.17470969824E+02  0.17664221273E+02  0.00000000000E+00 0.  1.
</event>
<event>
 7    1  0.2430096E-009  0.4778727E+02  0.7816164E-02  0.1312668E+00
        -11   -1    0    0    0    0  0.00000000000E+00  0.00000000000E+00  0.45593999997E+02  0.45594000000E+02  0.51100000000E-03 0.  1.
         11   -1    0    0    0    0 -0.00000000000E+00 -0.00000000000E+00 -0.45593999997E+02  0.45594000000E+02  0.51100000000E-03 0. -1.
    9900012    2    1    2    0    0  0.94653483546E+01  0.87927922769E+01 -0.41433292060E+02  0.47787266061E+02  0.19999977280E+02 0.  0.
        -12    1    1    2    0    0 -0.94653483546E+01 -0.87927922769E+01  0.41433292060E+02  0.43400733939E+02  0.00000000000E+00 0.  1.
         11    1    3    3    0    0  0.38836584461E+01  0.26483837091E+01 -0.34646180734E+02  0.34963617933E+02  0.51100000000E-03 0. -1.
        -11    1    3    3    0    0  0.30971664317E+01  0.67877684341E+01 -0.70229454163E+01  0.10246365346E+02  0.51100000000E-03 0.  1.
         12    1    3    3    0    0  0.24845234768E+01 -0.64335986621E+00  0.23583409069E+00  0.25772827828E+01  0.00000000000E+00 0. -1.
</event>
<event>
 7    1  0.2430096E-009  0.4778727E+02  0.7816164E-02  0.1312668E+00
        -11   -1    0    0    0    0  0.00000000000E+00  0.00000000000E+00  0.45593999997E+02  0.45594000000E+02  0.51100000000E-03 0.  1.
         11   -1    0    0    0    0 -0.00000000000E+00 -0.00000000000E+00 -0.45593999997E+02  0.45594000000E+02  0.51100000000E-03 0. -1.
    9900012    2    1    2    0    0  0.27684671055E+02 -0.32760117832E+02 -0.66300032169E+01  0.47787271037E+02  0.19999999968E+02 0.  0.
        -12    1    1    2    0    0 -0.27684671055E+02  0.32760117832E+02  0.66300032169E+01  0.43400728963E+02  0.00000000000E+00 0.  1.
         11    1    3    3    0    0 -0.14787562128E+01 -0.33396216202E+01 -0.42333170977E+01  0.55911328382E+01  0.51100000000E-03 0. -1.
        -11    1    3    3    0    0  0.20380916368E+02 -0.24920595044E+02 -0.82851516754E+00  0.32204102953E+02  0.51100000000E-03 0.  1.
         12    1    3    3    0    0  0.87825108997E+01 -0.44999011677E+01 -0.15681709517E+01  0.99920352459E+01  0.00000000000E+00 0. -1.
</event>
<event>
 7    1  0.2430096E-009  0.4778727E+02  0.7816164E-02  0.1312668E+00
        -11   -1    0    0    0    0  0.00000000000E+00  0.00000000000E+00  0.45593999997E+02  0.45594000000E+02  0.51100000000E-03 0.  1.
         11   -1    0    0    0    0 -0.00000000000E+00 -0.00000000000E+00 -0.45593999997E+02  0.45594000000E+02  0.51100000000E-03 0. -1.
    9900012    2    1    2    0    0  0.62262014475E+01 -0.17509233388E+02 -0.39220968234E+02  0.47787272039E+02  0.20000004535E+02 0.  0.
        -12    1    1    2    0    0 -0.62262014475E+01  0.17509233388E+02  0.39220968234E+02  0.43400727961E+02  0.00000000000E+00 0.  1.
         11    1    3    3    0    0 -0.36093090957E+01 -0.95218328662E+01 -0.16249196317E+02  0.19176256008E+02  0.51100000000E-03 0. -1.
        -11    1    3    3    0    0 -0.14001041772E+01 -0.50057196096E+01 -0.50338043090E+01  0.72357934326E+01  0.51100000000E-03 0.  1.
         12    1    3    3    0    0  0.11235614720E+02 -0.29816809118E+01 -0.17937967609E+02  0.21375222598E+02  0.00000000000E+00 0. -1.
</event>
<event>
 7    1  0.2430096E-009  0.4778725E+02  0.7816164E-02  0.1312668E+00
        -11   -1    0    0    0    0  0.00000000000E+00  0.00000000000E+00  0.45593999997E+02  0.45594000000E+02  0.51100000000E-03 0.  1.
         11   -1    0    0    0    0 -0.00000000000E+00 -0.00000000000E+00 -0.45593999997E+02  0.45594000000E+02  0.51100000000E-03 0. -1.
    9900012    2    1    2    0    0 -0.48784263958E+01  0.97336809966E+01 -0.42012870005E+02  0.47787253049E+02  0.19999917950E+02 0.  0.
        -12    1    1    2    0    0  0.48784263958E+01 -0.97336809966E+01  0.42012870005E+02  0.43400746951E+02  0.00000000000E+00 0.  1.
         11    1    3    3    0    0  0.14023025198E+01  0.87888939955E+01 -0.15826997653E+02  0.18157779737E+02  0.51100000000E-03 0. -1.
        -11    1    3    3    0    0  0.71759345385E+00 -0.46631432531E+01 -0.11381738819E+02  0.12320869457E+02  0.51100000000E-03 0.  1.
        -12    1    3    3    0    0 -0.69983223695E+01  0.56079302542E+01 -0.14804133534E+02  0.17308603855E+02  0.00000000000E+00 0.  1.
</event>
<event>
 7    1  0.2430096E-009  0.4778723E+02  0.7816164E-02  0.1312668E+00
        -11   -1    0    0    0    0  0.00000000000E+00  0.00000000000E+00  0.45593999997E+02  0.45594000000E+02  0.51100000000E-03 0.  1.
         11   -1    0    0    0    0 -0.00000000000E+00 -0.00000000000E+00 -0.45593999997E+02  0.45594000000E+02  0.51100000000E-03 0. -1.
    9900012    2    1    2    0    0  0.18178992593E+02 -0.25414823271E+02 -0.30120392060E+02  0.47787227755E+02  0.19999802626E+02 0.  0.
        -12    1    1    2    0    0 -0.18178992593E+02  0.25414823271E+02  0.30120392060E+02  0.43400772245E+02  0.00000000000E+00 0.  1.
         11    1    3    3    0    0 -0.17856019967E+00 -0.28289243052E+01 -0.11959056218E+02  0.12290391464E+02  0.51100000000E-03 0. -1.
        -11    1    3    3    0    0 -0.25385247326E+00  0.45954764691E+00  0.28824781480E+00  0.59892585670E+00  0.51100000000E-03 0.  1.
         12    1    3    3    0    0  0.18611405266E+02 -0.23045446613E+02 -0.18449583657E+02  0.34897910434E+02  0.00000000000E+00 0. -1.
</event>
<event>
 7    1  0.2430096E-009  0.4778727E+02  0.7816164E-02  0.1312668E+00
        -11   -1    0    0    0    0  0.00000000000E+00  0.00000000000E+00  0.45593999997E+02  0.45594000000E+02  0.51100000000E-03 0. -1.
         11   -1    0    0    0    0 -0.00000000000E+00 -0.00000000000E+00 -0.45593999997E+02  0.45594000000E+02  0.51100000000E-03 0.  1.
    9900012    2    1    2    0    0 -0.24470509534E+02  0.27894375360E+02  0.22510465915E+02  0.47787273171E+02  0.20000009697E+02 0.  0.
        -12    1    1    2    0    0  0.24470509534E+02 -0.27894375360E+02 -0.22510465915E+02  0.43400726829E+02  0.00000000000E+00 0.  1.
         11    1    3    3    0    0 -0.25241689769E+02  0.16312288874E+02  0.19170037725E+02  0.35647216123E+02  0.51100000000E-03 0. -1.
        -11    1    3    3    0    0  0.73473777826E+00  0.40729000666E+01  0.15576220673E+01  0.44220517094E+01  0.51100000000E-03 0.  1.
         12    1    3    3    0    0  0.36442456920E-01  0.75091864200E+01  0.17828061228E+01  0.77180053391E+01  0.00000000000E+00 0. -1.
</event>
<event>
 7    1  0.2430096E-009  0.4778728E+02  0.7816164E-02  0.1312668E+00
        -11   -1    0    0    0    0  0.00000000000E+00  0.00000000000E+00  0.45593999997E+02  0.45594000000E+02  0.51100000000E-03 0.  1.
         11   -1    0    0    0    0 -0.00000000000E+00 -0.00000000000E+00 -0.45593999997E+02  0.45594000000E+02  0.51100000000E-03 0. -1.
    9900012    2    1    2    0    0 -0.39633711073E+02  0.16870807067E+02  0.53073251776E+01  0.47787275524E+02  0.20000020423E+02 0.  0.
        -12    1    1    2    0    0  0.39633711073E+02 -0.16870807067E+02 -0.53073251776E+01  0.43400724476E+02  0.00000000000E+00 0.  1.
         11    1    3    3    0    0 -0.26133879651E+02  0.46423061834E+01  0.26120824427E+01  0.26671213832E+02  0.51100000000E-03 0. -1.
        -11    1    3    3    0    0 -0.97817825263E+01  0.20692899902E+01  0.13563845967E+00  0.99991813919E+01  0.51100000000E-03 0.  1.
         12    1    3    3    0    0 -0.37180488963E+01  0.10159210893E+02  0.25596042753E+01  0.11116880300E+02  0.00000000000E+00 0. -1.
</event>
<event>
 7    1  0.2430096E-009  0.4778727E+02  0.7816164E-02  0.1312668E+00
        -11   -1    0    0    0    0  0.00000000000E+00  0.00000000000E+00  0.45593999997E+02  0.45594000000E+02  0.51100000000E-03 0.  1.
         11   -1    0    0    0    0 -0.00000000000E+00 -0.00000000000E+00 -0.45593999997E+02  0.45594000000E+02  0.51100000000E-03 0. -1.
    9900012    2    1    2    0    0  0.41231924192E+02  0.92832883696E+01 -0.98677441468E+01  0.47787269706E+02  0.19999993898E+02 0.  0.
        -12    1    1    2    0    0 -0.41231924192E+02 -0.92832883696E+01  0.98677441468E+01  0.43400730294E+02  0.00000000000E+00 0.  1.
         11    1    3    3    0    0  0.10436625609E+02  0.53458880257E+01 -0.44344255813E+01  0.12536578616E+02  0.51100000000E-03 0. -1.
        -11    1    3    3    0    0  0.25259579193E+02  0.89477583622E+01 -0.15688561773E+01  0.26843435523E+02  0.51100000000E-03 0.  1.
        -12    1    3    3    0    0  0.55357193898E+01 -0.50103580182E+01 -0.38644623882E+01  0.84072555678E+01  0.00000000000E+00 0.  1.
</event>
<event>
 7    1  0.2430096E-009  0.4778727E+02  0.7816164E-02  0.1312668E+00
        -11   -1    0    0    0    0  0.00000000000E+00  0.00000000000E+00  0.45593999997E+02  0.45594000000E+02  0.51100000000E-03 0. -1.
         11   -1    0    0    0    0 -0.00000000000E+00 -0.00000000000E+00 -0.45593999997E+02  0.45594000000E+02  0.51100000000E-03 0.  1.
    9900012    2    1    2    0    0 -0.85351603240E+01  0.23299045727E+01  0.42489364419E+02  0.47787268372E+02  0.19999987816E+02 0.  0.
        -12    1    1    2    0    0  0.85351603240E+01 -0.23299045727E+01 -0.42489364419E+02  0.43400731628E+02  0.00000000000E+00 0.  1.
         11    1    3    3    0    0 -0.18903334373E+01  0.54778572259E+01  0.36449521807E+02  0.36907288176E+02  0.51100000000E-03 0. -1.
        -11    1    3    3    0    0 -0.50370358702E+01 -0.41648082218E+01  0.61500400564E+01  0.89744276051E+01  0.51100000000E-03 0.  1.
         12    1    3    3    0    0 -0.16077910164E+01  0.10168555685E+01 -0.11019744440E+00  0.19055525908E+01  0.00000000000E+00 0. -1.
</event>
<event>
 7    1  0.2430096E-009  0.4778728E+02  0.7816164E-02  0.1312668E+00
        -11   -1    0    0    0    0  0.00000000000E+00  0.00000000000E+00  0.45593999997E+02  0.45594000000E+02  0.51100000000E-03 0. -1.
         11   -1    0    0    0    0 -0.00000000000E+00 -0.00000000000E+00 -0.45593999997E+02  0.45594000000E+02  0.51100000000E-03 0.  1.
    9900012    2    1    2    0    0 -0.34083818134E+02  0.17394148438E+02  0.20478278004E+02  0.47787275024E+02  0.20000018142E+02 0.  0.
        -12    1    1    2    0    0  0.34083818134E+02 -0.17394148438E+02 -0.20478278004E+02  0.43400724976E+02  0.00000000000E+00 0.  1.
         11    1    3    3    0    0  0.29268959206E+00  0.26695174416E+01  0.29856333071E+01  0.40157187494E+01  0.51100000000E-03 0.  1.
        -11    1    3    3    0    0 -0.31493323227E+02  0.16428491910E+02  0.12295100151E+02  0.37588485501E+02  0.51100000000E-03 0. -1.
        -12    1    3    3    0    0 -0.28831844991E+01 -0.17038609136E+01  0.51975445466E+01  0.61830707729E+01  0.00000000000E+00 0.  1.
</event>
<event>
 7    1  0.2430096E-009  0.4778727E+02  0.7816164E-02  0.1312668E+00
        -11   -1    0    0    0    0  0.00000000000E+00  0.00000000000E+00  0.45593999997E+02  0.45594000000E+02  0.51100000000E-03 0.  1.
         11   -1    0    0    0    0 -0.00000000000E+00 -0.00000000000E+00 -0.45593999997E+02  0.45594000000E+02  0.51100000000E-03 0. -1.
    9900012    2    1    2    0    0  0.65407164150E+01 -0.15967692853E+01 -0.42875320869E+02  0.47787265179E+02  0.19999973257E+02 0.  0.
        -12    1    1    2    0    0 -0.65407164150E+01  0.15967692853E+01  0.42875320869E+02  0.43400734821E+02  0.00000000000E+00 0.  1.
         11    1    3    3    0    0 -0.16855699802E+01 -0.29174508529E+01 -0.26908458821E+02  0.27118588127E+02  0.51100000000E-03 0. -1.
        -11    1    3    3    0    0  0.10344319414E+02  0.25421424758E+01 -0.13486348992E+02  0.17185722036E+02  0.51100000000E-03 0.  1.
        -12    1    3    3    0    0 -0.21180330186E+01 -0.12214609082E+01 -0.24805130563E+01  0.34829550156E+01  0.00000000000E+00 0.  1.
</event>
<event>
 7    1  0.2430096E-009  0.4778727E+02  0.7816164E-02  0.1312668E+00
        -11   -1    0    0    0    0  0.00000000000E+00  0.00000000000E+00  0.45593999997E+02  0.45594000000E+02  0.51100000000E-03 0.  1.
         11   -1    0    0    0    0 -0.00000000000E+00 -0.00000000000E+00 -0.45593999997E+02  0.45594000000E+02  0.51100000000E-03 0. -1.
    9900012    2    1    2    0    0  0.27695067094E+02 -0.24875391846E+02 -0.22311910537E+02  0.47787271750E+02  0.20000003216E+02 0.  0.
        -12    1    1    2    0    0 -0.27695067094E+02  0.24875391846E+02  0.22311910537E+02  0.43400728250E+02  0.00000000000E+00 0.  1.
         11    1    3    3    0    0  0.18015598722E+02 -0.13127747523E+02 -0.21505083839E+01  0.22394736858E+02  0.51100000000E-03 0. -1.
        -11    1    3    3    0    0  0.41244438429E+01 -0.48517178657E+01 -0.10558048647E+02  0.12329744310E+02  0.51100000000E-03 0.  1.
         12    1    3    3    0    0  0.55550245291E+01 -0.68959264569E+01 -0.96033535065E+01  0.13062790582E+02  0.00000000000E+00 0. -1.
</event>
<event>
 7    1  0.2580137E-009  0.4778727E+02  0.7816164E-02  0.1312668E+00
        -11   -1    0    0    0    0  0.00000000000E+00  0.00000000000E+00  0.45593999997E+02  0.45594000000E+02  0.51100000000E-03 0. -1.
         11   -1    0    0    0    0 -0.00000000000E+00 -0.00000000000E+00 -0.45593999997E+02  0.45594000000E+02  0.51100000000E-03 0.  1.
    9900012    2    1    2    0    0  0.90368831656E+01  0.12960126902E+02  0.40422678719E+02  0.47787273030E+02  0.20000009053E+02 0.  0.
        -12    1    1    2    0    0 -0.90368831656E+01 -0.12960126902E+02 -0.40422678719E+02  0.43400726970E+02  0.00000000000E+00 0.  1.
         11    1    3    3    0    0  0.88323268523E+01  0.12314148414E+02  0.21153370273E+02  0.26021401249E+02  0.51100000000E-03 0. -1.
        -11    1    3    3    0    0 -0.92773895302E+00 -0.44579045597E+01  0.62224517052E+01  0.77105459024E+01  0.51100000000E-03 0.  1.
        -12    1    3    3    0    0  0.11322952664E+01  0.51038830479E+01  0.13046856742E+02  0.14055325879E+02  0.00000000000E+00 0.  1.
</event>
<event>
 7    1  0.2430096E-009  0.4778727E+02  0.7816164E-02  0.1312668E+00
        -11   -1    0    0    0    0  0.00000000000E+00  0.00000000000E+00  0.45593999997E+02  0.45594000000E+02  0.51100000000E-03 0. -1.
         11   -1    0    0    0    0 -0.00000000000E+00 -0.00000000000E+00 -0.45593999997E+02  0.45594000000E+02  0.51100000000E-03 0.  1.
    9900012    2    1    2    0    0 -0.20105619565E+02 -0.63399954510E+01  0.37936681277E+02  0.47787271127E+02  0.20000000375E+02 0.  0.
        -12    1    1    2    0    0  0.20105619565E+02  0.63399954510E+01 -0.37936681277E+02  0.43400728873E+02  0.00000000000E+00 0.  1.
         11    1    3    3    0    0 -0.11427158109E+02  0.29699349228E+01  0.17423956731E+02  0.21047439852E+02  0.51100000000E-03 0. -1.
        -11    1    3    3    0    0 -0.36054652789E+01 -0.11093741969E+02  0.15405551007E+02  0.19323599376E+02  0.51100000000E-03 0.  1.
        -12    1    3    3    0    0 -0.50729961766E+01  0.17838115953E+01  0.51071735391E+01  0.74162318986E+01  0.00000000000E+00 0.  1.
</event>
<event>
 7    1  0.2430096E-009  0.4778727E+02  0.7816164E-02  0.1312668E+00
        -11   -1    0    0    0    0  0.00000000000E+00  0.00000000000E+00  0.45593999997E+02  0.45594000000E+02  0.51100000000E-03 0. -1.
         11   -1    0    0    0    0 -0.00000000000E+00 -0.00000000000E+00 -0.45593999997E+02  0.45594000000E+02  0.51100000000E-03 0.  1.
    9900012    2    1    2    0    0 -0.75571027931E+01  0.35140367737E+02  0.24324226460E+02  0.47787271432E+02  0.20000001768E+02 0.  0.
        -12    1    1    2    0    0  0.75571027931E+01 -0.35140367737E+02 -0.24324226460E+02  0.43400728568E+02  0.00000000000E+00 0.  1.
         11    1    3    3    0    0  0.33507584810E-01  0.17266525777E+02  0.20773016794E+01  0.17391067181E+02  0.51100000000E-03 0. -1.
        -11    1    3    3    0    0 -0.23096673657E+01  0.32127015270E+01  0.10613159195E+01  0.40966335184E+01  0.51100000000E-03 0.  1.
         12    1    3    3    0    0 -0.52809430122E+01  0.14661140433E+02  0.21185608861E+02  0.26299570733E+02  0.00000000000E+00 0. -1.
</event>
<event>
 7    1  0.2430096E-009  0.4778727E+02  0.7816164E-02  0.1312668E+00
        -11   -1    0    0    0    0  0.00000000000E+00  0.00000000000E+00  0.45593999997E+02  0.45594000000E+02  0.51100000000E-03 0.  1.
         11   -1    0    0    0    0 -0.00000000000E+00 -0.00000000000E+00 -0.45593999997E+02  0.45594000000E+02  0.51100000000E-03 0. -1.
    9900012    2    1    2    0    0 -0.26272278335E+01 -0.28543195025E+02 -0.32588448580E+02  0.47787270868E+02  0.19999999196E+02 0.  0.
        -12    1    1    2    0    0  0.26272278335E+01  0.28543195025E+02  0.32588448580E+02  0.43400729132E+02  0.00000000000E+00 0.  1.
         11    1    3    3    0    0  0.75635348763E+01 -0.51835229253E+01 -0.92838576669E+01  0.13048600813E+02  0.51100000000E-03 0. -1.
        -11    1    3    3    0    0 -0.10339702125E+02 -0.22972628022E+02 -0.23312608105E+02  0.34323880539E+02  0.51100000000E-03 0.  1.
        -12    1    3    3    0    0  0.14893941527E+00 -0.38704407766E+00  0.80171925806E-02  0.41478951632E+00  0.00000000000E+00 0.  1.
</event>
<event>
 7    1  0.2430096E-009  0.4778727E+02  0.7816164E-02  0.1312668E+00
        -11   -1    0    0    0    0  0.00000000000E+00  0.00000000000E+00  0.45593999997E+02  0.45594000000E+02  0.51100000000E-03 0.  1.
         11   -1    0    0    0    0 -0.00000000000E+00 -0.00000000000E+00 -0.45593999997E+02  0.45594000000E+02  0.51100000000E-03 0. -1.
    9900012    2    1    2    0    0  0.37739133972E+02 -0.16765975186E+02 -0.13352271523E+02  0.47787270609E+02  0.19999998012E+02 0.  0.
        -12    1    1    2    0    0 -0.37739133972E+02  0.16765975186E+02  0.13352271523E+02  0.43400729391E+02  0.00000000000E+00 0.  1.
         11    1    3    3    0    0  0.77984573845E+01 -0.78305131808E+01 -0.51920529088E+01  0.12210253393E+02  0.51100000000E-03 0. -1.
        -11    1    3    3    0    0  0.85240792678E+01  0.38015724932E+01 -0.46022191183E+01  0.10406358722E+02  0.51100000000E-03 0.  1.
        -12    1    3    3    0    0  0.21416597320E+02 -0.12737034498E+02 -0.35579994956E+01  0.25170658493E+02  0.00000000000E+00 0.  1.
</event>
<event>
 7    1  0.2430096E-009  0.4778727E+02  0.7816164E-02  0.1312668E+00
        -11   -1    0    0    0    0  0.00000000000E+00  0.00000000000E+00  0.45593999997E+02  0.45594000000E+02  0.51100000000E-03 0. -1.
         11   -1    0    0    0    0 -0.00000000000E+00 -0.00000000000E+00 -0.45593999997E+02  0.45594000000E+02  0.51100000000E-03 0.  1.
    9900012    2    1    2    0    0 -0.32727579648E+02 -0.27005180818E+02  0.91240873487E+01  0.47787271543E+02  0.20000002272E+02 0.  0.
        -12    1    1    2    0    0  0.32727579648E+02  0.27005180818E+02 -0.91240873487E+01  0.43400728457E+02  0.00000000000E+00 0.  1.
         11    1    3    3    0    0 -0.60219437158E+01 -0.11550000786E+02 -0.47548456552E+01  0.13866321854E+02  0.51100000000E-03 0.  1.
        -11    1    3    3    0    0 -0.12144092647E+02 -0.58448930797E+01  0.67561490118E+01  0.15076050911E+02  0.51100000000E-03 0. -1.
        -12    1    3    3    0    0 -0.14561543285E+02 -0.96102869524E+01  0.71227839921E+01  0.18844898778E+02  0.00000000000E+00 0.  1.
</event>
<event>
 7    1  0.2430096E-009  0.4778727E+02  0.7816164E-02  0.1312668E+00
        -11   -1    0    0    0    0  0.00000000000E+00  0.00000000000E+00  0.45593999997E+02  0.45594000000E+02  0.51100000000E-03 0. -1.
         11   -1    0    0    0    0 -0.00000000000E+00 -0.00000000000E+00 -0.45593999997E+02  0.45594000000E+02  0.51100000000E-03 0.  1.
    9900012    2    1    2    0    0 -0.60890783253E+01  0.40850870866E+02  0.13332395875E+02  0.47787270684E+02  0.19999998357E+02 0.  0.
        -12    1    1    2    0    0  0.60890783253E+01 -0.40850870866E+02 -0.13332395875E+02  0.43400729316E+02  0.00000000000E+00 0.  1.
         11    1    3    3    0    0 -0.65245203591E+01  0.22989238762E+02  0.11840292139E+02  0.26669589104E+02  0.51100000000E-03 0. -1.
        -11    1    3    3    0    0  0.34997628620E+01  0.82549053085E+00 -0.72058363548E+00  0.36672899727E+01  0.51100000000E-03 0.  1.
        -12    1    3    3    0    0 -0.30643208281E+01  0.17036141574E+02  0.22126873717E+01  0.17450391608E+02  0.00000000000E+00 0.  1.
</event>
<event>
 7    1  0.2430096E-009  0.4778727E+02  0.7816164E-02  0.1312668E+00
        -11   -1    0    0    0    0  0.00000000000E+00  0.00000000000E+00  0.45593999997E+02  0.45594000000E+02  0.51100000000E-03 0. -1.
         11   -1    0    0    0    0 -0.00000000000E+00 -0.00000000000E+00 -0.45593999997E+02  0.45594000000E+02  0.51100000000E-03 0.  1.
    9900012    2    1    2    0    0  0.13340383120E+02 -0.37124386963E+02  0.18095231985E+02  0.47787270171E+02  0.19999996016E+02 0.  0.
        -12    1    1    2    0    0 -0.13340383120E+02  0.37124386963E+02 -0.18095231985E+02  0.43400729829E+02  0.00000000000E+00 0.  1.
         11    1    3    3    0    0  0.93656132846E+01 -0.76455170753E+01  0.36539926824E+01  0.12630134850E+02  0.51100000000E-03 0. -1.
        -11    1    3    3    0    0 -0.19677600828E+01 -0.10607373801E+02  0.21862320977E+00  0.10790563242E+02  0.51100000000E-03 0.  1.
        -12    1    3    3    0    0  0.59425299177E+01 -0.18871496086E+02  0.14222616093E+02  0.24366572079E+02  0.00000000000E+00 0.  1.
</event>
<event>
 7    1  0.2430096E-009  0.4778728E+02  0.7816164E-02  0.1312668E+00
        -11   -1    0    0    0    0  0.00000000000E+00  0.00000000000E+00  0.45593999997E+02  0.45594000000E+02  0.51100000000E-03 0.  1.
         11   -1    0    0    0    0 -0.00000000000E+00 -0.00000000000E+00 -0.45593999997E+02  0.45594000000E+02  0.51100000000E-03 0. -1.
    9900012    2    1    2    0    0 -0.20424582162E+02  0.32693139435E+02 -0.19940360731E+02  0.47787275251E+02  0.20000019181E+02 0.  0.
        -12    1    1    2    0    0  0.20424582162E+02 -0.32693139435E+02  0.19940360731E+02  0.43400724749E+02  0.00000000000E+00 0.  1.
         11    1    3    3    0    0  0.12172158000E+01  0.90403623908E+01 -0.54825134648E+01  0.10642730881E+02  0.51100000000E-03 0. -1.
        -11    1    3    3    0    0 -0.20145675572E+02  0.24200584786E+02 -0.11029648979E+02  0.33364197954E+02  0.51100000000E-03 0.  1.
         12    1    3    3    0    0 -0.14961223900E+01 -0.54780774179E+00 -0.34281982877E+01  0.37803464163E+01  0.00000000000E+00 0. -1.
</event>
<event>
 7    1  0.2430096E-009  0.4778727E+02  0.7816164E-02  0.1312668E+00
        -11   -1    0    0    0    0  0.00000000000E+00  0.00000000000E+00  0.45593999997E+02  0.45594000000E+02  0.51100000000E-03 0. -1.
         11   -1    0    0    0    0 -0.00000000000E+00 -0.00000000000E+00 -0.45593999997E+02  0.45594000000E+02  0.51100000000E-03 0.  1.
    9900012    2    1    2    0    0 -0.29163758784E+02 -0.31971574110E+02  0.33041219011E+01  0.47787267299E+02  0.19999982923E+02 0.  0.
        -12    1    1    2    0    0  0.29163758784E+02  0.31971574110E+02 -0.33041219011E+01  0.43400732701E+02  0.00000000000E+00 0.  1.
         11    1    3    3    0    0 -0.14480359285E+02 -0.44607505095E+01 -0.35655124075E+01  0.15565730921E+02  0.51100000000E-03 0. -1.
        -11    1    3    3    0    0 -0.12304940928E+02 -0.22367795327E+02  0.39032816145E+01  0.25825674176E+02  0.51100000000E-03 0.  1.
         12    1    3    3    0    0 -0.23784585711E+01 -0.51430282729E+01  0.29663526940E+01  0.63958622011E+01  0.00000000000E+00 0. -1.
</event>
<event>
 7    1  0.2430096E-009  0.4778728E+02  0.7816164E-02  0.1312668E+00
        -11   -1    0    0    0    0  0.00000000000E+00  0.00000000000E+00  0.45593999997E+02  0.45594000000E+02  0.51100000000E-03 0.  1.
         11   -1    0    0    0    0 -0.00000000000E+00 -0.00000000000E+00 -0.45593999997E+02  0.45594000000E+02  0.51100000000E-03 0. -1.
    9900012    2    1    2    0    0 -0.29991964677E+02  0.18000703685E+02 -0.25692014380E+02  0.47787275568E+02  0.20000020623E+02 0.  0.
        -12    1    1    2    0    0  0.29991964677E+02 -0.18000703685E+02  0.25692014380E+02  0.43400724432E+02  0.00000000000E+00 0.  1.
         11    1    3    3    0    0 -0.18123581121E+02  0.44265477386E+01 -0.19808644075E+02  0.27211043675E+02  0.51100000000E-03 0. -1.
        -11    1    3    3    0    0 -0.15157999495E+01  0.64039496954E+01  0.21447613684E+00  0.65843922622E+01  0.51100000000E-03 0.  1.
        -12    1    3    3    0    0 -0.10352583607E+02  0.71702062512E+01 -0.60978464411E+01  0.13991839630E+02  0.00000000000E+00 0.  1.
</event>
<event>
 7    1  0.2430096E-009  0.4778727E+02  0.7816164E-02  0.1312668E+00
        -11   -1    0    0    0    0  0.00000000000E+00  0.00000000000E+00  0.45593999997E+02  0.45594000000E+02  0.51100000000E-03 0. -1.
         11   -1    0    0    0    0 -0.00000000000E+00 -0.00000000000E+00 -0.45593999997E+02  0.45594000000E+02  0.51100000000E-03 0.  1.
    9900012    2    1    2    0    0 -0.36079508853E+02  0.83790643592E+01 -0.22620423043E+02  0.47787271697E+02  0.20000002975E+02 0.  0.
        -12    1    1    2    0    0  0.36079508853E+02 -0.83790643592E+01  0.22620423043E+02  0.43400728303E+02  0.00000000000E+00 0.  1.
         11    1    3    3    0    0 -0.18585521837E+02  0.10703410150E+02 -0.98039392311E+01  0.23581811540E+02  0.51100000000E-03 0. -1.
        -11    1    3    3    0    0 -0.16025984134E+02 -0.40873709094E+01 -0.13959136970E+02  0.21642464592E+02  0.51100000000E-03 0.  1.
        -12    1    3    3    0    0 -0.14680028820E+01  0.17630251185E+01  0.11426531576E+01  0.25629955655E+01  0.00000000000E+00 0.  1.
</event>
<event>
 7    1  0.2430096E-009  0.4778727E+02  0.7816164E-02  0.1312668E+00
        -11   -1    0    0    0    0  0.00000000000E+00  0.00000000000E+00  0.45593999997E+02  0.45594000000E+02  0.51100000000E-03 0.  1.
         11   -1    0    0    0    0 -0.00000000000E+00 -0.00000000000E+00 -0.45593999997E+02  0.45594000000E+02  0.51100000000E-03 0. -1.
    9900012    2    1    2    0    0 -0.98128171369E+01  0.11786410970E+02 -0.40600644721E+02  0.47787271718E+02  0.20000003070E+02 0.  0.
        -12    1    1    2    0    0  0.98128171369E+01 -0.11786410970E+02  0.40600644721E+02  0.43400728282E+02  0.00000000000E+00 0.  1.
         11    1    3    3    0    0 -0.75181416220E+01  0.64341928753E+01 -0.11089345226E+02  0.14862532396E+02  0.51100000000E-03 0. -1.
        -11    1    3    3    0    0  0.46742874574E+01  0.27890820310E+01 -0.20691304421E+02  0.21395280337E+02  0.51100000000E-03 0.  1.
        -12    1    3    3    0    0 -0.69689629723E+01  0.25631360636E+01 -0.88199950736E+01  0.11529458985E+02  0.00000000000E+00 0.  1.
</event>
<event>
 7    1  0.2430096E-009  0.4778727E+02  0.7816164E-02  0.1312668E+00
        -11   -1    0    0    0    0  0.00000000000E+00  0.00000000000E+00  0.45593999997E+02  0.45594000000E+02  0.51100000000E-03 0.  1.
         11   -1    0    0    0    0 -0.00000000000E+00 -0.00000000000E+00 -0.45593999997E+02  0.45594000000E+02  0.51100000000E-03 0. -1.
    9900012    2    1    2    0    0 -0.34681902541E+02  0.25317929894E+02 -0.63080481050E+01  0.47787269489E+02  0.19999992909E+02 0.  0.
        -12    1    1    2    0    0  0.34681902541E+02 -0.25317929894E+02  0.63080481050E+01  0.43400730511E+02  0.00000000000E+00 0.  1.
         11    1    3    3    0    0 -0.15662890918E+02  0.52210156827E+01 -0.43878284586E+01  0.17083272389E+02  0.51100000000E-03 0. -1.
        -11    1    3    3    0    0 -0.12929976656E+02  0.19125660528E+02 -0.52795692708E+01  0.23682251559E+02  0.51100000000E-03 0.  1.
        -12    1    3    3    0    0 -0.60890349664E+01  0.97125368265E+00  0.33593496244E+01  0.70217455407E+01  0.00000000000E+00 0.  1.
</event>
<event>
 7    1  0.2430096E-009  0.4778727E+02  0.7816164E-02  0.1312668E+00
        -11   -1    0    0    0    0  0.00000000000E+00  0.00000000000E+00  0.45593999997E+02  0.45594000000E+02  0.51100000000E-03 0.  1.
         11   -1    0    0    0    0 -0.00000000000E+00 -0.00000000000E+00 -0.45593999997E+02  0.45594000000E+02  0.51100000000E-03 0. -1.
    9900012    2    1    2    0    0 -0.23906714218E+02 -0.16625076532E+02 -0.32182274813E+02  0.47787274585E+02  0.20000016145E+02 0.  0.
        -12    1    1    2    0    0  0.23906714218E+02  0.16625076532E+02  0.32182274813E+02  0.43400725415E+02  0.00000000000E+00 0.  1.
         11    1    3    3    0    0 -0.18606353683E+02 -0.77721228628E+01 -0.18697231967E+02  0.27498886790E+02  0.51100000000E-03 0. -1.
        -11    1    3    3    0    0 -0.19781787777E+01 -0.64209841793E+01 -0.58150025167E+00  0.67439136940E+01  0.51100000000E-03 0.  1.
         12    1    3    3    0    0 -0.33221817569E+01 -0.24319694901E+01 -0.12903542594E+02  0.13544474102E+02  0.00000000000E+00 0. -1.
</event>
<event>
 7    1  0.2430096E-009  0.4778727E+02  0.7816164E-02  0.1312668E+00
        -11   -1    0    0    0    0  0.00000000000E+00  0.00000000000E+00  0.45593999997E+02  0.45594000000E+02  0.51100000000E-03 0.  1.
         11   -1    0    0    0    0 -0.00000000000E+00 -0.00000000000E+00 -0.45593999997E+02  0.45594000000E+02  0.51100000000E-03 0. -1.
    9900012    2    1    2    0    0  0.24982751936E+02 -0.34284833136E+02 -0.91670760250E+01  0.47787274657E+02  0.20000016472E+02 0.  0.
        -12    1    1    2    0    0 -0.24982751936E+02  0.34284833136E+02  0.91670760250E+01  0.43400725343E+02  0.00000000000E+00 0.  1.
         11    1    3    3    0    0  0.16808963637E+01 -0.30429510147E+00 -0.34262327833E+00  0.17422396696E+01  0.51100000000E-03 0. -1.
        -11    1    3    3    0    0  0.90687329286E+01 -0.14559040724E+02  0.55184493715E+01  0.18018348078E+02  0.51100000000E-03 0.  1.
        -12    1    3    3    0    0  0.14233122643E+02 -0.19421497311E+02 -0.14342902118E+02  0.28026686910E+02  0.00000000000E+00 0.  1.
</event>
<event>
 7    1  0.2430096E-009  0.4778727E+02  0.7816164E-02  0.1312668E+00
        -11   -1    0    0    0    0  0.00000000000E+00  0.00000000000E+00  0.45593999997E+02  0.45594000000E+02  0.51100000000E-03 0. -1.
         11   -1    0    0    0    0 -0.00000000000E+00 -0.00000000000E+00 -0.45593999997E+02  0.45594000000E+02  0.51100000000E-03 0.  1.
    9900012    2    1    2    0    0 -0.18782303726E+02  0.11124978214E+02  0.37511106714E+02  0.47787271891E+02  0.20000003859E+02 0.  0.
        -12    1    1    2    0    0  0.18782303726E+02 -0.11124978214E+02 -0.37511106714E+02  0.43400728109E+02  0.00000000000E+00 0.  1.
         11    1    3    3    0    0 -0.17555871816E+02  0.63299428149E+01  0.28489154486E+02  0.34057432887E+02  0.51100000000E-03 0. -1.
        -11    1    3    3    0    0  0.34987272442E+01  0.43784865275E+01  0.49983149381E+01  0.75096863505E+01  0.51100000000E-03 0.  1.
         12    1    3    3    0    0 -0.47251591543E+01  0.41654887121E+00  0.40236372897E+01  0.62201526536E+01  0.00000000000E+00 0. -1.
</event>
<event>
 7    1  0.2430096E-009  0.4778727E+02  0.7816164E-02  0.1312668E+00
        -11   -1    0    0    0    0  0.00000000000E+00  0.00000000000E+00  0.45593999997E+02  0.45594000000E+02  0.51100000000E-03 0.  1.
         11   -1    0    0    0    0 -0.00000000000E+00 -0.00000000000E+00 -0.45593999997E+02  0.45594000000E+02  0.51100000000E-03 0. -1.
    9900012    2    1    2    0    0 -0.12531506829E+02  0.41537752402E+02  0.10952981095E+01  0.47787271711E+02  0.20000003040E+02 0.  0.
        -12    1    1    2    0    0  0.12531506829E+02 -0.41537752402E+02 -0.10952981095E+01  0.43400728289E+02  0.00000000000E+00 0.  1.
         11    1    3    3    0    0 -0.12721445869E+02  0.18517219526E+02 -0.18974368570E+01  0.22546016741E+02  0.51100000000E-03 0. -1.
        -11    1    3    3    0    0  0.27445426417E+01  0.16767783039E+01  0.18600189246E+01  0.37153425755E+01  0.51100000000E-03 0.  1.
        -12    1    3    3    0    0 -0.25546036016E+01  0.21343754572E+02  0.11327160419E+01  0.21525912395E+02  0.00000000000E+00 0.  1.
</event>
<event>
 7    1  0.2430096E-009  0.4778727E+02  0.7816164E-02  0.1312668E+00
        -11   -1    0    0    0    0  0.00000000000E+00  0.00000000000E+00  0.45593999997E+02  0.45594000000E+02  0.51100000000E-03 0.  1.
         11   -1    0    0    0    0 -0.00000000000E+00 -0.00000000000E+00 -0.45593999997E+02  0.45594000000E+02  0.51100000000E-03 0. -1.
    9900012    2    1    2    0    0  0.37062958846E+02  0.33679894322E+01 -0.22329731242E+02  0.47787272258E+02  0.20000005532E+02 0.  0.
        -12    1    1    2    0    0 -0.37062958846E+02 -0.33679894322E+01  0.22329731242E+02  0.43400727742E+02  0.00000000000E+00 0.  1.
         11    1    3    3    0    0  0.12272019572E+02  0.75180013763E+00 -0.47238500081E+01  0.13171272793E+02  0.51100000000E-03 0. -1.
        -11    1    3    3    0    0  0.11716920405E+02 -0.68167278908E+00  0.84078732185E+00  0.11766810321E+02  0.51100000000E-03 0.  1.
        -12    1    3    3    0    0  0.13074018869E+02  0.32978620836E+01 -0.18446668556E+02  0.22849189144E+02  0.00000000000E+00 0.  1.
</event>
<event>
 7    1  0.2430096E-009  0.4778727E+02  0.7816164E-02  0.1312668E+00
        -11   -1    0    0    0    0  0.00000000000E+00  0.00000000000E+00  0.45593999997E+02  0.45594000000E+02  0.51100000000E-03 0.  1.
         11   -1    0    0    0    0 -0.00000000000E+00 -0.00000000000E+00 -0.45593999997E+02  0.45594000000E+02  0.51100000000E-03 0. -1.
    9900012    2    1    2    0    0  0.25677874962E+02 -0.33493173458E+02 -0.10123092750E+02  0.47787274917E+02  0.20000017658E+02 0.  0.
        -12    1    1    2    0    0 -0.25677874962E+02  0.33493173458E+02  0.10123092750E+02  0.43400725083E+02  0.00000000000E+00 0.  1.
         11    1    3    3    0    0  0.13147865730E+02 -0.25873854449E+02 -0.76232779142E+01  0.30007283845E+02  0.51100000000E-03 0. -1.
        -11    1    3    3    0    0  0.56426273301E+01 -0.13419207606E+01  0.34262820109E+01  0.67364236204E+01  0.51100000000E-03 0.  1.
        -12    1    3    3    0    0  0.68873819024E+01 -0.62773982482E+01 -0.59260968469E+01  0.11043567452E+02  0.00000000000E+00 0.  1.
</event>
<event>
 7    1  0.2430096E-009  0.4778727E+02  0.7816164E-02  0.1312668E+00
        -11   -1    0    0    0    0  0.00000000000E+00  0.00000000000E+00  0.45593999997E+02  0.45594000000E+02  0.51100000000E-03 0. -1.
         11   -1    0    0    0    0 -0.00000000000E+00 -0.00000000000E+00 -0.45593999997E+02  0.45594000000E+02  0.51100000000E-03 0.  1.
    9900012    2    1    2    0    0  0.29532644218E+02  0.31794298424E+02 -0.75422997775E+00  0.47787270172E+02  0.19999996020E+02 0.  0.
        -12    1    1    2    0    0 -0.29532644218E+02 -0.31794298424E+02  0.75422997775E+00  0.43400729828E+02  0.00000000000E+00 0.  1.
         11    1    3    3    0    0  0.57262249496E+01  0.70599763201E+01 -0.72623118031E+01  0.11635037207E+02  0.51100000000E-03 0. -1.
        -11    1    3    3    0    0  0.91450027585E+01  0.16122025260E+02  0.40393776075E+01  0.18970169890E+02  0.51100000000E-03 0.  1.
         12    1    3    3    0    0  0.14661416509E+02  0.86122968444E+01  0.24687042178E+01  0.17182063075E+02  0.00000000000E+00 0. -1.
</event>
<event>
 7    1  0.2430096E-009  0.4778727E+02  0.7816164E-02  0.1312668E+00
        -11   -1    0    0    0    0  0.00000000000E+00  0.00000000000E+00  0.45593999997E+02  0.45594000000E+02  0.51100000000E-03 0.  1.
         11   -1    0    0    0    0 -0.00000000000E+00 -0.00000000000E+00 -0.45593999997E+02  0.45594000000E+02  0.51100000000E-03 0. -1.
    9900012    2    1    2    0    0  0.97393653832E+01  0.96935423095E+01 -0.41167990410E+02  0.47787269188E+02  0.19999991538E+02 0.  0.
        -12    1    1    2    0    0 -0.97393653832E+01 -0.96935423095E+01  0.41167990410E+02  0.43400730812E+02  0.00000000000E+00 0.  1.
         11    1    3    3    0    0 -0.72063324452E+00 -0.21956777745E+01 -0.59124506817E+01  0.63480222500E+01  0.51100000000E-03 0. -1.
        -11    1    3    3    0    0  0.12117753289E+02  0.39418396693E+01 -0.27024678252E+02  0.29878274375E+02  0.51100000000E-03 0.  1.
        -12    1    3    3    0    0 -0.16577546610E+01  0.79473804146E+01 -0.82308614766E+01  0.11560972564E+02  0.00000000000E+00 0.  1.
</event>
<event>
 7    1  0.2430096E-009  0.4778726E+02  0.7816164E-02  0.1312668E+00
        -11   -1    0    0    0    0  0.00000000000E+00  0.00000000000E+00  0.45593999997E+02  0.45594000000E+02  0.51100000000E-03 0.  1.
         11   -1    0    0    0    0 -0.00000000000E+00 -0.00000000000E+00 -0.45593999997E+02  0.45594000000E+02  0.51100000000E-03 0. -1.
    9900012    2    1    2    0    0  0.39621464313E+02  0.63994512024E+01 -0.16516989865E+02  0.47787258484E+02  0.19999942731E+02 0.  0.
        -12    1    1    2    0    0 -0.39621464313E+02 -0.63994512024E+01  0.16516989865E+02  0.43400741516E+02  0.00000000000E+00 0.  1.
         11    1    3    3    0    0 -0.10458292328E+01  0.58359637158E+00  0.15776313660E+01  0.19807232258E+01  0.51100000000E-03 0. -1.
        -11    1    3    3    0    0  0.14413389656E+02  0.12603755292E+01 -0.11161050129E+02  0.18273023507E+02  0.51100000000E-03 0.  1.
         12    1    3    3    0    0  0.26253903890E+02  0.45554793017E+01 -0.69335711014E+01  0.27533511751E+02  0.00000000000E+00 0. -1.
</event>
<event>
 7    1  0.2430096E-009  0.4778727E+02  0.7816164E-02  0.1312668E+00
        -11   -1    0    0    0    0  0.00000000000E+00  0.00000000000E+00  0.45593999997E+02  0.45594000000E+02  0.51100000000E-03 0.  1.
         11   -1    0    0    0    0 -0.00000000000E+00 -0.00000000000E+00 -0.45593999997E+02  0.45594000000E+02  0.51100000000E-03 0. -1.
    9900012    2    1    2    0    0 -0.38052177730E+02 -0.98519869082E+01 -0.18400908797E+02  0.47787270507E+02  0.19999997548E+02 0.  0.
        -12    1    1    2    0    0  0.38052177730E+02  0.98519869082E+01  0.18400908797E+02  0.43400729493E+02  0.00000000000E+00 0.  1.
         11    1    3    3    0    0 -0.33188046869E+02 -0.50591094253E+01 -0.13682494894E+02  0.36252609698E+02  0.51100000000E-03 0. -1.
        -11    1    3    3    0    0  0.46717327888E+00 -0.51593873065E+01 -0.22406918821E+01  0.56443094017E+01  0.51100000000E-03 0.  1.
         12    1    3    3    0    0 -0.53313041401E+01  0.36650982357E+00 -0.24777220203E+01  0.58903514067E+01  0.00000000000E+00 0. -1.
</event>
<event>
 7    1  0.2430096E-009  0.4778727E+02  0.7816164E-02  0.1312668E+00
        -11   -1    0    0    0    0  0.00000000000E+00  0.00000000000E+00  0.45593999997E+02  0.45594000000E+02  0.51100000000E-03 0. -1.
         11   -1    0    0    0    0 -0.00000000000E+00 -0.00000000000E+00 -0.45593999997E+02  0.45594000000E+02  0.51100000000E-03 0.  1.
    9900012    2    1    2    0    0  0.13346843916E+02  0.40900530102E+02  0.57124214083E+01  0.47787270012E+02  0.19999995293E+02 0.  0.
        -12    1    1    2    0    0 -0.13346843916E+02 -0.40900530102E+02 -0.57124214083E+01  0.43400729988E+02  0.00000000000E+00 0.  1.
         11    1    3    3    0    0  0.94741549311E+01  0.82016961912E+01 -0.29359860550E+01  0.12870409723E+02  0.51100000000E-03 0. -1.
        -11    1    3    3    0    0  0.41226319059E+01  0.26270179993E+02  0.38018564711E+01  0.26862102739E+02  0.51100000000E-03 0.  1.
         12    1    3    3    0    0 -0.24994292056E+00  0.64286539181E+01  0.48465509922E+01  0.80547575495E+01  0.00000000000E+00 0. -1.
</event>
<event>
 7    1  0.2430096E-009  0.4778727E+02  0.7816164E-02  0.1312668E+00
        -11   -1    0    0    0    0  0.00000000000E+00  0.00000000000E+00  0.45593999997E+02  0.45594000000E+02  0.51100000000E-03 0. -1.
         11   -1    0    0    0    0 -0.00000000000E+00 -0.00000000000E+00 -0.45593999997E+02  0.45594000000E+02  0.51100000000E-03 0.  1.
    9900012    2    1    2    0    0 -0.42317035594E+01  0.30329714959E+02  0.30754256942E+02  0.47787271382E+02  0.20000001537E+02 0.  0.
        -12    1    1    2    0    0  0.42317035594E+01 -0.30329714959E+02 -0.30754256942E+02  0.43400728618E+02  0.00000000000E+00 0.  1.
         11    1    3    3    0    0 -0.13968443962E+01  0.32193065384E+01  0.53867263082E+01  0.64289913234E+01  0.51100000000E-03 0. -1.
        -11    1    3    3    0    0  0.22172521508E+01  0.32534691024E+01  0.13832161607E+02  0.14381584171E+02  0.51100000000E-03 0.  1.
        -12    1    3    3    0    0 -0.50521113140E+01  0.23856939319E+02  0.11535369028E+02  0.26976695887E+02  0.00000000000E+00 0.  1.
</event>
<event>
 7    1  0.2430096E-009  0.4778727E+02  0.7816164E-02  0.1312668E+00
        -11   -1    0    0    0    0  0.00000000000E+00  0.00000000000E+00  0.45593999997E+02  0.45594000000E+02  0.51100000000E-03 0. -1.
         11   -1    0    0    0    0 -0.00000000000E+00 -0.00000000000E+00 -0.45593999997E+02  0.45594000000E+02  0.51100000000E-03 0.  1.
    9900012    2    1    2    0    0 -0.14837004933E+02  0.69891787597E+01  0.40182556661E+02  0.47787271954E+02  0.20000004148E+02 0.  0.
        -12    1    1    2    0    0  0.14837004933E+02 -0.69891787597E+01 -0.40182556661E+02  0.43400728046E+02  0.00000000000E+00 0.  1.
         11    1    3    3    0    0 -0.62491491481E+01  0.10966051573E+02  0.17967022388E+02  0.21957232201E+02  0.51100000000E-03 0. -1.
        -11    1    3    3    0    0 -0.52305772371E+01 -0.30703599231E+01  0.39536131616E+01  0.72399658551E+01  0.51100000000E-03 0.  1.
        -12    1    3    3    0    0 -0.33572785479E+01 -0.90651289030E+00  0.18261921111E+02  0.18590073898E+02  0.00000000000E+00 0.  1.
</event>
<event>
 7    1  0.2430096E-009  0.4778727E+02  0.7816164E-02  0.1312668E+00
        -11   -1    0    0    0    0  0.00000000000E+00  0.00000000000E+00  0.45593999997E+02  0.45594000000E+02  0.51100000000E-03 0.  1.
         11   -1    0    0    0    0 -0.00000000000E+00 -0.00000000000E+00 -0.45593999997E+02  0.45594000000E+02  0.51100000000E-03 0. -1.
    9900012    2    1    2    0    0 -0.28553500913E+01 -0.15196088325E+02 -0.40553038132E+02  0.47787273897E+02  0.20000013006E+02 0.  0.
        -12    1    1    2    0    0  0.28553500913E+01  0.15196088325E+02  0.40553038132E+02  0.43400726103E+02  0.00000000000E+00 0.  1.
         11    1    3    3    0    0 -0.61259932831E+01 -0.17134104884E+02 -0.32016166290E+02  0.36825809537E+02  0.51100000000E-03 0. -1.
        -11    1    3    3    0    0  0.42986307544E+01  0.15159656796E+00 -0.75198894049E+01  0.86631371226E+01  0.51100000000E-03 0.  1.
         12    1    3    3    0    0 -0.10279875626E+01  0.17864199911E+01 -0.10169824374E+01  0.22983272377E+01  0.00000000000E+00 0. -1.
</event>
<event>
 7    1  0.2430096E-009  0.4778727E+02  0.7816164E-02  0.1312668E+00
        -11   -1    0    0    0    0  0.00000000000E+00  0.00000000000E+00  0.45593999997E+02  0.45594000000E+02  0.51100000000E-03 0. -1.
         11   -1    0    0    0    0 -0.00000000000E+00 -0.00000000000E+00 -0.45593999997E+02  0.45594000000E+02  0.51100000000E-03 0.  1.
    9900012    2    1    2    0    0 -0.23522585118E+02 -0.30670126080E+02  0.19739667390E+02  0.47787272897E+02  0.20000008447E+02 0.  0.
        -12    1    1    2    0    0  0.23522585118E+02  0.30670126080E+02 -0.19739667390E+02  0.43400727103E+02  0.00000000000E+00 0.  1.
         11    1    3    3    0    0 -0.81717071802E+01 -0.19785293159E+02  0.93551614358E+01  0.23361371307E+02  0.51100000000E-03 0. -1.
        -11    1    3    3    0    0 -0.62860531883E+01 -0.10967648951E+01  0.89731122230E+01  0.11010635819E+02  0.51100000000E-03 0.  1.
        -12    1    3    3    0    0 -0.90648247494E+01 -0.97880680261E+01  0.14113937311E+01  0.13415265770E+02  0.00000000000E+00 0.  1.
</event>
<event>
 7    1  0.2430096E-009  0.4778727E+02  0.7816164E-02  0.1312668E+00
        -11   -1    0    0    0    0  0.00000000000E+00  0.00000000000E+00  0.45593999997E+02  0.45594000000E+02  0.51100000000E-03 0.  1.
         11   -1    0    0    0    0 -0.00000000000E+00 -0.00000000000E+00 -0.45593999997E+02  0.45594000000E+02  0.51100000000E-03 0. -1.
    9900012    2    1    2    0    0  0.66812515609E+01 -0.15818257975E+02 -0.39859339007E+02  0.47787270584E+02  0.19999997900E+02 0.  0.
        -12    1    1    2    0    0 -0.66812515609E+01  0.15818257975E+02  0.39859339007E+02  0.43400729416E+02  0.00000000000E+00 0.  1.
         11    1    3    3    0    0 -0.26993196486E+01 -0.57940181744E+01 -0.27535633962E+01  0.69598193086E+01  0.51100000000E-03 0. -1.
        -11    1    3    3    0    0  0.61972809577E+00 -0.46298129499E+01 -0.39670482655E+01  0.61283523940E+01  0.51100000000E-03 0.  1.
         12    1    3    3    0    0  0.87608431137E+01 -0.53944268508E+01 -0.33138727345E+02  0.34699098881E+02  0.00000000000E+00 0. -1.
</event>
<event>
 7    1  0.2430096E-009  0.4778727E+02  0.7816164E-02  0.1312668E+00
        -11   -1    0    0    0    0  0.00000000000E+00  0.00000000000E+00  0.45593999997E+02  0.45594000000E+02  0.51100000000E-03 0.  1.
         11   -1    0    0    0    0 -0.00000000000E+00 -0.00000000000E+00 -0.45593999997E+02  0.45594000000E+02  0.51100000000E-03 0. -1.
    9900012    2    1    2    0    0  0.89790179990E+01 -0.55301262504E+01 -0.42100098297E+02  0.47787270315E+02  0.19999996675E+02 0.  0.
        -12    1    1    2    0    0 -0.89790179990E+01  0.55301262504E+01  0.42100098297E+02  0.43400729685E+02  0.00000000000E+00 0.  1.
         11    1    3    3    0    0  0.76349452195E+01  0.13121601529E+01 -0.25612684432E+02  0.26758620234E+02  0.51100000000E-03 0. -1.
        -11    1    3    3    0    0  0.18848466253E+01 -0.76643261016E+01 -0.46709239872E+01  0.91712634107E+01  0.51100000000E-03 0.  1.
        -12    1    3    3    0    0 -0.54077384582E+00  0.82203969829E+00 -0.11816489877E+02  0.11857386670E+02  0.00000000000E+00 0.  1.
</event>
<event>
 7    1  0.2430096E-009  0.4778726E+02  0.7816164E-02  0.1312668E+00
        -11   -1    0    0    0    0  0.00000000000E+00  0.00000000000E+00  0.45593999997E+02  0.45594000000E+02  0.51100000000E-03 0.  1.
         11   -1    0    0    0    0 -0.00000000000E+00 -0.00000000000E+00 -0.45593999997E+02  0.45594000000E+02  0.51100000000E-03 0. -1.
    9900012    2    1    2    0    0  0.24945734171E+02 -0.35514206612E+02 -0.27451127162E+00  0.47787264049E+02  0.19999968106E+02 0.  0.
        -12    1    1    2    0    0 -0.24945734171E+02  0.35514206612E+02  0.27451127162E+00  0.43400735951E+02  0.00000000000E+00 0.  1.
         11    1    3    3    0    0  0.86000748579E+01 -0.13113036497E+02 -0.71158702272E+01  0.17220587188E+02  0.51100000000E-03 0. -1.
        -11    1    3    3    0    0  0.12845722649E+02 -0.85693534799E+01  0.46858265027E+01  0.16137018923E+02  0.51100000000E-03 0.  1.
         12    1    3    3    0    0  0.34999366641E+01 -0.13831816635E+02  0.21555324529E+01  0.14429657939E+02  0.00000000000E+00 0. -1.
</event>
<event>
 7    1  0.2430096E-009  0.4778727E+02  0.7816164E-02  0.1312668E+00
        -11   -1    0    0    0    0  0.00000000000E+00  0.00000000000E+00  0.45593999997E+02  0.45594000000E+02  0.51100000000E-03 0.  1.
         11   -1    0    0    0    0 -0.00000000000E+00 -0.00000000000E+00 -0.45593999997E+02  0.45594000000E+02  0.51100000000E-03 0. -1.
    9900012    2    1    2    0    0  0.35831915814E+02  0.22908050761E+02 -0.86555305117E+01  0.47787272022E+02  0.20000004459E+02 0.  0.
        -12    1    1    2    0    0 -0.35831915814E+02 -0.22908050761E+02  0.86555305117E+01  0.43400727978E+02  0.00000000000E+00 0.  1.
         11    1    3    3    0    0  0.34057346626E+02  0.21406412012E+02 -0.37761305884E+01  0.40402926836E+02  0.51100000000E-03 0. -1.
        -11    1    3    3    0    0 -0.93055749752E+00 -0.74314660128E+00  0.19963806816E+00  0.12075014479E+01  0.51100000000E-03 0.  1.
         12    1    3    3    0    0  0.27051266854E+01  0.22447853498E+01 -0.50790379914E+01  0.61768437384E+01  0.00000000000E+00 0. -1.
</event>
<event>
 7    1  0.2430096E-009  0.4778727E+02  0.7816164E-02  0.1312668E+00
        -11   -1    0    0    0    0  0.00000000000E+00  0.00000000000E+00  0.45593999997E+02  0.45594000000E+02  0.51100000000E-03 0. -1.
         11   -1    0    0    0    0 -0.00000000000E+00 -0.00000000000E+00 -0.45593999997E+02  0.45594000000E+02  0.51100000000E-03 0.  1.
    9900012    2    1    2    0    0 -0.24331177515E+02  0.33341598680E+02  0.13414726432E+02  0.47787270893E+02  0.19999999308E+02 0.  0.
        -12    1    1    2    0    0  0.24331177515E+02 -0.33341598680E+02 -0.13414726432E+02  0.43400729107E+02  0.00000000000E+00 0.  1.
         11    1    3    3    0    0 -0.24627835575E+02  0.19569015073E+02  0.12430144826E+02  0.33822849328E+02  0.51100000000E-03 0. -1.
        -11    1    3    3    0    0 -0.42977986676E+00  0.10080205977E+02  0.60847074557E-01  0.10089547358E+02  0.51100000000E-03 0.  1.
         12    1    3    3    0    0  0.72643792693E+00  0.36923776306E+01  0.92373453152E+00  0.38748742062E+01  0.00000000000E+00 0. -1.
</event>
<event>
 7    1  0.2430096E-009  0.4778727E+02  0.7816164E-02  0.1312668E+00
        -11   -1    0    0    0    0  0.00000000000E+00  0.00000000000E+00  0.45593999997E+02  0.45594000000E+02  0.51100000000E-03 0. -1.
         11   -1    0    0    0    0 -0.00000000000E+00 -0.00000000000E+00 -0.45593999997E+02  0.45594000000E+02  0.51100000000E-03 0.  1.
    9900012    2    1    2    0    0 -0.26232740239E+02 -0.66162806243E+01  0.33936577679E+02  0.47787272652E+02  0.20000007332E+02 0.  0.
        -12    1    1    2    0    0  0.26232740239E+02  0.66162806243E+01 -0.33936577679E+02  0.43400727348E+02  0.00000000000E+00 0.  1.
         11    1    3    3    0    0 -0.14735794637E+02 -0.11563128906E+02  0.18492829134E+02  0.26321746206E+02  0.51100000000E-03 0. -1.
        -11    1    3    3    0    0 -0.53339105801E+01  0.40414447807E+01  0.25786570158E+01  0.71717048362E+01  0.51100000000E-03 0.  1.
         12    1    3    3    0    0 -0.61630350214E+01  0.90540350111E+00  0.12865091529E+02  0.14293821610E+02  0.00000000000E+00 0. -1.
</event>
<event>
 7    1  0.2430096E-009  0.4778728E+02  0.7816164E-02  0.1312668E+00
        -11   -1    0    0    0    0  0.00000000000E+00  0.00000000000E+00  0.45593999997E+02  0.45594000000E+02  0.51100000000E-03 0.  1.
         11   -1    0    0    0    0 -0.00000000000E+00 -0.00000000000E+00 -0.45593999997E+02  0.45594000000E+02  0.51100000000E-03 0. -1.
    9900012    2    1    2    0    0 -0.89675657184E+00 -0.31845413961E+02 -0.29473518638E+02  0.47787275771E+02  0.20000021551E+02 0.  0.
        -12    1    1    2    0    0  0.89675657184E+00  0.31845413961E+02  0.29473518638E+02  0.43400724229E+02  0.00000000000E+00 0.  1.
         11    1    3    3    0    0 -0.34769417593E+01 -0.23761204503E+02 -0.16157119130E+02  0.28943677415E+02  0.51100000000E-03 0. -1.
        -11    1    3    3    0    0  0.60787449983E+01 -0.27724356262E+01 -0.48579498653E+01  0.82605821352E+01  0.51100000000E-03 0.  1.
        -12    1    3    3    0    0 -0.34985598109E+01 -0.53117738315E+01 -0.84584496426E+01  0.10583016221E+02  0.00000000000E+00 0.  1.
</event>
<event>
 7    1  0.2430096E-009  0.4778727E+02  0.7816164E-02  0.1312668E+00
        -11   -1    0    0    0    0  0.00000000000E+00  0.00000000000E+00  0.45593999997E+02  0.45594000000E+02  0.51100000000E-03 0.  1.
         11   -1    0    0    0    0 -0.00000000000E+00 -0.00000000000E+00 -0.45593999997E+02  0.45594000000E+02  0.51100000000E-03 0. -1.
    9900012    2    1    2    0    0 -0.39780121662E+00 -0.51930296026E+00 -0.43395796492E+02  0.47787273341E+02  0.20000010471E+02 0.  0.
        -12    1    1    2    0    0  0.39780121662E+00  0.51930296026E+00  0.43395796492E+02  0.43400726659E+02  0.00000000000E+00 0.  1.
         11    1    3    3    0    0 -0.24603092564E+01 -0.10666421560E+01 -0.54754183723E+01  0.60968068477E+01  0.51100000000E-03 0. -1.
        -11    1    3    3    0    0 -0.28671921994E+01 -0.31577589647E+01 -0.11651843875E+01  0.44215254953E+01  0.51100000000E-03 0.  1.
        -12    1    3    3    0    0  0.49297002392E+01  0.37050981605E+01 -0.36755193732E+02  0.37268940998E+02  0.00000000000E+00 0.  1.
</event>
<event>
 7    1  0.2430096E-009  0.4778727E+02  0.7816164E-02  0.1312668E+00
        -11   -1    0    0    0    0  0.00000000000E+00  0.00000000000E+00  0.45593999997E+02  0.45594000000E+02  0.51100000000E-03 0.  1.
         11   -1    0    0    0    0 -0.00000000000E+00 -0.00000000000E+00 -0.45593999997E+02  0.45594000000E+02  0.51100000000E-03 0. -1.
    9900012    2    1    2    0    0 -0.39987568138E+01  0.10816305365E+01 -0.43202585576E+02  0.47787269809E+02  0.19999994367E+02 0.  0.
        -12    1    1    2    0    0  0.39987568138E+01 -0.10816305365E+01  0.43202585576E+02  0.43400730191E+02  0.00000000000E+00 0.  1.
         11    1    3    3    0    0 -0.12277316804E+00 -0.51905773918E+01 -0.33339477021E+02  0.33741338076E+02  0.51100000000E-03 0. -1.
        -11    1    3    3    0    0 -0.39918040804E+01  0.22410714676E+01 -0.15968145946E+01  0.48483727425E+01  0.51100000000E-03 0.  1.
         12    1    3    3    0    0  0.11582043460E+00  0.40311364607E+01 -0.82662939604E+01  0.91975589901E+01  0.00000000000E+00 0. -1.
</event>
<event>
 7    1  0.2430096E-009  0.4778727E+02  0.7816164E-02  0.1312668E+00
        -11   -1    0    0    0    0  0.00000000000E+00  0.00000000000E+00  0.45593999997E+02  0.45594000000E+02  0.51100000000E-03 0. -1.
         11   -1    0    0    0    0 -0.00000000000E+00 -0.00000000000E+00 -0.45593999997E+02  0.45594000000E+02  0.51100000000E-03 0.  1.
    9900012    2    1    2    0    0  0.28886857396E+02 -0.30105906382E+02 -0.11950197780E+02  0.47787270095E+02  0.19999995673E+02 0.  0.
        -12    1    1    2    0    0 -0.28886857396E+02  0.30105906382E+02  0.11950197780E+02  0.43400729905E+02  0.00000000000E+00 0.  1.
         11    1    3    3    0    0  0.25405853811E+02 -0.16895043977E+02 -0.76597546811E+01  0.31457459542E+02  0.51100000000E-03 0. -1.
        -11    1    3    3    0    0  0.15338861291E+01 -0.15670755662E+00  0.12799519970E+01  0.20039065075E+01  0.51100000000E-03 0.  1.
         12    1    3    3    0    0  0.19471174559E+01 -0.13054154848E+02 -0.55703950962E+01  0.14325904045E+02  0.00000000000E+00 0. -1.
</event>
<event>
 7    1  0.2430096E-009  0.4778727E+02  0.7816164E-02  0.1312668E+00
        -11   -1    0    0    0    0  0.00000000000E+00  0.00000000000E+00  0.45593999997E+02  0.45594000000E+02  0.51100000000E-03 0. -1.
         11   -1    0    0    0    0 -0.00000000000E+00 -0.00000000000E+00 -0.45593999997E+02  0.45594000000E+02  0.51100000000E-03 0.  1.
    9900012    2    1    2    0    0  0.19679874872E+02  0.21925154944E+02  0.31868689484E+02  0.47787271161E+02  0.20000000530E+02 0.  0.
        -12    1    1    2    0    0 -0.19679874872E+02 -0.21925154944E+02 -0.31868689484E+02  0.43400728839E+02  0.00000000000E+00 0.  1.
         11    1    3    3    0    0  0.59303113292E+01  0.38402598255E+00  0.15876029077E+02  0.16951824914E+02  0.51100000000E-03 0. -1.
        -11    1    3    3    0    0  0.74902392389E+01  0.71451650181E+01  0.40693311139E+01  0.11122792948E+02  0.51100000000E-03 0.  1.
         12    1    3    3    0    0  0.62593243041E+01  0.14395963944E+02  0.11923329294E+02  0.19712653299E+02  0.00000000000E+00 0. -1.
</event>
<event>
 7    1  0.2430096E-009  0.4778727E+02  0.7816164E-02  0.1312668E+00
        -11   -1    0    0    0    0  0.00000000000E+00  0.00000000000E+00  0.45593999997E+02  0.45594000000E+02  0.51100000000E-03 0.  1.
         11   -1    0    0    0    0 -0.00000000000E+00 -0.00000000000E+00 -0.45593999997E+02  0.45594000000E+02  0.51100000000E-03 0. -1.
    9900012    2    1    2    0    0  0.41212312033E+02 -0.68166635359E+01 -0.11777170061E+02  0.47787270749E+02  0.19999998655E+02 0.  0.
        -12    1    1    2    0    0 -0.41212312033E+02  0.68166635359E+01  0.11777170061E+02  0.43400729251E+02  0.00000000000E+00 0.  1.
         11    1    3    3    0    0  0.34386371101E+02 -0.10505254242E+02 -0.96329017700E+01  0.37223321734E+02  0.51100000000E-03 0. -1.
        -11    1    3    3    0    0  0.34475775522E+01  0.52622965884E+01 -0.26041754473E+01  0.68087654082E+01  0.51100000000E-03 0.  1.
         12    1    3    3    0    0  0.33783633794E+01 -0.15737058827E+01  0.45990715611E+00  0.37551836068E+01  0.00000000000E+00 0. -1.
</event>
<event>
 7    1  0.2430096E-009  0.4778728E+02  0.7816164E-02  0.1312668E+00
        -11   -1    0    0    0    0  0.00000000000E+00  0.00000000000E+00  0.45593999997E+02  0.45594000000E+02  0.51100000000E-03 0. -1.
         11   -1    0    0    0    0 -0.00000000000E+00 -0.00000000000E+00 -0.45593999997E+02  0.45594000000E+02  0.51100000000E-03 0.  1.
    9900012    2    1    2    0    0  0.34723771453E+02  0.23828394054E+02  0.10492388924E+02  0.47787275439E+02  0.20000020035E+02 0.  0.
        -12    1    1    2    0    0 -0.34723771453E+02 -0.23828394054E+02 -0.10492388924E+02  0.43400724561E+02  0.00000000000E+00 0.  1.
         11    1    3    3    0    0  0.32334168804E+02  0.16415632448E+02  0.66581676451E+01  0.36868721941E+02  0.51100000000E-03 0. -1.
        -11    1    3    3    0    0  0.28584368643E+01  0.79511540567E+01  0.47999737481E+01  0.97175748201E+01  0.51100000000E-03 0.  1.
         12    1    3    3    0    0 -0.46883421575E+00 -0.53839245054E+00 -0.96575246885E+00  0.12009786775E+01  0.00000000000E+00 0. -1.
</event>
<event>
 7    1  0.2430096E-009  0.4778727E+02  0.7816164E-02  0.1312668E+00
        -11   -1    0    0    0    0  0.00000000000E+00  0.00000000000E+00  0.45593999997E+02  0.45594000000E+02  0.51100000000E-03 0.  1.
         11   -1    0    0    0    0 -0.00000000000E+00 -0.00000000000E+00 -0.45593999997E+02  0.45594000000E+02  0.51100000000E-03 0. -1.
    9900012    2    1    2    0    0  0.23383283572E+02 -0.24818936978E+02 -0.26848945064E+02  0.47787269196E+02  0.19999991572E+02 0.  0.
        -12    1    1    2    0    0 -0.23383283572E+02  0.24818936978E+02  0.26848945064E+02  0.43400730804E+02  0.00000000000E+00 0.  1.
         11    1    3    3    0    0 -0.18066125863E+01 -0.71473659181E+01 -0.46954258693E+01  0.87404641158E+01  0.51100000000E-03 0.  1.
        -11    1    3    3    0    0  0.12414486896E+02 -0.67924963920E+01 -0.48906577878E+01  0.14972509008E+02  0.51100000000E-03 0. -1.
         12    1    3    3    0    0  0.12775409262E+02 -0.10879074668E+02 -0.17262861406E+02  0.24074296072E+02  0.00000000000E+00 0. -1.
</event>
<event>
 7    1  0.2430096E-009  0.4778727E+02  0.7816164E-02  0.1312668E+00
        -11   -1    0    0    0    0  0.00000000000E+00  0.00000000000E+00  0.45593999997E+02  0.45594000000E+02  0.51100000000E-03 0. -1.
         11   -1    0    0    0    0 -0.00000000000E+00 -0.00000000000E+00 -0.45593999997E+02  0.45594000000E+02  0.51100000000E-03 0.  1.
    9900012    2    1    2    0    0  0.16285912960E+02 -0.75231866472E+01  0.39519542254E+02  0.47787268229E+02  0.19999987163E+02 0.  0.
        -12    1    1    2    0    0 -0.16285912960E+02  0.75231866472E+01 -0.39519542254E+02  0.43400731771E+02  0.00000000000E+00 0.  1.
         11    1    3    3    0    0  0.41418256996E+01 -0.78581420064E+01  0.31403534312E+02  0.32635671948E+02  0.51100000000E-03 0. -1.
        -11    1    3    3    0    0  0.98581406829E+01 -0.11827433384E+01  0.54520708529E+01  0.11327263411E+02  0.51100000000E-03 0.  1.
         12    1    3    3    0    0  0.22859465771E+01  0.15176986975E+01  0.26639370893E+01  0.38243328707E+01  0.00000000000E+00 0. -1.
</event>
<event>
 7    1  0.2430096E-009  0.4778725E+02  0.7816164E-02  0.1312668E+00
        -11   -1    0    0    0    0  0.00000000000E+00  0.00000000000E+00  0.45593999997E+02  0.45594000000E+02  0.51100000000E-03 0. -1.
         11   -1    0    0    0    0 -0.00000000000E+00 -0.00000000000E+00 -0.45593999997E+02  0.45594000000E+02  0.51100000000E-03 0.  1.
    9900012    2    1    2    0    0 -0.34864836911E+02 -0.88173066646E+01  0.24296574116E+02  0.47787248124E+02  0.19999895494E+02 0.  0.
        -12    1    1    2    0    0  0.34864836911E+02  0.88173066646E+01 -0.24296574116E+02  0.43400751876E+02  0.00000000000E+00 0.  1.
         11    1    3    3    0    0 -0.26898472582E+01  0.27653939816E+01  0.97943091666E+01  0.10526688675E+02  0.51100000000E-03 0. -1.
        -11    1    3    3    0    0 -0.12756621263E+02 -0.61150930744E+01  0.61980471133E+01  0.15444789983E+02  0.51100000000E-03 0.  1.
         12    1    3    3    0    0 -0.19418368390E+02 -0.54676075718E+01  0.83042178365E+01  0.21815769466E+02  0.00000000000E+00 0. -1.
</event>
<event>
 7    1  0.2430096E-009  0.4778727E+02  0.7816164E-02  0.1312668E+00
        -11   -1    0    0    0    0  0.00000000000E+00  0.00000000000E+00  0.45593999997E+02  0.45594000000E+02  0.51100000000E-03 0.  1.
         11   -1    0    0    0    0 -0.00000000000E+00 -0.00000000000E+00 -0.45593999997E+02  0.45594000000E+02  0.51100000000E-03 0. -1.
    9900012    2    1    2    0    0 -0.32525516357E+02 -0.13055035910E+01 -0.28705576198E+02  0.47787266611E+02  0.19999979785E+02 0.  0.
        -12    1    1    2    0    0  0.32525516357E+02  0.13055035910E+01  0.28705576198E+02  0.43400733389E+02  0.00000000000E+00 0.  1.
         11    1    3    3    0    0 -0.18973260452E+02 -0.75722473512E+01 -0.19436204759E+02  0.28197333169E+02  0.51100000000E-03 0. -1.
        -11    1    3    3    0    0 -0.16506593929E+01  0.33979447489E+01  0.65014310528E+00  0.38331959598E+01  0.51100000000E-03 0.  1.
        -12    1    3    3    0    0 -0.11901596512E+02  0.28687990113E+01 -0.99195145437E+01  0.15756737482E+02  0.00000000000E+00 0.  1.
</event>
<event>
 7    1  0.2430096E-009  0.4778729E+02  0.7816164E-02  0.1312668E+00
        -11   -1    0    0    0    0  0.00000000000E+00  0.00000000000E+00  0.45593999997E+02  0.45594000000E+02  0.51100000000E-03 0.  1.
         11   -1    0    0    0    0 -0.00000000000E+00 -0.00000000000E+00 -0.45593999997E+02  0.45594000000E+02  0.51100000000E-03 0. -1.
    9900012    2    1    2    0    0  0.17206934225E+02  0.77960984683E+01 -0.39073831551E+02  0.47787285158E+02  0.20000064349E+02 0.  0.
        -12    1    1    2    0    0 -0.17206934225E+02 -0.77960984683E+01  0.39073831551E+02  0.43400714842E+02  0.00000000000E+00 0.  1.
         11    1    3    3    0    0  0.93545053872E+01 -0.31297953318E+01 -0.52394650997E+01  0.11169350234E+02  0.51100000000E-03 0. -1.
        -11    1    3    3    0    0  0.39283585288E+01  0.79699761327E+01 -0.18648892067E+02  0.20657533635E+02  0.51100000000E-03 0.  1.
         12    1    3    3    0    0  0.39240703089E+01  0.29559176674E+01 -0.15185474384E+02  0.15960401289E+02  0.00000000000E+00 0. -1.
</event>
<event>
 7    1  0.2430096E-009  0.4778727E+02  0.7816164E-02  0.1312668E+00
        -11   -1    0    0    0    0  0.00000000000E+00  0.00000000000E+00  0.45593999997E+02  0.45594000000E+02  0.51100000000E-03 0.  1.
         11   -1    0    0    0    0 -0.00000000000E+00 -0.00000000000E+00 -0.45593999997E+02  0.45594000000E+02  0.51100000000E-03 0. -1.
    9900012    2    1    2    0    0 -0.39368912995E+02 -0.17390436977E+02  0.55933122539E+01  0.47787265552E+02  0.19999974958E+02 0.  0.
        -12    1    1    2    0    0  0.39368912995E+02  0.17390436977E+02 -0.55933122539E+01  0.43400734448E+02  0.00000000000E+00 0.  1.
         11    1    3    3    0    0 -0.60903351715E+01 -0.65145818387E+01 -0.54292962589E+01  0.10440747922E+02  0.51100000000E-03 0. -1.
        -11    1    3    3    0    0 -0.17424206433E+02 -0.42082025681E+01  0.89111858850E+01  0.20018021201E+02  0.51100000000E-03 0.  1.
         12    1    3    3    0    0 -0.15854371390E+02 -0.66676525703E+01  0.21114226278E+01  0.17328496429E+02  0.00000000000E+00 0. -1.
</event>
<event>
 7    1  0.2430096E-009  0.4778727E+02  0.7816164E-02  0.1312668E+00
        -11   -1    0    0    0    0  0.00000000000E+00  0.00000000000E+00  0.45593999997E+02  0.45594000000E+02  0.51100000000E-03 0.  1.
         11   -1    0    0    0    0 -0.00000000000E+00 -0.00000000000E+00 -0.45593999997E+02  0.45594000000E+02  0.51100000000E-03 0. -1.
    9900012    2    1    2    0    0  0.41003972657E+02 -0.10047441135E+02 -0.10067096634E+02  0.47787270955E+02  0.19999999590E+02 0.  0.
        -12    1    1    2    0    0 -0.41003972657E+02  0.10047441135E+02  0.10067096634E+02  0.43400729045E+02  0.00000000000E+00 0.  1.
         11    1    3    3    0    0  0.18258360785E+02 -0.48212914113E+01 -0.51692600515E+01  0.19578913125E+02  0.51100000000E-03 0. -1.
        -11    1    3    3    0    0  0.13088101172E+02 -0.75285560087E+01 -0.88739918304E+01  0.17513574139E+02  0.51100000000E-03 0.  1.
        -12    1    3    3    0    0  0.96575107001E+01  0.23024062846E+01  0.39761552476E+01  0.10694783690E+02  0.00000000000E+00 0.  1.
</event>
<event>
 7    1  0.2430096E-009  0.4778727E+02  0.7816164E-02  0.1312668E+00
        -11   -1    0    0    0    0  0.00000000000E+00  0.00000000000E+00  0.45593999997E+02  0.45594000000E+02  0.51100000000E-03 0.  1.
         11   -1    0    0    0    0 -0.00000000000E+00 -0.00000000000E+00 -0.45593999997E+02  0.45594000000E+02  0.51100000000E-03 0. -1.
    9900012    2    1    2    0    0  0.19501023114E+02 -0.83659706217E+01 -0.37859524689E+02  0.47787274469E+02  0.20000015613E+02 0.  0.
        -12    1    1    2    0    0 -0.19501023114E+02  0.83659706217E+01  0.37859524689E+02  0.43400725531E+02  0.00000000000E+00 0.  1.
         11    1    3    3    0    0  0.13215091675E+02 -0.55670595866E+01 -0.25582230155E+02  0.29327142724E+02  0.51100000000E-03 0. -1.
        -11    1    3    3    0    0  0.28830909095E+01  0.44445854898E+01 -0.25970972706E+01  0.59001243939E+01  0.51100000000E-03 0.  1.
        -12    1    3    3    0    0  0.34028405297E+01 -0.72434965250E+01 -0.96801972637E+01  0.12560007350E+02  0.00000000000E+00 0.  1.
</event>
<event>
 7    1  0.2430096E-009  0.4778727E+02  0.7816164E-02  0.1312668E+00
        -11   -1    0    0    0    0  0.00000000000E+00  0.00000000000E+00  0.45593999997E+02  0.45594000000E+02  0.51100000000E-03 0.  1.
         11   -1    0    0    0    0 -0.00000000000E+00 -0.00000000000E+00 -0.45593999997E+02  0.45594000000E+02  0.51100000000E-03 0. -1.
    9900012    2    1    2    0    0 -0.94558147713E+01  0.39538902183E+02 -0.15194934030E+02  0.47787271447E+02  0.20000001834E+02 0.  0.
        -12    1    1    2    0    0  0.94558147713E+01 -0.39538902183E+02  0.15194934030E+02  0.43400728553E+02  0.00000000000E+00 0.  1.
         11    1    3    3    0    0  0.25962114090E+01  0.23903599080E+02 -0.72812924908E+01  0.25122491581E+02  0.51100000000E-03 0.  1.
        -11    1    3    3    0    0 -0.10290965009E+02  0.14046244291E+02 -0.36580370149E+01  0.17792756239E+02  0.51100000000E-03 0. -1.
        -12    1    3    3    0    0 -0.17610611712E+01  0.15890588115E+01 -0.42556045239E+01  0.48720236267E+01  0.00000000000E+00 0.  1.
</event>
<event>
 7    1  0.3140649E-009  0.4778727E+02  0.7816164E-02  0.1312668E+00
        -11   -1    0    0    0    0  0.00000000000E+00  0.00000000000E+00  0.45593999997E+02  0.45594000000E+02  0.51100000000E-03 0. -1.
         11   -1    0    0    0    0 -0.00000000000E+00 -0.00000000000E+00 -0.45593999997E+02  0.45594000000E+02  0.51100000000E-03 0.  1.
    9900012    2    1    2    0    0 -0.24044468165E+02  0.35996607271E+02 -0.31194735649E+01  0.47787270747E+02  0.19999998642E+02 0.  0.
        -12    1    1    2    0    0  0.24044468165E+02 -0.35996607271E+02  0.31194735649E+01  0.43400729253E+02  0.00000000000E+00 0.  1.
         11    1    3    3    0    0 -0.14649059352E+02  0.19761747463E+02  0.28222041064E+01  0.24760582363E+02  0.51100000000E-03 0. -1.
        -11    1    3    3    0    0 -0.82114096424E+01  0.36119644413E+01 -0.51032523659E+01  0.10320693795E+02  0.51100000000E-03 0.  1.
        -12    1    3    3    0    0 -0.11839991716E+01  0.12622895367E+02 -0.83842530543E+00  0.12705994589E+02  0.00000000000E+00 0.  1.
</event>
<event>
 7    1  0.2430096E-009  0.4778727E+02  0.7816164E-02  0.1312668E+00
        -11   -1    0    0    0    0  0.00000000000E+00  0.00000000000E+00  0.45593999997E+02  0.45594000000E+02  0.51100000000E-03 0. -1.
         11   -1    0    0    0    0 -0.00000000000E+00 -0.00000000000E+00 -0.45593999997E+02  0.45594000000E+02  0.51100000000E-03 0.  1.
    9900012    2    1    2    0    0  0.10498641647E+02  0.41842785949E+02  0.47521681607E+01  0.47787270575E+02  0.19999997858E+02 0.  0.
        -12    1    1    2    0    0 -0.10498641647E+02 -0.41842785949E+02 -0.47521681607E+01  0.43400729425E+02  0.00000000000E+00 0.  1.
         11    1    3    3    0    0  0.91854844516E+01  0.23234368408E+02  0.13876411518E+01  0.25022680675E+02  0.51100000000E-03 0. -1.
        -11    1    3    3    0    0 -0.19651126692E+01 -0.36023199506E+00  0.28844271181E+01  0.35087540458E+01  0.51100000000E-03 0.  1.
        -12    1    3    3    0    0  0.32782698650E+01  0.18968649536E+02  0.48009989078E+00  0.19255835854E+02  0.00000000000E+00 0.  1.
</event>
<event>
 7    1  0.2430096E-009  0.4778727E+02  0.7816164E-02  0.1312668E+00
        -11   -1    0    0    0    0  0.00000000000E+00  0.00000000000E+00  0.45593999997E+02  0.45594000000E+02  0.51100000000E-03 0.  1.
         11   -1    0    0    0    0 -0.00000000000E+00 -0.00000000000E+00 -0.45593999997E+02  0.45594000000E+02  0.51100000000E-03 0. -1.
    9900012    2    1    2    0    0 -0.20429646013E+02  0.37445943413E+02 -0.80033774250E+01  0.47787272304E+02  0.20000005744E+02 0.  0.
        -12    1    1    2    0    0  0.20429646013E+02 -0.37445943413E+02  0.80033774250E+01  0.43400727696E+02  0.00000000000E+00 0.  1.
         11    1    3    3    0    0 -0.33331155778E+01  0.23451060953E+02 -0.65191599134E+01  0.24567485942E+02  0.51100000000E-03 0. -1.
        -11    1    3    3    0    0 -0.26837692508E+01 -0.49793893618E+00 -0.30172945962E+00  0.27461976447E+01  0.51100000000E-03 0.  1.
         12    1    3    3    0    0 -0.14412761184E+02  0.14492821396E+02 -0.11824880519E+01  0.20473588717E+02  0.00000000000E+00 0. -1.
</event>
<event>
 7    1  0.2430096E-009  0.4778728E+02  0.7816164E-02  0.1312668E+00
        -11   -1    0    0    0    0  0.00000000000E+00  0.00000000000E+00  0.45593999997E+02  0.45594000000E+02  0.51100000000E-03 0. -1.
         11   -1    0    0    0    0 -0.00000000000E+00 -0.00000000000E+00 -0.45593999997E+02  0.45594000000E+02  0.51100000000E-03 0.  1.
    9900012    2    1    2    0    0  0.26986736931E+01  0.38780508190E+01  0.43142795332E+02  0.47787275272E+02  0.20000019276E+02 0.  0.
        -12    1    1    2    0    0 -0.26986736931E+01 -0.38780508190E+01 -0.43142795332E+02  0.43400724728E+02  0.00000000000E+00 0.  1.
         11    1    3    3    0    0  0.74592039041E+01  0.65895541486E+01  0.11931560552E+02  0.15537827526E+02  0.51100000000E-03 0. -1.
        -11    1    3    3    0    0 -0.54195346152E+01 -0.37282811086E+01  0.22106675081E+02  0.23064616166E+02  0.51100000000E-03 0.  1.
         12    1    3    3    0    0  0.65900440427E+00  0.10167777790E+01  0.91045596989E+01  0.91848315808E+01  0.00000000000E+00 0. -1.
</event>
<event>
 7    1  0.2430096E-009  0.4778727E+02  0.7816164E-02  0.1312668E+00
        -11   -1    0    0    0    0  0.00000000000E+00  0.00000000000E+00  0.45593999997E+02  0.45594000000E+02  0.51100000000E-03 0. -1.
         11   -1    0    0    0    0 -0.00000000000E+00 -0.00000000000E+00 -0.45593999997E+02  0.45594000000E+02  0.51100000000E-03 0.  1.
    9900012    2    1    2    0    0 -0.66097620679E+01  0.40462732400E+02  0.14237329169E+02  0.47787271783E+02  0.20000003368E+02 0.  0.
        -12    1    1    2    0    0  0.66097620679E+01 -0.40462732400E+02 -0.14237329169E+02  0.43400728217E+02  0.00000000000E+00 0.  1.
         11    1    3    3    0    0  0.50463045578E+01  0.43021691907E+01  0.28439851469E+01  0.72154072104E+01  0.51100000000E-03 0. -1.
        -11    1    3    3    0    0  0.10802652540E+01  0.66151812272E+01  0.11050868919E+01  0.67932917638E+01  0.51100000000E-03 0.  1.
         12    1    3    3    0    0 -0.12736331880E+02  0.29545381982E+02  0.10288257130E+02  0.33778572809E+02  0.00000000000E+00 0. -1.
</event>
<event>
 7    1  0.2430096E-009  0.4778727E+02  0.7816164E-02  0.1312668E+00
        -11   -1    0    0    0    0  0.00000000000E+00  0.00000000000E+00  0.45593999997E+02  0.45594000000E+02  0.51100000000E-03 0.  1.
         11   -1    0    0    0    0 -0.00000000000E+00 -0.00000000000E+00 -0.45593999997E+02  0.45594000000E+02  0.51100000000E-03 0. -1.
    9900012    2    1    2    0    0  0.15359787698E+02  0.40587362654E+02 -0.60531956576E+00  0.47787268472E+02  0.19999988272E+02 0.  0.
        -12    1    1    2    0    0 -0.15359787698E+02 -0.40587362654E+02  0.60531956576E+00  0.43400731528E+02  0.00000000000E+00 0.  1.
         11    1    3    3    0    0  0.21421787926E+01  0.24281848006E+02 -0.61627155365E+01  0.25143113085E+02  0.51100000000E-03 0. -1.
        -11    1    3    3    0    0  0.71233594108E+01  0.60588597413E+01  0.52364313400E+01  0.10717846990E+02  0.51100000000E-03 0.  1.
         12    1    3    3    0    0  0.60942494949E+01  0.10246654907E+02  0.32096463070E+00  0.11926308397E+02  0.00000000000E+00 0. -1.
</event>
<event>
 7    1  0.2430096E-009  0.4778728E+02  0.7816164E-02  0.1312668E+00
        -11   -1    0    0    0    0  0.00000000000E+00  0.00000000000E+00  0.45593999997E+02  0.45594000000E+02  0.51100000000E-03 0. -1.
         11   -1    0    0    0    0 -0.00000000000E+00 -0.00000000000E+00 -0.45593999997E+02  0.45594000000E+02  0.51100000000E-03 0.  1.
    9900012    2    1    2    0    0 -0.40495633423E+02 -0.28761540561E+01  0.15344520170E+02  0.47787275493E+02  0.20000020282E+02 0.  0.
        -12    1    1    2    0    0  0.40495633423E+02  0.28761540561E+01 -0.15344520170E+02  0.43400724507E+02  0.00000000000E+00 0.  1.
         11    1    3    3    0    0 -0.26165207301E+02  0.37348150461E+01  0.59197485435E+01  0.27085242100E+02  0.51100000000E-03 0. -1.
        -11    1    3    3    0    0 -0.56331266424E+01 -0.45226583139E+01 -0.62178698526E+00  0.72507360530E+01  0.51100000000E-03 0.  1.
         12    1    3    3    0    0 -0.86972994796E+01 -0.20883107883E+01  0.10046558612E+02  0.13451297340E+02  0.00000000000E+00 0. -1.
</event>
<event>
 7    1  0.2430096E-009  0.4778727E+02  0.7816164E-02  0.1312668E+00
        -11   -1    0    0    0    0  0.00000000000E+00  0.00000000000E+00  0.45593999997E+02  0.45594000000E+02  0.51100000000E-03 0. -1.
         11   -1    0    0    0    0 -0.00000000000E+00 -0.00000000000E+00 -0.45593999997E+02  0.45594000000E+02  0.51100000000E-03 0.  1.
    9900012    2    1    2    0    0  0.33711849736E+02 -0.42099273758E+01  0.27007613525E+02  0.47787268561E+02  0.19999988677E+02 0.  0.
        -12    1    1    2    0    0 -0.33711849736E+02  0.42099273758E+01 -0.27007613525E+02  0.43400731439E+02  0.00000000000E+00 0.  1.
         11    1    3    3    0    0  0.91515583372E+01 -0.39230576779E+01  0.94682448342E+01  0.13740053204E+02  0.51100000000E-03 0. -1.
        -11    1    3    3    0    0 -0.73983525105E+00 -0.34570165348E+01  0.33330702783E+01  0.48587732260E+01  0.51100000000E-03 0.  1.
        -12    1    3    3    0    0  0.25300126649E+02  0.31701468370E+01  0.14206298413E+02  0.29188442131E+02  0.00000000000E+00 0.  1.
</event>
<event>
 7    1  0.2430096E-009  0.4778727E+02  0.7816164E-02  0.1312668E+00
        -11   -1    0    0    0    0  0.00000000000E+00  0.00000000000E+00  0.45593999997E+02  0.45594000000E+02  0.51100000000E-03 0. -1.
         11   -1    0    0    0    0 -0.00000000000E+00 -0.00000000000E+00 -0.45593999997E+02  0.45594000000E+02  0.51100000000E-03 0.  1.
    9900012    2    1    2    0    0  0.17195907343E+02 -0.28850522544E+02  0.27487660650E+02  0.47787269955E+02  0.19999995035E+02 0.  0.
        -12    1    1    2    0    0 -0.17195907343E+02  0.28850522544E+02 -0.27487660650E+02  0.43400730045E+02  0.00000000000E+00 0.  1.
         11    1    3    3    0    0  0.14489344539E+02 -0.23786198948E+02  0.29706469023E+02  0.40720985593E+02  0.51100000000E-03 0. -1.
        -11    1    3    3    0    0 -0.39572226624E+00 -0.14433580584E+01 -0.17078211061E+01  0.22707998125E+01  0.51100000000E-03 0.  1.
         12    1    3    3    0    0  0.31022850709E+01 -0.36209655369E+01 -0.51098726756E+00  0.47954845499E+01  0.00000000000E+00 0. -1.
</event>
<event>
 7    1  0.2430096E-009  0.4778727E+02  0.7816164E-02  0.1312668E+00
        -11   -1    0    0    0    0  0.00000000000E+00  0.00000000000E+00  0.45593999997E+02  0.45594000000E+02  0.51100000000E-03 0.  1.
         11   -1    0    0    0    0 -0.00000000000E+00 -0.00000000000E+00 -0.45593999997E+02  0.45594000000E+02  0.51100000000E-03 0. -1.
    9900012    2    1    2    0    0  0.15898020685E+02 -0.33869176291E+01 -0.40241834132E+02  0.47787268589E+02  0.19999988803E+02 0.  0.
        -12    1    1    2    0    0 -0.15898020685E+02  0.33869176291E+01  0.40241834132E+02  0.43400731411E+02  0.00000000000E+00 0.  1.
         11    1    3    3    0    0  0.42825056892E+01 -0.15354439433E+01 -0.22566570954E+02  0.23020590088E+02  0.51100000000E-03 0. -1.
        -11    1    3    3    0    0 -0.23726030620E+01  0.39013294562E-02 -0.60002893131E+01  0.64523431877E+01  0.51100000000E-03 0.  1.
        -12    1    3    3    0    0  0.13988118057E+02 -0.18553750153E+01 -0.11674973865E+02  0.18314335314E+02  0.00000000000E+00 0.  1.
</event>
<event>
 7    1  0.2430096E-009  0.4778728E+02  0.7816164E-02  0.1312668E+00
        -11   -1    0    0    0    0  0.00000000000E+00  0.00000000000E+00  0.45593999997E+02  0.45594000000E+02  0.51100000000E-03 0.  1.
         11   -1    0    0    0    0 -0.00000000000E+00 -0.00000000000E+00 -0.45593999997E+02  0.45594000000E+02  0.51100000000E-03 0. -1.
    9900012    2    1    2    0    0  0.23138383862E+02 -0.99885040655E+01 -0.35333664977E+02  0.47787275329E+02  0.20000019536E+02 0.  0.
        -12    1    1    2    0    0 -0.23138383862E+02  0.99885040655E+01  0.35333664977E+02  0.43400724671E+02  0.00000000000E+00 0.  1.
         11    1    3    3    0    0  0.18048526998E+01 -0.11890658160E+01 -0.16451991554E+02  0.16593354005E+02  0.51100000000E-03 0. -1.
        -11    1    3    3    0    0  0.44204411684E+01 -0.60297298764E+01 -0.39106469635E+01  0.84374819964E+01  0.51100000000E-03 0.  1.
         12    1    3    3    0    0  0.16913089994E+02 -0.27697083730E+01 -0.14971026460E+02  0.22756439328E+02  0.00000000000E+00 0. -1.
</event>
<event>
 7    1  0.2430096E-009  0.4778726E+02  0.7816164E-02  0.1312668E+00
        -11   -1    0    0    0    0  0.00000000000E+00  0.00000000000E+00  0.45593999997E+02  0.45594000000E+02  0.51100000000E-03 0.  1.
         11   -1    0    0    0    0 -0.00000000000E+00 -0.00000000000E+00 -0.45593999997E+02  0.45594000000E+02  0.51100000000E-03 0. -1.
    9900012    2    1    2    0    0  0.18347981984E+02 -0.18080277322E+02 -0.34929628738E+02  0.47787264583E+02  0.19999970542E+02 0.  0.
        -12    1    1    2    0    0 -0.18347981984E+02  0.18080277322E+02  0.34929628738E+02  0.43400735417E+02  0.00000000000E+00 0.  1.
         11    1    3    3    0    0  0.32598637600E+01 -0.36126005938E+01 -0.54998822601E+01  0.73434528609E+01  0.51100000000E-03 0. -1.
        -11    1    3    3    0    0  0.95926174472E+01 -0.84708941566E+01 -0.34988609996E+01  0.13267116712E+02  0.51100000000E-03 0.  1.
        -12    1    3    3    0    0  0.54955007770E+01 -0.59967825716E+01 -0.25930885478E+02  0.27176695010E+02  0.00000000000E+00 0.  1.
</event>
<event>
 7    1  0.2430096E-009  0.4778727E+02  0.7816164E-02  0.1312668E+00
        -11   -1    0    0    0    0  0.00000000000E+00  0.00000000000E+00  0.45593999997E+02  0.45594000000E+02  0.51100000000E-03 0.  1.
         11   -1    0    0    0    0 -0.00000000000E+00 -0.00000000000E+00 -0.45593999997E+02  0.45594000000E+02  0.51100000000E-03 0. -1.
    9900012    2    1    2    0    0 -0.91544550473E+01  0.92586428677E+01 -0.41401653278E+02  0.47787269486E+02  0.19999992897E+02 0.  0.
        -12    1    1    2    0    0  0.91544550473E+01 -0.92586428677E+01  0.41401653278E+02  0.43400730514E+02  0.00000000000E+00 0.  1.
         11    1    3    3    0    0  0.50931227301E+00 -0.44227754778E+01 -0.18729286091E+02  0.19251142814E+02  0.51100000000E-03 0. -1.
        -11    1    3    3    0    0 -0.57959886518E+01  0.11365981374E+02 -0.15653439163E+02  0.20194285701E+02  0.51100000000E-03 0.  1.
         12    1    3    3    0    0 -0.38677786684E+01  0.23154369712E+01 -0.70189280234E+01  0.83418409715E+01  0.00000000000E+00 0. -1.
</event>
<event>
 7    1  0.2430096E-009  0.4778727E+02  0.7816164E-02  0.1312668E+00
        -11   -1    0    0    0    0  0.00000000000E+00  0.00000000000E+00  0.45593999997E+02  0.45594000000E+02  0.51100000000E-03 0. -1.
         11   -1    0    0    0    0 -0.00000000000E+00 -0.00000000000E+00 -0.45593999997E+02  0.45594000000E+02  0.51100000000E-03 0.  1.
    9900012    2    1    2    0    0 -0.35584324808E+02 -0.15398493020E+02  0.19500401630E+02  0.47787269325E+02  0.19999992162E+02 0.  0.
        -12    1    1    2    0    0  0.35584324808E+02  0.15398493020E+02 -0.19500401630E+02  0.43400730675E+02  0.00000000000E+00 0.  1.
         11    1    3    3    0    0 -0.10273886944E+02 -0.10029949077E+02  0.21407347428E+01  0.14516727487E+02  0.51100000000E-03 0. -1.
        -11    1    3    3    0    0 -0.65806097992E+01  0.36496242692E+01  0.36026300139E+01  0.83428487888E+01  0.51100000000E-03 0.  1.
        -12    1    3    3    0    0 -0.18729828065E+02 -0.90181682121E+01  0.13757036873E+02  0.24927693050E+02  0.00000000000E+00 0.  1.
</event>
<event>
 7    1  0.2430096E-009  0.4778727E+02  0.7816164E-02  0.1312668E+00
        -11   -1    0    0    0    0  0.00000000000E+00  0.00000000000E+00  0.45593999997E+02  0.45594000000E+02  0.51100000000E-03 0. -1.
         11   -1    0    0    0    0 -0.00000000000E+00 -0.00000000000E+00 -0.45593999997E+02  0.45594000000E+02  0.51100000000E-03 0.  1.
    9900012    2    1    2    0    0 -0.25401075512E+02  0.32275216755E+02  0.14025662828E+02  0.47787268768E+02  0.19999989622E+02 0.  0.
        -12    1    1    2    0    0  0.25401075512E+02 -0.32275216755E+02 -0.14025662828E+02  0.43400731232E+02  0.00000000000E+00 0.  1.
         11    1    3    3    0    0 -0.35226546774E+01  0.10187752723E+02  0.95524683361E+00  0.10821825091E+02  0.51100000000E-03 0. -1.
        -11    1    3    3    0    0 -0.59300631028E+01  0.62358359659E+01 -0.32312003400E+01  0.91919505272E+01  0.51100000000E-03 0.  1.
        -12    1    3    3    0    0 -0.15948357731E+02  0.15851628066E+02  0.16301616334E+02  0.27773493150E+02  0.00000000000E+00 0.  1.
</event>
<event>
 7    1  0.2430096E-009  0.4778727E+02  0.7816164E-02  0.1312668E+00
        -11   -1    0    0    0    0  0.00000000000E+00  0.00000000000E+00  0.45593999997E+02  0.45594000000E+02  0.51100000000E-03 0.  1.
         11   -1    0    0    0    0 -0.00000000000E+00 -0.00000000000E+00 -0.45593999997E+02  0.45594000000E+02  0.51100000000E-03 0. -1.
    9900012    2    1    2    0    0  0.21468404542E+02 -0.29579141381E+02 -0.23405237689E+02  0.47787272475E+02  0.20000006521E+02 0.  0.
        -12    1    1    2    0    0 -0.21468404542E+02  0.29579141381E+02  0.23405237689E+02  0.43400727525E+02  0.00000000000E+00 0.  1.
         11    1    3    3    0    0  0.10453832495E+02 -0.12463103597E+02 -0.75893300844E+01  0.17950194887E+02  0.51100000000E-03 0. -1.
        -11    1    3    3    0    0  0.13676361511E+01 -0.15408458048E+02 -0.89202154030E+01  0.17856686455E+02  0.51100000000E-03 0.  1.
        -12    1    3    3    0    0  0.96469358962E+01 -0.17075797361E+01 -0.68956922020E+01  0.11980391132E+02  0.00000000000E+00 0.  1.
</event>
<event>
 7    1  0.2430096E-009  0.4778727E+02  0.7816164E-02  0.1312668E+00
        -11   -1    0    0    0    0  0.00000000000E+00  0.00000000000E+00  0.45593999997E+02  0.45594000000E+02  0.51100000000E-03 0.  1.
         11   -1    0    0    0    0 -0.00000000000E+00 -0.00000000000E+00 -0.45593999997E+02  0.45594000000E+02  0.51100000000E-03 0. -1.
    9900012    2    1    2    0    0 -0.74540392303E+01  0.31168062979E+02 -0.29267947113E+02  0.47787267531E+02  0.19999983979E+02 0.  0.
        -12    1    1    2    0    0  0.74540392303E+01 -0.31168062979E+02  0.29267947113E+02  0.43400732469E+02  0.00000000000E+00 0.  1.
         11    1    3    3    0    0 -0.99504646646E+01  0.24516185396E+02 -0.29496300273E+02  0.39624321111E+02  0.51100000000E-03 0. -1.
        -11    1    3    3    0    0  0.11964770343E+01  0.59486851859E+01  0.14577973870E+01  0.62404796464E+01  0.51100000000E-03 0.  1.
         12    1    3    3    0    0  0.12999484000E+01  0.70319239654E+00 -0.12294442266E+01  0.19224667736E+01  0.00000000000E+00 0. -1.
</event>
<event>
 7    1  0.2430096E-009  0.4778727E+02  0.7816164E-02  0.1312668E+00
        -11   -1    0    0    0    0  0.00000000000E+00  0.00000000000E+00  0.45593999997E+02  0.45594000000E+02  0.51100000000E-03 0.  1.
         11   -1    0    0    0    0 -0.00000000000E+00 -0.00000000000E+00 -0.45593999997E+02  0.45594000000E+02  0.51100000000E-03 0. -1.
    9900012    2    1    2    0    0  0.34801203512E+02 -0.14304183347E+02 -0.21630762551E+02  0.47787270564E+02  0.19999997808E+02 0.  0.
        -12    1    1    2    0    0 -0.34801203512E+02  0.14304183347E+02  0.21630762551E+02  0.43400729436E+02  0.00000000000E+00 0.  1.
         11    1    3    3    0    0  0.32862382356E+02 -0.12311745832E+02 -0.24761482344E+02  0.42949345369E+02  0.51100000000E-03 0. -1.
        -11    1    3    3    0    0 -0.32445998501E+00 -0.59102382407E-01 -0.18821297258E+00  0.37972589804E+00  0.51100000000E-03 0.  1.
         12    1    3    3    0    0  0.22632811410E+01 -0.19333351328E+01  0.33189327661E+01  0.44581992962E+01  0.00000000000E+00 0. -1.
</event>
<event>
 7    1  0.2430096E-009  0.4778727E+02  0.7816164E-02  0.1312668E+00
        -11   -1    0    0    0    0  0.00000000000E+00  0.00000000000E+00  0.45593999997E+02  0.45594000000E+02  0.51100000000E-03 0.  1.
         11   -1    0    0    0    0 -0.00000000000E+00 -0.00000000000E+00 -0.45593999997E+02  0.45594000000E+02  0.51100000000E-03 0. -1.
    9900012    2    1    2    0    0  0.88120607877E+01 -0.58602842787E+01 -0.42090713811E+02  0.47787268021E+02  0.19999986216E+02 0.  0.
        -12    1    1    2    0    0 -0.88120607877E+01  0.58602842787E+01  0.42090713811E+02  0.43400731979E+02  0.00000000000E+00 0.  1.
         11    1    3    3    0    0  0.54578013558E+01 -0.29253960501E+01 -0.77143848898E+01  0.98922834663E+01  0.51100000000E-03 0. -1.
        -11    1    3    3    0    0  0.11413325092E+00 -0.90245364164E+01 -0.18459159331E+02  0.20547404882E+02  0.51100000000E-03 0.  1.
        -12    1    3    3    0    0  0.32401261810E+01  0.60896481878E+01 -0.15917169590E+02  0.17347579672E+02  0.00000000000E+00 0.  1.
</event>
<event>
 7    1  0.2430096E-009  0.4778727E+02  0.7816164E-02  0.1312668E+00
        -11   -1    0    0    0    0  0.00000000000E+00  0.00000000000E+00  0.45593999997E+02  0.45594000000E+02  0.51100000000E-03 0.  1.
         11   -1    0    0    0    0 -0.00000000000E+00 -0.00000000000E+00 -0.45593999997E+02  0.45594000000E+02  0.51100000000E-03 0. -1.
    9900012    2    1    2    0    0 -0.24369954026E+01 -0.50187104596E+01 -0.43040641249E+02  0.47787271891E+02  0.20000003858E+02 0.  0.
        -12    1    1    2    0    0  0.24369954026E+01  0.50187104596E+01  0.43040641249E+02  0.43400728109E+02  0.00000000000E+00 0.  1.
         11    1    3    3    0    0 -0.68417341436E+01 -0.79381181415E+01 -0.23407707349E+02  0.25646516514E+02  0.51100000000E-03 0.  1.
        -11    1    3    3    0    0  0.68778245275E+01  0.10091993910E+01 -0.15231686728E+02  0.16742975676E+02  0.51100000000E-03 0. -1.
         12    1    3    3    0    0 -0.24730857865E+01  0.19102082909E+01 -0.44012471729E+01  0.53977797009E+01  0.00000000000E+00 0. -1.
</event>
<event>
 7    1  0.2430096E-009  0.4778727E+02  0.7816164E-02  0.1312668E+00
        -11   -1    0    0    0    0  0.00000000000E+00  0.00000000000E+00  0.45593999997E+02  0.45594000000E+02  0.51100000000E-03 0.  1.
         11   -1    0    0    0    0 -0.00000000000E+00 -0.00000000000E+00 -0.45593999997E+02  0.45594000000E+02  0.51100000000E-03 0. -1.
    9900012    2    1    2    0    0  0.31595437792E+02 -0.19980221531E+02 -0.22048635936E+02  0.47787270877E+02  0.19999999239E+02 0.  0.
        -12    1    1    2    0    0 -0.31595437792E+02  0.19980221531E+02  0.22048635936E+02  0.43400729123E+02  0.00000000000E+00 0.  1.
         11    1    3    3    0    0  0.25188383705E+02 -0.14020010436E+02 -0.15802033703E+02  0.32874300536E+02  0.51100000000E-03 0. -1.
        -11    1    3    3    0    0 -0.27154402795E+01 -0.18492056971E+00 -0.91528941723E+00  0.28715094475E+01  0.51100000000E-03 0.  1.
        -12    1    3    3    0    0  0.91224943667E+01 -0.57752905250E+01 -0.53313128160E+01  0.12041460894E+02  0.00000000000E+00 0.  1.
</event>
<event>
 7    1  0.2430096E-009  0.4778727E+02  0.7816164E-02  0.1312668E+00
        -11   -1    0    0    0    0  0.00000000000E+00  0.00000000000E+00  0.45593999997E+02  0.45594000000E+02  0.51100000000E-03 0.  1.
         11   -1    0    0    0    0 -0.00000000000E+00 -0.00000000000E+00 -0.45593999997E+02  0.45594000000E+02  0.51100000000E-03 0. -1.
    9900012    2    1    2    0    0  0.20260504108E+01 -0.36100927603E+02 -0.24005031966E+02  0.47787269433E+02  0.19999992654E+02 0.  0.
        -12    1    1    2    0    0 -0.20260504108E+01  0.36100927603E+02  0.24005031966E+02  0.43400730567E+02  0.00000000000E+00 0.  1.
         11    1    3    3    0    0  0.52300222171E+01 -0.22745261715E+02 -0.72009548328E+01  0.24424451143E+02  0.51100000000E-03 0. -1.
        -11    1    3    3    0    0  0.11609550473E+01  0.60342228121E+00 -0.36291805020E+00  0.13578088391E+01  0.51100000000E-03 0.  1.
         12    1    3    3    0    0 -0.43649268536E+01 -0.13959088169E+02 -0.16441159083E+02  0.22005009451E+02  0.00000000000E+00 0. -1.
</event>
<event>
 7    1  0.2430096E-009  0.4778727E+02  0.7816164E-02  0.1312668E+00
        -11   -1    0    0    0    0  0.00000000000E+00  0.00000000000E+00  0.45593999997E+02  0.45594000000E+02  0.51100000000E-03 0. -1.
         11   -1    0    0    0    0 -0.00000000000E+00 -0.00000000000E+00 -0.45593999997E+02  0.45594000000E+02  0.51100000000E-03 0.  1.
    9900012    2    1    2    0    0  0.18476270608E+01 -0.32053786649E+02  0.29202127175E+02  0.47787271944E+02  0.20000004099E+02 0.  0.
        -12    1    1    2    0    0 -0.18476270608E+01  0.32053786649E+02 -0.29202127175E+02  0.43400728056E+02  0.00000000000E+00 0.  1.
         11    1    3    3    0    0  0.32147529753E+01 -0.34944147370E+01  0.13511678587E+02  0.14321697858E+02  0.51100000000E-03 0. -1.
        -11    1    3    3    0    0  0.23137509874E+01 -0.32927265465E+01  0.20167307595E+01  0.45014103300E+01  0.51100000000E-03 0.  1.
         12    1    3    3    0    0 -0.36808769019E+01 -0.25266645365E+02  0.13673717828E+02  0.28964163755E+02  0.00000000000E+00 0. -1.
</event>
<event>
 7    1  0.2430096E-009  0.4778727E+02  0.7816164E-02  0.1312668E+00
        -11   -1    0    0    0    0  0.00000000000E+00  0.00000000000E+00  0.45593999997E+02  0.45594000000E+02  0.51100000000E-03 0.  1.
         11   -1    0    0    0    0 -0.00000000000E+00 -0.00000000000E+00 -0.45593999997E+02  0.45594000000E+02  0.51100000000E-03 0. -1.
    9900012    2    1    2    0    0 -0.96417239908E+01  0.20656683833E+02 -0.36931859683E+02  0.47787266272E+02  0.19999978240E+02 0.  0.
        -12    1    1    2    0    0  0.96417239908E+01 -0.20656683833E+02  0.36931859683E+02  0.43400733728E+02  0.00000000000E+00 0.  1.
         11    1    3    3    0    0 -0.67542810725E+01  0.10215498196E+02 -0.26496599836E+02  0.29189835891E+02  0.51100000000E-03 0. -1.
        -11    1    3    3    0    0  0.14062363030E-01 -0.66524130502E+00  0.17406576412E+01  0.18635002090E+01  0.51100000000E-03 0.  1.
        -12    1    3    3    0    0 -0.29015052813E+01  0.11106426942E+02 -0.12175917488E+02  0.16733930172E+02  0.00000000000E+00 0.  1.
</event>
<event>
 7    1  0.2430096E-009  0.4778727E+02  0.7816164E-02  0.1312668E+00
        -11   -1    0    0    0    0  0.00000000000E+00  0.00000000000E+00  0.45593999997E+02  0.45594000000E+02  0.51100000000E-03 0.  1.
         11   -1    0    0    0    0 -0.00000000000E+00 -0.00000000000E+00 -0.45593999997E+02  0.45594000000E+02  0.51100000000E-03 0. -1.
    9900012    2    1    2    0    0 -0.43059279206E+02 -0.63404945101E+00 -0.53962513219E+01  0.47787273361E+02  0.20000010562E+02 0.  0.
        -12    1    1    2    0    0  0.43059279206E+02  0.63404945101E+00  0.53962513219E+01  0.43400726639E+02  0.00000000000E+00 0.  1.
         11    1    3    3    0    0 -0.33463986256E+02  0.23456213137E+01 -0.55299288006E+01  0.33998829808E+02  0.51100000000E-03 0. -1.
        -11    1    3    3    0    0 -0.65323145788E+01  0.23642324938E+01 -0.20664514445E+01  0.72478238717E+01  0.51100000000E-03 0.  1.
         12    1    3    3    0    0 -0.30629783712E+01 -0.53439032585E+01  0.22001289232E+01  0.65406196815E+01  0.00000000000E+00 0. -1.
</event>
<event>
 7    1  0.2430096E-009  0.4778728E+02  0.7816164E-02  0.1312668E+00
        -11   -1    0    0    0    0  0.00000000000E+00  0.00000000000E+00  0.45593999997E+02  0.45594000000E+02  0.51100000000E-03 0.  1.
         11   -1    0    0    0    0 -0.00000000000E+00 -0.00000000000E+00 -0.45593999997E+02  0.45594000000E+02  0.51100000000E-03 0. -1.
    9900012    2    1    2    0    0  0.13304791811E+01  0.28616783495E+02 -0.32602644839E+02  0.47787275088E+02  0.20000018434E+02 0.  0.
        -12    1    1    2    0    0 -0.13304791811E+01 -0.28616783495E+02  0.32602644839E+02  0.43400724912E+02  0.00000000000E+00 0.  1.
         11    1    3    3    0    0  0.34391742985E+00  0.95072264126E+01 -0.73156891763E+01  0.12001039190E+02  0.51100000000E-03 0. -1.
        -11    1    3    3    0    0  0.25048834809E+01  0.20298791062E+02 -0.26524848402E+02  0.33494521088E+02  0.51100000000E-03 0.  1.
        -12    1    3    3    0    0 -0.15183217296E+01 -0.11892339802E+01  0.12378927400E+01  0.22917148099E+01  0.00000000000E+00 0.  1.
</event>
<event>
 7    1  0.2430096E-009  0.4778727E+02  0.7816164E-02  0.1312668E+00
        -11   -1    0    0    0    0  0.00000000000E+00  0.00000000000E+00  0.45593999997E+02  0.45594000000E+02  0.51100000000E-03 0.  1.
         11   -1    0    0    0    0 -0.00000000000E+00 -0.00000000000E+00 -0.45593999997E+02  0.45594000000E+02  0.51100000000E-03 0. -1.
    9900012    2    1    2    0    0  0.15130235509E+02 -0.10346505286E+02 -0.39340172340E+02  0.47787270076E+02  0.19999995586E+02 0.  0.
        -12    1    1    2    0    0 -0.15130235509E+02  0.10346505286E+02  0.39340172340E+02  0.43400729924E+02  0.00000000000E+00 0.  1.
         11    1    3    3    0    0 -0.34158107388E+01 -0.13594129440E+01 -0.15268320265E+01  0.39808269058E+01  0.51100000000E-03 0.  1.
        -11    1    3    3    0    0 -0.95242723149E-01  0.40816329987E-03 -0.50736398466E+01  0.50745337616E+01  0.51100000000E-03 0. -1.
         12    1    3    3    0    0  0.18641288971E+02 -0.89875005050E+01 -0.32739700466E+02  0.38731909409E+02  0.00000000000E+00 0. -1.
</event>
<event>
 7    1  0.2430096E-009  0.4778731E+02  0.7816164E-02  0.1312668E+00
        -11   -1    0    0    0    0  0.00000000000E+00  0.00000000000E+00  0.45593999997E+02  0.45594000000E+02  0.51100000000E-03 0.  1.
         11   -1    0    0    0    0 -0.00000000000E+00 -0.00000000000E+00 -0.45593999997E+02  0.45594000000E+02  0.51100000000E-03 0. -1.
    9900012    2    1    2    0    0  0.27780985664E+02 -0.19577656439E+02 -0.26991698148E+02  0.47787313773E+02  0.20000194816E+02 0.  0.
        -12    1    1    2    0    0 -0.27780985664E+02  0.19577656439E+02  0.26991698148E+02  0.43400686227E+02  0.00000000000E+00 0.  1.
         11    1    3    3    0    0  0.62295929532E+01 -0.16026259198E+02 -0.14686272565E+02  0.22612726823E+02  0.51100000000E-03 0. -1.
        -11    1    3    3    0    0  0.12721586239E+02 -0.25772810032E+01 -0.61238375623E+01  0.14352091156E+02  0.51100000000E-03 0.  1.
         12    1    3    3    0    0  0.88298064713E+01 -0.97411623792E+00 -0.61815880200E+01  0.10822495794E+02  0.00000000000E+00 0. -1.
</event>
<event>
 7    1  0.2430096E-009  0.4778726E+02  0.7816164E-02  0.1312668E+00
        -11   -1    0    0    0    0  0.00000000000E+00  0.00000000000E+00  0.45593999997E+02  0.45594000000E+02  0.51100000000E-03 0.  1.
         11   -1    0    0    0    0 -0.00000000000E+00 -0.00000000000E+00 -0.45593999997E+02  0.45594000000E+02  0.51100000000E-03 0. -1.
    9900012    2    1    2    0    0 -0.95676594264E+01  0.42007834538E+02 -0.52370007633E+01  0.47787257536E+02  0.19999938408E+02 0.  0.
        -12    1    1    2    0    0  0.95676594264E+01 -0.42007834538E+02  0.52370007633E+01  0.43400742464E+02  0.00000000000E+00 0.  1.
         11    1    3    3    0    0 -0.11154382347E+02  0.22494763634E+02 -0.43754214322E-01  0.25108495598E+02  0.51100000000E-03 0. -1.
        -11    1    3    3    0    0 -0.13845875097E+01  0.55281383889E+01  0.27451721082E+01  0.63256119691E+01  0.51100000000E-03 0.  1.
         12    1    3    3    0    0  0.29713104302E+01  0.13984932515E+02 -0.79384186572E+01  0.16353149969E+02  0.00000000000E+00 0. -1.
</event>
<event>
 7    1  0.2430096E-009  0.4778727E+02  0.7816164E-02  0.1312668E+00
        -11   -1    0    0    0    0  0.00000000000E+00  0.00000000000E+00  0.45593999997E+02  0.45594000000E+02  0.51100000000E-03 0.  1.
         11   -1    0    0    0    0 -0.00000000000E+00 -0.00000000000E+00 -0.45593999997E+02  0.45594000000E+02  0.51100000000E-03 0. -1.
    9900012    2    1    2    0    0  0.35026343843E+02  0.19081787978E+01 -0.25556549254E+02  0.47787272827E+02  0.20000008128E+02 0.  0.
        -12    1    1    2    0    0 -0.35026343843E+02 -0.19081787978E+01  0.25556549254E+02  0.43400727173E+02  0.00000000000E+00 0.  1.
         11    1    3    3    0    0  0.20340736606E+02  0.70669535325E+01 -0.18260503849E+02  0.28233550945E+02  0.51100000000E-03 0. -1.
        -11    1    3    3    0    0  0.88763220849E+01 -0.35903803179E+01  0.63774402186E+00  0.95961785248E+01  0.51100000000E-03 0.  1.
         12    1    3    3    0    0  0.58092851519E+01 -0.15683944169E+01 -0.79337894278E+01  0.99575433571E+01  0.00000000000E+00 0. -1.
</event>
<event>
 7    1  0.2430096E-009  0.4778727E+02  0.7816164E-02  0.1312668E+00
        -11   -1    0    0    0    0  0.00000000000E+00  0.00000000000E+00  0.45593999997E+02  0.45594000000E+02  0.51100000000E-03 0.  1.
         11   -1    0    0    0    0 -0.00000000000E+00 -0.00000000000E+00 -0.45593999997E+02  0.45594000000E+02  0.51100000000E-03 0. -1.
    9900012    2    1    2    0    0 -0.35747165986E+02  0.19025064862E+02 -0.15614419143E+02  0.47787273575E+02  0.20000011537E+02 0.  0.
        -12    1    1    2    0    0  0.35747165986E+02 -0.19025064862E+02  0.15614419143E+02  0.43400726425E+02  0.00000000000E+00 0.  1.
         11    1    3    3    0    0 -0.19717471172E+02  0.13852146519E+02 -0.15266151752E+02  0.28525708092E+02  0.51100000000E-03 0. -1.
        -11    1    3    3    0    0  0.77899698156E+00  0.15534481564E+01 -0.10903953771E+01  0.20515847074E+01  0.51100000000E-03 0.  1.
         12    1    3    3    0    0 -0.16808691796E+02  0.36194701866E+01  0.74212798666E+00  0.17209980775E+02  0.00000000000E+00 0. -1.
</event>
<event>
 7    1  0.2430096E-009  0.4778727E+02  0.7816164E-02  0.1312668E+00
        -11   -1    0    0    0    0  0.00000000000E+00  0.00000000000E+00  0.45593999997E+02  0.45594000000E+02  0.51100000000E-03 0.  1.
         11   -1    0    0    0    0 -0.00000000000E+00 -0.00000000000E+00 -0.45593999997E+02  0.45594000000E+02  0.51100000000E-03 0. -1.
    9900012    2    1    2    0    0  0.20693580192E+02  0.38148432238E+02 -0.31080080298E+00  0.47787265669E+02  0.19999975490E+02 0.  0.
        -12    1    1    2    0    0 -0.20693580192E+02 -0.38148432238E+02  0.31080080298E+00  0.43400734331E+02  0.00000000000E+00 0.  1.
         11    1    3    3    0    0  0.61721071896E+01  0.27063281246E+02 -0.14956301516E+01  0.27798435365E+02  0.51100000000E-03 0. -1.
        -11    1    3    3    0    0  0.12641805049E+02  0.64175125882E+01 -0.15497429398E+01  0.14261886486E+02  0.51100000000E-03 0.  1.
        -12    1    3    3    0    0  0.18796679539E+01  0.46676384035E+01  0.27345722884E+01  0.57269438170E+01  0.00000000000E+00 0.  1.
</event>
<event>
 7    1  0.2430096E-009  0.4778726E+02  0.7816164E-02  0.1312668E+00
        -11   -1    0    0    0    0  0.00000000000E+00  0.00000000000E+00  0.45593999997E+02  0.45594000000E+02  0.51100000000E-03 0.  1.
         11   -1    0    0    0    0 -0.00000000000E+00 -0.00000000000E+00 -0.45593999997E+02  0.45594000000E+02  0.51100000000E-03 0. -1.
    9900012    2    1    2    0    0 -0.12490597883E+02  0.33921222904E+02 -0.24019979722E+02  0.47787264699E+02  0.19999971069E+02 0.  0.
        -12    1    1    2    0    0  0.12490597883E+02 -0.33921222904E+02  0.24019979722E+02  0.43400735301E+02  0.00000000000E+00 0.  1.
         11    1    3    3    0    0 -0.46711056099E+01  0.11113599973E+02 -0.16218454074E+02  0.20208156393E+02  0.51100000000E-03 0. -1.
        -11    1    3    3    0    0 -0.74586478783E+01  0.15146436016E+02 -0.35183866764E+00  0.16886969618E+02  0.51100000000E-03 0.  1.
        -12    1    3    3    0    0 -0.36084439479E+00  0.76611869147E+01 -0.74496869809E+01  0.10692138688E+02  0.00000000000E+00 0.  1.
</event>
<event>
 7    1  0.2430096E-009  0.4778727E+02  0.7816164E-02  0.1312668E+00
        -11   -1    0    0    0    0  0.00000000000E+00  0.00000000000E+00  0.45593999997E+02  0.45594000000E+02  0.51100000000E-03 0.  1.
         11   -1    0    0    0    0 -0.00000000000E+00 -0.00000000000E+00 -0.45593999997E+02  0.45594000000E+02  0.51100000000E-03 0. -1.
    9900012    2    1    2    0    0 -0.69677295254E+01  0.39593386900E+02 -0.16353521832E+02  0.47787271697E+02  0.20000002975E+02 0.  0.
        -12    1    1    2    0    0  0.69677295254E+01 -0.39593386900E+02  0.16353521832E+02  0.43400728303E+02  0.00000000000E+00 0.  1.
         11    1    3    3    0    0  0.88437322757E+00  0.44930910695E+01 -0.71659565351E+01  0.85041705468E+01  0.51100000000E-03 0.  1.
        -11    1    3    3    0    0 -0.66706579794E+01  0.35642407034E+02 -0.10162306258E+02  0.37658350015E+02  0.51100000000E-03 0. -1.
        -12    1    3    3    0    0 -0.11814447735E+01 -0.54211120401E+00  0.97474096154E+00  0.16247511356E+01  0.00000000000E+00 0.  1.
</event>
<event>
 7    1  0.2430096E-009  0.4778727E+02  0.7816164E-02  0.1312668E+00
        -11   -1    0    0    0    0  0.00000000000E+00  0.00000000000E+00  0.45593999997E+02  0.45594000000E+02  0.51100000000E-03 0.  1.
         11   -1    0    0    0    0 -0.00000000000E+00 -0.00000000000E+00 -0.45593999997E+02  0.45594000000E+02  0.51100000000E-03 0. -1.
    9900012    2    1    2    0    0  0.21313466405E+02  0.35650937853E+02 -0.12584505060E+02  0.47787274342E+02  0.20000015035E+02 0.  0.
        -12    1    1    2    0    0 -0.21313466405E+02 -0.35650937853E+02  0.12584505060E+02  0.43400725658E+02  0.00000000000E+00 0.  1.
         11    1    3    3    0    0  0.16981943324E+01 -0.18590963405E+01  0.67808161084E+00  0.26076614285E+01  0.51100000000E-03 0. -1.
        -11    1    3    3    0    0  0.81107977768E+01  0.22534125990E+02 -0.45316512079E+01  0.24374325378E+02  0.51100000000E-03 0.  1.
         12    1    3    3    0    0  0.11504474296E+02  0.14975908204E+02 -0.87309354632E+01  0.20805287535E+02  0.00000000000E+00 0. -1.
</event>
<event>
 7    1  0.2430096E-009  0.4778727E+02  0.7816164E-02  0.1312668E+00
        -11   -1    0    0    0    0  0.00000000000E+00  0.00000000000E+00  0.45593999997E+02  0.45594000000E+02  0.51100000000E-03 0.  1.
         11   -1    0    0    0    0 -0.00000000000E+00 -0.00000000000E+00 -0.45593999997E+02  0.45594000000E+02  0.51100000000E-03 0. -1.
    9900012    2    1    2    0    0 -0.11334704917E+02 -0.41460263921E+02  0.60161636928E+01  0.47787271371E+02  0.20000001490E+02 0.  0.
        -12    1    1    2    0    0  0.11334704917E+02  0.41460263921E+02 -0.60161636928E+01  0.43400728629E+02  0.00000000000E+00 0.  1.
         11    1    3    3    0    0 -0.85150872936E+01 -0.28016855148E+02  0.87811675167E+01  0.30570570607E+02  0.51100000000E-03 0. -1.
        -11    1    3    3    0    0 -0.20578652899E+01 -0.82161567365E+01  0.33745252192E+01  0.91174262698E+01  0.51100000000E-03 0.  1.
         12    1    3    3    0    0 -0.76175233386E+00 -0.52272520362E+01 -0.61395290432E+01  0.80992744947E+01  0.00000000000E+00 0. -1.
</event>
<event>
 7    1  0.2430096E-009  0.4778728E+02  0.7816164E-02  0.1312668E+00
        -11   -1    0    0    0    0  0.00000000000E+00  0.00000000000E+00  0.45593999997E+02  0.45594000000E+02  0.51100000000E-03 0. -1.
         11   -1    0    0    0    0 -0.00000000000E+00 -0.00000000000E+00 -0.45593999997E+02  0.45594000000E+02  0.51100000000E-03 0.  1.
    9900012    2    1    2    0    0  0.37923595938E+02 -0.21028862137E+02  0.17917787955E+01  0.47787278313E+02  0.20000033141E+02 0.  0.
        -12    1    1    2    0    0 -0.37923595938E+02  0.21028862137E+02 -0.17917787955E+01  0.43400721687E+02  0.00000000000E+00 0.  1.
         11    1    3    3    0    0  0.90806809361E+01  0.76441146742E-01  0.60143777687E+01  0.10892077383E+02  0.51100000000E-03 0. -1.
        -11    1    3    3    0    0  0.22994031681E+02 -0.20133719088E+02 -0.48022534922E+01  0.30937901935E+02  0.51100000000E-03 0.  1.
        -12    1    3    3    0    0  0.58488833209E+01 -0.97158419581E+00  0.57965451890E+00  0.59572989947E+01  0.00000000000E+00 0.  1.
</event>
<event>
 7    1  0.2430096E-009  0.4778727E+02  0.7816164E-02  0.1312668E+00
        -11   -1    0    0    0    0  0.00000000000E+00  0.00000000000E+00  0.45593999997E+02  0.45594000000E+02  0.51100000000E-03 0.  1.
         11   -1    0    0    0    0 -0.00000000000E+00 -0.00000000000E+00 -0.45593999997E+02  0.45594000000E+02  0.51100000000E-03 0. -1.
    9900012    2    1    2    0    0  0.10336499609E+02 -0.33463302508E+02 -0.25631772561E+02  0.47787267247E+02  0.19999982686E+02 0.  0.
        -12    1    1    2    0    0 -0.10336499609E+02  0.33463302508E+02  0.25631772561E+02  0.43400732753E+02  0.00000000000E+00 0.  1.
         11    1    3    3    0    0  0.96485047643E+01 -0.22278809590E+02 -0.13224044760E+02  0.27646235928E+02  0.51100000000E-03 0. -1.
        -11    1    3    3    0    0  0.12158377164E+01 -0.46891122140E+01 -0.12725670449E+02  0.13616487188E+02  0.51100000000E-03 0.  1.
        -12    1    3    3    0    0 -0.52784287192E+00 -0.64953807037E+01  0.31794264804E+00  0.65245441305E+01  0.00000000000E+00 0.  1.
</event>
<event>
 7    1  0.2430096E-009  0.4778732E+02  0.7816164E-02  0.1312668E+00
        -11   -1    0    0    0    0  0.00000000000E+00  0.00000000000E+00  0.45593999997E+02  0.45594000000E+02  0.51100000000E-03 0.  1.
         11   -1    0    0    0    0 -0.00000000000E+00 -0.00000000000E+00 -0.45593999997E+02  0.45594000000E+02  0.51100000000E-03 0. -1.
    9900012    2    1    2    0    0 -0.40593658845E+02 -0.76748357902E+01  0.13299278672E+02  0.47787319637E+02  0.20000221550E+02 0.  0.
        -12    1    1    2    0    0  0.40593658845E+02  0.76748357902E+01 -0.13299278672E+02  0.43400680363E+02  0.00000000000E+00 0.  1.
         11    1    3    3    0    0 -0.21254946607E+02 -0.29941302609E+01  0.15584509927E+02  0.26525733189E+02  0.51100000000E-03 0. -1.
        -11    1    3    3    0    0 -0.56942000205E+01 -0.47591016128E+01 -0.16484606528E+01  0.76019987384E+01  0.51100000000E-03 0.  1.
         12    1    3    3    0    0 -0.13644512217E+02  0.78396083512E-01 -0.63677060211E+00  0.13659587709E+02  0.00000000000E+00 0. -1.
</event>
<event>
 7    1  0.2430096E-009  0.4778733E+02  0.7816164E-02  0.1312667E+00
        -11   -1    0    0    0    0  0.00000000000E+00  0.00000000000E+00  0.45593999997E+02  0.45594000000E+02  0.51100000000E-03 0. -1.
         11   -1    0    0    0    0 -0.00000000000E+00 -0.00000000000E+00 -0.45593999997E+02  0.45594000000E+02  0.51100000000E-03 0.  1.
    9900012    2    1    2    0    0 -0.13507294041E+02 -0.33716258204E+02  0.23756789120E+02  0.47787330778E+02  0.20000272348E+02 0.  0.
        -12    1    1    2    0    0  0.13507294041E+02  0.33716258204E+02 -0.23756789120E+02  0.43400669222E+02  0.00000000000E+00 0.  1.
         11    1    3    3    0    0 -0.42813979067E+01 -0.11723176834E+02 -0.11433925209E+01  0.12532780611E+02  0.51100000000E-03 0. -1.
        -11    1    3    3    0    0 -0.11340752287E+01 -0.81932196573E+01  0.12612456837E+02  0.15082739894E+02  0.51100000000E-03 0.  1.
         12    1    3    3    0    0 -0.80918209051E+01 -0.13799861713E+02  0.12287724804E+02  0.20171810274E+02  0.00000000000E+00 0. -1.
</event>
<event>
 7    1  0.2430096E-009  0.4778724E+02  0.7816164E-02  0.1312668E+00
        -11   -1    0    0    0    0  0.00000000000E+00  0.00000000000E+00  0.45593999997E+02  0.45594000000E+02  0.51100000000E-03 0.  1.
         11   -1    0    0    0    0 -0.00000000000E+00 -0.00000000000E+00 -0.45593999997E+02  0.45594000000E+02  0.51100000000E-03 0. -1.
    9900012    2    1    2    0    0  0.23655405927E+02  0.72899893124E+01 -0.35649739666E+02  0.47787238348E+02  0.19999850921E+02 0.  0.
        -12    1    1    2    0    0 -0.23655405927E+02 -0.72899893124E+01  0.35649739666E+02  0.43400761652E+02  0.00000000000E+00 0.  1.
         11    1    3    3    0    0  0.19016329153E+02  0.84674636622E+01 -0.23918271667E+02  0.31708081543E+02  0.51100000000E-03 0. -1.
        -11    1    3    3    0    0  0.10955417499E+01 -0.53293609493E+01 -0.47923354128E+01  0.72504330094E+01  0.51100000000E-03 0.  1.
        -12    1    3    3    0    0  0.35435350234E+01  0.41518865996E+01 -0.69391325870E+01  0.88287237955E+01  0.00000000000E+00 0.  1.
</event>
<event>
 7    1  0.2430096E-009  0.4778727E+02  0.7816164E-02  0.1312668E+00
        -11   -1    0    0    0    0  0.00000000000E+00  0.00000000000E+00  0.45593999997E+02  0.45594000000E+02  0.51100000000E-03 0. -1.
         11   -1    0    0    0    0 -0.00000000000E+00 -0.00000000000E+00 -0.45593999997E+02  0.45594000000E+02  0.51100000000E-03 0.  1.
    9900012    2    1    2    0    0  0.15582675686E+02 -0.23116251788E+02  0.33263230287E+02  0.47787269967E+02  0.19999995089E+02 0.  0.
        -12    1    1    2    0    0 -0.15582675686E+02  0.23116251788E+02 -0.33263230287E+02  0.43400730033E+02  0.00000000000E+00 0.  1.
         11    1    3    3    0    0  0.87193164577E+00 -0.96893008390E+01  0.19115682138E+02  0.21448825595E+02  0.51100000000E-03 0. -1.
        -11    1    3    3    0    0  0.10278917046E+02 -0.14286648566E+02  0.10204352601E+02  0.20344367160E+02  0.51100000000E-03 0.  1.
        -12    1    3    3    0    0  0.44318269943E+01  0.85969761676E+00  0.39431955478E+01  0.59940772124E+01  0.00000000000E+00 0.  1.
</event>
<event>
 7    1  0.2430096E-009  0.4778727E+02  0.7816164E-02  0.1312668E+00
        -11   -1    0    0    0    0  0.00000000000E+00  0.00000000000E+00  0.45593999997E+02  0.45594000000E+02  0.51100000000E-03 0.  1.
         11   -1    0    0    0    0 -0.00000000000E+00 -0.00000000000E+00 -0.45593999997E+02  0.45594000000E+02  0.51100000000E-03 0. -1.
    9900012    2    1    2    0    0 -0.38388920156E+02  0.12120480857E+02 -0.16217512926E+02  0.47787274517E+02  0.20000015831E+02 0.  0.
        -12    1    1    2    0    0  0.38388920156E+02 -0.12120480857E+02  0.16217512926E+02  0.43400725483E+02  0.00000000000E+00 0.  1.
         11    1    3    3    0    0 -0.31407321286E+02  0.12997158637E+02 -0.96320992099E+01  0.35328788522E+02  0.51100000000E-03 0. -1.
        -11    1    3    3    0    0 -0.23287810836E+01  0.21525730396E+01  0.75011762121E+00  0.32587526345E+01  0.51100000000E-03 0.  1.
         12    1    3    3    0    0 -0.46528177869E+01 -0.30292508198E+01 -0.73355313376E+01  0.91997333598E+01  0.00000000000E+00 0. -1.
</event>
<event>
 7    1  0.2430096E-009  0.4778727E+02  0.7816164E-02  0.1312668E+00
        -11   -1    0    0    0    0  0.00000000000E+00  0.00000000000E+00  0.45593999997E+02  0.45594000000E+02  0.51100000000E-03 0. -1.
         11   -1    0    0    0    0 -0.00000000000E+00 -0.00000000000E+00 -0.45593999997E+02  0.45594000000E+02  0.51100000000E-03 0.  1.
    9900012    2    1    2    0    0  0.22243624944E+02  0.15585113686E+02  0.33851865169E+02  0.47787269653E+02  0.19999993655E+02 0.  0.
        -12    1    1    2    0    0 -0.22243624944E+02 -0.15585113686E+02 -0.33851865169E+02  0.43400730347E+02  0.00000000000E+00 0.  1.
         11    1    3    3    0    0  0.57512119348E+01  0.13718293305E+02  0.18274818998E+02  0.23563467902E+02  0.51100000000E-03 0. -1.
        -11    1    3    3    0    0  0.12453281900E+02 -0.23917549981E+01  0.10534945499E+02  0.16486048616E+02  0.51100000000E-03 0.  1.
        -12    1    3    3    0    0  0.40391311092E+01  0.42585753793E+01  0.50421006722E+01  0.77377531343E+01  0.00000000000E+00 0.  1.
</event>
<event>
 7    1  0.2430096E-009  0.4778727E+02  0.7816164E-02  0.1312668E+00
        -11   -1    0    0    0    0  0.00000000000E+00  0.00000000000E+00  0.45593999997E+02  0.45594000000E+02  0.51100000000E-03 0.  1.
         11   -1    0    0    0    0 -0.00000000000E+00 -0.00000000000E+00 -0.45593999997E+02  0.45594000000E+02  0.51100000000E-03 0. -1.
    9900012    2    1    2    0    0  0.38130210596E+01 -0.27194478812E+02 -0.33608695099E+02  0.47787271968E+02  0.20000004212E+02 0.  0.
        -12    1    1    2    0    0 -0.38130210596E+01  0.27194478812E+02  0.33608695099E+02  0.43400728032E+02  0.00000000000E+00 0.  1.
         11    1    3    3    0    0 -0.47548864242E+01 -0.10542788536E+02 -0.18071061117E+02  0.21455129577E+02  0.51100000000E-03 0. -1.
        -11    1    3    3    0    0  0.81871110691E+01 -0.16571049101E+02 -0.16820729055E+02  0.24991306131E+02  0.51100000000E-03 0.  1.
         12    1    3    3    0    0  0.38079641465E+00 -0.80641174570E-01  0.12830950729E+01  0.13408362594E+01  0.00000000000E+00 0. -1.
</event>
<event>
 7    1  0.2430096E-009  0.4778727E+02  0.7816164E-02  0.1312668E+00
        -11   -1    0    0    0    0  0.00000000000E+00  0.00000000000E+00  0.45593999997E+02  0.45594000000E+02  0.51100000000E-03 0.  1.
         11   -1    0    0    0    0 -0.00000000000E+00 -0.00000000000E+00 -0.45593999997E+02  0.45594000000E+02  0.51100000000E-03 0. -1.
    9900012    2    1    2    0    0 -0.10383822454E+02  0.16238540017E+01 -0.42108937540E+02  0.47787270843E+02  0.19999999084E+02 0.  0.
        -12    1    1    2    0    0  0.10383822454E+02 -0.16238540017E+01  0.42108937540E+02  0.43400729157E+02  0.00000000000E+00 0.  1.
         11    1    3    3    0    0 -0.90771467579E+01 -0.19689481625E+01 -0.20119793819E+02  0.22160267456E+02  0.51100000000E-03 0. -1.
        -11    1    3    3    0    0  0.34971820848E+01  0.66061834223E+01 -0.11877499081E+02  0.14033778060E+02  0.51100000000E-03 0.  1.
        -12    1    3    3    0    0 -0.48038577806E+01 -0.30133812581E+01 -0.10111644640E+02  0.11593225328E+02  0.00000000000E+00 0.  1.
</event>
<event>
 7    1  0.2430096E-009  0.4778727E+02  0.7816164E-02  0.1312668E+00
        -11   -1    0    0    0    0  0.00000000000E+00  0.00000000000E+00  0.45593999997E+02  0.45594000000E+02  0.51100000000E-03 0.  1.
         11   -1    0    0    0    0 -0.00000000000E+00 -0.00000000000E+00 -0.45593999997E+02  0.45594000000E+02  0.51100000000E-03 0. -1.
    9900012    2    1    2    0    0  0.43373587383E+02  0.10611355195E+01  0.11085745766E+01  0.47787273869E+02  0.20000012879E+02 0.  0.
        -12    1    1    2    0    0 -0.43373587383E+02 -0.10611355195E+01 -0.11085745766E+01  0.43400726131E+02  0.00000000000E+00 0.  1.
         11    1    3    3    0    0  0.94933504942E+01  0.26733029707E+01  0.10430077663E+01  0.99175661248E+01  0.51100000000E-03 0. -1.
        -11    1    3    3    0    0  0.94219218416E+01  0.41945218419E+01 -0.61055410606E+01  0.11985168191E+02  0.51100000000E-03 0.  1.
        -12    1    3    3    0    0  0.24458315048E+02 -0.58066892931E+01  0.61711078709E+01  0.25884539553E+02  0.00000000000E+00 0.  1.
</event>
<event>
 7    1  0.2430096E-009  0.4778727E+02  0.7816164E-02  0.1312668E+00
        -11   -1    0    0    0    0  0.00000000000E+00  0.00000000000E+00  0.45593999997E+02  0.45594000000E+02  0.51100000000E-03 0. -1.
         11   -1    0    0    0    0 -0.00000000000E+00 -0.00000000000E+00 -0.45593999997E+02  0.45594000000E+02  0.51100000000E-03 0.  1.
    9900012    2    1    2    0    0 -0.42233037009E+02 -0.97665051121E+01  0.21469172069E+01  0.47787270852E+02  0.19999999121E+02 0.  0.
        -12    1    1    2    0    0  0.42233037009E+02  0.97665051121E+01 -0.21469172069E+01  0.43400729148E+02  0.00000000000E+00 0.  1.
         11    1    3    3    0    0 -0.14214881134E+02 -0.90286783988E+01 -0.13843258522E+00  0.16840399138E+02  0.51100000000E-03 0. -1.
        -11    1    3    3    0    0 -0.59845567610E+01  0.52120877823E+01 -0.51585795089E+00  0.79527912309E+01  0.51100000000E-03 0.  1.
        -12    1    3    3    0    0 -0.22033599114E+02 -0.59499144956E+01  0.28012077430E+01  0.22994080483E+02  0.00000000000E+00 0.  1.
</event>
<event>
 7    1  0.2430096E-009  0.4778728E+02  0.7816164E-02  0.1312668E+00
        -11   -1    0    0    0    0  0.00000000000E+00  0.00000000000E+00  0.45593999997E+02  0.45594000000E+02  0.51100000000E-03 0.  1.
         11   -1    0    0    0    0 -0.00000000000E+00 -0.00000000000E+00 -0.45593999997E+02  0.45594000000E+02  0.51100000000E-03 0. -1.
    9900012    2    1    2    0    0  0.36981916813E+02  0.74837158159E+01 -0.21446555274E+02  0.47787275275E+02  0.20000019288E+02 0.  0.
        -12    1    1    2    0    0 -0.36981916813E+02 -0.74837158159E+01  0.21446555274E+02  0.43400724725E+02  0.00000000000E+00 0.  1.
         11    1    3    3    0    0  0.15629327552E+02  0.83907507534E+01 -0.14233040728E+02  0.22743351260E+02  0.51100000000E-03 0. -1.
        -11    1    3    3    0    0  0.15746471164E+02 -0.55395727564E+01 -0.54637765897E+01  0.17563914009E+02  0.51100000000E-03 0.  1.
        -12    1    3    3    0    0  0.56061180968E+01  0.46325378188E+01 -0.17497379562E+01  0.74800100049E+01  0.00000000000E+00 0.  1.
</event>
<event>
 7    1  0.2430096E-009  0.4778727E+02  0.7816164E-02  0.1312668E+00
        -11   -1    0    0    0    0  0.00000000000E+00  0.00000000000E+00  0.45593999997E+02  0.45594000000E+02  0.51100000000E-03 0.  1.
         11   -1    0    0    0    0 -0.00000000000E+00 -0.00000000000E+00 -0.45593999997E+02  0.45594000000E+02  0.51100000000E-03 0. -1.
    9900012    2    1    2    0    0  0.32863663438E+02  0.19070283971E+02 -0.20974443080E+02  0.47787269962E+02  0.19999995065E+02 0.  0.
        -12    1    1    2    0    0 -0.32863663438E+02 -0.19070283971E+02  0.20974443080E+02  0.43400730038E+02  0.00000000000E+00 0.  1.
         11    1    3    3    0    0  0.12163239585E+02  0.12260417081E+02 -0.16211349764E+02  0.23686918027E+02  0.51100000000E-03 0. -1.
        -11    1    3    3    0    0 -0.34172987805E+00 -0.54797397871E+00  0.89342513916E+00  0.11023899180E+01  0.51100000000E-03 0.  1.
         12    1    3    3    0    0  0.21042153731E+02  0.73578408687E+01 -0.56565184556E+01  0.22997962017E+02  0.00000000000E+00 0. -1.
</event>
<event>
 7    1  0.2430096E-009  0.4778728E+02  0.7816164E-02  0.1312668E+00
        -11   -1    0    0    0    0  0.00000000000E+00  0.00000000000E+00  0.45593999997E+02  0.45594000000E+02  0.51100000000E-03 0. -1.
         11   -1    0    0    0    0 -0.00000000000E+00 -0.00000000000E+00 -0.45593999997E+02  0.45594000000E+02  0.51100000000E-03 0.  1.
    9900012    2    1    2    0    0  0.12361472817E+01 -0.41355305521E+02  0.13108529330E+02  0.47787275398E+02  0.20000019848E+02 0.  0.
        -12    1    1    2    0    0 -0.12361472817E+01  0.41355305521E+02 -0.13108529330E+02  0.43400724602E+02  0.00000000000E+00 0.  1.
         11    1    3    3    0    0 -0.12342902246E+01 -0.98109830829E+01  0.40939126835E+01  0.10702288668E+02  0.51100000000E-03 0. -1.
        -11    1    3    3    0    0  0.39042275078E+01 -0.12743360208E+02  0.12072832024E+02  0.17983033536E+02  0.51100000000E-03 0.  1.
        -12    1    3    3    0    0 -0.14337900015E+01 -0.18800962229E+02 -0.30582153767E+01  0.19101953194E+02  0.00000000000E+00 0.  1.
</event>
<event>
 7    1  0.2430096E-009  0.4778727E+02  0.7816164E-02  0.1312668E+00
        -11   -1    0    0    0    0  0.00000000000E+00  0.00000000000E+00  0.45593999997E+02  0.45594000000E+02  0.51100000000E-03 0.  1.
         11   -1    0    0    0    0 -0.00000000000E+00 -0.00000000000E+00 -0.45593999997E+02  0.45594000000E+02  0.51100000000E-03 0. -1.
    9900012    2    1    2    0    0 -0.19986054433E+02 -0.24772724572E+02 -0.29504122046E+02  0.47787268759E+02  0.19999989582E+02 0.  0.
        -12    1    1    2    0    0  0.19986054433E+02  0.24772724572E+02  0.29504122046E+02  0.43400731241E+02  0.00000000000E+00 0.  1.
         11    1    3    3    0    0 -0.12529259180E+02 -0.28904595246E+01 -0.96512919336E+01  0.16077454031E+02  0.51100000000E-03 0.  1.
        -11    1    3    3    0    0 -0.15979586197E+01 -0.13971264076E+02 -0.75751412546E+01  0.15972866271E+02  0.51100000000E-03 0. -1.
        -12    1    3    3    0    0 -0.58588366335E+01 -0.79110009714E+01 -0.12277688858E+02  0.15736948458E+02  0.00000000000E+00 0.  1.
</event>
<event>
 7    1  0.2430096E-009  0.4778727E+02  0.7816164E-02  0.1312668E+00
        -11   -1    0    0    0    0  0.00000000000E+00  0.00000000000E+00  0.45593999997E+02  0.45594000000E+02  0.51100000000E-03 0. -1.
         11   -1    0    0    0    0 -0.00000000000E+00 -0.00000000000E+00 -0.45593999997E+02  0.45594000000E+02  0.51100000000E-03 0.  1.
    9900012    2    1    2    0    0 -0.32809368648E+02 -0.17914234499E+02  0.22051051224E+02  0.47787270412E+02  0.19999997116E+02 0.  0.
        -12    1    1    2    0    0  0.32809368648E+02  0.17914234499E+02 -0.22051051224E+02  0.43400729588E+02  0.00000000000E+00 0.  1.
         11    1    3    3    0    0 -0.79111176559E+01 -0.44247110636E+01  0.64212383055E+01  0.11108382069E+02  0.51100000000E-03 0. -1.
        -11    1    3    3    0    0 -0.16394705828E+02  0.45243338572E+00  0.10843067049E+02  0.19661209995E+02  0.51100000000E-03 0.  1.
        -12    1    3    3    0    0 -0.85035451634E+01 -0.13941956821E+02  0.47867458690E+01  0.17017678348E+02  0.00000000000E+00 0.  1.
</event>
<event>
 7    1  0.2430096E-009  0.4778727E+02  0.7816164E-02  0.1312668E+00
        -11   -1    0    0    0    0  0.00000000000E+00  0.00000000000E+00  0.45593999997E+02  0.45594000000E+02  0.51100000000E-03 0. -1.
         11   -1    0    0    0    0 -0.00000000000E+00 -0.00000000000E+00 -0.45593999997E+02  0.45594000000E+02  0.51100000000E-03 0.  1.
    9900012    2    1    2    0    0 -0.10969900782E+02  0.22576959966E+02  0.35405722174E+02  0.47787274117E+02  0.20000014009E+02 0.  0.
        -12    1    1    2    0    0  0.10969900782E+02 -0.22576959966E+02 -0.35405722174E+02  0.43400725883E+02  0.00000000000E+00 0.  1.
         11    1    3    3    0    0  0.14676498397E+01  0.10472664912E+02  0.16985868696E+02  0.20008759133E+02  0.51100000000E-03 0. -1.
        -11    1    3    3    0    0 -0.59114922956E+01  0.79743784364E-01  0.10280149728E+02  0.11858902939E+02  0.51100000000E-03 0.  1.
        -12    1    3    3    0    0 -0.65260583265E+01  0.12024551270E+02  0.81397037501E+01  0.15919612045E+02  0.00000000000E+00 0.  1.
</event>
<event>
 7    1  0.2430096E-009  0.4778727E+02  0.7816164E-02  0.1312668E+00
        -11   -1    0    0    0    0  0.00000000000E+00  0.00000000000E+00  0.45593999997E+02  0.45594000000E+02  0.51100000000E-03 0. -1.
         11   -1    0    0    0    0 -0.00000000000E+00 -0.00000000000E+00 -0.45593999997E+02  0.45594000000E+02  0.51100000000E-03 0.  1.
    9900012    2    1    2    0    0  0.30760091268E+02  0.17174350702E+02  0.25347219938E+02  0.47787273100E+02  0.20000009373E+02 0.  0.
        -12    1    1    2    0    0 -0.30760091268E+02 -0.17174350702E+02 -0.25347219938E+02  0.43400726900E+02  0.00000000000E+00 0.  1.
         11    1    3    3    0    0  0.23240810641E+02  0.14655130277E+02  0.15274991319E+02  0.31436181109E+02  0.51100000000E-03 0. -1.
        -11    1    3    3    0    0 -0.75819758006E-03 -0.14056368579E+01  0.72893071249E+01  0.74235984652E+01  0.51100000000E-03 0.  1.
        -12    1    3    3    0    0  0.75200388243E+01  0.39248572833E+01  0.27829214947E+01  0.89274935261E+01  0.00000000000E+00 0.  1.
</event>
<event>
 7    1  0.2430096E-009  0.4778727E+02  0.7816164E-02  0.1312668E+00
        -11   -1    0    0    0    0  0.00000000000E+00  0.00000000000E+00  0.45593999997E+02  0.45594000000E+02  0.51100000000E-03 0. -1.
         11   -1    0    0    0    0 -0.00000000000E+00 -0.00000000000E+00 -0.45593999997E+02  0.45594000000E+02  0.51100000000E-03 0.  1.
    9900012    2    1    2    0    0  0.33065354660E+02 -0.79910590302E+01  0.26952705628E+02  0.47787273694E+02  0.20000012081E+02 0.  0.
        -12    1    1    2    0    0 -0.33065354660E+02  0.79910590302E+01 -0.26952705628E+02  0.43400726306E+02  0.00000000000E+00 0.  1.
         11    1    3    3    0    0  0.20905517844E+02 -0.15536837050E+01  0.24492679035E+02  0.32238888566E+02  0.51100000000E-03 0. -1.
        -11    1    3    3    0    0  0.33613859052E+00 -0.17021426566E+00 -0.15367823959E+01  0.15822965720E+01  0.51100000000E-03 0.  1.
         12    1    3    3    0    0  0.11823698225E+02 -0.62671610595E+01  0.39968089888E+01  0.13966088556E+02  0.00000000000E+00 0. -1.
</event>
<event>
 7    1  0.2430096E-009  0.4778727E+02  0.7816164E-02  0.1312668E+00
        -11   -1    0    0    0    0  0.00000000000E+00  0.00000000000E+00  0.45593999997E+02  0.45594000000E+02  0.51100000000E-03 0.  1.
         11   -1    0    0    0    0 -0.00000000000E+00 -0.00000000000E+00 -0.45593999997E+02  0.45594000000E+02  0.51100000000E-03 0. -1.
    9900012    2    1    2    0    0  0.15290090566E+02  0.32713471888E+02 -0.24076230811E+02  0.47787274170E+02  0.20000014250E+02 0.  0.
        -12    1    1    2    0    0 -0.15290090566E+02 -0.32713471888E+02  0.24076230811E+02  0.43400725830E+02  0.00000000000E+00 0.  1.
         11    1    3    3    0    0  0.12332133087E+02  0.28709322911E+02 -0.27415373731E+02  0.41568130167E+02  0.51100000000E-03 0. -1.
        -11    1    3    3    0    0  0.15106873033E+01  0.31882203667E+01  0.26852330169E+01  0.44336668629E+01  0.51100000000E-03 0.  1.
         12    1    3    3    0    0  0.14472701752E+01  0.81592861085E+00  0.65390990264E+00  0.17854771404E+01  0.00000000000E+00 0. -1.
</event>
<event>
 7    1  0.2430096E-009  0.4778727E+02  0.7816164E-02  0.1312668E+00
        -11   -1    0    0    0    0  0.00000000000E+00  0.00000000000E+00  0.45593999997E+02  0.45594000000E+02  0.51100000000E-03 0.  1.
         11   -1    0    0    0    0 -0.00000000000E+00 -0.00000000000E+00 -0.45593999997E+02  0.45594000000E+02  0.51100000000E-03 0. -1.
    9900012    2    1    2    0    0  0.35150548076E+02 -0.85557833350E+00 -0.25442682562E+02  0.47787272584E+02  0.20000007019E+02 0.  0.
        -12    1    1    2    0    0 -0.35150548076E+02  0.85557833350E+00  0.25442682562E+02  0.43400727416E+02  0.00000000000E+00 0.  1.
         11    1    3    3    0    0  0.18038926590E+02  0.45443198239E+00 -0.22285817357E+02  0.28675198978E+02  0.51100000000E-03 0. -1.
        -11    1    3    3    0    0  0.96599004435E+01 -0.34444310982E+01  0.10212819132E+01  0.10306347519E+02  0.51100000000E-03 0.  1.
         12    1    3    3    0    0  0.74517210427E+01  0.21344207824E+01 -0.41781471184E+01  0.88057260869E+01  0.00000000000E+00 0. -1.
</event>
<event>
 7    1  0.2430096E-009  0.4778727E+02  0.7816164E-02  0.1312668E+00
        -11   -1    0    0    0    0  0.00000000000E+00  0.00000000000E+00  0.45593999997E+02  0.45594000000E+02  0.51100000000E-03 0.  1.
         11   -1    0    0    0    0 -0.00000000000E+00 -0.00000000000E+00 -0.45593999997E+02  0.45594000000E+02  0.51100000000E-03 0. -1.
    9900012    2    1    2    0    0 -0.26746710470E+01 -0.17171452365E+01 -0.43284182904E+02  0.47787274861E+02  0.20000017399E+02 0.  0.
        -12    1    1    2    0    0  0.26746710470E+01  0.17171452365E+01  0.43284182904E+02  0.43400725139E+02  0.00000000000E+00 0.  1.
         11    1    3    3    0    0  0.44194306666E+01 -0.11674511368E+01 -0.11666084103E+02  0.12529637989E+02  0.51100000000E-03 0. -1.
        -11    1    3    3    0    0  0.45415208877E-01  0.59330892952E+01 -0.13010596011E+02  0.14299623070E+02  0.51100000000E-03 0.  1.
        -12    1    3    3    0    0 -0.71395169224E+01 -0.64827833949E+01 -0.18607502790E+02  0.20958013802E+02  0.00000000000E+00 0.  1.
</event>
<event>
 7    1  0.2430096E-009  0.4778728E+02  0.7816164E-02  0.1312668E+00
        -11   -1    0    0    0    0  0.00000000000E+00  0.00000000000E+00  0.45593999997E+02  0.45594000000E+02  0.51100000000E-03 0. -1.
         11   -1    0    0    0    0 -0.00000000000E+00 -0.00000000000E+00 -0.45593999997E+02  0.45594000000E+02  0.51100000000E-03 0.  1.
    9900012    2    1    2    0    0 -0.22942256409E+02  0.36837325733E+02  0.53552688120E+00  0.47787280129E+02  0.20000041419E+02 0.  0.
        -12    1    1    2    0    0  0.22942256409E+02 -0.36837325733E+02 -0.53552688120E+00  0.43400719871E+02  0.00000000000E+00 0.  1.
         11    1    3    3    0    0 -0.18567525524E+02  0.28854380724E+02  0.12129497638E+01  0.34333650235E+02  0.51100000000E-03 0. -1.
        -11    1    3    3    0    0 -0.43236151504E+01 -0.96726341154E+00  0.35106319330E+00  0.44443775833E+01  0.51100000000E-03 0.  1.
         12    1    3    3    0    0 -0.51115734952E-01  0.89502084203E+01 -0.10284860759E+01  0.90092523105E+01  0.00000000000E+00 0. -1.
</event>
<event>
 7    1  0.2430096E-009  0.4778730E+02  0.7816164E-02  0.1312668E+00
        -11   -1    0    0    0    0  0.00000000000E+00  0.00000000000E+00  0.45593999997E+02  0.45594000000E+02  0.51100000000E-03 0. -1.
         11   -1    0    0    0    0 -0.00000000000E+00 -0.00000000000E+00 -0.45593999997E+02  0.45594000000E+02  0.51100000000E-03 0.  1.
    9900012    2    1    2    0    0 -0.37276051833E+00 -0.28831087869E+02  0.32438401438E+02  0.47787303394E+02  0.20000147492E+02 0.  0.
        -12    1    1    2    0    0  0.37276051833E+00  0.28831087869E+02 -0.32438401438E+02  0.43400696606E+02  0.00000000000E+00 0.  1.
         11    1    3    3    0    0  0.61259720150E+01 -0.12306180022E+02  0.16968646808E+02  0.21838144945E+02  0.51100000000E-03 0. -1.
        -11    1    3    3    0    0 -0.83560923031E+01 -0.72213862871E+01  0.61076809843E+01  0.12620478032E+02  0.51100000000E-03 0.  1.
        -12    1    3    3    0    0  0.18573597698E+01 -0.93035215594E+01  0.93620736448E+01  0.13328680417E+02  0.00000000000E+00 0.  1.
</event>
<event>
 7    1  0.2430096E-009  0.4778727E+02  0.7816164E-02  0.1312668E+00
        -11   -1    0    0    0    0  0.00000000000E+00  0.00000000000E+00  0.45593999997E+02  0.45594000000E+02  0.51100000000E-03 0.  1.
         11   -1    0    0    0    0 -0.00000000000E+00 -0.00000000000E+00 -0.45593999997E+02  0.45594000000E+02  0.51100000000E-03 0. -1.
    9900012    2    1    2    0    0 -0.28968133089E+02  0.26758198660E+02 -0.18123715214E+02  0.47787274392E+02  0.20000015262E+02 0.  0.
        -12    1    1    2    0    0  0.28968133089E+02 -0.26758198660E+02  0.18123715214E+02  0.43400725608E+02  0.00000000000E+00 0.  1.
         11    1    3    3    0    0 -0.54390652457E+01  0.13582469199E+02 -0.14397336149E+02  0.20526816332E+02  0.51100000000E-03 0. -1.
        -11    1    3    3    0    0 -0.15683140046E+02  0.94575559198E+01 -0.28395266179E+01  0.18532920907E+02  0.51100000000E-03 0.  1.
         12    1    3    3    0    0 -0.78459277973E+01  0.37181735407E+01 -0.88685244709E+00  0.87275371521E+01  0.00000000000E+00 0. -1.
</event>
<event>
 7    1  0.2430096E-009  0.4778727E+02  0.7816164E-02  0.1312668E+00
        -11   -1    0    0    0    0  0.00000000000E+00  0.00000000000E+00  0.45593999997E+02  0.45594000000E+02  0.51100000000E-03 0.  1.
         11   -1    0    0    0    0 -0.00000000000E+00 -0.00000000000E+00 -0.45593999997E+02  0.45594000000E+02  0.51100000000E-03 0. -1.
    9900012    2    1    2    0    0  0.17378648857E+02  0.13566900912E+02 -0.37383750669E+02  0.47787273618E+02  0.20000011732E+02 0.  0.
        -12    1    1    2    0    0 -0.17378648857E+02 -0.13566900912E+02  0.37383750669E+02  0.43400726382E+02  0.00000000000E+00 0.  1.
         11    1    3    3    0    0  0.22905743582E+01 -0.35340580897E+01 -0.36443917211E+00  0.42271874388E+01  0.51100000000E-03 0.  1.
        -11    1    3    3    0    0  0.10567252876E+02  0.13361907512E+02 -0.26171403524E+02  0.31227388114E+02  0.51100000000E-03 0. -1.
        -12    1    3    3    0    0  0.45208216221E+01  0.37390514892E+01 -0.10847907973E+02  0.12332698065E+02  0.00000000000E+00 0.  1.
</event>
<event>
 7    1  0.2430096E-009  0.4778727E+02  0.7816164E-02  0.1312668E+00
        -11   -1    0    0    0    0  0.00000000000E+00  0.00000000000E+00  0.45593999997E+02  0.45594000000E+02  0.51100000000E-03 0.  1.
         11   -1    0    0    0    0 -0.00000000000E+00 -0.00000000000E+00 -0.45593999997E+02  0.45594000000E+02  0.51100000000E-03 0. -1.
    9900012    2    1    2    0    0 -0.25912285073E+02 -0.31204731270E+02 -0.15441552603E+02  0.47787270535E+02  0.19999997675E+02 0.  0.
        -12    1    1    2    0    0  0.25912285073E+02  0.31204731270E+02  0.15441552603E+02  0.43400729465E+02  0.00000000000E+00 0.  1.
         11    1    3    3    0    0 -0.97162700379E+01 -0.15579530517E+02 -0.88628400753E+01  0.20388173264E+02  0.51100000000E-03 0. -1.
        -11    1    3    3    0    0 -0.17977452045E+02 -0.98437383146E+01 -0.43547084857E+01  0.20953554646E+02  0.51100000000E-03 0.  1.
        -12    1    3    3    0    0  0.17814370100E+01 -0.57814624383E+01 -0.22240040421E+01  0.64455426246E+01  0.00000000000E+00 0.  1.
</event>
<event>
 7    1  0.2430096E-009  0.4778728E+02  0.7816164E-02  0.1312668E+00
        -11   -1    0    0    0    0  0.00000000000E+00  0.00000000000E+00  0.45593999997E+02  0.45594000000E+02  0.51100000000E-03 0.  1.
         11   -1    0    0    0    0 -0.00000000000E+00 -0.00000000000E+00 -0.45593999997E+02  0.45594000000E+02  0.51100000000E-03 0. -1.
    9900012    2    1    2    0    0 -0.25976979006E+02 -0.70943154686E+01 -0.34036589312E+02  0.47787283851E+02  0.20000058389E+02 0.  0.
        -12    1    1    2    0    0  0.25976979006E+02  0.70943154686E+01  0.34036589312E+02  0.43400716149E+02  0.00000000000E+00 0.  1.
         11    1    3    3    0    0 -0.20060432532E+02 -0.61150788319E+01 -0.31787447815E+02  0.38082239710E+02  0.51100000000E-03 0. -1.
        -11    1    3    3    0    0  0.12156715377E+01  0.14137296146E+01 -0.42029623107E-01  0.18650081665E+01  0.51100000000E-03 0.  1.
        -12    1    3    3    0    0 -0.71322180118E+01 -0.23929662513E+01 -0.22071118740E+01  0.78400359739E+01  0.00000000000E+00 0.  1.
</event>
<event>
 7    1  0.2430096E-009  0.4778727E+02  0.7816164E-02  0.1312668E+00
        -11   -1    0    0    0    0  0.00000000000E+00  0.00000000000E+00  0.45593999997E+02  0.45594000000E+02  0.51100000000E-03 0.  1.
         11   -1    0    0    0    0 -0.00000000000E+00 -0.00000000000E+00 -0.45593999997E+02  0.45594000000E+02  0.51100000000E-03 0. -1.
    9900012    2    1    2    0    0 -0.26921282851E+02  0.80122321371E+01 -0.33085821929E+02  0.47787274812E+02  0.20000017176E+02 0.  0.
        -12    1    1    2    0    0  0.26921282851E+02 -0.80122321371E+01  0.33085821929E+02  0.43400725188E+02  0.00000000000E+00 0.  1.
         11    1    3    3    0    0 -0.56897959301E+01 -0.80306099032E+00 -0.49986923128E+01  0.76161413970E+01  0.51100000000E-03 0. -1.
        -11    1    3    3    0    0 -0.22820768871E+02  0.11095602115E+02 -0.22427448119E+02  0.33865768965E+02  0.51100000000E-03 0.  1.
        -12    1    3    3    0    0  0.15892819501E+01 -0.22803089878E+01 -0.56596814972E+01  0.63053644499E+01  0.00000000000E+00 0.  1.
</event>
<event>
 7    1  0.2430096E-009  0.4778727E+02  0.7816164E-02  0.1312668E+00
        -11   -1    0    0    0    0  0.00000000000E+00  0.00000000000E+00  0.45593999997E+02  0.45594000000E+02  0.51100000000E-03 0.  1.
         11   -1    0    0    0    0 -0.00000000000E+00 -0.00000000000E+00 -0.45593999997E+02  0.45594000000E+02  0.51100000000E-03 0. -1.
    9900012    2    1    2    0    0  0.35271680444E+02  0.22791149647E+02 -0.10958786032E+02  0.47787274950E+02  0.20000017807E+02 0.  0.
        -12    1    1    2    0    0 -0.35271680444E+02 -0.22791149647E+02  0.10958786032E+02  0.43400725050E+02  0.00000000000E+00 0.  1.
         11    1    3    3    0    0  0.25415592918E+02  0.89657216495E+01 -0.10549040315E+02  0.28941644388E+02  0.51100000000E-03 0. -1.
        -11    1    3    3    0    0  0.64512168378E+01  0.13004112423E+02  0.19145055738E+01  0.14642078761E+02  0.51100000000E-03 0.  1.
        -12    1    3    3    0    0  0.34048706878E+01  0.82131557437E+00 -0.23242512910E+01  0.42035518002E+01  0.00000000000E+00 0.  1.
</event>
<event>
 7    1  0.2430096E-009  0.4778731E+02  0.7816164E-02  0.1312668E+00
        -11   -1    0    0    0    0  0.00000000000E+00  0.00000000000E+00  0.45593999997E+02  0.45594000000E+02  0.51100000000E-03 0.  1.
         11   -1    0    0    0    0 -0.00000000000E+00 -0.00000000000E+00 -0.45593999997E+02  0.45594000000E+02  0.51100000000E-03 0. -1.
    9900012    2    1    2    0    0  0.29120669437E+01 -0.21669060803E+01 -0.43248633268E+02  0.47787309966E+02  0.20000177458E+02 0.  0.
        -12    1    1    2    0    0 -0.29120669437E+01  0.21669060803E+01  0.43248633268E+02  0.43400690034E+02  0.00000000000E+00 0.  1.
         11    1    3    3    0    0  0.12490618242E+01 -0.99967057633E+01 -0.24088901154E+02  0.26110715054E+02  0.51100000000E-03 0. -1.
        -11    1    3    3    0    0 -0.21394178208E+01  0.46251336232E+01 -0.10960388336E+02  0.12087145337E+02  0.51100000000E-03 0.  1.
         12    1    3    3    0    0  0.38024229403E+01  0.32046660598E+01 -0.81993437783E+01  0.95894495757E+01  0.00000000000E+00 0. -1.
</event>
<event>
 7    1  0.2430096E-009  0.4778727E+02  0.7816164E-02  0.1312668E+00
        -11   -1    0    0    0    0  0.00000000000E+00  0.00000000000E+00  0.45593999997E+02  0.45594000000E+02  0.51100000000E-03 0. -1.
         11   -1    0    0    0    0 -0.00000000000E+00 -0.00000000000E+00 -0.45593999997E+02  0.45594000000E+02  0.51100000000E-03 0.  1.
    9900012    2    1    2    0    0  0.33887752850E+02  0.26848062976E+02 -0.37980645121E+01  0.47787267600E+02  0.19999984295E+02 0.  0.
        -12    1    1    2    0    0 -0.33887752850E+02 -0.26848062976E+02  0.37980645121E+01  0.43400732400E+02  0.00000000000E+00 0.  1.
         11    1    3    3    0    0  0.12084246743E+02  0.10243939366E+02  0.63327139366E+01  0.17060790695E+02  0.51100000000E-03 0. -1.
        -11    1    3    3    0    0  0.26136495665E+01 -0.11102833958E+01 -0.45671123979E+00  0.28761916996E+01  0.51100000000E-03 0.  1.
         12    1    3    3    0    0  0.19189856541E+02  0.17714407006E+02 -0.96740672089E+01  0.27850285205E+02  0.00000000000E+00 0. -1.
</event>
<event>
 7    1  0.2430096E-009  0.4778728E+02  0.7816164E-02  0.1312668E+00
        -11   -1    0    0    0    0  0.00000000000E+00  0.00000000000E+00  0.45593999997E+02  0.45594000000E+02  0.51100000000E-03 0.  1.
         11   -1    0    0    0    0 -0.00000000000E+00 -0.00000000000E+00 -0.45593999997E+02  0.45594000000E+02  0.51100000000E-03 0. -1.
    9900012    2    1    2    0    0 -0.76986493241E+01  0.41518977027E+02 -0.10026373291E+02  0.47787276318E+02  0.20000024044E+02 0.  0.
        -12    1    1    2    0    0  0.76986493241E+01 -0.41518977027E+02  0.10026373291E+02  0.43400723682E+02  0.00000000000E+00 0.  1.
         11    1    3    3    0    0  0.92065931138E+00  0.12804475156E+02 -0.89743727910E+01  0.15663382931E+02  0.51100000000E-03 0. -1.
        -11    1    3    3    0    0 -0.11029629412E+02  0.25290063495E+02  0.66331252902E+00  0.27598551055E+02  0.51100000000E-03 0.  1.
        -12    1    3    3    0    0  0.24103207769E+01  0.34244383757E+01 -0.17153130292E+01  0.45253423324E+01  0.00000000000E+00 0.  1.
</event>
<event>
 7    1  0.2430096E-009  0.4778727E+02  0.7816164E-02  0.1312668E+00
        -11   -1    0    0    0    0  0.00000000000E+00  0.00000000000E+00  0.45593999997E+02  0.45594000000E+02  0.51100000000E-03 0. -1.
         11   -1    0    0    0    0 -0.00000000000E+00 -0.00000000000E+00 -0.45593999997E+02  0.45594000000E+02  0.51100000000E-03 0.  1.
    9900012    2    1    2    0    0 -0.24002524801E+02  0.15509435116E+02  0.32664353620E+02  0.47787265307E+02  0.19999973841E+02 0.  0.
        -12    1    1    2    0    0  0.24002524801E+02 -0.15509435116E+02 -0.32664353620E+02  0.43400734693E+02  0.00000000000E+00 0.  1.
         11    1    3    3    0    0 -0.22009144551E+02  0.11832793353E+02  0.15987534369E+02  0.29665109099E+02  0.51100000000E-03 0. -1.
        -11    1    3    3    0    0 -0.35019128889E+01  0.21082170653E+01  0.14415509649E+02  0.14983821000E+02  0.51100000000E-03 0.  1.
        -12    1    3    3    0    0  0.15085326389E+01  0.15684246980E+01  0.22613096020E+01  0.31383352071E+01  0.00000000000E+00 0.  1.
</event>
<event>
 7    1  0.2430096E-009  0.4778726E+02  0.7816164E-02  0.1312668E+00
        -11   -1    0    0    0    0  0.00000000000E+00  0.00000000000E+00  0.45593999997E+02  0.45594000000E+02  0.51100000000E-03 0.  1.
         11   -1    0    0    0    0 -0.00000000000E+00 -0.00000000000E+00 -0.45593999997E+02  0.45594000000E+02  0.51100000000E-03 0. -1.
    9900012    2    1    2    0    0  0.40750013207E+02  0.14681362291E+02  0.27418829196E+01  0.47787263866E+02  0.19999967269E+02 0.  0.
        -12    1    1    2    0    0 -0.40750013207E+02 -0.14681362291E+02 -0.27418829196E+01  0.43400736134E+02  0.00000000000E+00 0.  1.
         11    1    3    3    0    0  0.20183809564E+02  0.13631786003E+02  0.16790324297E+01  0.24413744250E+02  0.51100000000E-03 0.  1.
        -11    1    3    3    0    0  0.19125561270E+01  0.35387918380E+01  0.20771751748E+01  0.45272039472E+01  0.51100000000E-03 0. -1.
         12    1    3    3    0    0  0.18653647516E+02 -0.24892155504E+01 -0.10143246849E+01  0.18846315669E+02  0.00000000000E+00 0. -1.
</event>
<event>
 7    1  0.2430096E-009  0.4778727E+02  0.7816164E-02  0.1312668E+00
        -11   -1    0    0    0    0  0.00000000000E+00  0.00000000000E+00  0.45593999997E+02  0.45594000000E+02  0.51100000000E-03 0.  1.
         11   -1    0    0    0    0 -0.00000000000E+00 -0.00000000000E+00 -0.45593999997E+02  0.45594000000E+02  0.51100000000E-03 0. -1.
    9900012    2    1    2    0    0 -0.30376522016E+02  0.88044147254E+00 -0.30985725921E+02  0.47787268694E+02  0.19999989285E+02 0.  0.
        -12    1    1    2    0    0  0.30376522016E+02 -0.88044147254E+00  0.30985725921E+02  0.43400731306E+02  0.00000000000E+00 0.  1.
         11    1    3    3    0    0 -0.45087155175E+01 -0.65947616466E+00 -0.56304960604E+01  0.72433355974E+01  0.51100000000E-03 0. -1.
        -11    1    3    3    0    0 -0.18001934697E+02 -0.76215427553E+01 -0.15094397052E+02  0.24698145465E+02  0.51100000000E-03 0.  1.
        -12    1    3    3    0    0 -0.78658718017E+01  0.91614603925E+01 -0.10260832809E+02  0.15845787631E+02  0.00000000000E+00 0.  1.
</event>
<event>
 7    1  0.2430096E-009  0.4778727E+02  0.7816164E-02  0.1312668E+00
        -11   -1    0    0    0    0  0.00000000000E+00  0.00000000000E+00  0.45593999997E+02  0.45594000000E+02  0.51100000000E-03 0.  1.
         11   -1    0    0    0    0 -0.00000000000E+00 -0.00000000000E+00 -0.45593999997E+02  0.45594000000E+02  0.51100000000E-03 0. -1.
    9900012    2    1    2    0    0 -0.30996507549E+02  0.20799273124E+02 -0.22141143395E+02  0.47787268743E+02  0.19999989509E+02 0.  0.
        -12    1    1    2    0    0  0.30996507549E+02 -0.20799273124E+02  0.22141143395E+02  0.43400731257E+02  0.00000000000E+00 0.  1.
         11    1    3    3    0    0 -0.65539657165E+01  0.87276242257E+01 -0.11511986719E+02  0.15863534591E+02  0.51100000000E-03 0. -1.
        -11    1    3    3    0    0 -0.20205263766E+02  0.37666518650E+01 -0.54734088510E+01  0.21269662782E+02  0.51100000000E-03 0.  1.
        -12    1    3    3    0    0 -0.42372780669E+01  0.83049970334E+01 -0.51557478254E+01  0.10654071371E+02  0.00000000000E+00 0.  1.
</event>
<event>
 7    1  0.2430096E-009  0.4778727E+02  0.7816164E-02  0.1312668E+00
        -11   -1    0    0    0    0  0.00000000000E+00  0.00000000000E+00  0.45593999997E+02  0.45594000000E+02  0.51100000000E-03 0.  1.
         11   -1    0    0    0    0 -0.00000000000E+00 -0.00000000000E+00 -0.45593999997E+02  0.45594000000E+02  0.51100000000E-03 0. -1.
    9900012    2    1    2    0    0  0.19291083964E+02  0.18774193830E+02 -0.34044194155E+02  0.47787269244E+02  0.19999991790E+02 0.  0.
        -12    1    1    2    0    0 -0.19291083964E+02 -0.18774193830E+02  0.34044194155E+02  0.43400730756E+02  0.00000000000E+00 0.  1.
         11    1    3    3    0    0 -0.12318030994E+01 -0.25553293067E+01 -0.55899249480E+01  0.62685172032E+01  0.51100000000E-03 0. -1.
        -11    1    3    3    0    0  0.14082950923E+02  0.12936004885E+02 -0.14452902225E+02  0.23969900126E+02  0.51100000000E-03 0.  1.
         12    1    3    3    0    0  0.64399361406E+01  0.83935182523E+01 -0.14001366982E+02  0.17548851914E+02  0.00000000000E+00 0. -1.
</event>
<event>
 7    1  0.2430096E-009  0.4778727E+02  0.7816164E-02  0.1312668E+00
        -11   -1    0    0    0    0  0.00000000000E+00  0.00000000000E+00  0.45593999997E+02  0.45594000000E+02  0.51100000000E-03 0.  1.
         11   -1    0    0    0    0 -0.00000000000E+00 -0.00000000000E+00 -0.45593999997E+02  0.45594000000E+02  0.51100000000E-03 0. -1.
    9900012    2    1    2    0    0  0.26238144053E+02 -0.25897689509E+02 -0.22901814341E+02  0.47787266995E+02  0.19999981537E+02 0.  0.
        -12    1    1    2    0    0 -0.26238144053E+02  0.25897689509E+02  0.22901814341E+02  0.43400733005E+02  0.00000000000E+00 0.  1.
         11    1    3    3    0    0  0.16558845423E+01 -0.69428599962E+01 -0.76447881870E+01  0.10458873994E+02  0.51100000000E-03 0. -1.
        -11    1    3    3    0    0  0.21492311292E+02 -0.15224469024E+02 -0.17866491011E+02  0.31826331913E+02  0.51100000000E-03 0.  1.
        -12    1    3    3    0    0  0.30899482186E+01 -0.37303604885E+01  0.26094648570E+01  0.55020610872E+01  0.00000000000E+00 0.  1.
</event>
<event>
 7    1  0.2430096E-009  0.4778728E+02  0.7816164E-02  0.1312668E+00
        -11   -1    0    0    0    0  0.00000000000E+00  0.00000000000E+00  0.45593999997E+02  0.45594000000E+02  0.51100000000E-03 0.  1.
         11   -1    0    0    0    0 -0.00000000000E+00 -0.00000000000E+00 -0.45593999997E+02  0.45594000000E+02  0.51100000000E-03 0. -1.
    9900012    2    1    2    0    0  0.63406166494E+01  0.42730875676E+02 -0.41823147968E+01  0.47787275206E+02  0.20000018975E+02 0.  0.
        -12    1    1    2    0    0 -0.63406166494E+01 -0.42730875676E+02  0.41823147968E+01  0.43400724794E+02  0.00000000000E+00 0.  1.
         11    1    3    3    0    0 -0.16024651775E+01  0.91446349615E+01 -0.14397726171E+01  0.93949554908E+01  0.51100000000E-03 0. -1.
        -11    1    3    3    0    0 -0.20282555136E+01  0.21874453408E+02 -0.57749588275E+01  0.22714657868E+02  0.51100000000E-03 0.  1.
         12    1    3    3    0    0  0.99713373404E+01  0.11711787307E+02  0.30324166478E+01  0.15677661848E+02  0.00000000000E+00 0. -1.
</event>
<event>
 7    1  0.2430096E-009  0.4778727E+02  0.7816164E-02  0.1312668E+00
        -11   -1    0    0    0    0  0.00000000000E+00  0.00000000000E+00  0.45593999997E+02  0.45594000000E+02  0.51100000000E-03 0. -1.
         11   -1    0    0    0    0 -0.00000000000E+00 -0.00000000000E+00 -0.45593999997E+02  0.45594000000E+02  0.51100000000E-03 0.  1.
    9900012    2    1    2    0    0  0.36662049067E+02 -0.22215670140E+02 -0.67809696741E+01  0.47787269692E+02  0.19999993833E+02 0.  0.
        -12    1    1    2    0    0 -0.36662049067E+02  0.22215670140E+02  0.67809696741E+01  0.43400730308E+02  0.00000000000E+00 0.  1.
         11    1    3    3    0    0  0.36339824049E+02 -0.23433992109E+02 -0.25453020530E+01  0.43315278608E+02  0.51100000000E-03 0. -1.
        -11    1    3    3    0    0 -0.10870247197E+00  0.35624922836E+00 -0.20456845592E+01  0.20793160696E+01  0.51100000000E-03 0.  1.
         12    1    3    3    0    0  0.43092749013E+00  0.86207274097E+00 -0.21899830619E+01  0.23926750143E+01  0.00000000000E+00 0. -1.
</event>
<event>
 7    1  0.2430096E-009  0.4778725E+02  0.7816164E-02  0.1312668E+00
        -11   -1    0    0    0    0  0.00000000000E+00  0.00000000000E+00  0.45593999997E+02  0.45594000000E+02  0.51100000000E-03 0.  1.
         11   -1    0    0    0    0 -0.00000000000E+00 -0.00000000000E+00 -0.45593999997E+02  0.45594000000E+02  0.51100000000E-03 0. -1.
    9900012    2    1    2    0    0 -0.17014657131E+02  0.39627609069E+02 -0.48763852588E+01  0.47787250110E+02  0.19999904551E+02 0.  0.
        -12    1    1    2    0    0  0.17014657131E+02 -0.39627609069E+02  0.48763852588E+01  0.43400749890E+02  0.00000000000E+00 0.  1.
         11    1    3    3    0    0 -0.14528102680E+02  0.16755328080E+02 -0.49569120580E+01  0.22723946927E+02  0.51100000000E-03 0. -1.
        -11    1    3    3    0    0  0.37298071949E+01  0.67602096319E+01 -0.85638372187E+00  0.77682230477E+01  0.51100000000E-03 0.  1.
        -12    1    3    3    0    0 -0.62163616458E+01  0.16112071358E+02  0.93691052109E+00  0.17295080135E+02  0.00000000000E+00 0.  1.
</event>
<event>
 7    1  0.2430096E-009  0.4778727E+02  0.7816164E-02  0.1312668E+00
        -11   -1    0    0    0    0  0.00000000000E+00  0.00000000000E+00  0.45593999997E+02  0.45594000000E+02  0.51100000000E-03 0.  1.
         11   -1    0    0    0    0 -0.00000000000E+00 -0.00000000000E+00 -0.45593999997E+02  0.45594000000E+02  0.51100000000E-03 0. -1.
    9900012    2    1    2    0    0  0.27043488007E+02  0.32453041583E+02 -0.99535512784E+01  0.47787270345E+02  0.19999996810E+02 0.  0.
        -12    1    1    2    0    0 -0.27043488007E+02 -0.32453041583E+02  0.99535512784E+01  0.43400729655E+02  0.00000000000E+00 0.  1.
         11    1    3    3    0    0  0.13111159110E+02  0.22111967848E+02  0.25670390860E+01  0.25834691894E+02  0.51100000000E-03 0. -1.
        -11    1    3    3    0    0  0.41432202226E+01  0.33439483190E+01 -0.67797775900E+01  0.86205364453E+01  0.51100000000E-03 0.  1.
         12    1    3    3    0    0  0.97891086746E+01  0.69971254151E+01 -0.57408127743E+01  0.13332042005E+02  0.00000000000E+00 0. -1.
</event>
<event>
 7    1  0.2430096E-009  0.4778728E+02  0.7816164E-02  0.1312668E+00
        -11   -1    0    0    0    0  0.00000000000E+00  0.00000000000E+00  0.45593999997E+02  0.45594000000E+02  0.51100000000E-03 0. -1.
         11   -1    0    0    0    0 -0.00000000000E+00 -0.00000000000E+00 -0.45593999997E+02  0.45594000000E+02  0.51100000000E-03 0.  1.
    9900012    2    1    2    0    0  0.19412288425E+01  0.39915081371E+02  0.16930466666E+02  0.47787276598E+02  0.20000025321E+02 0.  0.
        -12    1    1    2    0    0 -0.19412288425E+01 -0.39915081371E+02 -0.16930466666E+02  0.43400723402E+02  0.00000000000E+00 0.  1.
         11    1    3    3    0    0 -0.13483003727E+01  0.12070572808E+02  0.83870521759E+01  0.14760057123E+02  0.51100000000E-03 0. -1.
        -11    1    3    3    0    0  0.82778243808E+00  0.28791077442E+02  0.61211482523E+01  0.29446219116E+02  0.51100000000E-03 0.  1.
        -12    1    3    3    0    0  0.24617467771E+01 -0.94656887959E+00  0.24222662382E+01  0.35810003585E+01  0.00000000000E+00 0.  1.
</event>
<event>
 7    1  0.2430096E-009  0.4778727E+02  0.7816164E-02  0.1312668E+00
        -11   -1    0    0    0    0  0.00000000000E+00  0.00000000000E+00  0.45593999997E+02  0.45594000000E+02  0.51100000000E-03 0.  1.
         11   -1    0    0    0    0 -0.00000000000E+00 -0.00000000000E+00 -0.45593999997E+02  0.45594000000E+02  0.51100000000E-03 0. -1.
    9900012    2    1    2    0    0  0.30694280635E+02  0.26468997954E+01 -0.30569235868E+02  0.47787272773E+02  0.20000007883E+02 0.  0.
        -12    1    1    2    0    0 -0.30694280635E+02 -0.26468997954E+01  0.30569235868E+02  0.43400727227E+02  0.00000000000E+00 0.  1.
         11    1    3    3    0    0  0.22829487905E+02 -0.40178070622E+01 -0.19958072234E+02  0.30588444536E+02  0.51100000000E-03 0. -1.
        -11    1    3    3    0    0 -0.34203982928E+00 -0.10381667111E+01 -0.39970958917E+01  0.41438577670E+01  0.51100000000E-03 0.  1.
         12    1    3    3    0    0  0.82068325602E+01  0.77028735686E+01 -0.66140677416E+01  0.13054970470E+02  0.00000000000E+00 0. -1.
</event>
<event>
 7    1  0.2430096E-009  0.4778727E+02  0.7816164E-02  0.1312668E+00
        -11   -1    0    0    0    0  0.00000000000E+00  0.00000000000E+00  0.45593999997E+02  0.45594000000E+02  0.51100000000E-03 0. -1.
         11   -1    0    0    0    0 -0.00000000000E+00 -0.00000000000E+00 -0.45593999997E+02  0.45594000000E+02  0.51100000000E-03 0.  1.
    9900012    2    1    2    0    0  0.68282271694E+01 -0.16044310780E+02  0.39743915991E+02  0.47787268981E+02  0.19999990594E+02 0.  0.
        -12    1    1    2    0    0 -0.68282271694E+01  0.16044310780E+02 -0.39743915991E+02  0.43400731019E+02  0.00000000000E+00 0.  1.
         11    1    3    3    0    0  0.18872785060E+01  0.41078917984E+00  0.12442833468E+02  0.12591849462E+02  0.51100000000E-03 0.  1.
        -11    1    3    3    0    0 -0.24558269649E+01 -0.14297445780E+02  0.17855051396E+02  0.23005453756E+02  0.51100000000E-03 0. -1.
        -12    1    3    3    0    0  0.73967756283E+01 -0.21576541794E+01  0.94460311274E+01  0.12189965763E+02  0.00000000000E+00 0.  1.
</event>
<event>
 7    1  0.2806396E-009  0.4778727E+02  0.7816164E-02  0.1312668E+00
        -11   -1    0    0    0    0  0.00000000000E+00  0.00000000000E+00  0.45593999997E+02  0.45594000000E+02  0.51100000000E-03 0. -1.
         11   -1    0    0    0    0 -0.00000000000E+00 -0.00000000000E+00 -0.45593999997E+02  0.45594000000E+02  0.51100000000E-03 0.  1.
    9900012    2    1    2    0    0  0.94633839392E+01 -0.28663674442E+02  0.31184311535E+02  0.47787272425E+02  0.20000006296E+02 0.  0.
        -12    1    1    2    0    0 -0.94633839392E+01  0.28663674442E+02 -0.31184311535E+02  0.43400727575E+02  0.00000000000E+00 0.  1.
         11    1    3    3    0    0  0.84179658334E+01 -0.23724769501E+02  0.25510094676E+02  0.35839807020E+02  0.51100000000E-03 0. -1.
        -11    1    3    3    0    0 -0.33905214037E+01  0.16109337395E+00  0.49106542218E+00  0.34296839467E+01  0.51100000000E-03 0.  1.
        -12    1    3    3    0    0  0.44359395095E+01 -0.50999983151E+01  0.51831514372E+01  0.85177814581E+01  0.00000000000E+00 0.  1.
</event>
<event>
 7    1  0.2430096E-009  0.4778727E+02  0.7816164E-02  0.1312668E+00
        -11   -1    0    0    0    0  0.00000000000E+00  0.00000000000E+00  0.45593999997E+02  0.45594000000E+02  0.51100000000E-03 0.  1.
         11   -1    0    0    0    0 -0.00000000000E+00 -0.00000000000E+00 -0.45593999997E+02  0.45594000000E+02  0.51100000000E-03 0. -1.
    9900012    2    1    2    0    0 -0.16626217899E+02 -0.24874300369E+02 -0.31439802159E+02  0.47787273044E+02  0.20000009117E+02 0.  0.
        -12    1    1    2    0    0  0.16626217899E+02  0.24874300369E+02  0.31439802159E+02  0.43400726956E+02  0.00000000000E+00 0.  1.
         11    1    3    3    0    0 -0.70137394370E+00 -0.58442196087E+01 -0.30626943704E+00  0.58941182099E+01  0.51100000000E-03 0. -1.
        -11    1    3    3    0    0 -0.85288008906E+01 -0.10775761097E+02 -0.26557580197E+02  0.29902550695E+02  0.51100000000E-03 0.  1.
        -12    1    3    3    0    0 -0.73960430648E+01 -0.82543196633E+01 -0.45759525252E+01  0.11990604140E+02  0.00000000000E+00 0.  1.
</event>
<event>
 7    1  0.2430096E-009  0.4778727E+02  0.7816164E-02  0.1312668E+00
        -11   -1    0    0    0    0  0.00000000000E+00  0.00000000000E+00  0.45593999997E+02  0.45594000000E+02  0.51100000000E-03 0.  1.
         11   -1    0    0    0    0 -0.00000000000E+00 -0.00000000000E+00 -0.45593999997E+02  0.45594000000E+02  0.51100000000E-03 0. -1.
    9900012    2    1    2    0    0 -0.33302328184E+02 -0.15614553978E+02 -0.23038315019E+02  0.47787270544E+02  0.19999997719E+02 0.  0.
        -12    1    1    2    0    0  0.33302328184E+02  0.15614553978E+02  0.23038315019E+02  0.43400729456E+02  0.00000000000E+00 0.  1.
         11    1    3    3    0    0 -0.15140277175E+01 -0.19665969060E+01 -0.46433365771E+01  0.52650126448E+01  0.51100000000E-03 0. -1.
        -11    1    3    3    0    0  0.14305181083E+01 -0.22488743258E+01  0.39022638816E+00  0.26937139207E+01  0.51100000000E-03 0.  1.
        -12    1    3    3    0    0 -0.33218818575E+02 -0.11399082746E+02 -0.18785204830E+02  0.39828543979E+02  0.00000000000E+00 0.  1.
</event>
<event>
 7    1  0.2430096E-009  0.4778727E+02  0.7816164E-02  0.1312668E+00
        -11   -1    0    0    0    0  0.00000000000E+00  0.00000000000E+00  0.45593999997E+02  0.45594000000E+02  0.51100000000E-03 0.  1.
         11   -1    0    0    0    0 -0.00000000000E+00 -0.00000000000E+00 -0.45593999997E+02  0.45594000000E+02  0.51100000000E-03 0. -1.
    9900012    2    1    2    0    0 -0.96557994307E+01 -0.20837933364E+02 -0.36826208003E+02  0.47787268147E+02  0.19999986788E+02 0.  0.
        -12    1    1    2    0    0  0.96557994307E+01  0.20837933364E+02  0.36826208003E+02  0.43400731853E+02  0.00000000000E+00 0.  1.
         11    1    3    3    0    0 -0.34982829737E+01 -0.53123005615E+01 -0.19276606735E+02  0.20298918408E+02  0.51100000000E-03 0. -1.
        -11    1    3    3    0    0 -0.68830550177E+01 -0.17626835787E+02 -0.15424621196E+02  0.24413126091E+02  0.51100000000E-03 0.  1.
        -12    1    3    3    0    0  0.72553856076E+00  0.21012029842E+01 -0.21249800712E+01  0.30752236482E+01  0.00000000000E+00 0.  1.
</event>
<event>
 7    1  0.2430096E-009  0.4778727E+02  0.7816164E-02  0.1312668E+00
        -11   -1    0    0    0    0  0.00000000000E+00  0.00000000000E+00  0.45593999997E+02  0.45594000000E+02  0.51100000000E-03 0.  1.
         11   -1    0    0    0    0 -0.00000000000E+00 -0.00000000000E+00 -0.45593999997E+02  0.45594000000E+02  0.51100000000E-03 0. -1.
    9900012    2    1    2    0    0  0.15601620424E+02  0.40475393599E+02  0.13983234839E+01  0.47787270105E+02  0.19999995718E+02 0.  0.
        -12    1    1    2    0    0 -0.15601620424E+02 -0.40475393599E+02 -0.13983234839E+01  0.43400729895E+02  0.00000000000E+00 0.  1.
         11    1    3    3    0    0 -0.14561858087E+00  0.54429466185E+01  0.39990323899E+01  0.67556741321E+01  0.51100000000E-03 0.  1.
        -11    1    3    3    0    0  0.14450143725E+02  0.16060844126E+02  0.12068704035E+01  0.21638250949E+02  0.51100000000E-03 0. -1.
        -12    1    3    3    0    0  0.12970952798E+01  0.18971602854E+02 -0.38075793095E+01  0.19393345024E+02  0.00000000000E+00 0.  1.
</event>
<event>
 7    1  0.2430096E-009  0.4778727E+02  0.7816164E-02  0.1312668E+00
        -11   -1    0    0    0    0  0.00000000000E+00  0.00000000000E+00  0.45593999997E+02  0.45594000000E+02  0.51100000000E-03 0.  1.
         11   -1    0    0    0    0 -0.00000000000E+00 -0.00000000000E+00 -0.45593999997E+02  0.45594000000E+02  0.51100000000E-03 0. -1.
    9900012    2    1    2    0    0  0.41124926925E+02  0.98650757846E+01 -0.97490520413E+01  0.47787270162E+02  0.19999995975E+02 0.  0.
        -12    1    1    2    0    0 -0.41124926925E+02 -0.98650757846E+01  0.97490520413E+01  0.43400729838E+02  0.00000000000E+00 0.  1.
         11    1    3    3    0    0  0.32167174187E+02  0.66156394464E+01 -0.10351053847E+02  0.34433095947E+02  0.51100000000E-03 0. -1.
        -11    1    3    3    0    0  0.30450413856E+00  0.44976878132E+01  0.93951150117E+00  0.46048453348E+01  0.51100000000E-03 0.  1.
        -12    1    3    3    0    0  0.86532485990E+01 -0.12482514750E+01 -0.33750969589E+00  0.87493288803E+01  0.00000000000E+00 0.  1.
</event>
<event>
 7    1  0.2430096E-009  0.4778727E+02  0.7816164E-02  0.1312668E+00
        -11   -1    0    0    0    0  0.00000000000E+00  0.00000000000E+00  0.45593999997E+02  0.45594000000E+02  0.51100000000E-03 0.  1.
         11   -1    0    0    0    0 -0.00000000000E+00 -0.00000000000E+00 -0.45593999997E+02  0.45594000000E+02  0.51100000000E-03 0. -1.
    9900012    2    1    2    0    0  0.42369178080E+02  0.56863069420E+01 -0.74927953953E+01  0.47787270506E+02  0.19999997544E+02 0.  0.
        -12    1    1    2    0    0 -0.42369178080E+02 -0.56863069420E+01  0.74927953953E+01  0.43400729494E+02  0.00000000000E+00 0.  1.
         11    1    3    3    0    0  0.21347768835E+02  0.50902207226E+00  0.85848871751E+00  0.21371086562E+02  0.51100000000E-03 0. -1.
        -11    1    3    3    0    0 -0.11879098431E+01  0.21980870548E+01 -0.17683270582E+01  0.30609961355E+01  0.51100000000E-03 0.  1.
        -12    1    3    3    0    0  0.22209319088E+02  0.29791978149E+01 -0.65829570546E+01  0.23355187808E+02  0.00000000000E+00 0.  1.
</event>
<event>
 7    1  0.2430096E-009  0.4778727E+02  0.7816164E-02  0.1312668E+00
        -11   -1    0    0    0    0  0.00000000000E+00  0.00000000000E+00  0.45593999997E+02  0.45594000000E+02  0.51100000000E-03 0. -1.
         11   -1    0    0    0    0 -0.00000000000E+00 -0.00000000000E+00 -0.45593999997E+02  0.45594000000E+02  0.51100000000E-03 0.  1.
    9900012    2    1    2    0    0  0.18179990324E+02  0.31922352005E+02  0.23110050923E+02  0.47787273516E+02  0.20000011267E+02 0.  0.
        -12    1    1    2    0    0 -0.18179990324E+02 -0.31922352005E+02 -0.23110050923E+02  0.43400726484E+02  0.00000000000E+00 0.  1.
         11    1    3    3    0    0  0.14472129723E+01  0.51751269541E+01  0.35293536750E+01  0.64290514077E+01  0.51100000000E-03 0. -1.
        -11    1    3    3    0    0  0.28435306977E+01  0.37853771560E+01  0.12845470095E+02  0.13690173457E+02  0.51100000000E-03 0.  1.
        -12    1    3    3    0    0  0.13889246654E+02  0.22961847895E+02  0.67352271524E+01  0.27668048651E+02  0.00000000000E+00 0.  1.
</event>
<event>
 7    1  0.2430096E-009  0.4778726E+02  0.7816164E-02  0.1312668E+00
        -11   -1    0    0    0    0  0.00000000000E+00  0.00000000000E+00  0.45593999997E+02  0.45594000000E+02  0.51100000000E-03 0.  1.
         11   -1    0    0    0    0 -0.00000000000E+00 -0.00000000000E+00 -0.45593999997E+02  0.45594000000E+02  0.51100000000E-03 0. -1.
    9900012    2    1    2    0    0  0.33091641496E+02 -0.25955572350E+02  0.10718019805E+02  0.47787257823E+02  0.19999939720E+02 0.  0.
        -12    1    1    2    0    0 -0.33091641496E+02  0.25955572350E+02 -0.10718019805E+02  0.43400742177E+02  0.00000000000E+00 0.  1.
         11    1    3    3    0    0  0.40481303895E+01 -0.83869318909E+01  0.77982831483E+01  0.12146654128E+02  0.51100000000E-03 0.  1.
        -11    1    3    3    0    0  0.28743950981E+02 -0.17561478879E+02  0.10014012522E+01  0.33699006857E+02  0.51100000000E-03 0. -1.
        -12    1    3    3    0    0  0.29956012544E+00 -0.71615803116E-02  0.19183354043E+01  0.19415968378E+01  0.00000000000E+00 0.  1.
</event>
<event>
 7    1  0.2430096E-009  0.4778727E+02  0.7816164E-02  0.1312668E+00
        -11   -1    0    0    0    0  0.00000000000E+00  0.00000000000E+00  0.45593999997E+02  0.45594000000E+02  0.51100000000E-03 0. -1.
         11   -1    0    0    0    0 -0.00000000000E+00 -0.00000000000E+00 -0.45593999997E+02  0.45594000000E+02  0.51100000000E-03 0.  1.
    9900012    2    1    2    0    0  0.39251019247E+02 -0.15225019036E+02  0.10544169094E+02  0.47787271683E+02  0.20000002912E+02 0.  0.
        -12    1    1    2    0    0 -0.39251019247E+02  0.15225019036E+02 -0.10544169094E+02  0.43400728317E+02  0.00000000000E+00 0.  1.
         11    1    3    3    0    0  0.15982226176E+02 -0.41681240787E+01 -0.14303942459E+01  0.16578625994E+02  0.51100000000E-03 0. -1.
        -11    1    3    3    0    0  0.11719681035E+02 -0.51612433756E+01  0.12940696906E+02  0.18205795600E+02  0.51100000000E-03 0.  1.
        -12    1    3    3    0    0  0.11549112036E+02 -0.58956515819E+01 -0.96613356637E+00  0.13002850090E+02  0.00000000000E+00 0.  1.
</event>
<event>
 7    1  0.2430096E-009  0.4778727E+02  0.7816164E-02  0.1312668E+00
        -11   -1    0    0    0    0  0.00000000000E+00  0.00000000000E+00  0.45593999997E+02  0.45594000000E+02  0.51100000000E-03 0. -1.
         11   -1    0    0    0    0 -0.00000000000E+00 -0.00000000000E+00 -0.45593999997E+02  0.45594000000E+02  0.51100000000E-03 0.  1.
    9900012    2    1    2    0    0  0.34450222531E+01  0.13040916223E+02  0.41251540934E+02  0.47787270701E+02  0.19999998433E+02 0.  0.
        -12    1    1    2    0    0 -0.34450222531E+01 -0.13040916223E+02 -0.41251540934E+02  0.43400729299E+02  0.00000000000E+00 0.  1.
         11    1    3    3    0    0  0.50801006239E+01  0.75322264954E+01  0.32414758316E+02  0.33663903744E+02  0.51100000000E-03 0. -1.
        -11    1    3    3    0    0  0.11688630514E+01  0.51425996434E+01  0.47350823306E+00  0.52949770758E+01  0.51100000000E-03 0.  1.
        -12    1    3    3    0    0 -0.28039414223E+01  0.36609008366E+00  0.83632743855E+01  0.88283898813E+01  0.00000000000E+00 0.  1.
</event>
<event>
 7    1  0.2430096E-009  0.4778727E+02  0.7816164E-02  0.1312668E+00
        -11   -1    0    0    0    0  0.00000000000E+00  0.00000000000E+00  0.45593999997E+02  0.45594000000E+02  0.51100000000E-03 0.  1.
         11   -1    0    0    0    0 -0.00000000000E+00 -0.00000000000E+00 -0.45593999997E+02  0.45594000000E+02  0.51100000000E-03 0. -1.
    9900012    2    1    2    0    0 -0.13373517730E+02  0.18608983206E+02 -0.36857542081E+02  0.47787266819E+02  0.19999980734E+02 0.  0.
        -12    1    1    2    0    0  0.13373517730E+02 -0.18608983206E+02  0.36857542081E+02  0.43400733181E+02  0.00000000000E+00 0.  1.
         11    1    3    3    0    0  0.30652565534E+01  0.76057469245E+01 -0.10510729106E+02  0.13331114380E+02  0.51100000000E-03 0. -1.
        -11    1    3    3    0    0 -0.16925073725E+02  0.98129301477E+01 -0.26720611716E+02  0.33117107504E+02  0.51100000000E-03 0.  1.
        -12    1    3    3    0    0  0.48629944187E+00  0.11903061334E+01  0.37379874111E+00  0.13390449347E+01  0.00000000000E+00 0.  1.
</event>
<event>
 7    1  0.2430096E-009  0.4778727E+02  0.7816164E-02  0.1312668E+00
        -11   -1    0    0    0    0  0.00000000000E+00  0.00000000000E+00  0.45593999997E+02  0.45594000000E+02  0.51100000000E-03 0.  1.
         11   -1    0    0    0    0 -0.00000000000E+00 -0.00000000000E+00 -0.45593999997E+02  0.45594000000E+02  0.51100000000E-03 0. -1.
    9900012    2    1    2    0    0  0.26218341546E+02 -0.46408738600E+01 -0.34273670997E+02  0.47787266513E+02  0.19999979337E+02 0.  0.
        -12    1    1    2    0    0 -0.26218341546E+02  0.46408738600E+01  0.34273670997E+02  0.43400733487E+02  0.00000000000E+00 0.  1.
         11    1    3    3    0    0  0.15599980894E+02 -0.67705150370E+01 -0.24417084332E+02  0.29755558898E+02  0.51100000000E-03 0. -1.
        -11    1    3    3    0    0  0.11242079536E+01  0.25227995260E+01  0.15647287550E+01  0.31743877062E+01  0.51100000000E-03 0.  1.
        -12    1    3    3    0    0  0.94941526982E+01 -0.39315834898E+00 -0.11421315420E+02  0.14857319908E+02  0.00000000000E+00 0.  1.
</event>
<event>
 7    1  0.2430096E-009  0.4778728E+02  0.7816164E-02  0.1312668E+00
        -11   -1    0    0    0    0  0.00000000000E+00  0.00000000000E+00  0.45593999997E+02  0.45594000000E+02  0.51100000000E-03 0.  1.
         11   -1    0    0    0    0 -0.00000000000E+00 -0.00000000000E+00 -0.45593999997E+02  0.45594000000E+02  0.51100000000E-03 0. -1.
    9900012    2    1    2    0    0 -0.71479778435E+00 -0.41418530396E+02  0.12946706964E+02  0.47787276305E+02  0.20000023985E+02 0.  0.
        -12    1    1    2    0    0  0.71479778435E+00  0.41418530396E+02 -0.12946706964E+02  0.43400723695E+02  0.00000000000E+00 0.  1.
         11    1    3    3    0    0  0.25299926685E+01 -0.15698599184E+02  0.97375906346E+01  0.18645845405E+02  0.51100000000E-03 0. -1.
        -11    1    3    3    0    0  0.13128703243E+01 -0.14836541246E+02  0.73853577980E+01  0.16624984051E+02  0.51100000000E-03 0.  1.
        -12    1    3    3    0    0 -0.45576607772E+01 -0.10883389965E+02 -0.41762414686E+01  0.12516446848E+02  0.00000000000E+00 0.  1.
</event>
<event>
 7    1  0.2430096E-009  0.4778728E+02  0.7816164E-02  0.1312668E+00
        -11   -1    0    0    0    0  0.00000000000E+00  0.00000000000E+00  0.45593999997E+02  0.45594000000E+02  0.51100000000E-03 0.  1.
         11   -1    0    0    0    0 -0.00000000000E+00 -0.00000000000E+00 -0.45593999997E+02  0.45594000000E+02  0.51100000000E-03 0. -1.
    9900012    2    1    2    0    0  0.33898303508E+02  0.18649171678E+02 -0.19665612728E+02  0.47787275248E+02  0.20000019168E+02 0.  0.
        -12    1    1    2    0    0 -0.33898303508E+02 -0.18649171678E+02  0.19665612728E+02  0.43400724752E+02  0.00000000000E+00 0.  1.
         11    1    3    3    0    0  0.97876642220E+00  0.33408654837E+01 -0.23747744871E+01  0.42141333646E+01  0.51100000000E-03 0. -1.
        -11    1    3    3    0    0  0.20910201627E+02  0.18426069268E+01 -0.14002521375E+02  0.25232961330E+02  0.51100000000E-03 0.  1.
        -12    1    3    3    0    0  0.12009335459E+02  0.13465699268E+02 -0.32883168654E+01  0.18340180553E+02  0.00000000000E+00 0.  1.
</event>
<event>
 7    1  0.2430096E-009  0.4778727E+02  0.7816164E-02  0.1312668E+00
        -11   -1    0    0    0    0  0.00000000000E+00  0.00000000000E+00  0.45593999997E+02  0.45594000000E+02  0.51100000000E-03 0.  1.
         11   -1    0    0    0    0 -0.00000000000E+00 -0.00000000000E+00 -0.45593999997E+02  0.45594000000E+02  0.51100000000E-03 0. -1.
    9900012    2    1    2    0    0  0.82648636733E+01 -0.20326267631E+02 -0.37445402425E+02  0.47787270858E+02  0.19999999149E+02 0.  0.
        -12    1    1    2    0    0 -0.82648636733E+01  0.20326267631E+02  0.37445402425E+02  0.43400729142E+02  0.00000000000E+00 0.  1.
         11    1    3    3    0    0  0.11278188328E+02 -0.16716106218E+02 -0.32136814500E+02  0.37939433121E+02  0.51100000000E-03 0. -1.
        -11    1    3    3    0    0 -0.41612258932E+01  0.12526159902E+00 -0.38687658249E+01  0.56832069003E+01  0.51100000000E-03 0.  1.
         12    1    3    3    0    0  0.11479012382E+01 -0.37354230114E+01 -0.14398220998E+01  0.41646308366E+01  0.00000000000E+00 0. -1.
</event>
<event>
 7    1  0.2430096E-009  0.4778727E+02  0.7816164E-02  0.1312668E+00
        -11   -1    0    0    0    0  0.00000000000E+00  0.00000000000E+00  0.45593999997E+02  0.45594000000E+02  0.51100000000E-03 0.  1.
         11   -1    0    0    0    0 -0.00000000000E+00 -0.00000000000E+00 -0.45593999997E+02  0.45594000000E+02  0.51100000000E-03 0. -1.
    9900012    2    1    2    0    0  0.21229684409E+02  0.25942627807E+02 -0.27566360413E+02  0.47787266549E+02  0.19999979504E+02 0.  0.
        -12    1    1    2    0    0 -0.21229684409E+02 -0.25942627807E+02  0.27566360413E+02  0.43400733451E+02  0.00000000000E+00 0.  1.
         11    1    3    3    0    0  0.12442327645E+02  0.20740735041E+02 -0.13854824631E+02  0.27873747022E+02  0.51100000000E-03 0. -1.
        -11    1    3    3    0    0 -0.16919345088E+01  0.53316535810E+00 -0.55706977055E+01  0.58463305473E+01  0.51100000000E-03 0.  1.
         12    1    3    3    0    0  0.10479291273E+02  0.46687274081E+01 -0.81408380767E+01  0.14067188979E+02  0.00000000000E+00 0. -1.
</event>
<event>
 7    1  0.2430096E-009  0.4778727E+02  0.7816164E-02  0.1312668E+00
        -11   -1    0    0    0    0  0.00000000000E+00  0.00000000000E+00  0.45593999997E+02  0.45594000000E+02  0.51100000000E-03 0.  1.
         11   -1    0    0    0    0 -0.00000000000E+00 -0.00000000000E+00 -0.45593999997E+02  0.45594000000E+02  0.51100000000E-03 0. -1.
    9900012    2    1    2    0    0 -0.46796181326E+01 -0.28682333983E+02 -0.32234271141E+02  0.47787270231E+02  0.19999996289E+02 0.  0.
        -12    1    1    2    0    0  0.46796181326E+01  0.28682333983E+02  0.32234271141E+02  0.43400729769E+02  0.00000000000E+00 0.  1.
         11    1    3    3    0    0 -0.39958174105E+01 -0.14237506601E+02 -0.25302537739E+02  0.29306851883E+02  0.51100000000E-03 0. -1.
        -11    1    3    3    0    0 -0.26889005062E+01 -0.54892280324E+01  0.11878889922E+01  0.62267881643E+01  0.51100000000E-03 0.  1.
         12    1    3    3    0    0  0.20050997841E+01 -0.89555993498E+01 -0.81196223934E+01  0.12253630183E+02  0.00000000000E+00 0. -1.
</event>
<event>
 7    1  0.2430096E-009  0.4778726E+02  0.7816164E-02  0.1312668E+00
        -11   -1    0    0    0    0  0.00000000000E+00  0.00000000000E+00  0.45593999997E+02  0.45594000000E+02  0.51100000000E-03 0.  1.
         11   -1    0    0    0    0 -0.00000000000E+00 -0.00000000000E+00 -0.45593999997E+02  0.45594000000E+02  0.51100000000E-03 0. -1.
    9900012    2    1    2    0    0  0.64673795286E+01  0.10187953025E+02 -0.41689358387E+02  0.47787262823E+02  0.19999962516E+02 0.  0.
        -12    1    1    2    0    0 -0.64673795286E+01 -0.10187953025E+02  0.41689358387E+02  0.43400737177E+02  0.00000000000E+00 0.  1.
         11    1    3    3    0    0 -0.15585742185E+01 -0.14739018825E+01 -0.22695431855E+02  0.22796582369E+02  0.51100000000E-03 0. -1.
        -11    1    3    3    0    0  0.15196922679E+01  0.90098667546E+01 -0.11936193365E+02  0.15031961809E+02  0.51100000000E-03 0.  1.
         12    1    3    3    0    0  0.65062614792E+01  0.26519881534E+01 -0.70577331665E+01  0.99587186450E+01  0.00000000000E+00 0. -1.
</event>
<event>
 7    1  0.2430096E-009  0.4778727E+02  0.7816164E-02  0.1312668E+00
        -11   -1    0    0    0    0  0.00000000000E+00  0.00000000000E+00  0.45593999997E+02  0.45594000000E+02  0.51100000000E-03 0. -1.
         11   -1    0    0    0    0 -0.00000000000E+00 -0.00000000000E+00 -0.45593999997E+02  0.45594000000E+02  0.51100000000E-03 0.  1.
    9900012    2    1    2    0    0  0.99767375898E+01  0.37649061517E+02 -0.19147746943E+02  0.47787270293E+02  0.19999996576E+02 0.  0.
        -12    1    1    2    0    0 -0.99767375898E+01 -0.37649061517E+02  0.19147746943E+02  0.43400729707E+02  0.00000000000E+00 0.  1.
         11    1    3    3    0    0  0.97887271639E+01  0.22679446740E+02 -0.17225573482E+02  0.30114728390E+02  0.51100000000E-03 0. -1.
        -11    1    3    3    0    0 -0.17257460905E+01 -0.22376765728E+00 -0.15874059758E+01  0.23554467785E+01  0.51100000000E-03 0.  1.
         12    1    3    3    0    0  0.19137565164E+01  0.15193382435E+02 -0.33476748496E+00  0.15317095125E+02  0.00000000000E+00 0. -1.
</event>
<event>
 7    1  0.2430096E-009  0.4778727E+02  0.7816164E-02  0.1312668E+00
        -11   -1    0    0    0    0  0.00000000000E+00  0.00000000000E+00  0.45593999997E+02  0.45594000000E+02  0.51100000000E-03 0. -1.
         11   -1    0    0    0    0 -0.00000000000E+00 -0.00000000000E+00 -0.45593999997E+02  0.45594000000E+02  0.51100000000E-03 0.  1.
    9900012    2    1    2    0    0 -0.37183485639E+02 -0.22149410740E+02 -0.32272479392E+01  0.47787272706E+02  0.20000007575E+02 0.  0.
        -12    1    1    2    0    0  0.37183485639E+02  0.22149410740E+02  0.32272479392E+01  0.43400727294E+02  0.00000000000E+00 0.  1.
         11    1    3    3    0    0 -0.29387001553E+01 -0.34237735802E+01  0.32717427093E+01  0.55733728341E+01  0.51100000000E-03 0. -1.
        -11    1    3    3    0    0 -0.25541783216E+02 -0.67906058488E+01 -0.73072863297E+01  0.27420639151E+02  0.51100000000E-03 0.  1.
        -12    1    3    3    0    0 -0.87030022676E+01 -0.11935031310E+02  0.80829568112E+00  0.14793260721E+02  0.00000000000E+00 0.  1.
</event>
<event>
 7    1  0.2430096E-009  0.4778727E+02  0.7816164E-02  0.1312668E+00
        -11   -1    0    0    0    0  0.00000000000E+00  0.00000000000E+00  0.45593999997E+02  0.45594000000E+02  0.51100000000E-03 0.  1.
         11   -1    0    0    0    0 -0.00000000000E+00 -0.00000000000E+00 -0.45593999997E+02  0.45594000000E+02  0.51100000000E-03 0. -1.
    9900012    2    1    2    0    0  0.31859016733E+01  0.28508568380E+02 -0.32568927196E+02  0.47787268909E+02  0.19999990264E+02 0.  0.
        -12    1    1    2    0    0 -0.31859016733E+01 -0.28508568380E+02  0.32568927196E+02  0.43400731091E+02  0.00000000000E+00 0.  1.
         11    1    3    3    0    0  0.42039439834E+01  0.20080192719E+02 -0.27529402153E+02  0.34333005517E+02  0.51100000000E-03 0. -1.
        -11    1    3    3    0    0 -0.12988567901E-01  0.10241008621E+02 -0.33337638047E+01  0.10769977142E+02  0.51100000000E-03 0.  1.
         12    1    3    3    0    0 -0.10050537423E+01 -0.18126329599E+01 -0.17057612378E+01  0.26842862501E+01  0.00000000000E+00 0. -1.
</event>
<event>
 7    1  0.2430096E-009  0.4778728E+02  0.7816164E-02  0.1312668E+00
        -11   -1    0    0    0    0  0.00000000000E+00  0.00000000000E+00  0.45593999997E+02  0.45594000000E+02  0.51100000000E-03 0.  1.
         11   -1    0    0    0    0 -0.00000000000E+00 -0.00000000000E+00 -0.45593999997E+02  0.45594000000E+02  0.51100000000E-03 0. -1.
    9900012    2    1    2    0    0  0.18050096973E+02 -0.39034935982E+02  0.58387081688E+01  0.47787277184E+02  0.20000027993E+02 0.  0.
        -12    1    1    2    0    0 -0.18050096973E+02  0.39034935982E+02 -0.58387081688E+01  0.43400722816E+02  0.00000000000E+00 0.  1.
         11    1    3    3    0    0  0.37453695751E+01 -0.10601989278E+02 -0.16549587920E+00  0.11245326098E+02  0.51100000000E-03 0. -1.
        -11    1    3    3    0    0  0.57420432521E+01 -0.59252025995E+01 -0.54364475911E+01  0.98809943441E+01  0.51100000000E-03 0.  1.
        -12    1    3    3    0    0  0.85626841457E+01 -0.22507744105E+02  0.11440651639E+02  0.26660956742E+02  0.00000000000E+00 0.  1.
</event>
<event>
 7    1  0.2430096E-009  0.4778727E+02  0.7816164E-02  0.1312668E+00
        -11   -1    0    0    0    0  0.00000000000E+00  0.00000000000E+00  0.45593999997E+02  0.45594000000E+02  0.51100000000E-03 0.  1.
         11   -1    0    0    0    0 -0.00000000000E+00 -0.00000000000E+00 -0.45593999997E+02  0.45594000000E+02  0.51100000000E-03 0. -1.
    9900012    2    1    2    0    0  0.37617544982E+00  0.12891350610E+02 -0.41440254415E+02  0.47787272881E+02  0.20000008373E+02 0.  0.
        -12    1    1    2    0    0 -0.37617544982E+00 -0.12891350610E+02  0.41440254415E+02  0.43400727119E+02  0.00000000000E+00 0.  1.
         11    1    3    3    0    0 -0.42457632260E+01  0.80580922534E+01 -0.34797636741E+02  0.35969916308E+02  0.51100000000E-03 0. -1.
        -11    1    3    3    0    0  0.19142276258E+01  0.62086322347E+01 -0.32519496554E+01  0.72654358748E+01  0.51100000000E-03 0.  1.
        -12    1    3    3    0    0  0.27077110501E+01 -0.13753738785E+01 -0.33906680179E+01  0.45519206983E+01  0.00000000000E+00 0.  1.
</event>
<event>
 7    1  0.2430096E-009  0.4778728E+02  0.7816164E-02  0.1312668E+00
        -11   -1    0    0    0    0  0.00000000000E+00  0.00000000000E+00  0.45593999997E+02  0.45594000000E+02  0.51100000000E-03 0. -1.
         11   -1    0    0    0    0 -0.00000000000E+00 -0.00000000000E+00 -0.45593999997E+02  0.45594000000E+02  0.51100000000E-03 0.  1.
    9900012    2    1    2    0    0  0.35371204850E+02 -0.24872344508E+02  0.37237918090E+01  0.47787282503E+02  0.20000052243E+02 0.  0.
        -12    1    1    2    0    0 -0.35371204850E+02  0.24872344508E+02 -0.37237918090E+01  0.43400717497E+02  0.00000000000E+00 0.  1.
         11    1    3    3    0    0  0.10764793190E+02 -0.86996183771E+01  0.87006469582E+01  0.16348253426E+02  0.51100000000E-03 0. -1.
        -11    1    3    3    0    0  0.85048375520E+00 -0.36672577048E+01  0.10828032094E+01  0.39172139006E+01  0.51100000000E-03 0.  1.
         12    1    3    3    0    0  0.23755927905E+02 -0.12505468426E+02 -0.60596583587E+01  0.27521815176E+02  0.00000000000E+00 0. -1.
</event>
<event>
 7    1  0.2430096E-009  0.4778726E+02  0.7816164E-02  0.1312668E+00
        -11   -1    0    0    0    0  0.00000000000E+00  0.00000000000E+00  0.45593999997E+02  0.45594000000E+02  0.51100000000E-03 0.  1.
         11   -1    0    0    0    0 -0.00000000000E+00 -0.00000000000E+00 -0.45593999997E+02  0.45594000000E+02  0.51100000000E-03 0. -1.
    9900012    2    1    2    0    0  0.26406616007E+02 -0.27757845254E+02 -0.20391584990E+02  0.47787261751E+02  0.19999957629E+02 0.  0.
        -12    1    1    2    0    0 -0.26406616007E+02  0.27757845254E+02  0.20391584990E+02  0.43400738249E+02  0.00000000000E+00 0.  1.
         11    1    3    3    0    0  0.43017081360E+01  0.14048172448E+00  0.23621297465E+01  0.49095911441E+01  0.51100000000E-03 0.  1.
        -11    1    3    3    0    0  0.12822632456E+02 -0.13781588046E+02 -0.15917492639E+02  0.24651950112E+02  0.51100000000E-03 0. -1.
        -12    1    3    3    0    0  0.92822754149E+01 -0.14116738933E+02 -0.68362220979E+01  0.18225720495E+02  0.00000000000E+00 0.  1.
</event>
<event>
 7    1  0.2430096E-009  0.4778727E+02  0.7816164E-02  0.1312668E+00
        -11   -1    0    0    0    0  0.00000000000E+00  0.00000000000E+00  0.45593999997E+02  0.45594000000E+02  0.51100000000E-03 0. -1.
         11   -1    0    0    0    0 -0.00000000000E+00 -0.00000000000E+00 -0.45593999997E+02  0.45594000000E+02  0.51100000000E-03 0.  1.
    9900012    2    1    2    0    0  0.27362444888E+02 -0.33518680503E+02  0.33790257893E+01  0.47787272492E+02  0.20000006602E+02 0.  0.
        -12    1    1    2    0    0 -0.27362444888E+02  0.33518680503E+02 -0.33790257893E+01  0.43400727508E+02  0.00000000000E+00 0.  1.
         11    1    3    3    0    0  0.28623895842E+02 -0.33002515688E+02  0.17195575412E+01  0.43720136474E+02  0.51100000000E-03 0. -1.
        -11    1    3    3    0    0 -0.10396172834E-01  0.13752318992E+01  0.10161129740E+01  0.17099288564E+01  0.51100000000E-03 0.  1.
         12    1    3    3    0    0 -0.12510547810E+01 -0.18913967137E+01  0.64335527420E+00  0.23572071616E+01  0.00000000000E+00 0. -1.
</event>
<event>
 7    1  0.2430096E-009  0.4778727E+02  0.7816164E-02  0.1312668E+00
        -11   -1    0    0    0    0  0.00000000000E+00  0.00000000000E+00  0.45593999997E+02  0.45594000000E+02  0.51100000000E-03 0.  1.
         11   -1    0    0    0    0 -0.00000000000E+00 -0.00000000000E+00 -0.45593999997E+02  0.45594000000E+02  0.51100000000E-03 0. -1.
    9900012    2    1    2    0    0 -0.37489958865E+02 -0.20743998173E+02 -0.69146745378E+01  0.47787271897E+02  0.20000003887E+02 0.  0.
        -12    1    1    2    0    0  0.37489958865E+02  0.20743998173E+02  0.69146745378E+01  0.43400728103E+02  0.00000000000E+00 0.  1.
         11    1    3    3    0    0 -0.34618877399E+02 -0.16503938400E+02 -0.51277579817E-01  0.38351652960E+02  0.51100000000E-03 0.  1.
        -11    1    3    3    0    0 -0.13235697495E+01 -0.46484552641E+01 -0.46736234107E+01  0.67232974997E+01  0.51100000000E-03 0. -1.
        -12    1    3    3    0    0 -0.15475117166E+01  0.40839549180E+00 -0.21897735473E+01  0.27123214372E+01  0.00000000000E+00 0.  1.
</event>
<event>
 7    1  0.2430096E-009  0.4778727E+02  0.7816164E-02  0.1312668E+00
        -11   -1    0    0    0    0  0.00000000000E+00  0.00000000000E+00  0.45593999997E+02  0.45594000000E+02  0.51100000000E-03 0.  1.
         11   -1    0    0    0    0 -0.00000000000E+00 -0.00000000000E+00 -0.45593999997E+02  0.45594000000E+02  0.51100000000E-03 0. -1.
    9900012    2    1    2    0    0 -0.14683745207E+02  0.30609309910E+02 -0.27038505275E+02  0.47787274269E+02  0.20000014702E+02 0.  0.
        -12    1    1    2    0    0  0.14683745207E+02 -0.30609309910E+02  0.27038505275E+02  0.43400725731E+02  0.00000000000E+00 0.  1.
         11    1    3    3    0    0  0.13086721695E+01  0.10237681812E+02 -0.21852673621E+01  0.10549793620E+02  0.51100000000E-03 0.  1.
        -11    1    3    3    0    0 -0.13472395628E+02  0.20874461701E+02 -0.23963574495E+02  0.34518132889E+02  0.51100000000E-03 0. -1.
         12    1    3    3    0    0 -0.25200217481E+01 -0.50283360254E+00 -0.88966341753E+00  0.27193477599E+01  0.00000000000E+00 0. -1.
</event>
<event>
 7    1  0.2430096E-009  0.4778727E+02  0.7816164E-02  0.1312668E+00
        -11   -1    0    0    0    0  0.00000000000E+00  0.00000000000E+00  0.45593999997E+02  0.45594000000E+02  0.51100000000E-03 0. -1.
         11   -1    0    0    0    0 -0.00000000000E+00 -0.00000000000E+00 -0.45593999997E+02  0.45594000000E+02  0.51100000000E-03 0.  1.
    9900012    2    1    2    0    0 -0.22517858347E+02  0.15619320491E+02  0.33654213078E+02  0.47787272183E+02  0.20000005192E+02 0.  0.
        -12    1    1    2    0    0  0.22517858347E+02 -0.15619320491E+02 -0.33654213078E+02  0.43400727817E+02  0.00000000000E+00 0.  1.
         11    1    3    3    0    0 -0.59741768346E+01  0.13926639802E+02  0.10660418534E+02  0.18527995267E+02  0.51100000000E-03 0. -1.
        -11    1    3    3    0    0 -0.75438762676E+01  0.31384243314E+01  0.66062277464E+01  0.10507236636E+02  0.51100000000E-03 0.  1.
         12    1    3    3    0    0 -0.89998052452E+01 -0.14457436424E+01  0.16387566798E+02  0.18752040280E+02  0.00000000000E+00 0. -1.
</event>
<event>
 7    1  0.2430096E-009  0.4778727E+02  0.7816164E-02  0.1312668E+00
        -11   -1    0    0    0    0  0.00000000000E+00  0.00000000000E+00  0.45593999997E+02  0.45594000000E+02  0.51100000000E-03 0.  1.
         11   -1    0    0    0    0 -0.00000000000E+00 -0.00000000000E+00 -0.45593999997E+02  0.45594000000E+02  0.51100000000E-03 0. -1.
    9900012    2    1    2    0    0 -0.19093207733E+02 -0.27279077549E+02 -0.27837468623E+02  0.47787270596E+02  0.19999997957E+02 0.  0.
        -12    1    1    2    0    0  0.19093207733E+02  0.27279077549E+02  0.27837468623E+02  0.43400729404E+02  0.00000000000E+00 0.  1.
         11    1    3    3    0    0 -0.17793239963E+02 -0.23057220316E+02 -0.16837694995E+02  0.33641384782E+02  0.51100000000E-03 0. -1.
        -11    1    3    3    0    0  0.29153218473E+01 -0.20646399580E+01 -0.73331983575E+01  0.81570606250E+01  0.51100000000E-03 0.  1.
        -12    1    3    3    0    0 -0.42152896174E+01 -0.21572172747E+01 -0.36665752706E+01  0.59888251889E+01  0.00000000000E+00 0.  1.
</event>
<event>
 7    1  0.2430096E-009  0.4778727E+02  0.7816164E-02  0.1312668E+00
        -11   -1    0    0    0    0  0.00000000000E+00  0.00000000000E+00  0.45593999997E+02  0.45594000000E+02  0.51100000000E-03 0.  1.
         11   -1    0    0    0    0 -0.00000000000E+00 -0.00000000000E+00 -0.45593999997E+02  0.45594000000E+02  0.51100000000E-03 0. -1.
    9900012    2    1    2    0    0  0.34000901616E+02 -0.95155836379E+01 -0.25239167507E+02  0.47787271675E+02  0.20000002873E+02 0.  0.
        -12    1    1    2    0    0 -0.34000901616E+02  0.95155836379E+01  0.25239167507E+02  0.43400728325E+02  0.00000000000E+00 0.  1.
         11    1    3    3    0    0  0.30191816860E+02 -0.12292552729E+02 -0.20933022745E+02  0.38740729206E+02  0.51100000000E-03 0. -1.
        -11    1    3    3    0    0  0.14617050090E+01  0.21950342090E+00  0.16109520285E+01  0.21863050986E+01  0.51100000000E-03 0.  1.
         12    1    3    3    0    0  0.23473797470E+01  0.25574656705E+01 -0.59170967913E+01  0.68602373698E+01  0.00000000000E+00 0. -1.
</event>
<event>
 7    1  0.2430096E-009  0.4778728E+02  0.7816164E-02  0.1312668E+00
        -11   -1    0    0    0    0  0.00000000000E+00  0.00000000000E+00  0.45593999997E+02  0.45594000000E+02  0.51100000000E-03 0.  1.
         11   -1    0    0    0    0 -0.00000000000E+00 -0.00000000000E+00 -0.45593999997E+02  0.45594000000E+02  0.51100000000E-03 0. -1.
    9900012    2    1    2    0    0  0.88724220352E+01 -0.50614295468E+00 -0.42481132863E+02  0.47787277623E+02  0.20000029996E+02 0.  0.
        -12    1    1    2    0    0 -0.88724220352E+01  0.50614295468E+00  0.42481132863E+02  0.43400722377E+02  0.00000000000E+00 0.  1.
         11    1    3    3    0    0  0.82084042847E+01  0.19890608216E+01 -0.39019079578E+02  0.39922710770E+02  0.51100000000E-03 0. -1.
        -11    1    3    3    0    0 -0.18278724278E+01 -0.38043113699E+01 -0.17435195465E+01  0.45665920862E+01  0.51100000000E-03 0.  1.
        -12    1    3    3    0    0  0.24918901784E+01  0.13091075937E+01 -0.17185337390E+01  0.32979747672E+01  0.00000000000E+00 0.  1.
</event>
<event>
 7    1  0.2430096E-009  0.4778727E+02  0.7816164E-02  0.1312668E+00
        -11   -1    0    0    0    0  0.00000000000E+00  0.00000000000E+00  0.45593999997E+02  0.45594000000E+02  0.51100000000E-03 0.  1.
         11   -1    0    0    0    0 -0.00000000000E+00 -0.00000000000E+00 -0.45593999997E+02  0.45594000000E+02  0.51100000000E-03 0. -1.
    9900012    2    1    2    0    0 -0.32688652416E+02 -0.42501109322E+01 -0.28231400584E+02  0.47787269377E+02  0.19999992398E+02 0.  0.
        -12    1    1    2    0    0  0.32688652416E+02  0.42501109322E+01  0.28231400584E+02  0.43400730623E+02  0.00000000000E+00 0.  1.
         11    1    3    3    0    0 -0.83493153642E+01 -0.12595152303E+01 -0.45348835727E+01  0.95844986799E+01  0.51100000000E-03 0. -1.
        -11    1    3    3    0    0 -0.18446609151E+02 -0.90709986164E+01 -0.12130437290E+02  0.23868554924E+02  0.51100000000E-03 0.  1.
        -12    1    3    3    0    0 -0.58927279008E+01  0.60804029145E+01 -0.11566079721E+02  0.14334215773E+02  0.00000000000E+00 0.  1.
</event>
<event>
 7    1  0.2430096E-009  0.4778727E+02  0.7816164E-02  0.1312668E+00
        -11   -1    0    0    0    0  0.00000000000E+00  0.00000000000E+00  0.45593999997E+02  0.45594000000E+02  0.51100000000E-03 0.  1.
         11   -1    0    0    0    0 -0.00000000000E+00 -0.00000000000E+00 -0.45593999997E+02  0.45594000000E+02  0.51100000000E-03 0. -1.
    9900012    2    1    2    0    0  0.27738674460E+02 -0.47861165679E+01 -0.33034562946E+02  0.47787270494E+02  0.19999997491E+02 0.  0.
        -12    1    1    2    0    0 -0.27738674460E+02  0.47861165679E+01  0.33034562946E+02  0.43400729506E+02  0.00000000000E+00 0.  1.
         11    1    3    3    0    0  0.19101813591E+02 -0.10846969301E+01 -0.11476657057E+02  0.22310748696E+02  0.51100000000E-03 0. -1.
        -11    1    3    3    0    0  0.78190449660E+01 -0.48349737192E+01 -0.90826172688E+01  0.12923171892E+02  0.51100000000E-03 0.  1.
         12    1    3    3    0    0  0.81781590291E+00  0.11335540815E+01 -0.12475288620E+02  0.12553349906E+02  0.00000000000E+00 0. -1.
</event>
<event>
 7    1  0.2430096E-009  0.4778727E+02  0.7816164E-02  0.1312668E+00
        -11   -1    0    0    0    0  0.00000000000E+00  0.00000000000E+00  0.45593999997E+02  0.45594000000E+02  0.51100000000E-03 0.  1.
         11   -1    0    0    0    0 -0.00000000000E+00 -0.00000000000E+00 -0.45593999997E+02  0.45594000000E+02  0.51100000000E-03 0. -1.
    9900012    2    1    2    0    0  0.42856222599E+02  0.43217650954E+01 -0.53187976468E+01  0.47787273308E+02  0.20000010321E+02 0.  0.
        -12    1    1    2    0    0 -0.42856222599E+02 -0.43217650954E+01  0.53187976468E+01  0.43400726692E+02  0.00000000000E+00 0.  1.
         11    1    3    3    0    0  0.78355654858E+01 -0.50391838355E+01  0.22539143723E+01  0.95848625691E+01  0.51100000000E-03 0.  1.
        -11    1    3    3    0    0  0.19732498035E+02  0.80766075178E+01 -0.54753255504E+00  0.21328451886E+02  0.51100000000E-03 0. -1.
        -12    1    3    3    0    0  0.15288159078E+02  0.12843414130E+01 -0.70251794641E+01  0.16873958853E+02  0.00000000000E+00 0.  1.
</event>
<event>
 7    1  0.2430096E-009  0.4778727E+02  0.7816164E-02  0.1312668E+00
        -11   -1    0    0    0    0  0.00000000000E+00  0.00000000000E+00  0.45593999997E+02  0.45594000000E+02  0.51100000000E-03 0. -1.
         11   -1    0    0    0    0 -0.00000000000E+00 -0.00000000000E+00 -0.45593999997E+02  0.45594000000E+02  0.51100000000E-03 0.  1.
    9900012    2    1    2    0    0 -0.40130420799E+02  0.16512536510E+02  0.71327849045E+00  0.47787270724E+02  0.19999998539E+02 0.  0.
        -12    1    1    2    0    0  0.40130420799E+02 -0.16512536510E+02 -0.71327849045E+00  0.43400729276E+02  0.00000000000E+00 0.  1.
         11    1    3    3    0    0 -0.12308468909E+01 -0.31597768988E+01 -0.11115356812E+01  0.35685691742E+01  0.51100000000E-03 0.  1.
        -11    1    3    3    0    0 -0.21816471554E+02  0.13539723529E+02 -0.16858886890E+01  0.25731785116E+02  0.51100000000E-03 0. -1.
        -12    1    3    3    0    0 -0.17083102353E+02  0.61325898797E+01  0.35107028606E+01  0.18486916434E+02  0.00000000000E+00 0.  1.
</event>
<event>
 7    1  0.2430096E-009  0.4778727E+02  0.7816164E-02  0.1312668E+00
        -11   -1    0    0    0    0  0.00000000000E+00  0.00000000000E+00  0.45593999997E+02  0.45594000000E+02  0.51100000000E-03 0.  1.
         11   -1    0    0    0    0 -0.00000000000E+00 -0.00000000000E+00 -0.45593999997E+02  0.45594000000E+02  0.51100000000E-03 0. -1.
    9900012    2    1    2    0    0  0.20946501538E+02  0.23926032806E+02 -0.29536628449E+02  0.47787269675E+02  0.19999993758E+02 0.  0.
        -12    1    1    2    0    0 -0.20946501538E+02 -0.23926032806E+02  0.29536628449E+02  0.43400730325E+02  0.00000000000E+00 0.  1.
         11    1    3    3    0    0  0.20692405610E+01 -0.22821257578E+01 -0.49636133634E+01  0.58418586389E+01  0.51100000000E-03 0. -1.
        -11    1    3    3    0    0  0.16393921851E+02  0.20006348719E+02 -0.13925757460E+02  0.29375863967E+02  0.51100000000E-03 0.  1.
        -12    1    3    3    0    0  0.24833391259E+01  0.62018098457E+01 -0.10647257626E+02  0.12569547069E+02  0.00000000000E+00 0.  1.
</event>
<event>
 7    1  0.2430096E-009  0.4778729E+02  0.7816164E-02  0.1312668E+00
        -11   -1    0    0    0    0  0.00000000000E+00  0.00000000000E+00  0.45593999997E+02  0.45594000000E+02  0.51100000000E-03 0.  1.
         11   -1    0    0    0    0 -0.00000000000E+00 -0.00000000000E+00 -0.45593999997E+02  0.45594000000E+02  0.51100000000E-03 0. -1.
    9900012    2    1    2    0    0  0.20671569367E+01 -0.31193476459E+02 -0.30105071089E+02  0.47787292440E+02  0.20000097553E+02 0.  0.
        -12    1    1    2    0    0 -0.20671569367E+01  0.31193476459E+02  0.30105071089E+02  0.43400707560E+02  0.00000000000E+00 0.  1.
         11    1    3    3    0    0 -0.50774800635E+00 -0.64245924457E+01 -0.11838026790E+02  0.13478578362E+02  0.51100000000E-03 0. -1.
        -11    1    3    3    0    0  0.15111795182E+01 -0.58697851127E+01  0.21834009168E+01  0.64424592067E+01  0.51100000000E-03 0.  1.
        -12    1    3    3    0    0  0.10637254248E+01 -0.18899098901E+02 -0.20450445216E+02  0.27866254872E+02  0.00000000000E+00 0.  1.
</event>
<event>
 7    1  0.2430096E-009  0.4778727E+02  0.7816164E-02  0.1312668E+00
        -11   -1    0    0    0    0  0.00000000000E+00  0.00000000000E+00  0.45593999997E+02  0.45594000000E+02  0.51100000000E-03 0. -1.
         11   -1    0    0    0    0 -0.00000000000E+00 -0.00000000000E+00 -0.45593999997E+02  0.45594000000E+02  0.51100000000E-03 0.  1.
    9900012    2    1    2    0    0  0.32332103344E+02 -0.30408132443E+01  0.28792574429E+02  0.47787265052E+02  0.19999972678E+02 0.  0.
        -12    1    1    2    0    0 -0.32332103344E+02  0.30408132443E+01 -0.28792574429E+02  0.43400734948E+02  0.00000000000E+00 0.  1.
         11    1    3    3    0    0  0.23491147617E+02 -0.49679715810E+01  0.25549389935E+02  0.35061176310E+02  0.51100000000E-03 0. -1.
        -11    1    3    3    0    0  0.20234385795E+00 -0.22966428721E+01 -0.58102552758E+00  0.23776253792E+01  0.51100000000E-03 0.  1.
         12    1    3    3    0    0  0.86386118690E+01  0.42238012088E+01  0.38242100215E+01  0.10348463362E+02  0.00000000000E+00 0. -1.
</event>
<event>
 7    1  0.2430096E-009  0.4778727E+02  0.7816164E-02  0.1312668E+00
        -11   -1    0    0    0    0  0.00000000000E+00  0.00000000000E+00  0.45593999997E+02  0.45594000000E+02  0.51100000000E-03 0.  1.
         11   -1    0    0    0    0 -0.00000000000E+00 -0.00000000000E+00 -0.45593999997E+02  0.45594000000E+02  0.51100000000E-03 0. -1.
    9900012    2    1    2    0    0 -0.44134239603E+01  0.38566602666E+02  0.19410370091E+02  0.47787267065E+02  0.19999981856E+02 0.  0.
        -12    1    1    2    0    0  0.44134239603E+01 -0.38566602666E+02 -0.19410370091E+02  0.43400732935E+02  0.00000000000E+00 0.  1.
         11    1    3    3    0    0 -0.79230021476E+01  0.20860855907E+02  0.10137355450E+02  0.24509493017E+02  0.51100000000E-03 0. -1.
        -11    1    3    3    0    0  0.44119582690E+01  0.16892184365E+01  0.45401605735E+01  0.65522433554E+01  0.51100000000E-03 0.  1.
         12    1    3    3    0    0 -0.90238008175E+00  0.16016528323E+02  0.47328540676E+01  0.16725530692E+02  0.00000000000E+00 0. -1.
</event>
<event>
 7    1  0.2430096E-009  0.4778727E+02  0.7816164E-02  0.1312668E+00
        -11   -1    0    0    0    0  0.00000000000E+00  0.00000000000E+00  0.45593999997E+02  0.45594000000E+02  0.51100000000E-03 0.  1.
         11   -1    0    0    0    0 -0.00000000000E+00 -0.00000000000E+00 -0.45593999997E+02  0.45594000000E+02  0.51100000000E-03 0. -1.
    9900012    2    1    2    0    0 -0.71940931119E+00 -0.41529204146E+02 -0.12586934724E+02  0.47787271061E+02  0.20000000073E+02 0.  0.
        -12    1    1    2    0    0  0.71940931119E+00  0.41529204146E+02  0.12586934724E+02  0.43400728939E+02  0.00000000000E+00 0.  1.
         11    1    3    3    0    0  0.25734380779E+01 -0.78166383263E+01 -0.10181754921E+02  0.13091621435E+02  0.51100000000E-03 0. -1.
        -11    1    3    3    0    0  0.18501865640E+01 -0.53121347246E+01  0.69232079104E+00  0.56675633205E+01  0.51100000000E-03 0.  1.
         12    1    3    3    0    0 -0.51430339530E+01 -0.28400431095E+02 -0.30975005941E+01  0.29028086305E+02  0.00000000000E+00 0. -1.
</event>
<event>
 7    1  0.2430096E-009  0.4778727E+02  0.7816164E-02  0.1312668E+00
        -11   -1    0    0    0    0  0.00000000000E+00  0.00000000000E+00  0.45593999997E+02  0.45594000000E+02  0.51100000000E-03 0. -1.
         11   -1    0    0    0    0 -0.00000000000E+00 -0.00000000000E+00 -0.45593999997E+02  0.45594000000E+02  0.51100000000E-03 0.  1.
    9900012    2    1    2    0    0  0.58087421586E+01  0.19033762682E+02  0.38569393062E+02  0.47787266268E+02  0.19999978223E+02 0.  0.
        -12    1    1    2    0    0 -0.58087421586E+01 -0.19033762682E+02 -0.38569393062E+02  0.43400733732E+02  0.00000000000E+00 0.  1.
         11    1    3    3    0    0 -0.10908492421E+01  0.22423324120E+01  0.21628859761E+02  0.21772128548E+02  0.51100000000E-03 0. -1.
        -11    1    3    3    0    0  0.70285366099E+01  0.15619578576E+02  0.17685883434E+02  0.24620358138E+02  0.51100000000E-03 0.  1.
        -12    1    3    3    0    0 -0.12894520931E+00  0.11718516947E+01 -0.74535013251E+00  0.13947795817E+01  0.00000000000E+00 0.  1.
</event>
<event>
 7    1  0.2430096E-009  0.4778727E+02  0.7816164E-02  0.1312668E+00
        -11   -1    0    0    0    0  0.00000000000E+00  0.00000000000E+00  0.45593999997E+02  0.45594000000E+02  0.51100000000E-03 0.  1.
         11   -1    0    0    0    0 -0.00000000000E+00 -0.00000000000E+00 -0.45593999997E+02  0.45594000000E+02  0.51100000000E-03 0. -1.
    9900012    2    1    2    0    0 -0.77321295536E+01 -0.78368917510E+01 -0.41981192033E+02  0.47787272077E+02  0.20000004706E+02 0.  0.
        -12    1    1    2    0    0  0.77321295536E+01  0.78368917510E+01  0.41981192033E+02  0.43400727923E+02  0.00000000000E+00 0.  1.
         11    1    3    3    0    0 -0.44225830990E+01 -0.13570203367E+01 -0.39008750074E+02  0.39282099333E+02  0.51100000000E-03 0. -1.
        -11    1    3    3    0    0 -0.18396966139E+01 -0.33921200718E+01  0.16755575515E+00  0.38625169780E+01  0.51100000000E-03 0.  1.
         12    1    3    3    0    0 -0.14698498407E+01 -0.30877513425E+01 -0.31399977149E+01  0.46426557655E+01  0.00000000000E+00 0. -1.
</event>
<event>
 7    1  0.2430096E-009  0.4778727E+02  0.7816164E-02  0.1312668E+00
        -11   -1    0    0    0    0  0.00000000000E+00  0.00000000000E+00  0.45593999997E+02  0.45594000000E+02  0.51100000000E-03 0. -1.
         11   -1    0    0    0    0 -0.00000000000E+00 -0.00000000000E+00 -0.45593999997E+02  0.45594000000E+02  0.51100000000E-03 0.  1.
    9900012    2    1    2    0    0  0.22075810330E+02  0.79201151868E+01  0.36517853950E+02  0.47787270934E+02  0.19999999498E+02 0.  0.
        -12    1    1    2    0    0 -0.22075810330E+02 -0.79201151868E+01 -0.36517853950E+02  0.43400729066E+02  0.00000000000E+00 0.  1.
         11    1    3    3    0    0  0.81809126355E+00 -0.52096524613E+01  0.36351386163E+01  0.64049968855E+01  0.51100000000E-03 0.  1.
        -11    1    3    3    0    0  0.14190412863E+02  0.10049659438E+02  0.21898069200E+02  0.27962276499E+02  0.51100000000E-03 0. -1.
        -12    1    3    3    0    0  0.70673062027E+01  0.30801082103E+01  0.10984646134E+02  0.13419997550E+02  0.00000000000E+00 0.  1.
</event>
<event>
 7    1  0.2430096E-009  0.4778727E+02  0.7816164E-02  0.1312668E+00
        -11   -1    0    0    0    0  0.00000000000E+00  0.00000000000E+00  0.45593999997E+02  0.45594000000E+02  0.51100000000E-03 0.  1.
         11   -1    0    0    0    0 -0.00000000000E+00 -0.00000000000E+00 -0.45593999997E+02  0.45594000000E+02  0.51100000000E-03 0. -1.
    9900012    2    1    2    0    0  0.12634670918E+02  0.33480489065E+02 -0.24556978085E+02  0.47787271551E+02  0.20000002310E+02 0.  0.
        -12    1    1    2    0    0 -0.12634670918E+02 -0.33480489065E+02  0.24556978085E+02  0.43400728449E+02  0.00000000000E+00 0.  1.
         11    1    3    3    0    0  0.92928373994E+00  0.55906559509E+01 -0.12588053835E+02  0.13805002783E+02  0.51100000000E-03 0. -1.
        -11    1    3    3    0    0  0.96787664146E+01  0.20672399253E+02 -0.42428004431E+01  0.23216975816E+02  0.51100000000E-03 0.  1.
         12    1    3    3    0    0  0.20266207637E+01  0.72174338609E+01 -0.77261238072E+01  0.10765292952E+02  0.00000000000E+00 0. -1.
</event>
<event>
 7    1  0.2430096E-009  0.4778727E+02  0.7816164E-02  0.1312668E+00
        -11   -1    0    0    0    0  0.00000000000E+00  0.00000000000E+00  0.45593999997E+02  0.45594000000E+02  0.51100000000E-03 0. -1.
         11   -1    0    0    0    0 -0.00000000000E+00 -0.00000000000E+00 -0.45593999997E+02  0.45594000000E+02  0.51100000000E-03 0.  1.
    9900012    2    1    2    0    0 -0.32756235480E+02  0.14497978527E+02  0.24504303318E+02  0.47787271604E+02  0.20000002550E+02 0.  0.
        -12    1    1    2    0    0  0.32756235480E+02 -0.14497978527E+02 -0.24504303318E+02  0.43400728396E+02  0.00000000000E+00 0.  1.
         11    1    3    3    0    0 -0.42452810528E+01 -0.25269689415E+01  0.88099766936E+01  0.10100676851E+02  0.51100000000E-03 0. -1.
        -11    1    3    3    0    0 -0.95277314859E+01  0.75008021190E+01  0.16817475661E+01  0.12242057623E+02  0.51100000000E-03 0.  1.
         12    1    3    3    0    0 -0.18983222941E+02  0.95241453497E+01  0.14012579059E+02  0.25444537130E+02  0.00000000000E+00 0. -1.
</event>
<event>
 7    1  0.2430096E-009  0.4778727E+02  0.7816164E-02  0.1312668E+00
        -11   -1    0    0    0    0  0.00000000000E+00  0.00000000000E+00  0.45593999997E+02  0.45594000000E+02  0.51100000000E-03 0.  1.
         11   -1    0    0    0    0 -0.00000000000E+00 -0.00000000000E+00 -0.45593999997E+02  0.45594000000E+02  0.51100000000E-03 0. -1.
    9900012    2    1    2    0    0  0.19583899342E+02  0.34283720142E+00 -0.38729531781E+02  0.47787270942E+02  0.19999999534E+02 0.  0.
        -12    1    1    2    0    0 -0.19583899342E+02 -0.34283720142E+00  0.38729531781E+02  0.43400729058E+02  0.00000000000E+00 0.  1.
         11    1    3    3    0    0 -0.73635819352E+00  0.59114795753E+01 -0.49792440953E+01  0.77640637671E+01  0.51100000000E-03 0. -1.
        -11    1    3    3    0    0  0.10612038894E+02 -0.51425176575E+01 -0.18789841724E+02  0.22183755535E+02  0.51100000000E-03 0.  1.
         12    1    3    3    0    0  0.97082186413E+01 -0.42612471636E+00 -0.14960445962E+02  0.17839451641E+02  0.00000000000E+00 0. -1.
</event>
<event>
 7    1  0.2430096E-009  0.4778727E+02  0.7816164E-02  0.1312668E+00
        -11   -1    0    0    0    0  0.00000000000E+00  0.00000000000E+00  0.45593999997E+02  0.45594000000E+02  0.51100000000E-03 0. -1.
         11   -1    0    0    0    0 -0.00000000000E+00 -0.00000000000E+00 -0.45593999997E+02  0.45594000000E+02  0.51100000000E-03 0.  1.
    9900012    2    1    2    0    0  0.34545950243E+02  0.23299537077E+02  0.12138051828E+02  0.47787269495E+02  0.19999992936E+02 0.  0.
        -12    1    1    2    0    0 -0.34545950243E+02 -0.23299537077E+02 -0.12138051828E+02  0.43400730505E+02  0.00000000000E+00 0.  1.
         11    1    3    3    0    0  0.90386116479E+01  0.70179627434E+01 -0.52326603071E+00  0.11455221918E+02  0.51100000000E-03 0. -1.
        -11    1    3    3    0    0  0.10037034864E+02 -0.16261232991E+01  0.19369853771E+01  0.10350761250E+02  0.51100000000E-03 0.  1.
        -12    1    3    3    0    0  0.15470303730E+02  0.17907697633E+02  0.10724332482E+02  0.25981286327E+02  0.00000000000E+00 0.  1.
</event>
<event>
 7    1  0.2430096E-009  0.4778727E+02  0.7816164E-02  0.1312668E+00
        -11   -1    0    0    0    0  0.00000000000E+00  0.00000000000E+00  0.45593999997E+02  0.45594000000E+02  0.51100000000E-03 0. -1.
         11   -1    0    0    0    0 -0.00000000000E+00 -0.00000000000E+00 -0.45593999997E+02  0.45594000000E+02  0.51100000000E-03 0.  1.
    9900012    2    1    2    0    0  0.37216487566E+01  0.43160461416E+02  0.26357119206E+01  0.47787273319E+02  0.20000010371E+02 0.  0.
        -12    1    1    2    0    0 -0.37216487566E+01 -0.43160461416E+02 -0.26357119206E+01  0.43400726681E+02  0.00000000000E+00 0.  1.
         11    1    3    3    0    0  0.93415960119E+01  0.23255869295E+02 -0.44298089682E+01  0.25450423974E+02  0.51100000000E-03 0. -1.
        -11    1    3    3    0    0 -0.58804754459E+01  0.14258008355E+02  0.61807715879E+01  0.16615436540E+02  0.51100000000E-03 0.  1.
        -12    1    3    3    0    0  0.26052819059E+00  0.56465837656E+01  0.88474930098E+00  0.57214128051E+01  0.00000000000E+00 0.  1.
</event>
<event>
 7    1  0.2430096E-009  0.4778727E+02  0.7816164E-02  0.1312668E+00
        -11   -1    0    0    0    0  0.00000000000E+00  0.00000000000E+00  0.45593999997E+02  0.45594000000E+02  0.51100000000E-03 0. -1.
         11   -1    0    0    0    0 -0.00000000000E+00 -0.00000000000E+00 -0.45593999997E+02  0.45594000000E+02  0.51100000000E-03 0.  1.
    9900012    2    1    2    0    0  0.41482599259E+02 -0.12729213809E+02  0.88554131805E+00  0.47787272945E+02  0.20000008664E+02 0.  0.
        -12    1    1    2    0    0 -0.41482599259E+02  0.12729213809E+02 -0.88554131805E+00  0.43400727055E+02  0.00000000000E+00 0.  1.
         11    1    3    3    0    0  0.25769553461E+01  0.37174655035E+01  0.21169897063E+01  0.49941860501E+01  0.51100000000E-03 0. -1.
        -11    1    3    3    0    0  0.37466923213E-01  0.34406768397E+00  0.25057908523E+00  0.42728969162E+00  0.51100000000E-03 0.  1.
         12    1    3    3    0    0  0.38868176990E+02 -0.16790746997E+02 -0.14820274735E+01  0.42365797203E+02  0.00000000000E+00 0. -1.
</event>
<event>
 7    1  0.2430096E-009  0.4778727E+02  0.7816164E-02  0.1312668E+00
        -11   -1    0    0    0    0  0.00000000000E+00  0.00000000000E+00  0.45593999997E+02  0.45594000000E+02  0.51100000000E-03 0. -1.
         11   -1    0    0    0    0 -0.00000000000E+00 -0.00000000000E+00 -0.45593999997E+02  0.45594000000E+02  0.51100000000E-03 0.  1.
    9900012    2    1    2    0    0 -0.17898020049E+02  0.21174685388E+02  0.33390367000E+02  0.47787273838E+02  0.20000012739E+02 0.  0.
        -12    1    1    2    0    0  0.17898020049E+02 -0.21174685388E+02 -0.33390367000E+02  0.43400726162E+02  0.00000000000E+00 0.  1.
         11    1    3    3    0    0 -0.18046492969E+02  0.12664886185E+02  0.21090595345E+02  0.30510464808E+02  0.51100000000E-03 0. -1.
        -11    1    3    3    0    0 -0.44342545479E+00  0.98418401794E+01  0.78575955076E+01  0.12601597187E+02  0.51100000000E-03 0.  1.
        -12    1    3    3    0    0  0.59189837496E+00 -0.13320409760E+01  0.44421761474E+01  0.46752118426E+01  0.00000000000E+00 0.  1.
</event>
<event>
 7    1  0.2430096E-009  0.4778727E+02  0.7816164E-02  0.1312668E+00
        -11   -1    0    0    0    0  0.00000000000E+00  0.00000000000E+00  0.45593999997E+02  0.45594000000E+02  0.51100000000E-03 0. -1.
         11   -1    0    0    0    0 -0.00000000000E+00 -0.00000000000E+00 -0.45593999997E+02  0.45594000000E+02  0.51100000000E-03 0.  1.
    9900012    2    1    2    0    0 -0.75527079940E+01  0.40567569918E+02  0.13448127392E+02  0.47787271234E+02  0.20000000865E+02 0.  0.
        -12    1    1    2    0    0  0.75527079940E+01 -0.40567569918E+02 -0.13448127392E+02  0.43400728766E+02  0.00000000000E+00 0.  1.
         11    1    3    3    0    0  0.37555329182E+01  0.53273391260E+01 -0.13656281649E+01  0.66595427928E+01  0.51100000000E-03 0. -1.
        -11    1    3    3    0    0 -0.87015348350E+01  0.15436758149E+02  0.10806293474E+02  0.20755389410E+02  0.51100000000E-03 0.  1.
        -12    1    3    3    0    0 -0.26067060772E+01  0.19803472642E+02  0.40074620825E+01  0.20372339031E+02  0.00000000000E+00 0.  1.
</event>
<event>
 7    1  0.2430096E-009  0.4778727E+02  0.7816164E-02  0.1312668E+00
        -11   -1    0    0    0    0  0.00000000000E+00  0.00000000000E+00  0.45593999997E+02  0.45594000000E+02  0.51100000000E-03 0.  1.
         11   -1    0    0    0    0 -0.00000000000E+00 -0.00000000000E+00 -0.45593999997E+02  0.45594000000E+02  0.51100000000E-03 0. -1.
    9900012    2    1    2    0    0 -0.92034823631E+01  0.20740409745E+02 -0.36996683932E+02  0.47787270675E+02  0.19999998314E+02 0.  0.
        -12    1    1    2    0    0  0.92034823631E+01 -0.20740409745E+02  0.36996683932E+02  0.43400729325E+02  0.00000000000E+00 0.  1.
         11    1    3    3    0    0 -0.15119255437E+01  0.14830914276E+02 -0.10710119817E+02  0.18356159835E+02  0.51100000000E-03 0. -1.
        -11    1    3    3    0    0 -0.47326081338E+01 -0.75752434080E+00 -0.16765610753E+02  0.17437233928E+02  0.51100000000E-03 0.  1.
         12    1    3    3    0    0 -0.29589486856E+01  0.66670198100E+01 -0.95209533619E+01  0.11993876912E+02  0.00000000000E+00 0. -1.
</event>
<event>
 7    1  0.2430096E-009  0.4778727E+02  0.7816164E-02  0.1312668E+00
        -11   -1    0    0    0    0  0.00000000000E+00  0.00000000000E+00  0.45593999997E+02  0.45594000000E+02  0.51100000000E-03 0.  1.
         11   -1    0    0    0    0 -0.00000000000E+00 -0.00000000000E+00 -0.45593999997E+02  0.45594000000E+02  0.51100000000E-03 0. -1.
    9900012    2    1    2    0    0  0.33789343598E+02 -0.16641250317E+02 -0.21563214429E+02  0.47787272248E+02  0.20000005489E+02 0.  0.
        -12    1    1    2    0    0 -0.33789343598E+02  0.16641250317E+02  0.21563214429E+02  0.43400727752E+02  0.00000000000E+00 0.  1.
         11    1    3    3    0    0  0.22573696019E+02 -0.10394574003E+02 -0.10495485681E+02  0.26977289348E+02  0.51100000000E-03 0. -1.
        -11    1    3    3    0    0  0.23903468947E+01 -0.78780667677E+01 -0.30630215120E+01  0.87840648517E+01  0.51100000000E-03 0.  1.
        -12    1    3    3    0    0  0.88253006843E+01  0.16313904530E+01 -0.80047072353E+01  0.12025918048E+02  0.00000000000E+00 0.  1.
</event>
<event>
 7    1  0.2430096E-009  0.4778727E+02  0.7816164E-02  0.1312668E+00
        -11   -1    0    0    0    0  0.00000000000E+00  0.00000000000E+00  0.45593999997E+02  0.45594000000E+02  0.51100000000E-03 0.  1.
         11   -1    0    0    0    0 -0.00000000000E+00 -0.00000000000E+00 -0.45593999997E+02  0.45594000000E+02  0.51100000000E-03 0. -1.
    9900012    2    1    2    0    0  0.35327294907E+02  0.20992264611E+02  0.13961741969E+02  0.47787272152E+02  0.20000005048E+02 0.  0.
        -12    1    1    2    0    0 -0.35327294907E+02 -0.20992264611E+02 -0.13961741969E+02  0.43400727848E+02  0.00000000000E+00 0.  1.
         11    1    3    3    0    0  0.12588590595E+02  0.12116170586E+02  0.18335210567E+01  0.17568039235E+02  0.51100000000E-03 0. -1.
        -11    1    3    3    0    0  0.21758675314E+02  0.34815687141E+01  0.83678389239E+01  0.23570787018E+02  0.51100000000E-03 0.  1.
        -12    1    3    3    0    0  0.98002899847E+00  0.53945253111E+01  0.37603819879E+01  0.66484458984E+01  0.00000000000E+00 0.  1.
</event>
<event>
 7    1  0.2430096E-009  0.4778727E+02  0.7816164E-02  0.1312668E+00
        -11   -1    0    0    0    0  0.00000000000E+00  0.00000000000E+00  0.45593999997E+02  0.45594000000E+02  0.51100000000E-03 0. -1.
         11   -1    0    0    0    0 -0.00000000000E+00 -0.00000000000E+00 -0.45593999997E+02  0.45594000000E+02  0.51100000000E-03 0.  1.
    9900012    2    1    2    0    0  0.33218713380E+02  0.23830361620E+02  0.14568963088E+02  0.47787265686E+02  0.19999975569E+02 0.  0.
        -12    1    1    2    0    0 -0.33218713380E+02 -0.23830361620E+02 -0.14568963088E+02  0.43400734314E+02  0.00000000000E+00 0.  1.
         11    1    3    3    0    0  0.29839869741E+02  0.24608570455E+02  0.98893801560E+01  0.39922417338E+02  0.51100000000E-03 0. -1.
        -11    1    3    3    0    0  0.45275774659E+01  0.50881346715E+00  0.29861743689E+01  0.54474844173E+01  0.51100000000E-03 0.  1.
         12    1    3    3    0    0 -0.11487338269E+01 -0.12870223021E+01  0.16934085635E+01  0.24173639309E+01  0.00000000000E+00 0. -1.
</event>
<event>
 7    1  0.2430096E-009  0.4778727E+02  0.7816164E-02  0.1312668E+00
        -11   -1    0    0    0    0  0.00000000000E+00  0.00000000000E+00  0.45593999997E+02  0.45594000000E+02  0.51100000000E-03 0. -1.
         11   -1    0    0    0    0 -0.00000000000E+00 -0.00000000000E+00 -0.45593999997E+02  0.45594000000E+02  0.51100000000E-03 0.  1.
    9900012    2    1    2    0    0  0.14933379608E+02 -0.31185461457E+02  0.26231371640E+02  0.47787266240E+02  0.19999978092E+02 0.  0.
        -12    1    1    2    0    0 -0.14933379608E+02  0.31185461457E+02 -0.26231371640E+02  0.43400733760E+02  0.00000000000E+00 0.  1.
         11    1    3    3    0    0  0.14377578457E+01 -0.31323118096E+00 -0.25881712628E+01  0.29772289368E+01  0.51100000000E-03 0.  1.
        -11    1    3    3    0    0  0.14157657271E+02 -0.30160975245E+02  0.27713245858E+02  0.43337601265E+02  0.51100000000E-03 0. -1.
         12    1    3    3    0    0 -0.66203550857E+00 -0.71125503139E+00  0.11062970449E+01  0.14724360380E+01  0.00000000000E+00 0. -1.
</event>
<event>
 7    1  0.2430096E-009  0.4778727E+02  0.7816164E-02  0.1312668E+00
        -11   -1    0    0    0    0  0.00000000000E+00  0.00000000000E+00  0.45593999997E+02  0.45594000000E+02  0.51100000000E-03 0. -1.
         11   -1    0    0    0    0 -0.00000000000E+00 -0.00000000000E+00 -0.45593999997E+02  0.45594000000E+02  0.51100000000E-03 0.  1.
    9900012    2    1    2    0    0 -0.41340899176E+02  0.22440352249E+01  0.13019895256E+02  0.47787270614E+02  0.19999998037E+02 0.  0.
        -12    1    1    2    0    0  0.41340899176E+02 -0.22440352249E+01 -0.13019895256E+02  0.43400729386E+02  0.00000000000E+00 0.  1.
         11    1    3    3    0    0 -0.17692693193E+02 -0.14251981817E+01  0.15538609673E+02  0.23590484800E+02  0.51100000000E-03 0. -1.
        -11    1    3    3    0    0 -0.17631965644E+02  0.20451129071E+01 -0.27444701104E+01  0.17961091718E+02  0.51100000000E-03 0.  1.
         12    1    3    3    0    0 -0.60162403396E+01  0.16241204995E+01  0.22575569293E+00  0.62356940956E+01  0.00000000000E+00 0. -1.
</event>
<event>
 7    1  0.2430096E-009  0.4778728E+02  0.7816164E-02  0.1312668E+00
        -11   -1    0    0    0    0  0.00000000000E+00  0.00000000000E+00  0.45593999997E+02  0.45594000000E+02  0.51100000000E-03 0. -1.
         11   -1    0    0    0    0 -0.00000000000E+00 -0.00000000000E+00 -0.45593999997E+02  0.45594000000E+02  0.51100000000E-03 0.  1.
    9900012    2    1    2    0    0 -0.15430703415E+02  0.18810593952E+02  0.35939919576E+02  0.47787275676E+02  0.20000021118E+02 0.  0.
        -12    1    1    2    0    0  0.15430703415E+02 -0.18810593952E+02 -0.35939919576E+02  0.43400724324E+02  0.00000000000E+00 0.  1.
         11    1    3    3    0    0 -0.21691556636E+01  0.12091985996E+02  0.15670038130E+02  0.19911591018E+02  0.51100000000E-03 0. -1.
        -11    1    3    3    0    0 -0.14614484022E+02  0.53154075607E+01  0.20689052440E+02  0.25881916310E+02  0.51100000000E-03 0.  1.
        -12    1    3    3    0    0  0.13529362700E+01  0.14032003954E+01 -0.41917099477E+00  0.19937683475E+01  0.00000000000E+00 0.  1.
</event>
<event>
 7    1  0.2430096E-009  0.4778727E+02  0.7816164E-02  0.1312668E+00
        -11   -1    0    0    0    0  0.00000000000E+00  0.00000000000E+00  0.45593999997E+02  0.45594000000E+02  0.51100000000E-03 0.  1.
         11   -1    0    0    0    0 -0.00000000000E+00 -0.00000000000E+00 -0.45593999997E+02  0.45594000000E+02  0.51100000000E-03 0. -1.
    9900012    2    1    2    0    0 -0.25516610096E+02  0.75302600275E+01 -0.34290248547E+02  0.47787270141E+02  0.19999995879E+02 0.  0.
        -12    1    1    2    0    0  0.25516610096E+02 -0.75302600275E+01  0.34290248547E+02  0.43400729859E+02  0.00000000000E+00 0.  1.
         11    1    3    3    0    0 -0.12546303944E+02  0.92231811945E+01 -0.13839861624E+02  0.20833112682E+02  0.51100000000E-03 0. -1.
        -11    1    3    3    0    0 -0.38408032696E+00 -0.33060489659E+01 -0.58105033763E+00  0.33786235687E+01  0.51100000000E-03 0.  1.
         12    1    3    3    0    0 -0.12586225825E+02  0.16131277989E+01 -0.19869336586E+02  0.23575533890E+02  0.00000000000E+00 0. -1.
</event>
<event>
 7    1  0.2430096E-009  0.4778727E+02  0.7816164E-02  0.1312668E+00
        -11   -1    0    0    0    0  0.00000000000E+00  0.00000000000E+00  0.45593999997E+02  0.45594000000E+02  0.51100000000E-03 0.  1.
         11   -1    0    0    0    0 -0.00000000000E+00 -0.00000000000E+00 -0.45593999997E+02  0.45594000000E+02  0.51100000000E-03 0. -1.
    9900012    2    1    2    0    0  0.16527570758E+02 -0.39944440072E+02 -0.38606497957E+01  0.47787268386E+02  0.19999987878E+02 0.  0.
        -12    1    1    2    0    0 -0.16527570758E+02  0.39944440072E+02  0.38606497957E+01  0.43400731614E+02  0.00000000000E+00 0.  1.
         11    1    3    3    0    0  0.43430954746E+01 -0.15658570118E+02  0.12242998187E+01  0.16295772665E+02  0.51100000000E-03 0. -1.
        -11    1    3    3    0    0  0.11708749179E+02 -0.26416019785E+02 -0.47913418351E+01  0.29289210735E+02  0.51100000000E-03 0.  1.
        -12    1    3    3    0    0  0.47572610416E+00  0.21301498314E+01 -0.29360777927E+00  0.22022849857E+01  0.00000000000E+00 0.  1.
</event>
<event>
 7    1  0.2430096E-009  0.4778727E+02  0.7816164E-02  0.1312668E+00
        -11   -1    0    0    0    0  0.00000000000E+00  0.00000000000E+00  0.45593999997E+02  0.45594000000E+02  0.51100000000E-03 0. -1.
         11   -1    0    0    0    0 -0.00000000000E+00 -0.00000000000E+00 -0.45593999997E+02  0.45594000000E+02  0.51100000000E-03 0.  1.
    9900012    2    1    2    0    0 -0.77503008916E+01  0.35182044088E+02  0.24202889653E+02  0.47787271231E+02  0.20000000849E+02 0.  0.
        -12    1    1    2    0    0  0.77503008916E+01 -0.35182044088E+02 -0.24202889653E+02  0.43400728769E+02  0.00000000000E+00 0.  1.
         11    1    3    3    0    0  0.85310288339E+00  0.76550557323E+01 -0.54134970555E+00  0.77214456263E+01  0.51100000000E-03 0. -1.
        -11    1    3    3    0    0 -0.36719012952E+00  0.15204298772E+02  0.64474628935E+01  0.16518937852E+02  0.51100000000E-03 0.  1.
         12    1    3    3    0    0 -0.82362136455E+01  0.12322689584E+02  0.18296776465E+02  0.23546887752E+02  0.00000000000E+00 0. -1.
</event>
<event>
 7    1  0.2430096E-009  0.4778727E+02  0.7816164E-02  0.1312668E+00
        -11   -1    0    0    0    0  0.00000000000E+00  0.00000000000E+00  0.45593999997E+02  0.45594000000E+02  0.51100000000E-03 0. -1.
         11   -1    0    0    0    0 -0.00000000000E+00 -0.00000000000E+00 -0.45593999997E+02  0.45594000000E+02  0.51100000000E-03 0.  1.
    9900012    2    1    2    0    0  0.96718227382E+00  0.12161682632E+02  0.41650712051E+02  0.47787265210E+02  0.19999973398E+02 0.  0.
        -12    1    1    2    0    0 -0.96718227382E+00 -0.12161682632E+02 -0.41650712051E+02  0.43400734790E+02  0.00000000000E+00 0.  1.
         11    1    3    3    0    0  0.73156567630E+01  0.11127583763E+02  0.22331356336E+02  0.26000604423E+02  0.51100000000E-03 0. -1.
        -11    1    3    3    0    0 -0.76018080056E+01  0.21660963887E+01  0.17946813022E+02  0.19610394092E+02  0.51100000000E-03 0.  1.
         12    1    3    3    0    0  0.12533335164E+01 -0.11319975194E+01  0.13725426922E+01  0.21762666953E+01  0.00000000000E+00 0. -1.
</event>
<event>
 7    1  0.2430096E-009  0.4778727E+02  0.7816164E-02  0.1312668E+00
        -11   -1    0    0    0    0  0.00000000000E+00  0.00000000000E+00  0.45593999997E+02  0.45594000000E+02  0.51100000000E-03 0.  1.
         11   -1    0    0    0    0 -0.00000000000E+00 -0.00000000000E+00 -0.45593999997E+02  0.45594000000E+02  0.51100000000E-03 0. -1.
    9900012    2    1    2    0    0  0.30976948477E+02 -0.23527806133E+02  0.19248229349E+02  0.47787270381E+02  0.19999996977E+02 0.  0.
        -12    1    1    2    0    0 -0.30976948477E+02  0.23527806133E+02 -0.19248229349E+02  0.43400729619E+02  0.00000000000E+00 0.  1.
         11    1    3    3    0    0  0.59839014826E+01 -0.17316165561E+01 -0.87349020085E+00  0.62903543813E+01  0.51100000000E-03 0. -1.
        -11    1    3    3    0    0  0.19154180283E+02 -0.23131940312E+02  0.14786006595E+02  0.33475293519E+02  0.51100000000E-03 0.  1.
        -12    1    3    3    0    0  0.58388667117E+01  0.13357507349E+01  0.53357129541E+01  0.80216224813E+01  0.00000000000E+00 0.  1.
</event>
<event>
 7    1  0.2430096E-009  0.4778728E+02  0.7816164E-02  0.1312668E+00
        -11   -1    0    0    0    0  0.00000000000E+00  0.00000000000E+00  0.45593999997E+02  0.45594000000E+02  0.51100000000E-03 0.  1.
         11   -1    0    0    0    0 -0.00000000000E+00 -0.00000000000E+00 -0.45593999997E+02  0.45594000000E+02  0.51100000000E-03 0. -1.
    9900012    2    1    2    0    0  0.17690455212E+02  0.33671906940E+02 -0.20901500347E+02  0.47787282963E+02  0.20000054343E+02 0.  0.
        -12    1    1    2    0    0 -0.17690455212E+02 -0.33671906940E+02  0.20901500347E+02  0.43400717037E+02  0.00000000000E+00 0.  1.
         11    1    3    3    0    0  0.98434790157E+01  0.27876918889E+02 -0.11479726857E+02  0.31714362911E+02  0.51100000000E-03 0. -1.
        -11    1    3    3    0    0  0.28954344506E+01 -0.21479270278E+01 -0.33107779786E+01  0.48947300497E+01  0.51100000000E-03 0.  1.
        -12    1    3    3    0    0  0.49515417454E+01  0.79429150788E+01 -0.61109955112E+01  0.11178190003E+02  0.00000000000E+00 0.  1.
</event>
<event>
 7    1  0.2430096E-009  0.4778728E+02  0.7816164E-02  0.1312668E+00
        -11   -1    0    0    0    0  0.00000000000E+00  0.00000000000E+00  0.45593999997E+02  0.45594000000E+02  0.51100000000E-03 0. -1.
         11   -1    0    0    0    0 -0.00000000000E+00 -0.00000000000E+00 -0.45593999997E+02  0.45594000000E+02  0.51100000000E-03 0.  1.
    9900012    2    1    2    0    0 -0.30687779008E+02  0.28877189273E+02 -0.10391875854E+02  0.47787275069E+02  0.20000018351E+02 0.  0.
        -12    1    1    2    0    0  0.30687779008E+02 -0.28877189273E+02  0.10391875854E+02  0.43400724931E+02  0.00000000000E+00 0.  1.
         11    1    3    3    0    0 -0.20060812190E+02  0.26029521013E+02 -0.29760941135E+01  0.32997413328E+02  0.51100000000E-03 0. -1.
        -11    1    3    3    0    0  0.51642918165E+00  0.84115072779E+00  0.36408441168E+00  0.10520415232E+01  0.51100000000E-03 0.  1.
         12    1    3    3    0    0 -0.11143395999E+02  0.20065175323E+01 -0.77798661524E+01  0.13737820218E+02  0.00000000000E+00 0. -1.
</event>
<event>
 7    1  0.2430096E-009  0.4778726E+02  0.7816164E-02  0.1312668E+00
        -11   -1    0    0    0    0  0.00000000000E+00  0.00000000000E+00  0.45593999997E+02  0.45594000000E+02  0.51100000000E-03 0. -1.
         11   -1    0    0    0    0 -0.00000000000E+00 -0.00000000000E+00 -0.45593999997E+02  0.45594000000E+02  0.51100000000E-03 0.  1.
    9900012    2    1    2    0    0 -0.18115777361E+02 -0.98355067934E+00  0.39426839422E+02  0.47787257746E+02  0.19999939369E+02 0.  0.
        -12    1    1    2    0    0  0.18115777361E+02  0.98355067934E+00 -0.39426839422E+02  0.43400742254E+02  0.00000000000E+00 0.  1.
         11    1    3    3    0    0 -0.17665266410E+02  0.26871481713E+01  0.36591324457E+02  0.40721093163E+02  0.51100000000E-03 0. -1.
        -11    1    3    3    0    0 -0.15044080497E+01 -0.54771800835E+00 -0.10926866560E+01  0.19383505838E+01  0.51100000000E-03 0.  1.
         12    1    3    3    0    0  0.10538970983E+01 -0.31229808423E+01  0.39282016209E+01  0.51278139991E+01  0.00000000000E+00 0. -1.
</event>
<event>
 7    1  0.2430096E-009  0.4778727E+02  0.7816164E-02  0.1312668E+00
        -11   -1    0    0    0    0  0.00000000000E+00  0.00000000000E+00  0.45593999997E+02  0.45594000000E+02  0.51100000000E-03 0. -1.
         11   -1    0    0    0    0 -0.00000000000E+00 -0.00000000000E+00 -0.45593999997E+02  0.45594000000E+02  0.51100000000E-03 0.  1.
    9900012    2    1    2    0    0  0.21059370694E+02  0.37601882903E+02 -0.51210056994E+01  0.47787269692E+02  0.19999993834E+02 0.  0.
        -12    1    1    2    0    0 -0.21059370694E+02 -0.37601882903E+02  0.51210056994E+01  0.43400730308E+02  0.00000000000E+00 0.  1.
         11    1    3    3    0    0 -0.30882713512E+01  0.14399452208E+01 -0.11518113619E+01  0.35968780702E+01  0.51100000000E-03 0. -1.
        -11    1    3    3    0    0  0.24549446728E+01  0.14795106842E+01 -0.14318084403E+01  0.32040257306E+01  0.51100000000E-03 0.  1.
         12    1    3    3    0    0  0.21692697373E+02  0.34682426998E+02 -0.25373858972E+01  0.40986365891E+02  0.00000000000E+00 0. -1.
</event>
<event>
 7    1  0.2430096E-009  0.4778726E+02  0.7816164E-02  0.1312668E+00
        -11   -1    0    0    0    0  0.00000000000E+00  0.00000000000E+00  0.45593999997E+02  0.45594000000E+02  0.51100000000E-03 0.  1.
         11   -1    0    0    0    0 -0.00000000000E+00 -0.00000000000E+00 -0.45593999997E+02  0.45594000000E+02  0.51100000000E-03 0. -1.
    9900012    2    1    2    0    0 -0.91255558456E+01  0.90379781395E+01 -0.41456763723E+02  0.47787261796E+02  0.19999957831E+02 0.  0.
        -12    1    1    2    0    0  0.91255558456E+01 -0.90379781395E+01  0.41456763723E+02  0.43400738204E+02  0.00000000000E+00 0.  1.
         11    1    3    3    0    0  0.63388714728E+00  0.13088918370E+01 -0.48237218560E+01  0.50381845502E+01  0.51100000000E-03 0. -1.
        -11    1    3    3    0    0 -0.54072664223E+00  0.11024553735E+02 -0.26261129806E+02  0.28486489943E+02  0.51100000000E-03 0.  1.
        -12    1    3    3    0    0 -0.92187163507E+01 -0.32954674323E+01 -0.10371912061E+02  0.14262587302E+02  0.00000000000E+00 0.  1.
</event>
<event>
 7    1  0.2430096E-009  0.4778727E+02  0.7816164E-02  0.1312668E+00
        -11   -1    0    0    0    0  0.00000000000E+00  0.00000000000E+00  0.45593999997E+02  0.45594000000E+02  0.51100000000E-03 0. -1.
         11   -1    0    0    0    0 -0.00000000000E+00 -0.00000000000E+00 -0.45593999997E+02  0.45594000000E+02  0.51100000000E-03 0.  1.
    9900012    2    1    2    0    0 -0.26346335628E+02  0.33718419939E+02  0.72499912782E+01  0.47787267083E+02  0.19999981938E+02 0.  0.
        -12    1    1    2    0    0  0.26346335628E+02 -0.33718419939E+02 -0.72499912782E+01  0.43400732917E+02  0.00000000000E+00 0.  1.
         11    1    3    3    0    0 -0.17815277080E+02  0.27979555088E+02 -0.29120681878E+01  0.33297443472E+02  0.51100000000E-03 0. -1.
        -11    1    3    3    0    0 -0.49638511039E+01  0.38795530589E+01  0.59554467713E+01  0.86693769226E+01  0.51100000000E-03 0.  1.
         12    1    3    3    0    0 -0.35672074438E+01  0.18593117917E+01  0.42066126947E+01  0.58204466881E+01  0.00000000000E+00 0. -1.
</event>
<event>
 7    1  0.2430096E-009  0.4778721E+02  0.7816164E-02  0.1312668E+00
        -11   -1    0    0    0    0  0.00000000000E+00  0.00000000000E+00  0.45593999997E+02  0.45594000000E+02  0.51100000000E-03 0.  1.
         11   -1    0    0    0    0 -0.00000000000E+00 -0.00000000000E+00 -0.45593999997E+02  0.45594000000E+02  0.51100000000E-03 0. -1.
    9900012    2    1    2    0    0  0.10137509209E+02 -0.26092742399E+02 -0.33166670764E+02  0.47787212583E+02  0.19999733447E+02 0.  0.
        -12    1    1    2    0    0 -0.10137509209E+02  0.26092742399E+02  0.33166670764E+02  0.43400787417E+02  0.00000000000E+00 0.  1.
         11    1    3    3    0    0  0.10535851928E+02 -0.20251281270E+02 -0.12355089717E+02  0.25957018533E+02  0.51100000000E-03 0. -1.
        -11    1    3    3    0    0 -0.10747828342E+01 -0.79840380638E+00 -0.66196241136E+01  0.67536679253E+01  0.51100000000E-03 0.  1.
         12    1    3    3    0    0  0.67644011461E+00 -0.50430573231E+01 -0.14191956933E+02  0.15076526125E+02  0.00000000000E+00 0. -1.
</event>
<event>
 7    1  0.2430096E-009  0.4778727E+02  0.7816164E-02  0.1312668E+00
        -11   -1    0    0    0    0  0.00000000000E+00  0.00000000000E+00  0.45593999997E+02  0.45594000000E+02  0.51100000000E-03 0.  1.
         11   -1    0    0    0    0 -0.00000000000E+00 -0.00000000000E+00 -0.45593999997E+02  0.45594000000E+02  0.51100000000E-03 0. -1.
    9900012    2    1    2    0    0  0.63195831951E+01 -0.22565055690E+02 -0.36530866669E+02  0.47787273167E+02  0.20000009679E+02 0.  0.
        -12    1    1    2    0    0 -0.63195831951E+01  0.22565055690E+02  0.36530866669E+02  0.43400726833E+02  0.00000000000E+00 0.  1.
         11    1    3    3    0    0 -0.33406183961E+00 -0.64608719317E+01 -0.30108371739E+01  0.71357973752E+01  0.51100000000E-03 0. -1.
        -11    1    3    3    0    0  0.65853492676E+01 -0.17269283808E+01 -0.42086730519E+01  0.80038762939E+01  0.51100000000E-03 0.  1.
        -12    1    3    3    0    0  0.68295767099E-01 -0.14377255377E+02 -0.29311356443E+02  0.32647599498E+02  0.00000000000E+00 0.  1.
</event>
<event>
 7    1  0.2430096E-009  0.4778727E+02  0.7816164E-02  0.1312668E+00
        -11   -1    0    0    0    0  0.00000000000E+00  0.00000000000E+00  0.45593999997E+02  0.45594000000E+02  0.51100000000E-03 0.  1.
         11   -1    0    0    0    0 -0.00000000000E+00 -0.00000000000E+00 -0.45593999997E+02  0.45594000000E+02  0.51100000000E-03 0. -1.
    9900012    2    1    2    0    0 -0.93342443618E+01 -0.31441321824E+02 -0.28424256815E+02  0.47787271765E+02  0.20000003284E+02 0.  0.
        -12    1    1    2    0    0  0.93342443618E+01  0.31441321824E+02  0.28424256815E+02  0.43400728235E+02  0.00000000000E+00 0.  1.
         11    1    3    3    0    0 -0.89421869534E+00 -0.99100456940E+00 -0.21219135205E+01  0.25068375259E+01  0.51100000000E-03 0. -1.
        -11    1    3    3    0    0 -0.12125211060E+02 -0.30830467038E+02 -0.24135500266E+02  0.40988544917E+02  0.51100000000E-03 0.  1.
        -12    1    3    3    0    0  0.36851853940E+01  0.38014978281E+00 -0.21668430282E+01  0.42918893222E+01  0.00000000000E+00 0.  1.
</event>
<event>
 7    1  0.2430096E-009  0.4778727E+02  0.7816164E-02  0.1312668E+00
        -11   -1    0    0    0    0  0.00000000000E+00  0.00000000000E+00  0.45593999997E+02  0.45594000000E+02  0.51100000000E-03 0. -1.
         11   -1    0    0    0    0 -0.00000000000E+00 -0.00000000000E+00 -0.45593999997E+02  0.45594000000E+02  0.51100000000E-03 0.  1.
    9900012    2    1    2    0    0 -0.15644027747E+02  0.32115667971E+02 -0.24646939118E+02  0.47787270268E+02  0.19999996461E+02 0.  0.
        -12    1    1    2    0    0  0.15644027747E+02 -0.32115667971E+02  0.24646939118E+02  0.43400729732E+02  0.00000000000E+00 0.  1.
         11    1    3    3    0    0 -0.12203962471E+02  0.69537436145E+01 -0.12097948698E+02  0.18537842733E+02  0.51100000000E-03 0. -1.
        -11    1    3    3    0    0  0.33386945176E-01  0.11038789259E+02 -0.18470166851E+01  0.11192294398E+02  0.51100000000E-03 0.  1.
        -12    1    3    3    0    0 -0.34734522214E+01  0.14123135098E+02 -0.10701973734E+02  0.18057133137E+02  0.00000000000E+00 0.  1.
</event>
<event>
 7    1  0.2430096E-009  0.4778727E+02  0.7816164E-02  0.1312668E+00
        -11   -1    0    0    0    0  0.00000000000E+00  0.00000000000E+00  0.45593999997E+02  0.45594000000E+02  0.51100000000E-03 0. -1.
         11   -1    0    0    0    0 -0.00000000000E+00 -0.00000000000E+00 -0.45593999997E+02  0.45594000000E+02  0.51100000000E-03 0.  1.
    9900012    2    1    2    0    0  0.36163609361E+02 -0.23803759781E+02 -0.30327718825E+01  0.47787270432E+02  0.19999997207E+02 0.  0.
        -12    1    1    2    0    0 -0.36163609361E+02  0.23803759781E+02  0.30327718825E+01  0.43400729568E+02  0.00000000000E+00 0.  1.
         11    1    3    3    0    0  0.86876806472E+01 -0.68288666784E+01  0.55274722091E+01  0.12355653136E+02  0.51100000000E-03 0. -1.
        -11    1    3    3    0    0  0.24137990597E+02 -0.13792933263E+02 -0.11364915426E+02  0.30034128936E+02  0.51100000000E-03 0.  1.
        -12    1    3    3    0    0  0.33379381170E+01 -0.31819598403E+01  0.28046713343E+01  0.53974883596E+01  0.00000000000E+00 0.  1.
</event>
<event>
 7    1  0.2430096E-009  0.4778727E+02  0.7816164E-02  0.1312668E+00
        -11   -1    0    0    0    0  0.00000000000E+00  0.00000000000E+00  0.45593999997E+02  0.45594000000E+02  0.51100000000E-03 0.  1.
         11   -1    0    0    0    0 -0.00000000000E+00 -0.00000000000E+00 -0.45593999997E+02  0.45594000000E+02  0.51100000000E-03 0. -1.
    9900012    2    1    2    0    0  0.19076487042E+02 -0.20535146812E+02 -0.33136370584E+02  0.47787266504E+02  0.19999979299E+02 0.  0.
        -12    1    1    2    0    0 -0.19076487042E+02  0.20535146812E+02  0.33136370584E+02  0.43400733496E+02  0.00000000000E+00 0.  1.
         11    1    3    3    0    0  0.13081870789E+02 -0.16864601318E+02 -0.17000850423E+02  0.27286975580E+02  0.51100000000E-03 0. -1.
        -11    1    3    3    0    0  0.16774110615E+01 -0.70058604926E+00 -0.15036716643E+02  0.15146200063E+02  0.51100000000E-03 0.  1.
        -12    1    3    3    0    0  0.43172051923E+01 -0.29699594451E+01 -0.10988035187E+01  0.53540908612E+01  0.00000000000E+00 0.  1.
</event>
<event>
 7    1  0.2430096E-009  0.4778728E+02  0.7816164E-02  0.1312668E+00
        -11   -1    0    0    0    0  0.00000000000E+00  0.00000000000E+00  0.45593999997E+02  0.45594000000E+02  0.51100000000E-03 0. -1.
         11   -1    0    0    0    0 -0.00000000000E+00 -0.00000000000E+00 -0.45593999997E+02  0.45594000000E+02  0.51100000000E-03 0.  1.
    9900012    2    1    2    0    0 -0.62975223031E+01 -0.42841111137E+02  0.29331047344E+01  0.47787277725E+02  0.20000030461E+02 0.  0.
        -12    1    1    2    0    0  0.62975223031E+01  0.42841111137E+02 -0.29331047344E+01  0.43400722275E+02  0.00000000000E+00 0.  1.
         11    1    3    3    0    0 -0.73452846153E+00 -0.26551851135E+02 -0.70120471679E+01  0.27471970015E+02  0.51100000000E-03 0. -1.
        -11    1    3    3    0    0  0.60914994484E+00 -0.27706437406E+01  0.19250917125E+01  0.34283390666E+01  0.51100000000E-03 0.  1.
         12    1    3    3    0    0 -0.61721437864E+01 -0.13518616261E+02  0.80200601898E+01  0.16886968644E+02  0.00000000000E+00 0. -1.
</event>
<event>
 7    1  0.2430096E-009  0.4778727E+02  0.7816164E-02  0.1312668E+00
        -11   -1    0    0    0    0  0.00000000000E+00  0.00000000000E+00  0.45593999997E+02  0.45594000000E+02  0.51100000000E-03 0.  1.
         11   -1    0    0    0    0 -0.00000000000E+00 -0.00000000000E+00 -0.45593999997E+02  0.45594000000E+02  0.51100000000E-03 0. -1.
    9900012    2    1    2    0    0  0.38719939940E+02 -0.18774730042E+02 -0.56479217389E+01  0.47787271238E+02  0.20000000882E+02 0.  0.
        -12    1    1    2    0    0 -0.38719939940E+02  0.18774730042E+02  0.56479217389E+01  0.43400728762E+02  0.00000000000E+00 0.  1.
         11    1    3    3    0    0  0.29072085141E+02 -0.17614775683E+02 -0.45152331068E+00  0.33995151571E+02  0.51100000000E-03 0. -1.
        -11    1    3    3    0    0 -0.80611434433E+00  0.12423261562E+00 -0.28994923821E+01  0.30120276250E+01  0.51100000000E-03 0.  1.
        -12    1    3    3    0    0  0.10453969143E+02 -0.12841869745E+01 -0.22969060462E+01  0.10780092041E+02  0.00000000000E+00 0.  1.
</event>
<event>
 7    1  0.2430096E-009  0.4778727E+02  0.7816164E-02  0.1312668E+00
        -11   -1    0    0    0    0  0.00000000000E+00  0.00000000000E+00  0.45593999997E+02  0.45594000000E+02  0.51100000000E-03 0. -1.
         11   -1    0    0    0    0 -0.00000000000E+00 -0.00000000000E+00 -0.45593999997E+02  0.45594000000E+02  0.51100000000E-03 0.  1.
    9900012    2    1    2    0    0  0.42411555892E+01  0.33739720765E+02  0.26967889056E+02  0.47787271917E+02  0.20000003977E+02 0.  0.
        -12    1    1    2    0    0 -0.42411555892E+01 -0.33739720765E+02 -0.26967889056E+02  0.43400728083E+02  0.00000000000E+00 0.  1.
         11    1    3    3    0    0  0.37021857255E+01  0.31503106393E+01  0.19244345513E+01  0.52282009213E+01  0.51100000000E-03 0.  1.
        -11    1    3    3    0    0  0.41403655066E+01  0.25996209850E+02  0.13408253951E+02  0.29541950297E+02  0.51100000000E-03 0. -1.
        -12    1    3    3    0    0 -0.36013956428E+01  0.45932002756E+01  0.11635200554E+02  0.13017120698E+02  0.00000000000E+00 0.  1.
</event>
<event>
 7    1  0.2430096E-009  0.4778727E+02  0.7816164E-02  0.1312668E+00
        -11   -1    0    0    0    0  0.00000000000E+00  0.00000000000E+00  0.45593999997E+02  0.45594000000E+02  0.51100000000E-03 0. -1.
         11   -1    0    0    0    0 -0.00000000000E+00 -0.00000000000E+00 -0.45593999997E+02  0.45594000000E+02  0.51100000000E-03 0.  1.
    9900012    2    1    2    0    0  0.44378942576E+01 -0.13105576879E+02  0.41136025697E+02  0.47787266586E+02  0.19999979671E+02 0.  0.
        -12    1    1    2    0    0 -0.44378942576E+01  0.13105576879E+02 -0.41136025697E+02  0.43400733414E+02  0.00000000000E+00 0.  1.
         11    1    3    3    0    0 -0.47723422448E+01 -0.22428908723E+01  0.14600164956E+01  0.54715133551E+01  0.51100000000E-03 0. -1.
        -11    1    3    3    0    0  0.69481031138E+01 -0.57462019822E+01  0.26830031225E+02  0.28304514656E+02  0.51100000000E-03 0.  1.
         12    1    3    3    0    0  0.22621333885E+01 -0.51164840241E+01  0.12845977976E+02  0.14011238575E+02  0.00000000000E+00 0. -1.
</event>
<event>
 7    1  0.2430096E-009  0.4778727E+02  0.7816164E-02  0.1312668E+00
        -11   -1    0    0    0    0  0.00000000000E+00  0.00000000000E+00  0.45593999997E+02  0.45594000000E+02  0.51100000000E-03 0.  1.
         11   -1    0    0    0    0 -0.00000000000E+00 -0.00000000000E+00 -0.45593999997E+02  0.45594000000E+02  0.51100000000E-03 0. -1.
    9900012    2    1    2    0    0 -0.97828165949E+01  0.55975161402E+01 -0.41911661999E+02  0.47787273059E+02  0.20000009186E+02 0.  0.
        -12    1    1    2    0    0  0.97828165949E+01 -0.55975161402E+01  0.41911661999E+02  0.43400726941E+02  0.00000000000E+00 0.  1.
         11    1    3    3    0    0 -0.36968299749E+01  0.17979650658E+01 -0.10515196262E+02  0.11290198533E+02  0.51100000000E-03 0. -1.
        -11    1    3    3    0    0 -0.10584493379E+02 -0.26572621404E-01 -0.27381166211E+02  0.29355757009E+02  0.51100000000E-03 0.  1.
        -12    1    3    3    0    0  0.44985067591E+01  0.38261236959E+01 -0.40152995260E+01  0.71413175171E+01  0.00000000000E+00 0.  1.
</event>
<event>
 7    1  0.2430096E-009  0.4778727E+02  0.7816164E-02  0.1312668E+00
        -11   -1    0    0    0    0  0.00000000000E+00  0.00000000000E+00  0.45593999997E+02  0.45594000000E+02  0.51100000000E-03 0. -1.
         11   -1    0    0    0    0 -0.00000000000E+00 -0.00000000000E+00 -0.45593999997E+02  0.45594000000E+02  0.51100000000E-03 0.  1.
    9900012    2    1    2    0    0  0.58384855236E+01 -0.14125732757E+02  0.40620181973E+02  0.47787269330E+02  0.19999992185E+02 0.  0.
        -12    1    1    2    0    0 -0.58384855236E+01  0.14125732757E+02 -0.40620181973E+02  0.43400730670E+02  0.00000000000E+00 0.  1.
         11    1    3    3    0    0 -0.35600542465E+01 -0.42898812446E+01  0.35476865971E+01  0.66078096056E+01  0.51100000000E-03 0.  1.
        -11    1    3    3    0    0  0.50799740226E+01 -0.98681682558E+01  0.34291214651E+02  0.36042673088E+02  0.51100000000E-03 0. -1.
        -12    1    3    3    0    0  0.43185657476E+01  0.32316742905E-01  0.27812807247E+01  0.51367866373E+01  0.00000000000E+00 0.  1.
</event>
<event>
 7    1  0.2430096E-009  0.4778727E+02  0.7816164E-02  0.1312668E+00
        -11   -1    0    0    0    0  0.00000000000E+00  0.00000000000E+00  0.45593999997E+02  0.45594000000E+02  0.51100000000E-03 0.  1.
         11   -1    0    0    0    0 -0.00000000000E+00 -0.00000000000E+00 -0.45593999997E+02  0.45594000000E+02  0.51100000000E-03 0. -1.
    9900012    2    1    2    0    0 -0.30163415874E+02 -0.20946769425E+02 -0.23130589859E+02  0.47787274272E+02  0.20000014714E+02 0.  0.
        -12    1    1    2    0    0  0.30163415874E+02  0.20946769425E+02  0.23130589859E+02  0.43400725728E+02  0.00000000000E+00 0.  1.
         11    1    3    3    0    0 -0.49196663880E+01 -0.41473467489E+01 -0.82237603860E+01  0.10441926909E+02  0.51100000000E-03 0. -1.
        -11    1    3    3    0    0 -0.30721783217E+00  0.20055785876E+01  0.10371749690E+01  0.22786970937E+01  0.51100000000E-03 0.  1.
        -12    1    3    3    0    0 -0.24936531654E+02 -0.18805001264E+02 -0.15944004442E+02  0.35066650269E+02  0.00000000000E+00 0.  1.
</event>
<event>
 7    1  0.2430096E-009  0.4778727E+02  0.7816164E-02  0.1312668E+00
        -11   -1    0    0    0    0  0.00000000000E+00  0.00000000000E+00  0.45593999997E+02  0.45594000000E+02  0.51100000000E-03 0.  1.
         11   -1    0    0    0    0 -0.00000000000E+00 -0.00000000000E+00 -0.45593999997E+02  0.45594000000E+02  0.51100000000E-03 0. -1.
    9900012    2    1    2    0    0  0.24614770132E+02 -0.33843735190E+02  0.11503823846E+02  0.47787270936E+02  0.19999999504E+02 0.  0.
        -12    1    1    2    0    0 -0.24614770132E+02  0.33843735190E+02 -0.11503823846E+02  0.43400729064E+02  0.00000000000E+00 0.  1.
         11    1    3    3    0    0  0.33941461072E+01 -0.14991427656E+02 -0.32494467462E+01  0.15710570816E+02  0.51100000000E-03 0. -1.
        -11    1    3    3    0    0  0.12467021201E+02 -0.12587853539E+02  0.93434701721E+01  0.20029505972E+02  0.51100000000E-03 0.  1.
         12    1    3    3    0    0  0.87536028235E+01 -0.62644539948E+01  0.54098004202E+01  0.12047194148E+02  0.00000000000E+00 0. -1.
</event>
<event>
 7    1  0.2430096E-009  0.4778730E+02  0.7816164E-02  0.1312668E+00
        -11   -1    0    0    0    0  0.00000000000E+00  0.00000000000E+00  0.45593999997E+02  0.45594000000E+02  0.51100000000E-03 0.  1.
         11   -1    0    0    0    0 -0.00000000000E+00 -0.00000000000E+00 -0.45593999997E+02  0.45594000000E+02  0.51100000000E-03 0. -1.
    9900012    2    1    2    0    0  0.15242214351E+02 -0.14007022949E+01 -0.40611994534E+02  0.47787295337E+02  0.20000110757E+02 0.  0.
        -12    1    1    2    0    0 -0.15242214351E+02  0.14007022949E+01  0.40611994534E+02  0.43400704663E+02  0.00000000000E+00 0.  1.
         11    1    3    3    0    0  0.28830713624E+01 -0.96591901586E+00 -0.18042053637E+01  0.35355702908E+01  0.51100000000E-03 0. -1.
        -11    1    3    3    0    0  0.87180988251E+01  0.81011674106E+01 -0.19845469765E+02  0.23140372318E+02  0.51100000000E-03 0.  1.
        -12    1    3    3    0    0  0.36410441638E+01 -0.85359506897E+01 -0.18962319405E+02  0.21111352728E+02  0.00000000000E+00 0.  1.
</event>
<event>
 7    1  0.2430096E-009  0.4778724E+02  0.7816164E-02  0.1312668E+00
        -11   -1    0    0    0    0  0.00000000000E+00  0.00000000000E+00  0.45593999997E+02  0.45594000000E+02  0.51100000000E-03 0.  1.
         11   -1    0    0    0    0 -0.00000000000E+00 -0.00000000000E+00 -0.45593999997E+02  0.45594000000E+02  0.51100000000E-03 0. -1.
    9900012    2    1    2    0    0  0.41557223715E+02 -0.67306531486E+01 -0.10550876946E+02  0.47787244949E+02  0.19999881018E+02 0.  0.
        -12    1    1    2    0    0 -0.41557223715E+02  0.67306531486E+01  0.10550876946E+02  0.43400755051E+02  0.00000000000E+00 0.  1.
         11    1    3    3    0    0  0.32028941664E+02 -0.82830280755E+01 -0.92745215703E+01  0.34358090879E+02  0.51100000000E-03 0. -1.
        -11    1    3    3    0    0 -0.10591024332E+01 -0.34336568619E+00 -0.23694402506E+01  0.26179849733E+01  0.51100000000E-03 0.  1.
        -12    1    3    3    0    0  0.10587384485E+02  0.18957406131E+01  0.10930848752E+01  0.10811169097E+02  0.00000000000E+00 0.  1.
</event>
<event>
 7    1  0.2430096E-009  0.4778727E+02  0.7816164E-02  0.1312668E+00
        -11   -1    0    0    0    0  0.00000000000E+00  0.00000000000E+00  0.45593999997E+02  0.45594000000E+02  0.51100000000E-03 0.  1.
         11   -1    0    0    0    0 -0.00000000000E+00 -0.00000000000E+00 -0.45593999997E+02  0.45594000000E+02  0.51100000000E-03 0. -1.
    9900012    2    1    2    0    0  0.21114853919E+02 -0.30174496639E+02 -0.22962711050E+02  0.47787269566E+02  0.19999993259E+02 0.  0.
        -12    1    1    2    0    0 -0.21114853919E+02  0.30174496639E+02  0.22962711050E+02  0.43400730434E+02  0.00000000000E+00 0.  1.
         11    1    3    3    0    0  0.14357117697E+02 -0.67996022727E+01 -0.11557834452E+02  0.19645481850E+02  0.51100000000E-03 0. -1.
        -11    1    3    3    0    0  0.27996822787E+00 -0.10985505069E+02 -0.16925917680E+01  0.11118658686E+02  0.51100000000E-03 0.  1.
        -12    1    3    3    0    0  0.64777679940E+01 -0.12389389298E+02 -0.97122848291E+01  0.17023129030E+02  0.00000000000E+00 0.  1.
</event>
<event>
 7    1  0.2430096E-009  0.4778727E+02  0.7816164E-02  0.1312668E+00
        -11   -1    0    0    0    0  0.00000000000E+00  0.00000000000E+00  0.45593999997E+02  0.45594000000E+02  0.51100000000E-03 0.  1.
         11   -1    0    0    0    0 -0.00000000000E+00 -0.00000000000E+00 -0.45593999997E+02  0.45594000000E+02  0.51100000000E-03 0. -1.
    9900012    2    1    2    0    0 -0.76560686035E+01  0.41931760427E+02 -0.81691573647E+01  0.47787273612E+02  0.20000011706E+02 0.  0.
        -12    1    1    2    0    0  0.76560686035E+01 -0.41931760427E+02  0.81691573647E+01  0.43400726388E+02  0.00000000000E+00 0.  1.
         11    1    3    3    0    0 -0.44384180852E+01  0.14522781260E+02  0.58329259162E+01  0.16267567600E+02  0.51100000000E-03 0. -1.
        -11    1    3    3    0    0  0.11450374522E+01  0.81690564090E+01 -0.22260024609E+01  0.85439850537E+01  0.51100000000E-03 0.  1.
         12    1    3    3    0    0 -0.43626879704E+01  0.19239922758E+02 -0.11776080820E+02  0.22975720958E+02  0.00000000000E+00 0. -1.
</event>
<event>
 7    1  0.2430096E-009  0.4778727E+02  0.7816164E-02  0.1312668E+00
        -11   -1    0    0    0    0  0.00000000000E+00  0.00000000000E+00  0.45593999997E+02  0.45594000000E+02  0.51100000000E-03 0.  1.
         11   -1    0    0    0    0 -0.00000000000E+00 -0.00000000000E+00 -0.45593999997E+02  0.45594000000E+02  0.51100000000E-03 0. -1.
    9900012    2    1    2    0    0 -0.67305809269E+01  0.23619355886E+02 -0.35783358353E+02  0.47787269279E+02  0.19999991952E+02 0.  0.
        -12    1    1    2    0    0  0.67305809269E+01 -0.23619355886E+02  0.35783358353E+02  0.43400730721E+02  0.00000000000E+00 0.  1.
         11    1    3    3    0    0 -0.10218134733E+02  0.14463415912E+02 -0.25289261674E+02  0.30873085909E+02  0.51100000000E-03 0. -1.
        -11    1    3    3    0    0  0.16808438084E+01  0.55849485412E+01 -0.16261472346E+00  0.58346662223E+01  0.51100000000E-03 0.  1.
        -12    1    3    3    0    0  0.18067099981E+01  0.35709914328E+01 -0.10331481956E+02  0.11079517148E+02  0.00000000000E+00 0.  1.
</event>
<event>
 7    1  0.2430096E-009  0.4778727E+02  0.7816164E-02  0.1312668E+00
        -11   -1    0    0    0    0  0.00000000000E+00  0.00000000000E+00  0.45593999997E+02  0.45594000000E+02  0.51100000000E-03 0. -1.
         11   -1    0    0    0    0 -0.00000000000E+00 -0.00000000000E+00 -0.45593999997E+02  0.45594000000E+02  0.51100000000E-03 0.  1.
    9900012    2    1    2    0    0 -0.33098576327E+02 -0.28033441950E+02 -0.14945662500E+01  0.47787270159E+02  0.19999995964E+02 0.  0.
        -12    1    1    2    0    0  0.33098576327E+02  0.28033441950E+02  0.14945662500E+01  0.43400729841E+02  0.00000000000E+00 0.  1.
         11    1    3    3    0    0 -0.13563157723E+02 -0.44485644239E+01 -0.46386989386E+01  0.15008880736E+02  0.51100000000E-03 0. -1.
        -11    1    3    3    0    0 -0.24243927111E+01 -0.98240364905E+01  0.38051474621E+01  0.10810574474E+02  0.51100000000E-03 0.  1.
        -12    1    3    3    0    0 -0.17111025893E+02 -0.13760841035E+02 -0.66101477346E+00  0.21967814949E+02  0.00000000000E+00 0.  1.
</event>
<event>
 7    1  0.2430096E-009  0.4778727E+02  0.7816164E-02  0.1312668E+00
        -11   -1    0    0    0    0  0.00000000000E+00  0.00000000000E+00  0.45593999997E+02  0.45594000000E+02  0.51100000000E-03 0.  1.
         11   -1    0    0    0    0 -0.00000000000E+00 -0.00000000000E+00 -0.45593999997E+02  0.45594000000E+02  0.51100000000E-03 0. -1.
    9900012    2    1    2    0    0  0.18449401192E+01 -0.24986684301E+02 -0.35438468074E+02  0.47787271713E+02  0.20000003048E+02 0.  0.
        -12    1    1    2    0    0 -0.18449401192E+01  0.24986684301E+02  0.35438468074E+02  0.43400728287E+02  0.00000000000E+00 0.  1.
         11    1    3    3    0    0 -0.32291722279E+01 -0.98198270884E+01 -0.26722298763E+02  0.28652012299E+02  0.51100000000E-03 0. -1.
        -11    1    3    3    0    0  0.21530148822E+01 -0.64078985465E+01 -0.50448759191E+00  0.67787273773E+01  0.51100000000E-03 0.  1.
         12    1    3    3    0    0  0.29210974649E+01 -0.87589586665E+01 -0.82116817187E+01  0.12356532037E+02  0.00000000000E+00 0. -1.
</event>
<event>
 7    1  0.2430096E-009  0.4778726E+02  0.7816164E-02  0.1312668E+00
        -11   -1    0    0    0    0  0.00000000000E+00  0.00000000000E+00  0.45593999997E+02  0.45594000000E+02  0.51100000000E-03 0.  1.
         11   -1    0    0    0    0 -0.00000000000E+00 -0.00000000000E+00 -0.45593999997E+02  0.45594000000E+02  0.51100000000E-03 0. -1.
    9900012    2    1    2    0    0  0.19399271497E+02  0.35914781585E+02 -0.14745198200E+02  0.47787261056E+02  0.19999954459E+02 0.  0.
        -12    1    1    2    0    0 -0.19399271497E+02 -0.35914781585E+02  0.14745198200E+02  0.43400738944E+02  0.00000000000E+00 0.  1.
         11    1    3    3    0    0  0.40280322335E+01  0.22641995613E+02 -0.10332566161E+02  0.25212039441E+02  0.51100000000E-03 0. -1.
        -11    1    3    3    0    0  0.15830973828E+02  0.13866422316E+02 -0.49893260604E+01  0.21628471398E+02  0.51100000000E-03 0.  1.
        -12    1    3    3    0    0 -0.45973456489E+00 -0.59363634449E+00  0.57669402156E+00  0.94675021741E+00  0.00000000000E+00 0.  1.
</event>
<event>
 7    1  0.2430096E-009  0.4778727E+02  0.7816164E-02  0.1312668E+00
        -11   -1    0    0    0    0  0.00000000000E+00  0.00000000000E+00  0.45593999997E+02  0.45594000000E+02  0.51100000000E-03 0.  1.
         11   -1    0    0    0    0 -0.00000000000E+00 -0.00000000000E+00 -0.45593999997E+02  0.45594000000E+02  0.51100000000E-03 0. -1.
    9900012    2    1    2    0    0  0.10409194528E+02 -0.15476641582E+02 -0.39188591819E+02  0.47787268507E+02  0.19999988430E+02 0.  0.
        -12    1    1    2    0    0 -0.10409194528E+02  0.15476641582E+02  0.39188591819E+02  0.43400731493E+02  0.00000000000E+00 0.  1.
         11    1    3    3    0    0  0.94800449554E+01 -0.39403671561E+00 -0.13907947120E+02  0.16836196442E+02  0.51100000000E-03 0. -1.
        -11    1    3    3    0    0 -0.24360567141E+01 -0.69027070225E+01 -0.18213557687E+02  0.19629452881E+02  0.51100000000E-03 0.  1.
         12    1    3    3    0    0  0.33652062863E+01 -0.81798978443E+01 -0.70670870120E+01  0.11321619183E+02  0.00000000000E+00 0. -1.
</event>
<event>
 7    1  0.2430096E-009  0.4778727E+02  0.7816164E-02  0.1312668E+00
        -11   -1    0    0    0    0  0.00000000000E+00  0.00000000000E+00  0.45593999997E+02  0.45594000000E+02  0.51100000000E-03 0.  1.
         11   -1    0    0    0    0 -0.00000000000E+00 -0.00000000000E+00 -0.45593999997E+02  0.45594000000E+02  0.51100000000E-03 0. -1.
    9900012    2    1    2    0    0  0.27876291195E+02  0.29861101431E+02  0.14657774227E+02  0.47787270343E+02  0.19999996801E+02 0.  0.
        -12    1    1    2    0    0 -0.27876291195E+02 -0.29861101431E+02 -0.14657774227E+02  0.43400729657E+02  0.00000000000E+00 0.  1.
         11    1    3    3    0    0  0.20264596981E+02  0.25684288871E+02  0.12096036557E+02  0.34880520154E+02  0.51100000000E-03 0. -1.
        -11    1    3    3    0    0  0.97740471627E+01  0.35037875579E+01  0.20102605966E+01  0.10575900582E+02  0.51100000000E-03 0.  1.
         12    1    3    3    0    0 -0.21623529481E+01  0.67302500237E+00  0.55147707333E+00  0.23308496065E+01  0.00000000000E+00 0. -1.
</event>
<event>
 7    1  0.2430096E-009  0.4778727E+02  0.7816164E-02  0.1312668E+00
        -11   -1    0    0    0    0  0.00000000000E+00  0.00000000000E+00  0.45593999997E+02  0.45594000000E+02  0.51100000000E-03 0.  1.
         11   -1    0    0    0    0 -0.00000000000E+00 -0.00000000000E+00 -0.45593999997E+02  0.45594000000E+02  0.51100000000E-03 0. -1.
    9900012    2    1    2    0    0 -0.16909577579E+02 -0.39398381105E+02 -0.67421765323E+01  0.47787271988E+02  0.20000004301E+02 0.  0.
        -12    1    1    2    0    0  0.16909577579E+02  0.39398381105E+02  0.67421765323E+01  0.43400728012E+02  0.00000000000E+00 0.  1.
         11    1    3    3    0    0 -0.13957922613E+02 -0.15924622716E+02 -0.76562990156E+01  0.22517462717E+02  0.51100000000E-03 0. -1.
        -11    1    3    3    0    0  0.29692508120E+01 -0.95109975750E+01  0.15835814448E+01  0.10088768791E+02  0.51100000000E-03 0.  1.
        -12    1    3    3    0    0 -0.59209057781E+01 -0.13962760814E+02 -0.66945896156E+00  0.15181040481E+02  0.00000000000E+00 0.  1.
</event>
<event>
 7    1  0.2430096E-009  0.4778728E+02  0.7816164E-02  0.1312668E+00
        -11   -1    0    0    0    0  0.00000000000E+00  0.00000000000E+00  0.45593999997E+02  0.45594000000E+02  0.51100000000E-03 0. -1.
         11   -1    0    0    0    0 -0.00000000000E+00 -0.00000000000E+00 -0.45593999997E+02  0.45594000000E+02  0.51100000000E-03 0.  1.
    9900012    2    1    2    0    0 -0.11430838764E+02 -0.19846700996E+02  0.36865521058E+02  0.47787282746E+02  0.20000053353E+02 0.  0.
        -12    1    1    2    0    0  0.11430838764E+02  0.19846700996E+02 -0.36865521058E+02  0.43400717254E+02  0.00000000000E+00 0.  1.
         11    1    3    3    0    0 -0.12678351076E+01  0.23418398767E+01  0.47265566192E+01  0.54251228193E+01  0.51100000000E-03 0. -1.
        -11    1    3    3    0    0 -0.12448821017E+02 -0.16450752138E+02  0.19954081569E+02  0.28701319868E+02  0.51100000000E-03 0.  1.
        -12    1    3    3    0    0  0.22858173612E+01 -0.57377887344E+01  0.12184882870E+02  0.13660840059E+02  0.00000000000E+00 0.  1.
</event>
<event>
 7    1  0.2430096E-009  0.4778727E+02  0.7816164E-02  0.1312668E+00
        -11   -1    0    0    0    0  0.00000000000E+00  0.00000000000E+00  0.45593999997E+02  0.45594000000E+02  0.51100000000E-03 0.  1.
         11   -1    0    0    0    0 -0.00000000000E+00 -0.00000000000E+00 -0.45593999997E+02  0.45594000000E+02  0.51100000000E-03 0. -1.
    9900012    2    1    2    0    0  0.38436302693E+02 -0.14252634138E+02 -0.14252590629E+02  0.47787270926E+02  0.19999999458E+02 0.  0.
        -12    1    1    2    0    0 -0.38436302693E+02  0.14252634138E+02  0.14252590629E+02  0.43400729074E+02  0.00000000000E+00 0.  1.
         11    1    3    3    0    0  0.19503110622E+02 -0.32886871964E+01  0.85950750506E+00  0.19797109405E+02  0.51100000000E-03 0.  1.
        -11    1    3    3    0    0  0.98108796614E+01 -0.32342655736E+01 -0.25353805697E+01  0.10636822290E+02  0.51100000000E-03 0. -1.
         12    1    3    3    0    0  0.91223124096E+01 -0.77296813678E+01 -0.12576717564E+02  0.17353339230E+02  0.00000000000E+00 0. -1.
</event>
<event>
 7    1  0.2430096E-009  0.4778727E+02  0.7816164E-02  0.1312668E+00
        -11   -1    0    0    0    0  0.00000000000E+00  0.00000000000E+00  0.45593999997E+02  0.45594000000E+02  0.51100000000E-03 0. -1.
         11   -1    0    0    0    0 -0.00000000000E+00 -0.00000000000E+00 -0.45593999997E+02  0.45594000000E+02  0.51100000000E-03 0.  1.
    9900012    2    1    2    0    0 -0.11066590827E+02 -0.40163912318E+02 -0.12166093507E+02  0.47787272858E+02  0.20000008270E+02 0.  0.
        -12    1    1    2    0    0  0.11066590827E+02  0.40163912318E+02  0.12166093507E+02  0.43400727142E+02  0.00000000000E+00 0.  1.
         11    1    3    3    0    0  0.23243445674E+01 -0.18073818576E+02 -0.18749872176E+01  0.18318872043E+02  0.51100000000E-03 0. -1.
        -11    1    3    3    0    0 -0.98582210955E+01 -0.18863369910E+02 -0.11944046936E+02  0.24406382464E+02  0.51100000000E-03 0.  1.
         12    1    3    3    0    0 -0.35327142987E+01 -0.32267238319E+01  0.16529406471E+01  0.50620183510E+01  0.00000000000E+00 0. -1.
</event>
<event>
 7    1  0.2430096E-009  0.4778727E+02  0.7816164E-02  0.1312668E+00
        -11   -1    0    0    0    0  0.00000000000E+00  0.00000000000E+00  0.45593999997E+02  0.45594000000E+02  0.51100000000E-03 0. -1.
         11   -1    0    0    0    0 -0.00000000000E+00 -0.00000000000E+00 -0.45593999997E+02  0.45594000000E+02  0.51100000000E-03 0.  1.
    9900012    2    1    2    0    0 -0.24926873083E+02 -0.16919632174E+02  0.31241000967E+02  0.47787273094E+02  0.20000009343E+02 0.  0.
        -12    1    1    2    0    0  0.24926873083E+02  0.16919632174E+02 -0.31241000967E+02  0.43400726906E+02  0.00000000000E+00 0.  1.
         11    1    3    3    0    0 -0.13764094969E+02 -0.11639050633E+02  0.13378973692E+02  0.22448045511E+02  0.51100000000E-03 0. -1.
        -11    1    3    3    0    0 -0.19355905226E+01  0.25932600028E+01 -0.55820900553E+00  0.32837639484E+01  0.51100000000E-03 0.  1.
        -12    1    3    3    0    0 -0.92271875917E+01 -0.78738415440E+01  0.18420236280E+02  0.22055463634E+02  0.00000000000E+00 0.  1.
</event>
<event>
 7    1  0.2430096E-009  0.4778727E+02  0.7816164E-02  0.1312668E+00
        -11   -1    0    0    0    0  0.00000000000E+00  0.00000000000E+00  0.45593999997E+02  0.45594000000E+02  0.51100000000E-03 0. -1.
         11   -1    0    0    0    0 -0.00000000000E+00 -0.00000000000E+00 -0.45593999997E+02  0.45594000000E+02  0.51100000000E-03 0.  1.
    9900012    2    1    2    0    0  0.27707329709E+02  0.17595455807E+02  0.28395897109E+02  0.47787272387E+02  0.20000006122E+02 0.  0.
        -12    1    1    2    0    0 -0.27707329709E+02 -0.17595455807E+02 -0.28395897109E+02  0.43400727613E+02  0.00000000000E+00 0.  1.
         11    1    3    3    0    0 -0.12046562859E+01 -0.24132725383E+01  0.74243729430E+00  0.27975515202E+01  0.51100000000E-03 0.  1.
        -11    1    3    3    0    0  0.27993068371E+02  0.20058372138E+02  0.26207117899E+02  0.43275434123E+02  0.51100000000E-03 0. -1.
         12    1    3    3    0    0  0.91891762383E+00 -0.49643792069E-01  0.14463419156E+01  0.17142867445E+01  0.00000000000E+00 0. -1.
</event>
<event>
 7    1  0.2430096E-009  0.4778727E+02  0.7816164E-02  0.1312668E+00
        -11   -1    0    0    0    0  0.00000000000E+00  0.00000000000E+00  0.45593999997E+02  0.45594000000E+02  0.51100000000E-03 0.  1.
         11   -1    0    0    0    0 -0.00000000000E+00 -0.00000000000E+00 -0.45593999997E+02  0.45594000000E+02  0.51100000000E-03 0. -1.
    9900012    2    1    2    0    0  0.37167922290E+02 -0.13432358240E+01 -0.22368835382E+02  0.47787268138E+02  0.19999986749E+02 0.  0.
        -12    1    1    2    0    0 -0.37167922290E+02  0.13432358240E+01  0.22368835382E+02  0.43400731862E+02  0.00000000000E+00 0.  1.
         11    1    3    3    0    0  0.23293549873E+02 -0.55179122999E+00 -0.91193765029E+01  0.25021130416E+02  0.51100000000E-03 0. -1.
        -11    1    3    3    0    0  0.70354709740E+01 -0.42888106631E+01 -0.12603303972E+02  0.15057722935E+02  0.51100000000E-03 0.  1.
        -12    1    3    3    0    0  0.68389014426E+01  0.34973660690E+01 -0.64615490739E+00  0.77084147869E+01  0.00000000000E+00 0.  1.
</event>
<event>
 7    1  0.2430096E-009  0.4778723E+02  0.7816164E-02  0.1312668E+00
        -11   -1    0    0    0    0  0.00000000000E+00  0.00000000000E+00  0.45593999997E+02  0.45594000000E+02  0.51100000000E-03 0.  1.
         11   -1    0    0    0    0 -0.00000000000E+00 -0.00000000000E+00 -0.45593999997E+02  0.45594000000E+02  0.51100000000E-03 0. -1.
    9900012    2    1    2    0    0 -0.35257504106E+02  0.16469861799E+02 -0.19216626602E+02  0.47787231788E+02  0.19999821011E+02 0.  0.
        -12    1    1    2    0    0  0.35257504106E+02 -0.16469861799E+02  0.19216626602E+02  0.43400768212E+02  0.00000000000E+00 0.  1.
         11    1    3    3    0    0 -0.19489810110E+02  0.82189808511E+01 -0.43813365835E+01  0.21600936435E+02  0.51100000000E-03 0. -1.
        -11    1    3    3    0    0 -0.10091421048E+02  0.80525553517E+01 -0.15822545072E+02  0.20421394646E+02  0.51100000000E-03 0.  1.
        -12    1    3    3    0    0 -0.56762729477E+01  0.19832559643E+00  0.98725505302E+00  0.57649007068E+01  0.00000000000E+00 0.  1.
</event>
<event>
 7    1  0.2901238E-009  0.4778727E+02  0.7816164E-02  0.1312668E+00
        -11   -1    0    0    0    0  0.00000000000E+00  0.00000000000E+00  0.45593999997E+02  0.45594000000E+02  0.51100000000E-03 0. -1.
         11   -1    0    0    0    0 -0.00000000000E+00 -0.00000000000E+00 -0.45593999997E+02  0.45594000000E+02  0.51100000000E-03 0.  1.
    9900012    2    1    2    0    0  0.23567676246E+02 -0.35773920840E+02  0.69580644127E+01  0.47787269173E+02  0.19999991467E+02 0.  0.
        -12    1    1    2    0    0 -0.23567676246E+02  0.35773920840E+02 -0.69580644127E+01  0.43400730827E+02  0.00000000000E+00 0.  1.
         11    1    3    3    0    0  0.65610796174E+01 -0.14969443589E+02  0.97582522063E+01  0.19035637460E+02  0.51100000000E-03 0. -1.
        -11    1    3    3    0    0  0.22649090009E+00  0.93536773864E+00  0.51187722104E+00  0.10900593951E+01  0.51100000000E-03 0.  1.
         12    1    3    3    0    0  0.16780105729E+02 -0.21739844990E+02 -0.33120650147E+01  0.27661572318E+02  0.00000000000E+00 0. -1.
</event>
<event>
 7    1  0.2430096E-009  0.4778727E+02  0.7816164E-02  0.1312668E+00
        -11   -1    0    0    0    0  0.00000000000E+00  0.00000000000E+00  0.45593999997E+02  0.45594000000E+02  0.51100000000E-03 0.  1.
         11   -1    0    0    0    0 -0.00000000000E+00 -0.00000000000E+00 -0.45593999997E+02  0.45594000000E+02  0.51100000000E-03 0. -1.
    9900012    2    1    2    0    0  0.29593692469E+02 -0.30911797929E+02 -0.72316788525E+01  0.47787273460E+02  0.20000011015E+02 0.  0.
        -12    1    1    2    0    0 -0.29593692469E+02  0.30911797929E+02  0.72316788525E+01  0.43400726540E+02  0.00000000000E+00 0.  1.
         11    1    3    3    0    0  0.30569623602E+02 -0.25861805852E+02 -0.24305828333E+01  0.40115366411E+02  0.51100000000E-03 0. -1.
        -11    1    3    3    0    0 -0.58263108264E+00 -0.36101177367E+01 -0.13260043495E+01  0.38898196420E+01  0.51100000000E-03 0.  1.
         12    1    3    3    0    0 -0.39330005062E+00 -0.14398743403E+01 -0.34750916698E+01  0.37820874076E+01  0.00000000000E+00 0. -1.
</event>
<event>
 7    1  0.2430096E-009  0.4778727E+02  0.7816164E-02  0.1312668E+00
        -11   -1    0    0    0    0  0.00000000000E+00  0.00000000000E+00  0.45593999997E+02  0.45594000000E+02  0.51100000000E-03 0.  1.
         11   -1    0    0    0    0 -0.00000000000E+00 -0.00000000000E+00 -0.45593999997E+02  0.45594000000E+02  0.51100000000E-03 0. -1.
    9900012    2    1    2    0    0  0.27507067471E+02 -0.17965581441E+02 -0.28358819827E+02  0.47787267986E+02  0.19999986055E+02 0.  0.
        -12    1    1    2    0    0 -0.27507067471E+02  0.17965581441E+02  0.28358819827E+02  0.43400732014E+02  0.00000000000E+00 0.  1.
         11    1    3    3    0    0  0.13347286074E+02 -0.85373950667E+01 -0.22724836224E+02  0.27702984347E+02  0.51100000000E-03 0. -1.
        -11    1    3    3    0    0  0.13943851581E+02 -0.73757143613E+01 -0.19940069393E+01  0.15899944126E+02  0.51100000000E-03 0.  1.
         12    1    3    3    0    0  0.21592981555E+00 -0.20524720132E+01 -0.36399766635E+01  0.41843395131E+01  0.00000000000E+00 0. -1.
</event>
<event>
 7    1  0.2430096E-009  0.4778727E+02  0.7816164E-02  0.1312668E+00
        -11   -1    0    0    0    0  0.00000000000E+00  0.00000000000E+00  0.45593999997E+02  0.45594000000E+02  0.51100000000E-03 0.  1.
         11   -1    0    0    0    0 -0.00000000000E+00 -0.00000000000E+00 -0.45593999997E+02  0.45594000000E+02  0.51100000000E-03 0. -1.
    9900012    2    1    2    0    0  0.71919815753E+01 -0.39044755293E+02 -0.17532991740E+02  0.47787270580E+02  0.19999997881E+02 0.  0.
        -12    1    1    2    0    0 -0.71919815753E+01  0.39044755293E+02  0.17532991740E+02  0.43400729420E+02  0.00000000000E+00 0.  1.
         11    1    3    3    0    0  0.23958716215E+01 -0.23958741563E+02 -0.17463931644E+02  0.29744754274E+02  0.51100000000E-03 0. -1.
        -11    1    3    3    0    0 -0.10767247946E+01 -0.14588782947E+00  0.15665036896E+01  0.19064505272E+01  0.51100000000E-03 0.  1.
         12    1    3    3    0    0  0.58728347484E+01 -0.14940125900E+02 -0.16355637860E+01  0.16136065778E+02  0.00000000000E+00 0. -1.
</event>
<event>
 7    1  0.2430096E-009  0.4778727E+02  0.7816164E-02  0.1312668E+00
        -11   -1    0    0    0    0  0.00000000000E+00  0.00000000000E+00  0.45593999997E+02  0.45594000000E+02  0.51100000000E-03 0. -1.
         11   -1    0    0    0    0 -0.00000000000E+00 -0.00000000000E+00 -0.45593999997E+02  0.45594000000E+02  0.51100000000E-03 0.  1.
    9900012    2    1    2    0    0  0.16546987798E+02 -0.20794739215E+02  0.34313253857E+02  0.47787269886E+02  0.19999994717E+02 0.  0.
        -12    1    1    2    0    0 -0.16546987798E+02  0.20794739215E+02 -0.34313253857E+02  0.43400730114E+02  0.00000000000E+00 0.  1.
         11    1    3    3    0    0  0.10071826806E+02 -0.18393847749E+02  0.34260747371E+02  0.40169318402E+02  0.51100000000E-03 0. -1.
        -11    1    3    3    0    0  0.29051350979E+01  0.53163845092E+00 -0.37991116097E+00  0.29777142460E+01  0.51100000000E-03 0.  1.
         12    1    3    3    0    0  0.35700258942E+01 -0.29325299167E+01  0.43241764685E+00  0.46402372374E+01  0.00000000000E+00 0. -1.
</event>
<event>
 7    1  0.2430096E-009  0.4778729E+02  0.7816164E-02  0.1312668E+00
        -11   -1    0    0    0    0  0.00000000000E+00  0.00000000000E+00  0.45593999997E+02  0.45594000000E+02  0.51100000000E-03 0.  1.
         11   -1    0    0    0    0 -0.00000000000E+00 -0.00000000000E+00 -0.45593999997E+02  0.45594000000E+02  0.51100000000E-03 0. -1.
    9900012    2    1    2    0    0 -0.80733047330E+01 -0.25744808483E+02 -0.33994825211E+02  0.47787290856E+02  0.20000090327E+02 0.  0.
        -12    1    1    2    0    0  0.80733047330E+01  0.25744808483E+02  0.33994825211E+02  0.43400709144E+02  0.00000000000E+00 0.  1.
         11    1    3    3    0    0 -0.10708333713E+02 -0.21943238130E+02 -0.32938862698E+02  0.41001741263E+02  0.51100000000E-03 0. -1.
        -11    1    3    3    0    0  0.20204874464E+01 -0.37454967502E+01  0.12202243779E+01  0.44271958642E+01  0.51100000000E-03 0.  1.
         12    1    3    3    0    0  0.61454153326E+00 -0.56073602787E-01 -0.22761868908E+01  0.23583537281E+01  0.00000000000E+00 0. -1.
</event>
<event>
 7    1  0.2430096E-009  0.4778727E+02  0.7816164E-02  0.1312668E+00
        -11   -1    0    0    0    0  0.00000000000E+00  0.00000000000E+00  0.45593999997E+02  0.45594000000E+02  0.51100000000E-03 0. -1.
         11   -1    0    0    0    0 -0.00000000000E+00 -0.00000000000E+00 -0.45593999997E+02  0.45594000000E+02  0.51100000000E-03 0.  1.
    9900012    2    1    2    0    0 -0.64867025808E+01 -0.41365885613E+02  0.11419718344E+02  0.47787265329E+02  0.19999973940E+02 0.  0.
        -12    1    1    2    0    0  0.64867025808E+01  0.41365885613E+02 -0.11419718344E+02  0.43400734671E+02  0.00000000000E+00 0.  1.
         11    1    3    3    0    0 -0.92581766287E+01 -0.94423007302E+01  0.18379915378E+01  0.13350995870E+02  0.51100000000E-03 0. -1.
        -11    1    3    3    0    0 -0.31959208044E+00 -0.27839217522E+02  0.91044664065E+01  0.29291901272E+02  0.51100000000E-03 0.  1.
         12    1    3    3    0    0  0.30910661283E+01 -0.40843673609E+01  0.47726040022E+00  0.51443681865E+01  0.00000000000E+00 0. -1.
</event>
<event>
 7    1  0.2430096E-009  0.4778727E+02  0.7816164E-02  0.1312668E+00
        -11   -1    0    0    0    0  0.00000000000E+00  0.00000000000E+00  0.45593999997E+02  0.45594000000E+02  0.51100000000E-03 0.  1.
         11   -1    0    0    0    0 -0.00000000000E+00 -0.00000000000E+00 -0.45593999997E+02  0.45594000000E+02  0.51100000000E-03 0. -1.
    9900012    2    1    2    0    0  0.14945248848E+02 -0.66638116328E+01 -0.40197715505E+02  0.47787272121E+02  0.20000004908E+02 0.  0.
        -12    1    1    2    0    0 -0.14945248848E+02  0.66638116328E+01  0.40197715505E+02  0.43400727879E+02  0.00000000000E+00 0.  1.
         11    1    3    3    0    0  0.24280620692E+01  0.10422695754E+01 -0.44219943080E+00  0.26790580205E+01  0.51100000000E-03 0. -1.
        -11    1    3    3    0    0  0.50190072429E+01  0.44680899330E+01 -0.94100548257E+01  0.11563018353E+02  0.51100000000E-03 0.  1.
        -12    1    3    3    0    0  0.74981795364E+01 -0.12174171141E+02 -0.30345461248E+02  0.33545195747E+02  0.00000000000E+00 0.  1.
</event>
<event>
 7    1  0.2430096E-009  0.4778727E+02  0.7816164E-02  0.1312668E+00
        -11   -1    0    0    0    0  0.00000000000E+00  0.00000000000E+00  0.45593999997E+02  0.45594000000E+02  0.51100000000E-03 0. -1.
         11   -1    0    0    0    0 -0.00000000000E+00 -0.00000000000E+00 -0.45593999997E+02  0.45594000000E+02  0.51100000000E-03 0.  1.
    9900012    2    1    2    0    0 -0.31821302856E+02 -0.25076354136E+02  0.15562909292E+02  0.47787274225E+02  0.20000014499E+02 0.  0.
        -12    1    1    2    0    0  0.31821302856E+02  0.25076354136E+02 -0.15562909292E+02  0.43400725775E+02  0.00000000000E+00 0.  1.
         11    1    3    3    0    0 -0.42233766861E+01 -0.79172596563E+01  0.44054981777E+01  0.99964156352E+01  0.51100000000E-03 0. -1.
        -11    1    3    3    0    0 -0.12185293353E+02  0.57766133358E+00  0.11573071502E+01  0.12253751540E+02  0.51100000000E-03 0.  1.
        -12    1    3    3    0    0 -0.15412632817E+02 -0.17736755814E+02  0.10000103964E+02  0.25537107049E+02  0.00000000000E+00 0.  1.
</event>
<event>
 7    1  0.2430096E-009  0.4778727E+02  0.7816164E-02  0.1312668E+00
        -11   -1    0    0    0    0  0.00000000000E+00  0.00000000000E+00  0.45593999997E+02  0.45594000000E+02  0.51100000000E-03 0.  1.
         11   -1    0    0    0    0 -0.00000000000E+00 -0.00000000000E+00 -0.45593999997E+02  0.45594000000E+02  0.51100000000E-03 0. -1.
    9900012    2    1    2    0    0 -0.97945303469E+01 -0.40642938912E+02 -0.11655134985E+02  0.47787268674E+02  0.19999989193E+02 0.  0.
        -12    1    1    2    0    0  0.97945303469E+01  0.40642938912E+02  0.11655134985E+02  0.43400731326E+02  0.00000000000E+00 0.  1.
         11    1    3    3    0    0 -0.99546593079E+01 -0.21607939746E+02 -0.68319233739E+01  0.24752241904E+02  0.51100000000E-03 0. -1.
        -11    1    3    3    0    0  0.15796145822E+00  0.15849928962E+01 -0.14243222266E+01  0.21367845866E+01  0.51100000000E-03 0.  1.
        -12    1    3    3    0    0  0.21675027973E-02 -0.20619992062E+02 -0.33988893841E+01  0.20898242184E+02  0.00000000000E+00 0.  1.
</event>
<event>
 7    1  0.2430096E-009  0.4778727E+02  0.7816164E-02  0.1312668E+00
        -11   -1    0    0    0    0  0.00000000000E+00  0.00000000000E+00  0.45593999997E+02  0.45594000000E+02  0.51100000000E-03 0. -1.
         11   -1    0    0    0    0 -0.00000000000E+00 -0.00000000000E+00 -0.45593999997E+02  0.45594000000E+02  0.51100000000E-03 0.  1.
    9900012    2    1    2    0    0 -0.24430816074E+02 -0.96383243777E+01  0.34552298285E+02  0.47787269733E+02  0.19999994023E+02 0.  0.
        -12    1    1    2    0    0  0.24430816074E+02  0.96383243777E+01 -0.34552298285E+02  0.43400730267E+02  0.00000000000E+00 0.  1.
         11    1    3    3    0    0 -0.96552352865E+01 -0.79250988276E+01  0.26035385433E+02  0.28876842881E+02  0.51100000000E-03 0. -1.
        -11    1    3    3    0    0 -0.49741442760E+01 -0.27417530311E+01 -0.29884072743E+00  0.56875853404E+01  0.51100000000E-03 0.  1.
         12    1    3    3    0    0 -0.98014365119E+01  0.10285274810E+01  0.88157535798E+01  0.13222841512E+02  0.00000000000E+00 0. -1.
</event>
<event>
 7    1  0.2430096E-009  0.4778727E+02  0.7816164E-02  0.1312668E+00
        -11   -1    0    0    0    0  0.00000000000E+00  0.00000000000E+00  0.45593999997E+02  0.45594000000E+02  0.51100000000E-03 0.  1.
         11   -1    0    0    0    0 -0.00000000000E+00 -0.00000000000E+00 -0.45593999997E+02  0.45594000000E+02  0.51100000000E-03 0. -1.
    9900012    2    1    2    0    0  0.12197583204E+01 -0.26052188180E+02 -0.34690329681E+02  0.47787270828E+02  0.19999999012E+02 0.  0.
        -12    1    1    2    0    0 -0.12197583204E+01  0.26052188180E+02  0.34690329681E+02  0.43400729172E+02  0.00000000000E+00 0.  1.
         11    1    3    3    0    0  0.66274535790E+01 -0.13494127056E+02 -0.20611201276E+02  0.25511492004E+02  0.51100000000E-03 0. -1.
        -11    1    3    3    0    0 -0.63419580636E+01 -0.13611702928E+02 -0.10211244774E+02  0.18159526667E+02  0.51100000000E-03 0.  1.
         12    1    3    3    0    0  0.93426280509E+00  0.10536418039E+01 -0.38678836301E+01  0.41162521565E+01  0.00000000000E+00 0. -1.
</event>
<event>
 7    1  0.2430096E-009  0.4778729E+02  0.7816164E-02  0.1312668E+00
        -11   -1    0    0    0    0  0.00000000000E+00  0.00000000000E+00  0.45593999997E+02  0.45594000000E+02  0.51100000000E-03 0. -1.
         11   -1    0    0    0    0 -0.00000000000E+00 -0.00000000000E+00 -0.45593999997E+02  0.45594000000E+02  0.51100000000E-03 0.  1.
    9900012    2    1    2    0    0 -0.39129080964E+02 -0.18236335030E+02  0.44690523455E+01  0.47787293540E+02  0.20000102564E+02 0.  0.
        -12    1    1    2    0    0  0.39129080964E+02  0.18236335030E+02 -0.44690523455E+01  0.43400706460E+02  0.00000000000E+00 0.  1.
         11    1    3    3    0    0 -0.14610361343E+02 -0.16571367107E+02 -0.31669407243E+00  0.22094641019E+02  0.51100000000E-03 0. -1.
        -11    1    3    3    0    0 -0.12504455849E+02 -0.51810621781E+00 -0.48150088136E+00  0.12524443839E+02  0.51100000000E-03 0.  1.
         12    1    3    3    0    0 -0.12014263772E+02 -0.11468617052E+01  0.52672472993E+01  0.13168208681E+02  0.00000000000E+00 0. -1.
</event>
<event>
 7    1  0.2430096E-009  0.4778727E+02  0.7816164E-02  0.1312668E+00
        -11   -1    0    0    0    0  0.00000000000E+00  0.00000000000E+00  0.45593999997E+02  0.45594000000E+02  0.51100000000E-03 0.  1.
         11   -1    0    0    0    0 -0.00000000000E+00 -0.00000000000E+00 -0.45593999997E+02  0.45594000000E+02  0.51100000000E-03 0. -1.
    9900012    2    1    2    0    0 -0.34955606910E+02  0.18767533628E+02 -0.17592863407E+02  0.47787267106E+02  0.19999982041E+02 0.  0.
        -12    1    1    2    0    0  0.34955606910E+02 -0.18767533628E+02  0.17592863407E+02  0.43400732894E+02  0.00000000000E+00 0.  1.
         11    1    3    3    0    0 -0.82224560709E+01  0.10607697756E+02 -0.10260838720E+02  0.16894284448E+02  0.51100000000E-03 0. -1.
        -11    1    3    3    0    0 -0.22357956384E+01  0.12168630726E+01 -0.46354250733E+01  0.52883554859E+01  0.51100000000E-03 0.  1.
         12    1    3    3    0    0 -0.24497355201E+02  0.69429727998E+01 -0.26965996142E+01  0.25604627172E+02  0.00000000000E+00 0. -1.
</event>
<event>
 7    1  0.2430096E-009  0.4778728E+02  0.7816164E-02  0.1312668E+00
        -11   -1    0    0    0    0  0.00000000000E+00  0.00000000000E+00  0.45593999997E+02  0.45594000000E+02  0.51100000000E-03 0.  1.
         11   -1    0    0    0    0 -0.00000000000E+00 -0.00000000000E+00 -0.45593999997E+02  0.45594000000E+02  0.51100000000E-03 0. -1.
    9900012    2    1    2    0    0  0.37201724782E+01 -0.42881217953E+02  0.55663342383E+01  0.47787278655E+02  0.20000034701E+02 0.  0.
        -12    1    1    2    0    0 -0.37201724782E+01  0.42881217953E+02 -0.55663342383E+01  0.43400721345E+02  0.00000000000E+00 0.  1.
         11    1    3    3    0    0  0.12532529177E+01 -0.22290468832E+02  0.58609103622E+01  0.23082155752E+02  0.51100000000E-03 0.  1.
        -11    1    3    3    0    0  0.35782139547E+01 -0.14510852638E+02 -0.61778929754E+01  0.16172038253E+02  0.51100000000E-03 0. -1.
        -12    1    3    3    0    0 -0.11112943941E+01 -0.60798964835E+01  0.58833168515E+01  0.85330846507E+01  0.00000000000E+00 0.  1.
</event>
<event>
 7    1  0.2430096E-009  0.4778727E+02  0.7816164E-02  0.1312668E+00
        -11   -1    0    0    0    0  0.00000000000E+00  0.00000000000E+00  0.45593999997E+02  0.45594000000E+02  0.51100000000E-03 0. -1.
         11   -1    0    0    0    0 -0.00000000000E+00 -0.00000000000E+00 -0.45593999997E+02  0.45594000000E+02  0.51100000000E-03 0.  1.
    9900012    2    1    2    0    0 -0.21389480430E+02  0.94478501797E+01  0.36562981365E+02  0.47787270139E+02  0.19999995874E+02 0.  0.
        -12    1    1    2    0    0  0.21389480430E+02 -0.94478501797E+01 -0.36562981365E+02  0.43400729861E+02  0.00000000000E+00 0.  1.
         11    1    3    3    0    0 -0.17161386337E+02  0.81122075304E+01  0.29685297293E+02  0.35235464630E+02  0.51100000000E-03 0. -1.
        -11    1    3    3    0    0 -0.12233471038E+01 -0.27930286054E+00 -0.23773122581E+01  0.26881596043E+01  0.51100000000E-03 0.  1.
        -12    1    3    3    0    0 -0.30047469895E+01  0.16149455098E+01  0.92549963307E+01  0.98636459056E+01  0.00000000000E+00 0.  1.
</event>
<event>
 7    1  0.2430096E-009  0.4778728E+02  0.7816164E-02  0.1312668E+00
        -11   -1    0    0    0    0  0.00000000000E+00  0.00000000000E+00  0.45593999997E+02  0.45594000000E+02  0.51100000000E-03 0.  1.
         11   -1    0    0    0    0 -0.00000000000E+00 -0.00000000000E+00 -0.45593999997E+02  0.45594000000E+02  0.51100000000E-03 0. -1.
    9900012    2    1    2    0    0  0.36883061561E+02  0.16749652928E+02 -0.15579207574E+02  0.47787276366E+02  0.20000024261E+02 0.  0.
        -12    1    1    2    0    0 -0.36883061561E+02 -0.16749652928E+02  0.15579207574E+02  0.43400723634E+02  0.00000000000E+00 0.  1.
         11    1    3    3    0    0  0.15136224167E+02  0.31361954015E+01 -0.11679346591E+02  0.19373903599E+02  0.51100000000E-03 0. -1.
        -11    1    3    3    0    0  0.19108768852E+02  0.15096452446E+02 -0.55348335865E+01  0.24973632226E+02  0.51100000000E-03 0.  1.
        -12    1    3    3    0    0  0.26380685427E+01 -0.14829949191E+01  0.16349726038E+01  0.34397405398E+01  0.00000000000E+00 0.  1.
</event>
<event>
 7    1  0.2430096E-009  0.4778728E+02  0.7816164E-02  0.1312668E+00
        -11   -1    0    0    0    0  0.00000000000E+00  0.00000000000E+00  0.45593999997E+02  0.45594000000E+02  0.51100000000E-03 0.  1.
         11   -1    0    0    0    0 -0.00000000000E+00 -0.00000000000E+00 -0.45593999997E+02  0.45594000000E+02  0.51100000000E-03 0. -1.
    9900012    2    1    2    0    0  0.37602916098E+02  0.19120748783E+02 -0.10200005929E+02  0.47787280490E+02  0.20000043064E+02 0.  0.
        -12    1    1    2    0    0 -0.37602916098E+02 -0.19120748783E+02  0.10200005929E+02  0.43400719510E+02  0.00000000000E+00 0.  1.
         11    1    3    3    0    0  0.11202471998E+02  0.51428236925E+01  0.13702617008E+01  0.12402484904E+02  0.51100000000E-03 0. -1.
        -11    1    3    3    0    0  0.18251393993E+01  0.40198635242E+01  0.27971827526E+01  0.52263436734E+01  0.51100000000E-03 0.  1.
         12    1    3    3    0    0  0.24575304701E+02  0.99580615659E+01 -0.14367450382E+02  0.30158451913E+02  0.00000000000E+00 0. -1.
</event>
<event>
 7    1  0.2430096E-009  0.4778727E+02  0.7816164E-02  0.1312668E+00
        -11   -1    0    0    0    0  0.00000000000E+00  0.00000000000E+00  0.45593999997E+02  0.45594000000E+02  0.51100000000E-03 0.  1.
         11   -1    0    0    0    0 -0.00000000000E+00 -0.00000000000E+00 -0.45593999997E+02  0.45594000000E+02  0.51100000000E-03 0. -1.
    9900012    2    1    2    0    0  0.19506115400E+02 -0.28476888933E+02 -0.26309723767E+02  0.47787270674E+02  0.19999998313E+02 0.  0.
        -12    1    1    2    0    0 -0.19506115400E+02  0.28476888933E+02  0.26309723767E+02  0.43400729326E+02  0.00000000000E+00 0.  1.
         11    1    3    3    0    0  0.16775069140E+02 -0.10857222567E+02 -0.76171681519E+01  0.21384655187E+02  0.51100000000E-03 0. -1.
        -11    1    3    3    0    0 -0.10900953038E+01 -0.62011131332E+01 -0.42368498264E+01  0.75890057698E+01  0.51100000000E-03 0.  1.
         12    1    3    3    0    0  0.38211415631E+01 -0.11418553232E+02 -0.14455705789E+02  0.18813609718E+02  0.00000000000E+00 0. -1.
</event>
<event>
 7    1  0.2430096E-009  0.4778727E+02  0.7816164E-02  0.1312668E+00
        -11   -1    0    0    0    0  0.00000000000E+00  0.00000000000E+00  0.45593999997E+02  0.45594000000E+02  0.51100000000E-03 0. -1.
         11   -1    0    0    0    0 -0.00000000000E+00 -0.00000000000E+00 -0.45593999997E+02  0.45594000000E+02  0.51100000000E-03 0.  1.
    9900012    2    1    2    0    0  0.32153224086E+02 -0.36172024499E+01  0.28925926801E+02  0.47787271734E+02  0.20000003145E+02 0.  0.
        -12    1    1    2    0    0 -0.32153224086E+02  0.36172024499E+01 -0.28925926801E+02  0.43400728266E+02  0.00000000000E+00 0.  1.
         11    1    3    3    0    0  0.48116077210E+01 -0.53311960672E+01  0.64072984113E+01  0.96242762617E+01  0.51100000000E-03 0. -1.
        -11    1    3    3    0    0  0.16419307256E+02  0.17819998200E+01  0.45430936103E+01  0.17129181940E+02  0.51100000000E-03 0.  1.
        -12    1    3    3    0    0  0.10922309109E+02 -0.68006202612E-01  0.17975534779E+02  0.21033813533E+02  0.00000000000E+00 0.  1.
</event>
<event>
 7    1  0.2430096E-009  0.4778727E+02  0.7816164E-02  0.1312668E+00
        -11   -1    0    0    0    0  0.00000000000E+00  0.00000000000E+00  0.45593999997E+02  0.45594000000E+02  0.51100000000E-03 0.  1.
         11   -1    0    0    0    0 -0.00000000000E+00 -0.00000000000E+00 -0.45593999997E+02  0.45594000000E+02  0.51100000000E-03 0. -1.
    9900012    2    1    2    0    0 -0.34150428662E+02 -0.94666436934E+01 -0.25055025059E+02  0.47787269576E+02  0.19999993305E+02 0.  0.
        -12    1    1    2    0    0  0.34150428662E+02  0.94666436934E+01  0.25055025059E+02  0.43400730424E+02  0.00000000000E+00 0.  1.
         11    1    3    3    0    0 -0.82573889812E+01 -0.28975428973E+01 -0.46803667540E+01  0.99240143511E+01  0.51100000000E-03 0. -1.
        -11    1    3    3    0    0 -0.14571831400E+02 -0.12383498966E+02 -0.13398176849E+02  0.23349528050E+02  0.51100000000E-03 0.  1.
        -12    1    3    3    0    0 -0.11321208280E+02  0.58143981702E+01 -0.69764814562E+01  0.14513727175E+02  0.00000000000E+00 0.  1.
</event>
<event>
 7    1  0.2430096E-009  0.4778727E+02  0.7816164E-02  0.1312668E+00
        -11   -1    0    0    0    0  0.00000000000E+00  0.00000000000E+00  0.45593999997E+02  0.45594000000E+02  0.51100000000E-03 0.  1.
         11   -1    0    0    0    0 -0.00000000000E+00 -0.00000000000E+00 -0.45593999997E+02  0.45594000000E+02  0.51100000000E-03 0. -1.
    9900012    2    1    2    0    0 -0.33842421425E+02 -0.79153412722E+01 -0.25993482930E+02  0.47787271087E+02  0.20000000194E+02 0.  0.
        -12    1    1    2    0    0  0.33842421425E+02  0.79153412722E+01  0.25993482930E+02  0.43400728913E+02  0.00000000000E+00 0.  1.
         11    1    3    3    0    0 -0.15941026931E+00 -0.67377165631E+00 -0.56969163090E+01  0.57388357331E+01  0.51100000000E-03 0.  1.
        -11    1    3    3    0    0 -0.28029668028E+02 -0.66627017710E+01 -0.21847692554E+02  0.36157648635E+02  0.51100000000E-03 0. -1.
        -12    1    3    3    0    0 -0.56533431277E+01 -0.57886784494E+00  0.15511259333E+01  0.58907867184E+01  0.00000000000E+00 0.  1.
</event>
<event>
 7    1  0.2430096E-009  0.4778727E+02  0.7816164E-02  0.1312668E+00
        -11   -1    0    0    0    0  0.00000000000E+00  0.00000000000E+00  0.45593999997E+02  0.45594000000E+02  0.51100000000E-03 0. -1.
         11   -1    0    0    0    0 -0.00000000000E+00 -0.00000000000E+00 -0.45593999997E+02  0.45594000000E+02  0.51100000000E-03 0.  1.
    9900012    2    1    2    0    0 -0.14297720214E+01 -0.39569251488E+02 -0.17772276148E+02  0.47787266010E+02  0.19999977045E+02 0.  0.
        -12    1    1    2    0    0  0.14297720214E+01  0.39569251488E+02  0.17772276148E+02  0.43400733990E+02  0.00000000000E+00 0.  1.
         11    1    3    3    0    0 -0.29362126650E+01 -0.28139388925E+02 -0.11160535632E+02  0.30413880215E+02  0.51100000000E-03 0. -1.
        -11    1    3    3    0    0 -0.36648567506E+01 -0.15172448353E+01 -0.44940777622E+01  0.59941589974E+01  0.51100000000E-03 0.  1.
        -12    1    3    3    0    0  0.51712973942E+01 -0.99126177280E+01 -0.21176627536E+01  0.11379226797E+02  0.00000000000E+00 0.  1.
</event>
<event>
 7    1  0.2430096E-009  0.4778727E+02  0.7816164E-02  0.1312668E+00
        -11   -1    0    0    0    0  0.00000000000E+00  0.00000000000E+00  0.45593999997E+02  0.45594000000E+02  0.51100000000E-03 0.  1.
         11   -1    0    0    0    0 -0.00000000000E+00 -0.00000000000E+00 -0.45593999997E+02  0.45594000000E+02  0.51100000000E-03 0. -1.
    9900012    2    1    2    0    0  0.23797749633E+02 -0.16386501481E+02 -0.32384769067E+02  0.47787267450E+02  0.19999983610E+02 0.  0.
        -12    1    1    2    0    0 -0.23797749633E+02  0.16386501481E+02  0.32384769067E+02  0.43400732550E+02  0.00000000000E+00 0.  1.
         11    1    3    3    0    0  0.11877072188E+02 -0.16080340292E+02 -0.21634622245E+02  0.29456732127E+02  0.51100000000E-03 0. -1.
        -11    1    3    3    0    0  0.13034261047E+01 -0.25547320929E+01  0.24868896039E+00  0.28787883106E+01  0.51100000000E-03 0.  1.
         12    1    3    3    0    0  0.10617251341E+02  0.22485709047E+01 -0.10998835783E+02  0.15451747012E+02  0.00000000000E+00 0. -1.
</event>
<event>
 7    1  0.2430096E-009  0.4778727E+02  0.7816164E-02  0.1312668E+00
        -11   -1    0    0    0    0  0.00000000000E+00  0.00000000000E+00  0.45593999997E+02  0.45594000000E+02  0.51100000000E-03 0. -1.
         11   -1    0    0    0    0 -0.00000000000E+00 -0.00000000000E+00 -0.45593999997E+02  0.45594000000E+02  0.51100000000E-03 0.  1.
    9900012    2    1    2    0    0 -0.33922068424E+02 -0.23029084915E+02  0.14232982077E+02  0.47787271239E+02  0.20000000885E+02 0.  0.
        -12    1    1    2    0    0  0.33922068424E+02  0.23029084915E+02 -0.14232982077E+02  0.43400728761E+02  0.00000000000E+00 0.  1.
         11    1    3    3    0    0 -0.21285500470E+02 -0.92914815878E+01  0.11782394550E+01  0.23254943750E+02  0.51100000000E-03 0. -1.
        -11    1    3    3    0    0  0.62192735604E+00 -0.38488779986E+01  0.43499802805E+01  0.58414881824E+01  0.51100000000E-03 0.  1.
         12    1    3    3    0    0 -0.13258495310E+02 -0.98887253290E+01  0.87047623419E+01  0.18690839306E+02  0.00000000000E+00 0. -1.
</event>
<event>
 7    1  0.2430096E-009  0.4778727E+02  0.7816164E-02  0.1312668E+00
        -11   -1    0    0    0    0  0.00000000000E+00  0.00000000000E+00  0.45593999997E+02  0.45594000000E+02  0.51100000000E-03 0.  1.
         11   -1    0    0    0    0 -0.00000000000E+00 -0.00000000000E+00 -0.45593999997E+02  0.45594000000E+02  0.51100000000E-03 0. -1.
    9900012    2    1    2    0    0  0.30434596166E+01  0.37231992479E+02 -0.22093880214E+02  0.47787268977E+02  0.19999990575E+02 0.  0.
        -12    1    1    2    0    0 -0.30434596166E+01 -0.37231992479E+02  0.22093880214E+02  0.43400731023E+02  0.00000000000E+00 0.  1.
         11    1    3    3    0    0 -0.46657311232E+01  0.96813548721E+01 -0.10587754648E+02  0.15086358998E+02  0.51100000000E-03 0. -1.
        -11    1    3    3    0    0  0.82152609560E+01  0.24381874374E+02 -0.13364522409E+02  0.28992702014E+02  0.51100000000E-03 0.  1.
        -12    1    3    3    0    0 -0.50607021618E+00  0.31687632326E+01  0.18583968428E+01  0.37082079652E+01  0.00000000000E+00 0.  1.
</event>
<event>
 7    1  0.2430096E-009  0.4778728E+02  0.7816164E-02  0.1312668E+00
        -11   -1    0    0    0    0  0.00000000000E+00  0.00000000000E+00  0.45593999997E+02  0.45594000000E+02  0.51100000000E-03 0.  1.
         11   -1    0    0    0    0 -0.00000000000E+00 -0.00000000000E+00 -0.45593999997E+02  0.45594000000E+02  0.51100000000E-03 0. -1.
    9900012    2    1    2    0    0  0.29208564344E+02  0.19146967016E+02 -0.25765797040E+02  0.47787275650E+02  0.20000020999E+02 0.  0.
        -12    1    1    2    0    0 -0.29208564344E+02 -0.19146967016E+02  0.25765797040E+02  0.43400724350E+02  0.00000000000E+00 0.  1.
         11    1    3    3    0    0  0.10248995999E+02  0.19581562953E+01 -0.85957095499E+01  0.13518968821E+02  0.51100000000E-03 0. -1.
        -11    1    3    3    0    0  0.21265928961E+02  0.15355914067E+02 -0.17117681163E+02  0.31321858822E+02  0.51100000000E-03 0.  1.
        -12    1    3    3    0    0 -0.23063606158E+01  0.18328966535E+01 -0.52406327184E-01  0.29464480066E+01  0.00000000000E+00 0.  1.
</event>
<event>
 7    1  0.2430096E-009  0.4778727E+02  0.7816164E-02  0.1312668E+00
        -11   -1    0    0    0    0  0.00000000000E+00  0.00000000000E+00  0.45593999997E+02  0.45594000000E+02  0.51100000000E-03 0. -1.
         11   -1    0    0    0    0 -0.00000000000E+00 -0.00000000000E+00 -0.45593999997E+02  0.45594000000E+02  0.51100000000E-03 0.  1.
    9900012    2    1    2    0    0  0.45363881508E+01  0.27102906217E+02  0.33592813042E+02  0.47787269235E+02  0.19999991750E+02 0.  0.
        -12    1    1    2    0    0 -0.45363881508E+01 -0.27102906217E+02 -0.33592813042E+02  0.43400730765E+02  0.00000000000E+00 0.  1.
         11    1    3    3    0    0 -0.30398128672E+01  0.77376088733E+01  0.15142998063E+02  0.17274878985E+02  0.51100000000E-03 0.  1.
        -11    1    3    3    0    0  0.33059733282E+01  0.12377521929E+02  0.32034194722E+01  0.13205847392E+02  0.51100000000E-03 0. -1.
         12    1    3    3    0    0  0.42702276898E+01  0.69877754141E+01  0.15246395507E+02  0.17306542858E+02  0.00000000000E+00 0. -1.
</event>
<event>
 7    1  0.2430096E-009  0.4778727E+02  0.7816164E-02  0.1312668E+00
        -11   -1    0    0    0    0  0.00000000000E+00  0.00000000000E+00  0.45593999997E+02  0.45594000000E+02  0.51100000000E-03 0.  1.
         11   -1    0    0    0    0 -0.00000000000E+00 -0.00000000000E+00 -0.45593999997E+02  0.45594000000E+02  0.51100000000E-03 0. -1.
    9900012    2    1    2    0    0  0.34233636368E+02 -0.14573329250E+02 -0.22345004577E+02  0.47787274039E+02  0.20000013652E+02 0.  0.
        -12    1    1    2    0    0 -0.34233636368E+02  0.14573329250E+02  0.22345004577E+02  0.43400725961E+02  0.00000000000E+00 0.  1.
         11    1    3    3    0    0  0.16716235081E+02  0.72803801520E+00 -0.11515892352E+02  0.20312024310E+02  0.51100000000E-03 0. -1.
        -11    1    3    3    0    0  0.12973534098E+02 -0.14948122473E+02 -0.56650740583E+01  0.20587666619E+02  0.51100000000E-03 0.  1.
        -12    1    3    3    0    0  0.45438671891E+01 -0.35324479238E+00 -0.51640381658E+01  0.68875831097E+01  0.00000000000E+00 0.  1.
</event>
<event>
 7    1  0.2430096E-009  0.4778727E+02  0.7816164E-02  0.1312668E+00
        -11   -1    0    0    0    0  0.00000000000E+00  0.00000000000E+00  0.45593999997E+02  0.45594000000E+02  0.51100000000E-03 0.  1.
         11   -1    0    0    0    0 -0.00000000000E+00 -0.00000000000E+00 -0.45593999997E+02  0.45594000000E+02  0.51100000000E-03 0. -1.
    9900012    2    1    2    0    0  0.38332390672E+02  0.65159713177E+01 -0.19281940549E+02  0.47787270880E+02  0.19999999249E+02 0.  0.
        -12    1    1    2    0    0 -0.38332390672E+02 -0.65159713177E+01  0.19281940549E+02  0.43400729120E+02  0.00000000000E+00 0.  1.
         11    1    3    3    0    0  0.19266287303E+02  0.82409093393E+01 -0.18135265678E+02  0.27712637454E+02  0.51100000000E-03 0. -1.
        -11    1    3    3    0    0  0.80642598159E+01 -0.34367783287E+01 -0.16886713160E+01  0.89272248059E+01  0.51100000000E-03 0.  1.
         12    1    3    3    0    0  0.11001843553E+02  0.17118403071E+01  0.54199644449E+00  0.11147408620E+02  0.00000000000E+00 0. -1.
</event>
<event>
 7    1  0.2430096E-009  0.4778727E+02  0.7816164E-02  0.1312668E+00
        -11   -1    0    0    0    0  0.00000000000E+00  0.00000000000E+00  0.45593999997E+02  0.45594000000E+02  0.51100000000E-03 0.  1.
         11   -1    0    0    0    0 -0.00000000000E+00 -0.00000000000E+00 -0.45593999997E+02  0.45594000000E+02  0.51100000000E-03 0. -1.
    9900012    2    1    2    0    0  0.32291429477E+02 -0.26228958305E+02  0.12366433485E+02  0.47787270184E+02  0.19999996077E+02 0.  0.
        -12    1    1    2    0    0 -0.32291429477E+02  0.26228958305E+02 -0.12366433485E+02  0.43400729816E+02  0.00000000000E+00 0.  1.
         11    1    3    3    0    0  0.13252029203E+02 -0.65018792002E+01 -0.25051277593E+01  0.14972186763E+02  0.51100000000E-03 0. -1.
        -11    1    3    3    0    0  0.70690150481E+01 -0.14324560914E+02  0.97774828821E+01  0.18728672961E+02  0.51100000000E-03 0.  1.
         12    1    3    3    0    0  0.11970385226E+02 -0.54025181912E+01  0.50940783623E+01  0.14086410459E+02  0.00000000000E+00 0. -1.
</event>
<event>
 7    1  0.2430096E-009  0.4778726E+02  0.7816164E-02  0.1312668E+00
        -11   -1    0    0    0    0  0.00000000000E+00  0.00000000000E+00  0.45593999997E+02  0.45594000000E+02  0.51100000000E-03 0.  1.
         11   -1    0    0    0    0 -0.00000000000E+00 -0.00000000000E+00 -0.45593999997E+02  0.45594000000E+02  0.51100000000E-03 0. -1.
    9900012    2    1    2    0    0 -0.20612780579E+02  0.12412942664E+02 -0.36120025806E+02  0.47787261147E+02  0.19999954875E+02 0.  0.
        -12    1    1    2    0    0  0.20612780579E+02 -0.12412942664E+02  0.36120025806E+02  0.43400738853E+02  0.00000000000E+00 0.  1.
         11    1    3    3    0    0 -0.17974915247E+02 -0.30788371119E+00 -0.19948686094E+02  0.26854095547E+02  0.51100000000E-03 0. -1.
        -11    1    3    3    0    0 -0.60140812919E+00  0.89658222307E+01 -0.10239712979E+02  0.13623486417E+02  0.51100000000E-03 0.  1.
         12    1    3    3    0    0 -0.20364572022E+01  0.37550041443E+01 -0.59316267325E+01  0.73096791827E+01  0.00000000000E+00 0. -1.
</event>
<event>
 7    1  0.2430096E-009  0.4778727E+02  0.7816164E-02  0.1312668E+00
        -11   -1    0    0    0    0  0.00000000000E+00  0.00000000000E+00  0.45593999997E+02  0.45594000000E+02  0.51100000000E-03 0.  1.
         11   -1    0    0    0    0 -0.00000000000E+00 -0.00000000000E+00 -0.45593999997E+02  0.45594000000E+02  0.51100000000E-03 0. -1.
    9900012    2    1    2    0    0 -0.29124287938E+01 -0.25030333588E+02 -0.35335862844E+02  0.47787273694E+02  0.20000012078E+02 0.  0.
        -12    1    1    2    0    0  0.29124287938E+01  0.25030333588E+02  0.35335862844E+02  0.43400726306E+02  0.00000000000E+00 0.  1.
         11    1    3    3    0    0 -0.15377630213E+01 -0.70418370351E+01 -0.44898984180E+01  0.84918414966E+01  0.51100000000E-03 0. -1.
        -11    1    3    3    0    0 -0.88728549576E+01 -0.10423744523E+02 -0.17725554691E+02  0.22395921377E+02  0.51100000000E-03 0.  1.
        -12    1    3    3    0    0  0.74981891851E+01 -0.75647520307E+01 -0.13120409735E+02  0.16899510820E+02  0.00000000000E+00 0.  1.
</event>
<event>
 7    1  0.2430096E-009  0.4778727E+02  0.7816164E-02  0.1312668E+00
        -11   -1    0    0    0    0  0.00000000000E+00  0.00000000000E+00  0.45593999997E+02  0.45594000000E+02  0.51100000000E-03 0.  1.
         11   -1    0    0    0    0 -0.00000000000E+00 -0.00000000000E+00 -0.45593999997E+02  0.45594000000E+02  0.51100000000E-03 0. -1.
    9900012    2    1    2    0    0 -0.13811024374E+02 -0.38001897226E+02 -0.15771320230E+02  0.47787272716E+02  0.20000007620E+02 0.  0.
        -12    1    1    2    0    0  0.13811024374E+02  0.38001897226E+02  0.15771320230E+02  0.43400727284E+02  0.00000000000E+00 0.  1.
         11    1    3    3    0    0  0.33170102517E+00 -0.15331358914E+02 -0.13945563521E+02  0.20727743097E+02  0.51100000000E-03 0. -1.
        -11    1    3    3    0    0 -0.75025901758E+01 -0.14502709107E+02 -0.24664839731E+01  0.16513660231E+02  0.51100000000E-03 0.  1.
         12    1    3    3    0    0 -0.66401352235E+01 -0.81678292047E+01  0.64072726413E+00  0.10545869387E+02  0.00000000000E+00 0. -1.
</event>
<event>
 7    1  0.2430096E-009  0.4778728E+02  0.7816164E-02  0.1312668E+00
        -11   -1    0    0    0    0  0.00000000000E+00  0.00000000000E+00  0.45593999997E+02  0.45594000000E+02  0.51100000000E-03 0.  1.
         11   -1    0    0    0    0 -0.00000000000E+00 -0.00000000000E+00 -0.45593999997E+02  0.45594000000E+02  0.51100000000E-03 0. -1.
    9900012    2    1    2    0    0 -0.23732833299E+02 -0.29004329718E+01 -0.36221024445E+02  0.47787279964E+02  0.20000040667E+02 0.  0.
        -12    1    1    2    0    0  0.23732833299E+02  0.29004329718E+01  0.36221024445E+02  0.43400720036E+02  0.00000000000E+00 0.  1.
         11    1    3    3    0    0 -0.10206358194E+02 -0.20503674114E+01 -0.31512882386E+02  0.33187881985E+02  0.51100000000E-03 0. -1.
        -11    1    3    3    0    0 -0.10065847510E+02 -0.11790958304E+01 -0.45781159758E+01  0.11120732855E+02  0.51100000000E-03 0.  1.
         12    1    3    3    0    0 -0.34606275946E+01  0.32903027000E+00 -0.13002608349E+00  0.34786651246E+01  0.00000000000E+00 0. -1.
</event>
<event>
 7    1  0.2430096E-009  0.4778727E+02  0.7816164E-02  0.1312668E+00
        -11   -1    0    0    0    0  0.00000000000E+00  0.00000000000E+00  0.45593999997E+02  0.45594000000E+02  0.51100000000E-03 0.  1.
         11   -1    0    0    0    0 -0.00000000000E+00 -0.00000000000E+00 -0.45593999997E+02  0.45594000000E+02  0.51100000000E-03 0. -1.
    9900012    2    1    2    0    0  0.38484015873E+01 -0.41135483800E+02  0.13292285885E+02  0.47787273205E+02  0.20000009852E+02 0.  0.
        -12    1    1    2    0    0 -0.38484015873E+01  0.41135483800E+02 -0.13292285885E+02  0.43400726795E+02  0.00000000000E+00 0.  1.
         11    1    3    3    0    0  0.97708470659E+01 -0.13311594238E+02  0.25064761701E+01  0.16701808782E+02  0.51100000000E-03 0. -1.
        -11    1    3    3    0    0 -0.42147793190E+01 -0.18104049986E+02  0.10191765019E+02  0.21198893015E+02  0.51100000000E-03 0.  1.
        -12    1    3    3    0    0 -0.17076661595E+01 -0.97198395762E+01  0.59404469542E+00  0.98865714077E+01  0.00000000000E+00 0.  1.
</event>
<event>
 7    1  0.2430096E-009  0.4778727E+02  0.7816164E-02  0.1312668E+00
        -11   -1    0    0    0    0  0.00000000000E+00  0.00000000000E+00  0.45593999997E+02  0.45594000000E+02  0.51100000000E-03 0.  1.
         11   -1    0    0    0    0 -0.00000000000E+00 -0.00000000000E+00 -0.45593999997E+02  0.45594000000E+02  0.51100000000E-03 0. -1.
    9900012    2    1    2    0    0 -0.34981144026E+02 -0.23550536743E+02 -0.10262320108E+02  0.47787269220E+02  0.19999991683E+02 0.  0.
        -12    1    1    2    0    0  0.34981144026E+02  0.23550536743E+02  0.10262320108E+02  0.43400730780E+02  0.00000000000E+00 0.  1.
         11    1    3    3    0    0  0.13137792584E+01 -0.17440837584E+01  0.26594943418E+01  0.34410397427E+01  0.51100000000E-03 0. -1.
        -11    1    3    3    0    0 -0.24521991684E+02 -0.15217457431E+02 -0.99888082639E+01  0.30539734406E+02  0.51100000000E-03 0.  1.
         12    1    3    3    0    0 -0.11772931600E+02 -0.65889955534E+01 -0.29330061856E+01  0.13806495071E+02  0.00000000000E+00 0. -1.
</event>
<event>
 7    1  0.2430096E-009  0.4778727E+02  0.7816164E-02  0.1312668E+00
        -11   -1    0    0    0    0  0.00000000000E+00  0.00000000000E+00  0.45593999997E+02  0.45594000000E+02  0.51100000000E-03 0. -1.
         11   -1    0    0    0    0 -0.00000000000E+00 -0.00000000000E+00 -0.45593999997E+02  0.45594000000E+02  0.51100000000E-03 0.  1.
    9900012    2    1    2    0    0  0.38672066745E+02 -0.46955782411E+01  0.19132330000E+02  0.47787271290E+02  0.20000001120E+02 0.  0.
        -12    1    1    2    0    0 -0.38672066745E+02  0.46955782411E+01 -0.19132330000E+02  0.43400728710E+02  0.00000000000E+00 0.  1.
         11    1    3    3    0    0  0.30737340937E+02 -0.88744747174E+01  0.17272938557E+02  0.36357871720E+02  0.51100000000E-03 0. -1.
        -11    1    3    3    0    0  0.20047137632E+01  0.47722575857E+01  0.17655127157E+01  0.54690360345E+01  0.51100000000E-03 0.  1.
        -12    1    3    3    0    0  0.59300120449E+01 -0.59336110936E+00  0.93878727244E-01  0.59603635355E+01  0.00000000000E+00 0.  1.
</event>
<event>
 7    1  0.2430096E-009  0.4778727E+02  0.7816164E-02  0.1312668E+00
        -11   -1    0    0    0    0  0.00000000000E+00  0.00000000000E+00  0.45593999997E+02  0.45594000000E+02  0.51100000000E-03 0.  1.
         11   -1    0    0    0    0 -0.00000000000E+00 -0.00000000000E+00 -0.45593999997E+02  0.45594000000E+02  0.51100000000E-03 0. -1.
    9900012    2    1    2    0    0  0.10990418343E+02 -0.32429901892E+02 -0.26667120185E+02  0.47787272690E+02  0.20000007501E+02 0.  0.
        -12    1    1    2    0    0 -0.10990418343E+02  0.32429901892E+02  0.26667120185E+02  0.43400727310E+02  0.00000000000E+00 0.  1.
         11    1    3    3    0    0  0.27288764081E+01 -0.20535028135E+02 -0.23804984725E+02  0.31556480237E+02  0.51100000000E-03 0. -1.
        -11    1    3    3    0    0  0.28088119194E+01 -0.44824661813E+01 -0.44256144940E+01  0.68969552250E+01  0.51100000000E-03 0.  1.
         12    1    3    3    0    0  0.54527300151E+01 -0.74124075766E+01  0.15634790341E+01  0.93338372275E+01  0.00000000000E+00 0. -1.
</event>
<event>
 7    1  0.2430096E-009  0.4778727E+02  0.7816164E-02  0.1312668E+00
        -11   -1    0    0    0    0  0.00000000000E+00  0.00000000000E+00  0.45593999997E+02  0.45594000000E+02  0.51100000000E-03 0.  1.
         11   -1    0    0    0    0 -0.00000000000E+00 -0.00000000000E+00 -0.45593999997E+02  0.45594000000E+02  0.51100000000E-03 0. -1.
    9900012    2    1    2    0    0 -0.40632949572E+02 -0.18575202848E+01 -0.15137263236E+02  0.47787266010E+02  0.19999977048E+02 0.  0.
        -12    1    1    2    0    0  0.40632949572E+02  0.18575202848E+01  0.15137263236E+02  0.43400733990E+02  0.00000000000E+00 0.  1.
         11    1    3    3    0    0 -0.79018346703E+01  0.43349699963E+01 -0.74766020924E+01  0.11710274768E+02  0.51100000000E-03 0. -1.
        -11    1    3    3    0    0 -0.33354284611E+02 -0.48179031047E+01 -0.69537545063E+01  0.34410393695E+02  0.51100000000E-03 0.  1.
        -12    1    3    3    0    0  0.62316970913E+00 -0.13745871764E+01 -0.70690663740E+00  0.16665975477E+01  0.00000000000E+00 0.  1.
</event>
<event>
 7    1  0.2430096E-009  0.4778727E+02  0.7816164E-02  0.1312668E+00
        -11   -1    0    0    0    0  0.00000000000E+00  0.00000000000E+00  0.45593999997E+02  0.45594000000E+02  0.51100000000E-03 0. -1.
         11   -1    0    0    0    0 -0.00000000000E+00 -0.00000000000E+00 -0.45593999997E+02  0.45594000000E+02  0.51100000000E-03 0.  1.
    9900012    2    1    2    0    0  0.40969512503E+02 -0.36526225490E+01  0.13848487004E+02  0.47787271913E+02  0.20000003960E+02 0.  0.
        -12    1    1    2    0    0 -0.40969512503E+02  0.36526225490E+01 -0.13848487004E+02  0.43400728087E+02  0.00000000000E+00 0.  1.
         11    1    3    3    0    0  0.21882848261E+02  0.16584712173E+01  0.61055088480E+01  0.22779087193E+02  0.51100000000E-03 0. -1.
        -11    1    3    3    0    0  0.23396797516E+01 -0.65312545473E+01  0.15311332569E+01  0.71046292383E+01  0.51100000000E-03 0.  1.
        -12    1    3    3    0    0  0.16746984490E+02  0.12201607810E+01  0.62118448987E+01  0.17903555482E+02  0.00000000000E+00 0.  1.
</event>
<event>
 7    1  0.2430096E-009  0.4778727E+02  0.7816164E-02  0.1312668E+00
        -11   -1    0    0    0    0  0.00000000000E+00  0.00000000000E+00  0.45593999997E+02  0.45594000000E+02  0.51100000000E-03 0.  1.
         11   -1    0    0    0    0 -0.00000000000E+00 -0.00000000000E+00 -0.45593999997E+02  0.45594000000E+02  0.51100000000E-03 0. -1.
    9900012    2    1    2    0    0  0.20888310740E+02  0.15251721297E+02 -0.34852357852E+02  0.47787269869E+02  0.19999994639E+02 0.  0.
        -12    1    1    2    0    0 -0.20888310740E+02 -0.15251721297E+02  0.34852357852E+02  0.43400730131E+02  0.00000000000E+00 0.  1.
         11    1    3    3    0    0  0.21323767381E+01  0.48817031457E+01 -0.62488436112E+01  0.82113398964E+01  0.51100000000E-03 0. -1.
        -11    1    3    3    0    0  0.37962781828E+00  0.24227563290E+01  0.18907054499E+01  0.30965517709E+01  0.51100000000E-03 0.  1.
        -12    1    3    3    0    0  0.18376306184E+02  0.79472618221E+01 -0.30494219691E+02  0.36479378201E+02  0.00000000000E+00 0.  1.
</event>
<event>
 7    1  0.2430096E-009  0.4778727E+02  0.7816164E-02  0.1312668E+00
        -11   -1    0    0    0    0  0.00000000000E+00  0.00000000000E+00  0.45593999997E+02  0.45594000000E+02  0.51100000000E-03 0. -1.
         11   -1    0    0    0    0 -0.00000000000E+00 -0.00000000000E+00 -0.45593999997E+02  0.45594000000E+02  0.51100000000E-03 0.  1.
    9900012    2    1    2    0    0  0.65784710184E+01  0.31445721115E-01  0.42899254846E+02  0.47787270327E+02  0.19999996731E+02 0.  0.
        -12    1    1    2    0    0 -0.65784710184E+01 -0.31445721115E-01 -0.42899254846E+02  0.43400729673E+02  0.00000000000E+00 0.  1.
         11    1    3    3    0    0 -0.31140750004E+01 -0.10001461584E+01  0.30674061702E+02  0.30847946722E+02  0.51100000000E-03 0. -1.
        -11    1    3    3    0    0  0.79829280918E+01 -0.11188484142E+01  0.57386424126E+01  0.98949977106E+01  0.51100000000E-03 0.  1.
        -12    1    3    3    0    0  0.17096179270E+01  0.21504402937E+01  0.64865507317E+01  0.70443258945E+01  0.00000000000E+00 0.  1.
</event>
<event>
 7    1  0.2430096E-009  0.4778727E+02  0.7816164E-02  0.1312668E+00
        -11   -1    0    0    0    0  0.00000000000E+00  0.00000000000E+00  0.45593999997E+02  0.45594000000E+02  0.51100000000E-03 0.  1.
         11   -1    0    0    0    0 -0.00000000000E+00 -0.00000000000E+00 -0.45593999997E+02  0.45594000000E+02  0.51100000000E-03 0. -1.
    9900012    2    1    2    0    0 -0.27337051543E+02  0.25378209807E+02 -0.22186831121E+02  0.47787269646E+02  0.19999993625E+02 0.  0.
        -12    1    1    2    0    0  0.27337051543E+02 -0.25378209807E+02  0.22186831121E+02  0.43400730354E+02  0.00000000000E+00 0.  1.
         11    1    3    3    0    0 -0.23747357184E+02  0.20105006235E+02 -0.22506773586E+02  0.38401863320E+02  0.51100000000E-03 0. -1.
        -11    1    3    3    0    0  0.18537791337E+01  0.15499148866E+01  0.12576708233E+01  0.27240538528E+01  0.51100000000E-03 0.  1.
        -12    1    3    3    0    0 -0.54434734928E+01  0.37232886849E+01 -0.93772835782E+00  0.66613524731E+01  0.00000000000E+00 0.  1.
</event>
<event>
 7    1  0.2430096E-009  0.4778727E+02  0.7816164E-02  0.1312668E+00
        -11   -1    0    0    0    0  0.00000000000E+00  0.00000000000E+00  0.45593999997E+02  0.45594000000E+02  0.51100000000E-03 0. -1.
         11   -1    0    0    0    0 -0.00000000000E+00 -0.00000000000E+00 -0.45593999997E+02  0.45594000000E+02  0.51100000000E-03 0.  1.
    9900012    2    1    2    0    0 -0.34281387072E+02  0.25601266992E+02 -0.72790567152E+01  0.47787273763E+02  0.20000012397E+02 0.  0.
        -12    1    1    2    0    0  0.34281387072E+02 -0.25601266992E+02  0.72790567152E+01  0.43400726237E+02  0.00000000000E+00 0.  1.
         11    1    3    3    0    0 -0.10953066921E+02  0.10941944045E+02 -0.22798017819E+00  0.15483791192E+02  0.51100000000E-03 0. -1.
        -11    1    3    3    0    0 -0.14754122011E+02  0.11171977829E+02 -0.11751152475E+02  0.21922289791E+02  0.51100000000E-03 0.  1.
        -12    1    3    3    0    0 -0.85741981393E+01  0.34873451191E+01  0.47000759384E+01  0.10381192780E+02  0.00000000000E+00 0.  1.
</event>
<event>
 7    1  0.2430096E-009  0.4778727E+02  0.7816164E-02  0.1312668E+00
        -11   -1    0    0    0    0  0.00000000000E+00  0.00000000000E+00  0.45593999997E+02  0.45594000000E+02  0.51100000000E-03 0.  1.
         11   -1    0    0    0    0 -0.00000000000E+00 -0.00000000000E+00 -0.45593999997E+02  0.45594000000E+02  0.51100000000E-03 0. -1.
    9900012    2    1    2    0    0 -0.49578876271E+01  0.36060882949E+02 -0.23635891967E+02  0.47787270538E+02  0.19999997691E+02 0.  0.
        -12    1    1    2    0    0  0.49578876271E+01 -0.36060882949E+02  0.23635891967E+02  0.43400729462E+02  0.00000000000E+00 0.  1.
         11    1    3    3    0    0 -0.25875131584E+01  0.10048838945E+01 -0.13631688851E+01  0.30924497824E+01  0.51100000000E-03 0. -1.
        -11    1    3    3    0    0  0.89196949557E+00  0.74904079401E+01  0.20187357309E+01  0.78087844702E+01  0.51100000000E-03 0.  1.
        -12    1    3    3    0    0 -0.32623439643E+01  0.27565591114E+02 -0.24291458812E+02  0.36886036285E+02  0.00000000000E+00 0.  1.
</event>
<event>
 7    1  0.2430096E-009  0.4778728E+02  0.7816164E-02  0.1312668E+00
        -11   -1    0    0    0    0  0.00000000000E+00  0.00000000000E+00  0.45593999997E+02  0.45594000000E+02  0.51100000000E-03 0.  1.
         11   -1    0    0    0    0 -0.00000000000E+00 -0.00000000000E+00 -0.45593999997E+02  0.45594000000E+02  0.51100000000E-03 0. -1.
    9900012    2    1    2    0    0 -0.42217872087E+02  0.52476828233E+01  0.85869679932E+01  0.47787275146E+02  0.20000018699E+02 0.  0.
        -12    1    1    2    0    0  0.42217872087E+02 -0.52476828233E+01 -0.85869679932E+01  0.43400724854E+02  0.00000000000E+00 0.  1.
         11    1    3    3    0    0 -0.40114797511E+01  0.79193317164E+00 -0.14997711793E+01  0.43552774646E+01  0.51100000000E-03 0. -1.
        -11    1    3    3    0    0 -0.13673835207E+02 -0.52735192025E+01 -0.12500118091E+01  0.14708715234E+02  0.51100000000E-03 0.  1.
        -12    1    3    3    0    0 -0.24532557129E+02  0.97292688541E+01  0.11336750982E+02  0.28723282447E+02  0.00000000000E+00 0.  1.
</event>
<event>
 7    1  0.2430096E-009  0.4778727E+02  0.7816164E-02  0.1312668E+00
        -11   -1    0    0    0    0  0.00000000000E+00  0.00000000000E+00  0.45593999997E+02  0.45594000000E+02  0.51100000000E-03 0. -1.
         11   -1    0    0    0    0 -0.00000000000E+00 -0.00000000000E+00 -0.45593999997E+02  0.45594000000E+02  0.51100000000E-03 0.  1.
    9900012    2    1    2    0    0  0.27199404244E+02  0.24705193403E+02  0.23096944546E+02  0.47787273973E+02  0.20000013351E+02 0.  0.
        -12    1    1    2    0    0 -0.27199404244E+02 -0.24705193403E+02 -0.23096944546E+02  0.43400726027E+02  0.00000000000E+00 0.  1.
         11    1    3    3    0    0  0.24803977769E+01  0.70786781947E+01  0.94903585259E+01  0.12096568246E+02  0.51100000000E-03 0. -1.
        -11    1    3    3    0    0  0.21551905526E+02  0.14073646002E+02  0.55475067361E+01  0.26331102804E+02  0.51100000000E-03 0.  1.
        -12    1    3    3    0    0  0.31671009412E+01  0.35528692059E+01  0.80590792843E+01  0.93596029230E+01  0.00000000000E+00 0.  1.
</event>
<event>
 7    1  0.2430096E-009  0.4778727E+02  0.7816164E-02  0.1312668E+00
        -11   -1    0    0    0    0  0.00000000000E+00  0.00000000000E+00  0.45593999997E+02  0.45594000000E+02  0.51100000000E-03 0. -1.
         11   -1    0    0    0    0 -0.00000000000E+00 -0.00000000000E+00 -0.45593999997E+02  0.45594000000E+02  0.51100000000E-03 0.  1.
    9900012    2    1    2    0    0  0.41558118024E+02  0.10341172912E+02 -0.70431726864E+01  0.47787270601E+02  0.19999997979E+02 0.  0.
        -12    1    1    2    0    0 -0.41558118024E+02 -0.10341172912E+02  0.70431726864E+01  0.43400729399E+02  0.00000000000E+00 0.  1.
         11    1    3    3    0    0  0.66216829245E+01  0.34927218023E+00 -0.76421384146E+01  0.10117853311E+02  0.51100000000E-03 0. -1.
        -11    1    3    3    0    0  0.23940989054E+01  0.32323608021E+01  0.18089192334E+01  0.44104483874E+01  0.51100000000E-03 0.  1.
         12    1    3    3    0    0  0.32542336194E+02  0.67595399301E+01 -0.12099535052E+01  0.33258968903E+02  0.00000000000E+00 0. -1.
</event>
<event>
 7    1  0.2430096E-009  0.4778727E+02  0.7816164E-02  0.1312668E+00
        -11   -1    0    0    0    0  0.00000000000E+00  0.00000000000E+00  0.45593999997E+02  0.45594000000E+02  0.51100000000E-03 0. -1.
         11   -1    0    0    0    0 -0.00000000000E+00 -0.00000000000E+00 -0.45593999997E+02  0.45594000000E+02  0.51100000000E-03 0.  1.
    9900012    2    1    2    0    0  0.32369418800E+01  0.78089707361E+01  0.42569537325E+02  0.47787270458E+02  0.19999997326E+02 0.  0.
        -12    1    1    2    0    0 -0.32369418800E+01 -0.78089707361E+01 -0.42569537325E+02  0.43400729542E+02  0.00000000000E+00 0.  1.
         11    1    3    3    0    0 -0.18739063435E+01  0.34056879982E+01  0.87661048868E+01  0.95893081540E+01  0.51100000000E-03 0. -1.
        -11    1    3    3    0    0  0.54000834809E+01 -0.41325670928E+00  0.16173668171E+01  0.56522171217E+01  0.51100000000E-03 0.  1.
        -12    1    3    3    0    0 -0.28923525744E+00  0.48165394473E+01  0.32186065621E+02  0.32545745182E+02  0.00000000000E+00 0.  1.
</event>
<event>
 7    1  0.2430096E-009  0.4778727E+02  0.7816164E-02  0.1312668E+00
        -11   -1    0    0    0    0  0.00000000000E+00  0.00000000000E+00  0.45593999997E+02  0.45594000000E+02  0.51100000000E-03 0. -1.
         11   -1    0    0    0    0 -0.00000000000E+00 -0.00000000000E+00 -0.45593999997E+02  0.45594000000E+02  0.51100000000E-03 0.  1.
    9900012    2    1    2    0    0 -0.17885012260E+02 -0.31409590806E+02  0.24024720544E+02  0.47787271258E+02  0.20000000974E+02 0.  0.
        -12    1    1    2    0    0  0.17885012260E+02  0.31409590806E+02 -0.24024720544E+02  0.43400728742E+02  0.00000000000E+00 0.  1.
         11    1    3    3    0    0 -0.77451873502E+01 -0.68209658314E+01  0.51407918583E+01  0.11530014881E+02  0.51100000000E-03 0. -1.
        -11    1    3    3    0    0 -0.34639584858E+01 -0.68175893099E+01  0.15062967047E+02  0.16892942577E+02  0.51100000000E-03 0.  1.
        -12    1    3    3    0    0 -0.66758664239E+01 -0.17771035665E+02  0.38209616382E+01  0.19364313800E+02  0.00000000000E+00 0.  1.
</event>
<event>
 7    1  0.2430096E-009  0.4778727E+02  0.7816164E-02  0.1312668E+00
        -11   -1    0    0    0    0  0.00000000000E+00  0.00000000000E+00  0.45593999997E+02  0.45594000000E+02  0.51100000000E-03 0. -1.
         11   -1    0    0    0    0 -0.00000000000E+00 -0.00000000000E+00 -0.45593999997E+02  0.45594000000E+02  0.51100000000E-03 0.  1.
    9900012    2    1    2    0    0  0.81314567976E+01 -0.34291473446E+02  0.25329775165E+02  0.47787271312E+02  0.20000001219E+02 0.  0.
        -12    1    1    2    0    0 -0.81314567976E+01  0.34291473446E+02 -0.25329775165E+02  0.43400728688E+02  0.00000000000E+00 0.  1.
         11    1    3    3    0    0  0.18094974475E-01 -0.65741577672E+00  0.82639284492E+01  0.82900564899E+01  0.51100000000E-03 0. -1.
        -11    1    3    3    0    0  0.36334079398E+01 -0.25058459009E+02  0.89081259129E+01  0.26841809341E+02  0.51100000000E-03 0.  1.
         12    1    3    3    0    0  0.44799538834E+01 -0.85755986600E+01  0.81577208030E+01  0.12655405480E+02  0.00000000000E+00 0. -1.
</event>
<event>
 7    1  0.2430096E-009  0.4778727E+02  0.7816164E-02  0.1312668E+00
        -11   -1    0    0    0    0  0.00000000000E+00  0.00000000000E+00  0.45593999997E+02  0.45594000000E+02  0.51100000000E-03 0. -1.
         11   -1    0    0    0    0 -0.00000000000E+00 -0.00000000000E+00 -0.45593999997E+02  0.45594000000E+02  0.51100000000E-03 0.  1.
    9900012    2    1    2    0    0 -0.45651997513E+01 -0.39523185060E+02  0.17340698401E+02  0.47787273887E+02  0.20000012963E+02 0.  0.
        -12    1    1    2    0    0  0.45651997513E+01  0.39523185060E+02 -0.17340698401E+02  0.43400726113E+02  0.00000000000E+00 0.  1.
         11    1    3    3    0    0 -0.17656340879E+01 -0.26024793153E+02  0.18886971697E+02  0.32204425512E+02  0.51100000000E-03 0. -1.
        -11    1    3    3    0    0 -0.46083211922E+01 -0.11933091171E+02 -0.24523891394E+01  0.13024956885E+02  0.51100000000E-03 0.  1.
        -12    1    3    3    0    0  0.18087555289E+01 -0.15653007362E+01  0.90611584399E+00  0.25578914912E+01  0.00000000000E+00 0.  1.
</event>
<event>
 7    1  0.2430096E-009  0.4778727E+02  0.7816164E-02  0.1312668E+00
        -11   -1    0    0    0    0  0.00000000000E+00  0.00000000000E+00  0.45593999997E+02  0.45594000000E+02  0.51100000000E-03 0.  1.
         11   -1    0    0    0    0 -0.00000000000E+00 -0.00000000000E+00 -0.45593999997E+02  0.45594000000E+02  0.51100000000E-03 0. -1.
    9900012    2    1    2    0    0 -0.29105193424E+02 -0.27935458495E+02 -0.16003783818E+02  0.47787271641E+02  0.20000002721E+02 0.  0.
        -12    1    1    2    0    0  0.29105193424E+02  0.27935458495E+02  0.16003783818E+02  0.43400728359E+02  0.00000000000E+00 0.  1.
         11    1    3    3    0    0 -0.44965649626E+01 -0.87708567939E+01  0.33143112029E+01  0.10398638583E+02  0.51100000000E-03 0. -1.
        -11    1    3    3    0    0 -0.14212639217E+01 -0.24129611056E+01  0.12132808064E+00  0.28030506946E+01  0.51100000000E-03 0.  1.
         12    1    3    3    0    0 -0.23187364539E+02 -0.16751640596E+02 -0.19439423102E+02  0.34585582364E+02  0.00000000000E+00 0. -1.
</event>
<event>
 7    1  0.2430096E-009  0.4778727E+02  0.7816164E-02  0.1312668E+00
        -11   -1    0    0    0    0  0.00000000000E+00  0.00000000000E+00  0.45593999997E+02  0.45594000000E+02  0.51100000000E-03 0.  1.
         11   -1    0    0    0    0 -0.00000000000E+00 -0.00000000000E+00 -0.45593999997E+02  0.45594000000E+02  0.51100000000E-03 0. -1.
    9900012    2    1    2    0    0 -0.21883913821E+02 -0.68663385715E+01 -0.36845229347E+02  0.47787271721E+02  0.20000003086E+02 0.  0.
        -12    1    1    2    0    0  0.21883913821E+02  0.68663385715E+01  0.36845229347E+02  0.43400728279E+02  0.00000000000E+00 0.  1.
         11    1    3    3    0    0 -0.12306748580E+02 -0.33354518604E+01 -0.10342952705E+02  0.16418220691E+02  0.51100000000E-03 0. -1.
        -11    1    3    3    0    0 -0.17472446645E+01 -0.22162688161E+01 -0.22122169660E+02  0.22301459641E+02  0.51100000000E-03 0.  1.
        -12    1    3    3    0    0 -0.78299205763E+01 -0.13146178950E+01 -0.43801069816E+01  0.90675913897E+01  0.00000000000E+00 0.  1.
</event>
<event>
 7    1  0.2430096E-009  0.4778727E+02  0.7816164E-02  0.1312668E+00
        -11   -1    0    0    0    0  0.00000000000E+00  0.00000000000E+00  0.45593999997E+02  0.45594000000E+02  0.51100000000E-03 0.  1.
         11   -1    0    0    0    0 -0.00000000000E+00 -0.00000000000E+00 -0.45593999997E+02  0.45594000000E+02  0.51100000000E-03 0. -1.
    9900012    2    1    2    0    0  0.22725550513E+02  0.35266356819E+02 -0.11111105072E+02  0.47787271604E+02  0.20000002550E+02 0.  0.
        -12    1    1    2    0    0 -0.22725550513E+02 -0.35266356819E+02  0.11111105072E+02  0.43400728396E+02  0.00000000000E+00 0.  1.
         11    1    3    3    0    0  0.59484484713E+01  0.47816070697E+01  0.12239366317E+01  0.77295424525E+01  0.51100000000E-03 0. -1.
        -11    1    3    3    0    0  0.10524320828E+02  0.10773594205E+02  0.15636124751E+01  0.15141880505E+02  0.51100000000E-03 0.  1.
        -12    1    3    3    0    0  0.62527812139E+01  0.19711155544E+02 -0.13898654179E+02  0.24915848646E+02  0.00000000000E+00 0.  1.
</event>
<event>
 7    1  0.2430096E-009  0.4778727E+02  0.7816164E-02  0.1312668E+00
        -11   -1    0    0    0    0  0.00000000000E+00  0.00000000000E+00  0.45593999997E+02  0.45594000000E+02  0.51100000000E-03 0. -1.
         11   -1    0    0    0    0 -0.00000000000E+00 -0.00000000000E+00 -0.45593999997E+02  0.45594000000E+02  0.51100000000E-03 0.  1.
    9900012    2    1    2    0    0  0.37093327608E+01 -0.29731178921E+02  0.31399383907E+02  0.47787268908E+02  0.19999990261E+02 0.  0.
        -12    1    1    2    0    0 -0.37093327608E+01  0.29731178921E+02 -0.31399383907E+02  0.43400731092E+02  0.00000000000E+00 0.  1.
         11    1    3    3    0    0  0.14064015793E+01 -0.27833248803E+02  0.27065229909E+02  0.38848350990E+02  0.51100000000E-03 0. -1.
        -11    1    3    3    0    0  0.44169143138E+01 -0.19064262791E+01  0.47763468027E+01  0.67791653066E+01  0.51100000000E-03 0.  1.
         12    1    3    3    0    0 -0.21139831323E+01  0.84961616498E-02 -0.44219280461E+00  0.21597526120E+01  0.00000000000E+00 0. -1.
</event>
<event>
 7    1  0.2430096E-009  0.4778727E+02  0.7816164E-02  0.1312668E+00
        -11   -1    0    0    0    0  0.00000000000E+00  0.00000000000E+00  0.45593999997E+02  0.45594000000E+02  0.51100000000E-03 0.  1.
         11   -1    0    0    0    0 -0.00000000000E+00 -0.00000000000E+00 -0.45593999997E+02  0.45594000000E+02  0.51100000000E-03 0. -1.
    9900012    2    1    2    0    0 -0.10948646747E+02 -0.57346282892E+01 -0.41603656146E+02  0.47787273832E+02  0.20000012708E+02 0.  0.
        -12    1    1    2    0    0  0.10948646747E+02  0.57346282892E+01  0.41603656146E+02  0.43400726168E+02  0.00000000000E+00 0.  1.
         11    1    3    3    0    0 -0.18230833244E+01  0.87293123723E+00 -0.10900052138E+02  0.11085881950E+02  0.51100000000E-03 0. -1.
        -11    1    3    3    0    0 -0.75614024047E+01  0.45340741382E+01 -0.14634182043E+02  0.17084844715E+02  0.51100000000E-03 0.  1.
        -12    1    3    3    0    0 -0.15641610176E+01 -0.11141633665E+02 -0.16069421965E+02  0.19616547166E+02  0.00000000000E+00 0.  1.
</event>
<event>
 7    1  0.2430096E-009  0.4778727E+02  0.7816164E-02  0.1312668E+00
        -11   -1    0    0    0    0  0.00000000000E+00  0.00000000000E+00  0.45593999997E+02  0.45594000000E+02  0.51100000000E-03 0.  1.
         11   -1    0    0    0    0 -0.00000000000E+00 -0.00000000000E+00 -0.45593999997E+02  0.45594000000E+02  0.51100000000E-03 0. -1.
    9900012    2    1    2    0    0  0.34791666320E+02 -0.93991248058E+01 -0.24183043582E+02  0.47787272019E+02  0.20000004442E+02 0.  0.
        -12    1    1    2    0    0 -0.34791666320E+02  0.93991248058E+01  0.24183043582E+02  0.43400727981E+02  0.00000000000E+00 0.  1.
         11    1    3    3    0    0  0.21529878551E+02 -0.78289590292E+01 -0.53762358231E+01  0.23531514651E+02  0.51100000000E-03 0. -1.
        -11    1    3    3    0    0  0.40768907822E-01  0.10515477458E+01 -0.44118860728E+01  0.45356536184E+01  0.51100000000E-03 0.  1.
         12    1    3    3    0    0  0.13221018861E+02 -0.26217135223E+01 -0.14394921686E+02  0.19720103749E+02  0.00000000000E+00 0. -1.
</event>
<event>
 7    1  0.2430096E-009  0.4778727E+02  0.7816164E-02  0.1312668E+00
        -11   -1    0    0    0    0  0.00000000000E+00  0.00000000000E+00  0.45593999997E+02  0.45594000000E+02  0.51100000000E-03 0.  1.
         11   -1    0    0    0    0 -0.00000000000E+00 -0.00000000000E+00 -0.45593999997E+02  0.45594000000E+02  0.51100000000E-03 0. -1.
    9900012    2    1    2    0    0 -0.17070110589E+02  0.34406958453E+02 -0.20208816590E+02  0.47787265750E+02  0.19999975859E+02 0.  0.
        -12    1    1    2    0    0  0.17070110589E+02 -0.34406958453E+02  0.20208816590E+02  0.43400734250E+02  0.00000000000E+00 0.  1.
         11    1    3    3    0    0 -0.60262982186E+01  0.19943816566E+02 -0.11142760212E+02  0.23626959069E+02  0.51100000000E-03 0. -1.
        -11    1    3    3    0    0 -0.11283462365E+02  0.42046035934E+01 -0.38010658551E+01  0.12627086608E+02  0.51100000000E-03 0.  1.
        -12    1    3    3    0    0  0.23964999411E+00  0.10258538293E+02 -0.52649905230E+01  0.11533220073E+02  0.00000000000E+00 0.  1.
</event>
<event>
 7    1  0.2430096E-009  0.4778727E+02  0.7816164E-02  0.1312668E+00
        -11   -1    0    0    0    0  0.00000000000E+00  0.00000000000E+00  0.45593999997E+02  0.45594000000E+02  0.51100000000E-03 0.  1.
         11   -1    0    0    0    0 -0.00000000000E+00 -0.00000000000E+00 -0.45593999997E+02  0.45594000000E+02  0.51100000000E-03 0. -1.
    9900012    2    1    2    0    0 -0.62339581655E+00 -0.35060462754E+02 -0.25573396192E+02  0.47787271162E+02  0.20000000537E+02 0.  0.
        -12    1    1    2    0    0  0.62339581655E+00  0.35060462754E+02  0.25573396192E+02  0.43400728838E+02  0.00000000000E+00 0.  1.
         11    1    3    3    0    0 -0.78233475128E+01 -0.23753360364E+02 -0.20919585376E+02  0.32604538755E+02  0.51100000000E-03 0. -1.
        -11    1    3    3    0    0  0.47784887566E+01 -0.47564835395E+01 -0.46651381979E+01  0.81988782845E+01  0.51100000000E-03 0.  1.
         12    1    3    3    0    0  0.24214629397E+01 -0.65506188506E+01  0.11327382142E-01  0.69838541225E+01  0.00000000000E+00 0. -1.
</event>
<event>
 7    1  0.2430096E-009  0.4778726E+02  0.7816164E-02  0.1312668E+00
        -11   -1    0    0    0    0  0.00000000000E+00  0.00000000000E+00  0.45593999997E+02  0.45594000000E+02  0.51100000000E-03 0.  1.
         11   -1    0    0    0    0 -0.00000000000E+00 -0.00000000000E+00 -0.45593999997E+02  0.45594000000E+02  0.51100000000E-03 0. -1.
    9900012    2    1    2    0    0 -0.12406263912E+02  0.32320192467E+02 -0.26174679940E+02  0.47787261581E+02  0.19999956853E+02 0.  0.
        -12    1    1    2    0    0  0.12406263912E+02 -0.32320192467E+02  0.26174679940E+02  0.43400738419E+02  0.00000000000E+00 0.  1.
         11    1    3    3    0    0 -0.11730101344E+02  0.60984340121E+01 -0.62703668938E+01  0.14632281988E+02  0.51100000000E-03 0. -1.
        -11    1    3    3    0    0  0.12494505928E+01  0.18661262952E+02 -0.13615293650E+02  0.23133959522E+02  0.51100000000E-03 0.  1.
         12    1    3    3    0    0 -0.19256131608E+01  0.75604955029E+01 -0.62890193962E+01  0.10021020071E+02  0.00000000000E+00 0. -1.
</event>
<event>
 7    1  0.2430096E-009  0.4778727E+02  0.7816164E-02  0.1312668E+00
        -11   -1    0    0    0    0  0.00000000000E+00  0.00000000000E+00  0.45593999997E+02  0.45594000000E+02  0.51100000000E-03 0.  1.
         11   -1    0    0    0    0 -0.00000000000E+00 -0.00000000000E+00 -0.45593999997E+02  0.45594000000E+02  0.51100000000E-03 0. -1.
    9900012    2    1    2    0    0  0.41701592100E+02  0.11649973181E+02  0.29796640892E+01  0.47787273544E+02  0.20000011398E+02 0.  0.
        -12    1    1    2    0    0 -0.41701592100E+02 -0.11649973181E+02 -0.29796640892E+01  0.43400726456E+02  0.00000000000E+00 0.  1.
         11    1    3    3    0    0  0.16223558323E+02  0.13974340668E+02  0.33056088723E+01  0.21665943138E+02  0.51100000000E-03 0. -1.
        -11    1    3    3    0    0  0.21246394315E+02 -0.51848255711E+00 -0.16974268099E+01  0.21320397594E+02  0.51100000000E-03 0.  1.
         12    1    3    3    0    0  0.42316394620E+01 -0.18058849303E+01  0.13714820268E+01  0.48009328122E+01  0.00000000000E+00 0. -1.
</event>
<event>
 7    1  0.2430096E-009  0.4778727E+02  0.7816164E-02  0.1312668E+00
        -11   -1    0    0    0    0  0.00000000000E+00  0.00000000000E+00  0.45593999997E+02  0.45594000000E+02  0.51100000000E-03 0. -1.
         11   -1    0    0    0    0 -0.00000000000E+00 -0.00000000000E+00 -0.45593999997E+02  0.45594000000E+02  0.51100000000E-03 0.  1.
    9900012    2    1    2    0    0  0.97790291112E+00 -0.95335963500E+01  0.42329391287E+02  0.47787272815E+02  0.20000008073E+02 0.  0.
        -12    1    1    2    0    0 -0.97790291112E+00  0.95335963500E+01 -0.42329391287E+02  0.43400727185E+02  0.00000000000E+00 0.  1.
         11    1    3    3    0    0 -0.22549108708E+01  0.36494657424E+01  0.20152812743E+02  0.20604346264E+02  0.51100000000E-03 0. -1.
        -11    1    3    3    0    0 -0.15106295828E+01 -0.53444917140E+01  0.13357120670E+02  0.14465761862E+02  0.51100000000E-03 0.  1.
         12    1    3    3    0    0  0.47434433647E+01 -0.78385703784E+01  0.88194578741E+01  0.12717164689E+02  0.00000000000E+00 0. -1.
</event>
<event>
 7    1  0.2430096E-009  0.4778725E+02  0.7816164E-02  0.1312668E+00
        -11   -1    0    0    0    0  0.00000000000E+00  0.00000000000E+00  0.45593999997E+02  0.45594000000E+02  0.51100000000E-03 0.  1.
         11   -1    0    0    0    0 -0.00000000000E+00 -0.00000000000E+00 -0.45593999997E+02  0.45594000000E+02  0.51100000000E-03 0. -1.
    9900012    2    1    2    0    0 -0.34863226999E+02 -0.11061318503E+02 -0.23362955441E+02  0.47787250575E+02  0.19999906669E+02 0.  0.
        -12    1    1    2    0    0  0.34863226999E+02  0.11061318503E+02  0.23362955441E+02  0.43400749425E+02  0.00000000000E+00 0.  1.
         11    1    3    3    0    0 -0.24324549654E+02 -0.62373407336E+01 -0.25479254873E+02  0.35774020803E+02  0.51100000000E-03 0. -1.
        -11    1    3    3    0    0 -0.73433728242E+01 -0.23482178773E+01  0.20198430384E+01  0.79698819186E+01  0.51100000000E-03 0.  1.
         12    1    3    3    0    0 -0.31953045203E+01 -0.24757598920E+01  0.96456394198E-01  0.40433478525E+01  0.00000000000E+00 0. -1.
</event>
<event>
 7    1  0.2430096E-009  0.4778727E+02  0.7816164E-02  0.1312668E+00
        -11   -1    0    0    0    0  0.00000000000E+00  0.00000000000E+00  0.45593999997E+02  0.45594000000E+02  0.51100000000E-03 0.  1.
         11   -1    0    0    0    0 -0.00000000000E+00 -0.00000000000E+00 -0.45593999997E+02  0.45594000000E+02  0.51100000000E-03 0. -1.
    9900012    2    1    2    0    0  0.39193834304E+02  0.17697063960E+02 -0.58549588244E+01  0.47787271169E+02  0.20000000567E+02 0.  0.
        -12    1    1    2    0    0 -0.39193834304E+02 -0.17697063960E+02  0.58549588244E+01  0.43400728831E+02  0.00000000000E+00 0.  1.
         11    1    3    3    0    0  0.67672844046E+01  0.39902146817E+01 -0.24186466685E+01  0.82199637096E+01  0.51100000000E-03 0. -1.
        -11    1    3    3    0    0  0.24002142793E+02  0.17467180830E+02  0.10537739523E+00  0.29685288771E+02  0.51100000000E-03 0.  1.
        -12    1    3    3    0    0  0.84244071063E+01 -0.37603315512E+01 -0.35416895511E+01  0.98820186877E+01  0.00000000000E+00 0.  1.
</event>
<event>
 7    1  0.2430096E-009  0.4778727E+02  0.7816164E-02  0.1312668E+00
        -11   -1    0    0    0    0  0.00000000000E+00  0.00000000000E+00  0.45593999997E+02  0.45594000000E+02  0.51100000000E-03 0.  1.
         11   -1    0    0    0    0 -0.00000000000E+00 -0.00000000000E+00 -0.45593999997E+02  0.45594000000E+02  0.51100000000E-03 0. -1.
    9900012    2    1    2    0    0 -0.22482731664E+02 -0.32925435328E+02 -0.17148353711E+02  0.47787267868E+02  0.19999985518E+02 0.  0.
        -12    1    1    2    0    0  0.22482731664E+02  0.32925435328E+02  0.17148353711E+02  0.43400732132E+02  0.00000000000E+00 0.  1.
         11    1    3    3    0    0 -0.52344735386E+01 -0.15821457288E+01 -0.50605879266E+01  0.74506676719E+01  0.51100000000E-03 0. -1.
        -11    1    3    3    0    0 -0.64054344074E+01 -0.24059469022E+02 -0.47240109568E+01  0.25341742627E+02  0.51100000000E-03 0.  1.
        -12    1    3    3    0    0 -0.10842823718E+02 -0.72838205767E+01 -0.73637548274E+01  0.14994857570E+02  0.00000000000E+00 0.  1.
</event>
<event>
 7    1  0.2430096E-009  0.4778728E+02  0.7816164E-02  0.1312668E+00
        -11   -1    0    0    0    0  0.00000000000E+00  0.00000000000E+00  0.45593999997E+02  0.45594000000E+02  0.51100000000E-03 0.  1.
         11   -1    0    0    0    0 -0.00000000000E+00 -0.00000000000E+00 -0.45593999997E+02  0.45594000000E+02  0.51100000000E-03 0. -1.
    9900012    2    1    2    0    0  0.46747102822E+01  0.41595405096E+02 -0.11471368168E+02  0.47787275018E+02  0.20000018116E+02 0.  0.
        -12    1    1    2    0    0 -0.46747102822E+01 -0.41595405096E+02  0.11471368168E+02  0.43400724982E+02  0.00000000000E+00 0.  1.
         11    1    3    3    0    0  0.57132831348E+01  0.82602288524E+01 -0.90134304194E+01  0.13494995852E+02  0.51100000000E-03 0. -1.
        -11    1    3    3    0    0 -0.35861970966E+01  0.26863237367E+02 -0.66554314003E+00  0.27109726656E+02  0.51100000000E-03 0.  1.
         12    1    3    3    0    0  0.25476242440E+01  0.64719388771E+01 -0.17923946083E+01  0.71825525094E+01  0.00000000000E+00 0. -1.
</event>
<event>
 7    1  0.2430096E-009  0.4778727E+02  0.7816164E-02  0.1312668E+00
        -11   -1    0    0    0    0  0.00000000000E+00  0.00000000000E+00  0.45593999997E+02  0.45594000000E+02  0.51100000000E-03 0.  1.
         11   -1    0    0    0    0 -0.00000000000E+00 -0.00000000000E+00 -0.45593999997E+02  0.45594000000E+02  0.51100000000E-03 0. -1.
    9900012    2    1    2    0    0  0.53261942289E+00 -0.29103970244E+02 -0.32191590693E+02  0.47787270988E+02  0.19999999742E+02 0.  0.
        -12    1    1    2    0    0 -0.53261942289E+00  0.29103970244E+02  0.32191590693E+02  0.43400729012E+02  0.00000000000E+00 0.  1.
         11    1    3    3    0    0 -0.78506072706E+01 -0.12464742148E+02 -0.68679132743E+01  0.16253309335E+02  0.51100000000E-03 0. -1.
        -11    1    3    3    0    0  0.81365075778E+01 -0.14960842633E+02 -0.23712274143E+02  0.29194203417E+02  0.51100000000E-03 0.  1.
         12    1    3    3    0    0  0.24671911571E+00 -0.16783854636E+01 -0.16114032754E+01  0.23397582359E+01  0.00000000000E+00 0. -1.
</event>
<event>
 7    1  0.2430096E-009  0.4778727E+02  0.7816164E-02  0.1312668E+00
        -11   -1    0    0    0    0  0.00000000000E+00  0.00000000000E+00  0.45593999997E+02  0.45594000000E+02  0.51100000000E-03 0. -1.
         11   -1    0    0    0    0 -0.00000000000E+00 -0.00000000000E+00 -0.45593999997E+02  0.45594000000E+02  0.51100000000E-03 0.  1.
    9900012    2    1    2    0    0  0.24832934369E+02  0.34774822874E+02 -0.75934576405E+01  0.47787268045E+02  0.19999986324E+02 0.  0.
        -12    1    1    2    0    0 -0.24832934369E+02 -0.34774822874E+02  0.75934576405E+01  0.43400731955E+02  0.00000000000E+00 0.  1.
         11    1    3    3    0    0  0.16826352343E+02  0.15098915670E+02  0.29800609821E+01  0.22803160994E+02  0.51100000000E-03 0. -1.
        -11    1    3    3    0    0 -0.48729305817E+00  0.25649949430E+01 -0.40096470414E+01  0.47847594756E+01  0.51100000000E-03 0.  1.
         12    1    3    3    0    0  0.84938750838E+01  0.17110912261E+02 -0.65638715812E+01  0.20199347575E+02  0.00000000000E+00 0. -1.
</event>
<event>
 7    1  0.2430096E-009  0.4778727E+02  0.7816164E-02  0.1312668E+00
        -11   -1    0    0    0    0  0.00000000000E+00  0.00000000000E+00  0.45593999997E+02  0.45594000000E+02  0.51100000000E-03 0. -1.
         11   -1    0    0    0    0 -0.00000000000E+00 -0.00000000000E+00 -0.45593999997E+02  0.45594000000E+02  0.51100000000E-03 0.  1.
    9900012    2    1    2    0    0  0.75078992920E+01  0.39998010039E+02 -0.15080252565E+02  0.47787269864E+02  0.19999994620E+02 0.  0.
        -12    1    1    2    0    0 -0.75078992920E+01 -0.39998010039E+02  0.15080252565E+02  0.43400730136E+02  0.00000000000E+00 0.  1.
         11    1    3    3    0    0 -0.17829454300E+01  0.12807515999E+02  0.10934447002E+01  0.12977171573E+02  0.51100000000E-03 0. -1.
        -11    1    3    3    0    0  0.98242567651E+01  0.28091370727E+02 -0.15399544694E+02  0.33508015569E+02  0.51100000000E-03 0.  1.
        -12    1    3    3    0    0 -0.53341204310E+00 -0.90087668677E+00 -0.77415257129E+00  0.13020827225E+01  0.00000000000E+00 0.  1.
</event>
<event>
 7    1  0.2430096E-009  0.4778727E+02  0.7816164E-02  0.1312668E+00
        -11   -1    0    0    0    0  0.00000000000E+00  0.00000000000E+00  0.45593999997E+02  0.45594000000E+02  0.51100000000E-03 0. -1.
         11   -1    0    0    0    0 -0.00000000000E+00 -0.00000000000E+00 -0.45593999997E+02  0.45594000000E+02  0.51100000000E-03 0.  1.
    9900012    2    1    2    0    0  0.98621446708E+01 -0.32359792021E+02  0.27188326725E+02  0.47787272503E+02  0.20000006652E+02 0.  0.
        -12    1    1    2    0    0 -0.98621446708E+01  0.32359792021E+02 -0.27188326725E+02  0.43400727497E+02  0.00000000000E+00 0.  1.
         11    1    3    3    0    0  0.11910908107E+02 -0.12414871926E+02  0.16201804437E+02  0.23632546289E+02  0.51100000000E-03 0. -1.
        -11    1    3    3    0    0 -0.48903097425E+01 -0.11640291899E+02  0.52795953518E+01  0.13685234825E+02  0.51100000000E-03 0.  1.
        -12    1    3    3    0    0  0.28415463065E+01 -0.83046281961E+01  0.57069269362E+01  0.10469491389E+02  0.00000000000E+00 0.  1.
</event>
<event>
 7    1  0.2430096E-009  0.4778727E+02  0.7816164E-02  0.1312668E+00
        -11   -1    0    0    0    0  0.00000000000E+00  0.00000000000E+00  0.45593999997E+02  0.45594000000E+02  0.51100000000E-03 0. -1.
         11   -1    0    0    0    0 -0.00000000000E+00 -0.00000000000E+00 -0.45593999997E+02  0.45594000000E+02  0.51100000000E-03 0.  1.
    9900012    2    1    2    0    0  0.38673329601E+02  0.66974974455E+01 -0.18524044085E+02  0.47787273004E+02  0.20000008936E+02 0.  0.
        -12    1    1    2    0    0 -0.38673329601E+02 -0.66974974455E+01  0.18524044085E+02  0.43400726996E+02  0.00000000000E+00 0.  1.
         11    1    3    3    0    0  0.78006055588E+01  0.14190898590E+01  0.33799844611E+01  0.86190230497E+01  0.51100000000E-03 0. -1.
        -11    1    3    3    0    0  0.26726480858E+02  0.18597102372E+01 -0.16091609830E+02  0.31252251254E+02  0.51100000000E-03 0.  1.
         12    1    3    3    0    0  0.41462431844E+01  0.34186973493E+01 -0.58124187156E+01  0.79159987011E+01  0.00000000000E+00 0. -1.
</event>
<event>
 7    1  0.2430096E-009  0.4778727E+02  0.7816164E-02  0.1312668E+00
        -11   -1    0    0    0    0  0.00000000000E+00  0.00000000000E+00  0.45593999997E+02  0.45594000000E+02  0.51100000000E-03 0.  1.
         11   -1    0    0    0    0 -0.00000000000E+00 -0.00000000000E+00 -0.45593999997E+02  0.45594000000E+02  0.51100000000E-03 0. -1.
    9900012    2    1    2    0    0  0.15703047673E+02  0.15649749518E+02 -0.37311168376E+02  0.47787266691E+02  0.19999980151E+02 0.  0.
        -12    1    1    2    0    0 -0.15703047673E+02 -0.15649749518E+02  0.37311168376E+02  0.43400733309E+02  0.00000000000E+00 0.  1.
         11    1    3    3    0    0  0.82464075789E+01  0.12019473731E+01 -0.17472777007E+02  0.19358353547E+02  0.51100000000E-03 0. -1.
        -11    1    3    3    0    0  0.62818558645E+00  0.21252296578E+01  0.16298461811E+01  0.27509302180E+01  0.51100000000E-03 0.  1.
        -12    1    3    3    0    0  0.68284545079E+01  0.12322572487E+02 -0.21468237549E+02  0.25677982926E+02  0.00000000000E+00 0.  1.
</event>
<event>
 7    1  0.2430096E-009  0.4778728E+02  0.7816164E-02  0.1312668E+00
        -11   -1    0    0    0    0  0.00000000000E+00  0.00000000000E+00  0.45593999997E+02  0.45594000000E+02  0.51100000000E-03 0. -1.
         11   -1    0    0    0    0 -0.00000000000E+00 -0.00000000000E+00 -0.45593999997E+02  0.45594000000E+02  0.51100000000E-03 0.  1.
    9900012    2    1    2    0    0 -0.24199991327E+01  0.37320465629E+02  0.22021566184E+02  0.47787275031E+02  0.20000018178E+02 0.  0.
        -12    1    1    2    0    0  0.24199991327E+01 -0.37320465629E+02 -0.22021566184E+02  0.43400724969E+02  0.00000000000E+00 0.  1.
         11    1    3    3    0    0  0.53429893549E+01  0.60976825038E+01  0.36535628735E+01  0.88925693192E+01  0.51100000000E-03 0. -1.
        -11    1    3    3    0    0  0.21193807794E+01  0.13180329117E+01  0.12833612365E+00  0.24990910480E+01  0.51100000000E-03 0.  1.
         12    1    3    3    0    0 -0.98823692670E+01  0.29904750214E+02  0.18239667187E+02  0.36395614664E+02  0.00000000000E+00 0. -1.
</event>
<event>
 7    1  0.2430096E-009  0.4778727E+02  0.7816164E-02  0.1312668E+00
        -11   -1    0    0    0    0  0.00000000000E+00  0.00000000000E+00  0.45593999997E+02  0.45594000000E+02  0.51100000000E-03 0.  1.
         11   -1    0    0    0    0 -0.00000000000E+00 -0.00000000000E+00 -0.45593999997E+02  0.45594000000E+02  0.51100000000E-03 0. -1.
    9900012    2    1    2    0    0  0.27893745197E+02 -0.25296089478E+02 -0.21579394505E+02  0.47787269231E+02  0.19999991734E+02 0.  0.
        -12    1    1    2    0    0 -0.27893745197E+02  0.25296089478E+02  0.21579394505E+02  0.43400730769E+02  0.00000000000E+00 0.  1.
         11    1    3    3    0    0  0.21088170138E+02 -0.19762678439E+02 -0.24219615758E+02  0.37707614173E+02  0.51100000000E-03 0. -1.
        -11    1    3    3    0    0  0.67107693138E+01 -0.51567411862E+01  0.11516412915E+01  0.85412342416E+01  0.51100000000E-03 0.  1.
         12    1    3    3    0    0  0.94805745686E-01 -0.37666985328E+00  0.14885799618E+01  0.15384208171E+01  0.00000000000E+00 0. -1.
</event>
<event>
 7    1  0.2430096E-009  0.4778727E+02  0.7816164E-02  0.1312668E+00
        -11   -1    0    0    0    0  0.00000000000E+00  0.00000000000E+00  0.45593999997E+02  0.45594000000E+02  0.51100000000E-03 0.  1.
         11   -1    0    0    0    0 -0.00000000000E+00 -0.00000000000E+00 -0.45593999997E+02  0.45594000000E+02  0.51100000000E-03 0. -1.
    9900012    2    1    2    0    0 -0.18411180971E+02  0.30008009271E+02 -0.25380521559E+02  0.47787273281E+02  0.20000010196E+02 0.  0.
        -12    1    1    2    0    0  0.18411180971E+02 -0.30008009271E+02  0.25380521559E+02  0.43400726719E+02  0.00000000000E+00 0.  1.
         11    1    3    3    0    0 -0.13598856064E+02  0.22096547457E+02 -0.11858723645E+02  0.28527453838E+02  0.51100000000E-03 0. -1.
        -11    1    3    3    0    0 -0.29575615939E+01 -0.96598204129E+00 -0.81393314579E+01  0.87137253071E+01  0.51100000000E-03 0.  1.
        -12    1    3    3    0    0 -0.18547633136E+01  0.88774438557E+01 -0.53824664565E+01  0.10546094136E+02  0.00000000000E+00 0.  1.
</event>
<event>
 7    1  0.2430096E-009  0.4778727E+02  0.7816164E-02  0.1312668E+00
        -11   -1    0    0    0    0  0.00000000000E+00  0.00000000000E+00  0.45593999997E+02  0.45594000000E+02  0.51100000000E-03 0.  1.
         11   -1    0    0    0    0 -0.00000000000E+00 -0.00000000000E+00 -0.45593999997E+02  0.45594000000E+02  0.51100000000E-03 0. -1.
    9900012    2    1    2    0    0  0.33328438906E+02  0.17242530346E+02 -0.21806730740E+02  0.47787271916E+02  0.20000003974E+02 0.  0.
        -12    1    1    2    0    0 -0.33328438906E+02 -0.17242530346E+02  0.21806730740E+02  0.43400728084E+02  0.00000000000E+00 0.  1.
         11    1    3    3    0    0  0.10083074722E+02  0.55414256082E+01 -0.44128810602E+01  0.12322715331E+02  0.51100000000E-03 0. -1.
        -11    1    3    3    0    0  0.57232175327E+01  0.11815799112E+02 -0.97194882276E+01  0.16335139401E+02  0.51100000000E-03 0.  1.
        -12    1    3    3    0    0  0.17522146652E+02 -0.11469437473E+00 -0.76743614522E+01  0.19129417184E+02  0.00000000000E+00 0.  1.
</event>
<event>
 7    1  0.2430096E-009  0.4778727E+02  0.7816164E-02  0.1312668E+00
        -11   -1    0    0    0    0  0.00000000000E+00  0.00000000000E+00  0.45593999997E+02  0.45594000000E+02  0.51100000000E-03 0.  1.
         11   -1    0    0    0    0 -0.00000000000E+00 -0.00000000000E+00 -0.45593999997E+02  0.45594000000E+02  0.51100000000E-03 0. -1.
    9900012    2    1    2    0    0  0.15308566151E+02 -0.20818149430E+02 -0.34869411747E+02  0.47787269374E+02  0.19999992382E+02 0.  0.
        -12    1    1    2    0    0 -0.15308566151E+02  0.20818149430E+02  0.34869411747E+02  0.43400730626E+02  0.00000000000E+00 0.  1.
         11    1    3    3    0    0 -0.19006321098E+00  0.23474456472E+01 -0.10504744815E+02  0.10765513874E+02  0.51100000000E-03 0. -1.
        -11    1    3    3    0    0  0.10688358830E+02 -0.16179331580E+02 -0.16799469815E+02  0.25656070845E+02  0.51100000000E-03 0.  1.
         12    1    3    3    0    0  0.48102705322E+01 -0.69862634976E+01 -0.75651971172E+01  0.11365684655E+02  0.00000000000E+00 0. -1.
</event>
<event>
 7    1  0.2430096E-009  0.4778727E+02  0.7816164E-02  0.1312668E+00
        -11   -1    0    0    0    0  0.00000000000E+00  0.00000000000E+00  0.45593999997E+02  0.45594000000E+02  0.51100000000E-03 0. -1.
         11   -1    0    0    0    0 -0.00000000000E+00 -0.00000000000E+00 -0.45593999997E+02  0.45594000000E+02  0.51100000000E-03 0.  1.
    9900012    2    1    2    0    0 -0.33140403537E+02 -0.15387486503E+02  0.23421405916E+02  0.47787270254E+02  0.19999996394E+02 0.  0.
        -12    1    1    2    0    0  0.33140403537E+02  0.15387486503E+02 -0.23421405916E+02  0.43400729746E+02  0.00000000000E+00 0.  1.
         11    1    3    3    0    0 -0.71351561762E+01 -0.85218267495E+01  0.16002139578E+02  0.19483337911E+02  0.51100000000E-03 0. -1.
        -11    1    3    3    0    0 -0.17448354561E+02 -0.68747642093E+01  0.53034714233E+01  0.19489337321E+02  0.51100000000E-03 0.  1.
         12    1    3    3    0    0 -0.85568927999E+01  0.91044562189E-02  0.21157949145E+01  0.88145950219E+01  0.00000000000E+00 0. -1.
</event>
<event>
 7    1  0.2430096E-009  0.4778727E+02  0.7816164E-02  0.1312668E+00
        -11   -1    0    0    0    0  0.00000000000E+00  0.00000000000E+00  0.45593999997E+02  0.45594000000E+02  0.51100000000E-03 0.  1.
         11   -1    0    0    0    0 -0.00000000000E+00 -0.00000000000E+00 -0.45593999997E+02  0.45594000000E+02  0.51100000000E-03 0. -1.
    9900012    2    1    2    0    0 -0.15892441245E+02 -0.16025420146E+02 -0.37070732156E+02  0.47787274636E+02  0.20000016376E+02 0.  0.
        -12    1    1    2    0    0  0.15892441245E+02  0.16025420146E+02  0.37070732156E+02  0.43400725364E+02  0.00000000000E+00 0.  1.
         11    1    3    3    0    0 -0.48849206652E+01 -0.14006103552E+02 -0.30873397369E+02  0.34252007999E+02  0.51100000000E-03 0. -1.
        -11    1    3    3    0    0 -0.97244829832E+01 -0.79004618013E+00 -0.65128437298E+01  0.11730595721E+02  0.51100000000E-03 0.  1.
         12    1    3    3    0    0 -0.12830375963E+01 -0.12292704139E+01  0.31550894270E+00  0.18046709165E+01  0.00000000000E+00 0. -1.
</event>
<event>
 7    1  0.2430096E-009  0.4778727E+02  0.7816164E-02  0.1312668E+00
        -11   -1    0    0    0    0  0.00000000000E+00  0.00000000000E+00  0.45593999997E+02  0.45594000000E+02  0.51100000000E-03 0.  1.
         11   -1    0    0    0    0 -0.00000000000E+00 -0.00000000000E+00 -0.45593999997E+02  0.45594000000E+02  0.51100000000E-03 0. -1.
    9900012    2    1    2    0    0  0.27276407927E+01 -0.17142695921E+02 -0.39778273501E+02  0.47787273158E+02  0.20000009636E+02 0.  0.
        -12    1    1    2    0    0 -0.27276407927E+01  0.17142695921E+02  0.39778273501E+02  0.43400726842E+02  0.00000000000E+00 0.  1.
         11    1    3    3    0    0 -0.62839688808E+00 -0.58480048450E+01 -0.46449359951E+01  0.74946296757E+01  0.51100000000E-03 0. -1.
        -11    1    3    3    0    0 -0.41198955230E+01 -0.11242424065E+02 -0.24791754205E+02  0.27531740133E+02  0.51100000000E-03 0.  1.
        -12    1    3    3    0    0  0.74759332038E+01 -0.52267011359E-01 -0.10341583301E+02  0.12760903349E+02  0.00000000000E+00 0.  1.
</event>
<event>
 7    1  0.2430096E-009  0.4778727E+02  0.7816164E-02  0.1312668E+00
        -11   -1    0    0    0    0  0.00000000000E+00  0.00000000000E+00  0.45593999997E+02  0.45594000000E+02  0.51100000000E-03 0. -1.
         11   -1    0    0    0    0 -0.00000000000E+00 -0.00000000000E+00 -0.45593999997E+02  0.45594000000E+02  0.51100000000E-03 0.  1.
    9900012    2    1    2    0    0 -0.11774209402E+02  0.35843790845E+02  0.21452595783E+02  0.47787271723E+02  0.20000003093E+02 0.  0.
        -12    1    1    2    0    0  0.11774209402E+02 -0.35843790845E+02 -0.21452595783E+02  0.43400728277E+02  0.00000000000E+00 0.  1.
         11    1    3    3    0    0 -0.18940295606E+01  0.30904377923E+02  0.13946339472E+02  0.33958331934E+02  0.51100000000E-03 0. -1.
        -11    1    3    3    0    0 -0.75690616280E+01  0.43509417781E+01  0.73950109103E+01  0.11441484821E+02  0.51100000000E-03 0.  1.
         12    1    3    3    0    0 -0.23111182138E+01  0.58847114360E+00  0.11124540055E+00  0.23874549680E+01  0.00000000000E+00 0. -1.
</event>
<event>
 7    1  0.2430096E-009  0.4778728E+02  0.7816164E-02  0.1312668E+00
        -11   -1    0    0    0    0  0.00000000000E+00  0.00000000000E+00  0.45593999997E+02  0.45594000000E+02  0.51100000000E-03 0. -1.
         11   -1    0    0    0    0 -0.00000000000E+00 -0.00000000000E+00 -0.45593999997E+02  0.45594000000E+02  0.51100000000E-03 0.  1.
    9900012    2    1    2    0    0  0.30083888694E+02 -0.31223626787E+02 -0.19150626463E+01  0.47787277729E+02  0.20000030477E+02 0.  0.
        -12    1    1    2    0    0 -0.30083888694E+02  0.31223626787E+02  0.19150626463E+01  0.43400722271E+02  0.00000000000E+00 0.  1.
         11    1    3    3    0    0 -0.27102681952E-01 -0.87961462587E+00 -0.12927165273E+01  0.15638327041E+01  0.51100000000E-03 0. -1.
        -11    1    3    3    0    0  0.15156425285E+02 -0.26492389708E+02  0.18801535770E+01  0.30579387136E+02  0.51100000000E-03 0.  1.
        -12    1    3    3    0    0  0.14954566091E+02 -0.38516224529E+01 -0.25024996960E+01  0.15644057889E+02  0.00000000000E+00 0.  1.
</event>
<event>
 7    1  0.2430096E-009  0.4778727E+02  0.7816164E-02  0.1312668E+00
        -11   -1    0    0    0    0  0.00000000000E+00  0.00000000000E+00  0.45593999997E+02  0.45594000000E+02  0.51100000000E-03 0.  1.
         11   -1    0    0    0    0 -0.00000000000E+00 -0.00000000000E+00 -0.45593999997E+02  0.45594000000E+02  0.51100000000E-03 0. -1.
    9900012    2    1    2    0    0 -0.21552178516E+02  0.19154804103E+02 -0.32437945896E+02  0.47787271285E+02  0.20000001097E+02 0.  0.
        -12    1    1    2    0    0  0.21552178516E+02 -0.19154804103E+02  0.32437945896E+02  0.43400728715E+02  0.00000000000E+00 0.  1.
         11    1    3    3    0    0  0.30345167115E+01  0.68377534087E+01 -0.69499543131E+01  0.10211024854E+02  0.51100000000E-03 0. -1.
        -11    1    3    3    0    0 -0.18094474392E+02  0.78177232139E+01 -0.18292270588E+02  0.26891150278E+02  0.51100000000E-03 0.  1.
        -12    1    3    3    0    0 -0.64922208361E+01  0.44993274809E+01 -0.71957209950E+01  0.10685096153E+02  0.00000000000E+00 0.  1.
</event>
<event>
 7    1  0.2430096E-009  0.4778727E+02  0.7816164E-02  0.1312668E+00
        -11   -1    0    0    0    0  0.00000000000E+00  0.00000000000E+00  0.45593999997E+02  0.45594000000E+02  0.51100000000E-03 0.  1.
         11   -1    0    0    0    0 -0.00000000000E+00 -0.00000000000E+00 -0.45593999997E+02  0.45594000000E+02  0.51100000000E-03 0. -1.
    9900012    2    1    2    0    0 -0.31976987395E+02  0.12596659261E+02 -0.26503205705E+02  0.47787268900E+02  0.19999990221E+02 0.  0.
        -12    1    1    2    0    0  0.31976987395E+02 -0.12596659261E+02  0.26503205705E+02  0.43400731100E+02  0.00000000000E+00 0.  1.
         11    1    3    3    0    0 -0.64879727392E+01  0.16381250805E+01  0.22023448750E+01  0.70446836162E+01  0.51100000000E-03 0. -1.
        -11    1    3    3    0    0 -0.42469441676E+01 -0.80583976821E-01 -0.15016859916E+01  0.45053401224E+01  0.51100000000E-03 0.  1.
         12    1    3    3    0    0 -0.21242070488E+02  0.11039118157E+02 -0.27203864588E+02  0.36237245161E+02  0.00000000000E+00 0. -1.
</event>
<event>
 7    1  0.2430096E-009  0.4778726E+02  0.7816164E-02  0.1312668E+00
        -11   -1    0    0    0    0  0.00000000000E+00  0.00000000000E+00  0.45593999997E+02  0.45594000000E+02  0.51100000000E-03 0. -1.
         11   -1    0    0    0    0 -0.00000000000E+00 -0.00000000000E+00 -0.45593999997E+02  0.45594000000E+02  0.51100000000E-03 0.  1.
    9900012    2    1    2    0    0 -0.30235301239E+02 -0.29596967542E+02 -0.96679825873E+01  0.47787264799E+02  0.19999971523E+02 0.  0.
        -12    1    1    2    0    0  0.30235301239E+02  0.29596967542E+02  0.96679825873E+01  0.43400735201E+02  0.00000000000E+00 0.  1.
         11    1    3    3    0    0 -0.18407707976E+02 -0.25723044197E+02 -0.11377293100E+02  0.33614900182E+02  0.51100000000E-03 0. -1.
        -11    1    3    3    0    0 -0.83829542666E+01  0.40383073200E+00 -0.89191835527E-01  0.83931494053E+01  0.51100000000E-03 0.  1.
        -12    1    3    3    0    0 -0.34446389962E+01 -0.42777540773E+01  0.17985023486E+01  0.57792152113E+01  0.00000000000E+00 0.  1.
</event>
<event>
 7    1  0.2430096E-009  0.4778727E+02  0.7816164E-02  0.1312668E+00
        -11   -1    0    0    0    0  0.00000000000E+00  0.00000000000E+00  0.45593999997E+02  0.45594000000E+02  0.51100000000E-03 0.  1.
         11   -1    0    0    0    0 -0.00000000000E+00 -0.00000000000E+00 -0.45593999997E+02  0.45594000000E+02  0.51100000000E-03 0. -1.
    9900012    2    1    2    0    0 -0.26187068557E+02  0.27738343785E+02 -0.20698912831E+02  0.47787271113E+02  0.20000000312E+02 0.  0.
        -12    1    1    2    0    0  0.26187068557E+02 -0.27738343785E+02  0.20698912831E+02  0.43400728887E+02  0.00000000000E+00 0.  1.
         11    1    3    3    0    0 -0.16695869720E+02  0.10679089147E+02 -0.16146709856E+02  0.25563866103E+02  0.51100000000E-03 0. -1.
        -11    1    3    3    0    0 -0.87641917935E+01  0.18041411684E+02 -0.30517736763E+01  0.20288344343E+02  0.51100000000E-03 0.  1.
         12    1    3    3    0    0 -0.72700704424E+00 -0.98215704609E+00 -0.15004292984E+01  0.19350606670E+01  0.00000000000E+00 0. -1.
</event>
<event>
 7    1  0.2430096E-009  0.4778727E+02  0.7816164E-02  0.1312668E+00
        -11   -1    0    0    0    0  0.00000000000E+00  0.00000000000E+00  0.45593999997E+02  0.45594000000E+02  0.51100000000E-03 0. -1.
         11   -1    0    0    0    0 -0.00000000000E+00 -0.00000000000E+00 -0.45593999997E+02  0.45594000000E+02  0.51100000000E-03 0.  1.
    9900012    2    1    2    0    0  0.43391939949E+02 -0.37111019704E-01 -0.87243072846E+00  0.47787274602E+02  0.20000016219E+02 0.  0.
        -12    1    1    2    0    0 -0.43391939949E+02  0.37111019704E-01  0.87243072846E+00  0.43400725398E+02  0.00000000000E+00 0.  1.
         11    1    3    3    0    0  0.78781435632E+01  0.39537451714E+01 -0.44321507373E+01  0.98661647717E+01  0.51100000000E-03 0. -1.
        -11    1    3    3    0    0  0.11802009371E+02 -0.14366548201E+01  0.70437057408E+01  0.13819015634E+02  0.51100000000E-03 0.  1.
        -12    1    3    3    0    0  0.23711787014E+02 -0.25542013710E+01 -0.34839857319E+01  0.24102094196E+02  0.00000000000E+00 0.  1.
</event>
<event>
 7    1  0.2430096E-009  0.4778727E+02  0.7816164E-02  0.1312668E+00
        -11   -1    0    0    0    0  0.00000000000E+00  0.00000000000E+00  0.45593999997E+02  0.45594000000E+02  0.51100000000E-03 0.  1.
         11   -1    0    0    0    0 -0.00000000000E+00 -0.00000000000E+00 -0.45593999997E+02  0.45594000000E+02  0.51100000000E-03 0. -1.
    9900012    2    1    2    0    0  0.75905424142E+01  0.30131173928E+02 -0.30300481153E+02  0.47787272650E+02  0.20000007319E+02 0.  0.
        -12    1    1    2    0    0 -0.75905424142E+01 -0.30131173928E+02  0.30300481153E+02  0.43400727350E+02  0.00000000000E+00 0.  1.
         11    1    3    3    0    0 -0.23970382093E+01  0.12534095745E+02 -0.16673229665E+02  0.20996331490E+02  0.51100000000E-03 0. -1.
        -11    1    3    3    0    0  0.97343855720E+01  0.59360579861E+01 -0.68582758875E+01  0.13305299519E+02  0.51100000000E-03 0.  1.
        -12    1    3    3    0    0  0.25319505154E+00  0.11661020198E+02 -0.67689756001E+01  0.13485641641E+02  0.00000000000E+00 0.  1.
</event>
<event>
 7    1  0.2430096E-009  0.4778727E+02  0.7816164E-02  0.1312668E+00
        -11   -1    0    0    0    0  0.00000000000E+00  0.00000000000E+00  0.45593999997E+02  0.45594000000E+02  0.51100000000E-03 0.  1.
         11   -1    0    0    0    0 -0.00000000000E+00 -0.00000000000E+00 -0.45593999997E+02  0.45594000000E+02  0.51100000000E-03 0. -1.
    9900012    2    1    2    0    0 -0.40782776153E+02  0.58785872385E+01  0.13631974678E+02  0.47787270141E+02  0.19999995881E+02 0.  0.
        -12    1    1    2    0    0  0.40782776153E+02 -0.58785872385E+01 -0.13631974678E+02  0.43400729859E+02  0.00000000000E+00 0.  1.
         11    1    3    3    0    0 -0.99296700900E+01  0.43122261745E+01 -0.45617572935E+01  0.11747479412E+02  0.51100000000E-03 0. -1.
        -11    1    3    3    0    0 -0.18293976117E+02  0.22401560537E+01  0.12238601762E+02  0.22123996806E+02  0.51100000000E-03 0.  1.
         12    1    3    3    0    0 -0.12559129946E+02 -0.67379498959E+00  0.59551302092E+01  0.13915793923E+02  0.00000000000E+00 0. -1.
</event>
<event>
 7    1  0.2430096E-009  0.4778727E+02  0.7816164E-02  0.1312668E+00
        -11   -1    0    0    0    0  0.00000000000E+00  0.00000000000E+00  0.45593999997E+02  0.45594000000E+02  0.51100000000E-03 0.  1.
         11   -1    0    0    0    0 -0.00000000000E+00 -0.00000000000E+00 -0.45593999997E+02  0.45594000000E+02  0.51100000000E-03 0. -1.
    9900012    2    1    2    0    0 -0.15684489769E+01  0.43073945205E+02  0.50792088533E+01  0.47787272468E+02  0.20000006490E+02 0.  0.
        -12    1    1    2    0    0  0.15684489769E+01 -0.43073945205E+02 -0.50792088533E+01  0.43400727532E+02  0.00000000000E+00 0.  1.
         11    1    3    3    0    0 -0.12922086269E+01  0.13395739620E+02  0.63072319131E+01  0.14862597949E+02  0.51100000000E-03 0. -1.
        -11    1    3    3    0    0 -0.18219097853E+01  0.10072942364E+02 -0.70331331782E+01  0.12419681385E+02  0.51100000000E-03 0.  1.
        -12    1    3    3    0    0  0.15456694353E+01  0.19605263221E+02  0.58051101184E+01  0.20504993135E+02  0.00000000000E+00 0.  1.
</event>
<event>
 7    1  0.2430096E-009  0.4778727E+02  0.7816164E-02  0.1312668E+00
        -11   -1    0    0    0    0  0.00000000000E+00  0.00000000000E+00  0.45593999997E+02  0.45594000000E+02  0.51100000000E-03 0.  1.
         11   -1    0    0    0    0 -0.00000000000E+00 -0.00000000000E+00 -0.45593999997E+02  0.45594000000E+02  0.51100000000E-03 0. -1.
    9900012    2    1    2    0    0 -0.30601549097E+02 -0.56101787074E+01 -0.30260440956E+02  0.47787271906E+02  0.20000003928E+02 0.  0.
        -12    1    1    2    0    0  0.30601549097E+02  0.56101787074E+01  0.30260440956E+02  0.43400728094E+02  0.00000000000E+00 0.  1.
         11    1    3    3    0    0 -0.15121906275E+02 -0.32778619082E+01 -0.14604797525E+02  0.21277136534E+02  0.51100000000E-03 0. -1.
        -11    1    3    3    0    0 -0.59029855481E+01  0.59456527459E+01 -0.39256698945E+01  0.92524001934E+01  0.51100000000E-03 0.  1.
        -12    1    3    3    0    0 -0.95766572735E+01 -0.82779695451E+01 -0.11729973536E+02  0.17257735178E+02  0.00000000000E+00 0.  1.
</event>
<event>
 7    1  0.2430096E-009  0.4778727E+02  0.7816164E-02  0.1312668E+00
        -11   -1    0    0    0    0  0.00000000000E+00  0.00000000000E+00  0.45593999997E+02  0.45594000000E+02  0.51100000000E-03 0. -1.
         11   -1    0    0    0    0 -0.00000000000E+00 -0.00000000000E+00 -0.45593999997E+02  0.45594000000E+02  0.51100000000E-03 0.  1.
    9900012    2    1    2    0    0  0.37038216030E+02  0.12280603621E+02  0.18999492013E+02  0.47787269951E+02  0.19999995016E+02 0.  0.
        -12    1    1    2    0    0 -0.37038216030E+02 -0.12280603621E+02 -0.18999492013E+02  0.43400730049E+02  0.00000000000E+00 0.  1.
         11    1    3    3    0    0  0.67127349365E+01  0.30253663075E+01  0.10445923316E+01  0.74367213893E+01  0.51100000000E-03 0.  1.
        -11    1    3    3    0    0  0.27747829978E+02  0.52407912859E+01  0.80609003529E+01  0.29366410686E+02  0.51100000000E-03 0. -1.
        -12    1    3    3    0    0  0.25776511160E+01  0.40144460278E+01  0.98939993281E+01  0.10984137877E+02  0.00000000000E+00 0.  1.
</event>
<event>
 7    1  0.2430096E-009  0.4778727E+02  0.7816164E-02  0.1312668E+00
        -11   -1    0    0    0    0  0.00000000000E+00  0.00000000000E+00  0.45593999997E+02  0.45594000000E+02  0.51100000000E-03 0.  1.
         11   -1    0    0    0    0 -0.00000000000E+00 -0.00000000000E+00 -0.45593999997E+02  0.45594000000E+02  0.51100000000E-03 0. -1.
    9900012    2    1    2    0    0  0.16698343533E+02 -0.15324359458E+02 -0.37012872485E+02  0.47787269601E+02  0.19999993420E+02 0.  0.
        -12    1    1    2    0    0 -0.16698343533E+02  0.15324359458E+02  0.37012872485E+02  0.43400730399E+02  0.00000000000E+00 0.  1.
         11    1    3    3    0    0  0.16517022771E+02 -0.81356580770E+01 -0.28413087089E+02  0.33857118775E+02  0.51100000000E-03 0. -1.
        -11    1    3    3    0    0 -0.24726766110E+01 -0.72913682635E+01 -0.81934671348E+01  0.11243268418E+02  0.51100000000E-03 0.  1.
        -12    1    3    3    0    0  0.26539973727E+01  0.10266688204E+00 -0.40631826125E+00  0.26868824076E+01  0.00000000000E+00 0.  1.
</event>
<event>
 7    1  0.2430096E-009  0.4778727E+02  0.7816164E-02  0.1312668E+00
        -11   -1    0    0    0    0  0.00000000000E+00  0.00000000000E+00  0.45593999997E+02  0.45594000000E+02  0.51100000000E-03 0. -1.
         11   -1    0    0    0    0 -0.00000000000E+00 -0.00000000000E+00 -0.45593999997E+02  0.45594000000E+02  0.51100000000E-03 0.  1.
    9900012    2    1    2    0    0 -0.39784658032E+02  0.97280382672E+01  0.14358601586E+02  0.47787272094E+02  0.20000004785E+02 0.  0.
        -12    1    1    2    0    0  0.39784658032E+02 -0.97280382672E+01 -0.14358601586E+02  0.43400727906E+02  0.00000000000E+00 0.  1.
         11    1    3    3    0    0 -0.19797468634E+02  0.64210425584E+01  0.87588923856E+01  0.22580694142E+02  0.51100000000E-03 0. -1.
        -11    1    3    3    0    0  0.20999734944E+01  0.17116992127E+00  0.13340329938E+01  0.24937586308E+01  0.51100000000E-03 0.  1.
        -12    1    3    3    0    0 -0.22087162892E+02  0.31358257875E+01  0.42656762069E+01  0.22712819321E+02  0.00000000000E+00 0.  1.
</event>
<event>
 7    1  0.2430096E-009  0.4778726E+02  0.7816164E-02  0.1312668E+00
        -11   -1    0    0    0    0  0.00000000000E+00  0.00000000000E+00  0.45593999997E+02  0.45594000000E+02  0.51100000000E-03 0.  1.
         11   -1    0    0    0    0 -0.00000000000E+00 -0.00000000000E+00 -0.45593999997E+02  0.45594000000E+02  0.51100000000E-03 0. -1.
    9900012    2    1    2    0    0 -0.61559550569E+00  0.38092269861E+02 -0.20789996527E+02  0.47787263410E+02  0.19999965190E+02 0.  0.
        -12    1    1    2    0    0  0.61559550569E+00 -0.38092269861E+02  0.20789996527E+02  0.43400736590E+02  0.00000000000E+00 0.  1.
         11    1    3    3    0    0  0.75341064689E+00  0.57087316151E+00 -0.23694106034E+01  0.25510058091E+01  0.51100000000E-03 0. -1.
        -11    1    3    3    0    0 -0.93131578872E+01  0.21615715473E+02 -0.10480712048E+02  0.25764692712E+02  0.51100000000E-03 0.  1.
        -12    1    3    3    0    0  0.79441517346E+01  0.15905681226E+02 -0.79398738756E+01  0.19471564889E+02  0.00000000000E+00 0.  1.
</event>
<event>
 7    1  0.2430096E-009  0.4778727E+02  0.7816164E-02  0.1312668E+00
        -11   -1    0    0    0    0  0.00000000000E+00  0.00000000000E+00  0.45593999997E+02  0.45594000000E+02  0.51100000000E-03 0.  1.
         11   -1    0    0    0    0 -0.00000000000E+00 -0.00000000000E+00 -0.45593999997E+02  0.45594000000E+02  0.51100000000E-03 0. -1.
    9900012    2    1    2    0    0  0.32393304364E+02  0.13784209044E+02 -0.25382922705E+02  0.47787270149E+02  0.19999995917E+02 0.  0.
        -12    1    1    2    0    0 -0.32393304364E+02 -0.13784209044E+02  0.25382922705E+02  0.43400729851E+02  0.00000000000E+00 0.  1.
         11    1    3    3    0    0  0.52670360411E+01 -0.41048004955E+01 -0.39390542970E+01  0.77528836430E+01  0.51100000000E-03 0. -1.
        -11    1    3    3    0    0  0.65069253209E+01  0.78717972050E+01 -0.30956621547E+01  0.10671850486E+02  0.51100000000E-03 0.  1.
         12    1    3    3    0    0  0.20619343002E+02  0.10017212335E+02 -0.18348206253E+02  0.29362536019E+02  0.00000000000E+00 0. -1.
</event>
<event>
 7    1  0.2430096E-009  0.4778728E+02  0.7816164E-02  0.1312668E+00
        -11   -1    0    0    0    0  0.00000000000E+00  0.00000000000E+00  0.45593999997E+02  0.45594000000E+02  0.51100000000E-03 0.  1.
         11   -1    0    0    0    0 -0.00000000000E+00 -0.00000000000E+00 -0.45593999997E+02  0.45594000000E+02  0.51100000000E-03 0. -1.
    9900012    2    1    2    0    0 -0.23655449958E+02 -0.45564845763E+01 -0.36100982068E+02  0.47787276841E+02  0.20000026429E+02 0.  0.
        -12    1    1    2    0    0  0.23655449958E+02  0.45564845763E+01  0.36100982068E+02  0.43400723159E+02  0.00000000000E+00 0.  1.
         11    1    3    3    0    0 -0.11600451097E+02  0.31865758427E+01 -0.19601863007E+02  0.22999081827E+02  0.51100000000E-03 0. -1.
        -11    1    3    3    0    0 -0.20328192327E+01 -0.63524728695E+01 -0.17386573428E+01  0.68926914343E+01  0.51100000000E-03 0.  1.
        -12    1    3    3    0    0 -0.10022179629E+02 -0.13905875496E+01 -0.14760461718E+02  0.17895503580E+02  0.00000000000E+00 0.  1.
</event>
<event>
 7    1  0.2430096E-009  0.4778727E+02  0.7816164E-02  0.1312668E+00
        -11   -1    0    0    0    0  0.00000000000E+00  0.00000000000E+00  0.45593999997E+02  0.45594000000E+02  0.51100000000E-03 0.  1.
         11   -1    0    0    0    0 -0.00000000000E+00 -0.00000000000E+00 -0.45593999997E+02  0.45594000000E+02  0.51100000000E-03 0. -1.
    9900012    2    1    2    0    0  0.68092308680E+01 -0.96843959250E+01 -0.41754882787E+02  0.47787269753E+02  0.19999994111E+02 0.  0.
        -12    1    1    2    0    0 -0.68092308680E+01  0.96843959250E+01  0.41754882787E+02  0.43400730247E+02  0.00000000000E+00 0.  1.
         11    1    3    3    0    0  0.45481202161E+01  0.53560448061E+01 -0.10471551193E+02  0.12610551063E+02  0.51100000000E-03 0. -1.
        -11    1    3    3    0    0  0.89335918394E+00 -0.18953386913E+01 -0.14529536034E+01  0.25497987805E+01  0.51100000000E-03 0.  1.
         12    1    3    3    0    0  0.13677514679E+01 -0.13145102040E+02 -0.29830377991E+02  0.32626919910E+02  0.00000000000E+00 0. -1.
</event>
<event>
 7    1  0.2430096E-009  0.4778727E+02  0.7816164E-02  0.1312668E+00
        -11   -1    0    0    0    0  0.00000000000E+00  0.00000000000E+00  0.45593999997E+02  0.45594000000E+02  0.51100000000E-03 0.  1.
         11   -1    0    0    0    0 -0.00000000000E+00 -0.00000000000E+00 -0.45593999997E+02  0.45594000000E+02  0.51100000000E-03 0. -1.
    9900012    2    1    2    0    0 -0.35924263624E+02  0.17957944541E+02 -0.16449415413E+02  0.47787265484E+02  0.19999974649E+02 0.  0.
        -12    1    1    2    0    0  0.35924263624E+02 -0.17957944541E+02  0.16449415413E+02  0.43400734516E+02  0.00000000000E+00 0.  1.
         11    1    3    3    0    0 -0.15253084409E+02 -0.20143108414E+00 -0.78257648071E+01  0.17144671287E+02  0.51100000000E-03 0. -1.
        -11    1    3    3    0    0 -0.21300638852E+02  0.18864600445E+02 -0.82400036589E+01  0.29622424378E+02  0.51100000000E-03 0.  1.
        -12    1    3    3    0    0  0.62945963668E+00 -0.70522481973E+00 -0.38364694692E+00  0.10201698194E+01  0.00000000000E+00 0.  1.
</event>
<event>
 7    1  0.2430096E-009  0.4778727E+02  0.7816164E-02  0.1312668E+00
        -11   -1    0    0    0    0  0.00000000000E+00  0.00000000000E+00  0.45593999997E+02  0.45594000000E+02  0.51100000000E-03 0. -1.
         11   -1    0    0    0    0 -0.00000000000E+00 -0.00000000000E+00 -0.45593999997E+02  0.45594000000E+02  0.51100000000E-03 0.  1.
    9900012    2    1    2    0    0 -0.39458678162E+02  0.17773675249E+02 -0.32760112160E+01  0.47787273467E+02  0.20000011044E+02 0.  0.
        -12    1    1    2    0    0  0.39458678162E+02 -0.17773675249E+02  0.32760112160E+01  0.43400726533E+02  0.00000000000E+00 0.  1.
         11    1    3    3    0    0 -0.14560754021E+02  0.52640767038E+01 -0.89993416121E+01  0.17908495495E+02  0.51100000000E-03 0. -1.
        -11    1    3    3    0    0 -0.91136133820E+01  0.38086228673E+01  0.65237957462E+01  0.11837375901E+02  0.51100000000E-03 0.  1.
         12    1    3    3    0    0 -0.15784310759E+02  0.87009756777E+01 -0.80046535014E+00  0.18041402070E+02  0.00000000000E+00 0. -1.
</event>
<event>
 7    1  0.2430096E-009  0.4778728E+02  0.7816164E-02  0.1312668E+00
        -11   -1    0    0    0    0  0.00000000000E+00  0.00000000000E+00  0.45593999997E+02  0.45594000000E+02  0.51100000000E-03 0.  1.
         11   -1    0    0    0    0 -0.00000000000E+00 -0.00000000000E+00 -0.45593999997E+02  0.45594000000E+02  0.51100000000E-03 0. -1.
    9900012    2    1    2    0    0 -0.10707153320E+02  0.13683665049E+02 -0.39771054160E+02  0.47787279149E+02  0.20000036951E+02 0.  0.
        -12    1    1    2    0    0  0.10707153320E+02 -0.13683665049E+02  0.39771054160E+02  0.43400720851E+02  0.00000000000E+00 0.  1.
         11    1    3    3    0    0 -0.97673064620E+01  0.35237049502E+01 -0.21402984176E+02  0.23788747424E+02  0.51100000000E-03 0. -1.
        -11    1    3    3    0    0 -0.40856523475E-01  0.73080061654E+01 -0.23101433444E+01  0.76645538619E+01  0.51100000000E-03 0.  1.
        -12    1    3    3    0    0 -0.89899033435E+00  0.28519539337E+01 -0.16057926640E+02  0.16333977863E+02  0.00000000000E+00 0.  1.
</event>
<event>
 7    1  0.2430096E-009  0.4778727E+02  0.7816164E-02  0.1312668E+00
        -11   -1    0    0    0    0  0.00000000000E+00  0.00000000000E+00  0.45593999997E+02  0.45594000000E+02  0.51100000000E-03 0.  1.
         11   -1    0    0    0    0 -0.00000000000E+00 -0.00000000000E+00 -0.45593999997E+02  0.45594000000E+02  0.51100000000E-03 0. -1.
    9900012    2    1    2    0    0  0.24874182609E+02 -0.26045990970E+02 -0.24217859630E+02  0.47787270385E+02  0.19999996993E+02 0.  0.
        -12    1    1    2    0    0 -0.24874182609E+02  0.26045990970E+02  0.24217859630E+02  0.43400729615E+02  0.00000000000E+00 0.  1.
         11    1    3    3    0    0  0.39505087039E+01 -0.12946268891E+01  0.14637301949E+01  0.44073897203E+01  0.51100000000E-03 0.  1.
        -11    1    3    3    0    0  0.21459131102E+02 -0.18890144276E+02 -0.23805122248E+02  0.37202361537E+02  0.51100000000E-03 0. -1.
         12    1    3    3    0    0 -0.53545719695E+00 -0.58612198047E+01 -0.18764675772E+01  0.61775191280E+01  0.00000000000E+00 0. -1.
</event>
<event>
 7    1  0.2430096E-009  0.4778727E+02  0.7816164E-02  0.1312668E+00
        -11   -1    0    0    0    0  0.00000000000E+00  0.00000000000E+00  0.45593999997E+02  0.45594000000E+02  0.51100000000E-03 0.  1.
         11   -1    0    0    0    0 -0.00000000000E+00 -0.00000000000E+00 -0.45593999997E+02  0.45594000000E+02  0.51100000000E-03 0. -1.
    9900012    2    1    2    0    0 -0.27526571428E+02 -0.30517234686E+01 -0.33415544810E+02  0.47787265148E+02  0.19999973116E+02 0.  0.
        -12    1    1    2    0    0  0.27526571428E+02  0.30517234686E+01  0.33415544810E+02  0.43400734852E+02  0.00000000000E+00 0.  1.
         11    1    3    3    0    0  0.27008820324E+01  0.10665031714E+01 -0.45761722111E+01  0.54197366296E+01  0.51100000000E-03 0. -1.
        -11    1    3    3    0    0 -0.15371772436E+02 -0.44400960699E+01 -0.17208787097E+02  0.23497833827E+02  0.51100000000E-03 0.  1.
        -12    1    3    3    0    0 -0.14855681025E+02  0.32186942989E+00 -0.11630585502E+02  0.18869694692E+02  0.00000000000E+00 0.  1.
</event>
<event>
 7    1 -0.2430096E-009  0.4778727E+02  0.7816164E-02  0.1312668E+00
        -11   -1    0    0    0    0  0.00000000000E+00  0.00000000000E+00  0.45593999997E+02  0.45594000000E+02  0.51100000000E-03 0.  1.
         11   -1    0    0    0    0 -0.00000000000E+00 -0.00000000000E+00 -0.45593999997E+02  0.45594000000E+02  0.51100000000E-03 0. -1.
    9900012    2    1    2    0    0  0.34611176250E+02 -0.23599180314E+02 -0.11347616166E+02  0.47787271601E+02  0.20000002537E+02 0.  0.
        -12    1    1    2    0    0 -0.34611176250E+02  0.23599180314E+02  0.11347616166E+02  0.43400728399E+02  0.00000000000E+00 0.  1.
         11    1    3    3    0    0  0.58581053112E+01 -0.10688910895E+02  0.21260481368E+01  0.12372966294E+02  0.51100000000E-03 0. -1.
        -11    1    3    3    0    0  0.10396381374E+02 -0.10593506531E+01 -0.16786178610E+01  0.10584173452E+02  0.51100000000E-03 0.  1.
         12    1    3    3    0    0  0.18356689565E+02 -0.11850918766E+02 -0.11795046442E+02  0.24830131855E+02  0.00000000000E+00 0. -1.
</event>
<event>
 7    1  0.2430096E-009  0.4778727E+02  0.7816164E-02  0.1312668E+00
        -11   -1    0    0    0    0  0.00000000000E+00  0.00000000000E+00  0.45593999997E+02  0.45594000000E+02  0.51100000000E-03 0.  1.
         11   -1    0    0    0    0 -0.00000000000E+00 -0.00000000000E+00 -0.45593999997E+02  0.45594000000E+02  0.51100000000E-03 0. -1.
    9900012    2    1    2    0    0 -0.53969638195E+01 -0.10412069437E+02 -0.41786179499E+02  0.47787271832E+02  0.20000003589E+02 0.  0.
        -12    1    1    2    0    0  0.53969638195E+01  0.10412069437E+02  0.41786179499E+02  0.43400728168E+02  0.00000000000E+00 0.  1.
         11    1    3    3    0    0  0.22042130253E+01 -0.13847448104E+02 -0.24233849840E+02  0.27998033009E+02  0.51100000000E-03 0. -1.
        -11    1    3    3    0    0 -0.66646843405E+01  0.33310620015E+01 -0.11766032909E+02  0.13926719718E+02  0.51100000000E-03 0.  1.
         12    1    3    3    0    0 -0.93649250434E+00  0.10431666555E+00 -0.57862967496E+01  0.58625191046E+01  0.00000000000E+00 0. -1.
</event>
<event>
 7    1  0.3206278E-009  0.4778727E+02  0.7816164E-02  0.1312668E+00
        -11   -1    0    0    0    0  0.00000000000E+00  0.00000000000E+00  0.45593999997E+02  0.45594000000E+02  0.51100000000E-03 0.  1.
         11   -1    0    0    0    0 -0.00000000000E+00 -0.00000000000E+00 -0.45593999997E+02  0.45594000000E+02  0.51100000000E-03 0. -1.
    9900012    2    1    2    0    0  0.16497275635E+02 -0.37292042812E+02 -0.14858218464E+02  0.47787271706E+02  0.20000003018E+02 0.  0.
        -12    1    1    2    0    0 -0.16497275635E+02  0.37292042812E+02  0.14858218464E+02  0.43400728294E+02  0.00000000000E+00 0.  1.
         11    1    3    3    0    0  0.11020068371E+02 -0.21098405892E+02 -0.81876077779E+01  0.25171840606E+02  0.51100000000E-03 0. -1.
        -11    1    3    3    0    0 -0.13467884581E+01 -0.88068144186E+01  0.22320199971E+01  0.91845377065E+01  0.51100000000E-03 0.  1.
        -12    1    3    3    0    0  0.68239957221E+01 -0.73868225012E+01 -0.89026306833E+01  0.13430893394E+02  0.00000000000E+00 0.  1.
</event>
<event>
 7    1  0.2430096E-009  0.4778727E+02  0.7816164E-02  0.1312668E+00
        -11   -1    0    0    0    0  0.00000000000E+00  0.00000000000E+00  0.45593999997E+02  0.45594000000E+02  0.51100000000E-03 0.  1.
         11   -1    0    0    0    0 -0.00000000000E+00 -0.00000000000E+00 -0.45593999997E+02  0.45594000000E+02  0.51100000000E-03 0. -1.
    9900012    2    1    2    0    0  0.12239635803E+02  0.35248346590E+02 -0.22166845675E+02  0.47787266491E+02  0.19999979239E+02 0.  0.
        -12    1    1    2    0    0 -0.12239635803E+02 -0.35248346590E+02  0.22166845675E+02  0.43400733509E+02  0.00000000000E+00 0.  1.
         11    1    3    3    0    0  0.10570231390E+02  0.10657886117E+02 -0.12175297337E+02  0.19327653599E+02  0.51100000000E-03 0. -1.
        -11    1    3    3    0    0 -0.42118170860E+01  0.10417446423E+02 -0.52207818604E+01  0.12390284768E+02  0.51100000000E-03 0.  1.
        -12    1    3    3    0    0  0.58812214989E+01  0.14173014050E+02 -0.47707664782E+01  0.16069328124E+02  0.00000000000E+00 0.  1.
</event>
<event>
 7    1  0.2430096E-009  0.4778727E+02  0.7816164E-02  0.1312668E+00
        -11   -1    0    0    0    0  0.00000000000E+00  0.00000000000E+00  0.45593999997E+02  0.45594000000E+02  0.51100000000E-03 0. -1.
         11   -1    0    0    0    0 -0.00000000000E+00 -0.00000000000E+00 -0.45593999997E+02  0.45594000000E+02  0.51100000000E-03 0.  1.
    9900012    2    1    2    0    0 -0.98077542410E+01 -0.42268522111E+02  0.89612386762E+00  0.47787273708E+02  0.20000012144E+02 0.  0.
        -12    1    1    2    0    0  0.98077542410E+01  0.42268522111E+02 -0.89612386762E+00  0.43400726292E+02  0.00000000000E+00 0.  1.
         11    1    3    3    0    0 -0.41667477095E+01 -0.40056685682E+02 -0.15316685411E+01  0.40301933739E+02  0.51100000000E-03 0. -1.
        -11    1    3    3    0    0 -0.40160448172E+01 -0.27201382035E+00  0.68816849582E-01  0.40258345113E+01  0.51100000000E-03 0.  1.
         12    1    3    3    0    0 -0.16249617143E+01 -0.19398226084E+01  0.23589755591E+01  0.34595054580E+01  0.00000000000E+00 0. -1.
</event>
<event>
 7    1  0.2430096E-009  0.4778732E+02  0.7816164E-02  0.1312668E+00
        -11   -1    0    0    0    0  0.00000000000E+00  0.00000000000E+00  0.45593999997E+02  0.45594000000E+02  0.51100000000E-03 0.  1.
         11   -1    0    0    0    0 -0.00000000000E+00 -0.00000000000E+00 -0.45593999997E+02  0.45594000000E+02  0.51100000000E-03 0. -1.
    9900012    2    1    2    0    0 -0.31142481474E+02  0.25981981220E+02 -0.15449975516E+02  0.47787317472E+02  0.20000211681E+02 0.  0.
        -12    1    1    2    0    0  0.31142481474E+02 -0.25981981220E+02  0.15449975516E+02  0.43400682528E+02  0.00000000000E+00 0.  1.
         11    1    3    3    0    0 -0.11030720532E+02  0.65277088431E+00 -0.85064472018E+01  0.13944982952E+02  0.51100000000E-03 0. -1.
        -11    1    3    3    0    0 -0.72354841848E+01  0.14720038413E+02 -0.42338041997E+01  0.16939801077E+02  0.51100000000E-03 0.  1.
         12    1    3    3    0    0 -0.12876276757E+02  0.10609171922E+02 -0.27097241147E+01  0.16902533442E+02  0.00000000000E+00 0. -1.
</event>
<event>
 7    1  0.2430096E-009  0.4778726E+02  0.7816164E-02  0.1312668E+00
        -11   -1    0    0    0    0  0.00000000000E+00  0.00000000000E+00  0.45593999997E+02  0.45594000000E+02  0.51100000000E-03 0.  1.
         11   -1    0    0    0    0 -0.00000000000E+00 -0.00000000000E+00 -0.45593999997E+02  0.45594000000E+02  0.51100000000E-03 0. -1.
    9900012    2    1    2    0    0 -0.20781240373E+02 -0.26799026974E+02 -0.27084616622E+02  0.47787259733E+02  0.19999948424E+02 0.  0.
        -12    1    1    2    0    0  0.20781240373E+02  0.26799026974E+02  0.27084616622E+02  0.43400740267E+02  0.00000000000E+00 0.  1.
         11    1    3    3    0    0 -0.22385973258E+02 -0.22973760950E+02 -0.25699650661E+02  0.41102281387E+02  0.51100000000E-03 0. -1.
        -11    1    3    3    0    0  0.22814973277E+01 -0.84797295752E+00 -0.24478776264E+01  0.34520129386E+01  0.51100000000E-03 0.  1.
         12    1    3    3    0    0 -0.67676444264E+00 -0.29772930663E+01  0.10629116648E+01  0.32329654066E+01  0.00000000000E+00 0. -1.
</event>
<event>
 7    1  0.2430096E-009  0.4778726E+02  0.7816164E-02  0.1312668E+00
        -11   -1    0    0    0    0  0.00000000000E+00  0.00000000000E+00  0.45593999997E+02  0.45594000000E+02  0.51100000000E-03 0.  1.
         11   -1    0    0    0    0 -0.00000000000E+00 -0.00000000000E+00 -0.45593999997E+02  0.45594000000E+02  0.51100000000E-03 0. -1.
    9900012    2    1    2    0    0 -0.37053301389E+02  0.13631087803E+02 -0.18024154125E+02  0.47787264633E+02  0.19999970766E+02 0.  0.
        -12    1    1    2    0    0  0.37053301389E+02 -0.13631087803E+02  0.18024154125E+02  0.43400735367E+02  0.00000000000E+00 0.  1.
         11    1    3    3    0    0 -0.60899958026E+01  0.10515713756E+02 -0.21759134183E+01  0.12345156303E+02  0.51100000000E-03 0. -1.
        -11    1    3    3    0    0 -0.17053146931E+02  0.12065839443E+01 -0.53587283067E+01  0.17915960326E+02  0.51100000000E-03 0.  1.
         12    1    3    3    0    0 -0.13910158655E+02  0.19087901023E+01 -0.10489512400E+02  0.17526148004E+02  0.00000000000E+00 0. -1.
</event>
<event>
 7    1  0.2430096E-009  0.4778725E+02  0.7816164E-02  0.1312668E+00
        -11   -1    0    0    0    0  0.00000000000E+00  0.00000000000E+00  0.45593999997E+02  0.45594000000E+02  0.51100000000E-03 0.  1.
         11   -1    0    0    0    0 -0.00000000000E+00 -0.00000000000E+00 -0.45593999997E+02  0.45594000000E+02  0.51100000000E-03 0. -1.
    9900012    2    1    2    0    0  0.20720700163E+02 -0.14384276008E+02 -0.35318123785E+02  0.47787254854E+02  0.19999926183E+02 0.  0.
        -12    1    1    2    0    0 -0.20720700163E+02  0.14384276008E+02  0.35318123785E+02  0.43400745146E+02  0.00000000000E+00 0.  1.
         11    1    3    3    0    0  0.87092949403E+01 -0.13402716326E+02 -0.11899633826E+02  0.19927014546E+02  0.51100000000E-03 0. -1.
        -11    1    3    3    0    0  0.52687803252E+01 -0.25360070075E+01 -0.35956071944E+01  0.68643840959E+01  0.51100000000E-03 0.  1.
         12    1    3    3    0    0  0.67426248974E+01  0.15544473255E+01 -0.19822882765E+02  0.20995856213E+02  0.00000000000E+00 0. -1.
</event>
<event>
 7    1  0.2430096E-009  0.4778727E+02  0.7816164E-02  0.1312668E+00
        -11   -1    0    0    0    0  0.00000000000E+00  0.00000000000E+00  0.45593999997E+02  0.45594000000E+02  0.51100000000E-03 0.  1.
         11   -1    0    0    0    0 -0.00000000000E+00 -0.00000000000E+00 -0.45593999997E+02  0.45594000000E+02  0.51100000000E-03 0. -1.
    9900012    2    1    2    0    0 -0.28741426640E+02 -0.23253883574E+01 -0.32436804253E+02  0.47787270669E+02  0.19999998288E+02 0.  0.
        -12    1    1    2    0    0  0.28741426640E+02  0.23253883574E+01  0.32436804253E+02  0.43400729331E+02  0.00000000000E+00 0.  1.
         11    1    3    3    0    0 -0.23407634804E+02 -0.23842869662E+01 -0.26011759180E+02  0.35074403878E+02  0.51100000000E-03 0. -1.
        -11    1    3    3    0    0 -0.14774883406E+01 -0.25277151800E+01  0.16772951325E+01  0.33742606673E+01  0.51100000000E-03 0.  1.
         12    1    3    3    0    0 -0.38563034953E+01  0.25866137889E+01 -0.81023402050E+01  0.93386061239E+01  0.00000000000E+00 0. -1.
</event>
<event>
 7    1  0.2430096E-009  0.4778727E+02  0.7816164E-02  0.1312668E+00
        -11   -1    0    0    0    0  0.00000000000E+00  0.00000000000E+00  0.45593999997E+02  0.45594000000E+02  0.51100000000E-03 0.  1.
         11   -1    0    0    0    0 -0.00000000000E+00 -0.00000000000E+00 -0.45593999997E+02  0.45594000000E+02  0.51100000000E-03 0. -1.
    9900012    2    1    2    0    0 -0.49840029189E+01  0.16313821594E+02 -0.39907921930E+02  0.47787270825E+02  0.19999999002E+02 0.  0.
        -12    1    1    2    0    0  0.49840029189E+01 -0.16313821594E+02  0.39907921930E+02  0.43400729175E+02  0.00000000000E+00 0.  1.
         11    1    3    3    0    0 -0.85174194715E+01  0.48573875303E+01 -0.30422269668E+02  0.31963340565E+02  0.51100000000E-03 0. -1.
        -11    1    3    3    0    0  0.37172486973E-01  0.63026385549E+01 -0.36179450346E+01  0.72673352119E+01  0.51100000000E-03 0.  1.
         12    1    3    3    0    0  0.34962440657E+01  0.51537955091E+01 -0.58677072276E+01  0.85565950486E+01  0.00000000000E+00 0. -1.
</event>
<event>
 7    1  0.2430096E-009  0.4778727E+02  0.7816164E-02  0.1312668E+00
        -11   -1    0    0    0    0  0.00000000000E+00  0.00000000000E+00  0.45593999997E+02  0.45594000000E+02  0.51100000000E-03 0.  1.
         11   -1    0    0    0    0 -0.00000000000E+00 -0.00000000000E+00 -0.45593999997E+02  0.45594000000E+02  0.51100000000E-03 0. -1.
    9900012    2    1    2    0    0  0.36454908067E+02  0.22872210848E+02  0.56147066035E+01  0.47787270957E+02  0.19999999600E+02 0.  0.
        -12    1    1    2    0    0 -0.36454908067E+02 -0.22872210848E+02 -0.56147066035E+01  0.43400729043E+02  0.00000000000E+00 0.  1.
         11    1    3    3    0    0  0.24094665851E+02  0.10190038329E+02  0.11427239800E+02  0.28547707672E+02  0.51100000000E-03 0. -1.
        -11    1    3    3    0    0  0.92091899163E+01  0.11550616400E+02 -0.35327638329E+01  0.15189020333E+02  0.51100000000E-03 0.  1.
         12    1    3    3    0    0  0.31510523002E+01  0.11315561184E+01 -0.22797693640E+01  0.40505429514E+01  0.00000000000E+00 0. -1.
</event>
<event>
 7    1  0.2430096E-009  0.4778727E+02  0.7816164E-02  0.1312668E+00
        -11   -1    0    0    0    0  0.00000000000E+00  0.00000000000E+00  0.45593999997E+02  0.45594000000E+02  0.51100000000E-03 0. -1.
         11   -1    0    0    0    0 -0.00000000000E+00 -0.00000000000E+00 -0.45593999997E+02  0.45594000000E+02  0.51100000000E-03 0.  1.
    9900012    2    1    2    0    0  0.20236193173E+02 -0.91632665492E+01  0.37284776879E+02  0.47787267807E+02  0.19999985239E+02 0.  0.
        -12    1    1    2    0    0 -0.20236193173E+02  0.91632665492E+01 -0.37284776879E+02  0.43400732193E+02  0.00000000000E+00 0.  1.
         11    1    3    3    0    0  0.35839695175E+01  0.20886903014E+01  0.38660429881E+01  0.56704279666E+01  0.51100000000E-03 0. -1.
        -11    1    3    3    0    0  0.14017427301E+02 -0.11077210161E+02  0.34813740677E+02  0.39130415194E+02  0.51100000000E-03 0.  1.
        -12    1    3    3    0    0  0.26347963546E+01 -0.17474668966E+00 -0.13950067861E+01  0.29864246465E+01  0.00000000000E+00 0.  1.
</event>
<event>
 7    1  0.2430096E-009  0.4778727E+02  0.7816164E-02  0.1312668E+00
        -11   -1    0    0    0    0  0.00000000000E+00  0.00000000000E+00  0.45593999997E+02  0.45594000000E+02  0.51100000000E-03 0.  1.
         11   -1    0    0    0    0 -0.00000000000E+00 -0.00000000000E+00 -0.45593999997E+02  0.45594000000E+02  0.51100000000E-03 0. -1.
    9900012    2    1    2    0    0 -0.10927891580E+02 -0.28366399676E+02 -0.30976635484E+02  0.47787269697E+02  0.19999993854E+02 0.  0.
        -12    1    1    2    0    0  0.10927891580E+02  0.28366399676E+02  0.30976635484E+02  0.43400730303E+02  0.00000000000E+00 0.  1.
         11    1    3    3    0    0 -0.77419359574E+01 -0.34578641271E+01 -0.85555401217E+01  0.12045400106E+02  0.51100000000E-03 0. -1.
        -11    1    3    3    0    0 -0.14564835423E+00 -0.21626295087E+02 -0.12798525489E+02  0.25130063820E+02  0.51100000000E-03 0.  1.
        -12    1    3    3    0    0 -0.30403072685E+01 -0.32822404618E+01 -0.96225698736E+01  0.10611805770E+02  0.00000000000E+00 0.  1.
</event>
<event>
 7    1  0.2430096E-009  0.4778727E+02  0.7816164E-02  0.1312668E+00
        -11   -1    0    0    0    0  0.00000000000E+00  0.00000000000E+00  0.45593999997E+02  0.45594000000E+02  0.51100000000E-03 0.  1.
         11   -1    0    0    0    0 -0.00000000000E+00 -0.00000000000E+00 -0.45593999997E+02  0.45594000000E+02  0.51100000000E-03 0. -1.
    9900012    2    1    2    0    0  0.43242004068E+02 -0.21913680830E+00 -0.37019059201E+01  0.47787273690E+02  0.20000012063E+02 0.  0.
        -12    1    1    2    0    0 -0.43242004068E+02  0.21913680830E+00  0.37019059201E+01  0.43400726310E+02  0.00000000000E+00 0.  1.
         11    1    3    3    0    0  0.11243477031E+02  0.36217326414E+01 -0.38645412921E+01  0.12428491572E+02  0.51100000000E-03 0. -1.
        -11    1    3    3    0    0  0.90810977176E+01 -0.77803282997E+01  0.15794105886E+01  0.12062105217E+02  0.51100000000E-03 0.  1.
        -12    1    3    3    0    0  0.22917429319E+02  0.39394588500E+01 -0.14167752167E+01  0.23296676901E+02  0.00000000000E+00 0.  1.
</event>
<event>
 7    1  0.2430096E-009  0.4778726E+02  0.7816164E-02  0.1312668E+00
        -11   -1    0    0    0    0  0.00000000000E+00  0.00000000000E+00  0.45593999997E+02  0.45594000000E+02  0.51100000000E-03 0. -1.
         11   -1    0    0    0    0 -0.00000000000E+00 -0.00000000000E+00 -0.45593999997E+02  0.45594000000E+02  0.51100000000E-03 0.  1.
    9900012    2    1    2    0    0 -0.13704046966E+02 -0.40997282498E+02 -0.38788838147E+01  0.47787264810E+02  0.19999971573E+02 0.  0.
        -12    1    1    2    0    0  0.13704046966E+02  0.40997282498E+02  0.38788838147E+01  0.43400735190E+02  0.00000000000E+00 0.  1.
         11    1    3    3    0    0 -0.55910316176E+01 -0.89018870689E+01 -0.63005252189E+01  0.12255604687E+02  0.51100000000E-03 0.  1.
        -11    1    3    3    0    0 -0.13806495331E+01 -0.15784951244E+02  0.69687162636E+01  0.17309936035E+02  0.51100000000E-03 0. -1.
         12    1    3    3    0    0 -0.67323658148E+01 -0.16310444184E+02 -0.45470748593E+01  0.18221724088E+02  0.00000000000E+00 0. -1.
</event>
<event>
 7    1  0.2430096E-009  0.4778727E+02  0.7816164E-02  0.1312668E+00
        -11   -1    0    0    0    0  0.00000000000E+00  0.00000000000E+00  0.45593999997E+02  0.45594000000E+02  0.51100000000E-03 0.  1.
         11   -1    0    0    0    0 -0.00000000000E+00 -0.00000000000E+00 -0.45593999997E+02  0.45594000000E+02  0.51100000000E-03 0. -1.
    9900012    2    1    2    0    0 -0.42037357609E+02 -0.64961833283E+01  0.86187874813E+01  0.47787270395E+02  0.19999997038E+02 0.  0.
        -12    1    1    2    0    0  0.42037357609E+02  0.64961833283E+01 -0.86187874813E+01  0.43400729605E+02  0.00000000000E+00 0.  1.
         11    1    3    3    0    0 -0.10228842746E+02 -0.85833815732E+01  0.15516238876E+01  0.13442886599E+02  0.51100000000E-03 0. -1.
        -11    1    3    3    0    0 -0.21712839547E+02 -0.11074544662E+00  0.95462112679E+01  0.23718975854E+02  0.51100000000E-03 0.  1.
         12    1    3    3    0    0 -0.10095675316E+02  0.21979436914E+01 -0.24790476742E+01  0.10625407942E+02  0.00000000000E+00 0. -1.
</event>
<event>
 7    1  0.2430096E-009  0.4778727E+02  0.7816164E-02  0.1312668E+00
        -11   -1    0    0    0    0  0.00000000000E+00  0.00000000000E+00  0.45593999997E+02  0.45594000000E+02  0.51100000000E-03 0. -1.
         11   -1    0    0    0    0 -0.00000000000E+00 -0.00000000000E+00 -0.45593999997E+02  0.45594000000E+02  0.51100000000E-03 0.  1.
    9900012    2    1    2    0    0 -0.48794501718E+01 -0.41985703941E+02 -0.98496070136E+01  0.47787272728E+02  0.20000007677E+02 0.  0.
        -12    1    1    2    0    0  0.48794501718E+01  0.41985703941E+02  0.98496070136E+01  0.43400727272E+02  0.00000000000E+00 0.  1.
         11    1    3    3    0    0 -0.29692475941E+01 -0.59169943774E+01  0.47259396411E+01  0.81339879204E+01  0.51100000000E-03 0. -1.
        -11    1    3    3    0    0  0.21648510383E+01 -0.24456833693E+02 -0.91113524103E+01  0.26188547827E+02  0.51100000000E-03 0.  1.
         12    1    3    3    0    0 -0.40750536160E+01 -0.11611875871E+02 -0.54641942444E+01  0.13464736981E+02  0.00000000000E+00 0. -1.
</event>
<event>
 7    1  0.2430096E-009  0.4778727E+02  0.7816164E-02  0.1312668E+00
        -11   -1    0    0    0    0  0.00000000000E+00  0.00000000000E+00  0.45593999997E+02  0.45594000000E+02  0.51100000000E-03 0. -1.
         11   -1    0    0    0    0 -0.00000000000E+00 -0.00000000000E+00 -0.45593999997E+02  0.45594000000E+02  0.51100000000E-03 0.  1.
    9900012    2    1    2    0    0 -0.12179258043E+01 -0.19928646554E+02  0.38535553076E+02  0.47787272499E+02  0.20000006632E+02 0.  0.
        -12    1    1    2    0    0  0.12179258043E+01  0.19928646554E+02 -0.38535553076E+02  0.43400727501E+02  0.00000000000E+00 0.  1.
         11    1    3    3    0    0  0.40058888197E+01 -0.17832130862E+02  0.27134510103E+02  0.32715648780E+02  0.51100000000E-03 0. -1.
        -11    1    3    3    0    0 -0.30199553106E+01 -0.31456316370E+01  0.11163511745E+01  0.45012630094E+01  0.51100000000E-03 0.  1.
         12    1    3    3    0    0 -0.22038593133E+01  0.10491159449E+01  0.10284691798E+02  0.10570360709E+02  0.00000000000E+00 0. -1.
</event>
<event>
 7    1  0.2430096E-009  0.4778728E+02  0.7816164E-02  0.1312668E+00
        -11   -1    0    0    0    0  0.00000000000E+00  0.00000000000E+00  0.45593999997E+02  0.45594000000E+02  0.51100000000E-03 0. -1.
         11   -1    0    0    0    0 -0.00000000000E+00 -0.00000000000E+00 -0.45593999997E+02  0.45594000000E+02  0.51100000000E-03 0.  1.
    9900012    2    1    2    0    0  0.35097275371E+02  0.17654058133E+02  0.18442825625E+02  0.47787281987E+02  0.20000049890E+02 0.  0.
        -12    1    1    2    0    0 -0.35097275371E+02 -0.17654058133E+02 -0.18442825625E+02  0.43400718013E+02  0.00000000000E+00 0.  1.
         11    1    3    3    0    0  0.10774748549E+02  0.10967435586E+01  0.13113238346E+02  0.17007500490E+02  0.51100000000E-03 0. -1.
        -11    1    3    3    0    0  0.14778143338E+02  0.12492701010E+02  0.55249804556E+00  0.19358883062E+02  0.51100000000E-03 0.  1.
        -12    1    3    3    0    0  0.95443834848E+01  0.40646135637E+01  0.47770892328E+01  0.11420898435E+02  0.00000000000E+00 0.  1.
</event>
<event>
 7    1  0.2430096E-009  0.4778726E+02  0.7816164E-02  0.1312668E+00
        -11   -1    0    0    0    0  0.00000000000E+00  0.00000000000E+00  0.45593999997E+02  0.45594000000E+02  0.51100000000E-03 0.  1.
         11   -1    0    0    0    0 -0.00000000000E+00 -0.00000000000E+00 -0.45593999997E+02  0.45594000000E+02  0.51100000000E-03 0. -1.
    9900012    2    1    2    0    0  0.22181061071E+02 -0.34546594424E+02 -0.14076855995E+02  0.47787256559E+02  0.19999933957E+02 0.  0.
        -12    1    1    2    0    0 -0.22181061071E+02  0.34546594424E+02  0.14076855995E+02  0.43400743441E+02  0.00000000000E+00 0.  1.
         11    1    3    3    0    0  0.12439222395E+02 -0.26159485465E+02 -0.14132392516E+02  0.32230070618E+02  0.51100000000E-03 0. -1.
        -11    1    3    3    0    0  0.30404946237E+01  0.10016030473E+01 -0.20917555106E+01  0.38240368197E+01  0.51100000000E-03 0.  1.
         12    1    3    3    0    0  0.67013440521E+01 -0.93887120059E+01  0.21472920315E+01  0.11733149121E+02  0.00000000000E+00 0. -1.
</event>
<event>
 7    1  0.2430096E-009  0.4778727E+02  0.7816164E-02  0.1312668E+00
        -11   -1    0    0    0    0  0.00000000000E+00  0.00000000000E+00  0.45593999997E+02  0.45594000000E+02  0.51100000000E-03 0.  1.
         11   -1    0    0    0    0 -0.00000000000E+00 -0.00000000000E+00 -0.45593999997E+02  0.45594000000E+02  0.51100000000E-03 0. -1.
    9900012    2    1    2    0    0  0.17947310530E+02 -0.38645426510E+02  0.82491470971E+01  0.47787269900E+02  0.19999994781E+02 0.  0.
        -12    1    1    2    0    0 -0.17947310530E+02  0.38645426510E+02 -0.82491470971E+01  0.43400730100E+02  0.00000000000E+00 0.  1.
         11    1    3    3    0    0  0.25524398650E+01 -0.38956007778E+00  0.70207381123E+00  0.26757455440E+01  0.51100000000E-03 0. -1.
        -11    1    3    3    0    0  0.88358069554E+01 -0.12511307857E+02 -0.44662062566E+01  0.15954664128E+02  0.51100000000E-03 0.  1.
        -12    1    3    3    0    0  0.65590637095E+01 -0.25744558575E+02  0.12013279542E+02  0.29156860227E+02  0.00000000000E+00 0.  1.
</event>
<event>
 7    1  0.2430096E-009  0.4778728E+02  0.7816164E-02  0.1312668E+00
        -11   -1    0    0    0    0  0.00000000000E+00  0.00000000000E+00  0.45593999997E+02  0.45594000000E+02  0.51100000000E-03 0. -1.
         11   -1    0    0    0    0 -0.00000000000E+00 -0.00000000000E+00 -0.45593999997E+02  0.45594000000E+02  0.51100000000E-03 0.  1.
    9900012    2    1    2    0    0  0.12795685058E+02  0.37195894170E+02  0.18340080967E+02  0.47787278012E+02  0.20000031766E+02 0.  0.
        -12    1    1    2    0    0 -0.12795685058E+02 -0.37195894170E+02 -0.18340080967E+02  0.43400721988E+02  0.00000000000E+00 0.  1.
         11    1    3    3    0    0  0.11025348511E+02  0.15672014935E+02  0.11177640538E+02  0.22183552695E+02  0.51100000000E-03 0. -1.
        -11    1    3    3    0    0 -0.23680572137E+01  0.21307079409E+01 -0.19980376123E+01  0.37602880021E+01  0.51100000000E-03 0.  1.
        -12    1    3    3    0    0  0.41383937612E+01  0.19393171295E+02  0.91604780414E+01  0.21843437315E+02  0.00000000000E+00 0.  1.
</event>
<event>
 7    1  0.2430096E-009  0.4778727E+02  0.7816164E-02  0.1312668E+00
        -11   -1    0    0    0    0  0.00000000000E+00  0.00000000000E+00  0.45593999997E+02  0.45594000000E+02  0.51100000000E-03 0. -1.
         11   -1    0    0    0    0 -0.00000000000E+00 -0.00000000000E+00 -0.45593999997E+02  0.45594000000E+02  0.51100000000E-03 0.  1.
    9900012    2    1    2    0    0 -0.17996466435E+02 -0.21075044602E+02  0.33400493607E+02  0.47787270947E+02  0.19999999557E+02 0.  0.
        -12    1    1    2    0    0  0.17996466435E+02  0.21075044602E+02 -0.33400493607E+02  0.43400729053E+02  0.00000000000E+00 0.  1.
         11    1    3    3    0    0 -0.44647937297E+01  0.19196203698E+01  0.96067424839E+01  0.10766096174E+02  0.51100000000E-03 0. -1.
        -11    1    3    3    0    0 -0.35778551476E+01 -0.62855025671E+00  0.15701951063E+01  0.39574784668E+01  0.51100000000E-03 0.  1.
         12    1    3    3    0    0 -0.99538175582E+01 -0.22366114715E+02  0.22223556017E+02  0.33063696306E+02  0.00000000000E+00 0. -1.
</event>
<event>
 7    1  0.2430096E-009  0.4778727E+02  0.7816164E-02  0.1312668E+00
        -11   -1    0    0    0    0  0.00000000000E+00  0.00000000000E+00  0.45593999997E+02  0.45594000000E+02  0.51100000000E-03 0.  1.
         11   -1    0    0    0    0 -0.00000000000E+00 -0.00000000000E+00 -0.45593999997E+02  0.45594000000E+02  0.51100000000E-03 0. -1.
    9900012    2    1    2    0    0 -0.29506848431E+02 -0.18275883554E+02 -0.26056883754E+02  0.47787271723E+02  0.20000003093E+02 0.  0.
        -12    1    1    2    0    0  0.29506848431E+02  0.18275883554E+02  0.26056883754E+02  0.43400728277E+02  0.00000000000E+00 0.  1.
         11    1    3    3    0    0 -0.64884123683E+01 -0.20911234854E+01 -0.12369645736E+02  0.14123754047E+02  0.51100000000E-03 0. -1.
        -11    1    3    3    0    0 -0.10006111206E+02 -0.89473668682E+01  0.23203983814E-01  0.13423046377E+02  0.51100000000E-03 0.  1.
        -12    1    3    3    0    0 -0.13012324857E+02 -0.72373932002E+01 -0.13710442002E+02  0.20240471299E+02  0.00000000000E+00 0.  1.
</event>
<event>
 7    1  0.2430096E-009  0.4778727E+02  0.7816164E-02  0.1312668E+00
        -11   -1    0    0    0    0  0.00000000000E+00  0.00000000000E+00  0.45593999997E+02  0.45594000000E+02  0.51100000000E-03 0.  1.
         11   -1    0    0    0    0 -0.00000000000E+00 -0.00000000000E+00 -0.45593999997E+02  0.45594000000E+02  0.51100000000E-03 0. -1.
    9900012    2    1    2    0    0  0.31373054350E+01  0.28689841096E+02 -0.32414096019E+02  0.47787270879E+02  0.19999999246E+02 0.  0.
        -12    1    1    2    0    0 -0.31373054350E+01 -0.28689841096E+02  0.32414096019E+02  0.43400729121E+02  0.00000000000E+00 0.  1.
         11    1    3    3    0    0  0.15510846137E+01  0.18753280073E+02 -0.81469077154E+01  0.20505206230E+02  0.51100000000E-03 0. -1.
        -11    1    3    3    0    0  0.10958471084E+01 -0.30629786398E+00 -0.24675648508E+00  0.11642973377E+01  0.51100000000E-03 0.  1.
         12    1    3    3    0    0  0.49037371288E+00  0.10242858887E+02 -0.24020431819E+02  0.26117767311E+02  0.00000000000E+00 0. -1.
</event>
<event>
 7    1  0.2430096E-009  0.4778726E+02  0.7816164E-02  0.1312668E+00
        -11   -1    0    0    0    0  0.00000000000E+00  0.00000000000E+00  0.45593999997E+02  0.45594000000E+02  0.51100000000E-03 0.  1.
         11   -1    0    0    0    0 -0.00000000000E+00 -0.00000000000E+00 -0.45593999997E+02  0.45594000000E+02  0.51100000000E-03 0. -1.
    9900012    2    1    2    0    0  0.20206863750E+02 -0.47370992417E+01 -0.38116485562E+02  0.47787263561E+02  0.19999965879E+02 0.  0.
        -12    1    1    2    0    0 -0.20206863750E+02  0.47370992417E+01  0.38116485562E+02  0.43400736439E+02  0.00000000000E+00 0.  1.
         11    1    3    3    0    0  0.15312866788E+02 -0.51469577252E+01 -0.20447873347E+02  0.26059366604E+02  0.51100000000E-03 0. -1.
        -11    1    3    3    0    0  0.11699747313E+01  0.29588290277E+01 -0.16842102534E+02  0.17140009571E+02  0.51100000000E-03 0.  1.
        -12    1    3    3    0    0  0.37240222308E+01 -0.25489705442E+01 -0.82650968128E+00  0.45878873857E+01  0.00000000000E+00 0.  1.
</event>
<event>
 7    1  0.2430096E-009  0.4778727E+02  0.7816164E-02  0.1312668E+00
        -11   -1    0    0    0    0  0.00000000000E+00  0.00000000000E+00  0.45593999997E+02  0.45594000000E+02  0.51100000000E-03 0.  1.
         11   -1    0    0    0    0 -0.00000000000E+00 -0.00000000000E+00 -0.45593999997E+02  0.45594000000E+02  0.51100000000E-03 0. -1.
    9900012    2    1    2    0    0  0.37570563227E+02 -0.11745305041E+02 -0.18279066045E+02  0.47787266513E+02  0.19999979340E+02 0.  0.
        -12    1    1    2    0    0 -0.37570563227E+02  0.11745305041E+02  0.18279066045E+02  0.43400733487E+02  0.00000000000E+00 0.  1.
         11    1    3    3    0    0  0.52107846456E+01  0.38879536823E+00 -0.10025033438E+02  0.11305075593E+02  0.51100000000E-03 0. -1.
        -11    1    3    3    0    0  0.24515137437E+02 -0.12224118110E+02 -0.44122535457E+01  0.27746873855E+02  0.51100000000E-03 0.  1.
        -12    1    3    3    0    0  0.78446411443E+01  0.90017700656E-01 -0.38417790616E+01  0.87353170651E+01  0.00000000000E+00 0.  1.
</event>
<event>
 7    1  0.2430096E-009  0.4778728E+02  0.7816164E-02  0.1312668E+00
        -11   -1    0    0    0    0  0.00000000000E+00  0.00000000000E+00  0.45593999997E+02  0.45594000000E+02  0.51100000000E-03 0. -1.
         11   -1    0    0    0    0 -0.00000000000E+00 -0.00000000000E+00 -0.45593999997E+02  0.45594000000E+02  0.51100000000E-03 0.  1.
    9900012    2    1    2    0    0  0.15977771349E+02 -0.25085823663E+01  0.40274561464E+02  0.47787280376E+02  0.20000042545E+02 0.  0.
        -12    1    1    2    0    0 -0.15977771349E+02  0.25085823663E+01 -0.40274561464E+02  0.43400719624E+02  0.00000000000E+00 0.  1.
         11    1    3    3    0    0  0.66906696522E+01 -0.57471233391E+01  0.28608113208E+02  0.29936910807E+02  0.51100000000E-03 0. -1.
        -11    1    3    3    0    0  0.59131392225E+01  0.64987267416E+01  0.81849643760E+01  0.12008010111E+02  0.51100000000E-03 0.  1.
        -12    1    3    3    0    0  0.33739624745E+01 -0.32601857688E+01  0.34814838799E+01  0.58423594577E+01  0.00000000000E+00 0.  1.
</event>
<event>
 7    1  0.2430096E-009  0.4778727E+02  0.7816164E-02  0.1312668E+00
        -11   -1    0    0    0    0  0.00000000000E+00  0.00000000000E+00  0.45593999997E+02  0.45594000000E+02  0.51100000000E-03 0.  1.
         11   -1    0    0    0    0 -0.00000000000E+00 -0.00000000000E+00 -0.45593999997E+02  0.45594000000E+02  0.51100000000E-03 0. -1.
    9900012    2    1    2    0    0 -0.35347134354E+02  0.20067560236E+02 -0.15215011848E+02  0.47787268827E+02  0.19999989889E+02 0.  0.
        -12    1    1    2    0    0  0.35347134354E+02 -0.20067560236E+02  0.15215011848E+02  0.43400731173E+02  0.00000000000E+00 0.  1.
         11    1    3    3    0    0 -0.58439607874E+01  0.36791508871E+01 -0.10254640303E+01  0.69813756290E+01  0.51100000000E-03 0. -1.
        -11    1    3    3    0    0 -0.68398596749E+01  0.12927593972E+02 -0.93973013956E+01  0.17384350435E+02  0.51100000000E-03 0.  1.
        -12    1    3    3    0    0 -0.22663313891E+02  0.34608153770E+01 -0.47922464218E+01  0.23421542763E+02  0.00000000000E+00 0.  1.
</event>
<event>
 7    1  0.2430096E-009  0.4778727E+02  0.7816164E-02  0.1312668E+00
        -11   -1    0    0    0    0  0.00000000000E+00  0.00000000000E+00  0.45593999997E+02  0.45594000000E+02  0.51100000000E-03 0. -1.
         11   -1    0    0    0    0 -0.00000000000E+00 -0.00000000000E+00 -0.45593999997E+02  0.45594000000E+02  0.51100000000E-03 0.  1.
    9900012    2    1    2    0    0  0.38251226607E+02 -0.20380578982E+02  0.22581711922E+01  0.47787266438E+02  0.19999978998E+02 0.  0.
        -12    1    1    2    0    0 -0.38251226607E+02  0.20380578982E+02 -0.22581711922E+01  0.43400733562E+02  0.00000000000E+00 0.  1.
         11    1    3    3    0    0  0.12352991798E+02 -0.98251338057E+01  0.14444763551E+01  0.15849800404E+02  0.51100000000E-03 0. -1.
        -11    1    3    3    0    0  0.10989015661E+01 -0.63957194110E+01 -0.15769767084E+01  0.66782982291E+01  0.51100000000E-03 0.  1.
        -12    1    3    3    0    0  0.24799333243E+02 -0.41597257652E+01  0.23906715454E+01  0.25259167805E+02  0.00000000000E+00 0.  1.
</event>
<event>
 7    1  0.2430096E-009  0.4778727E+02  0.7816164E-02  0.1312668E+00
        -11   -1    0    0    0    0  0.00000000000E+00  0.00000000000E+00  0.45593999997E+02  0.45594000000E+02  0.51100000000E-03 0.  1.
         11   -1    0    0    0    0 -0.00000000000E+00 -0.00000000000E+00 -0.45593999997E+02  0.45594000000E+02  0.51100000000E-03 0. -1.
    9900012    2    1    2    0    0 -0.62288655434E+01  0.92677398263E+01 -0.41939640456E+02  0.47787271791E+02  0.20000003405E+02 0.  0.
        -12    1    1    2    0    0  0.62288655434E+01 -0.92677398263E+01  0.41939640456E+02  0.43400728209E+02  0.00000000000E+00 0.  1.
         11    1    3    3    0    0 -0.10510514467E+02  0.37822038172E+01 -0.20325417563E+02  0.23192640631E+02  0.51100000000E-03 0. -1.
        -11    1    3    3    0    0  0.64537985680E+00 -0.12592071427E+01  0.24076723751E+00  0.14353002862E+01  0.51100000000E-03 0.  1.
         12    1    3    3    0    0  0.36362690667E+01  0.67447431519E+01 -0.21854990131E+02  0.23159330874E+02  0.00000000000E+00 0. -1.
</event>
<event>
 7    1  0.2430096E-009  0.4778726E+02  0.7816164E-02  0.1312668E+00
        -11   -1    0    0    0    0  0.00000000000E+00  0.00000000000E+00  0.45593999997E+02  0.45594000000E+02  0.51100000000E-03 0.  1.
         11   -1    0    0    0    0 -0.00000000000E+00 -0.00000000000E+00 -0.45593999997E+02  0.45594000000E+02  0.51100000000E-03 0. -1.
    9900012    2    1    2    0    0 -0.73198099374E+01  0.31868839636E+02 -0.28538069547E+02  0.47787263017E+02  0.19999963398E+02 0.  0.
        -12    1    1    2    0    0  0.73198099374E+01 -0.31868839636E+02  0.28538069547E+02  0.43400736983E+02  0.00000000000E+00 0.  1.
         11    1    3    3    0    0 -0.78032415493E+01  0.15793584773E+02 -0.57457360447E+01  0.18529473322E+02  0.51100000000E-03 0. -1.
        -11    1    3    3    0    0  0.11014135952E+00  0.49124019146E+01 -0.14604657710E+02  0.15409083385E+02  0.51100000000E-03 0.  1.
         12    1    3    3    0    0  0.37329025232E+00  0.11162852948E+02 -0.81876757920E+01  0.13848706309E+02  0.00000000000E+00 0. -1.
</event>
<event>
 7    1  0.2430096E-009  0.4778727E+02  0.7816164E-02  0.1312668E+00
        -11   -1    0    0    0    0  0.00000000000E+00  0.00000000000E+00  0.45593999997E+02  0.45594000000E+02  0.51100000000E-03 0.  1.
         11   -1    0    0    0    0 -0.00000000000E+00 -0.00000000000E+00 -0.45593999997E+02  0.45594000000E+02  0.51100000000E-03 0. -1.
    9900012    2    1    2    0    0 -0.36121761078E+01 -0.23666190299E+02 -0.36200645979E+02  0.47787272485E+02  0.20000006569E+02 0.  0.
        -12    1    1    2    0    0  0.36121761078E+01  0.23666190299E+02  0.36200645979E+02  0.43400727515E+02  0.00000000000E+00 0.  1.
         11    1    3    3    0    0 -0.54850431484E+01 -0.15601260152E+02 -0.27305274939E+02  0.31922767054E+02  0.51100000000E-03 0. -1.
        -11    1    3    3    0    0  0.35392837138E+01 -0.18267618479E+01  0.94628777100E+00  0.40937817311E+01  0.51100000000E-03 0.  1.
        -12    1    3    3    0    0 -0.16664166732E+01 -0.62381682992E+01 -0.98416588111E+01  0.11770723700E+02  0.00000000000E+00 0.  1.
</event>
<event>
 7    1  0.2430096E-009  0.4778727E+02  0.7816164E-02  0.1312668E+00
        -11   -1    0    0    0    0  0.00000000000E+00  0.00000000000E+00  0.45593999997E+02  0.45594000000E+02  0.51100000000E-03 0.  1.
         11   -1    0    0    0    0 -0.00000000000E+00 -0.00000000000E+00 -0.45593999997E+02  0.45594000000E+02  0.51100000000E-03 0. -1.
    9900012    2    1    2    0    0  0.59153988464E+01 -0.17497757629E+02 -0.39274166292E+02  0.47787267247E+02  0.19999982687E+02 0.  0.
        -12    1    1    2    0    0 -0.59153988464E+01  0.17497757629E+02  0.39274166292E+02  0.43400732753E+02  0.00000000000E+00 0.  1.
         11    1    3    3    0    0  0.50830444494E+01  0.73284563783E+00 -0.98952193187E+01  0.11148532156E+02  0.51100000000E-03 0. -1.
        -11    1    3    3    0    0 -0.47493570279E+01 -0.10796747589E+02 -0.11426851129E+02  0.16422517397E+02  0.51100000000E-03 0.  1.
        -12    1    3    3    0    0  0.55817114249E+01 -0.74338556785E+01 -0.17952095844E+02  0.20216217694E+02  0.00000000000E+00 0.  1.
</event>
<event>
 7    1  0.2430096E-009  0.4778728E+02  0.7816164E-02  0.1312668E+00
        -11   -1    0    0    0    0  0.00000000000E+00  0.00000000000E+00  0.45593999997E+02  0.45594000000E+02  0.51100000000E-03 0.  1.
         11   -1    0    0    0    0 -0.00000000000E+00 -0.00000000000E+00 -0.45593999997E+02  0.45594000000E+02  0.51100000000E-03 0. -1.
    9900012    2    1    2    0    0 -0.14528463772E+02  0.15699839200E+02 -0.37763221837E+02  0.47787284176E+02  0.20000059874E+02 0.  0.
        -12    1    1    2    0    0  0.14528463772E+02 -0.15699839200E+02  0.37763221837E+02  0.43400715824E+02  0.00000000000E+00 0.  1.
         11    1    3    3    0    0 -0.59923105481E+01  0.14045280827E+01 -0.19563341726E+02  0.20508652432E+02  0.51100000000E-03 0. -1.
        -11    1    3    3    0    0 -0.47263119657E+00  0.11884560639E+02 -0.10245556032E+02  0.15698330500E+02  0.51100000000E-03 0.  1.
        -12    1    3    3    0    0 -0.80635220269E+01  0.24107504787E+01 -0.79543240791E+01  0.11580301244E+02  0.00000000000E+00 0.  1.
</event>
<event>
 7    1  0.2430096E-009  0.4778726E+02  0.7816164E-02  0.1312668E+00
        -11   -1    0    0    0    0  0.00000000000E+00  0.00000000000E+00  0.45593999997E+02  0.45594000000E+02  0.51100000000E-03 0.  1.
         11   -1    0    0    0    0 -0.00000000000E+00 -0.00000000000E+00 -0.45593999997E+02  0.45594000000E+02  0.51100000000E-03 0. -1.
    9900012    2    1    2    0    0  0.20040188648E+02  0.89222853219E+01 -0.37448739529E+02  0.47787257740E+02  0.19999939338E+02 0.  0.
        -12    1    1    2    0    0 -0.20040188648E+02 -0.89222853219E+01  0.37448739529E+02  0.43400742260E+02  0.00000000000E+00 0.  1.
         11    1    3    3    0    0  0.21684046010E+02  0.10349847046E+02 -0.23888598094E+02  0.33881887557E+02  0.51100000000E-03 0. -1.
        -11    1    3    3    0    0 -0.10546031116E-01 -0.81057816878E+00 -0.87623344375E+01  0.87997530217E+01  0.51100000000E-03 0.  1.
         12    1    3    3    0    0 -0.16333113307E+01 -0.61698355567E+00 -0.47978069979E+01  0.51056171616E+01  0.00000000000E+00 0. -1.
</event>
<event>
 7    1  0.2430096E-009  0.4778728E+02  0.7816164E-02  0.1312668E+00
        -11   -1    0    0    0    0  0.00000000000E+00  0.00000000000E+00  0.45593999997E+02  0.45594000000E+02  0.51100000000E-03 0.  1.
         11   -1    0    0    0    0 -0.00000000000E+00 -0.00000000000E+00 -0.45593999997E+02  0.45594000000E+02  0.51100000000E-03 0. -1.
    9900012    2    1    2    0    0  0.25501941047E+01  0.29267784680E+02 -0.31945508740E+02  0.47787282970E+02  0.20000054373E+02 0.  0.
        -12    1    1    2    0    0 -0.25501941047E+01 -0.29267784680E+02  0.31945508740E+02  0.43400717030E+02  0.00000000000E+00 0.  1.
         11    1    3    3    0    0 -0.92402564004E+00  0.24048536918E+02 -0.17541628086E+02  0.29780776811E+02  0.51100000000E-03 0. -1.
        -11    1    3    3    0    0  0.59588449849E+01  0.18545204890E+01 -0.10855126219E+02  0.12521215807E+02  0.51100000000E-03 0.  1.
         12    1    3    3    0    0 -0.24846252402E+01  0.33647272727E+01 -0.35487544349E+01  0.54852903517E+01  0.00000000000E+00 0. -1.
</event>
<event>
 7    1  0.2430096E-009  0.4778726E+02  0.7816164E-02  0.1312668E+00
        -11   -1    0    0    0    0  0.00000000000E+00  0.00000000000E+00  0.45593999997E+02  0.45594000000E+02  0.51100000000E-03 0. -1.
         11   -1    0    0    0    0 -0.00000000000E+00 -0.00000000000E+00 -0.45593999997E+02  0.45594000000E+02  0.51100000000E-03 0.  1.
    9900012    2    1    2    0    0 -0.52760388468E+01  0.11271419637E+02  0.41578148960E+02  0.47787263169E+02  0.19999964091E+02 0.  0.
        -12    1    1    2    0    0  0.52760388468E+01 -0.11271419637E+02 -0.41578148960E+02  0.43400736831E+02  0.00000000000E+00 0.  1.
         11    1    3    3    0    0  0.44310195119E+01  0.60402989689E+01  0.46943854349E+01  0.88406108624E+01  0.51100000000E-03 0.  1.
        -11    1    3    3    0    0 -0.58046876647E+01 -0.78207241483E-01  0.19900405294E+02  0.20729849165E+02  0.51100000000E-03 0. -1.
        -12    1    3    3    0    0 -0.39023706940E+01  0.53093279099E+01  0.16983358231E+02  0.18216803141E+02  0.00000000000E+00 0.  1.
</event>
<event>
 7    1  0.2430096E-009  0.4778727E+02  0.7816164E-02  0.1312668E+00
        -11   -1    0    0    0    0  0.00000000000E+00  0.00000000000E+00  0.45593999997E+02  0.45594000000E+02  0.51100000000E-03 0.  1.
         11   -1    0    0    0    0 -0.00000000000E+00 -0.00000000000E+00 -0.45593999997E+02  0.45594000000E+02  0.51100000000E-03 0. -1.
    9900012    2    1    2    0    0  0.89441899073E+01 -0.15856755971E+02 -0.39397816502E+02  0.47787272032E+02  0.20000004503E+02 0.  0.
        -12    1    1    2    0    0 -0.89441899073E+01  0.15856755971E+02  0.39397816502E+02  0.43400727968E+02  0.00000000000E+00 0.  1.
         11    1    3    3    0    0 -0.29134918559E+01 -0.58022903506E+00  0.35991003708E+00  0.29924297859E+01  0.51100000000E-03 0. -1.
        -11    1    3    3    0    0  0.22036722296E+01 -0.29640932809E-01 -0.76726365048E+01  0.79828817526E+01  0.51100000000E-03 0.  1.
         12    1    3    3    0    0  0.96540095336E+01 -0.15246886003E+02 -0.32085090034E+02  0.36811960494E+02  0.00000000000E+00 0. -1.
</event>
<event>
 7    1  0.2430096E-009  0.4778721E+02  0.7816164E-02  0.1312668E+00
        -11   -1    0    0    0    0  0.00000000000E+00  0.00000000000E+00  0.45593999997E+02  0.45594000000E+02  0.51100000000E-03 0. -1.
         11   -1    0    0    0    0 -0.00000000000E+00 -0.00000000000E+00 -0.45593999997E+02  0.45594000000E+02  0.51100000000E-03 0.  1.
    9900012    2    1    2    0    0 -0.10149496745E+02 -0.39875113000E+02  0.13805490076E+02  0.47787211099E+02  0.19999726683E+02 0.  0.
        -12    1    1    2    0    0  0.10149496745E+02  0.39875113000E+02 -0.13805490076E+02  0.43400788901E+02  0.00000000000E+00 0.  1.
         11    1    3    3    0    0 -0.93923511646E+01 -0.84942469057E+01  0.72946193194E+01  0.14614375189E+02  0.51100000000E-03 0. -1.
        -11    1    3    3    0    0  0.19663538594E+01 -0.73240766234E+01  0.46396577480E+01  0.88901670494E+01  0.51100000000E-03 0.  1.
         12    1    3    3    0    0 -0.27234994400E+01 -0.24056789471E+02  0.18712130086E+01  0.24282668861E+02  0.00000000000E+00 0. -1.
</event>
<event>
 7    1  0.2430096E-009  0.4778726E+02  0.7816164E-02  0.1312668E+00
        -11   -1    0    0    0    0  0.00000000000E+00  0.00000000000E+00  0.45593999997E+02  0.45594000000E+02  0.51100000000E-03 0. -1.
         11   -1    0    0    0    0 -0.00000000000E+00 -0.00000000000E+00 -0.45593999997E+02  0.45594000000E+02  0.51100000000E-03 0.  1.
    9900012    2    1    2    0    0 -0.41347625348E+02 -0.11980456712E+02  0.55196497813E+01  0.47787262695E+02  0.19999961932E+02 0.  0.
        -12    1    1    2    0    0  0.41347625348E+02  0.11980456712E+02 -0.55196497813E+01  0.43400737305E+02  0.00000000000E+00 0.  1.
         11    1    3    3    0    0 -0.33107236093E+01  0.85797562650E+00  0.59693394352E+01  0.68796821544E+01  0.51100000000E-03 0.  1.
        -11    1    3    3    0    0 -0.25407600365E+02 -0.50416245687E+01 -0.20252988208E+01  0.25982031679E+02  0.51100000000E-03 0. -1.
        -12    1    3    3    0    0 -0.12629301373E+02 -0.77968077695E+01  0.15756091670E+01  0.14925548861E+02  0.00000000000E+00 0.  1.
</event>
<event>
 7    1  0.2430096E-009  0.4778727E+02  0.7816164E-02  0.1312668E+00
        -11   -1    0    0    0    0  0.00000000000E+00  0.00000000000E+00  0.45593999997E+02  0.45594000000E+02  0.51100000000E-03 0. -1.
         11   -1    0    0    0    0 -0.00000000000E+00 -0.00000000000E+00 -0.45593999997E+02  0.45594000000E+02  0.51100000000E-03 0.  1.
    9900012    2    1    2    0    0 -0.37495862402E+01 -0.39721028391E+02 -0.17082265644E+02  0.47787270825E+02  0.19999998999E+02 0.  0.
        -12    1    1    2    0    0  0.37495862402E+01  0.39721028391E+02  0.17082265644E+02  0.43400729175E+02  0.00000000000E+00 0.  1.
         11    1    3    3    0    0  0.39529471458E+01 -0.10715045285E+02  0.76086213341E-01  0.11421198535E+02  0.51100000000E-03 0. -1.
        -11    1    3    3    0    0 -0.77981445436E+01 -0.14059600232E+02 -0.13461680523E+02  0.20969030969E+02  0.51100000000E-03 0.  1.
         12    1    3    3    0    0  0.95611157581E-01 -0.14946382874E+02 -0.36966713341E+01  0.15397041321E+02  0.00000000000E+00 0. -1.
</event>
<event>
 7    1  0.2430096E-009  0.4778727E+02  0.7816164E-02  0.1312668E+00
        -11   -1    0    0    0    0  0.00000000000E+00  0.00000000000E+00  0.45593999997E+02  0.45594000000E+02  0.51100000000E-03 0. -1.
         11   -1    0    0    0    0 -0.00000000000E+00 -0.00000000000E+00 -0.45593999997E+02  0.45594000000E+02  0.51100000000E-03 0.  1.
    9900012    2    1    2    0    0 -0.16173033190E+02 -0.20305707144E+02  0.34781243170E+02  0.47787267038E+02  0.19999981735E+02 0.  0.
        -12    1    1    2    0    0  0.16173033190E+02  0.20305707144E+02 -0.34781243170E+02  0.43400732962E+02  0.00000000000E+00 0.  1.
         11    1    3    3    0    0  0.25586410841E+01 -0.39713069076E+01  0.16777924198E+01  0.50132734233E+01  0.51100000000E-03 0. -1.
        -11    1    3    3    0    0 -0.31728800187E+01 -0.40080678643E+01  0.12839130182E+01  0.52706933621E+01  0.51100000000E-03 0.  1.
         12    1    3    3    0    0 -0.15558794255E+02 -0.12326332372E+02  0.31819537732E+02  0.37503300253E+02  0.00000000000E+00 0. -1.
</event>
<event>
 7    1  0.2430096E-009  0.4778727E+02  0.7816164E-02  0.1312668E+00
        -11   -1    0    0    0    0  0.00000000000E+00  0.00000000000E+00  0.45593999997E+02  0.45594000000E+02  0.51100000000E-03 0.  1.
         11   -1    0    0    0    0 -0.00000000000E+00 -0.00000000000E+00 -0.45593999997E+02  0.45594000000E+02  0.51100000000E-03 0. -1.
    9900012    2    1    2    0    0  0.12785522640E+01 -0.43298661180E+02  0.26859508771E+01  0.47787273186E+02  0.20000009763E+02 0.  0.
        -12    1    1    2    0    0 -0.12785522640E+01  0.43298661180E+02 -0.26859508771E+01  0.43400726814E+02  0.00000000000E+00 0.  1.
         11    1    3    3    0    0  0.12575367856E+01 -0.42885304850E+02  0.36096039579E+01  0.43055313398E+02  0.51100000000E-03 0. -1.
        -11    1    3    3    0    0 -0.24921831073E+00 -0.23936347449E+01 -0.12419474320E+01  0.27081415663E+01  0.51100000000E-03 0.  1.
         12    1    3    3    0    0  0.27023378904E+00  0.19802784143E+01  0.31829435115E+00  0.20238182213E+01  0.00000000000E+00 0. -1.
</event>
<event>
 7    1  0.2430096E-009  0.4778728E+02  0.7816164E-02  0.1312668E+00
        -11   -1    0    0    0    0  0.00000000000E+00  0.00000000000E+00  0.45593999997E+02  0.45594000000E+02  0.51100000000E-03 0. -1.
         11   -1    0    0    0    0 -0.00000000000E+00 -0.00000000000E+00 -0.45593999997E+02  0.45594000000E+02  0.51100000000E-03 0.  1.
    9900012    2    1    2    0    0 -0.17571977015E+02 -0.15982535541E+02  0.36323641885E+02  0.47787276753E+02  0.20000026028E+02 0.  0.
        -12    1    1    2    0    0  0.17571977015E+02  0.15982535541E+02 -0.36323641885E+02  0.43400723247E+02  0.00000000000E+00 0.  1.
         11    1    3    3    0    0 -0.69622564440E+01 -0.12934851020E+01  0.20298731363E+02  0.21498479335E+02  0.51100000000E-03 0. -1.
        -11    1    3    3    0    0 -0.22924219448E+01  0.14222555101E+01  0.17992206332E+01  0.32427155683E+01  0.51100000000E-03 0.  1.
         12    1    3    3    0    0 -0.83172986265E+01 -0.16111305949E+02  0.14225689889E+02  0.23046081850E+02  0.00000000000E+00 0. -1.
</event>
<event>
 7    1  0.2430096E-009  0.4778728E+02  0.7816164E-02  0.1312668E+00
        -11   -1    0    0    0    0  0.00000000000E+00  0.00000000000E+00  0.45593999997E+02  0.45594000000E+02  0.51100000000E-03 0.  1.
         11   -1    0    0    0    0 -0.00000000000E+00 -0.00000000000E+00 -0.45593999997E+02  0.45594000000E+02  0.51100000000E-03 0. -1.
    9900012    2    1    2    0    0  0.24150336886E+02  0.31925422879E+02 -0.16767570347E+02  0.47787276354E+02  0.20000024207E+02 0.  0.
        -12    1    1    2    0    0 -0.24150336886E+02 -0.31925422879E+02  0.16767570347E+02  0.43400723646E+02  0.00000000000E+00 0.  1.
         11    1    3    3    0    0 -0.30525295379E+01  0.51597043184E+01 -0.12774513674E+01  0.61296302899E+01  0.51100000000E-03 0. -1.
        -11    1    3    3    0    0  0.20471757705E+02  0.20387378857E+02 -0.14516090640E+02  0.32333496067E+02  0.51100000000E-03 0.  1.
         12    1    3    3    0    0  0.67311087183E+01  0.63783397035E+01 -0.97402833970E+00  0.93241499965E+01  0.00000000000E+00 0. -1.
</event>
<event>
 7    1  0.2430096E-009  0.4778729E+02  0.7816164E-02  0.1312668E+00
        -11   -1    0    0    0    0  0.00000000000E+00  0.00000000000E+00  0.45593999997E+02  0.45594000000E+02  0.51100000000E-03 0.  1.
         11   -1    0    0    0    0 -0.00000000000E+00 -0.00000000000E+00 -0.45593999997E+02  0.45594000000E+02  0.51100000000E-03 0. -1.
    9900012    2    1    2    0    0  0.36857022415E+02  0.20708814151E+02 -0.98146193642E+01  0.47787287585E+02  0.20000075417E+02 0.  0.
        -12    1    1    2    0    0 -0.36857022415E+02 -0.20708814151E+02  0.98146193642E+01  0.43400712415E+02  0.00000000000E+00 0.  1.
         11    1    3    3    0    0  0.14979936043E+02  0.61967713428E+01 -0.18738279449E+01  0.16318997836E+02  0.51100000000E-03 0. -1.
        -11    1    3    3    0    0  0.18676118447E+02  0.11893420592E+02 -0.12407487469E+02  0.25381028332E+02  0.51100000000E-03 0.  1.
        -12    1    3    3    0    0  0.32009679239E+01  0.26186222167E+01  0.44666960498E+01  0.60872614175E+01  0.00000000000E+00 0.  1.
</event>
<event>
 7    1  0.2430096E-009  0.4778727E+02  0.7816164E-02  0.1312668E+00
        -11   -1    0    0    0    0  0.00000000000E+00  0.00000000000E+00  0.45593999997E+02  0.45594000000E+02  0.51100000000E-03 0.  1.
         11   -1    0    0    0    0 -0.00000000000E+00 -0.00000000000E+00 -0.45593999997E+02  0.45594000000E+02  0.51100000000E-03 0. -1.
    9900012    2    1    2    0    0  0.77037971657E+01 -0.45645954937E+01 -0.42466919487E+02  0.47787271049E+02  0.20000000021E+02 0.  0.
        -12    1    1    2    0    0 -0.77037971657E+01  0.45645954937E+01  0.42466919487E+02  0.43400728951E+02  0.00000000000E+00 0.  1.
         11    1    3    3    0    0  0.66003975309E+01 -0.53501711662E+01 -0.31103030555E+02  0.32242643952E+02  0.51100000000E-03 0. -1.
        -11    1    3    3    0    0 -0.25655704593E+01  0.34402016037E+01 -0.12606174552E+01  0.44728397563E+01  0.51100000000E-03 0.  1.
        -12    1    3    3    0    0  0.36689700941E+01 -0.26546259312E+01 -0.10103271477E+02  0.11071787341E+02  0.00000000000E+00 0.  1.
</event>
<event>
 7    1  0.2430096E-009  0.4778727E+02  0.7816164E-02  0.1312668E+00
        -11   -1    0    0    0    0  0.00000000000E+00  0.00000000000E+00  0.45593999997E+02  0.45594000000E+02  0.51100000000E-03 0. -1.
         11   -1    0    0    0    0 -0.00000000000E+00 -0.00000000000E+00 -0.45593999997E+02  0.45594000000E+02  0.51100000000E-03 0.  1.
    9900012    2    1    2    0    0  0.37493483316E+02 -0.18685105486E+02  0.11345875469E+02  0.47787270187E+02  0.19999996088E+02 0.  0.
        -12    1    1    2    0    0 -0.37493483316E+02  0.18685105486E+02 -0.11345875469E+02  0.43400729813E+02  0.00000000000E+00 0.  1.
         11    1    3    3    0    0  0.27212607261E+02 -0.66700979693E+01  0.49656679150E+01  0.28454772165E+02  0.51100000000E-03 0. -1.
        -11    1    3    3    0    0  0.52777581123E+01 -0.42619613355E+01  0.74120944904E+01  0.10047795286E+02  0.51100000000E-03 0.  1.
         12    1    3    3    0    0  0.50031179426E+01 -0.77530461814E+01 -0.10318869358E+01  0.92847027355E+01  0.00000000000E+00 0. -1.
</event>
<event>
 7    1  0.2430096E-009  0.4778727E+02  0.7816164E-02  0.1312668E+00
        -11   -1    0    0    0    0  0.00000000000E+00  0.00000000000E+00  0.45593999997E+02  0.45594000000E+02  0.51100000000E-03 0. -1.
         11   -1    0    0    0    0 -0.00000000000E+00 -0.00000000000E+00 -0.45593999997E+02  0.45594000000E+02  0.51100000000E-03 0.  1.
    9900012    2    1    2    0    0 -0.12729499783E+02 -0.31111696700E+02 -0.27452604798E+02  0.47787270208E+02  0.19999996185E+02 0.  0.
        -12    1    1    2    0    0  0.12729499783E+02  0.31111696700E+02  0.27452604798E+02  0.43400729792E+02  0.00000000000E+00 0.  1.
         11    1    3    3    0    0 -0.43045599675E+01 -0.25609350545E+01 -0.22787204076E+01  0.55027440268E+01  0.51100000000E-03 0. -1.
        -11    1    3    3    0    0 -0.29961288889E+01 -0.10767004263E+02 -0.23708739207E+00  0.11178612607E+02  0.51100000000E-03 0.  1.
        -12    1    3    3    0    0 -0.54288109265E+01 -0.17783757382E+02 -0.24936796998E+02  0.31105913574E+02  0.00000000000E+00 0.  1.
</event>
<event>
 7    1  0.2430096E-009  0.4778727E+02  0.7816164E-02  0.1312668E+00
        -11   -1    0    0    0    0  0.00000000000E+00  0.00000000000E+00  0.45593999997E+02  0.45594000000E+02  0.51100000000E-03 0.  1.
         11   -1    0    0    0    0 -0.00000000000E+00 -0.00000000000E+00 -0.45593999997E+02  0.45594000000E+02  0.51100000000E-03 0. -1.
    9900012    2    1    2    0    0  0.76158508261E+01 -0.41295636107E+02 -0.10967788541E+02  0.47787272693E+02  0.20000007518E+02 0.  0.
        -12    1    1    2    0    0 -0.76158508261E+01  0.41295636107E+02  0.10967788541E+02  0.43400727307E+02  0.00000000000E+00 0.  1.
         11    1    3    3    0    0  0.10620757124E+02 -0.37351066093E+02 -0.14019075328E+02  0.41284828854E+02  0.51100000000E-03 0. -1.
        -11    1    3    3    0    0 -0.90006986002E+00 -0.21760915661E+00  0.18306756696E+01  0.20515489675E+01  0.51100000000E-03 0.  1.
         12    1    3    3    0    0 -0.21048364376E+01 -0.37269608574E+01  0.12206111179E+01  0.44508948722E+01  0.00000000000E+00 0. -1.
</event>
<event>
 7    1  0.2430096E-009  0.4778727E+02  0.7816164E-02  0.1312668E+00
        -11   -1    0    0    0    0  0.00000000000E+00  0.00000000000E+00  0.45593999997E+02  0.45594000000E+02  0.51100000000E-03 0. -1.
         11   -1    0    0    0    0 -0.00000000000E+00 -0.00000000000E+00 -0.45593999997E+02  0.45594000000E+02  0.51100000000E-03 0.  1.
    9900012    2    1    2    0    0 -0.36183795954E+02  0.88807004879E+01  0.22259584516E+02  0.47787273813E+02  0.20000012622E+02 0.  0.
        -12    1    1    2    0    0  0.36183795954E+02 -0.88807004879E+01 -0.22259584516E+02  0.43400726187E+02  0.00000000000E+00 0.  1.
         11    1    3    3    0    0 -0.68946794531E+01  0.49741564774E+01  0.14282345078E+02  0.16621197869E+02  0.51100000000E-03 0. -1.
        -11    1    3    3    0    0 -0.16504941611E+02 -0.40193057058E+00  0.29625189498E+01  0.16773525704E+02  0.51100000000E-03 0.  1.
         12    1    3    3    0    0 -0.12784174890E+02  0.43084745811E+01  0.50147204882E+01  0.14392550240E+02  0.00000000000E+00 0. -1.
</event>
<event>
 7    1  0.2430096E-009  0.4778727E+02  0.7816164E-02  0.1312668E+00
        -11   -1    0    0    0    0  0.00000000000E+00  0.00000000000E+00  0.45593999997E+02  0.45594000000E+02  0.51100000000E-03 0.  1.
         11   -1    0    0    0    0 -0.00000000000E+00 -0.00000000000E+00 -0.45593999997E+02  0.45594000000E+02  0.51100000000E-03 0. -1.
    9900012    2    1    2    0    0  0.20564052703E+01 -0.18062282759E+02 -0.39410003556E+02  0.47787271419E+02  0.20000001708E+02 0.  0.
        -12    1    1    2    0    0 -0.20564052703E+01  0.18062282759E+02  0.39410003556E+02  0.43400728581E+02  0.00000000000E+00 0.  1.
         11    1    3    3    0    0  0.41820802368E+01  0.22864619478E+01 -0.81053859138E+01  0.94029242483E+01  0.51100000000E-03 0. -1.
        -11    1    3    3    0    0 -0.26412140648E+00 -0.19719808324E+02 -0.25375302313E+02  0.32137930365E+02  0.51100000000E-03 0.  1.
         12    1    3    3    0    0 -0.18615535599E+01 -0.62893638254E+00 -0.59293153293E+01  0.62464168052E+01  0.00000000000E+00 0. -1.
</event>
<event>
 7    1  0.2430096E-009  0.4778727E+02  0.7816164E-02  0.1312668E+00
        -11   -1    0    0    0    0  0.00000000000E+00  0.00000000000E+00  0.45593999997E+02  0.45594000000E+02  0.51100000000E-03 0.  1.
         11   -1    0    0    0    0 -0.00000000000E+00 -0.00000000000E+00 -0.45593999997E+02  0.45594000000E+02  0.51100000000E-03 0. -1.
    9900012    2    1    2    0    0 -0.90560019042E+01  0.10636779554E+02 -0.41091007888E+02  0.47787272137E+02  0.20000004982E+02 0.  0.
        -12    1    1    2    0    0  0.90560019042E+01 -0.10636779554E+02  0.41091007888E+02  0.43400727863E+02  0.00000000000E+00 0.  1.
         11    1    3    3    0    0 -0.10375363885E+02  0.47206811127E+01 -0.35187959623E+02  0.36988180661E+02  0.51100000000E-03 0. -1.
        -11    1    3    3    0    0  0.33257427929E+01  0.15840134665E+01 -0.45153392707E+01  0.58273452598E+01  0.51100000000E-03 0.  1.
         12    1    3    3    0    0 -0.20063808118E+01  0.43320849744E+01 -0.13877089947E+01  0.49717462165E+01  0.00000000000E+00 0. -1.
</event>
<event>
 7    1  0.2430096E-009  0.4778726E+02  0.7816164E-02  0.1312668E+00
        -11   -1    0    0    0    0  0.00000000000E+00  0.00000000000E+00  0.45593999997E+02  0.45594000000E+02  0.51100000000E-03 0.  1.
         11   -1    0    0    0    0 -0.00000000000E+00 -0.00000000000E+00 -0.45593999997E+02  0.45594000000E+02  0.51100000000E-03 0. -1.
    9900012    2    1    2    0    0  0.38539339644E+02 -0.15200966097E+02 -0.12933444429E+02  0.47787262042E+02  0.19999958954E+02 0.  0.
        -12    1    1    2    0    0 -0.38539339644E+02  0.15200966097E+02  0.12933444429E+02  0.43400737958E+02  0.00000000000E+00 0.  1.
         11    1    3    3    0    0  0.20763130395E+02 -0.65264292801E+01 -0.11082751624E+02  0.24423948222E+02  0.51100000000E-03 0. -1.
        -11    1    3    3    0    0 -0.89210506110E+00 -0.25865982170E+00  0.22900406048E+01  0.24712431237E+01  0.51100000000E-03 0.  1.
         12    1    3    3    0    0  0.18668314311E+02 -0.84158769957E+01 -0.41407334098E+01  0.20892070696E+02  0.00000000000E+00 0. -1.
</event>
<event>
 7    1  0.2430096E-009  0.4778729E+02  0.7816164E-02  0.1312668E+00
        -11   -1    0    0    0    0  0.00000000000E+00  0.00000000000E+00  0.45593999997E+02  0.45594000000E+02  0.51100000000E-03 0.  1.
         11   -1    0    0    0    0 -0.00000000000E+00 -0.00000000000E+00 -0.45593999997E+02  0.45594000000E+02  0.51100000000E-03 0. -1.
    9900012    2    1    2    0    0  0.38065373825E+02 -0.67783229578E+01 -0.19715563359E+02  0.47787288196E+02  0.20000078200E+02 0.  0.
        -12    1    1    2    0    0 -0.38065373825E+02  0.67783229578E+01  0.19715563359E+02  0.43400711804E+02  0.00000000000E+00 0.  1.
         11    1    3    3    0    0  0.15666564344E+02  0.13686609333E+01 -0.13342737755E+02  0.20623848384E+02  0.51100000000E-03 0. -1.
        -11    1    3    3    0    0  0.18121677055E+02 -0.51790059402E+01  0.11188095631E+00  0.18847540938E+02  0.51100000000E-03 0.  1.
         12    1    3    3    0    0  0.42771324255E+01 -0.29679779509E+01 -0.64847065604E+01  0.83158988737E+01  0.00000000000E+00 0. -1.
</event>
<event>
 7    1  0.2430096E-009  0.4778727E+02  0.7816164E-02  0.1312668E+00
        -11   -1    0    0    0    0  0.00000000000E+00  0.00000000000E+00  0.45593999997E+02  0.45594000000E+02  0.51100000000E-03 0.  1.
         11   -1    0    0    0    0 -0.00000000000E+00 -0.00000000000E+00 -0.45593999997E+02  0.45594000000E+02  0.51100000000E-03 0. -1.
    9900012    2    1    2    0    0 -0.12779069822E+02 -0.40858983138E+02 -0.71317674423E+01  0.47787271487E+02  0.20000002019E+02 0.  0.
        -12    1    1    2    0    0  0.12779069822E+02  0.40858983138E+02  0.71317674423E+01  0.43400728513E+02  0.00000000000E+00 0.  1.
         11    1    3    3    0    0  0.16748797094E+01 -0.15381627871E+01  0.24216597453E+01  0.33219878061E+01  0.51100000000E-03 0.  1.
        -11    1    3    3    0    0  0.15722956895E+01 -0.67819692921E+01 -0.31145196560E+01  0.76267590865E+01  0.51100000000E-03 0. -1.
         12    1    3    3    0    0 -0.16026245221E+02 -0.32538851059E+02 -0.64389075316E+01  0.36838524595E+02  0.00000000000E+00 0. -1.
</event>
<event>
 7    1  0.2430096E-009  0.4778727E+02  0.7816164E-02  0.1312668E+00
        -11   -1    0    0    0    0  0.00000000000E+00  0.00000000000E+00  0.45593999997E+02  0.45594000000E+02  0.51100000000E-03 0.  1.
         11   -1    0    0    0    0 -0.00000000000E+00 -0.00000000000E+00 -0.45593999997E+02  0.45594000000E+02  0.51100000000E-03 0. -1.
    9900012    2    1    2    0    0 -0.14426425436E+01  0.75282342454E+01 -0.42718472506E+02  0.47787269343E+02  0.19999992240E+02 0.  0.
        -12    1    1    2    0    0  0.14426425436E+01 -0.75282342454E+01  0.42718472506E+02  0.43400730657E+02  0.00000000000E+00 0.  1.
         11    1    3    3    0    0 -0.23712351376E+01 -0.34541921818E+01 -0.16314572177E+01  0.44962042459E+01  0.51100000000E-03 0.  1.
        -11    1    3    3    0    0 -0.19501313214E+00  0.90221295162E+01 -0.18420713300E+02  0.20512423793E+02  0.51100000000E-03 0. -1.
         12    1    3    3    0    0  0.11236057262E+01  0.19602969110E+01 -0.22666301988E+02  0.22778641303E+02  0.00000000000E+00 0. -1.
</event>
<event>
 7    1  0.2430096E-009  0.4778727E+02  0.7816164E-02  0.1312668E+00
        -11   -1    0    0    0    0  0.00000000000E+00  0.00000000000E+00  0.45593999997E+02  0.45594000000E+02  0.51100000000E-03 0.  1.
         11   -1    0    0    0    0 -0.00000000000E+00 -0.00000000000E+00 -0.45593999997E+02  0.45594000000E+02  0.51100000000E-03 0. -1.
    9900012    2    1    2    0    0  0.11322247393E+02 -0.41064950512E+02 -0.83126496989E+01  0.47787267384E+02  0.19999983313E+02 0.  0.
        -12    1    1    2    0    0 -0.11322247393E+02  0.41064950512E+02  0.83126496989E+01  0.43400732616E+02  0.00000000000E+00 0.  1.
         11    1    3    3    0    0  0.27623443859E+01 -0.28307927505E+02 -0.12106469136E+02  0.30911743744E+02  0.51100000000E-03 0. -1.
        -11    1    3    3    0    0  0.61288781231E+01 -0.39762201643E+01  0.21668844247E+01  0.76202927906E+01  0.51100000000E-03 0.  1.
        -12    1    3    3    0    0  0.24310248840E+01 -0.87808028427E+01  0.16269350121E+01  0.92552308498E+01  0.00000000000E+00 0.  1.
</event>
<event>
 7    1  0.2430096E-009  0.4778728E+02  0.7816164E-02  0.1312668E+00
        -11   -1    0    0    0    0  0.00000000000E+00  0.00000000000E+00  0.45593999997E+02  0.45594000000E+02  0.51100000000E-03 0.  1.
         11   -1    0    0    0    0 -0.00000000000E+00 -0.00000000000E+00 -0.45593999997E+02  0.45594000000E+02  0.51100000000E-03 0. -1.
    9900012    2    1    2    0    0  0.46770662045E+01 -0.17544813376E+02 -0.39419886342E+02  0.47787275768E+02  0.20000021537E+02 0.  0.
        -12    1    1    2    0    0 -0.46770662045E+01  0.17544813376E+02  0.39419886342E+02  0.43400724232E+02  0.00000000000E+00 0.  1.
         11    1    3    3    0    0 -0.65629622594E+01 -0.84434577764E+01 -0.95286994000E+01  0.14323427151E+02  0.51100000000E-03 0. -1.
        -11    1    3    3    0    0  0.11279736790E+02 -0.90740541018E+01 -0.27547786633E+02  0.31119952901E+02  0.51100000000E-03 0.  1.
        -12    1    3    3    0    0 -0.39708325602E-01 -0.27301497369E-01 -0.23434003084E+01  0.23438957162E+01  0.00000000000E+00 0.  1.
</event>
<event>
 7    1  0.2430096E-009  0.4778727E+02  0.7816164E-02  0.1312668E+00
        -11   -1    0    0    0    0  0.00000000000E+00  0.00000000000E+00  0.45593999997E+02  0.45594000000E+02  0.51100000000E-03 0. -1.
         11   -1    0    0    0    0 -0.00000000000E+00 -0.00000000000E+00 -0.45593999997E+02  0.45594000000E+02  0.51100000000E-03 0.  1.
    9900012    2    1    2    0    0 -0.25740750231E+02 -0.24890961293E+01  0.34854581618E+02  0.47787266346E+02  0.19999978577E+02 0.  0.
        -12    1    1    2    0    0  0.25740750231E+02  0.24890961293E+01 -0.34854581618E+02  0.43400733654E+02  0.00000000000E+00 0.  1.
         11    1    3    3    0    0 -0.11756779713E+02 -0.95968332171E+01  0.19738999185E+02  0.24898778406E+02  0.51100000000E-03 0. -1.
        -11    1    3    3    0    0 -0.10693275902E+02  0.68441732864E+01  0.78990618238E+01  0.14952726689E+02  0.51100000000E-03 0.  1.
         12    1    3    3    0    0 -0.32906946158E+01  0.26356380137E+00  0.72165206091E+01  0.79357612511E+01  0.00000000000E+00 0. -1.
</event>
<event>
 7    1  0.2430096E-009  0.4778729E+02  0.7816164E-02  0.1312668E+00
        -11   -1    0    0    0    0  0.00000000000E+00  0.00000000000E+00  0.45593999997E+02  0.45594000000E+02  0.51100000000E-03 0. -1.
         11   -1    0    0    0    0 -0.00000000000E+00 -0.00000000000E+00 -0.45593999997E+02  0.45594000000E+02  0.51100000000E-03 0.  1.
    9900012    2    1    2    0    0 -0.71350188569E+01 -0.33738071695E+02  0.26352526579E+02  0.47787289949E+02  0.20000086195E+02 0.  0.
        -12    1    1    2    0    0  0.71350188569E+01  0.33738071695E+02 -0.26352526579E+02  0.43400710051E+02  0.00000000000E+00 0.  1.
         11    1    3    3    0    0 -0.39487865081E+01 -0.33999191075E+02  0.19255537016E+02  0.39272300858E+02  0.51100000000E-03 0. -1.
        -11    1    3    3    0    0 -0.33842701746E+01 -0.58565276086E+00  0.67597826022E+01  0.75822776830E+01  0.51100000000E-03 0.  1.
         12    1    3    3    0    0  0.19803782577E+00  0.84677214006E+00  0.33720696037E+00  0.93271140861E+00  0.00000000000E+00 0. -1.
</event>
<event>
 7    1  0.2430096E-009  0.4778728E+02  0.7816164E-02  0.1312668E+00
        -11   -1    0    0    0    0  0.00000000000E+00  0.00000000000E+00  0.45593999997E+02  0.45594000000E+02  0.51100000000E-03 0. -1.
         11   -1    0    0    0    0 -0.00000000000E+00 -0.00000000000E+00 -0.45593999997E+02  0.45594000000E+02  0.51100000000E-03 0.  1.
    9900012    2    1    2    0    0  0.20283757586E+02 -0.36634275638E+02 -0.11407099478E+02  0.47787275446E+02  0.20000020069E+02 0.  0.
        -12    1    1    2    0    0 -0.20283757586E+02  0.36634275638E+02  0.11407099478E+02  0.43400724554E+02  0.00000000000E+00 0.  1.
         11    1    3    3    0    0  0.15115289970E+02 -0.14587926429E+02 -0.24870556032E+01  0.21153369335E+02  0.51100000000E-03 0. -1.
        -11    1    3    3    0    0  0.34684806696E+01 -0.20167216618E+02 -0.36499693391E+01  0.20786275778E+02  0.51100000000E-03 0.  1.
        -12    1    3    3    0    0  0.16999869462E+01 -0.18791325909E+01 -0.52700745354E+01  0.58476303337E+01  0.00000000000E+00 0.  1.
</event>
<event>
 7    1  0.2430096E-009  0.4778727E+02  0.7816164E-02  0.1312668E+00
        -11   -1    0    0    0    0  0.00000000000E+00  0.00000000000E+00  0.45593999997E+02  0.45594000000E+02  0.51100000000E-03 0. -1.
         11   -1    0    0    0    0 -0.00000000000E+00 -0.00000000000E+00 -0.45593999997E+02  0.45594000000E+02  0.51100000000E-03 0.  1.
    9900012    2    1    2    0    0 -0.14122550582E-01  0.21965314274E+02  0.37431918705E+02  0.47787265345E+02  0.19999974015E+02 0.  0.
        -12    1    1    2    0    0  0.14122550582E-01 -0.21965314274E+02 -0.37431918705E+02  0.43400734655E+02  0.00000000000E+00 0.  1.
         11    1    3    3    0    0 -0.54084250963E+01  0.20088768918E+02  0.28711129504E+02  0.35456151178E+02  0.51100000000E-03 0. -1.
        -11    1    3    3    0    0  0.39821423128E+01  0.59031437180E-01  0.77318484829E+00  0.40569393858E+01  0.51100000000E-03 0.  1.
         12    1    3    3    0    0  0.14121602330E+01  0.18175139194E+01  0.79476043528E+01  0.82741747818E+01  0.00000000000E+00 0. -1.
</event>
<event>
 7    1  0.2430096E-009  0.4778727E+02  0.7816164E-02  0.1312668E+00
        -11   -1    0    0    0    0  0.00000000000E+00  0.00000000000E+00  0.45593999997E+02  0.45594000000E+02  0.51100000000E-03 0.  1.
         11   -1    0    0    0    0 -0.00000000000E+00 -0.00000000000E+00 -0.45593999997E+02  0.45594000000E+02  0.51100000000E-03 0. -1.
    9900012    2    1    2    0    0  0.95394338012E+01 -0.25458451853E+02 -0.33830306970E+02  0.47787271462E+02  0.20000001903E+02 0.  0.
        -12    1    1    2    0    0 -0.95394338012E+01  0.25458451853E+02  0.33830306970E+02  0.43400728538E+02  0.00000000000E+00 0.  1.
         11    1    3    3    0    0 -0.12172693670E+01  0.18410406142E+01 -0.19355132355E+01  0.29355386220E+01  0.51100000000E-03 0. -1.
        -11    1    3    3    0    0  0.10579657068E+02 -0.19941118014E+02 -0.17073502940E+02  0.28303389094E+02  0.51100000000E-03 0.  1.
        -12    1    3    3    0    0  0.17704610014E+00 -0.73583744532E+01 -0.14821290795E+02  0.16548343746E+02  0.00000000000E+00 0.  1.
</event>
<event>
 7    1  0.2430096E-009  0.4778727E+02  0.7816164E-02  0.1312668E+00
        -11   -1    0    0    0    0  0.00000000000E+00  0.00000000000E+00  0.45593999997E+02  0.45594000000E+02  0.51100000000E-03 0.  1.
         11   -1    0    0    0    0 -0.00000000000E+00 -0.00000000000E+00 -0.45593999997E+02  0.45594000000E+02  0.51100000000E-03 0. -1.
    9900012    2    1    2    0    0 -0.42079502959E+01 -0.84009847590E+01 -0.42371450944E+02  0.47787271369E+02  0.20000001480E+02 0.  0.
        -12    1    1    2    0    0  0.42079502959E+01  0.84009847590E+01  0.42371450944E+02  0.43400728631E+02  0.00000000000E+00 0.  1.
         11    1    3    3    0    0  0.48110391077E+01 -0.24961473766E+01 -0.22894768091E+02  0.23527584985E+02  0.51100000000E-03 0. -1.
        -11    1    3    3    0    0 -0.50329060003E+01 -0.15168389466E+01 -0.17062293713E+01  0.55264963698E+01  0.51100000000E-03 0.  1.
         12    1    3    3    0    0 -0.39860834033E+01 -0.43879984359E+01 -0.17770453482E+02  0.18733190014E+02  0.00000000000E+00 0. -1.
</event>
<event>
 7    1  0.2430096E-009  0.4778728E+02  0.7816164E-02  0.1312668E+00
        -11   -1    0    0    0    0  0.00000000000E+00  0.00000000000E+00  0.45593999997E+02  0.45594000000E+02  0.51100000000E-03 0.  1.
         11   -1    0    0    0    0 -0.00000000000E+00 -0.00000000000E+00 -0.45593999997E+02  0.45594000000E+02  0.51100000000E-03 0. -1.
    9900012    2    1    2    0    0 -0.12759751879E+02 -0.36893065660E+02 -0.18966105119E+02  0.47787277596E+02  0.20000029870E+02 0.  0.
        -12    1    1    2    0    0  0.12759751879E+02  0.36893065660E+02  0.18966105119E+02  0.43400722404E+02  0.00000000000E+00 0.  1.
         11    1    3    3    0    0  0.17982400044E+00 -0.15050669567E+01  0.21656800451E+01  0.26434321505E+01  0.51100000000E-03 0.  1.
        -11    1    3    3    0    0 -0.72379077232E+01 -0.30646241247E+02 -0.12804388412E+02  0.33993113621E+02  0.51100000000E-03 0. -1.
        -12    1    3    3    0    0 -0.57016681562E+01 -0.47417574562E+01 -0.83273967524E+01  0.11150731824E+02  0.00000000000E+00 0.  1.
</event>
<event>
 7    1  0.2430096E-009  0.4778727E+02  0.7816164E-02  0.1312668E+00
        -11   -1    0    0    0    0  0.00000000000E+00  0.00000000000E+00  0.45593999997E+02  0.45594000000E+02  0.51100000000E-03 0.  1.
         11   -1    0    0    0    0 -0.00000000000E+00 -0.00000000000E+00 -0.45593999997E+02  0.45594000000E+02  0.51100000000E-03 0. -1.
    9900012    2    1    2    0    0  0.30692510075E+02 -0.14885913430E+02 -0.26832863692E+02  0.47787272272E+02  0.20000005598E+02 0.  0.
        -12    1    1    2    0    0 -0.30692510075E+02  0.14885913430E+02  0.26832863692E+02  0.43400727728E+02  0.00000000000E+00 0.  1.
         11    1    3    3    0    0  0.10631957098E+02 -0.22900373290E+01 -0.16966611953E+02  0.20153131372E+02  0.51100000000E-03 0. -1.
        -11    1    3    3    0    0  0.19557923223E+02 -0.81732537683E+01 -0.69270875322E+01  0.22300201342E+02  0.51100000000E-03 0.  1.
        -12    1    3    3    0    0  0.50262975420E+00 -0.44226223329E+01 -0.29391642073E+01  0.53339395579E+01  0.00000000000E+00 0.  1.
</event>
<event>
 7    1  0.2430096E-009  0.4778728E+02  0.7816164E-02  0.1312668E+00
        -11   -1    0    0    0    0  0.00000000000E+00  0.00000000000E+00  0.45593999997E+02  0.45594000000E+02  0.51100000000E-03 0. -1.
         11   -1    0    0    0    0 -0.00000000000E+00 -0.00000000000E+00 -0.45593999997E+02  0.45594000000E+02  0.51100000000E-03 0.  1.
    9900012    2    1    2    0    0 -0.80779152767E+01  0.16782642223E+02  0.39200926252E+02  0.47787280948E+02  0.20000045152E+02 0.  0.
        -12    1    1    2    0    0  0.80779152767E+01 -0.16782642223E+02 -0.39200926252E+02  0.43400719052E+02  0.00000000000E+00 0.  1.
         11    1    3    3    0    0  0.15105423682E+01  0.12202314461E+02  0.11829838181E+02  0.17062335365E+02  0.51100000000E-03 0.  1.
        -11    1    3    3    0    0 -0.81687405701E+01 -0.95485559397E+00  0.15334119297E+02  0.17400439264E+02  0.51100000000E-03 0. -1.
        -12    1    3    3    0    0 -0.14197170748E+01  0.55351833563E+01  0.12036968774E+02  0.13324506319E+02  0.00000000000E+00 0.  1.
</event>
<event>
 7    1  0.2430096E-009  0.4778727E+02  0.7816164E-02  0.1312668E+00
        -11   -1    0    0    0    0  0.00000000000E+00  0.00000000000E+00  0.45593999997E+02  0.45594000000E+02  0.51100000000E-03 0.  1.
         11   -1    0    0    0    0 -0.00000000000E+00 -0.00000000000E+00 -0.45593999997E+02  0.45594000000E+02  0.51100000000E-03 0. -1.
    9900012    2    1    2    0    0 -0.66408954364E+01 -0.38035994666E+02 -0.19818799413E+02  0.47787271981E+02  0.20000004271E+02 0.  0.
        -12    1    1    2    0    0  0.66408954364E+01  0.38035994666E+02  0.19818799413E+02  0.43400728019E+02  0.00000000000E+00 0.  1.
         11    1    3    3    0    0 -0.79506240135E+01 -0.11096841602E+02 -0.99144400718E+01  0.16871527434E+02  0.51100000000E-03 0. -1.
        -11    1    3    3    0    0 -0.23866490219E+00 -0.25304650156E+02 -0.11847388387E+02  0.27941776828E+02  0.51100000000E-03 0.  1.
        -12    1    3    3    0    0  0.15483934793E+01 -0.16345029076E+01  0.19430290462E+01  0.29739677194E+01  0.00000000000E+00 0.  1.
</event>
<event>
 7    1  0.2430096E-009  0.4778727E+02  0.7816164E-02  0.1312668E+00
        -11   -1    0    0    0    0  0.00000000000E+00  0.00000000000E+00  0.45593999997E+02  0.45594000000E+02  0.51100000000E-03 0.  1.
         11   -1    0    0    0    0 -0.00000000000E+00 -0.00000000000E+00 -0.45593999997E+02  0.45594000000E+02  0.51100000000E-03 0. -1.
    9900012    2    1    2    0    0  0.27723824125E+02 -0.15776717642E+02 -0.29429712143E+02  0.47787271890E+02  0.20000003854E+02 0.  0.
        -12    1    1    2    0    0 -0.27723824125E+02  0.15776717642E+02  0.29429712143E+02  0.43400728110E+02  0.00000000000E+00 0.  1.
         11    1    3    3    0    0  0.16750339498E+02 -0.37092426465E+01 -0.92932561783E+01  0.19511457274E+02  0.51100000000E-03 0. -1.
        -11    1    3    3    0    0  0.10234872083E+02 -0.13929719137E+02 -0.15468865123E+02  0.23196453829E+02  0.51100000000E-03 0.  1.
        -12    1    3    3    0    0  0.73861254500E+00  0.18622441420E+01 -0.46675908415E+01  0.50793607865E+01  0.00000000000E+00 0.  1.
</event>
<event>
 7    1  0.2430096E-009  0.4778727E+02  0.7816164E-02  0.1312668E+00
        -11   -1    0    0    0    0  0.00000000000E+00  0.00000000000E+00  0.45593999997E+02  0.45594000000E+02  0.51100000000E-03 0. -1.
         11   -1    0    0    0    0 -0.00000000000E+00 -0.00000000000E+00 -0.45593999997E+02  0.45594000000E+02  0.51100000000E-03 0.  1.
    9900012    2    1    2    0    0  0.20362747821E+02  0.23225206686E+02  0.30488873828E+02  0.47787272452E+02  0.20000006416E+02 0.  0.
        -12    1    1    2    0    0 -0.20362747821E+02 -0.23225206686E+02 -0.30488873828E+02  0.43400727548E+02  0.00000000000E+00 0.  1.
         11    1    3    3    0    0  0.68973319794E+01  0.16708462115E+02  0.10907778044E+02  0.21112212503E+02  0.51100000000E-03 0. -1.
        -11    1    3    3    0    0  0.13781201852E+02  0.67933170642E+01  0.20526899095E+02  0.25640286035E+02  0.51100000000E-03 0.  1.
         12    1    3    3    0    0 -0.31578601066E+00 -0.27657249296E+00 -0.94580331115E+00  0.10347739134E+01  0.00000000000E+00 0. -1.
</event>
<event>
 7    1  0.2430096E-009  0.4778727E+02  0.7816164E-02  0.1312668E+00
        -11   -1    0    0    0    0  0.00000000000E+00  0.00000000000E+00  0.45593999997E+02  0.45594000000E+02  0.51100000000E-03 0.  1.
         11   -1    0    0    0    0 -0.00000000000E+00 -0.00000000000E+00 -0.45593999997E+02  0.45594000000E+02  0.51100000000E-03 0. -1.
    9900012    2    1    2    0    0  0.35679973720E+01 -0.17698581281E+02 -0.39467109923E+02  0.47787272468E+02  0.20000006492E+02 0.  0.
        -12    1    1    2    0    0 -0.35679973720E+01  0.17698581281E+02  0.39467109923E+02  0.43400727532E+02  0.00000000000E+00 0.  1.
         11    1    3    3    0    0  0.21059373847E+01 -0.68967956217E+01 -0.36156835619E+01  0.80668413891E+01  0.51100000000E-03 0. -1.
        -11    1    3    3    0    0 -0.39154273314E+01 -0.51053282676E+01 -0.27610846428E+02  0.28350551822E+02  0.51100000000E-03 0.  1.
        -12    1    3    3    0    0  0.53774873188E+01 -0.56964573920E+01 -0.82405799333E+01  0.11369879257E+02  0.00000000000E+00 0.  1.
</event>
<event>
 7    1  0.2430096E-009  0.4778727E+02  0.7816164E-02  0.1312668E+00
        -11   -1    0    0    0    0  0.00000000000E+00  0.00000000000E+00  0.45593999997E+02  0.45594000000E+02  0.51100000000E-03 0.  1.
         11   -1    0    0    0    0 -0.00000000000E+00 -0.00000000000E+00 -0.45593999997E+02  0.45594000000E+02  0.51100000000E-03 0. -1.
    9900012    2    1    2    0    0  0.13103578158E+02 -0.38653928754E+02 -0.14757821870E+02  0.47787271031E+02  0.19999999941E+02 0.  0.
        -12    1    1    2    0    0 -0.13103578158E+02  0.38653928754E+02  0.14757821870E+02  0.43400728969E+02  0.00000000000E+00 0.  1.
         11    1    3    3    0    0 -0.30629505335E+01 -0.10390304961E+02 -0.78052278136E+00  0.10860447469E+02  0.51100000000E-03 0.  1.
        -11    1    3    3    0    0  0.14901715408E+02 -0.26499793364E+02 -0.93366079598E+01  0.31803654175E+02  0.51100000000E-03 0. -1.
        -12    1    3    3    0    0  0.12648132838E+01 -0.17638304295E+01 -0.46406911287E+01  0.51231693880E+01  0.00000000000E+00 0.  1.
</event>
<event>
 7    1  0.2430096E-009  0.4778727E+02  0.7816164E-02  0.1312668E+00
        -11   -1    0    0    0    0  0.00000000000E+00  0.00000000000E+00  0.45593999997E+02  0.45594000000E+02  0.51100000000E-03 0.  1.
         11   -1    0    0    0    0 -0.00000000000E+00 -0.00000000000E+00 -0.45593999997E+02  0.45594000000E+02  0.51100000000E-03 0. -1.
    9900012    2    1    2    0    0 -0.15966032735E+02  0.63954511621E+01 -0.39847297323E+02  0.47787273038E+02  0.20000009090E+02 0.  0.
        -12    1    1    2    0    0  0.15966032735E+02 -0.63954511621E+01  0.39847297323E+02  0.43400726962E+02  0.00000000000E+00 0.  1.
         11    1    3    3    0    0 -0.85470237371E+00  0.22888401441E+01 -0.16052376717E+02  0.16237244344E+02  0.51100000000E-03 0. -1.
        -11    1    3    3    0    0 -0.87871443069E+01 -0.26199660864E+01 -0.46187362144E+01  0.10266978711E+02  0.51100000000E-03 0.  1.
        -12    1    3    3    0    0 -0.63241860543E+01  0.67265771044E+01 -0.19176184391E+02  0.21283049983E+02  0.00000000000E+00 0.  1.
</event>
<event>
 7    1  0.2430096E-009  0.4778727E+02  0.7816164E-02  0.1312668E+00
        -11   -1    0    0    0    0  0.00000000000E+00  0.00000000000E+00  0.45593999997E+02  0.45594000000E+02  0.51100000000E-03 0.  1.
         11   -1    0    0    0    0 -0.00000000000E+00 -0.00000000000E+00 -0.45593999997E+02  0.45594000000E+02  0.51100000000E-03 0. -1.
    9900012    2    1    2    0    0 -0.13684661561E+02  0.15244565183E+02 -0.38261682709E+02  0.47787273124E+02  0.20000009480E+02 0.  0.
        -12    1    1    2    0    0  0.13684661561E+02 -0.15244565183E+02  0.38261682709E+02  0.43400726876E+02  0.00000000000E+00 0.  1.
         11    1    3    3    0    0 -0.77839683199E+01  0.10324471066E+01 -0.64333109463E+01  0.10151039347E+02  0.51100000000E-03 0. -1.
        -11    1    3    3    0    0 -0.31397091961E+01  0.11297500163E+02 -0.31495879229E+02  0.33607762384E+02  0.51100000000E-03 0.  1.
        -12    1    3    3    0    0 -0.27609840448E+01  0.29146179132E+01 -0.33249253360E+00  0.40284713926E+01  0.00000000000E+00 0.  1.
</event>
<event>
 7    1  0.2430096E-009  0.4778726E+02  0.7816164E-02  0.1312668E+00
        -11   -1    0    0    0    0  0.00000000000E+00  0.00000000000E+00  0.45593999997E+02  0.45594000000E+02  0.51100000000E-03 0.  1.
         11   -1    0    0    0    0 -0.00000000000E+00 -0.00000000000E+00 -0.45593999997E+02  0.45594000000E+02  0.51100000000E-03 0. -1.
    9900012    2    1    2    0    0 -0.42199132662E+01  0.29909551922E+02 -0.31164642183E+02  0.47787263986E+02  0.19999967820E+02 0.  0.
        -12    1    1    2    0    0  0.42199132662E+01 -0.29909551922E+02  0.31164642183E+02  0.43400736014E+02  0.00000000000E+00 0.  1.
         11    1    3    3    0    0 -0.73415858041E+01  0.67340029634E+01 -0.15501575089E+02  0.18426733529E+02  0.51100000000E-03 0. -1.
        -11    1    3    3    0    0  0.54731629899E+01  0.14099385321E+02 -0.72878432747E+01  0.16788711666E+02  0.51100000000E-03 0.  1.
        -12    1    3    3    0    0 -0.23514904520E+01  0.90761636381E+01 -0.83752238184E+01  0.12571818792E+02  0.00000000000E+00 0.  1.
</event>
<event>
 7    1  0.2430096E-009  0.4778727E+02  0.7816164E-02  0.1312668E+00
        -11   -1    0    0    0    0  0.00000000000E+00  0.00000000000E+00  0.45593999997E+02  0.45594000000E+02  0.51100000000E-03 0.  1.
         11   -1    0    0    0    0 -0.00000000000E+00 -0.00000000000E+00 -0.45593999997E+02  0.45594000000E+02  0.51100000000E-03 0. -1.
    9900012    2    1    2    0    0 -0.18492353908E+02  0.12049738109E+02 -0.37369238385E+02  0.47787270524E+02  0.19999997628E+02 0.  0.
        -12    1    1    2    0    0  0.18492353908E+02 -0.12049738109E+02  0.37369238385E+02  0.43400729476E+02  0.00000000000E+00 0.  1.
         11    1    3    3    0    0 -0.25150456726E+01  0.78998790333E+01 -0.46236963284E+01  0.94927399351E+01  0.51100000000E-03 0. -1.
        -11    1    3    3    0    0 -0.17495112596E+02  0.41744198624E+01 -0.27713482419E+02  0.33038490492E+02  0.51100000000E-03 0.  1.
        -12    1    3    3    0    0  0.15178043605E+01 -0.24560786978E-01 -0.50320596374E+01  0.52560400972E+01  0.00000000000E+00 0.  1.
</event>
<event>
 7    1  0.2430096E-009  0.4778727E+02  0.7816164E-02  0.1312668E+00
        -11   -1    0    0    0    0  0.00000000000E+00  0.00000000000E+00  0.45593999997E+02  0.45594000000E+02  0.51100000000E-03 0. -1.
         11   -1    0    0    0    0 -0.00000000000E+00 -0.00000000000E+00 -0.45593999997E+02  0.45594000000E+02  0.51100000000E-03 0.  1.
    9900012    2    1    2    0    0 -0.20519103250E+01  0.34504477785E+02  0.26246023120E+02  0.47787273591E+02  0.20000011611E+02 0.  0.
        -12    1    1    2    0    0  0.20519103250E+01 -0.34504477785E+02 -0.26246023120E+02  0.43400726409E+02  0.00000000000E+00 0.  1.
         11    1    3    3    0    0  0.43939561688E+01  0.63251570515E+01  0.14647164731E+02  0.16548531580E+02  0.51100000000E-03 0. -1.
        -11    1    3    3    0    0 -0.14211512112E+01  0.10854038863E+02  0.38239442729E+01  0.11595360299E+02  0.51100000000E-03 0.  1.
         12    1    3    3    0    0 -0.50247152825E+01  0.17325281871E+02  0.77749141160E+01  0.19643381712E+02  0.00000000000E+00 0. -1.
</event>
<event>
 7    1  0.2430096E-009  0.4778727E+02  0.7816164E-02  0.1312668E+00
        -11   -1    0    0    0    0  0.00000000000E+00  0.00000000000E+00  0.45593999997E+02  0.45594000000E+02  0.51100000000E-03 0.  1.
         11   -1    0    0    0    0 -0.00000000000E+00 -0.00000000000E+00 -0.45593999997E+02  0.45594000000E+02  0.51100000000E-03 0. -1.
    9900012    2    1    2    0    0 -0.68149497441E+01 -0.32668245701E+02 -0.27748253437E+02  0.47787269753E+02  0.19999994113E+02 0.  0.
        -12    1    1    2    0    0  0.68149497441E+01  0.32668245701E+02  0.27748253437E+02  0.43400730247E+02  0.00000000000E+00 0.  1.
         11    1    3    3    0    0  0.18460998012E+01 -0.59606723683E+01 -0.64222641702E+01  0.89545059546E+01  0.51100000000E-03 0. -1.
        -11    1    3    3    0    0 -0.49053395908E+01 -0.27272642226E+02 -0.21435174058E+02  0.35033213636E+02  0.51100000000E-03 0.  1.
        -12    1    3    3    0    0 -0.37557099545E+01  0.56506889417E+00  0.10918479177E+00  0.37995501623E+01  0.00000000000E+00 0.  1.
</event>
<event>
 7    1  0.2430096E-009  0.4778727E+02  0.7816164E-02  0.1312668E+00
        -11   -1    0    0    0    0  0.00000000000E+00  0.00000000000E+00  0.45593999997E+02  0.45594000000E+02  0.51100000000E-03 0.  1.
         11   -1    0    0    0    0 -0.00000000000E+00 -0.00000000000E+00 -0.45593999997E+02  0.45594000000E+02  0.51100000000E-03 0. -1.
    9900012    2    1    2    0    0  0.64203281724E+01 -0.42384419190E+02 -0.67796443632E+01  0.47787272108E+02  0.20000004848E+02 0.  0.
        -12    1    1    2    0    0 -0.64203281724E+01  0.42384419190E+02  0.67796443632E+01  0.43400727892E+02  0.00000000000E+00 0.  1.
         11    1    3    3    0    0  0.13412041230E+01 -0.28885526840E+02  0.12434742524E+01  0.28943370879E+02  0.51100000000E-03 0.  1.
        -11    1    3    3    0    0  0.47457722567E+00 -0.68727033064E+01 -0.82796201130E+01  0.10770858079E+02  0.51100000000E-03 0. -1.
         12    1    3    3    0    0  0.46045468237E+01 -0.66261890428E+01  0.25650149743E+00  0.80730431500E+01  0.00000000000E+00 0. -1.
</event>
<event>
 7    1  0.2430096E-009  0.4778727E+02  0.7816164E-02  0.1312668E+00
        -11   -1    0    0    0    0  0.00000000000E+00  0.00000000000E+00  0.45593999997E+02  0.45594000000E+02  0.51100000000E-03 0. -1.
         11   -1    0    0    0    0 -0.00000000000E+00 -0.00000000000E+00 -0.45593999997E+02  0.45594000000E+02  0.51100000000E-03 0.  1.
    9900012    2    1    2    0    0 -0.40939988823E+02  0.14343134046E+02 -0.13472115519E+01  0.47787272379E+02  0.20000006084E+02 0.  0.
        -12    1    1    2    0    0  0.40939988823E+02 -0.14343134046E+02  0.13472115519E+01  0.43400727621E+02  0.00000000000E+00 0.  1.
         11    1    3    3    0    0 -0.19652698503E+02  0.14914956122E+02 -0.20428470423E+01  0.24755962895E+02  0.51100000000E-03 0. -1.
        -11    1    3    3    0    0 -0.13028069978E+02 -0.33088759269E+01 -0.26660610337E+01  0.13703545124E+02  0.51100000000E-03 0.  1.
        -12    1    3    3    0    0 -0.82592203417E+01  0.27370538508E+01  0.33616965241E+01  0.93277643600E+01  0.00000000000E+00 0.  1.
</event>
<event>
 7    1  0.2430096E-009  0.4778727E+02  0.7816164E-02  0.1312668E+00
        -11   -1    0    0    0    0  0.00000000000E+00  0.00000000000E+00  0.45593999997E+02  0.45594000000E+02  0.51100000000E-03 0.  1.
         11   -1    0    0    0    0 -0.00000000000E+00 -0.00000000000E+00 -0.45593999997E+02  0.45594000000E+02  0.51100000000E-03 0. -1.
    9900012    2    1    2    0    0 -0.15286174526E+02 -0.38460051538E+02 -0.13068311831E+02  0.47787268784E+02  0.19999989694E+02 0.  0.
        -12    1    1    2    0    0  0.15286174526E+02  0.38460051538E+02  0.13068311831E+02  0.43400731216E+02  0.00000000000E+00 0.  1.
         11    1    3    3    0    0  0.41217256657E+01 -0.38083135796E+01 -0.21151975542E+01  0.59971606397E+01  0.51100000000E-03 0.  1.
        -11    1    3    3    0    0 -0.15498509560E+02 -0.27680445102E+02 -0.11583624046E+02  0.33772639605E+02  0.51100000000E-03 0. -1.
        -12    1    3    3    0    0 -0.39093906322E+01 -0.69712928563E+01  0.63050976873E+00  0.80174685389E+01  0.00000000000E+00 0.  1.
</event>
<event>
 7    1  0.2430096E-009  0.4778727E+02  0.7816164E-02  0.1312668E+00
        -11   -1    0    0    0    0  0.00000000000E+00  0.00000000000E+00  0.45593999997E+02  0.45594000000E+02  0.51100000000E-03 0.  1.
         11   -1    0    0    0    0 -0.00000000000E+00 -0.00000000000E+00 -0.45593999997E+02  0.45594000000E+02  0.51100000000E-03 0. -1.
    9900012    2    1    2    0    0 -0.36922422748E+01  0.33307185594E+02 -0.27579372461E+02  0.47787273617E+02  0.20000011730E+02 0.  0.
        -12    1    1    2    0    0  0.36922422748E+01 -0.33307185594E+02  0.27579372461E+02  0.43400726383E+02  0.00000000000E+00 0.  1.
         11    1    3    3    0    0 -0.31826778424E+01  0.24582352597E+02 -0.26366765676E+02  0.36188780442E+02  0.51100000000E-03 0. -1.
        -11    1    3    3    0    0  0.28067724540E+01  0.53947775436E+01  0.13732188855E+01  0.62343665854E+01  0.51100000000E-03 0.  1.
         12    1    3    3    0    0 -0.33163368864E+01  0.33300554531E+01 -0.25858256713E+01  0.53641265894E+01  0.00000000000E+00 0. -1.
</event>
<event>
 7    1  0.2430096E-009  0.4778726E+02  0.7816164E-02  0.1312668E+00
        -11   -1    0    0    0    0  0.00000000000E+00  0.00000000000E+00  0.45593999997E+02  0.45594000000E+02  0.51100000000E-03 0.  1.
         11   -1    0    0    0    0 -0.00000000000E+00 -0.00000000000E+00 -0.45593999997E+02  0.45594000000E+02  0.51100000000E-03 0. -1.
    9900012    2    1    2    0    0 -0.13223417410E+02 -0.37430146921E+02 -0.17542780234E+02  0.47787264927E+02  0.19999972109E+02 0.  0.
        -12    1    1    2    0    0  0.13223417410E+02  0.37430146921E+02  0.17542780234E+02  0.43400735073E+02  0.00000000000E+00 0.  1.
         11    1    3    3    0    0 -0.12243438990E+02 -0.38232851760E+02 -0.17357370613E+02  0.43737067424E+02  0.51100000000E-03 0. -1.
        -11    1    3    3    0    0 -0.21778756223E+01  0.37387359582E+00 -0.11143658248E+01  0.24748202247E+01  0.51100000000E-03 0.  1.
         12    1    3    3    0    0  0.11978972023E+01  0.42883124314E+00  0.92895620328E+00  0.15753772786E+01  0.00000000000E+00 0. -1.
</event>
<event>
 7    1  0.2430096E-009  0.4778727E+02  0.7816164E-02  0.1312668E+00
        -11   -1    0    0    0    0  0.00000000000E+00  0.00000000000E+00  0.45593999997E+02  0.45594000000E+02  0.51100000000E-03 0.  1.
         11   -1    0    0    0    0 -0.00000000000E+00 -0.00000000000E+00 -0.45593999997E+02  0.45594000000E+02  0.51100000000E-03 0. -1.
    9900012    2    1    2    0    0  0.18594093810E+02  0.92606339618E+01 -0.38106739277E+02  0.47787271385E+02  0.20000001552E+02 0.  0.
        -12    1    1    2    0    0 -0.18594093810E+02 -0.92606339618E+01  0.38106739277E+02  0.43400728615E+02  0.00000000000E+00 0.  1.
         11    1    3    3    0    0 -0.13597398386E+01  0.43844489320E+01 -0.12450068443E+02  0.13269381649E+02  0.51100000000E-03 0. -1.
        -11    1    3    3    0    0  0.99031218642E+01 -0.26588009928E+01 -0.89137116488E+01  0.13586585332E+02  0.51100000000E-03 0.  1.
        -12    1    3    3    0    0  0.10050711784E+02  0.75349860226E+01 -0.16742959186E+02  0.20931304403E+02  0.00000000000E+00 0.  1.
</event>
<event>
 7    1  0.2430096E-009  0.4778727E+02  0.7816164E-02  0.1312668E+00
        -11   -1    0    0    0    0  0.00000000000E+00  0.00000000000E+00  0.45593999997E+02  0.45594000000E+02  0.51100000000E-03 0.  1.
         11   -1    0    0    0    0 -0.00000000000E+00 -0.00000000000E+00 -0.45593999997E+02  0.45594000000E+02  0.51100000000E-03 0. -1.
    9900012    2    1    2    0    0  0.87994700333E+01 -0.18189565074E+02 -0.38410055708E+02  0.47787270399E+02  0.19999997057E+02 0.  0.
        -12    1    1    2    0    0 -0.87994700333E+01  0.18189565074E+02  0.38410055708E+02  0.43400729601E+02  0.00000000000E+00 0.  1.
         11    1    3    3    0    0 -0.14093165206E+01 -0.15483102307E+02 -0.25970243421E+02  0.30268237043E+02  0.51100000000E-03 0. -1.
        -11    1    3    3    0    0  0.81728898069E+01 -0.45572062498E+01 -0.10901266199E+02  0.14366692786E+02  0.51100000000E-03 0.  1.
         12    1    3    3    0    0  0.20358967470E+01  0.18507434831E+01 -0.15385460883E+01  0.31523405702E+01  0.00000000000E+00 0. -1.
</event>
<event>
 7    1  0.2430096E-009  0.4778727E+02  0.7816164E-02  0.1312668E+00
        -11   -1    0    0    0    0  0.00000000000E+00  0.00000000000E+00  0.45593999997E+02  0.45594000000E+02  0.51100000000E-03 0.  1.
         11   -1    0    0    0    0 -0.00000000000E+00 -0.00000000000E+00 -0.45593999997E+02  0.45594000000E+02  0.51100000000E-03 0. -1.
    9900012    2    1    2    0    0  0.17833819533E+02  0.21567613065E+02 -0.33172522823E+02  0.47787270480E+02  0.19999997427E+02 0.  0.
        -12    1    1    2    0    0 -0.17833819533E+02 -0.21567613065E+02  0.33172522823E+02  0.43400729520E+02  0.00000000000E+00 0.  1.
         11    1    3    3    0    0  0.81932776823E+00  0.79538186598E+01 -0.14780868945E+02  0.16805017593E+02  0.51100000000E-03 0. -1.
        -11    1    3    3    0    0  0.13908405526E+02  0.37458018871E+01 -0.12533088580E+02  0.19093273309E+02  0.51100000000E-03 0.  1.
        -12    1    3    3    0    0  0.31060862385E+01  0.98679925178E+01 -0.58585652974E+01  0.11888979578E+02  0.00000000000E+00 0.  1.
</event>
<event>
 7    1  0.2430096E-009  0.4778727E+02  0.7816164E-02  0.1312668E+00
        -11   -1    0    0    0    0  0.00000000000E+00  0.00000000000E+00  0.45593999997E+02  0.45594000000E+02  0.51100000000E-03 0.  1.
         11   -1    0    0    0    0 -0.00000000000E+00 -0.00000000000E+00 -0.45593999997E+02  0.45594000000E+02  0.51100000000E-03 0. -1.
    9900012    2    1    2    0    0  0.58714711229E+01  0.36999704160E+02 -0.21912807247E+02  0.47787269563E+02  0.19999993243E+02 0.  0.
        -12    1    1    2    0    0 -0.58714711229E+01 -0.36999704160E+02  0.21912807247E+02  0.43400730437E+02  0.00000000000E+00 0.  1.
         11    1    3    3    0    0  0.10865981254E+00  0.36643344952E+01 -0.43306750434E+01  0.56739669403E+01  0.51100000000E-03 0. -1.
        -11    1    3    3    0    0  0.12852838588E+01 -0.21265694789E+01 -0.68737982545E+00  0.25781279316E+01  0.51100000000E-03 0.  1.
        -12    1    3    3    0    0  0.44775274515E+01  0.35461939143E+02 -0.16894752379E+02  0.39535174691E+02  0.00000000000E+00 0.  1.
</event>
<event>
 7    1  0.2430096E-009  0.4778727E+02  0.7816164E-02  0.1312668E+00
        -11   -1    0    0    0    0  0.00000000000E+00  0.00000000000E+00  0.45593999997E+02  0.45594000000E+02  0.51100000000E-03 0. -1.
         11   -1    0    0    0    0 -0.00000000000E+00 -0.00000000000E+00 -0.45593999997E+02  0.45594000000E+02  0.51100000000E-03 0.  1.
    9900012    2    1    2    0    0  0.29084980363E+02  0.16231694853E+02  0.27824793414E+02  0.47787272713E+02  0.20000007607E+02 0.  0.
        -12    1    1    2    0    0 -0.29084980363E+02 -0.16231694853E+02 -0.27824793414E+02  0.43400727287E+02  0.00000000000E+00 0.  1.
         11    1    3    3    0    0  0.14546520650E+02  0.45013856724E+01  0.11421139213E+02  0.19034341522E+02  0.51100000000E-03 0. -1.
        -11    1    3    3    0    0 -0.17304497852E+01  0.52427279265E+01  0.14128122717E+01  0.56988324547E+01  0.51100000000E-03 0.  1.
        -12    1    3    3    0    0  0.16268909498E+02  0.64875812538E+01  0.14990841929E+02  0.23054098736E+02  0.00000000000E+00 0.  1.
</event>
<event>
 7    1  0.2430096E-009  0.4778727E+02  0.7816164E-02  0.1312668E+00
        -11   -1    0    0    0    0  0.00000000000E+00  0.00000000000E+00  0.45593999997E+02  0.45594000000E+02  0.51100000000E-03 0.  1.
         11   -1    0    0    0    0 -0.00000000000E+00 -0.00000000000E+00 -0.45593999997E+02  0.45594000000E+02  0.51100000000E-03 0. -1.
    9900012    2    1    2    0    0 -0.34612099684E+02  0.24449928016E+02 -0.93715832775E+01  0.47787274227E+02  0.20000014509E+02 0.  0.
        -12    1    1    2    0    0  0.34612099684E+02 -0.24449928016E+02  0.93715832775E+01  0.43400725773E+02  0.00000000000E+00 0.  1.
         11    1    3    3    0    0 -0.50965460723E+01  0.55495119173E+01 -0.11021623139E+01  0.76148950363E+01  0.51100000000E-03 0. -1.
        -11    1    3    3    0    0 -0.71372126921E+01  0.14877541363E+02 -0.22634004959E+01  0.16655450281E+02  0.51100000000E-03 0.  1.
        -12    1    3    3    0    0 -0.22378340919E+02  0.40228747364E+01 -0.60060204678E+01  0.23516928909E+02  0.00000000000E+00 0.  1.
</event>
<event>
 7    1  0.2430096E-009  0.4778727E+02  0.7816164E-02  0.1312668E+00
        -11   -1    0    0    0    0  0.00000000000E+00  0.00000000000E+00  0.45593999997E+02  0.45594000000E+02  0.51100000000E-03 0.  1.
         11   -1    0    0    0    0 -0.00000000000E+00 -0.00000000000E+00 -0.45593999997E+02  0.45594000000E+02  0.51100000000E-03 0. -1.
    9900012    2    1    2    0    0 -0.51708425193E+01  0.31542568517E+02 -0.29359022245E+02  0.47787269267E+02  0.19999991896E+02 0.  0.
        -12    1    1    2    0    0  0.51708425193E+01 -0.31542568517E+02  0.29359022245E+02  0.43400730733E+02  0.00000000000E+00 0.  1.
         11    1    3    3    0    0  0.56119708966E+01  0.60487664678E+01 -0.81873432916E+01  0.11623871281E+02  0.51100000000E-03 0. -1.
        -11    1    3    3    0    0 -0.70186872533E+01  0.15094206866E+02 -0.66871854296E+01  0.17939216842E+02  0.51100000000E-03 0.  1.
         12    1    3    3    0    0 -0.37641261626E+01  0.10399595183E+02 -0.14484493523E+02  0.18224181144E+02  0.00000000000E+00 0. -1.
</event>
<event>
 7    1  0.2430096E-009  0.4778725E+02  0.7816164E-02  0.1312668E+00
        -11   -1    0    0    0    0  0.00000000000E+00  0.00000000000E+00  0.45593999997E+02  0.45594000000E+02  0.51100000000E-03 0. -1.
         11   -1    0    0    0    0 -0.00000000000E+00 -0.00000000000E+00 -0.45593999997E+02  0.45594000000E+02  0.51100000000E-03 0.  1.
    9900012    2    1    2    0    0 -0.42017391784E+02  0.29283208422E+01 -0.10468461035E+02  0.47787251715E+02  0.19999911869E+02 0.  0.
        -12    1    1    2    0    0  0.42017391784E+02 -0.29283208422E+01  0.10468461035E+02  0.43400748285E+02  0.00000000000E+00 0.  1.
         11    1    3    3    0    0 -0.29364810623E+02  0.59192232116E+01  0.12348731353E+01  0.29980897556E+02  0.51100000000E-03 0. -1.
        -11    1    3    3    0    0 -0.22714686464E+01 -0.25813700929E+00 -0.39519258759E+01  0.45655145293E+01  0.51100000000E-03 0.  1.
         12    1    3    3    0    0 -0.10381112515E+02 -0.27327653601E+01 -0.77514082946E+01  0.13240839630E+02  0.00000000000E+00 0. -1.
</event>
<event>
 7    1  0.2430096E-009  0.4778727E+02  0.7816164E-02  0.1312668E+00
        -11   -1    0    0    0    0  0.00000000000E+00  0.00000000000E+00  0.45593999997E+02  0.45594000000E+02  0.51100000000E-03 0.  1.
         11   -1    0    0    0    0 -0.00000000000E+00 -0.00000000000E+00 -0.45593999997E+02  0.45594000000E+02  0.51100000000E-03 0. -1.
    9900012    2    1    2    0    0 -0.30314814520E+02 -0.28380563874E+02 -0.12616617398E+02  0.47787269363E+02  0.19999992335E+02 0.  0.
        -12    1    1    2    0    0  0.30314814520E+02  0.28380563874E+02  0.12616617398E+02  0.43400730637E+02  0.00000000000E+00 0.  1.
         11    1    3    3    0    0 -0.13271447898E+02 -0.10653116179E+02  0.37662980317E+01  0.17430009029E+02  0.51100000000E-03 0. -1.
        -11    1    3    3    0    0 -0.99056964053E+01 -0.54480863166E+01 -0.81964423070E+01  0.13963743500E+02  0.51100000000E-03 0.  1.
         12    1    3    3    0    0 -0.71376702170E+01 -0.12279361379E+02 -0.81864731230E+01  0.16393516834E+02  0.00000000000E+00 0. -1.
</event>
<event>
 7    1  0.2430096E-009  0.4778727E+02  0.7816164E-02  0.1312668E+00
        -11   -1    0    0    0    0  0.00000000000E+00  0.00000000000E+00  0.45593999997E+02  0.45594000000E+02  0.51100000000E-03 0.  1.
         11   -1    0    0    0    0 -0.00000000000E+00 -0.00000000000E+00 -0.45593999997E+02  0.45594000000E+02  0.51100000000E-03 0. -1.
    9900012    2    1    2    0    0  0.12728927124E+02 -0.31855104199E+02 -0.26586659421E+02  0.47787266038E+02  0.19999977175E+02 0.  0.
        -12    1    1    2    0    0 -0.12728927124E+02  0.31855104199E+02  0.26586659421E+02  0.43400733962E+02  0.00000000000E+00 0.  1.
         11    1    3    3    0    0  0.11555607004E+02 -0.11994616149E+02 -0.17737639473E+02  0.24331599292E+02  0.51100000000E-03 0. -1.
        -11    1    3    3    0    0 -0.40434976557E+00 -0.41639440464E+01  0.16593014849E+01  0.45005788998E+01  0.51100000000E-03 0.  1.
         12    1    3    3    0    0  0.15776698861E+01 -0.15696544003E+02 -0.10508321433E+02  0.18955087846E+02  0.00000000000E+00 0. -1.
</event>
<event>
 7    1  0.2430096E-009  0.4778727E+02  0.7816164E-02  0.1312668E+00
        -11   -1    0    0    0    0  0.00000000000E+00  0.00000000000E+00  0.45593999997E+02  0.45594000000E+02  0.51100000000E-03 0. -1.
         11   -1    0    0    0    0 -0.00000000000E+00 -0.00000000000E+00 -0.45593999997E+02  0.45594000000E+02  0.51100000000E-03 0.  1.
    9900012    2    1    2    0    0 -0.69407513860E+01  0.17448307730E+02  0.39128068027E+02  0.47787272126E+02  0.20000004933E+02 0.  0.
        -12    1    1    2    0    0  0.69407513860E+01 -0.17448307730E+02 -0.39128068027E+02  0.43400727874E+02  0.00000000000E+00 0.  1.
         11    1    3    3    0    0 -0.39438475753E+01  0.73503449455E+00  0.14508011427E+00  0.40143813852E+01  0.51100000000E-03 0.  1.
        -11    1    3    3    0    0  0.13742063252E+01  0.43398690782E+01  0.21135755755E+02  0.21620431963E+02  0.51100000000E-03 0. -1.
         12    1    3    3    0    0 -0.43711101360E+01  0.12373404157E+02  0.17847232157E+02  0.22152458778E+02  0.00000000000E+00 0. -1.
</event>
<event>
 7    1  0.2430096E-009  0.4778728E+02  0.7816164E-02  0.1312668E+00
        -11   -1    0    0    0    0  0.00000000000E+00  0.00000000000E+00  0.45593999997E+02  0.45594000000E+02  0.51100000000E-03 0. -1.
         11   -1    0    0    0    0 -0.00000000000E+00 -0.00000000000E+00 -0.45593999997E+02  0.45594000000E+02  0.51100000000E-03 0.  1.
    9900012    2    1    2    0    0  0.50936348662E+01 -0.23315672249E+02  0.36249925684E+02  0.47787276496E+02  0.20000024856E+02 0.  0.
        -12    1    1    2    0    0 -0.50936348662E+01  0.23315672249E+02 -0.36249925684E+02  0.43400723504E+02  0.00000000000E+00 0.  1.
         11    1    3    3    0    0 -0.38797831050E+01  0.15942463554E+01  0.27239970429E+01  0.50014496433E+01  0.51100000000E-03 0. -1.
        -11    1    3    3    0    0  0.66892544312E+01 -0.15457408800E+02  0.20548060392E+02  0.26568786155E+02  0.51100000000E-03 0.  1.
         12    1    3    3    0    0  0.22841635399E+01 -0.94525098046E+01  0.12977868249E+02  0.16217040697E+02  0.00000000000E+00 0. -1.
</event>
<event>
 7    1  0.2430096E-009  0.4778728E+02  0.7816164E-02  0.1312668E+00
        -11   -1    0    0    0    0  0.00000000000E+00  0.00000000000E+00  0.45593999997E+02  0.45594000000E+02  0.51100000000E-03 0. -1.
         11   -1    0    0    0    0 -0.00000000000E+00 -0.00000000000E+00 -0.45593999997E+02  0.45594000000E+02  0.51100000000E-03 0.  1.
    9900012    2    1    2    0    0 -0.37110715715E+02 -0.12188135888E+02  0.18917372246E+02  0.47787275928E+02  0.20000022266E+02 0.  0.
        -12    1    1    2    0    0  0.37110715715E+02  0.12188135888E+02 -0.18917372246E+02  0.43400724072E+02  0.00000000000E+00 0.  1.
         11    1    3    3    0    0 -0.23788936570E+02 -0.87181355587E+01  0.20309019561E+02  0.32471151297E+02  0.51100000000E-03 0. -1.
        -11    1    3    3    0    0 -0.11165466260E+02 -0.12430535275E+00 -0.22546764787E+00  0.11168434292E+02  0.51100000000E-03 0.  1.
         12    1    3    3    0    0 -0.21563128852E+01 -0.33456949762E+01 -0.11661796674E+01  0.41476903391E+01  0.00000000000E+00 0. -1.
</event>
<event>
 7    1  0.2430096E-009  0.4778727E+02  0.7816164E-02  0.1312668E+00
        -11   -1    0    0    0    0  0.00000000000E+00  0.00000000000E+00  0.45593999997E+02  0.45594000000E+02  0.51100000000E-03 0.  1.
         11   -1    0    0    0    0 -0.00000000000E+00 -0.00000000000E+00 -0.45593999997E+02  0.45594000000E+02  0.51100000000E-03 0. -1.
    9900012    2    1    2    0    0  0.36148008477E+02  0.47827944703E+01 -0.23538681663E+02  0.47787272193E+02  0.20000005236E+02 0.  0.
        -12    1    1    2    0    0 -0.36148008477E+02 -0.47827944703E+01  0.23538681663E+02  0.43400727807E+02  0.00000000000E+00 0.  1.
         11    1    3    3    0    0  0.16373460928E+02 -0.45912851647E+01 -0.29940228717E+01  0.17266565826E+02  0.51100000000E-03 0. -1.
        -11    1    3    3    0    0  0.61182033971E+00 -0.60653533332E+00 -0.14478351903E+01  0.16847659298E+01  0.51100000000E-03 0.  1.
         12    1    3    3    0    0  0.19162727209E+02  0.99806149684E+01 -0.19096823601E+02  0.28835940437E+02  0.00000000000E+00 0. -1.
</event>
<event>
 7    1  0.2430096E-009  0.4778727E+02  0.7816164E-02  0.1312668E+00
        -11   -1    0    0    0    0  0.00000000000E+00  0.00000000000E+00  0.45593999997E+02  0.45594000000E+02  0.51100000000E-03 0. -1.
         11   -1    0    0    0    0 -0.00000000000E+00 -0.00000000000E+00 -0.45593999997E+02  0.45594000000E+02  0.51100000000E-03 0.  1.
    9900012    2    1    2    0    0  0.13452978120E+02  0.58738737695E+01  0.40842852013E+02  0.47787267588E+02  0.19999984241E+02 0.  0.
        -12    1    1    2    0    0 -0.13452978120E+02 -0.58738737695E+01 -0.40842852013E+02  0.43400732412E+02  0.00000000000E+00 0.  1.
         11    1    3    3    0    0  0.26331953507E+01 -0.30315237175E-01  0.15838081359E+02  0.16055511769E+02  0.51100000000E-03 0. -1.
        -11    1    3    3    0    0  0.57188077352E+01  0.74000735660E+01  0.24695389558E+02  0.26406970981E+02  0.51100000000E-03 0.  1.
        -12    1    3    3    0    0  0.51009750338E+01 -0.14958845594E+01  0.30938109588E+00  0.53247848382E+01  0.00000000000E+00 0.  1.
</event>
<event>
 7    1  0.2430096E-009  0.4778728E+02  0.7816164E-02  0.1312668E+00
        -11   -1    0    0    0    0  0.00000000000E+00  0.00000000000E+00  0.45593999997E+02  0.45594000000E+02  0.51100000000E-03 0. -1.
         11   -1    0    0    0    0 -0.00000000000E+00 -0.00000000000E+00 -0.45593999997E+02  0.45594000000E+02  0.51100000000E-03 0.  1.
    9900012    2    1    2    0    0  0.33759959952E+02 -0.27212642153E+02  0.18329699306E+01  0.47787279180E+02  0.20000037094E+02 0.  0.
        -12    1    1    2    0    0 -0.33759959952E+02  0.27212642153E+02 -0.18329699306E+01  0.43400720820E+02  0.00000000000E+00 0.  1.
         11    1    3    3    0    0  0.13890857218E+02 -0.15458008877E+02  0.97728929858E+01  0.22965526127E+02  0.51100000000E-03 0. -1.
        -11    1    3    3    0    0  0.11583129031E+02 -0.58901948654E+01 -0.66236294534E+01  0.14585463349E+02  0.51100000000E-03 0.  1.
         12    1    3    3    0    0  0.82859737029E+01 -0.58644384103E+01 -0.13162936018E+01  0.10236289705E+02  0.00000000000E+00 0. -1.
</event>
<event>
 7    1  0.2430096E-009  0.4778727E+02  0.7816164E-02  0.1312668E+00
        -11   -1    0    0    0    0  0.00000000000E+00  0.00000000000E+00  0.45593999997E+02  0.45594000000E+02  0.51100000000E-03 0.  1.
         11   -1    0    0    0    0 -0.00000000000E+00 -0.00000000000E+00 -0.45593999997E+02  0.45594000000E+02  0.51100000000E-03 0. -1.
    9900012    2    1    2    0    0 -0.95108498483E+01  0.18878298885E+02 -0.37904840464E+02  0.47787270004E+02  0.19999995255E+02 0.  0.
        -12    1    1    2    0    0  0.95108498483E+01 -0.18878298885E+02  0.37904840464E+02  0.43400729996E+02  0.00000000000E+00 0.  1.
         11    1    3    3    0    0 -0.32195304638E+01 -0.22021212000E+01 -0.99467851457E+01  0.10684252392E+02  0.51100000000E-03 0. -1.
        -11    1    3    3    0    0 -0.85725523312E+00  0.60719572286E+00  0.84607576557E+00  0.13488579031E+01  0.51100000000E-03 0.  1.
         12    1    3    3    0    0 -0.54340641514E+01  0.20473224362E+02 -0.28804131084E+02  0.35754159708E+02  0.00000000000E+00 0. -1.
</event>
<event>
 7    1  0.2752839E-009  0.4778727E+02  0.7816164E-02  0.1312668E+00
        -11   -1    0    0    0    0  0.00000000000E+00  0.00000000000E+00  0.45593999997E+02  0.45594000000E+02  0.51100000000E-03 0. -1.
         11   -1    0    0    0    0 -0.00000000000E+00 -0.00000000000E+00 -0.45593999997E+02  0.45594000000E+02  0.51100000000E-03 0.  1.
    9900012    2    1    2    0    0  0.60973416320E+01 -0.31485057937E+02  0.29242723366E+02  0.47787270535E+02  0.19999997677E+02 0.  0.
        -12    1    1    2    0    0 -0.60973416320E+01  0.31485057937E+02 -0.29242723366E+02  0.43400729465E+02  0.00000000000E+00 0.  1.
         11    1    3    3    0    0  0.71996494496E+00 -0.10334811072E+02  0.64280823292E+01  0.12192083994E+02  0.51100000000E-03 0. -1.
        -11    1    3    3    0    0 -0.56703576212E+01 -0.62339562821E+01  0.46538996279E+01  0.96267309346E+01  0.51100000000E-03 0.  1.
        -12    1    3    3    0    0  0.11047734308E+02 -0.14916290582E+02  0.18160741409E+02  0.25968455607E+02  0.00000000000E+00 0.  1.
</event>
<event>
 7    1  0.2430096E-009  0.4778727E+02  0.7816164E-02  0.1312668E+00
        -11   -1    0    0    0    0  0.00000000000E+00  0.00000000000E+00  0.45593999997E+02  0.45594000000E+02  0.51100000000E-03 0. -1.
         11   -1    0    0    0    0 -0.00000000000E+00 -0.00000000000E+00 -0.45593999997E+02  0.45594000000E+02  0.51100000000E-03 0.  1.
    9900012    2    1    2    0    0 -0.20632349325E+02  0.83401238389E+01  0.37260860233E+02  0.47787271785E+02  0.20000003376E+02 0.  0.
        -12    1    1    2    0    0  0.20632349325E+02 -0.83401238389E+01 -0.37260860233E+02  0.43400728215E+02  0.00000000000E+00 0.  1.
         11    1    3    3    0    0 -0.20103420201E+02  0.84971877373E+01  0.35274832388E+02  0.41480881181E+02  0.51100000000E-03 0. -1.
        -11    1    3    3    0    0 -0.27617693253E+01 -0.13387943491E+01  0.21922739363E+01  0.37717112016E+01  0.51100000000E-03 0.  1.
         12    1    3    3    0    0  0.22328402016E+01  0.11817304507E+01 -0.20624609177E+00  0.25346794027E+01  0.00000000000E+00 0. -1.
</event>
<event>
 7    1  0.2430096E-009  0.4778727E+02  0.7816164E-02  0.1312668E+00
        -11   -1    0    0    0    0  0.00000000000E+00  0.00000000000E+00  0.45593999997E+02  0.45594000000E+02  0.51100000000E-03 0.  1.
         11   -1    0    0    0    0 -0.00000000000E+00 -0.00000000000E+00 -0.45593999997E+02  0.45594000000E+02  0.51100000000E-03 0. -1.
    9900012    2    1    2    0    0 -0.34637720284E+02 -0.18389189245E+02 -0.18592727664E+02  0.47787268790E+02  0.19999989722E+02 0.  0.
        -12    1    1    2    0    0  0.34637720284E+02  0.18389189245E+02  0.18592727664E+02  0.43400731210E+02  0.00000000000E+00 0.  1.
         11    1    3    3    0    0 -0.12231704228E+02 -0.64606720042E+01  0.22138489012E+00  0.13834879205E+02  0.51100000000E-03 0. -1.
        -11    1    3    3    0    0 -0.23167319658E+02 -0.89615549133E+01 -0.18283992283E+02  0.30843776369E+02  0.51100000000E-03 0.  1.
        -12    1    3    3    0    0  0.76130360321E+00 -0.29669623276E+01 -0.53012027128E+00  0.31086132168E+01  0.00000000000E+00 0.  1.
</event>
<event>
 7    1  0.2430096E-009  0.4778727E+02  0.7816164E-02  0.1312668E+00
        -11   -1    0    0    0    0  0.00000000000E+00  0.00000000000E+00  0.45593999997E+02  0.45594000000E+02  0.51100000000E-03 0. -1.
         11   -1    0    0    0    0 -0.00000000000E+00 -0.00000000000E+00 -0.45593999997E+02  0.45594000000E+02  0.51100000000E-03 0.  1.
    9900012    2    1    2    0    0 -0.35911844130E+02  0.20560477671E+02 -0.13085470512E+02  0.47787270405E+02  0.19999997083E+02 0.  0.
        -12    1    1    2    0    0  0.35911844130E+02 -0.20560477671E+02  0.13085470512E+02  0.43400729595E+02  0.00000000000E+00 0.  1.
         11    1    3    3    0    0 -0.13859627012E+02  0.98652525520E+01  0.10763290511E+01  0.17046141890E+02  0.51100000000E-03 0. -1.
        -11    1    3    3    0    0 -0.81932906230E+00  0.21158130116E+00 -0.54408878971E+01  0.55062989502E+01  0.51100000000E-03 0.  1.
         12    1    3    3    0    0 -0.21232888055E+02  0.10483643818E+02 -0.87209116658E+01  0.25234829565E+02  0.00000000000E+00 0. -1.
</event>
<event>
 7    1  0.2430096E-009  0.4778727E+02  0.7816164E-02  0.1312668E+00
        -11   -1    0    0    0    0  0.00000000000E+00  0.00000000000E+00  0.45593999997E+02  0.45594000000E+02  0.51100000000E-03 0.  1.
         11   -1    0    0    0    0 -0.00000000000E+00 -0.00000000000E+00 -0.45593999997E+02  0.45594000000E+02  0.51100000000E-03 0. -1.
    9900012    2    1    2    0    0  0.15739819402E+02  0.35376955511E+02 -0.19604904559E+02  0.47787272140E+02  0.20000004995E+02 0.  0.
        -12    1    1    2    0    0 -0.15739819402E+02 -0.35376955511E+02  0.19604904559E+02  0.43400727860E+02  0.00000000000E+00 0.  1.
         11    1    3    3    0    0 -0.59780103151E+00 -0.17949534394E+00 -0.60369109330E+01  0.60690920676E+01  0.51100000000E-03 0. -1.
        -11    1    3    3    0    0  0.13887223136E+02  0.26119236745E+02 -0.87877743729E+01  0.30859268839E+02  0.51100000000E-03 0.  1.
         12    1    3    3    0    0  0.24503972972E+01  0.94372141101E+01 -0.47802192532E+01  0.10858911234E+02  0.00000000000E+00 0. -1.
</event>
<event>
 7    1  0.2430096E-009  0.4778727E+02  0.7816164E-02  0.1312668E+00
        -11   -1    0    0    0    0  0.00000000000E+00  0.00000000000E+00  0.45593999997E+02  0.45594000000E+02  0.51100000000E-03 0.  1.
         11   -1    0    0    0    0 -0.00000000000E+00 -0.00000000000E+00 -0.45593999997E+02  0.45594000000E+02  0.51100000000E-03 0. -1.
    9900012    2    1    2    0    0 -0.37915248116E+02  0.16262702552E+02 -0.13475221730E+02  0.47787272648E+02  0.20000007312E+02 0.  0.
        -12    1    1    2    0    0  0.37915248116E+02 -0.16262702552E+02  0.13475221730E+02  0.43400727352E+02  0.00000000000E+00 0.  1.
         11    1    3    3    0    0 -0.80267386226E+01  0.86068249839E+01 -0.54080488406E+01  0.12951948183E+02  0.51100000000E-03 0. -1.
        -11    1    3    3    0    0 -0.13658301079E+02  0.73395743035E+00 -0.10199716286E+02  0.17062300386E+02  0.51100000000E-03 0.  1.
        -12    1    3    3    0    0 -0.16230208415E+02  0.69219201378E+01  0.21325433971E+01  0.17773024079E+02  0.00000000000E+00 0.  1.
</event>
<event>
 7    1  0.2430096E-009  0.4778727E+02  0.7816164E-02  0.1312668E+00
        -11   -1    0    0    0    0  0.00000000000E+00  0.00000000000E+00  0.45593999997E+02  0.45594000000E+02  0.51100000000E-03 0. -1.
         11   -1    0    0    0    0 -0.00000000000E+00 -0.00000000000E+00 -0.45593999997E+02  0.45594000000E+02  0.51100000000E-03 0.  1.
    9900012    2    1    2    0    0 -0.10536511966E+02 -0.94352444393E+01  0.41031468262E+02  0.47787270631E+02  0.19999998116E+02 0.  0.
        -12    1    1    2    0    0  0.10536511966E+02  0.94352444393E+01 -0.41031468262E+02  0.43400729369E+02  0.00000000000E+00 0.  1.
         11    1    3    3    0    0 -0.42509406675E+01  0.14934379327E+01  0.26625194311E+02  0.27003737256E+02  0.51100000000E-03 0. -1.
        -11    1    3    3    0    0 -0.68962600551E+01 -0.40233323822E+01  0.67488857042E+01  0.10454332342E+02  0.51100000000E-03 0.  1.
         12    1    3    3    0    0  0.61068875634E+00 -0.69053499898E+01  0.76573882463E+01  0.10329201034E+02  0.00000000000E+00 0. -1.
</event>
<event>
 7    1  0.2430096E-009  0.4778727E+02  0.7816164E-02  0.1312668E+00
        -11   -1    0    0    0    0  0.00000000000E+00  0.00000000000E+00  0.45593999997E+02  0.45594000000E+02  0.51100000000E-03 0.  1.
         11   -1    0    0    0    0 -0.00000000000E+00 -0.00000000000E+00 -0.45593999997E+02  0.45594000000E+02  0.51100000000E-03 0. -1.
    9900012    2    1    2    0    0 -0.90313046469E+01 -0.32381265469E+02 -0.27450178759E+02  0.47787272692E+02  0.20000007510E+02 0.  0.
        -12    1    1    2    0    0  0.90313046469E+01  0.32381265469E+02  0.27450178759E+02  0.43400727308E+02  0.00000000000E+00 0.  1.
         11    1    3    3    0    0  0.40596846160E+01 -0.13754346186E+02 -0.15147652699E+02  0.20859397420E+02  0.51100000000E-03 0. -1.
        -11    1    3    3    0    0 -0.82664139905E+01 -0.56939172728E+01 -0.39042539161E+01  0.10770213233E+02  0.51100000000E-03 0.  1.
        -12    1    3    3    0    0 -0.48245752724E+01 -0.12933002010E+02 -0.83982721438E+01  0.16157662039E+02  0.00000000000E+00 0.  1.
</event>
<event>
 7    1  0.2430096E-009  0.4778727E+02  0.7816164E-02  0.1312668E+00
        -11   -1    0    0    0    0  0.00000000000E+00  0.00000000000E+00  0.45593999997E+02  0.45594000000E+02  0.51100000000E-03 0.  1.
         11   -1    0    0    0    0 -0.00000000000E+00 -0.00000000000E+00 -0.45593999997E+02  0.45594000000E+02  0.51100000000E-03 0. -1.
    9900012    2    1    2    0    0 -0.15596526899E+02  0.14052305975E+02 -0.37985582060E+02  0.47787269603E+02  0.19999993429E+02 0.  0.
        -12    1    1    2    0    0  0.15596526899E+02 -0.14052305975E+02  0.37985582060E+02  0.43400730397E+02  0.00000000000E+00 0.  1.
         11    1    3    3    0    0 -0.91581468897E+01  0.49979971916E+01 -0.25533325221E+02  0.27582645404E+02  0.51100000000E-03 0.  1.
        -11    1    3    3    0    0 -0.47181207699E+01  0.11776791805E+02 -0.10113204055E+02  0.16224376270E+02  0.51100000000E-03 0. -1.
        -12    1    3    3    0    0 -0.17202592396E+01 -0.27224830215E+01 -0.23390527837E+01  0.39802479293E+01  0.00000000000E+00 0.  1.
</event>
<event>
 7    1  0.2430096E-009  0.4778728E+02  0.7816164E-02  0.1312668E+00
        -11   -1    0    0    0    0  0.00000000000E+00  0.00000000000E+00  0.45593999997E+02  0.45594000000E+02  0.51100000000E-03 0. -1.
         11   -1    0    0    0    0 -0.00000000000E+00 -0.00000000000E+00 -0.45593999997E+02  0.45594000000E+02  0.51100000000E-03 0.  1.
    9900012    2    1    2    0    0 -0.18767242678E+02 -0.27916395533E+02  0.27424225223E+02  0.47787278043E+02  0.20000031910E+02 0.  0.
        -12    1    1    2    0    0  0.18767242678E+02  0.27916395533E+02 -0.27424225223E+02  0.43400721957E+02  0.00000000000E+00 0.  1.
         11    1    3    3    0    0  0.26050747470E+01 -0.67391427308E+01  0.22530271595E+01  0.75682620743E+01  0.51100000000E-03 0.  1.
        -11    1    3    3    0    0 -0.21423290080E+02 -0.17496672728E+02  0.22738427741E+02  0.35806801181E+02  0.51100000000E-03 0. -1.
         12    1    3    3    0    0  0.50972655112E-01 -0.36805800741E+01  0.24327703221E+01  0.44122147878E+01  0.00000000000E+00 0. -1.
</event>
<event>
 7    1  0.2430096E-009  0.4778727E+02  0.7816164E-02  0.1312668E+00
        -11   -1    0    0    0    0  0.00000000000E+00  0.00000000000E+00  0.45593999997E+02  0.45594000000E+02  0.51100000000E-03 0.  1.
         11   -1    0    0    0    0 -0.00000000000E+00 -0.00000000000E+00 -0.45593999997E+02  0.45594000000E+02  0.51100000000E-03 0. -1.
    9900012    2    1    2    0    0 -0.35175740337E+02  0.16422217164E+02 -0.19406220139E+02  0.47787270687E+02  0.19999998368E+02 0.  0.
        -12    1    1    2    0    0  0.35175740337E+02 -0.16422217164E+02  0.19406220139E+02  0.43400729313E+02  0.00000000000E+00 0.  1.
         11    1    3    3    0    0 -0.28266985950E+01  0.74401739458E+01 -0.31744776622E+00  0.79653742308E+01  0.51100000000E-03 0. -1.
        -11    1    3    3    0    0 -0.36150610838E+01  0.58275508258E+00  0.96821542789E+00  0.37875732998E+01  0.51100000000E-03 0.  1.
         12    1    3    3    0    0 -0.28733980659E+02  0.83992881355E+01 -0.20056987801E+02  0.36034323156E+02  0.00000000000E+00 0. -1.
</event>
<event>
 7    1  0.2430096E-009  0.4778727E+02  0.7816164E-02  0.1312668E+00
        -11   -1    0    0    0    0  0.00000000000E+00  0.00000000000E+00  0.45593999997E+02  0.45594000000E+02  0.51100000000E-03 0. -1.
         11   -1    0    0    0    0 -0.00000000000E+00 -0.00000000000E+00 -0.45593999997E+02  0.45594000000E+02  0.51100000000E-03 0.  1.
    9900012    2    1    2    0    0  0.40145905285E+02 -0.72002450800E+01 -0.14835292242E+02  0.47787272630E+02  0.20000007227E+02 0.  0.
        -12    1    1    2    0    0 -0.40145905285E+02  0.72002450800E+01  0.14835292242E+02  0.43400727370E+02  0.00000000000E+00 0.  1.
         11    1    3    3    0    0  0.21805299258E+01 -0.48233732381E+01 -0.59367690544E+01  0.79539214994E+01  0.51100000000E-03 0.  1.
        -11    1    3    3    0    0  0.31394316714E+02 -0.48970857576E+01 -0.77088338599E+01  0.32695728935E+02  0.51100000000E-03 0. -1.
        -12    1    3    3    0    0  0.65710586453E+01  0.25202139158E+01 -0.11896893276E+01  0.71376221949E+01  0.00000000000E+00 0.  1.
</event>
<event>
 7    1  0.2430096E-009  0.4778727E+02  0.7816164E-02  0.1312668E+00
        -11   -1    0    0    0    0  0.00000000000E+00  0.00000000000E+00  0.45593999997E+02  0.45594000000E+02  0.51100000000E-03 0.  1.
         11   -1    0    0    0    0 -0.00000000000E+00 -0.00000000000E+00 -0.45593999997E+02  0.45594000000E+02  0.51100000000E-03 0. -1.
    9900012    2    1    2    0    0  0.51645249430E+01 -0.11333006263E+02 -0.41575400319E+02  0.47787271198E+02  0.20000000700E+02 0.  0.
        -12    1    1    2    0    0 -0.51645249430E+01  0.11333006263E+02  0.41575400319E+02  0.43400728802E+02  0.00000000000E+00 0.  1.
         11    1    3    3    0    0  0.19148327678E+00 -0.88513719615E+01 -0.15484239497E+02  0.17836623125E+02  0.51100000000E-03 0. -1.
        -11    1    3    3    0    0  0.59072701012E+01  0.51272148098E+00 -0.26149558395E+02  0.26813394561E+02  0.51100000000E-03 0.  1.
        -12    1    3    3    0    0 -0.93422843493E+00 -0.29943557825E+01  0.58397572938E-01  0.31372535118E+01  0.00000000000E+00 0.  1.
</event>
<event>
 7    1  0.2958875E-009  0.4778727E+02  0.7816164E-02  0.1312668E+00
        -11   -1    0    0    0    0  0.00000000000E+00  0.00000000000E+00  0.45593999997E+02  0.45594000000E+02  0.51100000000E-03 0.  1.
         11   -1    0    0    0    0 -0.00000000000E+00 -0.00000000000E+00 -0.45593999997E+02  0.45594000000E+02  0.51100000000E-03 0. -1.
    9900012    2    1    2    0    0 -0.28309133286E+02  0.18702605654E+02 -0.27063424045E+02  0.47787269515E+02  0.19999993026E+02 0.  0.
        -12    1    1    2    0    0  0.28309133286E+02 -0.18702605654E+02  0.27063424045E+02  0.43400730485E+02  0.00000000000E+00 0.  1.
         11    1    3    3    0    0 -0.21690741081E+02  0.15036588196E+02 -0.21624951047E+02  0.34120752355E+02  0.51100000000E-03 0. -1.
        -11    1    3    3    0    0 -0.30475438973E+01  0.40680874819E+01  0.19550429465E+01  0.54460125551E+01  0.51100000000E-03 0.  1.
        -12    1    3    3    0    0 -0.35708483077E+01 -0.40207002451E+00 -0.73935159440E+01  0.82205046046E+01  0.00000000000E+00 0.  1.
</event>
<event>
 7    1  0.2430096E-009  0.4778726E+02  0.7816164E-02  0.1312668E+00
        -11   -1    0    0    0    0  0.00000000000E+00  0.00000000000E+00  0.45593999997E+02  0.45594000000E+02  0.51100000000E-03 0.  1.
         11   -1    0    0    0    0 -0.00000000000E+00 -0.00000000000E+00 -0.45593999997E+02  0.45594000000E+02  0.51100000000E-03 0. -1.
    9900012    2    1    2    0    0  0.24209659314E+02 -0.18612253287E+02 -0.30839922843E+02  0.47787257869E+02  0.19999939929E+02 0.  0.
        -12    1    1    2    0    0 -0.24209659314E+02  0.18612253287E+02  0.30839922843E+02  0.43400742131E+02  0.00000000000E+00 0.  1.
         11    1    3    3    0    0  0.16914427268E+02 -0.33474361253E+01 -0.21536720509E+02  0.27588648190E+02  0.51100000000E-03 0. -1.
        -11    1    3    3    0    0  0.36437750086E+01 -0.12086262550E+02 -0.86747975501E+01  0.15316884524E+02  0.51100000000E-03 0.  1.
         12    1    3    3    0    0  0.36514570376E+01 -0.31785546121E+01 -0.62840478482E+00  0.48817251554E+01  0.00000000000E+00 0. -1.
</event>
<event>
 7    1  0.2430096E-009  0.4778727E+02  0.7816164E-02  0.1312668E+00
        -11   -1    0    0    0    0  0.00000000000E+00  0.00000000000E+00  0.45593999997E+02  0.45594000000E+02  0.51100000000E-03 0. -1.
         11   -1    0    0    0    0 -0.00000000000E+00 -0.00000000000E+00 -0.45593999997E+02  0.45594000000E+02  0.51100000000E-03 0.  1.
    9900012    2    1    2    0    0 -0.36028120570E+02 -0.13317510013E+02  0.20204985813E+02  0.47787274240E+02  0.20000014571E+02 0.  0.
        -12    1    1    2    0    0  0.36028120570E+02  0.13317510013E+02 -0.20204985813E+02  0.43400725760E+02  0.00000000000E+00 0.  1.
         11    1    3    3    0    0 -0.21882397830E+02 -0.63423290812E+00  0.17930449908E+02  0.28297396000E+02  0.51100000000E-03 0. -1.
        -11    1    3    3    0    0 -0.11481551966E+02 -0.94010123599E+01  0.34600392641E+00  0.14843341535E+02  0.51100000000E-03 0.  1.
         12    1    3    3    0    0 -0.26641707733E+01 -0.32822647450E+01  0.19285319789E+01  0.46465367059E+01  0.00000000000E+00 0. -1.
</event>
<event>
 7    1  0.2430096E-009  0.4778727E+02  0.7816164E-02  0.1312668E+00
        -11   -1    0    0    0    0  0.00000000000E+00  0.00000000000E+00  0.45593999997E+02  0.45594000000E+02  0.51100000000E-03 0.  1.
         11   -1    0    0    0    0 -0.00000000000E+00 -0.00000000000E+00 -0.45593999997E+02  0.45594000000E+02  0.51100000000E-03 0. -1.
    9900012    2    1    2    0    0 -0.79255409355E+01  0.17886299539E+02 -0.38741313306E+02  0.47787271124E+02  0.20000000362E+02 0.  0.
        -12    1    1    2    0    0  0.79255409355E+01 -0.17886299539E+02  0.38741313306E+02  0.43400728876E+02  0.00000000000E+00 0.  1.
         11    1    3    3    0    0 -0.15858933802E+01  0.15106539651E+01 -0.18724823015E+02  0.18852483401E+02  0.51100000000E-03 0. -1.
        -11    1    3    3    0    0 -0.95367462945E+01  0.13762165807E+02 -0.15525674764E+02  0.22834038511E+02  0.51100000000E-03 0.  1.
         12    1    3    3    0    0  0.31970987393E+01  0.26134797669E+01 -0.44908155276E+01  0.61007492117E+01  0.00000000000E+00 0. -1.
</event>
<event>
 7    1  0.2430096E-009  0.4778727E+02  0.7816164E-02  0.1312668E+00
        -11   -1    0    0    0    0  0.00000000000E+00  0.00000000000E+00  0.45593999997E+02  0.45594000000E+02  0.51100000000E-03 0. -1.
         11   -1    0    0    0    0 -0.00000000000E+00 -0.00000000000E+00 -0.45593999997E+02  0.45594000000E+02  0.51100000000E-03 0.  1.
    9900012    2    1    2    0    0 -0.33899238541E+02 -0.16410514658E+02  0.21567566630E+02  0.47787270798E+02  0.19999998875E+02 0.  0.
        -12    1    1    2    0    0  0.33899238541E+02  0.16410514658E+02 -0.21567566630E+02  0.43400729202E+02  0.00000000000E+00 0.  1.
         11    1    3    3    0    0 -0.22565352772E+02 -0.16728812648E+01  0.69256457599E+01  0.23663436921E+02  0.51100000000E-03 0. -1.
        -11    1    3    3    0    0 -0.83464852197E+01 -0.10687153975E+02  0.78438055709E+01  0.15665387378E+02  0.51100000000E-03 0.  1.
         12    1    3    3    0    0 -0.29874005490E+01 -0.40504794182E+01  0.67981152991E+01  0.84584464990E+01  0.00000000000E+00 0. -1.
</event>
<event>
 7    1  0.2430096E-009  0.4778727E+02  0.7816164E-02  0.1312668E+00
        -11   -1    0    0    0    0  0.00000000000E+00  0.00000000000E+00  0.45593999997E+02  0.45594000000E+02  0.51100000000E-03 0.  1.
         11   -1    0    0    0    0 -0.00000000000E+00 -0.00000000000E+00 -0.45593999997E+02  0.45594000000E+02  0.51100000000E-03 0. -1.
    9900012    2    1    2    0    0 -0.84691196664E+01 -0.25637521453E+01 -0.42489107145E+02  0.47787273751E+02  0.20000012339E+02 0.  0.
        -12    1    1    2    0    0  0.84691196664E+01  0.25637521453E+01  0.42489107145E+02  0.43400726249E+02  0.00000000000E+00 0.  1.
         11    1    3    3    0    0 -0.23108522783E+01 -0.27332251331E+01 -0.17437424934E+02  0.17800964763E+02  0.51100000000E-03 0. -1.
        -11    1    3    3    0    0  0.49401337612E+01 -0.15316473780E+01 -0.93168160892E+01  0.10656168522E+02  0.51100000000E-03 0.  1.
        -12    1    3    3    0    0 -0.11098401149E+02  0.17011203657E+01 -0.15734866122E+02  0.19330140466E+02  0.00000000000E+00 0.  1.
</event>
<event>
 7    1  0.2430096E-009  0.4778727E+02  0.7816164E-02  0.1312668E+00
        -11   -1    0    0    0    0  0.00000000000E+00  0.00000000000E+00  0.45593999997E+02  0.45594000000E+02  0.51100000000E-03 0. -1.
         11   -1    0    0    0    0 -0.00000000000E+00 -0.00000000000E+00 -0.45593999997E+02  0.45594000000E+02  0.51100000000E-03 0.  1.
    9900012    2    1    2    0    0  0.67492083651E+01  0.42154653580E+02  0.78138797279E+01  0.47787270186E+02  0.19999996087E+02 0.  0.
        -12    1    1    2    0    0 -0.67492083651E+01 -0.42154653580E+02 -0.78138797279E+01  0.43400729814E+02  0.00000000000E+00 0.  1.
         11    1    3    3    0    0  0.19183868437E+01  0.38035569090E+02  0.49416017514E+01  0.38403178934E+02  0.51100000000E-03 0. -1.
        -11    1    3    3    0    0  0.33691479244E+01  0.12443092491E+01 -0.15491584284E+01  0.39114390371E+01  0.51100000000E-03 0.  1.
         12    1    3    3    0    0  0.14616735970E+01  0.28747752402E+01  0.44214364048E+01  0.54726522151E+01  0.00000000000E+00 0. -1.
</event>
<event>
 7    1  0.2430096E-009  0.4778727E+02  0.7816164E-02  0.1312668E+00
        -11   -1    0    0    0    0  0.00000000000E+00  0.00000000000E+00  0.45593999997E+02  0.45594000000E+02  0.51100000000E-03 0.  1.
         11   -1    0    0    0    0 -0.00000000000E+00 -0.00000000000E+00 -0.45593999997E+02  0.45594000000E+02  0.51100000000E-03 0. -1.
    9900012    2    1    2    0    0  0.71828780637E+01  0.42494265059E+02  0.51251518074E+01  0.47787268655E+02  0.19999989107E+02 0.  0.
        -12    1    1    2    0    0 -0.71828780637E+01 -0.42494265059E+02 -0.51251518074E+01  0.43400731345E+02  0.00000000000E+00 0.  1.
         11    1    3    3    0    0  0.42625959562E+01  0.19462345061E+01  0.36624039097E+01  0.59473318133E+01  0.51100000000E-03 0.  1.
        -11    1    3    3    0    0 -0.20248740125E+01  0.21126256590E+02  0.41318169771E+01  0.21621534267E+02  0.51100000000E-03 0. -1.
         12    1    3    3    0    0  0.49451561199E+01  0.19421773963E+02 -0.26690690794E+01  0.20218402575E+02  0.00000000000E+00 0. -1.
</event>
<event>
 7    1  0.2430096E-009  0.4778728E+02  0.7816164E-02  0.1312668E+00
        -11   -1    0    0    0    0  0.00000000000E+00  0.00000000000E+00  0.45593999997E+02  0.45594000000E+02  0.51100000000E-03 0.  1.
         11   -1    0    0    0    0 -0.00000000000E+00 -0.00000000000E+00 -0.45593999997E+02  0.45594000000E+02  0.51100000000E-03 0. -1.
    9900012    2    1    2    0    0 -0.84944898709E+01 -0.99295997785E+01 -0.41386827718E+02  0.47787276290E+02  0.20000023918E+02 0.  0.
        -12    1    1    2    0    0  0.84944898709E+01  0.99295997785E+01  0.41386827718E+02  0.43400723710E+02  0.00000000000E+00 0.  1.
         11    1    3    3    0    0 -0.31251433973E+01 -0.30322555509E+01 -0.20396961555E+02  0.20856584954E+02  0.51100000000E-03 0. -1.
        -11    1    3    3    0    0  0.38573944921E+01 -0.24565977450E+01 -0.13278946130E+01  0.47621076335E+01  0.51100000000E-03 0.  1.
        -12    1    3    3    0    0 -0.92267409657E+01 -0.44407464827E+01 -0.19661971550E+02  0.22168583703E+02  0.00000000000E+00 0.  1.
</event>
<event>
 7    1  0.2430096E-009  0.4778727E+02  0.7816164E-02  0.1312668E+00
        -11   -1    0    0    0    0  0.00000000000E+00  0.00000000000E+00  0.45593999997E+02  0.45594000000E+02  0.51100000000E-03 0. -1.
         11   -1    0    0    0    0 -0.00000000000E+00 -0.00000000000E+00 -0.45593999997E+02  0.45594000000E+02  0.51100000000E-03 0.  1.
    9900012    2    1    2    0    0  0.41624684528E+02  0.81832239803E+01  0.91675267908E+01  0.47787273459E+02  0.20000011011E+02 0.  0.
        -12    1    1    2    0    0 -0.41624684528E+02 -0.81832239803E+01 -0.91675267908E+01  0.43400726541E+02  0.00000000000E+00 0.  1.
         11    1    3    3    0    0  0.15482108525E+02 -0.38511046350E+01  0.19226220701E+01  0.16069323794E+02  0.51100000000E-03 0. -1.
        -11    1    3    3    0    0  0.10738312165E+02  0.62303889391E+01  0.87490558548E+01  0.15187991082E+02  0.51100000000E-03 0.  1.
         12    1    3    3    0    0  0.15404263838E+02  0.58039396762E+01 -0.15041511342E+01  0.16529958584E+02  0.00000000000E+00 0. -1.
</event>
<event>
 7    1  0.2430096E-009  0.4778729E+02  0.7816164E-02  0.1312668E+00
        -11   -1    0    0    0    0  0.00000000000E+00  0.00000000000E+00  0.45593999997E+02  0.45594000000E+02  0.51100000000E-03 0. -1.
         11   -1    0    0    0    0 -0.00000000000E+00 -0.00000000000E+00 -0.45593999997E+02  0.45594000000E+02  0.51100000000E-03 0.  1.
    9900012    2    1    2    0    0 -0.18194207920E+02  0.20350357909E+02  0.33741003697E+02  0.47787290336E+02  0.20000087960E+02 0.  0.
        -12    1    1    2    0    0  0.18194207920E+02 -0.20350357909E+02 -0.33741003697E+02  0.43400709664E+02  0.00000000000E+00 0.  1.
         11    1    3    3    0    0 -0.12684794755E+02  0.14541556414E+02  0.28766907605E+02  0.34639512905E+02  0.51100000000E-03 0. -1.
        -11    1    3    3    0    0  0.18639187247E+01  0.42398180194E+01  0.19613542092E+01  0.50296282611E+01  0.51100000000E-03 0.  1.
         12    1    3    3    0    0 -0.73733318892E+01  0.15689834760E+01  0.30127418824E+01  0.81181491700E+01  0.00000000000E+00 0. -1.
</event>
<event>
 7    1  0.2430096E-009  0.4778728E+02  0.7816164E-02  0.1312668E+00
        -11   -1    0    0    0    0  0.00000000000E+00  0.00000000000E+00  0.45593999997E+02  0.45594000000E+02  0.51100000000E-03 0. -1.
         11   -1    0    0    0    0 -0.00000000000E+00 -0.00000000000E+00 -0.45593999997E+02  0.45594000000E+02  0.51100000000E-03 0.  1.
    9900012    2    1    2    0    0 -0.39137977911E+02  0.32398175273E+01 -0.18475525641E+02  0.47787276731E+02  0.20000025927E+02 0.  0.
        -12    1    1    2    0    0  0.39137977911E+02 -0.32398175273E+01  0.18475525641E+02  0.43400723269E+02  0.00000000000E+00 0.  1.
         11    1    3    3    0    0 -0.30381458373E+02  0.51787329687E+01 -0.20739595129E+02  0.37148123700E+02  0.51100000000E-03 0. -1.
        -11    1    3    3    0    0  0.70972840492E+00 -0.36656788302E+00  0.14093755125E+00  0.81114121834E+00  0.51100000000E-03 0.  1.
         12    1    3    3    0    0 -0.94662479429E+01 -0.15723475584E+01  0.21231319376E+01  0.98280118125E+01  0.00000000000E+00 0. -1.
</event>
<event>
 7    1  0.2430096E-009  0.4778727E+02  0.7816164E-02  0.1312668E+00
        -11   -1    0    0    0    0  0.00000000000E+00  0.00000000000E+00  0.45593999997E+02  0.45594000000E+02  0.51100000000E-03 0.  1.
         11   -1    0    0    0    0 -0.00000000000E+00 -0.00000000000E+00 -0.45593999997E+02  0.45594000000E+02  0.51100000000E-03 0. -1.
    9900012    2    1    2    0    0 -0.31774251105E+02 -0.26242746688E+01 -0.29447133319E+02  0.47787268307E+02  0.19999987519E+02 0.  0.
        -12    1    1    2    0    0  0.31774251105E+02  0.26242746688E+01  0.29447133319E+02  0.43400731693E+02  0.00000000000E+00 0.  1.
         11    1    3    3    0    0 -0.25111536101E+02 -0.51523633650E+01 -0.20874886069E+02  0.33058992154E+02  0.51100000000E-03 0. -1.
        -11    1    3    3    0    0 -0.26999835626E+01  0.39927469097E+01 -0.92681920436E+01  0.10446593854E+02  0.51100000000E-03 0.  1.
        -12    1    3    3    0    0 -0.39627314412E+01 -0.14646582135E+01  0.69594479359E+00  0.42816822994E+01  0.00000000000E+00 0.  1.
</event>
<event>
 7    1  0.2430096E-009  0.4778727E+02  0.7816164E-02  0.1312668E+00
        -11   -1    0    0    0    0  0.00000000000E+00  0.00000000000E+00  0.45593999997E+02  0.45594000000E+02  0.51100000000E-03 0.  1.
         11   -1    0    0    0    0 -0.00000000000E+00 -0.00000000000E+00 -0.45593999997E+02  0.45594000000E+02  0.51100000000E-03 0. -1.
    9900012    2    1    2    0    0  0.26886303745E+02 -0.39537030608E+01 -0.33839592418E+02  0.47787272910E+02  0.20000008504E+02 0.  0.
        -12    1    1    2    0    0 -0.26886303745E+02  0.39537030608E+01  0.33839592418E+02  0.43400727090E+02  0.00000000000E+00 0.  1.
         11    1    3    3    0    0  0.86949531032E+01  0.28467785657E+01 -0.12077575147E+01  0.92284904586E+01  0.51100000000E-03 0. -1.
        -11    1    3    3    0    0  0.60667946656E+00 -0.99166768389E+00 -0.15494668378E+00  0.11728058264E+01  0.51100000000E-03 0.  1.
         12    1    3    3    0    0  0.17584671175E+02 -0.58088139426E+01 -0.32476888220E+02  0.37385976625E+02  0.00000000000E+00 0. -1.
</event>
<event>
 7    1  0.2430096E-009  0.4778727E+02  0.7816164E-02  0.1312668E+00
        -11   -1    0    0    0    0  0.00000000000E+00  0.00000000000E+00  0.45593999997E+02  0.45594000000E+02  0.51100000000E-03 0. -1.
         11   -1    0    0    0    0 -0.00000000000E+00 -0.00000000000E+00 -0.45593999997E+02  0.45594000000E+02  0.51100000000E-03 0.  1.
    9900012    2    1    2    0    0 -0.18902380410E+02  0.18544236166E+02  0.34386546335E+02  0.47787271331E+02  0.20000001308E+02 0.  0.
        -12    1    1    2    0    0  0.18902380410E+02 -0.18544236166E+02 -0.34386546335E+02  0.43400728669E+02  0.00000000000E+00 0.  1.
         11    1    3    3    0    0 -0.21989534542E+01  0.89644843489E+01  0.15695607392E+02  0.18208499872E+02  0.51100000000E-03 0. -1.
        -11    1    3    3    0    0 -0.16969948887E+02  0.85440860699E+01  0.20198693831E+02  0.27730268746E+02  0.51100000000E-03 0.  1.
        -12    1    3    3    0    0  0.26652193127E+00  0.10356657473E+01 -0.15077548876E+01  0.18485027133E+01  0.00000000000E+00 0.  1.
</event>
<event>
 7    1  0.2430096E-009  0.4778727E+02  0.7816164E-02  0.1312668E+00
        -11   -1    0    0    0    0  0.00000000000E+00  0.00000000000E+00  0.45593999997E+02  0.45594000000E+02  0.51100000000E-03 0. -1.
         11   -1    0    0    0    0 -0.00000000000E+00 -0.00000000000E+00 -0.45593999997E+02  0.45594000000E+02  0.51100000000E-03 0.  1.
    9900012    2    1    2    0    0  0.19954701234E+02 -0.16848429159E+02  0.34663584521E+02  0.47787265464E+02  0.19999974555E+02 0.  0.
        -12    1    1    2    0    0 -0.19954701234E+02  0.16848429159E+02 -0.34663584521E+02  0.43400734536E+02  0.00000000000E+00 0.  1.
         11    1    3    3    0    0  0.39896770982E+01 -0.41854800649E+01  0.19884258605E+02  0.20707957583E+02  0.51100000000E-03 0.  1.
        -11    1    3    3    0    0  0.95388609150E+01 -0.58521835365E+01  0.13644652066E+02  0.17646938827E+02  0.51100000000E-03 0. -1.
         12    1    3    3    0    0  0.64261632205E+01 -0.68107655573E+01  0.11346738495E+01  0.94323690533E+01  0.00000000000E+00 0. -1.
</event>
<event>
 7    1  0.2430096E-009  0.4778727E+02  0.7816164E-02  0.1312668E+00
        -11   -1    0    0    0    0  0.00000000000E+00  0.00000000000E+00  0.45593999997E+02  0.45594000000E+02  0.51100000000E-03 0.  1.
         11   -1    0    0    0    0 -0.00000000000E+00 -0.00000000000E+00 -0.45593999997E+02  0.45594000000E+02  0.51100000000E-03 0. -1.
    9900012    2    1    2    0    0 -0.36976403479E+02  0.36278008795E+01 -0.22432304193E+02  0.47787267001E+02  0.19999981564E+02 0.  0.
        -12    1    1    2    0    0  0.36976403479E+02 -0.36278008795E+01  0.22432304193E+02  0.43400732999E+02  0.00000000000E+00 0.  1.
         11    1    3    3    0    0 -0.20521477173E+02  0.36039266039E+01 -0.14266171422E+02  0.25251593209E+02  0.51100000000E-03 0. -1.
        -11    1    3    3    0    0 -0.31749391953E+01 -0.55784540639E+01 -0.12107126657E+01  0.65318614542E+01  0.51100000000E-03 0.  1.
        -12    1    3    3    0    0 -0.13279987111E+02  0.56023283395E+01 -0.69554201052E+01  0.16003812337E+02  0.00000000000E+00 0.  1.
</event>
<event>
 7    1  0.2477317E-009  0.4778727E+02  0.7816164E-02  0.1312668E+00
        -11   -1    0    0    0    0  0.00000000000E+00  0.00000000000E+00  0.45593999997E+02  0.45594000000E+02  0.51100000000E-03 0. -1.
         11   -1    0    0    0    0 -0.00000000000E+00 -0.00000000000E+00 -0.45593999997E+02  0.45594000000E+02  0.51100000000E-03 0.  1.
    9900012    2    1    2    0    0  0.13071493399E+02 -0.23407599876E+02  0.34129806872E+02  0.47787269721E+02  0.19999993965E+02 0.  0.
        -12    1    1    2    0    0 -0.13071493399E+02  0.23407599876E+02 -0.34129806872E+02  0.43400730279E+02  0.00000000000E+00 0.  1.
         11    1    3    3    0    0  0.63363107994E+01 -0.51930133403E+01  0.17925413915E+02  0.19708797182E+02  0.51100000000E-03 0. -1.
        -11    1    3    3    0    0  0.37849652298E+01 -0.10057495787E+02  0.12876358462E+01  0.10822993562E+02  0.51100000000E-03 0.  1.
        -12    1    3    3    0    0  0.29502173694E+01 -0.81570907484E+01  0.14916757111E+02  0.17255478977E+02  0.00000000000E+00 0.  1.
</event>
<event>
 7    1  0.2430096E-009  0.4778728E+02  0.7816164E-02  0.1312668E+00
        -11   -1    0    0    0    0  0.00000000000E+00  0.00000000000E+00  0.45593999997E+02  0.45594000000E+02  0.51100000000E-03 0.  1.
         11   -1    0    0    0    0 -0.00000000000E+00 -0.00000000000E+00 -0.45593999997E+02  0.45594000000E+02  0.51100000000E-03 0. -1.
    9900012    2    1    2    0    0 -0.28359611578E+01 -0.35403349459E+02 -0.24943598184E+02  0.47787275133E+02  0.20000018641E+02 0.  0.
        -12    1    1    2    0    0  0.28359611578E+01  0.35403349459E+02  0.24943598184E+02  0.43400724867E+02  0.00000000000E+00 0.  1.
         11    1    3    3    0    0 -0.12449949113E+01 -0.76143492407E+01 -0.60148594561E+01  0.97829883587E+01  0.51100000000E-03 0. -1.
        -11    1    3    3    0    0  0.79150076505E+01 -0.98429769192E+01 -0.66818323547E+01  0.14289101603E+02  0.51100000000E-03 0.  1.
        -12    1    3    3    0    0 -0.95059738970E+01 -0.17946023299E+02 -0.12246906373E+02  0.23715185171E+02  0.00000000000E+00 0.  1.
</event>
<event>
 7    1  0.2430096E-009  0.4778727E+02  0.7816164E-02  0.1312668E+00
        -11   -1    0    0    0    0  0.00000000000E+00  0.00000000000E+00  0.45593999997E+02  0.45594000000E+02  0.51100000000E-03 0.  1.
         11   -1    0    0    0    0 -0.00000000000E+00 -0.00000000000E+00 -0.45593999997E+02  0.45594000000E+02  0.51100000000E-03 0. -1.
    9900012    2    1    2    0    0 -0.24687347312E+01 -0.41953809483E+02 -0.10835450885E+02  0.47787265245E+02  0.19999973560E+02 0.  0.
        -12    1    1    2    0    0  0.24687347312E+01  0.41953809483E+02  0.10835450885E+02  0.43400734755E+02  0.00000000000E+00 0.  1.
         11    1    3    3    0    0 -0.80875600214E+00 -0.13500027159E+02 -0.71925893748E+01  0.15317903307E+02  0.51100000000E-03 0. -1.
        -11    1    3    3    0    0 -0.66230836850E+01 -0.23549209052E+02  0.28033169505E+00  0.24464445029E+02  0.51100000000E-03 0.  1.
        -12    1    3    3    0    0  0.49631049559E+01 -0.49045732730E+01 -0.39231932056E+01  0.80049169091E+01  0.00000000000E+00 0.  1.
</event>
<event>
 7    1  0.2430096E-009  0.4778730E+02  0.7816164E-02  0.1312668E+00
        -11   -1    0    0    0    0  0.00000000000E+00  0.00000000000E+00  0.45593999997E+02  0.45594000000E+02  0.51100000000E-03 0.  1.
         11   -1    0    0    0    0 -0.00000000000E+00 -0.00000000000E+00 -0.45593999997E+02  0.45594000000E+02  0.51100000000E-03 0. -1.
    9900012    2    1    2    0    0  0.41714523327E+02 -0.40587087281E+01 -0.11271472616E+02  0.47787301067E+02  0.20000136883E+02 0.  0.
        -12    1    1    2    0    0 -0.41714523327E+02  0.40587087281E+01  0.11271472616E+02  0.43400698933E+02  0.00000000000E+00 0.  1.
         11    1    3    3    0    0  0.18103754833E+02 -0.24560177137E+01 -0.56895701627E+01  0.19135024718E+02  0.51100000000E-03 0. -1.
        -11    1    3    3    0    0  0.10277599754E+02 -0.52312357735E+00 -0.10211011040E+02  0.14497153572E+02  0.51100000000E-03 0.  1.
        -12    1    3    3    0    0  0.13333168740E+02 -0.10795674370E+01  0.46291085864E+01  0.14155122776E+02  0.00000000000E+00 0.  1.
</event>
<event>
 7    1  0.2430096E-009  0.4778727E+02  0.7816164E-02  0.1312668E+00
        -11   -1    0    0    0    0  0.00000000000E+00  0.00000000000E+00  0.45593999997E+02  0.45594000000E+02  0.51100000000E-03 0.  1.
         11   -1    0    0    0    0 -0.00000000000E+00 -0.00000000000E+00 -0.45593999997E+02  0.45594000000E+02  0.51100000000E-03 0. -1.
    9900012    2    1    2    0    0  0.27617541569E+02 -0.98162946825E+01 -0.32008360691E+02  0.47787269618E+02  0.19999993496E+02 0.  0.
        -12    1    1    2    0    0 -0.27617541569E+02  0.98162946825E+01  0.32008360691E+02  0.43400730382E+02  0.00000000000E+00 0.  1.
         11    1    3    3    0    0  0.12724913303E+02 -0.21738291098E+01 -0.98093355613E+01  0.16213328344E+02  0.51100000000E-03 0. -1.
        -11    1    3    3    0    0  0.12062389108E+02 -0.45098832098E+01 -0.49185362269E+01  0.13785219492E+02  0.51100000000E-03 0.  1.
        -12    1    3    3    0    0  0.28302391579E+01 -0.31325823628E+01 -0.17280488902E+02  0.17788721783E+02  0.00000000000E+00 0.  1.
</event>
<event>
 7    1  0.2430096E-009  0.4778727E+02  0.7816164E-02  0.1312668E+00
        -11   -1    0    0    0    0  0.00000000000E+00  0.00000000000E+00  0.45593999997E+02  0.45594000000E+02  0.51100000000E-03 0.  1.
         11   -1    0    0    0    0 -0.00000000000E+00 -0.00000000000E+00 -0.45593999997E+02  0.45594000000E+02  0.51100000000E-03 0. -1.
    9900012    2    1    2    0    0  0.15818802467E+02 -0.16893005261E+02 -0.36715325617E+02  0.47787271050E+02  0.20000000023E+02 0.  0.
        -12    1    1    2    0    0 -0.15818802467E+02  0.16893005261E+02  0.36715325617E+02  0.43400728950E+02  0.00000000000E+00 0.  1.
         11    1    3    3    0    0 -0.10134857730E+01 -0.73907969455E+01 -0.13025465191E+02  0.15010455576E+02  0.51100000000E-03 0. -1.
        -11    1    3    3    0    0  0.65387644218E+01  0.25062202167E+00 -0.19622946627E+01  0.68314604709E+01  0.51100000000E-03 0.  1.
         12    1    3    3    0    0  0.10293523819E+02 -0.97528303370E+01 -0.21727565764E+02  0.25945355003E+02  0.00000000000E+00 0. -1.
</event>
<event>
 7    1  0.2430096E-009  0.4778729E+02  0.7816164E-02  0.1312668E+00
        -11   -1    0    0    0    0  0.00000000000E+00  0.00000000000E+00  0.45593999997E+02  0.45594000000E+02  0.51100000000E-03 0. -1.
         11   -1    0    0    0    0 -0.00000000000E+00 -0.00000000000E+00 -0.45593999997E+02  0.45594000000E+02  0.51100000000E-03 0.  1.
    9900012    2    1    2    0    0  0.11605165605E+02  0.12819173734E+02  0.39807170832E+02  0.47787286485E+02  0.20000070399E+02 0.  0.
        -12    1    1    2    0    0 -0.11605165605E+02 -0.12819173734E+02 -0.39807170832E+02  0.43400713515E+02  0.00000000000E+00 0.  1.
         11    1    3    3    0    0  0.65818394580E+01  0.10321977334E+02  0.17478170417E+02  0.21338937839E+02  0.51100000000E-03 0. -1.
        -11    1    3    3    0    0  0.12728766561E-01 -0.50546223851E+01  0.91614410156E+01  0.10463334613E+02  0.51100000000E-03 0.  1.
        -12    1    3    3    0    0  0.50105973806E+01  0.75518187853E+01  0.13167559400E+02  0.15985014033E+02  0.00000000000E+00 0.  1.
</event>
<event>
 7    1  0.2430096E-009  0.4778727E+02  0.7816164E-02  0.1312668E+00
        -11   -1    0    0    0    0  0.00000000000E+00  0.00000000000E+00  0.45593999997E+02  0.45594000000E+02  0.51100000000E-03 0.  1.
         11   -1    0    0    0    0 -0.00000000000E+00 -0.00000000000E+00 -0.45593999997E+02  0.45594000000E+02  0.51100000000E-03 0. -1.
    9900012    2    1    2    0    0  0.20950397321E+02  0.24563913789E+02 -0.29005490265E+02  0.47787268738E+02  0.19999989485E+02 0.  0.
        -12    1    1    2    0    0 -0.20950397321E+02 -0.24563913789E+02  0.29005490265E+02  0.43400731262E+02  0.00000000000E+00 0.  1.
         11    1    3    3    0    0  0.57783695085E+01  0.67089335973E+00 -0.24890042698E+01  0.63273054765E+01  0.51100000000E-03 0. -1.
        -11    1    3    3    0    0  0.62036276422E+01  0.28490757449E+01 -0.13531970476E+02  0.15156399762E+02  0.51100000000E-03 0.  1.
        -12    1    3    3    0    0  0.89684001705E+01  0.21043944685E+02 -0.12984515519E+02  0.26303563499E+02  0.00000000000E+00 0.  1.
</event>
<event>
 7    1  0.2430096E-009  0.4778727E+02  0.7816164E-02  0.1312668E+00
        -11   -1    0    0    0    0  0.00000000000E+00  0.00000000000E+00  0.45593999997E+02  0.45594000000E+02  0.51100000000E-03 0.  1.
         11   -1    0    0    0    0 -0.00000000000E+00 -0.00000000000E+00 -0.45593999997E+02  0.45594000000E+02  0.51100000000E-03 0. -1.
    9900012    2    1    2    0    0 -0.80225666683E+01  0.73043994840E+01 -0.42022706370E+02  0.47787266384E+02  0.19999978749E+02 0.  0.
        -12    1    1    2    0    0  0.80225666683E+01 -0.73043994840E+01  0.42022706370E+02  0.43400733616E+02  0.00000000000E+00 0.  1.
         11    1    3    3    0    0 -0.10834116978E+02 -0.23369401930E+01 -0.28109591986E+02  0.30215700257E+02  0.51100000000E-03 0. -1.
        -11    1    3    3    0    0  0.84133545028E+00  0.39707596191E+00 -0.26000860647E+00  0.96598105363E+00  0.51100000000E-03 0.  1.
         12    1    3    3    0    0  0.19702148593E+01  0.92442637151E+01 -0.13653105778E+02  0.16605585073E+02  0.00000000000E+00 0. -1.
</event>
<event>
 7    1  0.2430096E-009  0.4778727E+02  0.7816164E-02  0.1312668E+00
        -11   -1    0    0    0    0  0.00000000000E+00  0.00000000000E+00  0.45593999997E+02  0.45594000000E+02  0.51100000000E-03 0.  1.
         11   -1    0    0    0    0 -0.00000000000E+00 -0.00000000000E+00 -0.45593999997E+02  0.45594000000E+02  0.51100000000E-03 0. -1.
    9900012    2    1    2    0    0  0.15981973924E+02  0.28404249283E+02 -0.28660048920E+02  0.47787271066E+02  0.20000000100E+02 0.  0.
        -12    1    1    2    0    0 -0.15981973924E+02 -0.28404249283E+02  0.28660048920E+02  0.43400728934E+02  0.00000000000E+00 0.  1.
         11    1    3    3    0    0  0.11126918494E+02  0.20167449281E+02 -0.22623388824E+02  0.32285477352E+02  0.51100000000E-03 0. -1.
        -11    1    3    3    0    0  0.39595089582E+01 -0.39270336515E+00  0.12513468759E+01  0.41710665768E+01  0.51100000000E-03 0.  1.
         12    1    3    3    0    0  0.89554647148E+00  0.86295033675E+01 -0.72880069718E+01  0.11330727138E+02  0.00000000000E+00 0. -1.
</event>
<event>
 7    1  0.2430096E-009  0.4778727E+02  0.7816164E-02  0.1312668E+00
        -11   -1    0    0    0    0  0.00000000000E+00  0.00000000000E+00  0.45593999997E+02  0.45594000000E+02  0.51100000000E-03 0.  1.
         11   -1    0    0    0    0 -0.00000000000E+00 -0.00000000000E+00 -0.45593999997E+02  0.45594000000E+02  0.51100000000E-03 0. -1.
    9900012    2    1    2    0    0 -0.37273011467E+02 -0.21862267241E+02 -0.40481249327E+01  0.47787269266E+02  0.19999991893E+02 0.  0.
        -12    1    1    2    0    0  0.37273011467E+02  0.21862267241E+02  0.40481249327E+01  0.43400730734E+02  0.00000000000E+00 0.  1.
         11    1    3    3    0    0 -0.23965762622E+02 -0.15159385613E+02  0.20981090622E+01  0.28435309249E+02  0.51100000000E-03 0. -1.
        -11    1    3    3    0    0 -0.13310621324E+02 -0.51952697309E+01 -0.84489270920E+01  0.16599633637E+02  0.51100000000E-03 0.  1.
        -12    1    3    3    0    0  0.33724781447E-02 -0.15076118964E+01  0.23026930971E+01  0.27523263802E+01  0.00000000000E+00 0.  1.
</event>
<event>
 7    1  0.2430096E-009  0.4778729E+02  0.7816164E-02  0.1312668E+00
        -11   -1    0    0    0    0  0.00000000000E+00  0.00000000000E+00  0.45593999997E+02  0.45594000000E+02  0.51100000000E-03 0.  1.
         11   -1    0    0    0    0 -0.00000000000E+00 -0.00000000000E+00 -0.45593999997E+02  0.45594000000E+02  0.51100000000E-03 0. -1.
    9900012    2    1    2    0    0 -0.30148343074E+02  0.38863785361E+01 -0.30977326899E+02  0.47787293669E+02  0.20000103156E+02 0.  0.
        -12    1    1    2    0    0  0.30148343074E+02 -0.38863785361E+01  0.30977326899E+02  0.43400706331E+02  0.00000000000E+00 0.  1.
         11    1    3    3    0    0 -0.23783592062E+02 -0.30669249110E+00 -0.22401775522E+02  0.32674039518E+02  0.51100000000E-03 0. -1.
        -11    1    3    3    0    0 -0.22242622444E+01  0.22368851034E+01  0.18985968819E+01  0.36818022596E+01  0.51100000000E-03 0.  1.
         12    1    3    3    0    0 -0.41404887671E+01  0.19561859238E+01 -0.10474148259E+02  0.11431451891E+02  0.00000000000E+00 0. -1.
</event>
<event>
 7    1  0.2430096E-009  0.4778727E+02  0.7816164E-02  0.1312668E+00
        -11   -1    0    0    0    0  0.00000000000E+00  0.00000000000E+00  0.45593999997E+02  0.45594000000E+02  0.51100000000E-03 0. -1.
         11   -1    0    0    0    0 -0.00000000000E+00 -0.00000000000E+00 -0.45593999997E+02  0.45594000000E+02  0.51100000000E-03 0.  1.
    9900012    2    1    2    0    0 -0.24073933398E+02 -0.29831051847E+02  0.20351343005E+02  0.47787273213E+02  0.20000009886E+02 0.  0.
        -12    1    1    2    0    0  0.24073933398E+02  0.29831051847E+02 -0.20351343005E+02  0.43400726787E+02  0.00000000000E+00 0.  1.
         11    1    3    3    0    0 -0.30122834405E+01 -0.71193423649E+01  0.58010268463E+01  0.96649262784E+01  0.51100000000E-03 0. -1.
        -11    1    3    3    0    0  0.23217505581E+00 -0.87546543202E+01 -0.79550310373E-01  0.87580937444E+01  0.51100000000E-03 0.  1.
        -12    1    3    3    0    0 -0.21293825014E+02 -0.13957055162E+02  0.14629866469E+02  0.29364253190E+02  0.00000000000E+00 0.  1.
</event>
<event>
 7    1  0.2430096E-009  0.4778727E+02  0.7816164E-02  0.1312668E+00
        -11   -1    0    0    0    0  0.00000000000E+00  0.00000000000E+00  0.45593999997E+02  0.45594000000E+02  0.51100000000E-03 0.  1.
         11   -1    0    0    0    0 -0.00000000000E+00 -0.00000000000E+00 -0.45593999997E+02  0.45594000000E+02  0.51100000000E-03 0. -1.
    9900012    2    1    2    0    0  0.20067319562E+02 -0.38120346295E+02 -0.52692738945E+01  0.47787270013E+02  0.19999995297E+02 0.  0.
        -12    1    1    2    0    0 -0.20067319562E+02  0.38120346295E+02  0.52692738945E+01  0.43400729987E+02  0.00000000000E+00 0.  1.
         11    1    3    3    0    0 -0.27745201797E+01 -0.90335941661E+01 -0.29250816848E+01  0.98924157266E+01  0.51100000000E-03 0. -1.
        -11    1    3    3    0    0  0.19472921137E+02 -0.26435385651E+02 -0.44238162069E+01  0.33129962605E+02  0.51100000000E-03 0.  1.
        -12    1    3    3    0    0  0.33689186048E+01 -0.26513664779E+01  0.20796239972E+01  0.47648916814E+01  0.00000000000E+00 0.  1.
</event>
<event>
 7    1  0.2430096E-009  0.4778727E+02  0.7816164E-02  0.1312668E+00
        -11   -1    0    0    0    0  0.00000000000E+00  0.00000000000E+00  0.45593999997E+02  0.45594000000E+02  0.51100000000E-03 0. -1.
         11   -1    0    0    0    0 -0.00000000000E+00 -0.00000000000E+00 -0.45593999997E+02  0.45594000000E+02  0.51100000000E-03 0.  1.
    9900012    2    1    2    0    0  0.67789553964E+01 -0.42785204521E+02  0.26636501697E+01  0.47787274264E+02  0.20000014679E+02 0.  0.
        -12    1    1    2    0    0 -0.67789553964E+01  0.42785204521E+02 -0.26636501697E+01  0.43400725736E+02  0.00000000000E+00 0.  1.
         11    1    3    3    0    0  0.28407563085E+01 -0.18754744531E+01  0.10002294614E+00  0.34054817103E+01  0.51100000000E-03 0. -1.
        -11    1    3    3    0    0 -0.37364596012E+01 -0.22719536111E+01 -0.18389812501E+01  0.47439177756E+01  0.51100000000E-03 0.  1.
        -12    1    3    3    0    0  0.76746586890E+01 -0.38637776457E+02  0.44026084737E+01  0.39637874778E+02  0.00000000000E+00 0.  1.
</event>
<event>
 7    1  0.2430096E-009  0.4778727E+02  0.7816164E-02  0.1312668E+00
        -11   -1    0    0    0    0  0.00000000000E+00  0.00000000000E+00  0.45593999997E+02  0.45594000000E+02  0.51100000000E-03 0.  1.
         11   -1    0    0    0    0 -0.00000000000E+00 -0.00000000000E+00 -0.45593999997E+02  0.45594000000E+02  0.51100000000E-03 0. -1.
    9900012    2    1    2    0    0 -0.34927179666E+02  0.74970975780E+01 -0.24647696057E+02  0.47787271061E+02  0.20000000074E+02 0.  0.
        -12    1    1    2    0    0  0.34927179666E+02 -0.74970975780E+01  0.24647696057E+02  0.43400728939E+02  0.00000000000E+00 0.  1.
         11    1    3    3    0    0 -0.18802030558E+02 -0.58415726751E-01 -0.21201218245E+02  0.28337456146E+02  0.51100000000E-03 0. -1.
        -11    1    3    3    0    0 -0.57491293806E+01  0.27777974070E+01  0.21395867767E+01  0.67339794257E+01  0.51100000000E-03 0.  1.
        -12    1    3    3    0    0 -0.10376019728E+02  0.47777158977E+01 -0.55860645897E+01  0.12715835489E+02  0.00000000000E+00 0.  1.
</event>
<event>
 7    1  0.2430096E-009  0.4778729E+02  0.7816164E-02  0.1312668E+00
        -11   -1    0    0    0    0  0.00000000000E+00  0.00000000000E+00  0.45593999997E+02  0.45594000000E+02  0.51100000000E-03 0. -1.
         11   -1    0    0    0    0 -0.00000000000E+00 -0.00000000000E+00 -0.45593999997E+02  0.45594000000E+02  0.51100000000E-03 0.  1.
    9900012    2    1    2    0    0 -0.19501370501E+02  0.37667888353E+02  0.91895706996E+01  0.47787291780E+02  0.20000094539E+02 0.  0.
        -12    1    1    2    0    0  0.19501370501E+02 -0.37667888353E+02 -0.91895706996E+01  0.43400708220E+02  0.00000000000E+00 0.  1.
         11    1    3    3    0    0 -0.11438120820E+02  0.90628019385E+01 -0.23112259350E+01  0.14775207358E+02  0.51100000000E-03 0. -1.
        -11    1    3    3    0    0 -0.78691955972E+00 -0.42773554612E+00  0.87229551940E+00  0.12502399070E+01  0.51100000000E-03 0.  1.
         12    1    3    3    0    0 -0.72763301212E+01  0.29032821960E+02  0.10628501115E+02  0.31761844515E+02  0.00000000000E+00 0. -1.
</event>
<event>
 7    1  0.2430096E-009  0.4778727E+02  0.7816164E-02  0.1312668E+00
        -11   -1    0    0    0    0  0.00000000000E+00  0.00000000000E+00  0.45593999997E+02  0.45594000000E+02  0.51100000000E-03 0.  1.
         11   -1    0    0    0    0 -0.00000000000E+00 -0.00000000000E+00 -0.45593999997E+02  0.45594000000E+02  0.51100000000E-03 0. -1.
    9900012    2    1    2    0    0 -0.50846373689E+01 -0.25275706245E+02 -0.34912869343E+02  0.47787270639E+02  0.19999998150E+02 0.  0.
        -12    1    1    2    0    0  0.50846373689E+01  0.25275706245E+02  0.34912869343E+02  0.43400729361E+02  0.00000000000E+00 0.  1.
         11    1    3    3    0    0 -0.41928896104E+01  0.13774621439E+01 -0.47598473776E+01  0.64910609735E+01  0.51100000000E-03 0.  1.
        -11    1    3    3    0    0  0.26621445681E+01 -0.21862408971E+02 -0.25739870041E+02  0.33876139829E+02  0.51100000000E-03 0. -1.
         12    1    3    3    0    0 -0.35538923266E+01 -0.47907594175E+01 -0.44131519238E+01  0.74200698358E+01  0.00000000000E+00 0. -1.
</event>
<event>
 7    1  0.2430096E-009  0.4778727E+02  0.7816164E-02  0.1312668E+00
        -11   -1    0    0    0    0  0.00000000000E+00  0.00000000000E+00  0.45593999997E+02  0.45594000000E+02  0.51100000000E-03 0. -1.
         11   -1    0    0    0    0 -0.00000000000E+00 -0.00000000000E+00 -0.45593999997E+02  0.45594000000E+02  0.51100000000E-03 0.  1.
    9900012    2    1    2    0    0  0.40910203261E+02 -0.71354175531E+01 -0.12612060007E+02  0.47787274521E+02  0.20000015850E+02 0.  0.
        -12    1    1    2    0    0 -0.40910203261E+02  0.71354175531E+01  0.12612060007E+02  0.43400725479E+02  0.00000000000E+00 0.  1.
         11    1    3    3    0    0  0.16020026276E+02  0.16433734872E+01  0.29078533210E+01  0.16364520448E+02  0.51100000000E-03 0. -1.
        -11    1    3    3    0    0  0.87644741194E+01 -0.56825481383E+01 -0.88832283408E+01  0.13712005905E+02  0.51100000000E-03 0.  1.
         12    1    3    3    0    0  0.16125702865E+02 -0.30962429019E+01 -0.66366849874E+01  0.17710748167E+02  0.00000000000E+00 0. -1.
</event>
<event>
 7    1  0.2430096E-009  0.4778727E+02  0.7816164E-02  0.1312668E+00
        -11   -1    0    0    0    0  0.00000000000E+00  0.00000000000E+00  0.45593999997E+02  0.45594000000E+02  0.51100000000E-03 0. -1.
         11   -1    0    0    0    0 -0.00000000000E+00 -0.00000000000E+00 -0.45593999997E+02  0.45594000000E+02  0.51100000000E-03 0.  1.
    9900012    2    1    2    0    0 -0.28181392285E+02 -0.27893096803E+02 -0.17646738114E+02  0.47787273204E+02  0.20000009845E+02 0.  0.
        -12    1    1    2    0    0  0.28181392285E+02  0.27893096803E+02  0.17646738114E+02  0.43400726796E+02  0.00000000000E+00 0.  1.
         11    1    3    3    0    0 -0.76440156466E+01  0.96739417450E-01 -0.50706548045E-01  0.76447959512E+01  0.51100000000E-03 0. -1.
        -11    1    3    3    0    0 -0.27313865084E+01  0.16008526538E+00 -0.18240273970E+01  0.32883393615E+01  0.51100000000E-03 0.  1.
         12    1    3    3    0    0 -0.17805990130E+02 -0.28149921486E+02 -0.15772004169E+02  0.36854137891E+02  0.00000000000E+00 0. -1.
</event>
<event>
 7    1  0.2430096E-009  0.4778727E+02  0.7816164E-02  0.1312668E+00
        -11   -1    0    0    0    0  0.00000000000E+00  0.00000000000E+00  0.45593999997E+02  0.45594000000E+02  0.51100000000E-03 0.  1.
         11   -1    0    0    0    0 -0.00000000000E+00 -0.00000000000E+00 -0.45593999997E+02  0.45594000000E+02  0.51100000000E-03 0. -1.
    9900012    2    1    2    0    0 -0.40007341394E+02  0.38719458583E+01 -0.16372046225E+02  0.47787271576E+02  0.20000002425E+02 0.  0.
        -12    1    1    2    0    0  0.40007341394E+02 -0.38719458583E+01  0.16372046225E+02  0.43400728424E+02  0.00000000000E+00 0.  1.
         11    1    3    3    0    0 -0.79558617537E+01  0.66815836752E+01  0.83523820317E+00  0.10422903615E+02  0.51100000000E-03 0.  1.
        -11    1    3    3    0    0 -0.30082912894E+02 -0.22939613415E+01 -0.18054837251E+02  0.35159935370E+02  0.51100000000E-03 0. -1.
         12    1    3    3    0    0 -0.19685667459E+01 -0.51567647535E+00  0.84755282282E+00  0.22044325909E+01  0.00000000000E+00 0. -1.
</event>
<event>
 7    1  0.2430096E-009  0.4778727E+02  0.7816164E-02  0.1312668E+00
        -11   -1    0    0    0    0  0.00000000000E+00  0.00000000000E+00  0.45593999997E+02  0.45594000000E+02  0.51100000000E-03 0.  1.
         11   -1    0    0    0    0 -0.00000000000E+00 -0.00000000000E+00 -0.45593999997E+02  0.45594000000E+02  0.51100000000E-03 0. -1.
    9900012    2    1    2    0    0  0.17105594848E+02  0.15148468829E+02 -0.36899129909E+02  0.47787271078E+02  0.20000000152E+02 0.  0.
        -12    1    1    2    0    0 -0.17105594848E+02 -0.15148468829E+02  0.36899129909E+02  0.43400728922E+02  0.00000000000E+00 0.  1.
         11    1    3    3    0    0  0.23067395249E+01 -0.21856520669E+01 -0.80473802778E+01  0.86520778885E+01  0.51100000000E-03 0. -1.
        -11    1    3    3    0    0  0.81862510022E+01  0.11640361245E+02 -0.75369955953E+01  0.16103385304E+02  0.51100000000E-03 0.  1.
        -12    1    3    3    0    0  0.66126043204E+01  0.56937596515E+01 -0.21314754036E+02  0.23031807885E+02  0.00000000000E+00 0.  1.
</event>
<event>
 7    1  0.2430096E-009  0.4778727E+02  0.7816164E-02  0.1312668E+00
        -11   -1    0    0    0    0  0.00000000000E+00  0.00000000000E+00  0.45593999997E+02  0.45594000000E+02  0.51100000000E-03 0.  1.
         11   -1    0    0    0    0 -0.00000000000E+00 -0.00000000000E+00 -0.45593999997E+02  0.45594000000E+02  0.51100000000E-03 0. -1.
    9900012    2    1    2    0    0 -0.51660840736E+01 -0.43052432769E+02  0.18501968407E+01  0.47787267053E+02  0.19999981801E+02 0.  0.
        -12    1    1    2    0    0  0.51660840736E+01  0.43052432769E+02 -0.18501968407E+01  0.43400732947E+02  0.00000000000E+00 0.  1.
         11    1    3    3    0    0  0.63944401686E+01 -0.23536313771E+02 -0.73926400076E+00  0.24400685288E+02  0.51100000000E-03 0. -1.
        -11    1    3    3    0    0 -0.75947408216E+01 -0.82469555905E+01  0.22520226153E+01  0.11435207509E+02  0.51100000000E-03 0.  1.
         12    1    3    3    0    0 -0.39657834205E+01 -0.11269163408E+02  0.33743822621E+00  0.11951374256E+02  0.00000000000E+00 0. -1.
</event>
<event>
 7    1  0.2430096E-009  0.4778727E+02  0.7816164E-02  0.1312668E+00
        -11   -1    0    0    0    0  0.00000000000E+00  0.00000000000E+00  0.45593999997E+02  0.45594000000E+02  0.51100000000E-03 0.  1.
         11   -1    0    0    0    0 -0.00000000000E+00 -0.00000000000E+00 -0.45593999997E+02  0.45594000000E+02  0.51100000000E-03 0. -1.
    9900012    2    1    2    0    0 -0.29783040977E+02 -0.26376298400E+02 -0.17346024702E+02  0.47787271664E+02  0.20000002824E+02 0.  0.
        -12    1    1    2    0    0  0.29783040977E+02  0.26376298400E+02  0.17346024702E+02  0.43400728336E+02  0.00000000000E+00 0.  1.
         11    1    3    3    0    0 -0.12684579219E+02 -0.99937568792E+01 -0.82570539071E+01  0.18137052297E+02  0.51100000000E-03 0. -1.
        -11    1    3    3    0    0 -0.15108016633E+02 -0.19269623315E+02 -0.66318306564E+01  0.25368321336E+02  0.51100000000E-03 0.  1.
        -12    1    3    3    0    0 -0.19904451253E+01  0.28870817945E+01 -0.24571401389E+01  0.42818980309E+01  0.00000000000E+00 0.  1.
</event>
<event>
 7    1  0.2430096E-009  0.4778727E+02  0.7816164E-02  0.1312668E+00
        -11   -1    0    0    0    0  0.00000000000E+00  0.00000000000E+00  0.45593999997E+02  0.45594000000E+02  0.51100000000E-03 0. -1.
         11   -1    0    0    0    0 -0.00000000000E+00 -0.00000000000E+00 -0.45593999997E+02  0.45594000000E+02  0.51100000000E-03 0.  1.
    9900012    2    1    2    0    0 -0.26468071343E+02  0.13476219470E+02  0.31645788981E+02  0.47787271296E+02  0.20000001147E+02 0.  0.
        -12    1    1    2    0    0  0.26468071343E+02 -0.13476219470E+02 -0.31645788981E+02  0.43400728704E+02  0.00000000000E+00 0.  1.
         11    1    3    3    0    0  0.20698937499E+01  0.37015818692E+00  0.42534800900E+01  0.47448467158E+01  0.51100000000E-03 0. -1.
        -11    1    3    3    0    0 -0.13910541244E+01 -0.17200265686E+01  0.12351176515E+01  0.25335822165E+01  0.51100000000E-03 0.  1.
         12    1    3    3    0    0 -0.27146910969E+02  0.14826087851E+02  0.26157191239E+02  0.40508842364E+02  0.00000000000E+00 0. -1.
</event>
<event>
 7    1  0.2430096E-009  0.4778729E+02  0.7816164E-02  0.1312668E+00
        -11   -1    0    0    0    0  0.00000000000E+00  0.00000000000E+00  0.45593999997E+02  0.45594000000E+02  0.51100000000E-03 0.  1.
         11   -1    0    0    0    0 -0.00000000000E+00 -0.00000000000E+00 -0.45593999997E+02  0.45594000000E+02  0.51100000000E-03 0. -1.
    9900012    2    1    2    0    0  0.11294144771E+02  0.22201594844E+02 -0.35540870463E+02  0.47787285800E+02  0.20000067278E+02 0.  0.
        -12    1    1    2    0    0 -0.11294144771E+02 -0.22201594844E+02  0.35540870463E+02  0.43400714200E+02  0.00000000000E+00 0.  1.
         11    1    3    3    0    0  0.11378337089E+01  0.51635407576E+01 -0.23237987558E+02  0.23831929941E+02  0.51100000000E-03 0.  1.
        -11    1    3    3    0    0  0.98976568961E+01  0.16794379772E+02 -0.12817254778E+02  0.23330169829E+02  0.51100000000E-03 0. -1.
        -12    1    3    3    0    0  0.25865416568E+00  0.24367431502E+00  0.51437187246E+00  0.62518603023E+00  0.00000000000E+00 0.  1.
</event>
<event>
 7    1  0.2430096E-009  0.4778727E+02  0.7816164E-02  0.1312668E+00
        -11   -1    0    0    0    0  0.00000000000E+00  0.00000000000E+00  0.45593999997E+02  0.45594000000E+02  0.51100000000E-03 0.  1.
         11   -1    0    0    0    0 -0.00000000000E+00 -0.00000000000E+00 -0.45593999997E+02  0.45594000000E+02  0.51100000000E-03 0. -1.
    9900012    2    1    2    0    0  0.19429544758E+02 -0.31544739682E+02 -0.22606313942E+02  0.47787271422E+02  0.20000001719E+02 0.  0.
        -12    1    1    2    0    0 -0.19429544758E+02  0.31544739682E+02  0.22606313942E+02  0.43400728578E+02  0.00000000000E+00 0.  1.
         11    1    3    3    0    0  0.28990822999E+01 -0.18004049191E+02 -0.80357144323E+01  0.19927949522E+02  0.51100000000E-03 0. -1.
        -11    1    3    3    0    0  0.92213532504E+01 -0.11758995194E+02 -0.51557193769E+01  0.15807870391E+02  0.51100000000E-03 0.  1.
         12    1    3    3    0    0  0.73091092079E+01 -0.17816952964E+01 -0.94148801330E+01  0.12051451508E+02  0.00000000000E+00 0. -1.
</event>
<event>
 7    1  0.2430096E-009  0.4778727E+02  0.7816164E-02  0.1312668E+00
        -11   -1    0    0    0    0  0.00000000000E+00  0.00000000000E+00  0.45593999997E+02  0.45594000000E+02  0.51100000000E-03 0.  1.
         11   -1    0    0    0    0 -0.00000000000E+00 -0.00000000000E+00 -0.45593999997E+02  0.45594000000E+02  0.51100000000E-03 0. -1.
    9900012    2    1    2    0    0 -0.34752073046E+02 -0.64323791631E+01 -0.25190101664E+02  0.47787270691E+02  0.19999998388E+02 0.  0.
        -12    1    1    2    0    0  0.34752073046E+02  0.64323791631E+01  0.25190101664E+02  0.43400729309E+02  0.00000000000E+00 0.  1.
         11    1    3    3    0    0 -0.35809538648E+02 -0.21637772268E+01 -0.21519230982E+02  0.41833984897E+02  0.51100000000E-03 0. -1.
        -11    1    3    3    0    0  0.82529241791E+00 -0.17766651086E+01 -0.25379849621E+01  0.32060902065E+01  0.51100000000E-03 0.  1.
         12    1    3    3    0    0  0.23217318362E+00 -0.24919368277E+01 -0.11328857201E+01  0.27471955873E+01  0.00000000000E+00 0. -1.
</event>
<event>
 7    1  0.2430096E-009  0.4778727E+02  0.7816164E-02  0.1312668E+00
        -11   -1    0    0    0    0  0.00000000000E+00  0.00000000000E+00  0.45593999997E+02  0.45594000000E+02  0.51100000000E-03 0.  1.
         11   -1    0    0    0    0 -0.00000000000E+00 -0.00000000000E+00 -0.45593999997E+02  0.45594000000E+02  0.51100000000E-03 0. -1.
    9900012    2    1    2    0    0 -0.65667030054E+01  0.20787763790E+01 -0.42850676161E+02  0.47787270201E+02  0.19999996156E+02 0.  0.
        -12    1    1    2    0    0  0.65667030054E+01 -0.20787763790E+01  0.42850676161E+02  0.43400729799E+02  0.00000000000E+00 0.  1.
         11    1    3    3    0    0  0.22568111391E+01  0.51460058807E+01 -0.24960617435E+02  0.25585288665E+02  0.51100000000E-03 0. -1.
        -11    1    3    3    0    0 -0.19317374763E+01 -0.51515778732E+01 -0.10672369583E+02  0.12007074458E+02  0.51100000000E-03 0.  1.
        -12    1    3    3    0    0 -0.68917766683E+01  0.20843483715E+01 -0.72176891426E+01  0.10194907078E+02  0.00000000000E+00 0.  1.
</event>
<event>
 7    1  0.2430096E-009  0.4778727E+02  0.7816164E-02  0.1312668E+00
        -11   -1    0    0    0    0  0.00000000000E+00  0.00000000000E+00  0.45593999997E+02  0.45594000000E+02  0.51100000000E-03 0.  1.
         11   -1    0    0    0    0 -0.00000000000E+00 -0.00000000000E+00 -0.45593999997E+02  0.45594000000E+02  0.51100000000E-03 0. -1.
    9900012    2    1    2    0    0  0.23820895050E+02  0.15711759153E+01 -0.36245273262E+02  0.47787268801E+02  0.19999989772E+02 0.  0.
        -12    1    1    2    0    0 -0.23820895050E+02 -0.15711759153E+01  0.36245273262E+02  0.43400731199E+02  0.00000000000E+00 0.  1.
         11    1    3    3    0    0 -0.55497860142E+00 -0.99566946411E+00 -0.14950285810E+02  0.14993678834E+02  0.51100000000E-03 0. -1.
        -11    1    3    3    0    0  0.21841565514E+02  0.14913427520E+01 -0.17115409081E+02  0.27788762397E+02  0.51100000000E-03 0.  1.
         12    1    3    3    0    0  0.25343081369E+01  0.10755026274E+01 -0.41795783718E+01  0.50048275695E+01  0.00000000000E+00 0. -1.
</event>
<event>
 7    1  0.2430096E-009  0.4778727E+02  0.7816164E-02  0.1312668E+00
        -11   -1    0    0    0    0  0.00000000000E+00  0.00000000000E+00  0.45593999997E+02  0.45594000000E+02  0.51100000000E-03 0.  1.
         11   -1    0    0    0    0 -0.00000000000E+00 -0.00000000000E+00 -0.45593999997E+02  0.45594000000E+02  0.51100000000E-03 0. -1.
    9900012    2    1    2    0    0  0.35291857037E+02 -0.12724685481E+02 -0.21821789336E+02  0.47787270933E+02  0.19999999494E+02 0.  0.
        -12    1    1    2    0    0 -0.35291857037E+02  0.12724685481E+02  0.21821789336E+02  0.43400729067E+02  0.00000000000E+00 0.  1.
         11    1    3    3    0    0  0.22322357094E+02 -0.87873519535E+01 -0.55966418123E+01  0.24633870594E+02  0.51100000000E-03 0. -1.
        -11    1    3    3    0    0  0.10101781560E+02 -0.57459498449E+01 -0.15973241104E+02  0.19753641738E+02  0.51100000000E-03 0.  1.
        -12    1    3    3    0    0  0.28677183821E+01  0.18086163172E+01 -0.25190642026E+00  0.33997586012E+01  0.00000000000E+00 0.  1.
</event>
<event>
 7    1  0.2430096E-009  0.4778728E+02  0.7816164E-02  0.1312668E+00
        -11   -1    0    0    0    0  0.00000000000E+00  0.00000000000E+00  0.45593999997E+02  0.45594000000E+02  0.51100000000E-03 0.  1.
         11   -1    0    0    0    0 -0.00000000000E+00 -0.00000000000E+00 -0.45593999997E+02  0.45594000000E+02  0.51100000000E-03 0. -1.
    9900012    2    1    2    0    0  0.31418725301E+02  0.26632250937E+02 -0.13682439568E+02  0.47787282932E+02  0.20000054199E+02 0.  0.
        -12    1    1    2    0    0 -0.31418725301E+02 -0.26632250937E+02  0.13682439568E+02  0.43400717068E+02  0.00000000000E+00 0.  1.
         11    1    3    3    0    0  0.70598262087E+01  0.88340708110E+01 -0.26252818859E+01  0.11609222990E+02  0.51100000000E-03 0. -1.
        -11    1    3    3    0    0  0.14481590903E+02  0.15828009428E+02 -0.14081559644E+02  0.25661891587E+02  0.51100000000E-03 0.  1.
        -12    1    3    3    0    0  0.98773081893E+01  0.19701706976E+01  0.30244019620E+01  0.10516168355E+02  0.00000000000E+00 0.  1.
</event>
<event>
 7    1  0.2430096E-009  0.4778728E+02  0.7816164E-02  0.1312668E+00
        -11   -1    0    0    0    0  0.00000000000E+00  0.00000000000E+00  0.45593999997E+02  0.45594000000E+02  0.51100000000E-03 0.  1.
         11   -1    0    0    0    0 -0.00000000000E+00 -0.00000000000E+00 -0.45593999997E+02  0.45594000000E+02  0.51100000000E-03 0. -1.
    9900012    2    1    2    0    0 -0.16256893817E+02  0.18272922148E+02 -0.35852984783E+02  0.47787276524E+02  0.20000024982E+02 0.  0.
        -12    1    1    2    0    0  0.16256893817E+02 -0.18272922148E+02  0.35852984783E+02  0.43400723476E+02  0.00000000000E+00 0.  1.
         11    1    3    3    0    0 -0.33299812821E+01  0.58916807695E+01 -0.85507398007E+01  0.10904853462E+02  0.51100000000E-03 0. -1.
        -11    1    3    3    0    0 -0.14155028627E+02  0.33533749680E+01 -0.21897372490E+02  0.26288873717E+02  0.51100000000E-03 0.  1.
        -12    1    3    3    0    0  0.12281160919E+01  0.90278664100E+01 -0.54048724931E+01  0.10593549345E+02  0.00000000000E+00 0.  1.
</event>
<event>
 7    1  0.2430096E-009  0.4778727E+02  0.7816164E-02  0.1312668E+00
        -11   -1    0    0    0    0  0.00000000000E+00  0.00000000000E+00  0.45593999997E+02  0.45594000000E+02  0.51100000000E-03 0. -1.
         11   -1    0    0    0    0 -0.00000000000E+00 -0.00000000000E+00 -0.45593999997E+02  0.45594000000E+02  0.51100000000E-03 0.  1.
    9900012    2    1    2    0    0  0.13513544621E+02 -0.14999943870E+02  0.38418867794E+02  0.47787267208E+02  0.19999982508E+02 0.  0.
        -12    1    1    2    0    0 -0.13513544621E+02  0.14999943870E+02 -0.38418867794E+02  0.43400732792E+02  0.00000000000E+00 0.  1.
         11    1    3    3    0    0  0.31196707507E+01 -0.50178158501E+01  0.19302730518E+02  0.20186783479E+02  0.51100000000E-03 0. -1.
        -11    1    3    3    0    0  0.75018832956E+01 -0.27736001932E+01  0.12188886002E+01  0.80905377258E+01  0.51100000000E-03 0.  1.
        -12    1    3    3    0    0  0.28919905749E+01 -0.72085278270E+01  0.17897248675E+02  0.19509946003E+02  0.00000000000E+00 0.  1.
</event>
<event>
 7    1  0.2430096E-009  0.4778727E+02  0.7816164E-02  0.1312668E+00
        -11   -1    0    0    0    0  0.00000000000E+00  0.00000000000E+00  0.45593999997E+02  0.45594000000E+02  0.51100000000E-03 0.  1.
         11   -1    0    0    0    0 -0.00000000000E+00 -0.00000000000E+00 -0.45593999997E+02  0.45594000000E+02  0.51100000000E-03 0. -1.
    9900012    2    1    2    0    0 -0.56209848683E+01 -0.11924084961E+02 -0.41350262344E+02  0.47787268797E+02  0.19999989751E+02 0.  0.
        -12    1    1    2    0    0  0.56209848683E+01  0.11924084961E+02  0.41350262344E+02  0.43400731203E+02  0.00000000000E+00 0.  1.
         11    1    3    3    0    0 -0.66201496147E+01 -0.54299537663E+00 -0.18057040210E+02  0.19240008480E+02  0.51100000000E-03 0. -1.
        -11    1    3    3    0    0  0.37386742184E+00 -0.13110543259E+02 -0.23265700119E+02  0.26708031071E+02  0.51100000000E-03 0.  1.
        -12    1    3    3    0    0  0.62529732457E+00  0.17294536746E+01 -0.27522015249E-01  0.18392292457E+01  0.00000000000E+00 0.  1.
</event>
<event>
 7    1  0.2430096E-009  0.4778727E+02  0.7816164E-02  0.1312668E+00
        -11   -1    0    0    0    0  0.00000000000E+00  0.00000000000E+00  0.45593999997E+02  0.45594000000E+02  0.51100000000E-03 0.  1.
         11   -1    0    0    0    0 -0.00000000000E+00 -0.00000000000E+00 -0.45593999997E+02  0.45594000000E+02  0.51100000000E-03 0. -1.
    9900012    2    1    2    0    0 -0.19412042999E+02 -0.78640025925E+01 -0.38012544184E+02  0.47787268837E+02  0.19999989934E+02 0.  0.
        -12    1    1    2    0    0  0.19412042999E+02  0.78640025925E+01  0.38012544184E+02  0.43400731163E+02  0.00000000000E+00 0.  1.
         11    1    3    3    0    0  0.21601431473E+01 -0.55909944184E+01 -0.76303083565E+01  0.97029399091E+01  0.51100000000E-03 0. -1.
        -11    1    3    3    0    0 -0.13010717624E+02  0.17566858810E+01 -0.14204580315E+02  0.19342564995E+02  0.51100000000E-03 0.  1.
         12    1    3    3    0    0 -0.85614685220E+01 -0.40296940551E+01 -0.16177655513E+02  0.18741763933E+02  0.00000000000E+00 0. -1.
</event>
<event>
 7    1  0.2430096E-009  0.4778727E+02  0.7816164E-02  0.1312668E+00
        -11   -1    0    0    0    0  0.00000000000E+00  0.00000000000E+00  0.45593999997E+02  0.45594000000E+02  0.51100000000E-03 0.  1.
         11   -1    0    0    0    0 -0.00000000000E+00 -0.00000000000E+00 -0.45593999997E+02  0.45594000000E+02  0.51100000000E-03 0. -1.
    9900012    2    1    2    0    0 -0.31650254967E+02 -0.14338389834E+02 -0.26005672617E+02  0.47787273384E+02  0.20000010667E+02 0.  0.
        -12    1    1    2    0    0  0.31650254967E+02  0.14338389834E+02  0.26005672617E+02  0.43400726616E+02  0.00000000000E+00 0.  1.
         11    1    3    3    0    0 -0.13805438022E+02 -0.15274625921E+02 -0.17926179176E+02  0.27299307979E+02  0.51100000000E-03 0. -1.
        -11    1    3    3    0    0 -0.10993288735E+02 -0.17405488228E+01 -0.29320382566E+01  0.11509941616E+02  0.51100000000E-03 0.  1.
         12    1    3    3    0    0 -0.68515282110E+01  0.26767849102E+01 -0.51474551841E+01  0.89780237889E+01  0.00000000000E+00 0. -1.
</event>
<event>
 7    1  0.2430096E-009  0.4778727E+02  0.7816164E-02  0.1312668E+00
        -11   -1    0    0    0    0  0.00000000000E+00  0.00000000000E+00  0.45593999997E+02  0.45594000000E+02  0.51100000000E-03 0. -1.
         11   -1    0    0    0    0 -0.00000000000E+00 -0.00000000000E+00 -0.45593999997E+02  0.45594000000E+02  0.51100000000E-03 0.  1.
    9900012    2    1    2    0    0 -0.21927059219E+02  0.13278932913E+02  0.35021383520E+02  0.47787270871E+02  0.19999999208E+02 0.  0.
        -12    1    1    2    0    0  0.21927059219E+02 -0.13278932913E+02 -0.35021383520E+02  0.43400729129E+02  0.00000000000E+00 0.  1.
         11    1    3    3    0    0 -0.79260392866E+01  0.81547286603E-02  0.14819561051E+02  0.16805997598E+02  0.51100000000E-03 0. -1.
        -11    1    3    3    0    0 -0.10617542710E+02  0.14223705917E+02  0.10408617620E+02  0.20576329707E+02  0.51100000000E-03 0.  1.
        -12    1    3    3    0    0 -0.33834772232E+01 -0.95292773216E+00  0.97932048494E+01  0.10404943566E+02  0.00000000000E+00 0.  1.
</event>
<event>
 7    1  0.2430096E-009  0.4778727E+02  0.7816164E-02  0.1312668E+00
        -11   -1    0    0    0    0  0.00000000000E+00  0.00000000000E+00  0.45593999997E+02  0.45594000000E+02  0.51100000000E-03 0. -1.
         11   -1    0    0    0    0 -0.00000000000E+00 -0.00000000000E+00 -0.45593999997E+02  0.45594000000E+02  0.51100000000E-03 0.  1.
    9900012    2    1    2    0    0 -0.31085943006E+02  0.23707092988E+02 -0.18848371619E+02  0.47787271628E+02  0.20000002660E+02 0.  0.
        -12    1    1    2    0    0  0.31085943006E+02 -0.23707092988E+02  0.18848371619E+02  0.43400728372E+02  0.00000000000E+00 0.  1.
         11    1    3    3    0    0 -0.19250540324E+02  0.22275321809E+02 -0.92795306520E+01  0.30868802274E+02  0.51100000000E-03 0. -1.
        -11    1    3    3    0    0 -0.39435815486E+01 -0.29495898539E+01 -0.32637502648E+01  0.59079591899E+01  0.51100000000E-03 0.  1.
        -12    1    3    3    0    0 -0.78918211331E+01  0.43813610336E+01 -0.63050907022E+01  0.11010510164E+02  0.00000000000E+00 0.  1.
</event>
<event>
 7    1  0.2430096E-009  0.4778727E+02  0.7816164E-02  0.1312668E+00
        -11   -1    0    0    0    0  0.00000000000E+00  0.00000000000E+00  0.45593999997E+02  0.45594000000E+02  0.51100000000E-03 0.  1.
         11   -1    0    0    0    0 -0.00000000000E+00 -0.00000000000E+00 -0.45593999997E+02  0.45594000000E+02  0.51100000000E-03 0. -1.
    9900012    2    1    2    0    0  0.95599238267E+01 -0.11196412282E+02 -0.40827334468E+02  0.47787273839E+02  0.20000012740E+02 0.  0.
        -12    1    1    2    0    0 -0.95599238267E+01  0.11196412282E+02  0.40827334468E+02  0.43400726161E+02  0.00000000000E+00 0.  1.
         11    1    3    3    0    0  0.72623473595E+01  0.37678176841E+01 -0.22331180131E+02  0.23782761522E+02  0.51100000000E-03 0. -1.
        -11    1    3    3    0    0  0.60067718876E+00 -0.94592766767E+00 -0.86359474595E+00  0.14147043451E+01  0.51100000000E-03 0.  1.
         12    1    3    3    0    0  0.16968992785E+01 -0.14018302298E+02 -0.17632559591E+02  0.22589807972E+02  0.00000000000E+00 0. -1.
</event>
<event>
 7    1  0.2430096E-009  0.4778725E+02  0.7816164E-02  0.1312668E+00
        -11   -1    0    0    0    0  0.00000000000E+00  0.00000000000E+00  0.45593999997E+02  0.45594000000E+02  0.51100000000E-03 0. -1.
         11   -1    0    0    0    0 -0.00000000000E+00 -0.00000000000E+00 -0.45593999997E+02  0.45594000000E+02  0.51100000000E-03 0.  1.
    9900012    2    1    2    0    0  0.30015941444E+02 -0.30292233252E+02  0.80652690165E+01  0.47787254609E+02  0.19999925066E+02 0.  0.
        -12    1    1    2    0    0 -0.30015941444E+02  0.30292233252E+02 -0.80652690165E+01  0.43400745391E+02  0.00000000000E+00 0.  1.
         11    1    3    3    0    0  0.13486294761E+02 -0.40506427061E+01  0.25164105056E+01  0.14304550843E+02  0.51100000000E-03 0. -1.
        -11    1    3    3    0    0  0.14915052128E+02 -0.26552830289E+02  0.32101419213E+01  0.30623791204E+02  0.51100000000E-03 0.  1.
        -12    1    3    3    0    0  0.16145945544E+01  0.31123974257E+00  0.23387165896E+01  0.28589125623E+01  0.00000000000E+00 0.  1.
</event>
<event>
 7    1  0.2430096E-009  0.4778727E+02  0.7816164E-02  0.1312668E+00
        -11   -1    0    0    0    0  0.00000000000E+00  0.00000000000E+00  0.45593999997E+02  0.45594000000E+02  0.51100000000E-03 0.  1.
         11   -1    0    0    0    0 -0.00000000000E+00 -0.00000000000E+00 -0.45593999997E+02  0.45594000000E+02  0.51100000000E-03 0. -1.
    9900012    2    1    2    0    0  0.31563679433E+02  0.13602362514E+02 -0.26501571138E+02  0.47787269614E+02  0.19999993478E+02 0.  0.
        -12    1    1    2    0    0 -0.31563679433E+02 -0.13602362514E+02  0.26501571138E+02  0.43400730386E+02  0.00000000000E+00 0.  1.
         11    1    3    3    0    0  0.38402082830E+01  0.53821364288E+01  0.59928279301E+00  0.66388050372E+01  0.51100000000E-03 0. -1.
        -11    1    3    3    0    0  0.14862877379E+02  0.84613571018E+01 -0.20478812241E+02  0.26681106406E+02  0.51100000000E-03 0.  1.
        -12    1    3    3    0    0  0.12860593771E+02 -0.24113101710E+00 -0.66220416898E+01  0.14467358171E+02  0.00000000000E+00 0.  1.
</event>
<event>
 7    1  0.2430096E-009  0.4778727E+02  0.7816164E-02  0.1312668E+00
        -11   -1    0    0    0    0  0.00000000000E+00  0.00000000000E+00  0.45593999997E+02  0.45594000000E+02  0.51100000000E-03 0. -1.
         11   -1    0    0    0    0 -0.00000000000E+00 -0.00000000000E+00 -0.45593999997E+02  0.45594000000E+02  0.51100000000E-03 0.  1.
    9900012    2    1    2    0    0 -0.28585072418E+02 -0.10992242230E+00  0.32657384249E+02  0.47787271964E+02  0.20000004193E+02 0.  0.
        -12    1    1    2    0    0  0.28585072418E+02  0.10992242230E+00 -0.32657384249E+02  0.43400728036E+02  0.00000000000E+00 0.  1.
         11    1    3    3    0    0 -0.96049841332E+01 -0.39071086925E+01  0.19388296320E+02  0.21986979169E+02  0.51100000000E-03 0. -1.
        -11    1    3    3    0    0 -0.25006856276E+01  0.50019089844E+01  0.30043165503E+01  0.63481052521E+01  0.51100000000E-03 0.  1.
        -12    1    3    3    0    0 -0.16479402657E+02 -0.12047227141E+01  0.10264771378E+02  0.19452187543E+02  0.00000000000E+00 0.  1.
</event>
<event>
 7    1  0.2430096E-009  0.4778724E+02  0.7816164E-02  0.1312668E+00
        -11   -1    0    0    0    0  0.00000000000E+00  0.00000000000E+00  0.45593999997E+02  0.45594000000E+02  0.51100000000E-03 0. -1.
         11   -1    0    0    0    0 -0.00000000000E+00 -0.00000000000E+00 -0.45593999997E+02  0.45594000000E+02  0.51100000000E-03 0.  1.
    9900012    2    1    2    0    0  0.26561666237E+02  0.14528217223E+02  0.31097176203E+02  0.47787244514E+02  0.19999879038E+02 0.  0.
        -12    1    1    2    0    0 -0.26561666237E+02 -0.14528217223E+02 -0.31097176203E+02  0.43400755486E+02  0.00000000000E+00 0.  1.
         11    1    3    3    0    0  0.14208118317E+02  0.77684407137E+01  0.16858862110E+02  0.23376067444E+02  0.51100000000E-03 0. -1.
        -11    1    3    3    0    0  0.77272231374E+01  0.37945243001E+01 -0.55874481956E+00  0.86267368172E+01  0.51100000000E-03 0.  1.
        -12    1    3    3    0    0  0.46263247831E+01  0.29652522087E+01  0.14797058912E+02  0.15784440253E+02  0.00000000000E+00 0.  1.
</event>
<event>
 7    1  0.2430096E-009  0.4778727E+02  0.7816164E-02  0.1312668E+00
        -11   -1    0    0    0    0  0.00000000000E+00  0.00000000000E+00  0.45593999997E+02  0.45594000000E+02  0.51100000000E-03 0. -1.
         11   -1    0    0    0    0 -0.00000000000E+00 -0.00000000000E+00 -0.45593999997E+02  0.45594000000E+02  0.51100000000E-03 0.  1.
    9900012    2    1    2    0    0  0.11107538169E+02  0.58454754473E+01  0.41546072200E+02  0.47787273017E+02  0.20000008995E+02 0.  0.
        -12    1    1    2    0    0 -0.11107538169E+02 -0.58454754473E+01 -0.41546072200E+02  0.43400726983E+02  0.00000000000E+00 0.  1.
         11    1    3    3    0    0  0.53427622445E+01 -0.96355731180E+00  0.42732507873E+01  0.69089958493E+01  0.51100000000E-03 0.  1.
        -11    1    3    3    0    0 -0.45673985813E+01  0.33144519260E+00  0.95042372338E+01  0.10549953146E+02  0.51100000000E-03 0. -1.
        -12    1    3    3    0    0  0.10332174506E+02  0.64775875665E+01  0.27768584179E+02  0.30328324022E+02  0.00000000000E+00 0.  1.
</event>
<event>
 7    1  0.2430096E-009  0.4778727E+02  0.7816164E-02  0.1312668E+00
        -11   -1    0    0    0    0  0.00000000000E+00  0.00000000000E+00  0.45593999997E+02  0.45594000000E+02  0.51100000000E-03 0. -1.
         11   -1    0    0    0    0 -0.00000000000E+00 -0.00000000000E+00 -0.45593999997E+02  0.45594000000E+02  0.51100000000E-03 0.  1.
    9900012    2    1    2    0    0 -0.25883040385E+02  0.11237890331E+01  0.34819949247E+02  0.47787267899E+02  0.19999985658E+02 0.  0.
        -12    1    1    2    0    0  0.25883040385E+02 -0.11237890331E+01 -0.34819949247E+02  0.43400732101E+02  0.00000000000E+00 0.  1.
         11    1    3    3    0    0 -0.71713155122E+01 -0.71802287248E+01  0.75752124825E+01  0.12663620933E+02  0.51100000000E-03 0. -1.
        -11    1    3    3    0    0 -0.13358012264E+01 -0.71255733408E+00  0.61978302994E+01  0.63800629740E+01  0.51100000000E-03 0.  1.
         12    1    3    3    0    0 -0.17375923646E+02  0.90165750920E+01  0.21046906465E+02  0.28743583992E+02  0.00000000000E+00 0. -1.
</event>
<event>
 7    1  0.2430096E-009  0.4778731E+02  0.7816164E-02  0.1312668E+00
        -11   -1    0    0    0    0  0.00000000000E+00  0.00000000000E+00  0.45593999997E+02  0.45594000000E+02  0.51100000000E-03 0.  1.
         11   -1    0    0    0    0 -0.00000000000E+00 -0.00000000000E+00 -0.45593999997E+02  0.45594000000E+02  0.51100000000E-03 0. -1.
    9900012    2    1    2    0    0 -0.23307707962E+02  0.19677860224E+02 -0.30873163336E+02  0.47787312819E+02  0.20000190465E+02 0.  0.
        -12    1    1    2    0    0  0.23307707962E+02 -0.19677860224E+02  0.30873163336E+02  0.43400687181E+02  0.00000000000E+00 0.  1.
         11    1    3    3    0    0 -0.30586075898E+00 -0.38544097539E+00 -0.61929621199E+01  0.62124790244E+01  0.51100000000E-03 0. -1.
        -11    1    3    3    0    0 -0.23283529039E+02  0.21586564354E+02 -0.24292832562E+02  0.39978046466E+02  0.51100000000E-03 0.  1.
        -12    1    3    3    0    0  0.28168183631E+00 -0.15232631550E+01 -0.38736865489E+00  0.15967873281E+01  0.00000000000E+00 0.  1.
</event>
<event>
 7    1  0.2430096E-009  0.4778727E+02  0.7816164E-02  0.1312668E+00
        -11   -1    0    0    0    0  0.00000000000E+00  0.00000000000E+00  0.45593999997E+02  0.45594000000E+02  0.51100000000E-03 0.  1.
         11   -1    0    0    0    0 -0.00000000000E+00 -0.00000000000E+00 -0.45593999997E+02  0.45594000000E+02  0.51100000000E-03 0. -1.
    9900012    2    1    2    0    0  0.94285603595E+01 -0.41455212037E+02  0.87287404626E+01  0.47787271140E+02  0.20000000436E+02 0.  0.
        -12    1    1    2    0    0 -0.94285603595E+01  0.41455212037E+02 -0.87287404626E+01  0.43400728860E+02  0.00000000000E+00 0.  1.
         11    1    3    3    0    0  0.35255800872E+01 -0.14643367719E+02  0.10080469065E+02  0.18123845893E+02  0.51100000000E-03 0. -1.
        -11    1    3    3    0    0 -0.36384258874E+00 -0.20490150006E+02 -0.26636386712E+01  0.20665759118E+02  0.51100000000E-03 0.  1.
         12    1    3    3    0    0  0.62668228611E+01 -0.63216943121E+01  0.13119100687E+01  0.89976661294E+01  0.00000000000E+00 0. -1.
</event>
<event>
 7    1  0.2430096E-009  0.4778725E+02  0.7816164E-02  0.1312668E+00
        -11   -1    0    0    0    0  0.00000000000E+00  0.00000000000E+00  0.45593999997E+02  0.45594000000E+02  0.51100000000E-03 0.  1.
         11   -1    0    0    0    0 -0.00000000000E+00 -0.00000000000E+00 -0.45593999997E+02  0.45594000000E+02  0.51100000000E-03 0. -1.
    9900012    2    1    2    0    0  0.36352588610E+02  0.18464392312E+02  0.14872131539E+02  0.47787253709E+02  0.19999920963E+02 0.  0.
        -12    1    1    2    0    0 -0.36352588610E+02 -0.18464392312E+02 -0.14872131539E+02  0.43400746291E+02  0.00000000000E+00 0.  1.
         11    1    3    3    0    0  0.25570385673E+02  0.96035370679E+01  0.80863205046E+01  0.28486156765E+02  0.51100000000E-03 0. -1.
        -11    1    3    3    0    0  0.10048387385E+01  0.79759028577E+00  0.64991215476E+01  0.66245326104E+01  0.51100000000E-03 0.  1.
        -12    1    3    3    0    0  0.97773641980E+01  0.80632649583E+01  0.28668948650E+00  0.12676564334E+02  0.00000000000E+00 0.  1.
</event>
<event>
 7    1  0.2430096E-009  0.4778727E+02  0.7816164E-02  0.1312668E+00
        -11   -1    0    0    0    0  0.00000000000E+00  0.00000000000E+00  0.45593999997E+02  0.45594000000E+02  0.51100000000E-03 0. -1.
         11   -1    0    0    0    0 -0.00000000000E+00 -0.00000000000E+00 -0.45593999997E+02  0.45594000000E+02  0.51100000000E-03 0.  1.
    9900012    2    1    2    0    0 -0.39447911120E+02 -0.31030823716E+01  0.17828531799E+02  0.47787270075E+02  0.19999995578E+02 0.  0.
        -12    1    1    2    0    0  0.39447911120E+02  0.31030823716E+01 -0.17828531799E+02  0.43400729925E+02  0.00000000000E+00 0.  1.
         11    1    3    3    0    0 -0.17911445201E+02  0.64986461056E+01  0.77598628437E+01  0.20573471802E+02  0.51100000000E-03 0. -1.
        -11    1    3    3    0    0 -0.69584440845E+01 -0.69845204852E+01  0.11531865099E+01  0.99263946059E+01  0.51100000000E-03 0.  1.
        -12    1    3    3    0    0 -0.14578021835E+02 -0.26172079921E+01  0.89154824457E+01  0.17287403667E+02  0.00000000000E+00 0.  1.
</event>
<event>
 7    1  0.2430096E-009  0.4778727E+02  0.7816164E-02  0.1312668E+00
        -11   -1    0    0    0    0  0.00000000000E+00  0.00000000000E+00  0.45593999997E+02  0.45594000000E+02  0.51100000000E-03 0. -1.
         11   -1    0    0    0    0 -0.00000000000E+00 -0.00000000000E+00 -0.45593999997E+02  0.45594000000E+02  0.51100000000E-03 0.  1.
    9900012    2    1    2    0    0 -0.29853472495E+02 -0.12929526565E+02  0.28726658076E+02  0.47787270036E+02  0.19999995400E+02 0.  0.
        -12    1    1    2    0    0  0.29853472495E+02  0.12929526565E+02 -0.28726658076E+02  0.43400729964E+02  0.00000000000E+00 0.  1.
         11    1    3    3    0    0 -0.17393646826E+02 -0.11214360130E+02  0.25560503436E+02  0.32888298211E+02  0.51100000000E-03 0. -1.
        -11    1    3    3    0    0 -0.48425396842E+01  0.16152661746E+01 -0.15575568480E+01  0.53371583267E+01  0.51100000000E-03 0.  1.
         12    1    3    3    0    0 -0.76172859855E+01 -0.33304326099E+01  0.47237114880E+01  0.95618134983E+01  0.00000000000E+00 0. -1.
</event>
<event>
 7    1  0.2430096E-009  0.4778727E+02  0.7816164E-02  0.1312668E+00
        -11   -1    0    0    0    0  0.00000000000E+00  0.00000000000E+00  0.45593999997E+02  0.45594000000E+02  0.51100000000E-03 0. -1.
         11   -1    0    0    0    0 -0.00000000000E+00 -0.00000000000E+00 -0.45593999997E+02  0.45594000000E+02  0.51100000000E-03 0.  1.
    9900012    2    1    2    0    0 -0.33936393424E+02 -0.21828027495E+02  0.15983797747E+02  0.47787269898E+02  0.19999994772E+02 0.  0.
        -12    1    1    2    0    0  0.33936393424E+02  0.21828027495E+02 -0.15983797747E+02  0.43400730102E+02  0.00000000000E+00 0.  1.
         11    1    3    3    0    0 -0.27893774010E+02 -0.23556136548E+02  0.15487780518E+02  0.39658864623E+02  0.51100000000E-03 0. -1.
        -11    1    3    3    0    0 -0.46534022097E+01  0.91083289147E+00 -0.20089256353E+01  0.51497136960E+01  0.51100000000E-03 0.  1.
         12    1    3    3    0    0 -0.13892172045E+01  0.81727616137E+00  0.25049428645E+01  0.29786915785E+01  0.00000000000E+00 0. -1.
</event>
<event>
 7    1  0.2430096E-009  0.4778727E+02  0.7816164E-02  0.1312668E+00
        -11   -1    0    0    0    0  0.00000000000E+00  0.00000000000E+00  0.45593999997E+02  0.45594000000E+02  0.51100000000E-03 0.  1.
         11   -1    0    0    0    0 -0.00000000000E+00 -0.00000000000E+00 -0.45593999997E+02  0.45594000000E+02  0.51100000000E-03 0. -1.
    9900012    2    1    2    0    0 -0.35258113602E+02 -0.11200278684E+02 -0.22694554800E+02  0.47787266885E+02  0.19999981037E+02 0.  0.
        -12    1    1    2    0    0  0.35258113602E+02  0.11200278684E+02  0.22694554800E+02  0.43400733115E+02  0.00000000000E+00 0.  1.
         11    1    3    3    0    0 -0.14330224309E+02 -0.17435740704E+01 -0.12351362007E+01  0.14488648694E+02  0.51100000000E-03 0. -1.
        -11    1    3    3    0    0 -0.22201573425E+02 -0.91906406007E+01 -0.21020149037E+02  0.31925294094E+02  0.51100000000E-03 0.  1.
        -12    1    3    3    0    0  0.12736841324E+01 -0.26606401261E+00 -0.43926956200E+00  0.13733240972E+01  0.00000000000E+00 0.  1.
</event>
<event>
 7    1  0.2430096E-009  0.4778725E+02  0.7816164E-02  0.1312668E+00
        -11   -1    0    0    0    0  0.00000000000E+00  0.00000000000E+00  0.45593999997E+02  0.45594000000E+02  0.51100000000E-03 0.  1.
         11   -1    0    0    0    0 -0.00000000000E+00 -0.00000000000E+00 -0.45593999997E+02  0.45594000000E+02  0.51100000000E-03 0. -1.
    9900012    2    1    2    0    0 -0.35935926700E+02 -0.10120988936E+00 -0.24335644645E+02  0.47787254943E+02  0.19999926586E+02 0.  0.
        -12    1    1    2    0    0  0.35935926700E+02  0.10120988936E+00  0.24335644645E+02  0.43400745057E+02  0.00000000000E+00 0.  1.
         11    1    3    3    0    0 -0.25315673107E+02 -0.12587496371E+00 -0.12037226829E+02  0.28032017041E+02  0.51100000000E-03 0. -1.
        -11    1    3    3    0    0 -0.67957291358E+01 -0.23116719909E+01 -0.13344939473E+02  0.15152992169E+02  0.51100000000E-03 0.  1.
        -12    1    3    3    0    0 -0.38245244569E+01  0.23363370652E+01  0.10465216575E+01  0.46022457327E+01  0.00000000000E+00 0.  1.
</event>
<event>
 7    1  0.2430096E-009  0.4778727E+02  0.7816164E-02  0.1312668E+00
        -11   -1    0    0    0    0  0.00000000000E+00  0.00000000000E+00  0.45593999997E+02  0.45594000000E+02  0.51100000000E-03 0.  1.
         11   -1    0    0    0    0 -0.00000000000E+00 -0.00000000000E+00 -0.45593999997E+02  0.45594000000E+02  0.51100000000E-03 0. -1.
    9900012    2    1    2    0    0  0.11015567282E+02 -0.41840652108E+02 -0.34117834009E+01  0.47787272387E+02  0.20000006122E+02 0.  0.
        -12    1    1    2    0    0 -0.11015567282E+02  0.41840652108E+02  0.34117834009E+01  0.43400727613E+02  0.00000000000E+00 0.  1.
         11    1    3    3    0    0  0.13629386720E+02 -0.23376766849E+02  0.14309119598E+00  0.27060190059E+02  0.51100000000E-03 0. -1.
        -11    1    3    3    0    0 -0.17129354718E+01 -0.17520212971E+02 -0.54483985257E+01  0.18427616699E+02  0.51100000000E-03 0.  1.
        -12    1    3    3    0    0 -0.90088396669E+00 -0.94367228838E+00  0.18935239288E+01  0.22994656289E+01  0.00000000000E+00 0.  1.
</event>
<event>
 7    1  0.2430096E-009  0.4778727E+02  0.7816164E-02  0.1312668E+00
        -11   -1    0    0    0    0  0.00000000000E+00  0.00000000000E+00  0.45593999997E+02  0.45594000000E+02  0.51100000000E-03 0. -1.
         11   -1    0    0    0    0 -0.00000000000E+00 -0.00000000000E+00 -0.45593999997E+02  0.45594000000E+02  0.51100000000E-03 0.  1.
    9900012    2    1    2    0    0  0.42143647175E+02 -0.93067781472E+01  0.45738606399E+01  0.47787270538E+02  0.19999997691E+02 0.  0.
        -12    1    1    2    0    0 -0.42143647175E+02  0.93067781472E+01 -0.45738606399E+01  0.43400729462E+02  0.00000000000E+00 0.  1.
         11    1    3    3    0    0  0.26647061252E+02  0.31606842788E+01  0.17763618361E+01  0.26892587457E+02  0.51100000000E-03 0.  1.
        -11    1    3    3    0    0  0.14287047005E+01 -0.13429363330E+01 -0.14801335363E+01  0.24567194920E+01  0.51100000000E-03 0. -1.
         12    1    3    3    0    0  0.14067881222E+02 -0.11124526093E+02  0.42776323402E+01  0.18437963589E+02  0.00000000000E+00 0. -1.
</event>
<event>
 7    1  0.2430096E-009  0.4778726E+02  0.7816164E-02  0.1312668E+00
        -11   -1    0    0    0    0  0.00000000000E+00  0.00000000000E+00  0.45593999997E+02  0.45594000000E+02  0.51100000000E-03 0.  1.
         11   -1    0    0    0    0 -0.00000000000E+00 -0.00000000000E+00 -0.45593999997E+02  0.45594000000E+02  0.51100000000E-03 0. -1.
    9900012    2    1    2    0    0  0.65191004666E+01 -0.12507695957E+02 -0.41044887081E+02  0.47787264009E+02  0.19999967922E+02 0.  0.
        -12    1    1    2    0    0 -0.65191004666E+01  0.12507695957E+02  0.41044887081E+02  0.43400735991E+02  0.00000000000E+00 0.  1.
         11    1    3    3    0    0  0.23698800164E+01  0.25527411040E+01 -0.79498988546E+01  0.86794994381E+01  0.51100000000E-03 0. -1.
        -11    1    3    3    0    0  0.24859846457E+00 -0.62247369706E+01 -0.19931566989E+01  0.65407817145E+01  0.51100000000E-03 0.  1.
        -12    1    3    3    0    0  0.39006219856E+01 -0.88357000904E+01 -0.31101831528E+02  0.32566982856E+02  0.00000000000E+00 0.  1.
</event>
<event>
 7    1  0.2430096E-009  0.4778727E+02  0.7816164E-02  0.1312668E+00
        -11   -1    0    0    0    0  0.00000000000E+00  0.00000000000E+00  0.45593999997E+02  0.45594000000E+02  0.51100000000E-03 0. -1.
         11   -1    0    0    0    0 -0.00000000000E+00 -0.00000000000E+00 -0.45593999997E+02  0.45594000000E+02  0.51100000000E-03 0.  1.
    9900012    2    1    2    0    0 -0.26217638872E+02  0.26953126145E+02  0.21674595869E+02  0.47787266100E+02  0.19999977457E+02 0.  0.
        -12    1    1    2    0    0  0.26217638872E+02 -0.26953126145E+02 -0.21674595869E+02  0.43400733900E+02  0.00000000000E+00 0.  1.
         11    1    3    3    0    0  0.28806694240E+01  0.44990860270E+01  0.15478351234E+01  0.55619983135E+01  0.51100000000E-03 0.  1.
        -11    1    3    3    0    0 -0.17854975929E+02  0.13051717966E+02  0.14886669036E+02  0.26660090446E+02  0.51100000000E-03 0. -1.
        -12    1    3    3    0    0 -0.11243332366E+02  0.94023221513E+01  0.52400917088E+01  0.15565177341E+02  0.00000000000E+00 0.  1.
</event>
<event>
 7    1  0.2430096E-009  0.4778725E+02  0.7816164E-02  0.1312668E+00
        -11   -1    0    0    0    0  0.00000000000E+00  0.00000000000E+00  0.45593999997E+02  0.45594000000E+02  0.51100000000E-03 0.  1.
         11   -1    0    0    0    0 -0.00000000000E+00 -0.00000000000E+00 -0.45593999997E+02  0.45594000000E+02  0.51100000000E-03 0. -1.
    9900012    2    1    2    0    0  0.12198522192E+01  0.26517358660E+02 -0.34336079758E+02  0.47787254351E+02  0.19999923887E+02 0.  0.
        -12    1    1    2    0    0 -0.12198522192E+01 -0.26517358660E+02  0.34336079758E+02  0.43400745649E+02  0.00000000000E+00 0.  1.
         11    1    3    3    0    0  0.17162307301E+01  0.22665024259E+02 -0.17377911239E+02  0.28611895636E+02  0.51100000000E-03 0. -1.
        -11    1    3    3    0    0 -0.35072577303E+01  0.17918708547E+01 -0.13796404283E+02  0.14347558306E+02  0.51100000000E-03 0.  1.
         12    1    3    3    0    0  0.30108792194E+01  0.20604635462E+01 -0.31617642363E+01  0.48278004086E+01  0.00000000000E+00 0. -1.
</event>
<event>
 7    1  0.2430096E-009  0.4778727E+02  0.7816164E-02  0.1312668E+00
        -11   -1    0    0    0    0  0.00000000000E+00  0.00000000000E+00  0.45593999997E+02  0.45594000000E+02  0.51100000000E-03 0.  1.
         11   -1    0    0    0    0 -0.00000000000E+00 -0.00000000000E+00 -0.45593999997E+02  0.45594000000E+02  0.51100000000E-03 0. -1.
    9900012    2    1    2    0    0  0.15059941475E+02  0.40332514089E+02 -0.54872295330E+01  0.47787271689E+02  0.20000002940E+02 0.  0.
        -12    1    1    2    0    0 -0.15059941475E+02 -0.40332514089E+02  0.54872295330E+01  0.43400728311E+02  0.00000000000E+00 0.  1.
         11    1    3    3    0    0  0.80915457650E+01  0.16374163766E+02 -0.64098320547E+01  0.19356453682E+02  0.51100000000E-03 0. -1.
        -11    1    3    3    0    0 -0.39406674717E+01  0.83842868605E+01  0.16131109787E+01  0.94035766372E+01  0.51100000000E-03 0.  1.
         12    1    3    3    0    0  0.10909063182E+02  0.15574063463E+02 -0.69050845696E+00  0.19027241370E+02  0.00000000000E+00 0. -1.
</event>
<event>
 7    1  0.2430096E-009  0.4778727E+02  0.7816164E-02  0.1312668E+00
        -11   -1    0    0    0    0  0.00000000000E+00  0.00000000000E+00  0.45593999997E+02  0.45594000000E+02  0.51100000000E-03 0.  1.
         11   -1    0    0    0    0 -0.00000000000E+00 -0.00000000000E+00 -0.45593999997E+02  0.45594000000E+02  0.51100000000E-03 0. -1.
    9900012    2    1    2    0    0 -0.31736657526E+02 -0.51278701168E+01 -0.29156698562E+02  0.47787267819E+02  0.19999985292E+02 0.  0.
        -12    1    1    2    0    0  0.31736657526E+02  0.51278701168E+01  0.29156698562E+02  0.43400732181E+02  0.00000000000E+00 0.  1.
         11    1    3    3    0    0 -0.13632620343E+02 -0.76752168957E+01 -0.17208590157E+02  0.23257103588E+02  0.51100000000E-03 0. -1.
        -11    1    3    3    0    0 -0.78876080477E+01  0.38126243765E+01 -0.24582522517E-02  0.87607346527E+01  0.51100000000E-03 0.  1.
         12    1    3    3    0    0 -0.10216429135E+02 -0.12652775977E+01 -0.11945650152E+02  0.15769429578E+02  0.00000000000E+00 0. -1.
</event>
<event>
 7    1  0.2430096E-009  0.4778727E+02  0.7816164E-02  0.1312668E+00
        -11   -1    0    0    0    0  0.00000000000E+00  0.00000000000E+00  0.45593999997E+02  0.45594000000E+02  0.51100000000E-03 0.  1.
         11   -1    0    0    0    0 -0.00000000000E+00 -0.00000000000E+00 -0.45593999997E+02  0.45594000000E+02  0.51100000000E-03 0. -1.
    9900012    2    1    2    0    0 -0.24860354427E+02  0.26363264959E+02 -0.23886489914E+02  0.47787270030E+02  0.19999995377E+02 0.  0.
        -12    1    1    2    0    0  0.24860354427E+02 -0.26363264959E+02  0.23886489914E+02  0.43400729970E+02  0.00000000000E+00 0.  1.
         11    1    3    3    0    0 -0.48065363688E+01  0.17952488402E+02 -0.85788225965E+01  0.20469265475E+02  0.51100000000E-03 0. -1.
        -11    1    3    3    0    0 -0.35081103381E+01  0.32646360007E+01 -0.59012031426E+01  0.76019001015E+01  0.51100000000E-03 0.  1.
         12    1    3    3    0    0 -0.16545707720E+02  0.51461405559E+01 -0.94064641746E+01  0.19716104454E+02  0.00000000000E+00 0. -1.
</event>
<event>
 7    1  0.2430096E-009  0.4778727E+02  0.7816164E-02  0.1312668E+00
        -11   -1    0    0    0    0  0.00000000000E+00  0.00000000000E+00  0.45593999997E+02  0.45594000000E+02  0.51100000000E-03 0. -1.
         11   -1    0    0    0    0 -0.00000000000E+00 -0.00000000000E+00 -0.45593999997E+02  0.45594000000E+02  0.51100000000E-03 0.  1.
    9900012    2    1    2    0    0  0.22825502094E+01 -0.26166108665E+02 -0.34550657423E+02  0.47787271820E+02  0.20000003538E+02 0.  0.
        -12    1    1    2    0    0 -0.22825502094E+01  0.26166108665E+02  0.34550657423E+02  0.43400728180E+02  0.00000000000E+00 0.  1.
         11    1    3    3    0    0  0.59710023951E+01 -0.14101599131E+02 -0.23177409651E+02  0.27779493985E+02  0.51100000000E-03 0. -1.
        -11    1    3    3    0    0 -0.24709068392E+00  0.16232030443E+01  0.32797286686E+00  0.16743381951E+01  0.51100000000E-03 0.  1.
         12    1    3    3    0    0 -0.34413615019E+01 -0.13687712578E+02 -0.11701220639E+02  0.18333439641E+02  0.00000000000E+00 0. -1.
</event>
<event>
 7    1  0.2430096E-009  0.4778727E+02  0.7816164E-02  0.1312668E+00
        -11   -1    0    0    0    0  0.00000000000E+00  0.00000000000E+00  0.45593999997E+02  0.45594000000E+02  0.51100000000E-03 0.  1.
         11   -1    0    0    0    0 -0.00000000000E+00 -0.00000000000E+00 -0.45593999997E+02  0.45594000000E+02  0.51100000000E-03 0. -1.
    9900012    2    1    2    0    0  0.41718029759E+02  0.97579336256E+01 -0.69290922398E+01  0.47787267346E+02  0.19999983139E+02 0.  0.
        -12    1    1    2    0    0 -0.41718029759E+02 -0.97579336256E+01  0.69290922398E+01  0.43400732654E+02  0.00000000000E+00 0.  1.
         11    1    3    3    0    0  0.31720534163E+02  0.44093256553E+01 -0.20744520928E+01  0.32092643893E+02  0.51100000000E-03 0. -1.
        -11    1    3    3    0    0  0.10942632428E+01 -0.78625081403E+00 -0.46915109194E+01  0.48811758168E+01  0.51100000000E-03 0.  1.
         12    1    3    3    0    0  0.89032323535E+01  0.61348587843E+01 -0.16312922770E+00  0.10813447637E+02  0.00000000000E+00 0. -1.
</event>
<event>
 7    1  0.2430096E-009  0.4778727E+02  0.7816164E-02  0.1312668E+00
        -11   -1    0    0    0    0  0.00000000000E+00  0.00000000000E+00  0.45593999997E+02  0.45594000000E+02  0.51100000000E-03 0.  1.
         11   -1    0    0    0    0 -0.00000000000E+00 -0.00000000000E+00 -0.45593999997E+02  0.45594000000E+02  0.51100000000E-03 0. -1.
    9900012    2    1    2    0    0  0.28778857479E+02 -0.35815300567E+01 -0.32288911039E+02  0.47787265312E+02  0.19999973864E+02 0.  0.
        -12    1    1    2    0    0 -0.28778857479E+02  0.35815300567E+01  0.32288911039E+02  0.43400734688E+02  0.00000000000E+00 0.  1.
         11    1    3    3    0    0  0.27116974681E+02 -0.93783026640E+01 -0.24085581241E+02  0.37461955377E+02  0.51100000000E-03 0. -1.
        -11    1    3    3    0    0  0.94020271449E+00  0.30363588764E+01 -0.57150516682E+01  0.65395162055E+01  0.51100000000E-03 0.  1.
         12    1    3    3    0    0  0.72168008323E+00  0.27604137310E+01 -0.24882781298E+01  0.37857937292E+01  0.00000000000E+00 0. -1.
</event>
<event>
 7    1  0.2920632E-009  0.4778727E+02  0.7816164E-02  0.1312668E+00
        -11   -1    0    0    0    0  0.00000000000E+00  0.00000000000E+00  0.45593999997E+02  0.45594000000E+02  0.51100000000E-03 0.  1.
         11   -1    0    0    0    0 -0.00000000000E+00 -0.00000000000E+00 -0.45593999997E+02  0.45594000000E+02  0.51100000000E-03 0. -1.
    9900012    2    1    2    0    0  0.39534759514E+02 -0.17895368919E+02 -0.61808167401E+00  0.47787268860E+02  0.19999990040E+02 0.  0.
        -12    1    1    2    0    0 -0.39534759514E+02  0.17895368919E+02  0.61808167401E+00  0.43400731140E+02  0.00000000000E+00 0.  1.
         11    1    3    3    0    0  0.25433222422E+02 -0.11504169034E+02  0.23463681410E+01  0.28012499918E+02  0.51100000000E-03 0. -1.
        -11    1    3    3    0    0  0.37977693157E+01  0.28572843709E+01 -0.35259692351E+01  0.59177347912E+01  0.51100000000E-03 0.  1.
        -12    1    3    3    0    0  0.10303767776E+02 -0.92484842555E+01  0.56151942005E+00  0.13857034151E+02  0.00000000000E+00 0.  1.
</event>
<event>
 7    1  0.2557984E-009  0.4778727E+02  0.7816164E-02  0.1312668E+00
        -11   -1    0    0    0    0  0.00000000000E+00  0.00000000000E+00  0.45593999997E+02  0.45594000000E+02  0.51100000000E-03 0. -1.
         11   -1    0    0    0    0 -0.00000000000E+00 -0.00000000000E+00 -0.45593999997E+02  0.45594000000E+02  0.51100000000E-03 0.  1.
    9900012    2    1    2    0    0 -0.13226590546E+02  0.65671385307E+01  0.40811196022E+02  0.47787265828E+02  0.19999976214E+02 0.  0.
        -12    1    1    2    0    0  0.13226590546E+02 -0.65671385307E+01 -0.40811196022E+02  0.43400734172E+02  0.00000000000E+00 0.  1.
         11    1    3    3    0    0 -0.71820275232E+01 -0.35048289862E+01  0.21197030754E+02  0.22653464606E+02  0.51100000000E-03 0. -1.
        -11    1    3    3    0    0 -0.78149385189E+01  0.10296132812E+02  0.19434053487E+02  0.23340223866E+02  0.51100000000E-03 0.  1.
        -12    1    3    3    0    0  0.17703754965E+01 -0.22416529488E+00  0.18011178086E+00  0.17935773559E+01  0.00000000000E+00 0.  1.
</event>
<event>
 7    1  0.2430096E-009  0.4778727E+02  0.7816164E-02  0.1312668E+00
        -11   -1    0    0    0    0  0.00000000000E+00  0.00000000000E+00  0.45593999997E+02  0.45594000000E+02  0.51100000000E-03 0.  1.
         11   -1    0    0    0    0 -0.00000000000E+00 -0.00000000000E+00 -0.45593999997E+02  0.45594000000E+02  0.51100000000E-03 0. -1.
    9900012    2    1    2    0    0 -0.33885698182E+02 -0.20696759092E+02 -0.17522173291E+02  0.47787274948E+02  0.20000017797E+02 0.  0.
        -12    1    1    2    0    0  0.33885698182E+02  0.20696759092E+02  0.17522173291E+02  0.43400725052E+02  0.00000000000E+00 0.  1.
         11    1    3    3    0    0 -0.15252318514E+02 -0.10039281164E+02 -0.15011459565E+02  0.23638195889E+02  0.51100000000E-03 0. -1.
        -11    1    3    3    0    0 -0.18515134825E+02 -0.87896249915E+01  0.61623344665E+00  0.20504815752E+02  0.51100000000E-03 0.  1.
        -12    1    3    3    0    0 -0.11824484317E+00 -0.18678529366E+01 -0.31269471721E+01  0.36442633073E+01  0.00000000000E+00 0.  1.
</event>
<event>
 7    1  0.2430096E-009  0.4778727E+02  0.7816164E-02  0.1312668E+00
        -11   -1    0    0    0    0  0.00000000000E+00  0.00000000000E+00  0.45593999997E+02  0.45594000000E+02  0.51100000000E-03 0.  1.
         11   -1    0    0    0    0 -0.00000000000E+00 -0.00000000000E+00 -0.45593999997E+02  0.45594000000E+02  0.51100000000E-03 0. -1.
    9900012    2    1    2    0    0 -0.17156918688E+02 -0.29787910454E+02 -0.26494220025E+02  0.47787272323E+02  0.20000005831E+02 0.  0.
        -12    1    1    2    0    0  0.17156918688E+02  0.29787910454E+02  0.26494220025E+02  0.43400727677E+02  0.00000000000E+00 0.  1.
         11    1    3    3    0    0 -0.48925549109E+01 -0.96865360234E+00 -0.17571538546E+01  0.52880027692E+01  0.51100000000E-03 0. -1.
        -11    1    3    3    0    0 -0.14303546454E+02 -0.15541309800E+02 -0.14852216488E+02  0.25820768508E+02  0.51100000000E-03 0.  1.
        -12    1    3    3    0    0  0.20391826767E+01 -0.13277947052E+02 -0.98848496828E+01  0.16678501047E+02  0.00000000000E+00 0.  1.
</event>
<event>
 7    1  0.2430096E-009  0.4778727E+02  0.7816164E-02  0.1312668E+00
        -11   -1    0    0    0    0  0.00000000000E+00  0.00000000000E+00  0.45593999997E+02  0.45594000000E+02  0.51100000000E-03 0.  1.
         11   -1    0    0    0    0 -0.00000000000E+00 -0.00000000000E+00 -0.45593999997E+02  0.45594000000E+02  0.51100000000E-03 0. -1.
    9900012    2    1    2    0    0  0.18189481483E+02 -0.39371416024E+02 -0.16302343956E+01  0.47787270737E+02  0.19999998598E+02 0.  0.
        -12    1    1    2    0    0 -0.18189481483E+02  0.39371416024E+02  0.16302343956E+01  0.43400729263E+02  0.00000000000E+00 0.  1.
         11    1    3    3    0    0  0.97034385159E+01 -0.34032357029E+02  0.31700958756E+01  0.35530375063E+02  0.51100000000E-03 0. -1.
        -11    1    3    3    0    0  0.40305527501E+01  0.12757320575E-01 -0.31100829775E+01  0.50909856225E+01  0.51100000000E-03 0.  1.
        -12    1    3    3    0    0  0.44554902170E+01 -0.53518163162E+01 -0.16902472936E+01  0.71659100518E+01  0.00000000000E+00 0.  1.
</event>
<event>
 7    1  0.2430096E-009  0.4778727E+02  0.7816164E-02  0.1312668E+00
        -11   -1    0    0    0    0  0.00000000000E+00  0.00000000000E+00  0.45593999997E+02  0.45594000000E+02  0.51100000000E-03 0.  1.
         11   -1    0    0    0    0 -0.00000000000E+00 -0.00000000000E+00 -0.45593999997E+02  0.45594000000E+02  0.51100000000E-03 0. -1.
    9900012    2    1    2    0    0  0.14543685148E+02  0.18915017964E+02 -0.36253642788E+02  0.47787270770E+02  0.19999998750E+02 0.  0.
        -12    1    1    2    0    0 -0.14543685148E+02 -0.18915017964E+02  0.36253642788E+02  0.43400729230E+02  0.00000000000E+00 0.  1.
         11    1    3    3    0    0  0.79693229220E+01  0.14360119113E+02 -0.20069609357E+02  0.25932843053E+02  0.51100000000E-03 0. -1.
        -11    1    3    3    0    0  0.86389831185E+01 -0.62533475126E+00 -0.71202188763E+01  0.11212519341E+02  0.51100000000E-03 0.  1.
        -12    1    3    3    0    0 -0.20646208928E+01  0.51802336019E+01 -0.90638145551E+01  0.10641908376E+02  0.00000000000E+00 0.  1.
</event>
<event>
 7    1  0.2430096E-009  0.4778727E+02  0.7816164E-02  0.1312668E+00
        -11   -1    0    0    0    0  0.00000000000E+00  0.00000000000E+00  0.45593999997E+02  0.45594000000E+02  0.51100000000E-03 0.  1.
         11   -1    0    0    0    0 -0.00000000000E+00 -0.00000000000E+00 -0.45593999997E+02  0.45594000000E+02  0.51100000000E-03 0. -1.
    9900012    2    1    2    0    0 -0.36960479642E+02 -0.21868269899E+02  0.62709723123E+01  0.47787269851E+02  0.19999994557E+02 0.  0.
        -12    1    1    2    0    0  0.36960479642E+02  0.21868269899E+02 -0.62709723123E+01  0.43400730149E+02  0.00000000000E+00 0.  1.
         11    1    3    3    0    0 -0.21315625160E+02 -0.11569726282E+02 -0.50107519661E+00  0.24258308243E+02  0.51100000000E-03 0. -1.
        -11    1    3    3    0    0  0.11112611283E+01 -0.47437885240E+01  0.12034042429E+01  0.50186265938E+01  0.51100000000E-03 0.  1.
         12    1    3    3    0    0 -0.16756115610E+02 -0.55547550928E+01  0.55686432660E+01  0.18510335013E+02  0.00000000000E+00 0. -1.
</event>
<event>
 7    1  0.2430096E-009  0.4778732E+02  0.7816164E-02  0.1312668E+00
        -11   -1    0    0    0    0  0.00000000000E+00  0.00000000000E+00  0.45593999997E+02  0.45594000000E+02  0.51100000000E-03 0. -1.
         11   -1    0    0    0    0 -0.00000000000E+00 -0.00000000000E+00 -0.45593999997E+02  0.45594000000E+02  0.51100000000E-03 0.  1.
    9900012    2    1    2    0    0 -0.13152722999E+02 -0.17906647304E+02  0.37282391914E+02  0.47787321586E+02  0.20000230438E+02 0.  0.
        -12    1    1    2    0    0  0.13152722999E+02  0.17906647304E+02 -0.37282391914E+02  0.43400678414E+02  0.00000000000E+00 0.  1.
         11    1    3    3    0    0 -0.14411817365E+02 -0.15394618293E+02  0.23503748247E+02  0.31577221760E+02  0.51100000000E-03 0. -1.
        -11    1    3    3    0    0  0.40258047916E+01 -0.51158102908E+00  0.34324020184E+01  0.53150920262E+01  0.51100000000E-03 0.  1.
         12    1    3    3    0    0 -0.27667104248E+01 -0.20004479814E+01  0.10346241649E+02  0.10895007800E+02  0.00000000000E+00 0. -1.
</event>
<event>
 7    1  0.2430096E-009  0.4778724E+02  0.7816164E-02  0.1312668E+00
        -11   -1    0    0    0    0  0.00000000000E+00  0.00000000000E+00  0.45593999997E+02  0.45594000000E+02  0.51100000000E-03 0.  1.
         11   -1    0    0    0    0 -0.00000000000E+00 -0.00000000000E+00 -0.45593999997E+02  0.45594000000E+02  0.51100000000E-03 0. -1.
    9900012    2    1    2    0    0 -0.40258753654E+02 -0.14063544763E+02 -0.80669504730E+01  0.47787237022E+02  0.19999844879E+02 0.  0.
        -12    1    1    2    0    0  0.40258753654E+02  0.14063544763E+02  0.80669504730E+01  0.43400762978E+02  0.00000000000E+00 0.  1.
         11    1    3    3    0    0 -0.13394490417E+02 -0.55619620026E+01 -0.35489513235E+01  0.14931270898E+02  0.51100000000E-03 0. -1.
        -11    1    3    3    0    0 -0.15296264689E+02 -0.12116543057E+02  0.99978488172E+00  0.19539342342E+02  0.51100000000E-03 0.  1.
        -12    1    3    3    0    0 -0.11567998548E+02  0.36149602967E+01 -0.55177840313E+01  0.13316623783E+02  0.00000000000E+00 0.  1.
</event>
<event>
 7    1  0.2430096E-009  0.4778727E+02  0.7816164E-02  0.1312668E+00
        -11   -1    0    0    0    0  0.00000000000E+00  0.00000000000E+00  0.45593999997E+02  0.45594000000E+02  0.51100000000E-03 0. -1.
         11   -1    0    0    0    0 -0.00000000000E+00 -0.00000000000E+00 -0.45593999997E+02  0.45594000000E+02  0.51100000000E-03 0.  1.
    9900012    2    1    2    0    0  0.35839735287E+02  0.22993013457E+02 -0.83939332322E+01  0.47787269495E+02  0.19999992935E+02 0.  0.
        -12    1    1    2    0    0 -0.35839735287E+02 -0.22993013457E+02  0.83939332322E+01  0.43400730505E+02  0.00000000000E+00 0.  1.
         11    1    3    3    0    0  0.26111481323E+02  0.23957362691E+02 -0.32121408455E+01  0.35582053525E+02  0.51100000000E-03 0. -1.
        -11    1    3    3    0    0  0.63694512965E+01 -0.13380726841E+01 -0.63411444306E+00  0.65393003994E+01  0.51100000000E-03 0.  1.
         12    1    3    3    0    0  0.33588026672E+01  0.37372345076E+00 -0.45476779436E+01  0.56659155706E+01  0.00000000000E+00 0. -1.
</event>
<event>
 7    1  0.2430096E-009  0.4778726E+02  0.7816164E-02  0.1312668E+00
        -11   -1    0    0    0    0  0.00000000000E+00  0.00000000000E+00  0.45593999997E+02  0.45594000000E+02  0.51100000000E-03 0.  1.
         11   -1    0    0    0    0 -0.00000000000E+00 -0.00000000000E+00 -0.45593999997E+02  0.45594000000E+02  0.51100000000E-03 0. -1.
    9900012    2    1    2    0    0  0.14165105716E+01  0.29989468132E+02 -0.31340856343E+02  0.47787262940E+02  0.19999963050E+02 0.  0.
        -12    1    1    2    0    0 -0.14165105716E+01 -0.29989468132E+02  0.31340856343E+02  0.43400737060E+02  0.00000000000E+00 0.  1.
         11    1    3    3    0    0 -0.25855300100E+01  0.72761523070E+01 -0.79500800064E+01  0.11082920653E+02  0.51100000000E-03 0. -1.
        -11    1    3    3    0    0  0.17625041427E+00  0.21365621621E+02 -0.24491317884E+02  0.32501469250E+02  0.51100000000E-03 0.  1.
        -12    1    3    3    0    0  0.38257901674E+01  0.13476942035E+01  0.11005415473E+01  0.42028730374E+01  0.00000000000E+00 0.  1.
</event>
<event>
 7    1  0.2430096E-009  0.4778727E+02  0.7816164E-02  0.1312668E+00
        -11   -1    0    0    0    0  0.00000000000E+00  0.00000000000E+00  0.45593999997E+02  0.45594000000E+02  0.51100000000E-03 0. -1.
         11   -1    0    0    0    0 -0.00000000000E+00 -0.00000000000E+00 -0.45593999997E+02  0.45594000000E+02  0.51100000000E-03 0.  1.
    9900012    2    1    2    0    0 -0.32715308681E+00  0.40245012754E+02 -0.16243614365E+02  0.47787273182E+02  0.20000009744E+02 0.  0.
        -12    1    1    2    0    0  0.32715308681E+00 -0.40245012754E+02  0.16243614365E+02  0.43400726818E+02  0.00000000000E+00 0.  1.
         11    1    3    3    0    0 -0.18576982327E+01  0.11821395916E+02  0.28425995318E+01  0.12299464073E+02  0.51100000000E-03 0. -1.
        -11    1    3    3    0    0  0.43514397535E+01  0.87913782021E+01 -0.86365789179E+01  0.13069577433E+02  0.51100000000E-03 0.  1.
        -12    1    3    3    0    0 -0.28208946077E+01  0.19632238636E+02 -0.10449634979E+02  0.22418231675E+02  0.00000000000E+00 0.  1.
</event>
<event>
 7    1  0.2430096E-009  0.4778727E+02  0.7816164E-02  0.1312668E+00
        -11   -1    0    0    0    0  0.00000000000E+00  0.00000000000E+00  0.45593999997E+02  0.45594000000E+02  0.51100000000E-03 0.  1.
         11   -1    0    0    0    0 -0.00000000000E+00 -0.00000000000E+00 -0.45593999997E+02  0.45594000000E+02  0.51100000000E-03 0. -1.
    9900012    2    1    2    0    0  0.32232386893E+02  0.55744321756E+01 -0.28524065343E+02  0.47787270023E+02  0.19999995341E+02 0.  0.
        -12    1    1    2    0    0 -0.32232386893E+02 -0.55744321756E+01  0.28524065343E+02  0.43400729977E+02  0.00000000000E+00 0.  1.
         11    1    3    3    0    0  0.11291211780E+02  0.11641057655E+02 -0.11378994241E+02  0.19811289635E+02  0.51100000000E-03 0. -1.
        -11    1    3    3    0    0  0.93594469665E-01 -0.20851563205E+00 -0.83545501503E+00  0.86615474184E+00  0.51100000000E-03 0.  1.
         12    1    3    3    0    0  0.20847580643E+02 -0.58581098476E+01 -0.16309616087E+02  0.27109825646E+02  0.00000000000E+00 0. -1.
</event>
<event>
 7    1  0.2430096E-009  0.4778727E+02  0.7816164E-02  0.1312668E+00
        -11   -1    0    0    0    0  0.00000000000E+00  0.00000000000E+00  0.45593999997E+02  0.45594000000E+02  0.51100000000E-03 0.  1.
         11   -1    0    0    0    0 -0.00000000000E+00 -0.00000000000E+00 -0.45593999997E+02  0.45594000000E+02  0.51100000000E-03 0. -1.
    9900012    2    1    2    0    0 -0.12386452035E+02  0.12963533108E+02 -0.39523991463E+02  0.47787270907E+02  0.19999999373E+02 0.  0.
        -12    1    1    2    0    0  0.12386452035E+02 -0.12963533108E+02  0.39523991463E+02  0.43400729093E+02  0.00000000000E+00 0.  1.
         11    1    3    3    0    0  0.41605658900E+01  0.71342665488E+01 -0.11613222130E+02  0.14250438457E+02  0.51100000000E-03 0. -1.
        -11    1    3    3    0    0 -0.14173072949E+02  0.25578258174E+01 -0.19908547819E+02  0.24571706214E+02  0.51100000000E-03 0.  1.
         12    1    3    3    0    0 -0.23739449759E+01  0.32714407416E+01 -0.80022215138E+01  0.89651262362E+01  0.00000000000E+00 0. -1.
</event>
<event>
 7    1  0.2430096E-009  0.4778727E+02  0.7816164E-02  0.1312668E+00
        -11   -1    0    0    0    0  0.00000000000E+00  0.00000000000E+00  0.45593999997E+02  0.45594000000E+02  0.51100000000E-03 0.  1.
         11   -1    0    0    0    0 -0.00000000000E+00 -0.00000000000E+00 -0.45593999997E+02  0.45594000000E+02  0.51100000000E-03 0. -1.
    9900012    2    1    2    0    0  0.40137148769E+01 -0.30865892857E+02 -0.30245826907E+02  0.47787270809E+02  0.19999998926E+02 0.  0.
        -12    1    1    2    0    0 -0.40137148769E+01  0.30865892857E+02  0.30245826907E+02  0.43400729191E+02  0.00000000000E+00 0.  1.
         11    1    3    3    0    0  0.18099725696E+01 -0.23440522247E+02 -0.13864805115E+02  0.27294081868E+02  0.51100000000E-03 0. -1.
        -11    1    3    3    0    0  0.16881236139E+01 -0.34730261960E+01 -0.16033804936E+02  0.16492257980E+02  0.51100000000E-03 0.  1.
        -12    1    3    3    0    0  0.51561869339E+00 -0.39523444145E+01 -0.34721685716E+00  0.40009309609E+01  0.00000000000E+00 0.  1.
</event>
<event>
 7    1  0.2430096E-009  0.4778728E+02  0.7816164E-02  0.1312668E+00
        -11   -1    0    0    0    0  0.00000000000E+00  0.00000000000E+00  0.45593999997E+02  0.45594000000E+02  0.51100000000E-03 0.  1.
         11   -1    0    0    0    0 -0.00000000000E+00 -0.00000000000E+00 -0.45593999997E+02  0.45594000000E+02  0.51100000000E-03 0. -1.
    9900012    2    1    2    0    0 -0.19722396332E+02  0.38660447762E+02 -0.13970540780E+00  0.47787278164E+02  0.20000032463E+02 0.  0.
        -12    1    1    2    0    0  0.19722396332E+02 -0.38660447762E+02  0.13970540780E+00  0.43400721836E+02  0.00000000000E+00 0.  1.
         11    1    3    3    0    0 -0.64872714315E+01  0.94205379045E+01 -0.51377438365E+01  0.12539044502E+02  0.51100000000E-03 0. -1.
        -11    1    3    3    0    0 -0.93627549084E+01  0.23879387673E+02  0.93851645913E+01  0.27312408348E+02  0.51100000000E-03 0.  1.
        -12    1    3    3    0    0 -0.38723699921E+01  0.53605221849E+01 -0.43871261626E+01  0.79358253142E+01  0.00000000000E+00 0.  1.
</event>
<event>
 7    1  0.2430096E-009  0.4778728E+02  0.7816164E-02  0.1312668E+00
        -11   -1    0    0    0    0  0.00000000000E+00  0.00000000000E+00  0.45593999997E+02  0.45594000000E+02  0.51100000000E-03 0. -1.
         11   -1    0    0    0    0 -0.00000000000E+00 -0.00000000000E+00 -0.45593999997E+02  0.45594000000E+02  0.51100000000E-03 0.  1.
    9900012    2    1    2    0    0  0.16760859637E+02  0.34242339301E+02  0.20740252548E+02  0.47787282352E+02  0.20000051557E+02 0.  0.
        -12    1    1    2    0    0 -0.16760859637E+02 -0.34242339301E+02 -0.20740252548E+02  0.43400717648E+02  0.00000000000E+00 0.  1.
         11    1    3    3    0    0  0.68115269271E+01  0.30173152329E+02  0.10312124381E+02  0.32606071981E+02  0.51100000000E-03 0. -1.
        -11    1    3    3    0    0  0.67100713559E+01  0.15317152387E+01  0.71057178960E+01  0.98925444782E+01  0.51100000000E-03 0.  1.
         12    1    3    3    0    0  0.32392613543E+01  0.25374717334E+01  0.33224102713E+01  0.52886658932E+01  0.00000000000E+00 0. -1.
</event>
<event>
 7    1  0.2430096E-009  0.4778728E+02  0.7816164E-02  0.1312668E+00
        -11   -1    0    0    0    0  0.00000000000E+00  0.00000000000E+00  0.45593999997E+02  0.45594000000E+02  0.51100000000E-03 0.  1.
         11   -1    0    0    0    0 -0.00000000000E+00 -0.00000000000E+00 -0.45593999997E+02  0.45594000000E+02  0.51100000000E-03 0. -1.
    9900012    2    1    2    0    0  0.77420556135E+01  0.20364927707E+02 -0.37536024018E+02  0.47787276449E+02  0.20000024643E+02 0.  0.
        -12    1    1    2    0    0 -0.77420556135E+01 -0.20364927707E+02  0.37536024018E+02  0.43400723551E+02  0.00000000000E+00 0.  1.
         11    1    3    3    0    0 -0.48209221550E+01 -0.60422956440E+00 -0.57037552930E+01  0.74926102591E+01  0.51100000000E-03 0. -1.
        -11    1    3    3    0    0  0.87093796992E+01  0.17376494405E+02 -0.25090274291E+02  0.31738268964E+02  0.51100000000E-03 0.  1.
         12    1    3    3    0    0  0.38535980693E+01  0.35926628666E+01 -0.67419944334E+01  0.85563972262E+01  0.00000000000E+00 0. -1.
</event>
<event>
 7    1  0.2430096E-009  0.4778727E+02  0.7816164E-02  0.1312668E+00
        -11   -1    0    0    0    0  0.00000000000E+00  0.00000000000E+00  0.45593999997E+02  0.45594000000E+02  0.51100000000E-03 0.  1.
         11   -1    0    0    0    0 -0.00000000000E+00 -0.00000000000E+00 -0.45593999997E+02  0.45594000000E+02  0.51100000000E-03 0. -1.
    9900012    2    1    2    0    0 -0.17383129289E+02 -0.14828771665E+02 -0.36899286141E+02  0.47787274538E+02  0.20000015927E+02 0.  0.
        -12    1    1    2    0    0  0.17383129289E+02  0.14828771665E+02  0.36899286141E+02  0.43400725462E+02  0.00000000000E+00 0.  1.
         11    1    3    3    0    0 -0.16270697342E+02 -0.88859508709E+01 -0.17924500681E+02  0.25787272826E+02  0.51100000000E-03 0. -1.
        -11    1    3    3    0    0  0.14234909567E+01 -0.35927090081E+01 -0.14343246340E+01  0.41220349268E+01  0.51100000000E-03 0.  1.
         12    1    3    3    0    0 -0.25359229035E+01 -0.23501117863E+01 -0.17540460826E+02  0.17877966785E+02  0.00000000000E+00 0. -1.
</event>
<event>
 7    1  0.2756506E-009  0.4778727E+02  0.7816164E-02  0.1312668E+00
        -11   -1    0    0    0    0  0.00000000000E+00  0.00000000000E+00  0.45593999997E+02  0.45594000000E+02  0.51100000000E-03 0. -1.
         11   -1    0    0    0    0 -0.00000000000E+00 -0.00000000000E+00 -0.45593999997E+02  0.45594000000E+02  0.51100000000E-03 0.  1.
    9900012    2    1    2    0    0 -0.35054988262E+02  0.57125892128E+01  0.24942690605E+02  0.47787266225E+02  0.19999978025E+02 0.  0.
        -12    1    1    2    0    0  0.35054988262E+02 -0.57125892128E+01 -0.24942690605E+02  0.43400733775E+02  0.00000000000E+00 0.  1.
         11    1    3    3    0    0 -0.11275473254E+02  0.58800617534E+01  0.89120799904E+01  0.15528573448E+02  0.51100000000E-03 0. -1.
        -11    1    3    3    0    0  0.20631021620E+01 -0.26244893253E+00  0.62132602763E+00  0.21705566721E+01  0.51100000000E-03 0.  1.
        -12    1    3    3    0    0 -0.25842617171E+02  0.94976391902E-01  0.15409284587E+02  0.30088136104E+02  0.00000000000E+00 0.  1.
</event>
<event>
 7    1  0.2430096E-009  0.4778724E+02  0.7816164E-02  0.1312668E+00
        -11   -1    0    0    0    0  0.00000000000E+00  0.00000000000E+00  0.45593999997E+02  0.45594000000E+02  0.51100000000E-03 0. -1.
         11   -1    0    0    0    0 -0.00000000000E+00 -0.00000000000E+00 -0.45593999997E+02  0.45594000000E+02  0.51100000000E-03 0.  1.
    9900012    2    1    2    0    0  0.10198687149E+02  0.35312088480E+02  0.23079632067E+02  0.47787237003E+02  0.19999844792E+02 0.  0.
        -12    1    1    2    0    0 -0.10198687149E+02 -0.35312088480E+02 -0.23079632067E+02  0.43400762997E+02  0.00000000000E+00 0.  1.
         11    1    3    3    0    0 -0.11453413978E+01  0.23100599795E+02  0.93854819128E+01  0.24960704894E+02  0.51100000000E-03 0. -1.
        -11    1    3    3    0    0  0.64052142258E+01  0.50593750272E+01  0.11057422391E+02  0.13743748947E+02  0.51100000000E-03 0.  1.
         12    1    3    3    0    0  0.49388143208E+01  0.71521136577E+01  0.26367277633E+01  0.90827831619E+01  0.00000000000E+00 0. -1.
</event>
<event>
 7    1  0.2430096E-009  0.4778727E+02  0.7816164E-02  0.1312668E+00
        -11   -1    0    0    0    0  0.00000000000E+00  0.00000000000E+00  0.45593999997E+02  0.45594000000E+02  0.51100000000E-03 0. -1.
         11   -1    0    0    0    0 -0.00000000000E+00 -0.00000000000E+00 -0.45593999997E+02  0.45594000000E+02  0.51100000000E-03 0.  1.
    9900012    2    1    2    0    0 -0.12470960663E+02 -0.25921793270E+02  0.32498598714E+02  0.47787272534E+02  0.20000006791E+02 0.  0.
        -12    1    1    2    0    0  0.12470960663E+02  0.25921793270E+02 -0.32498598714E+02  0.43400727466E+02  0.00000000000E+00 0.  1.
         11    1    3    3    0    0 -0.18324168364E+01 -0.15725100110E+02  0.78750624461E+01  0.17682000275E+02  0.51100000000E-03 0. -1.
        -11    1    3    3    0    0 -0.10686479049E+02 -0.77560314840E+01  0.24282423426E+02  0.27640422330E+02  0.51100000000E-03 0.  1.
        -12    1    3    3    0    0  0.47935222279E-01 -0.24406616761E+01  0.34111284156E+00  0.24648499292E+01  0.00000000000E+00 0.  1.
</event>
<event>
 7    1  0.2430096E-009  0.4778727E+02  0.7816164E-02  0.1312668E+00
        -11   -1    0    0    0    0  0.00000000000E+00  0.00000000000E+00  0.45593999997E+02  0.45594000000E+02  0.51100000000E-03 0.  1.
         11   -1    0    0    0    0 -0.00000000000E+00 -0.00000000000E+00 -0.45593999997E+02  0.45594000000E+02  0.51100000000E-03 0. -1.
    9900012    2    1    2    0    0  0.34924908031E+02  0.11711081216E+02  0.22950478529E+02  0.47787273175E+02  0.20000009716E+02 0.  0.
        -12    1    1    2    0    0 -0.34924908031E+02 -0.11711081216E+02 -0.22950478529E+02  0.43400726825E+02  0.00000000000E+00 0.  1.
         11    1    3    3    0    0  0.11375946611E+02  0.22006560071E+01  0.16267824104E+02  0.19972409707E+02  0.51100000000E-03 0.  1.
        -11    1    3    3    0    0  0.27879135417E+01  0.35878510630E+01 -0.14118658003E+01  0.47579935335E+01  0.51100000000E-03 0. -1.
        -12    1    3    3    0    0  0.20761047878E+02  0.59225741463E+01  0.80945202245E+01  0.23056869935E+02  0.00000000000E+00 0.  1.
</event>
<event>
 7    1  0.2430096E-009  0.4778725E+02  0.7816164E-02  0.1312668E+00
        -11   -1    0    0    0    0  0.00000000000E+00  0.00000000000E+00  0.45593999997E+02  0.45594000000E+02  0.51100000000E-03 0.  1.
         11   -1    0    0    0    0 -0.00000000000E+00 -0.00000000000E+00 -0.45593999997E+02  0.45594000000E+02  0.51100000000E-03 0. -1.
    9900012    2    1    2    0    0 -0.12489763524E+02 -0.38975133809E+02 -0.14441948948E+02  0.47787249572E+02  0.19999902098E+02 0.  0.
        -12    1    1    2    0    0  0.12489763524E+02  0.38975133809E+02  0.14441948948E+02  0.43400750428E+02  0.00000000000E+00 0.  1.
         11    1    3    3    0    0  0.28450886000E+01 -0.12386359622E+01  0.63190407377E+00  0.31667098396E+01  0.51100000000E-03 0. -1.
        -11    1    3    3    0    0 -0.79698611581E+01 -0.12717477714E+02 -0.10044546757E+02  0.18059508468E+02  0.51100000000E-03 0.  1.
         12    1    3    3    0    0 -0.73649909660E+01 -0.25019020133E+02 -0.50293062643E+01  0.26561031265E+02  0.00000000000E+00 0. -1.
</event>
<event>
 7    1  0.2430096E-009  0.4778727E+02  0.7816164E-02  0.1312668E+00
        -11   -1    0    0    0    0  0.00000000000E+00  0.00000000000E+00  0.45593999997E+02  0.45594000000E+02  0.51100000000E-03 0.  1.
         11   -1    0    0    0    0 -0.00000000000E+00 -0.00000000000E+00 -0.45593999997E+02  0.45594000000E+02  0.51100000000E-03 0. -1.
    9900012    2    1    2    0    0 -0.28976829195E+02  0.26393506358E+02 -0.18637311178E+02  0.47787272172E+02  0.20000005139E+02 0.  0.
        -12    1    1    2    0    0  0.28976829195E+02 -0.26393506358E+02  0.18637311178E+02  0.43400727828E+02  0.00000000000E+00 0.  1.
         11    1    3    3    0    0 -0.12789309750E+02  0.15603181259E+02 -0.18668881491E+02  0.27487321544E+02  0.51100000000E-03 0. -1.
        -11    1    3    3    0    0 -0.10031543149E+02  0.70400155603E+01  0.28121547386E+01  0.12573857466E+02  0.51100000000E-03 0.  1.
        -12    1    3    3    0    0 -0.61559762961E+01  0.37503095383E+01 -0.27805844261E+01  0.77260931615E+01  0.00000000000E+00 0.  1.
</event>
<event>
 7    1  0.2430096E-009  0.4778727E+02  0.7816164E-02  0.1312668E+00
        -11   -1    0    0    0    0  0.00000000000E+00  0.00000000000E+00  0.45593999997E+02  0.45594000000E+02  0.51100000000E-03 0.  1.
         11   -1    0    0    0    0 -0.00000000000E+00 -0.00000000000E+00 -0.45593999997E+02  0.45594000000E+02  0.51100000000E-03 0. -1.
    9900012    2    1    2    0    0  0.82090246609E+01  0.80212179939E+01 -0.41855648336E+02  0.47787270495E+02  0.19999997493E+02 0.  0.
        -12    1    1    2    0    0 -0.82090246609E+01 -0.80212179939E+01  0.41855648336E+02  0.43400729505E+02  0.00000000000E+00 0.  1.
         11    1    3    3    0    0  0.94818195432E+01  0.10633174971E+02 -0.27090559301E+02  0.30608294878E+02  0.51100000000E-03 0. -1.
        -11    1    3    3    0    0 -0.24531457834E+01 -0.38764693541E+01 -0.34695627195E+01  0.57517653476E+01  0.51100000000E-03 0.  1.
        -12    1    3    3    0    0  0.11803509012E+01  0.12645123769E+01 -0.11295526315E+02  0.11427210269E+02  0.00000000000E+00 0.  1.
</event>
<event>
 7    1  0.2430096E-009  0.4778727E+02  0.7816164E-02  0.1312668E+00
        -11   -1    0    0    0    0  0.00000000000E+00  0.00000000000E+00  0.45593999997E+02  0.45594000000E+02  0.51100000000E-03 0.  1.
         11   -1    0    0    0    0 -0.00000000000E+00 -0.00000000000E+00 -0.45593999997E+02  0.45594000000E+02  0.51100000000E-03 0. -1.
    9900012    2    1    2    0    0 -0.31804862696E+02  0.86419077592E+01 -0.28238120810E+02  0.47787270424E+02  0.19999997172E+02 0.  0.
        -12    1    1    2    0    0  0.31804862696E+02 -0.86419077592E+01  0.28238120810E+02  0.43400729576E+02  0.00000000000E+00 0.  1.
         11    1    3    3    0    0 -0.26684785547E+02  0.40172731524E+01 -0.23208343179E+02  0.35592744438E+02  0.51100000000E-03 0. -1.
        -11    1    3    3    0    0  0.82457682629E+00  0.50601108480E+01 -0.19487031504E+01  0.54847144836E+01  0.51100000000E-03 0.  1.
         12    1    3    3    0    0 -0.59446539755E+01 -0.43547624125E+00 -0.30810744808E+01  0.67098115027E+01  0.00000000000E+00 0. -1.
</event>
<event>
 7    1  0.2484333E-009  0.4778727E+02  0.7816164E-02  0.1312668E+00
        -11   -1    0    0    0    0  0.00000000000E+00  0.00000000000E+00  0.45593999997E+02  0.45594000000E+02  0.51100000000E-03 0. -1.
         11   -1    0    0    0    0 -0.00000000000E+00 -0.00000000000E+00 -0.45593999997E+02  0.45594000000E+02  0.51100000000E-03 0.  1.
    9900012    2    1    2    0    0 -0.39084608285E+02  0.66947557777E+01 -0.17640774895E+02  0.47787270760E+02  0.19999998702E+02 0.  0.
        -12    1    1    2    0    0  0.39084608285E+02 -0.66947557777E+01  0.17640774895E+02  0.43400729240E+02  0.00000000000E+00 0.  1.
         11    1    3    3    0    0 -0.29178409870E+02  0.87653187206E+01 -0.15748102469E+02  0.34295963997E+02  0.51100000000E-03 0. -1.
        -11    1    3    3    0    0 -0.99019457293E+01 -0.12057156946E+01  0.14127358739E+01  0.10074626667E+02  0.51100000000E-03 0.  1.
        -12    1    3    3    0    0 -0.42526848765E-02 -0.86484724820E+00 -0.33054083006E+01  0.34166800965E+01  0.00000000000E+00 0.  1.
</event>
<event>
 7    1  0.2430096E-009  0.4778727E+02  0.7816164E-02  0.1312668E+00
        -11   -1    0    0    0    0  0.00000000000E+00  0.00000000000E+00  0.45593999997E+02  0.45594000000E+02  0.51100000000E-03 0.  1.
         11   -1    0    0    0    0 -0.00000000000E+00 -0.00000000000E+00 -0.45593999997E+02  0.45594000000E+02  0.51100000000E-03 0. -1.
    9900012    2    1    2    0    0  0.17972309194E+02  0.22740277965E+02 -0.32303235799E+02  0.47787272094E+02  0.20000004786E+02 0.  0.
        -12    1    1    2    0    0 -0.17972309194E+02 -0.22740277965E+02  0.32303235799E+02  0.43400727906E+02  0.00000000000E+00 0.  1.
         11    1    3    3    0    0  0.44320066182E+01  0.12928932964E+02 -0.68402016177E+01  0.15283597373E+02  0.51100000000E-03 0. -1.
        -11    1    3    3    0    0  0.10479199967E+02  0.51029056876E+01 -0.24030200731E+02  0.26707748423E+02  0.51100000000E-03 0.  1.
        -12    1    3    3    0    0  0.30611026084E+01  0.47084393137E+01 -0.14328334507E+01  0.57959262976E+01  0.00000000000E+00 0.  1.
</event>
<event>
 7    1  0.2430096E-009  0.4778727E+02  0.7816164E-02  0.1312668E+00
        -11   -1    0    0    0    0  0.00000000000E+00  0.00000000000E+00  0.45593999997E+02  0.45594000000E+02  0.51100000000E-03 0. -1.
         11   -1    0    0    0    0 -0.00000000000E+00 -0.00000000000E+00 -0.45593999997E+02  0.45594000000E+02  0.51100000000E-03 0.  1.
    9900012    2    1    2    0    0  0.22323912655E+02 -0.27027480769E+02  0.25588700100E+02  0.47787269986E+02  0.19999995174E+02 0.  0.
        -12    1    1    2    0    0 -0.22323912655E+02  0.27027480769E+02 -0.25588700100E+02  0.43400730014E+02  0.00000000000E+00 0.  1.
         11    1    3    3    0    0  0.70642081032E+01 -0.21028460217E+02  0.98734760584E+01  0.24281365385E+02  0.51100000000E-03 0. -1.
        -11    1    3    3    0    0  0.12000531950E+02 -0.44428742063E+01  0.82850549295E+01  0.15244475515E+02  0.51100000000E-03 0.  1.
         12    1    3    3    0    0  0.32591726022E+01 -0.15561463451E+01  0.74301691123E+01  0.82614290856E+01  0.00000000000E+00 0. -1.
</event>
<event>
 7    1  0.2430096E-009  0.4778727E+02  0.7816164E-02  0.1312668E+00
        -11   -1    0    0    0    0  0.00000000000E+00  0.00000000000E+00  0.45593999997E+02  0.45594000000E+02  0.51100000000E-03 0. -1.
         11   -1    0    0    0    0 -0.00000000000E+00 -0.00000000000E+00 -0.45593999997E+02  0.45594000000E+02  0.51100000000E-03 0.  1.
    9900012    2    1    2    0    0  0.25360759601E+02  0.25878281018E+02  0.23890784556E+02  0.47787272556E+02  0.20000006890E+02 0.  0.
        -12    1    1    2    0    0 -0.25360759601E+02 -0.25878281018E+02 -0.23890784556E+02  0.43400727444E+02  0.00000000000E+00 0.  1.
         11    1    3    3    0    0  0.11452669953E+02  0.78980102535E+01  0.17111982886E+02  0.22053620418E+02  0.51100000000E-03 0. -1.
        -11    1    3    3    0    0  0.14960711154E+02  0.14314045831E+02  0.41937621641E+01  0.21125871050E+02  0.51100000000E-03 0.  1.
        -12    1    3    3    0    0 -0.10526215055E+01  0.36662249336E+01  0.25850395062E+01  0.46077810871E+01  0.00000000000E+00 0.  1.
</event>
<event>
 7    1  0.2430096E-009  0.4778727E+02  0.7816164E-02  0.1312668E+00
        -11   -1    0    0    0    0  0.00000000000E+00  0.00000000000E+00  0.45593999997E+02  0.45594000000E+02  0.51100000000E-03 0.  1.
         11   -1    0    0    0    0 -0.00000000000E+00 -0.00000000000E+00 -0.45593999997E+02  0.45594000000E+02  0.51100000000E-03 0. -1.
    9900012    2    1    2    0    0 -0.32038112349E+02 -0.28208783639E+01 -0.29141472461E+02  0.47787269420E+02  0.19999992594E+02 0.  0.
        -12    1    1    2    0    0  0.32038112349E+02  0.28208783639E+01  0.29141472461E+02  0.43400730580E+02  0.00000000000E+00 0.  1.
         11    1    3    3    0    0 -0.59929539601E+01  0.33189497209E+01 -0.16444373222E+02  0.17814273360E+02  0.51100000000E-03 0.  1.
        -11    1    3    3    0    0 -0.20995488937E+02 -0.51245814758E+01 -0.12150710980E+02  0.24793379531E+02  0.51100000000E-03 0. -1.
        -12    1    3    3    0    0 -0.50496694527E+01 -0.10152466090E+01 -0.54638825893E+00  0.51796165291E+01  0.00000000000E+00 0.  1.
</event>
<event>
 7    1  0.2430096E-009  0.4778727E+02  0.7816164E-02  0.1312668E+00
        -11   -1    0    0    0    0  0.00000000000E+00  0.00000000000E+00  0.45593999997E+02  0.45594000000E+02  0.51100000000E-03 0.  1.
         11   -1    0    0    0    0 -0.00000000000E+00 -0.00000000000E+00 -0.45593999997E+02  0.45594000000E+02  0.51100000000E-03 0. -1.
    9900012    2    1    2    0    0  0.23631161801E+02  0.29976369727E+02  0.20654506497E+02  0.47787272026E+02  0.20000004474E+02 0.  0.
        -12    1    1    2    0    0 -0.23631161801E+02 -0.29976369727E+02 -0.20654506497E+02  0.43400727974E+02  0.00000000000E+00 0.  1.
         11    1    3    3    0    0  0.10993902809E+02  0.81002203968E+01 -0.15073413773E+01  0.13738687992E+02  0.51100000000E-03 0. -1.
        -11    1    3    3    0    0  0.10063061779E+02  0.12092732987E+02  0.13560006086E+02  0.20769525001E+02  0.51100000000E-03 0.  1.
         12    1    3    3    0    0  0.25741972122E+01  0.97834163433E+01  0.86018417883E+01  0.13279059032E+02  0.00000000000E+00 0. -1.
</event>
<event>
 7    1  0.2430096E-009  0.4778727E+02  0.7816164E-02  0.1312668E+00
        -11   -1    0    0    0    0  0.00000000000E+00  0.00000000000E+00  0.45593999997E+02  0.45594000000E+02  0.51100000000E-03 0.  1.
         11   -1    0    0    0    0 -0.00000000000E+00 -0.00000000000E+00 -0.45593999997E+02  0.45594000000E+02  0.51100000000E-03 0. -1.
    9900012    2    1    2    0    0 -0.12951421564E+01 -0.42385697862E+00 -0.43379329517E+02  0.47787271005E+02  0.19999999820E+02 0.  0.
        -12    1    1    2    0    0  0.12951421564E+01  0.42385697862E+00  0.43379329517E+02  0.43400728995E+02  0.00000000000E+00 0.  1.
         11    1    3    3    0    0  0.41209139921E-01 -0.16394361571E+01 -0.10403508643E+02  0.10531972344E+02  0.51100000000E-03 0. -1.
        -11    1    3    3    0    0  0.26157127393E+00  0.31746602822E+01 -0.34268248589E+02  0.34415981013E+02  0.51100000000E-03 0.  1.
        -12    1    3    3    0    0 -0.15979225702E+01 -0.19590811037E+01  0.12924277149E+01  0.28393176486E+01  0.00000000000E+00 0.  1.
</event>
<event>
 7    1  0.2430096E-009  0.4778727E+02  0.7816164E-02  0.1312668E+00
        -11   -1    0    0    0    0  0.00000000000E+00  0.00000000000E+00  0.45593999997E+02  0.45594000000E+02  0.51100000000E-03 0.  1.
         11   -1    0    0    0    0 -0.00000000000E+00 -0.00000000000E+00 -0.45593999997E+02  0.45594000000E+02  0.51100000000E-03 0. -1.
    9900012    2    1    2    0    0 -0.22466250044E+02  0.15270669131E+02 -0.33848154091E+02  0.47787271180E+02  0.20000000618E+02 0.  0.
        -12    1    1    2    0    0  0.22466250044E+02 -0.15270669131E+02  0.33848154091E+02  0.43400728820E+02  0.00000000000E+00 0.  1.
         11    1    3    3    0    0  0.71513513160E-01 -0.74657450315E+00 -0.31755775368E+01  0.32629404874E+01  0.51100000000E-03 0. -1.
        -11    1    3    3    0    0 -0.15303851807E+02  0.68308966263E+00 -0.14514508242E+02  0.21103209267E+02  0.51100000000E-03 0.  1.
        -12    1    3    3    0    0 -0.72339117507E+01  0.15334153972E+02 -0.16158068312E+02  0.23421121426E+02  0.00000000000E+00 0.  1.
</event>
<event>
 7    1  0.2430096E-009  0.4778727E+02  0.7816164E-02  0.1312668E+00
        -11   -1    0    0    0    0  0.00000000000E+00  0.00000000000E+00  0.45593999997E+02  0.45594000000E+02  0.51100000000E-03 0.  1.
         11   -1    0    0    0    0 -0.00000000000E+00 -0.00000000000E+00 -0.45593999997E+02  0.45594000000E+02  0.51100000000E-03 0. -1.
    9900012    2    1    2    0    0  0.11851978585E+02 -0.41749034457E+02  0.41492620797E+00  0.47787269151E+02  0.19999991365E+02 0.  0.
        -12    1    1    2    0    0 -0.11851978585E+02  0.41749034457E+02 -0.41492620797E+00  0.43400730849E+02  0.00000000000E+00 0.  1.
         11    1    3    3    0    0  0.17261062162E+01  0.19925315512E+01 -0.15866799145E+00  0.26409847491E+01  0.51100000000E-03 0.  1.
        -11    1    3    3    0    0  0.99661765131E+01 -0.43795395319E+02  0.41811177931E+00  0.44916991698E+02  0.51100000000E-03 0. -1.
         12    1    3    3    0    0  0.15969585609E+00  0.53829310497E-01  0.15548242011E+00  0.22929270395E+00  0.00000000000E+00 0. -1.
</event>
<event>
 7    1  0.2430096E-009  0.4778727E+02  0.7816164E-02  0.1312668E+00
        -11   -1    0    0    0    0  0.00000000000E+00  0.00000000000E+00  0.45593999997E+02  0.45594000000E+02  0.51100000000E-03 0.  1.
         11   -1    0    0    0    0 -0.00000000000E+00 -0.00000000000E+00 -0.45593999997E+02  0.45594000000E+02  0.51100000000E-03 0. -1.
    9900012    2    1    2    0    0 -0.14236607544E+02  0.39574343009E+02 -0.10715135804E+02  0.47787265510E+02  0.19999974767E+02 0.  0.
        -12    1    1    2    0    0  0.14236607544E+02 -0.39574343009E+02  0.10715135804E+02  0.43400734490E+02  0.00000000000E+00 0.  1.
         11    1    3    3    0    0 -0.78618588681E+01  0.13313154869E+02 -0.33734528978E+01  0.15824951884E+02  0.51100000000E-03 0. -1.
        -11    1    3    3    0    0 -0.32165067780E+01  0.12232082953E+01 -0.57181235686E+01  0.66737614427E+01  0.51100000000E-03 0.  1.
        -12    1    3    3    0    0 -0.31582418980E+01  0.25037979845E+02 -0.16235593372E+01  0.25288552183E+02  0.00000000000E+00 0.  1.
</event>
<event>
 7    1  0.2430096E-009  0.4778727E+02  0.7816164E-02  0.1312668E+00
        -11   -1    0    0    0    0  0.00000000000E+00  0.00000000000E+00  0.45593999997E+02  0.45594000000E+02  0.51100000000E-03 0.  1.
         11   -1    0    0    0    0 -0.00000000000E+00 -0.00000000000E+00 -0.45593999997E+02  0.45594000000E+02  0.51100000000E-03 0. -1.
    9900012    2    1    2    0    0  0.39469149795E+02 -0.16382325025E+02 -0.75781900881E+01  0.47787270470E+02  0.19999997380E+02 0.  0.
        -12    1    1    2    0    0 -0.39469149795E+02  0.16382325025E+02  0.75781900881E+01  0.43400729530E+02  0.00000000000E+00 0.  1.
         11    1    3    3    0    0  0.20613554424E+02 -0.15580103916E+02 -0.21571686368E+01  0.25928972999E+02  0.51100000000E-03 0. -1.
        -11    1    3    3    0    0 -0.11359812119E+01 -0.31073164730E+00 -0.28837604301E+00  0.12125050407E+01  0.51100000000E-03 0.  1.
         12    1    3    3    0    0  0.19991576583E+02 -0.49148946163E+00 -0.51326454083E+01  0.20645792430E+02  0.00000000000E+00 0. -1.
</event>
<event>
 7    1  0.2430096E-009  0.4778727E+02  0.7816164E-02  0.1312668E+00
        -11   -1    0    0    0    0  0.00000000000E+00  0.00000000000E+00  0.45593999997E+02  0.45594000000E+02  0.51100000000E-03 0.  1.
         11   -1    0    0    0    0 -0.00000000000E+00 -0.00000000000E+00 -0.45593999997E+02  0.45594000000E+02  0.51100000000E-03 0. -1.
    9900012    2    1    2    0    0 -0.30692878675E+02  0.94018746917E+01 -0.29209165905E+02  0.47787269339E+02  0.19999992222E+02 0.  0.
        -12    1    1    2    0    0  0.30692878675E+02 -0.94018746917E+01  0.29209165905E+02  0.43400730661E+02  0.00000000000E+00 0.  1.
         11    1    3    3    0    0 -0.20333561440E+02  0.69404975597E+01 -0.29879028501E+02  0.36801909891E+02  0.51100000000E-03 0. -1.
        -11    1    3    3    0    0 -0.59021936460E+01  0.18114820067E+01  0.16179469186E+01  0.63824062381E+01  0.51100000000E-03 0.  1.
         12    1    3    3    0    0 -0.44571235891E+01  0.64989512524E+00 -0.94808432237E+00  0.46029532090E+01  0.00000000000E+00 0. -1.
</event>
<event>
 7    1  0.2430096E-009  0.4778727E+02  0.7816164E-02  0.1312668E+00
        -11   -1    0    0    0    0  0.00000000000E+00  0.00000000000E+00  0.45593999997E+02  0.45594000000E+02  0.51100000000E-03 0.  1.
         11   -1    0    0    0    0 -0.00000000000E+00 -0.00000000000E+00 -0.45593999997E+02  0.45594000000E+02  0.51100000000E-03 0. -1.
    9900012    2    1    2    0    0 -0.17939013310E+02 -0.24006010447E+02 -0.31393095375E+02  0.47787272203E+02  0.20000005281E+02 0.  0.
        -12    1    1    2    0    0  0.17939013310E+02  0.24006010447E+02  0.31393095375E+02  0.43400727797E+02  0.00000000000E+00 0.  1.
         11    1    3    3    0    0 -0.17646774170E+02 -0.22607874728E+02 -0.24463086781E+02  0.37695719298E+02  0.51100000000E-03 0. -1.
        -11    1    3    3    0    0  0.20011723326E+01 -0.19589171992E+00 -0.72117774492E+01  0.74868416912E+01  0.51100000000E-03 0.  1.
         12    1    3    3    0    0 -0.22934114727E+01 -0.12022439993E+01  0.28176885514E+00  0.26047112133E+01  0.00000000000E+00 0. -1.
</event>
<event>
 7    1  0.2430096E-009  0.4778727E+02  0.7816164E-02  0.1312668E+00
        -11   -1    0    0    0    0  0.00000000000E+00  0.00000000000E+00  0.45593999997E+02  0.45594000000E+02  0.51100000000E-03 0.  1.
         11   -1    0    0    0    0 -0.00000000000E+00 -0.00000000000E+00 -0.45593999997E+02  0.45594000000E+02  0.51100000000E-03 0. -1.
    9900012    2    1    2    0    0  0.14913656740E+02 -0.36664392967E+02 -0.17802485846E+02  0.47787269922E+02  0.19999994882E+02 0.  0.
        -12    1    1    2    0    0 -0.14913656740E+02  0.36664392967E+02  0.17802485846E+02  0.43400730078E+02  0.00000000000E+00 0.  1.
         11    1    3    3    0    0  0.11101587022E+02 -0.18464344547E+02 -0.13631182777E+02  0.25494830812E+02  0.51100000000E-03 0. -1.
        -11    1    3    3    0    0 -0.87373432208E+00 -0.16997179865E+02 -0.38125833042E+01  0.17441425594E+02  0.51100000000E-03 0.  1.
        -12    1    3    3    0    0  0.46858040400E+01 -0.12028685546E+01 -0.35871976527E+00  0.48510135158E+01  0.00000000000E+00 0.  1.
</event>
<event>
 7    1  0.2430096E-009  0.4778727E+02  0.7816164E-02  0.1312668E+00
        -11   -1    0    0    0    0  0.00000000000E+00  0.00000000000E+00  0.45593999997E+02  0.45594000000E+02  0.51100000000E-03 0. -1.
         11   -1    0    0    0    0 -0.00000000000E+00 -0.00000000000E+00 -0.45593999997E+02  0.45594000000E+02  0.51100000000E-03 0.  1.
    9900012    2    1    2    0    0 -0.34830686039E+02 -0.15185640910E+02  0.20972428818E+02  0.47787272468E+02  0.20000006491E+02 0.  0.
        -12    1    1    2    0    0  0.34830686039E+02  0.15185640910E+02 -0.20972428818E+02  0.43400727532E+02  0.00000000000E+00 0.  1.
         11    1    3    3    0    0 -0.27773658545E+02 -0.12657977473E+02  0.18958407609E+02  0.35930790723E+02  0.51100000000E-03 0. -1.
        -11    1    3    3    0    0 -0.43737258781E+01  0.86735055281E+00 -0.28920219312E+01  0.53146557885E+01  0.51100000000E-03 0.  1.
         12    1    3    3    0    0 -0.26833016157E+01 -0.33950139897E+01  0.49060431400E+01  0.65418259562E+01  0.00000000000E+00 0. -1.
</event>
<event>
 7    1  0.2430096E-009  0.4778727E+02  0.7816164E-02  0.1312668E+00
        -11   -1    0    0    0    0  0.00000000000E+00  0.00000000000E+00  0.45593999997E+02  0.45594000000E+02  0.51100000000E-03 0.  1.
         11   -1    0    0    0    0 -0.00000000000E+00 -0.00000000000E+00 -0.45593999997E+02  0.45594000000E+02  0.51100000000E-03 0. -1.
    9900012    2    1    2    0    0 -0.88917662572E+01 -0.16880620041E+02 -0.38982103889E+02  0.47787271161E+02  0.20000000532E+02 0.  0.
        -12    1    1    2    0    0  0.88917662572E+01  0.16880620041E+02  0.38982103889E+02  0.43400728839E+02  0.00000000000E+00 0.  1.
         11    1    3    3    0    0  0.22056391970E+01  0.45215451751E+00 -0.14020656993E+02  0.14200285587E+02  0.51100000000E-03 0. -1.
        -11    1    3    3    0    0 -0.12676312211E+02 -0.15940648791E+02 -0.22529497268E+02  0.30370568361E+02  0.51100000000E-03 0.  1.
        -12    1    3    3    0    0  0.15789067568E+01 -0.13921257677E+01 -0.24319496280E+01  0.32164172138E+01  0.00000000000E+00 0.  1.
</event>
<event>
 7    1  0.2430096E-009  0.4778726E+02  0.7816164E-02  0.1312668E+00
        -11   -1    0    0    0    0  0.00000000000E+00  0.00000000000E+00  0.45593999997E+02  0.45594000000E+02  0.51100000000E-03 0. -1.
         11   -1    0    0    0    0 -0.00000000000E+00 -0.00000000000E+00 -0.45593999997E+02  0.45594000000E+02  0.51100000000E-03 0.  1.
    9900012    2    1    2    0    0  0.36081331055E+02 -0.24064123858E+02 -0.16368890471E+01  0.47787263675E+02  0.19999966402E+02 0.  0.
        -12    1    1    2    0    0 -0.36081331055E+02  0.24064123858E+02  0.16368890471E+01  0.43400736325E+02  0.00000000000E+00 0.  1.
         11    1    3    3    0    0  0.70969363915E+01  0.14070672104E+00 -0.22787533200E+01  0.74551339010E+01  0.51100000000E-03 0. -1.
        -11    1    3    3    0    0  0.14882052145E+02 -0.20961613154E+02 -0.12547688027E+01  0.25737893213E+02  0.51100000000E-03 0.  1.
         12    1    3    3    0    0  0.14102342519E+02 -0.32432174252E+01  0.18966330756E+01  0.14594236561E+02  0.00000000000E+00 0. -1.
</event>
<event>
 7    1  0.2430096E-009  0.4778727E+02  0.7816164E-02  0.1312668E+00
        -11   -1    0    0    0    0  0.00000000000E+00  0.00000000000E+00  0.45593999997E+02  0.45594000000E+02  0.51100000000E-03 0. -1.
         11   -1    0    0    0    0 -0.00000000000E+00 -0.00000000000E+00 -0.45593999997E+02  0.45594000000E+02  0.51100000000E-03 0.  1.
    9900012    2    1    2    0    0 -0.22087710720E+02  0.13862795382E+02  0.34692637782E+02  0.47787272161E+02  0.20000005093E+02 0.  0.
        -12    1    1    2    0    0  0.22087710720E+02 -0.13862795382E+02 -0.34692637782E+02  0.43400727839E+02  0.00000000000E+00 0.  1.
         11    1    3    3    0    0 -0.81982270009E+01  0.20021142847E+01  0.16685041125E+02  0.18697860444E+02  0.51100000000E-03 0. -1.
        -11    1    3    3    0    0 -0.15321710662E+02  0.85779001005E+01  0.97412779257E+01  0.20080529964E+02  0.51100000000E-03 0.  1.
        -12    1    3    3    0    0  0.14322269428E+01  0.32827809963E+01  0.82663187307E+01  0.90088817532E+01  0.00000000000E+00 0.  1.
</event>
<event>
 7    1  0.2430096E-009  0.4778728E+02  0.7816164E-02  0.1312668E+00
        -11   -1    0    0    0    0  0.00000000000E+00  0.00000000000E+00  0.45593999997E+02  0.45594000000E+02  0.51100000000E-03 0.  1.
         11   -1    0    0    0    0 -0.00000000000E+00 -0.00000000000E+00 -0.45593999997E+02  0.45594000000E+02  0.51100000000E-03 0. -1.
    9900012    2    1    2    0    0 -0.24502850334E+02 -0.34935157878E+02 -0.79225876508E+01  0.47787281970E+02  0.20000049815E+02 0.  0.
        -12    1    1    2    0    0  0.24502850334E+02  0.34935157878E+02  0.79225876508E+01  0.43400718030E+02  0.00000000000E+00 0.  1.
         11    1    3    3    0    0 -0.46135478353E+01  0.17016428825E+01 -0.86157236430E+00  0.49922659512E+01  0.51100000000E-03 0. -1.
        -11    1    3    3    0    0 -0.17331632511E+02 -0.29388873663E+02 -0.80221126624E+01  0.35049189327E+02  0.51100000000E-03 0.  1.
        -12    1    3    3    0    0 -0.25576699875E+01 -0.72479270970E+01  0.96109737593E+00  0.77458266915E+01  0.00000000000E+00 0.  1.
</event>
<event>
 7    1  0.2430096E-009  0.4778727E+02  0.7816164E-02  0.1312668E+00
        -11   -1    0    0    0    0  0.00000000000E+00  0.00000000000E+00  0.45593999997E+02  0.45594000000E+02  0.51100000000E-03 0.  1.
         11   -1    0    0    0    0 -0.00000000000E+00 -0.00000000000E+00 -0.45593999997E+02  0.45594000000E+02  0.51100000000E-03 0. -1.
    9900012    2    1    2    0    0 -0.16175407709E+02  0.15165836045E+02 -0.37309209084E+02  0.47787268670E+02  0.19999989176E+02 0.  0.
        -12    1    1    2    0    0  0.16175407709E+02 -0.15165836045E+02  0.37309209084E+02  0.43400731330E+02  0.00000000000E+00 0.  1.
         11    1    3    3    0    0 -0.22035887581E+01 -0.27407948638E+01 -0.11975229126E+02  0.12480940380E+02  0.51100000000E-03 0. -1.
        -11    1    3    3    0    0 -0.14354317108E+02  0.12135494909E+02 -0.18925953295E+02  0.26674114132E+02  0.51100000000E-03 0.  1.
         12    1    3    3    0    0  0.38249815684E+00  0.57711359994E+01 -0.64080266628E+01  0.86322141583E+01  0.00000000000E+00 0. -1.
</event>
<event>
 7    1  0.2430096E-009  0.4778727E+02  0.7816164E-02  0.1312668E+00
        -11   -1    0    0    0    0  0.00000000000E+00  0.00000000000E+00  0.45593999997E+02  0.45594000000E+02  0.51100000000E-03 0.  1.
         11   -1    0    0    0    0 -0.00000000000E+00 -0.00000000000E+00 -0.45593999997E+02  0.45594000000E+02  0.51100000000E-03 0. -1.
    9900012    2    1    2    0    0 -0.51176437113E+01  0.39762207258E+02 -0.16625277085E+02  0.47787271419E+02  0.20000001708E+02 0.  0.
        -12    1    1    2    0    0  0.51176437113E+01 -0.39762207258E+02  0.16625277085E+02  0.43400728581E+02  0.00000000000E+00 0.  1.
         11    1    3    3    0    0 -0.24138675068E+01 -0.94961402029E+00 -0.29072445733E+01  0.38962282272E+01  0.51100000000E-03 0. -1.
        -11    1    3    3    0    0 -0.95728219208E+00  0.34559502553E+02 -0.84128062360E+01  0.35581609224E+02  0.51100000000E-03 0.  1.
        -12    1    3    3    0    0 -0.17464940124E+01  0.61523187253E+01 -0.53052262757E+01  0.83094339680E+01  0.00000000000E+00 0.  1.
</event>
<event>
 7    1  0.2430096E-009  0.4778727E+02  0.7816164E-02  0.1312668E+00
        -11   -1    0    0    0    0  0.00000000000E+00  0.00000000000E+00  0.45593999997E+02  0.45594000000E+02  0.51100000000E-03 0.  1.
         11   -1    0    0    0    0 -0.00000000000E+00 -0.00000000000E+00 -0.45593999997E+02  0.45594000000E+02  0.51100000000E-03 0. -1.
    9900012    2    1    2    0    0 -0.21761901216E+02 -0.34988586575E+02 -0.13632375740E+02  0.47787271857E+02  0.20000003707E+02 0.  0.
        -12    1    1    2    0    0  0.21761901216E+02  0.34988586575E+02  0.13632375740E+02  0.43400728143E+02  0.00000000000E+00 0.  1.
         11    1    3    3    0    0 -0.91044005213E+01 -0.32795053141E+01 -0.23279677778E+01  0.99531250466E+01  0.51100000000E-03 0. -1.
        -11    1    3    3    0    0 -0.11500673604E+02 -0.23572860208E+02 -0.34292313873E+01  0.26451934899E+02  0.51100000000E-03 0.  1.
        -12    1    3    3    0    0 -0.11568270908E+01 -0.81362210526E+01 -0.78751765744E+01  0.11382211912E+02  0.00000000000E+00 0.  1.
</event>
<event>
 7    1  0.2430096E-009  0.4778727E+02  0.7816164E-02  0.1312668E+00
        -11   -1    0    0    0    0  0.00000000000E+00  0.00000000000E+00  0.45593999997E+02  0.45594000000E+02  0.51100000000E-03 0. -1.
         11   -1    0    0    0    0 -0.00000000000E+00 -0.00000000000E+00 -0.45593999997E+02  0.45594000000E+02  0.51100000000E-03 0.  1.
    9900012    2    1    2    0    0 -0.34050872763E+02 -0.65220476662E+01  0.26107937262E+02  0.47787269248E+02  0.19999991810E+02 0.  0.
        -12    1    1    2    0    0  0.34050872763E+02  0.65220476662E+01 -0.26107937262E+02  0.43400730752E+02  0.00000000000E+00 0.  1.
         11    1    3    3    0    0 -0.50596783886E+01 -0.20058728946E+01  0.43529901089E+01  0.69693898309E+01  0.51100000000E-03 0. -1.
        -11    1    3    3    0    0 -0.12456164103E+02 -0.46292322668E+01 -0.25213712377E+00  0.13290951393E+02  0.51100000000E-03 0.  1.
        -12    1    3    3    0    0 -0.16535030272E+02  0.11305749523E+00  0.22007084277E+02  0.27526928025E+02  0.00000000000E+00 0.  1.
</event>
<event>
 7    1  0.2430096E-009  0.4778728E+02  0.7816164E-02  0.1312668E+00
        -11   -1    0    0    0    0  0.00000000000E+00  0.00000000000E+00  0.45593999997E+02  0.45594000000E+02  0.51100000000E-03 0. -1.
         11   -1    0    0    0    0 -0.00000000000E+00 -0.00000000000E+00 -0.45593999997E+02  0.45594000000E+02  0.51100000000E-03 0.  1.
    9900012    2    1    2    0    0 -0.26821672473E+02  0.28051112067E+02  0.19425649297E+02  0.47787275893E+02  0.20000022105E+02 0.  0.
        -12    1    1    2    0    0  0.26821672473E+02 -0.28051112067E+02 -0.19425649297E+02  0.43400724107E+02  0.00000000000E+00 0.  1.
         11    1    3    3    0    0 -0.12027072019E+02  0.69823539262E+01  0.74698150858E+01  0.15786128892E+02  0.51100000000E-03 0. -1.
        -11    1    3    3    0    0  0.26424673956E+01  0.21784819671E+01 -0.45416204231E+00  0.34546607705E+01  0.51100000000E-03 0.  1.
        -12    1    3    3    0    0 -0.17437067849E+02  0.18890276174E+02  0.12409996253E+02  0.28546486231E+02  0.00000000000E+00 0.  1.
</event>
<event>
 7    1  0.2430096E-009  0.4778725E+02  0.7816164E-02  0.1312668E+00
        -11   -1    0    0    0    0  0.00000000000E+00  0.00000000000E+00  0.45593999997E+02  0.45594000000E+02  0.51100000000E-03 0.  1.
         11   -1    0    0    0    0 -0.00000000000E+00 -0.00000000000E+00 -0.45593999997E+02  0.45594000000E+02  0.51100000000E-03 0. -1.
    9900012    2    1    2    0    0 -0.22729374407E+02 -0.12057774524E+02 -0.34951543610E+02  0.47787253599E+02  0.19999920461E+02 0.  0.
        -12    1    1    2    0    0  0.22729374407E+02  0.12057774524E+02  0.34951543610E+02  0.43400746401E+02  0.00000000000E+00 0.  1.
         11    1    3    3    0    0 -0.86161434648E+01  0.10455717230E+01 -0.19383411865E+02  0.21237886058E+02  0.51100000000E-03 0. -1.
        -11    1    3    3    0    0 -0.12821861783E+02 -0.59537081433E+01 -0.90246541336E+01  0.16771737022E+02  0.51100000000E-03 0.  1.
         12    1    3    3    0    0 -0.12913691590E+01 -0.71496381035E+01 -0.65434776119E+01  0.97776305193E+01  0.00000000000E+00 0. -1.
</event>
<event>
 7    1  0.2430096E-009  0.4778728E+02  0.7816164E-02  0.1312668E+00
        -11   -1    0    0    0    0  0.00000000000E+00  0.00000000000E+00  0.45593999997E+02  0.45594000000E+02  0.51100000000E-03 0. -1.
         11   -1    0    0    0    0 -0.00000000000E+00 -0.00000000000E+00 -0.45593999997E+02  0.45594000000E+02  0.51100000000E-03 0.  1.
    9900012    2    1    2    0    0 -0.40179726354E+02  0.16133783827E+02  0.29855481769E+01  0.47787275485E+02  0.20000020247E+02 0.  0.
        -12    1    1    2    0    0  0.40179726354E+02 -0.16133783827E+02 -0.29855481769E+01  0.43400724515E+02  0.00000000000E+00 0.  1.
         11    1    3    3    0    0 -0.28684979213E+02  0.28657641955E+01  0.18001540037E+01  0.28883926180E+02  0.51100000000E-03 0. -1.
        -11    1    3    3    0    0 -0.50925228637E+01  0.85075255860E+01  0.36304038150E+01  0.10558958890E+02  0.51100000000E-03 0.  1.
         12    1    3    3    0    0 -0.64022242780E+01  0.47604940457E+01 -0.24450096418E+01  0.83443904159E+01  0.00000000000E+00 0. -1.
</event>
<event>
 7    1  0.2430096E-009  0.4778727E+02  0.7816164E-02  0.1312668E+00
        -11   -1    0    0    0    0  0.00000000000E+00  0.00000000000E+00  0.45593999997E+02  0.45594000000E+02  0.51100000000E-03 0. -1.
         11   -1    0    0    0    0 -0.00000000000E+00 -0.00000000000E+00 -0.45593999997E+02  0.45594000000E+02  0.51100000000E-03 0.  1.
    9900012    2    1    2    0    0 -0.21205281193E+02 -0.16265072233E+02  0.34196589538E+02  0.47787271190E+02  0.20000000662E+02 0.  0.
        -12    1    1    2    0    0  0.21205281193E+02  0.16265072233E+02 -0.34196589538E+02  0.43400728810E+02  0.00000000000E+00 0.  1.
         11    1    3    3    0    0 -0.19882419164E+02 -0.12518376599E+02  0.32971459503E+02  0.40486262936E+02  0.51100000000E-03 0. -1.
        -11    1    3    3    0    0 -0.19543838375E+01 -0.48352446232E+01 -0.41720288450E+00  0.52319466031E+01  0.51100000000E-03 0.  1.
         12    1    3    3    0    0  0.63152180815E+00  0.10885489888E+01  0.16423329192E+01  0.20690616503E+01  0.00000000000E+00 0. -1.
</event>
<event>
 7    1  0.2430096E-009  0.4778727E+02  0.7816164E-02  0.1312668E+00
        -11   -1    0    0    0    0  0.00000000000E+00  0.00000000000E+00  0.45593999997E+02  0.45594000000E+02  0.51100000000E-03 0.  1.
         11   -1    0    0    0    0 -0.00000000000E+00 -0.00000000000E+00 -0.45593999997E+02  0.45594000000E+02  0.51100000000E-03 0. -1.
    9900012    2    1    2    0    0  0.56212601912E+01 -0.35754340320E+02 -0.23951034221E+02  0.47787268922E+02  0.19999990324E+02 0.  0.
        -12    1    1    2    0    0 -0.56212601912E+01  0.35754340320E+02  0.23951034221E+02  0.43400731078E+02  0.00000000000E+00 0.  1.
         11    1    3    3    0    0  0.17814838891E+01 -0.25783087689E+02 -0.17122056134E+02  0.31001711278E+02  0.51100000000E-03 0. -1.
        -11    1    3    3    0    0 -0.29846833177E+01 -0.28407107021E+01  0.93811401755E+00  0.42258762370E+01  0.51100000000E-03 0.  1.
         12    1    3    3    0    0  0.68244596198E+01 -0.71305419288E+01 -0.77670921044E+01  0.12559681408E+02  0.00000000000E+00 0. -1.
</event>
<event>
 7    1  0.2430096E-009  0.4778727E+02  0.7816164E-02  0.1312668E+00
        -11   -1    0    0    0    0  0.00000000000E+00  0.00000000000E+00  0.45593999997E+02  0.45594000000E+02  0.51100000000E-03 0. -1.
         11   -1    0    0    0    0 -0.00000000000E+00 -0.00000000000E+00 -0.45593999997E+02  0.45594000000E+02  0.51100000000E-03 0.  1.
    9900012    2    1    2    0    0  0.58585426897E+01 -0.35768489397E+02  0.23872916052E+02  0.47787268704E+02  0.19999989330E+02 0.  0.
        -12    1    1    2    0    0 -0.58585426897E+01  0.35768489397E+02 -0.23872916052E+02  0.43400731296E+02  0.00000000000E+00 0.  1.
         11    1    3    3    0    0 -0.32332911808E+01 -0.88012026353E+01  0.41038748838E+01  0.10235093014E+02  0.51100000000E-03 0. -1.
        -11    1    3    3    0    0  0.11269222595E+02 -0.13345658615E+02  0.72093859949E+01  0.18896487199E+02  0.51100000000E-03 0.  1.
        -12    1    3    3    0    0 -0.21773887242E+01 -0.13621628147E+02  0.12559655173E+02  0.18655688491E+02  0.00000000000E+00 0.  1.
</event>
<event>
 7    1  0.2430096E-009  0.4778727E+02  0.7816164E-02  0.1312668E+00
        -11   -1    0    0    0    0  0.00000000000E+00  0.00000000000E+00  0.45593999997E+02  0.45594000000E+02  0.51100000000E-03 0.  1.
         11   -1    0    0    0    0 -0.00000000000E+00 -0.00000000000E+00 -0.45593999997E+02  0.45594000000E+02  0.51100000000E-03 0. -1.
    9900012    2    1    2    0    0 -0.14344455865E+02  0.28041533019E+02 -0.29858545362E+02  0.47787265914E+02  0.19999976606E+02 0.  0.
        -12    1    1    2    0    0  0.14344455865E+02 -0.28041533019E+02  0.29858545362E+02  0.43400734086E+02  0.00000000000E+00 0.  1.
         11    1    3    3    0    0 -0.12295275060E+02  0.23821893869E+02 -0.13854639726E+02  0.30176273105E+02  0.51100000000E-03 0. -1.
        -11    1    3    3    0    0 -0.17465954426E+01  0.54772518119E+01 -0.14654143596E+02  0.15741499542E+02  0.51100000000E-03 0.  1.
         12    1    3    3    0    0 -0.30258536213E+00 -0.12576126617E+01 -0.13497620398E+01  0.18694932662E+01  0.00000000000E+00 0. -1.
</event>
<event>
 7    1  0.2430096E-009  0.4778727E+02  0.7816164E-02  0.1312668E+00
        -11   -1    0    0    0    0  0.00000000000E+00  0.00000000000E+00  0.45593999997E+02  0.45594000000E+02  0.51100000000E-03 0.  1.
         11   -1    0    0    0    0 -0.00000000000E+00 -0.00000000000E+00 -0.45593999997E+02  0.45594000000E+02  0.51100000000E-03 0. -1.
    9900012    2    1    2    0    0 -0.21903635080E+01 -0.24951635547E+02 -0.35443496182E+02  0.47787271546E+02  0.20000002285E+02 0.  0.
        -12    1    1    2    0    0  0.21903635080E+01  0.24951635547E+02  0.35443496182E+02  0.43400728454E+02  0.00000000000E+00 0.  1.
         11    1    3    3    0    0  0.17464231058E+01 -0.21210626947E+02 -0.16264354680E+02  0.26785629030E+02  0.51100000000E-03 0.  1.
        -11    1    3    3    0    0 -0.29094558834E+01  0.98537222983E+00 -0.11686541433E+02  0.12083507061E+02  0.51100000000E-03 0. -1.
         12    1    3    3    0    0 -0.10273307304E+01 -0.47263808297E+01 -0.74926000700E+01  0.89181354545E+01  0.00000000000E+00 0. -1.
</event>
<event>
 7    1  0.2430096E-009  0.4778728E+02  0.7816164E-02  0.1312668E+00
        -11   -1    0    0    0    0  0.00000000000E+00  0.00000000000E+00  0.45593999997E+02  0.45594000000E+02  0.51100000000E-03 0. -1.
         11   -1    0    0    0    0 -0.00000000000E+00 -0.00000000000E+00 -0.45593999997E+02  0.45594000000E+02  0.51100000000E-03 0.  1.
    9900012    2    1    2    0    0 -0.41606341272E+02 -0.10688038289E+02 -0.61887239246E+01  0.47787284565E+02  0.20000061645E+02 0.  0.
        -12    1    1    2    0    0  0.41606341272E+02  0.10688038289E+02  0.61887239246E+01  0.43400715435E+02  0.00000000000E+00 0.  1.
         11    1    3    3    0    0 -0.19648053904E+02 -0.13079941439E+02  0.42324992174E+00  0.23607414747E+02  0.51100000000E-03 0. -1.
        -11    1    3    3    0    0 -0.48041986753E+01  0.24863632512E+01 -0.42173708995E+01  0.68591941724E+01  0.51100000000E-03 0.  1.
         12    1    3    3    0    0 -0.17154088692E+02 -0.94460101226E-01 -0.23946029468E+01  0.17320675646E+02  0.00000000000E+00 0. -1.
</event>
<event>
 7    1  0.2430096E-009  0.4778727E+02  0.7816164E-02  0.1312668E+00
        -11   -1    0    0    0    0  0.00000000000E+00  0.00000000000E+00  0.45593999997E+02  0.45594000000E+02  0.51100000000E-03 0.  1.
         11   -1    0    0    0    0 -0.00000000000E+00 -0.00000000000E+00 -0.45593999997E+02  0.45594000000E+02  0.51100000000E-03 0. -1.
    9900012    2    1    2    0    0 -0.22330740029E+02  0.25282424643E+02 -0.27308611910E+02  0.47787271544E+02  0.20000002275E+02 0.  0.
        -12    1    1    2    0    0  0.22330740029E+02 -0.25282424643E+02  0.27308611910E+02  0.43400728456E+02  0.00000000000E+00 0.  1.
         11    1    3    3    0    0 -0.99395709048E+01  0.62229895697E+01 -0.53693313565E+01  0.12897689267E+02  0.51100000000E-03 0. -1.
        -11    1    3    3    0    0  0.22345660083E+01 -0.84950601357E+00 -0.14616959001E+01  0.28020529756E+01  0.51100000000E-03 0.  1.
        -12    1    3    3    0    0 -0.14625735133E+02  0.19908941087E+02 -0.20477584654E+02  0.32087529301E+02  0.00000000000E+00 0.  1.
</event>
<event>
 7    1  0.2430096E-009  0.4778727E+02  0.7816164E-02  0.1312668E+00
        -11   -1    0    0    0    0  0.00000000000E+00  0.00000000000E+00  0.45593999997E+02  0.45594000000E+02  0.51100000000E-03 0. -1.
         11   -1    0    0    0    0 -0.00000000000E+00 -0.00000000000E+00 -0.45593999997E+02  0.45594000000E+02  0.51100000000E-03 0.  1.
    9900012    2    1    2    0    0  0.38816479997E+02  0.18999472606E+02 -0.39905102353E+01  0.47787271313E+02  0.20000001223E+02 0.  0.
        -12    1    1    2    0    0 -0.38816479997E+02 -0.18999472606E+02  0.39905102353E+01  0.43400728687E+02  0.00000000000E+00 0.  1.
         11    1    3    3    0    0  0.23923005941E+02  0.60118776029E+01  0.30455765532E+01  0.24854142962E+02  0.51100000000E-03 0. -1.
        -11    1    3    3    0    0  0.32845851139E+01  0.69486332587E+01 -0.61030101630E+01  0.98142109640E+01  0.51100000000E-03 0.  1.
        -12    1    3    3    0    0  0.11608888942E+02  0.60389617446E+01 -0.93307662550E+00  0.13118917387E+02  0.00000000000E+00 0.  1.
</event>
<event>
 7    1  0.2430096E-009  0.4778727E+02  0.7816164E-02  0.1312668E+00
        -11   -1    0    0    0    0  0.00000000000E+00  0.00000000000E+00  0.45593999997E+02  0.45594000000E+02  0.51100000000E-03 0. -1.
         11   -1    0    0    0    0 -0.00000000000E+00 -0.00000000000E+00 -0.45593999997E+02  0.45594000000E+02  0.51100000000E-03 0.  1.
    9900012    2    1    2    0    0 -0.22705335044E+01  0.42628009753E+02  0.78307786119E+01  0.47787266923E+02  0.19999981210E+02 0.  0.
        -12    1    1    2    0    0  0.22705335044E+01 -0.42628009753E+02 -0.78307786119E+01  0.43400733077E+02  0.00000000000E+00 0.  1.
         11    1    3    3    0    0  0.53993917823E+01  0.73751391940E+01 -0.23704970681E+01  0.94427414643E+01  0.51100000000E-03 0.  1.
        -11    1    3    3    0    0 -0.85421530403E+01  0.26759229904E+02  0.55893826395E+01  0.28640285651E+02  0.51100000000E-03 0. -1.
         12    1    3    3    0    0  0.87222775360E+00  0.84936406554E+01  0.46118930405E+01  0.97042398082E+01  0.00000000000E+00 0. -1.
</event>
<event>
 7    1  0.2430096E-009  0.4778727E+02  0.7816164E-02  0.1312668E+00
        -11   -1    0    0    0    0  0.00000000000E+00  0.00000000000E+00  0.45593999997E+02  0.45594000000E+02  0.51100000000E-03 0. -1.
         11   -1    0    0    0    0 -0.00000000000E+00 -0.00000000000E+00 -0.45593999997E+02  0.45594000000E+02  0.51100000000E-03 0.  1.
    9900012    2    1    2    0    0 -0.22921798907E+02 -0.35834363343E+02 -0.86088962641E+01  0.47787267792E+02  0.19999985171E+02 0.  0.
        -12    1    1    2    0    0  0.22921798907E+02  0.35834363343E+02  0.86088962641E+01  0.43400732208E+02  0.00000000000E+00 0.  1.
         11    1    3    3    0    0 -0.14128042316E+02 -0.31647852043E+02 -0.11963025312E+02  0.36664725466E+02  0.51100000000E-03 0. -1.
        -11    1    3    3    0    0 -0.84398720406E+01 -0.48556524158E+01  0.26558226958E+01  0.10092680263E+02  0.51100000000E-03 0.  1.
         12    1    3    3    0    0 -0.35388454980E+00  0.66914111574E+00  0.69830635223E+00  0.10298620631E+01  0.00000000000E+00 0. -1.
</event>
<event>
 7    1  0.2430096E-009  0.4778727E+02  0.7816164E-02  0.1312668E+00
        -11   -1    0    0    0    0  0.00000000000E+00  0.00000000000E+00  0.45593999997E+02  0.45594000000E+02  0.51100000000E-03 0.  1.
         11   -1    0    0    0    0 -0.00000000000E+00 -0.00000000000E+00 -0.45593999997E+02  0.45594000000E+02  0.51100000000E-03 0. -1.
    9900012    2    1    2    0    0 -0.16425900396E+02  0.37055323306E+01 -0.40001025439E+02  0.47787271783E+02  0.20000003365E+02 0.  0.
        -12    1    1    2    0    0  0.16425900396E+02 -0.37055323306E+01  0.40001025439E+02  0.43400728217E+02  0.00000000000E+00 0.  1.
         11    1    3    3    0    0 -0.55157844542E+01 -0.59528113389E+01 -0.21106024497E+02  0.22612476894E+02  0.51100000000E-03 0. -1.
        -11    1    3    3    0    0 -0.95279631691E+01  0.42184446665E+01 -0.15293615980E+02  0.18506000312E+02  0.51100000000E-03 0.  1.
         12    1    3    3    0    0 -0.13821527726E+01  0.54398990030E+01 -0.36013849617E+01  0.66687945756E+01  0.00000000000E+00 0. -1.
</event>
<event>
 7    1  0.2430096E-009  0.4778727E+02  0.7816164E-02  0.1312668E+00
        -11   -1    0    0    0    0  0.00000000000E+00  0.00000000000E+00  0.45593999997E+02  0.45594000000E+02  0.51100000000E-03 0.  1.
         11   -1    0    0    0    0 -0.00000000000E+00 -0.00000000000E+00 -0.45593999997E+02  0.45594000000E+02  0.51100000000E-03 0. -1.
    9900012    2    1    2    0    0  0.23295297508E+02  0.33456366128E+02 -0.14887041119E+02  0.47787270585E+02  0.19999997906E+02 0.  0.
        -12    1    1    2    0    0 -0.23295297508E+02 -0.33456366128E+02  0.14887041119E+02  0.43400729415E+02  0.00000000000E+00 0.  1.
         11    1    3    3    0    0  0.20179733845E+02  0.17118258367E+02 -0.52852848355E+01  0.26985008128E+02  0.51100000000E-03 0. -1.
        -11    1    3    3    0    0 -0.44454623735E-01  0.13014424385E+02 -0.41113853435E+01  0.13648469072E+02  0.51100000000E-03 0.  1.
        -12    1    3    3    0    0  0.31600182859E+01  0.33236833757E+01 -0.54903709401E+01  0.71537933860E+01  0.00000000000E+00 0.  1.
</event>
<event>
 7    1  0.2430096E-009  0.4778727E+02  0.7816164E-02  0.1312668E+00
        -11   -1    0    0    0    0  0.00000000000E+00  0.00000000000E+00  0.45593999997E+02  0.45594000000E+02  0.51100000000E-03 0.  1.
         11   -1    0    0    0    0 -0.00000000000E+00 -0.00000000000E+00 -0.45593999997E+02  0.45594000000E+02  0.51100000000E-03 0. -1.
    9900012    2    1    2    0    0 -0.14279168134E+02 -0.14162769265E+02 -0.38459650298E+02  0.47787269858E+02  0.19999994591E+02 0.  0.
        -12    1    1    2    0    0  0.14279168134E+02  0.14162769265E+02  0.38459650298E+02  0.43400730142E+02  0.00000000000E+00 0.  1.
         11    1    3    3    0    0 -0.47771679091E+00 -0.14951396351E+01 -0.73933084032E+01  0.75580860849E+01  0.51100000000E-03 0. -1.
        -11    1    3    3    0    0 -0.38389528381E+01 -0.14854937672E+02 -0.19362159233E+02  0.24704249483E+02  0.51100000000E-03 0.  1.
        -12    1    3    3    0    0 -0.99624985045E+01  0.21873080419E+01 -0.11704182662E+02  0.15524934290E+02  0.00000000000E+00 0.  1.
</event>
<event>
 7    1  0.2430096E-009  0.4778729E+02  0.7816164E-02  0.1312668E+00
        -11   -1    0    0    0    0  0.00000000000E+00  0.00000000000E+00  0.45593999997E+02  0.45594000000E+02  0.51100000000E-03 0.  1.
         11   -1    0    0    0    0 -0.00000000000E+00 -0.00000000000E+00 -0.45593999997E+02  0.45594000000E+02  0.51100000000E-03 0. -1.
    9900012    2    1    2    0    0  0.27837055389E+02 -0.98852904520E+01 -0.31796244939E+02  0.47787287883E+02  0.20000076773E+02 0.  0.
        -12    1    1    2    0    0 -0.27837055389E+02  0.98852904520E+01  0.31796244939E+02  0.43400712117E+02  0.00000000000E+00 0.  1.
         11    1    3    3    0    0  0.71013961135E+01  0.15905123597E+01 -0.17173868639E+01  0.74772303849E+01  0.51100000000E-03 0. -1.
        -11    1    3    3    0    0  0.18746150122E+02 -0.13169330536E+02 -0.29932109130E+02  0.37693243007E+02  0.51100000000E-03 0.  1.
        -12    1    3    3    0    0  0.19895091537E+01  0.16935277247E+01 -0.14674894527E+00  0.26168144910E+01  0.00000000000E+00 0.  1.
</event>
<event>
 7    1  0.2430096E-009  0.4778727E+02  0.7816164E-02  0.1312668E+00
        -11   -1    0    0    0    0  0.00000000000E+00  0.00000000000E+00  0.45593999997E+02  0.45594000000E+02  0.51100000000E-03 0.  1.
         11   -1    0    0    0    0 -0.00000000000E+00 -0.00000000000E+00 -0.45593999997E+02  0.45594000000E+02  0.51100000000E-03 0. -1.
    9900012    2    1    2    0    0 -0.19421506774E+02 -0.36279230377E+02  0.13792975552E+02  0.47787266634E+02  0.19999979889E+02 0.  0.
        -12    1    1    2    0    0  0.19421506774E+02  0.36279230377E+02 -0.13792975552E+02  0.43400733366E+02  0.00000000000E+00 0.  1.
         11    1    3    3    0    0 -0.15576134335E+02 -0.37856473940E+02  0.12360664307E+02  0.42761134250E+02  0.51100000000E-03 0. -1.
        -11    1    3    3    0    0 -0.19665160954E+01  0.13646600939E+01 -0.36031300740E+00  0.24206008448E+01  0.51100000000E-03 0.  1.
         12    1    3    3    0    0 -0.18788563434E+01  0.21258346826E+00  0.17926242518E+01  0.26055315386E+01  0.00000000000E+00 0. -1.
</event>
<event>
 7    1  0.2430096E-009  0.4778728E+02  0.7816164E-02  0.1312668E+00
        -11   -1    0    0    0    0  0.00000000000E+00  0.00000000000E+00  0.45593999997E+02  0.45594000000E+02  0.51100000000E-03 0.  1.
         11   -1    0    0    0    0 -0.00000000000E+00 -0.00000000000E+00 -0.45593999997E+02  0.45594000000E+02  0.51100000000E-03 0. -1.
    9900012    2    1    2    0    0  0.24118522971E+02 -0.13349419841E+02 -0.33521824851E+02  0.47787275331E+02  0.20000019546E+02 0.  0.
        -12    1    1    2    0    0 -0.24118522971E+02  0.13349419841E+02  0.33521824851E+02  0.43400724669E+02  0.00000000000E+00 0.  1.
         11    1    3    3    0    0  0.18789746965E+02 -0.42537614580E+01 -0.95050841299E+01  0.21482451027E+02  0.51100000000E-03 0. -1.
        -11    1    3    3    0    0  0.31578900135E+01 -0.67877160183E+01 -0.15380772849E+02  0.17105950187E+02  0.51100000000E-03 0.  1.
         12    1    3    3    0    0  0.21708859930E+01 -0.23079423651E+01 -0.86359678717E+01  0.91988741178E+01  0.00000000000E+00 0. -1.
</event>
<event>
 7    1  0.2430096E-009  0.4778726E+02  0.7816164E-02  0.1312668E+00
        -11   -1    0    0    0    0  0.00000000000E+00  0.00000000000E+00  0.45593999997E+02  0.45594000000E+02  0.51100000000E-03 0.  1.
         11   -1    0    0    0    0 -0.00000000000E+00 -0.00000000000E+00 -0.45593999997E+02  0.45594000000E+02  0.51100000000E-03 0. -1.
    9900012    2    1    2    0    0 -0.22122689253E+02 -0.20788653181E+02 -0.31016808402E+02  0.47787264012E+02  0.19999967934E+02 0.  0.
        -12    1    1    2    0    0  0.22122689253E+02  0.20788653181E+02  0.31016808402E+02  0.43400735988E+02  0.00000000000E+00 0.  1.
         11    1    3    3    0    0 -0.61781548818E+01 -0.15841347876E+02 -0.94542092436E+01  0.19455075763E+02  0.51100000000E-03 0. -1.
        -11    1    3    3    0    0 -0.12239264206E+02 -0.48084535002E+01 -0.11021328239E+02  0.17157811334E+02  0.51100000000E-03 0.  1.
         12    1    3    3    0    0 -0.37052701658E+01 -0.13885180529E+00 -0.10541270919E+02  0.11174376914E+02  0.00000000000E+00 0. -1.
</event>
<event>
 7    1  0.2430096E-009  0.4778727E+02  0.7816164E-02  0.1312668E+00
        -11   -1    0    0    0    0  0.00000000000E+00  0.00000000000E+00  0.45593999997E+02  0.45594000000E+02  0.51100000000E-03 0.  1.
         11   -1    0    0    0    0 -0.00000000000E+00 -0.00000000000E+00 -0.45593999997E+02  0.45594000000E+02  0.51100000000E-03 0. -1.
    9900012    2    1    2    0    0  0.35432173907E+02 -0.15953394616E+02 -0.19330649911E+02  0.47787265288E+02  0.19999973756E+02 0.  0.
        -12    1    1    2    0    0 -0.35432173907E+02  0.15953394616E+02  0.19330649911E+02  0.43400734712E+02  0.00000000000E+00 0.  1.
         11    1    3    3    0    0  0.84622892110E+01 -0.64947133139E+01 -0.14761268013E+02  0.18212267111E+02  0.51100000000E-03 0. -1.
        -11    1    3    3    0    0  0.19335192152E+02 -0.65160438231E+01 -0.60025767774E+01  0.21268272400E+02  0.51100000000E-03 0.  1.
         12    1    3    3    0    0  0.76346925438E+01 -0.29426374787E+01  0.14331948794E+01  0.83067257769E+01  0.00000000000E+00 0. -1.
</event>
<event>
 7    1  0.2430096E-009  0.4778727E+02  0.7816164E-02  0.1312668E+00
        -11   -1    0    0    0    0  0.00000000000E+00  0.00000000000E+00  0.45593999997E+02  0.45594000000E+02  0.51100000000E-03 0.  1.
         11   -1    0    0    0    0 -0.00000000000E+00 -0.00000000000E+00 -0.45593999997E+02  0.45594000000E+02  0.51100000000E-03 0. -1.
    9900012    2    1    2    0    0  0.60808035506E+01 -0.62586198584E+00 -0.42968074681E+02  0.47787270550E+02  0.19999997745E+02 0.  0.
        -12    1    1    2    0    0 -0.60808035506E+01  0.62586198584E+00  0.42968074681E+02  0.43400729450E+02  0.00000000000E+00 0.  1.
         11    1    3    3    0    0  0.96137326336E+01 -0.29999478349E+01 -0.16877259793E+02  0.19653636828E+02  0.51100000000E-03 0. -1.
        -11    1    3    3    0    0 -0.53547643728E+01  0.22955482119E+01 -0.77156622936E+01  0.96682205173E+01  0.51100000000E-03 0.  1.
        -12    1    3    3    0    0  0.18218352898E+01  0.78537637109E-01 -0.18375152594E+02  0.18465413205E+02  0.00000000000E+00 0.  1.
</event>
<event>
 7    1  0.2430096E-009  0.4778727E+02  0.7816164E-02  0.1312668E+00
        -11   -1    0    0    0    0  0.00000000000E+00  0.00000000000E+00  0.45593999997E+02  0.45594000000E+02  0.51100000000E-03 0.  1.
         11   -1    0    0    0    0 -0.00000000000E+00 -0.00000000000E+00 -0.45593999997E+02  0.45594000000E+02  0.51100000000E-03 0. -1.
    9900012    2    1    2    0    0  0.29065034793E+01  0.79569305754E+01 -0.42565982351E+02  0.47787270050E+02  0.19999995467E+02 0.  0.
        -12    1    1    2    0    0 -0.29065034793E+01 -0.79569305754E+01  0.42565982351E+02  0.43400729950E+02  0.00000000000E+00 0.  1.
         11    1    3    3    0    0 -0.41028959799E+00 -0.16527158672E+00 -0.36047423218E+02  0.36050136937E+02  0.51100000000E-03 0. -1.
        -11    1    3    3    0    0  0.29123776361E+01  0.72714462922E+01 -0.35080177974E+01  0.85826606483E+01  0.51100000000E-03 0.  1.
        -12    1    3    3    0    0  0.40441544114E+00  0.85075586989E+00 -0.30105413352E+01  0.31544724646E+01  0.00000000000E+00 0.  1.
</event>
<event>
 7    1  0.2430096E-009  0.4778727E+02  0.7816164E-02  0.1312668E+00
        -11   -1    0    0    0    0  0.00000000000E+00  0.00000000000E+00  0.45593999997E+02  0.45594000000E+02  0.51100000000E-03 0.  1.
         11   -1    0    0    0    0 -0.00000000000E+00 -0.00000000000E+00 -0.45593999997E+02  0.45594000000E+02  0.51100000000E-03 0. -1.
    9900012    2    1    2    0    0 -0.24845918437E+02 -0.35496901342E+02  0.25046987881E+01  0.47787272081E+02  0.20000004728E+02 0.  0.
        -12    1    1    2    0    0  0.24845918437E+02  0.35496901342E+02 -0.25046987881E+01  0.43400727919E+02  0.00000000000E+00 0.  1.
         11    1    3    3    0    0 -0.88551857650E+01 -0.12700638728E+02  0.94094621478E+01  0.18117905983E+02  0.51100000000E-03 0. -1.
        -11    1    3    3    0    0 -0.75832804981E-01 -0.33674100432E+00 -0.15993113520E+01  0.16361363575E+01  0.51100000000E-03 0.  1.
         12    1    3    3    0    0 -0.15914899867E+02 -0.22459521609E+02 -0.53054520076E+01  0.28033229741E+02  0.00000000000E+00 0. -1.
</event>
<event>
 7    1  0.2430096E-009  0.4778727E+02  0.7816164E-02  0.1312668E+00
        -11   -1    0    0    0    0  0.00000000000E+00  0.00000000000E+00  0.45593999997E+02  0.45594000000E+02  0.51100000000E-03 0.  1.
         11   -1    0    0    0    0 -0.00000000000E+00 -0.00000000000E+00 -0.45593999997E+02  0.45594000000E+02  0.51100000000E-03 0. -1.
    9900012    2    1    2    0    0 -0.16870848592E+02 -0.38078441581E+02 -0.12207773980E+02  0.47787274303E+02  0.20000014858E+02 0.  0.
        -12    1    1    2    0    0  0.16870848592E+02  0.38078441581E+02  0.12207773980E+02  0.43400725697E+02  0.00000000000E+00 0.  1.
         11    1    3    3    0    0  0.16717143004E+01 -0.13822151277E+02 -0.22810175175E+01  0.14108491621E+02  0.51100000000E-03 0. -1.
        -11    1    3    3    0    0 -0.12903781615E+00 -0.52845091071E+01  0.38628104604E+00  0.53001792959E+01  0.51100000000E-03 0.  1.
         12    1    3    3    0    0 -0.18413525076E+02 -0.18971781197E+02 -0.10313037509E+02  0.28378603386E+02  0.00000000000E+00 0. -1.
</event>
<event>
 7    1  0.2430096E-009  0.4778727E+02  0.7816164E-02  0.1312668E+00
        -11   -1    0    0    0    0  0.00000000000E+00  0.00000000000E+00  0.45593999997E+02  0.45594000000E+02  0.51100000000E-03 0.  1.
         11   -1    0    0    0    0 -0.00000000000E+00 -0.00000000000E+00 -0.45593999997E+02  0.45594000000E+02  0.51100000000E-03 0. -1.
    9900012    2    1    2    0    0 -0.25997314133E+02  0.25055294702E+02 -0.24083084887E+02  0.47787272905E+02  0.20000008482E+02 0.  0.
        -12    1    1    2    0    0  0.25997314133E+02 -0.25055294702E+02  0.24083084887E+02  0.43400727095E+02  0.00000000000E+00 0.  1.
         11    1    3    3    0    0 -0.18250359654E+02  0.22835052728E+02 -0.11998601395E+02  0.31598760992E+02  0.51100000000E-03 0. -1.
        -11    1    3    3    0    0 -0.68636922284E+00  0.84117763434E-01 -0.74387980990E+01  0.74708698240E+01  0.51100000000E-03 0.  1.
         12    1    3    3    0    0 -0.70605852566E+01  0.21361242110E+01 -0.46456853927E+01  0.87176420882E+01  0.00000000000E+00 0. -1.
</event>
<event>
 7    1  0.2430096E-009  0.4778727E+02  0.7816164E-02  0.1312668E+00
        -11   -1    0    0    0    0  0.00000000000E+00  0.00000000000E+00  0.45593999997E+02  0.45594000000E+02  0.51100000000E-03 0.  1.
         11   -1    0    0    0    0 -0.00000000000E+00 -0.00000000000E+00 -0.45593999997E+02  0.45594000000E+02  0.51100000000E-03 0. -1.
    9900012    2    1    2    0    0  0.27716643912E+02 -0.54913668358E+00 -0.33393254810E+02  0.47787269964E+02  0.19999995075E+02 0.  0.
        -12    1    1    2    0    0 -0.27716643912E+02  0.54913668358E+00  0.33393254810E+02  0.43400730036E+02  0.00000000000E+00 0.  1.
         11    1    3    3    0    0  0.16083540979E+02 -0.20193305119E+01 -0.22320175262E+02  0.27585289742E+02  0.51100000000E-03 0. -1.
        -11    1    3    3    0    0  0.85769887807E+01  0.29021946589E+01 -0.46129941354E+00  0.90664363337E+01  0.51100000000E-03 0.  1.
        -12    1    3    3    0    0  0.30561141522E+01 -0.14320008306E+01 -0.10611780134E+02  0.11135543889E+02  0.00000000000E+00 0.  1.
</event>
<event>
 7    1  0.2430096E-009  0.4778727E+02  0.7816164E-02  0.1312668E+00
        -11   -1    0    0    0    0  0.00000000000E+00  0.00000000000E+00  0.45593999997E+02  0.45594000000E+02  0.51100000000E-03 0.  1.
         11   -1    0    0    0    0 -0.00000000000E+00 -0.00000000000E+00 -0.45593999997E+02  0.45594000000E+02  0.51100000000E-03 0. -1.
    9900012    2    1    2    0    0  0.14099116988E+02  0.43792834259E+01 -0.40812501850E+02  0.47787268089E+02  0.19999986525E+02 0.  0.
        -12    1    1    2    0    0 -0.14099116988E+02 -0.43792834259E+01  0.40812501850E+02  0.43400731911E+02  0.00000000000E+00 0.  1.
         11    1    3    3    0    0  0.12335388250E+02  0.55674245270E+01 -0.10976155245E+02  0.17425096940E+02  0.51100000000E-03 0. -1.
        -11    1    3    3    0    0 -0.66588783823E+00 -0.22284462769E+01 -0.21285369203E+02  0.21412060195E+02  0.51100000000E-03 0.  1.
        -12    1    3    3    0    0  0.24296165760E+01  0.10403051758E+01 -0.85509774016E+01  0.89501109539E+01  0.00000000000E+00 0.  1.
</event>
<event>
 7    1  0.2430096E-009  0.4778728E+02  0.7816164E-02  0.1312668E+00
        -11   -1    0    0    0    0  0.00000000000E+00  0.00000000000E+00  0.45593999997E+02  0.45594000000E+02  0.51100000000E-03 0.  1.
         11   -1    0    0    0    0 -0.00000000000E+00 -0.00000000000E+00 -0.45593999997E+02  0.45594000000E+02  0.51100000000E-03 0. -1.
    9900012    2    1    2    0    0  0.67591850608E+01 -0.32611691379E+02 -0.27828283374E+02  0.47787281656E+02  0.20000048381E+02 0.  0.
        -12    1    1    2    0    0 -0.67591850608E+01  0.32611691379E+02  0.27828283374E+02  0.43400718344E+02  0.00000000000E+00 0.  1.
         11    1    3    3    0    0  0.63742824499E+01 -0.17040130058E+02 -0.71363585111E+01  0.19542904651E+02  0.51100000000E-03 0. -1.
        -11    1    3    3    0    0 -0.11887685864E+01 -0.13956358233E+02 -0.21656713988E+02  0.25791594889E+02  0.51100000000E-03 0.  1.
        -12    1    3    3    0    0  0.15736711973E+01 -0.16152030874E+01  0.96478912510E+00  0.24527821156E+01  0.00000000000E+00 0.  1.
</event>
<event>
 7    1  0.2430096E-009  0.4778728E+02  0.7816164E-02  0.1312668E+00
        -11   -1    0    0    0    0  0.00000000000E+00  0.00000000000E+00  0.45593999997E+02  0.45594000000E+02  0.51100000000E-03 0. -1.
         11   -1    0    0    0    0 -0.00000000000E+00 -0.00000000000E+00 -0.45593999997E+02  0.45594000000E+02  0.51100000000E-03 0.  1.
    9900012    2    1    2    0    0 -0.32262147782E+02  0.98813863911E-01  0.29030443967E+02  0.47787278570E+02  0.20000034314E+02 0.  0.
        -12    1    1    2    0    0  0.32262147782E+02 -0.98813863911E-01 -0.29030443967E+02  0.43400721430E+02  0.00000000000E+00 0.  1.
         11    1    3    3    0    0 -0.99300980202E+01  0.13067176502E+00  0.28646852943E+01  0.10335876542E+02  0.51100000000E-03 0. -1.
        -11    1    3    3    0    0 -0.21262060562E+02  0.43103470567E+01  0.24382713558E+02  0.32636958066E+02  0.51100000000E-03 0.  1.
        -12    1    3    3    0    0 -0.10699891999E+01 -0.43422049578E+01  0.17830451149E+01  0.48144439622E+01  0.00000000000E+00 0.  1.
</event>
<event>
 7    1  0.2430096E-009  0.4778727E+02  0.7816164E-02  0.1312668E+00
        -11   -1    0    0    0    0  0.00000000000E+00  0.00000000000E+00  0.45593999997E+02  0.45594000000E+02  0.51100000000E-03 0. -1.
         11   -1    0    0    0    0 -0.00000000000E+00 -0.00000000000E+00 -0.45593999997E+02  0.45594000000E+02  0.51100000000E-03 0.  1.
    9900012    2    1    2    0    0  0.32749827950E+02 -0.27740786521E+02  0.64436425471E+01  0.47787274236E+02  0.20000014554E+02 0.  0.
        -12    1    1    2    0    0 -0.32749827950E+02  0.27740786521E+02 -0.64436425471E+01  0.43400725764E+02  0.00000000000E+00 0.  1.
         11    1    3    3    0    0  0.17849663292E+02 -0.62807859629E+01  0.97484443778E+01  0.21285932443E+02  0.51100000000E-03 0. -1.
        -11    1    3    3    0    0  0.13397827769E+02 -0.17562222039E+02 -0.23294570904E+01  0.22211704177E+02  0.51100000000E-03 0.  1.
         12    1    3    3    0    0  0.15023368895E+01 -0.38977785190E+01 -0.97534474028E+00  0.42896376158E+01  0.00000000000E+00 0. -1.
</event>
<event>
 7    1  0.2430096E-009  0.4778727E+02  0.7816164E-02  0.1312668E+00
        -11   -1    0    0    0    0  0.00000000000E+00  0.00000000000E+00  0.45593999997E+02  0.45594000000E+02  0.51100000000E-03 0.  1.
         11   -1    0    0    0    0 -0.00000000000E+00 -0.00000000000E+00 -0.45593999997E+02  0.45594000000E+02  0.51100000000E-03 0. -1.
    9900012    2    1    2    0    0  0.23084969741E+02  0.19345573892E+02 -0.31248296311E+02  0.47787273283E+02  0.20000010208E+02 0.  0.
        -12    1    1    2    0    0 -0.23084969741E+02 -0.19345573892E+02  0.31248296311E+02  0.43400726717E+02  0.00000000000E+00 0.  1.
         11    1    3    3    0    0  0.29883486295E+01  0.29928937934E+01 -0.76870512533E+01  0.87737334141E+01  0.51100000000E-03 0. -1.
        -11    1    3    3    0    0  0.52110961262E+01 -0.34337444904E+01 -0.35665653733E+01  0.71879421871E+01  0.51100000000E-03 0.  1.
        -12    1    3    3    0    0  0.14885524985E+02  0.19786424589E+02 -0.19994679685E+02  0.31825597682E+02  0.00000000000E+00 0.  1.
</event>
<event>
 7    1  0.2430096E-009  0.4778729E+02  0.7816164E-02  0.1312668E+00
        -11   -1    0    0    0    0  0.00000000000E+00  0.00000000000E+00  0.45593999997E+02  0.45594000000E+02  0.51100000000E-03 0. -1.
         11   -1    0    0    0    0 -0.00000000000E+00 -0.00000000000E+00 -0.45593999997E+02  0.45594000000E+02  0.51100000000E-03 0.  1.
    9900012    2    1    2    0    0 -0.14105057799E+02 -0.38019679973E+02  0.15465223043E+02  0.47787287511E+02  0.20000075078E+02 0.  0.
        -12    1    1    2    0    0  0.14105057799E+02  0.38019679973E+02 -0.15465223043E+02  0.43400712489E+02  0.00000000000E+00 0.  1.
         11    1    3    3    0    0 -0.63762111519E+00 -0.15640439797E+02  0.72991991210E+01  0.17271601715E+02  0.51100000000E-03 0. -1.
        -11    1    3    3    0    0 -0.31978114235E+01 -0.62853554547E+00 -0.25940976328E+01  0.41653808495E+01  0.51100000000E-03 0.  1.
        -12    1    3    3    0    0 -0.10269625260E+02 -0.21750704631E+02  0.10760121554E+02  0.26350304947E+02  0.00000000000E+00 0.  1.
</event>
<event>
 7    1  0.2430096E-009  0.4778727E+02  0.7816164E-02  0.1312668E+00
        -11   -1    0    0    0    0  0.00000000000E+00  0.00000000000E+00  0.45593999997E+02  0.45594000000E+02  0.51100000000E-03 0.  1.
         11   -1    0    0    0    0 -0.00000000000E+00 -0.00000000000E+00 -0.45593999997E+02  0.45594000000E+02  0.51100000000E-03 0. -1.
    9900012    2    1    2    0    0  0.27321725344E+01  0.43218737445E+02 -0.28808414611E+01  0.47787270967E+02  0.19999999646E+02 0.  0.
        -12    1    1    2    0    0 -0.27321725344E+01 -0.43218737445E+02  0.28808414611E+01  0.43400729033E+02  0.00000000000E+00 0.  1.
         11    1    3    3    0    0 -0.61185396329E+01  0.16452567693E+02  0.15536878422E+01  0.17622073008E+02  0.51100000000E-03 0. -1.
        -11    1    3    3    0    0  0.72361016240E+01  0.86922219584E+01 -0.40561367794E+01  0.12015329172E+02  0.51100000000E-03 0.  1.
         12    1    3    3    0    0  0.16146105433E+01  0.18073947793E+02 -0.37839252382E+00  0.18149868786E+02  0.00000000000E+00 0. -1.
</event>
<event>
 7    1  0.2430096E-009  0.4778727E+02  0.7816164E-02  0.1312668E+00
        -11   -1    0    0    0    0  0.00000000000E+00  0.00000000000E+00  0.45593999997E+02  0.45594000000E+02  0.51100000000E-03 0.  1.
         11   -1    0    0    0    0 -0.00000000000E+00 -0.00000000000E+00 -0.45593999997E+02  0.45594000000E+02  0.51100000000E-03 0. -1.
    9900012    2    1    2    0    0  0.21179013955E+02  0.21447232631E+02 -0.31226408117E+02  0.47787274390E+02  0.20000015252E+02 0.  0.
        -12    1    1    2    0    0 -0.21179013955E+02 -0.21447232631E+02  0.31226408117E+02  0.43400725610E+02  0.00000000000E+00 0.  1.
         11    1    3    3    0    0  0.67198326805E+01  0.17883107521E+02 -0.23165359947E+02  0.30026581350E+02  0.51100000000E-03 0. -1.
        -11    1    3    3    0    0  0.57841967959E+01 -0.15301782322E+00 -0.54963198854E+01  0.79805939360E+01  0.51100000000E-03 0.  1.
         12    1    3    3    0    0  0.86749844789E+01  0.37171429331E+01 -0.25647282845E+01  0.97800991032E+01  0.00000000000E+00 0. -1.
</event>
<event>
 7    1  0.2430096E-009  0.4778727E+02  0.7816164E-02  0.1312668E+00
        -11   -1    0    0    0    0  0.00000000000E+00  0.00000000000E+00  0.45593999997E+02  0.45594000000E+02  0.51100000000E-03 0. -1.
         11   -1    0    0    0    0 -0.00000000000E+00 -0.00000000000E+00 -0.45593999997E+02  0.45594000000E+02  0.51100000000E-03 0.  1.
    9900012    2    1    2    0    0 -0.38337779445E+02 -0.17977989392E+02  0.95199738753E+01  0.47787270306E+02  0.19999996634E+02 0.  0.
        -12    1    1    2    0    0  0.38337779445E+02  0.17977989392E+02 -0.95199738753E+01  0.43400729694E+02  0.00000000000E+00 0.  1.
         11    1    3    3    0    0 -0.48499849899E+01 -0.54576064905E+01  0.18212552740E+01  0.75249447866E+01  0.51100000000E-03 0. -1.
        -11    1    3    3    0    0 -0.28256700148E+02 -0.14800285906E+02  0.16411837257E+01  0.31940304483E+02  0.51100000000E-03 0.  1.
        -12    1    3    3    0    0 -0.52310943075E+01  0.22799030053E+01  0.60575348756E+01  0.83220210368E+01  0.00000000000E+00 0.  1.
</event>
<event>
 7    1  0.2430096E-009  0.4778727E+02  0.7816164E-02  0.1312668E+00
        -11   -1    0    0    0    0  0.00000000000E+00  0.00000000000E+00  0.45593999997E+02  0.45594000000E+02  0.51100000000E-03 0. -1.
         11   -1    0    0    0    0 -0.00000000000E+00 -0.00000000000E+00 -0.45593999997E+02  0.45594000000E+02  0.51100000000E-03 0.  1.
    9900012    2    1    2    0    0  0.27305741029E+02  0.28043871819E+02 -0.18749956771E+02  0.47787272832E+02  0.20000008152E+02 0.  0.
        -12    1    1    2    0    0 -0.27305741029E+02 -0.28043871819E+02  0.18749956771E+02  0.43400727168E+02  0.00000000000E+00 0.  1.
         11    1    3    3    0    0  0.88268405015E+01  0.92690934033E+01 -0.28051211526E+01  0.13103354941E+02  0.51100000000E-03 0. -1.
        -11    1    3    3    0    0  0.20453013023E+02  0.13608505792E+02 -0.15685842237E+02  0.29147260910E+02  0.51100000000E-03 0.  1.
        -12    1    3    3    0    0 -0.19741124953E+01  0.51662726236E+01 -0.25899338197E+00  0.55366569821E+01  0.00000000000E+00 0.  1.
</event>
<event>
 7    1  0.2430096E-009  0.4778727E+02  0.7816164E-02  0.1312668E+00
        -11   -1    0    0    0    0  0.00000000000E+00  0.00000000000E+00  0.45593999997E+02  0.45594000000E+02  0.51100000000E-03 0.  1.
         11   -1    0    0    0    0 -0.00000000000E+00 -0.00000000000E+00 -0.45593999997E+02  0.45594000000E+02  0.51100000000E-03 0. -1.
    9900012    2    1    2    0    0  0.41235392838E+02 -0.60151262923E+01 -0.12127816330E+02  0.47787270792E+02  0.19999998850E+02 0.  0.
        -12    1    1    2    0    0 -0.41235392838E+02  0.60151262923E+01  0.12127816330E+02  0.43400729208E+02  0.00000000000E+00 0.  1.
         11    1    3    3    0    0  0.14851652876E+02  0.50778281349E+01 -0.15841663344E+01  0.15775471941E+02  0.51100000000E-03 0. -1.
        -11    1    3    3    0    0  0.74998660448E+01  0.10379033406E+01 -0.43341658850E+01  0.87241176180E+01  0.51100000000E-03 0.  1.
         12    1    3    3    0    0  0.18883873918E+02 -0.12130857768E+02 -0.62094841103E+01  0.23287681234E+02  0.00000000000E+00 0. -1.
</event>
<event>
 7    1  0.2430096E-009  0.4778727E+02  0.7816164E-02  0.1312668E+00
        -11   -1    0    0    0    0  0.00000000000E+00  0.00000000000E+00  0.45593999997E+02  0.45594000000E+02  0.51100000000E-03 0.  1.
         11   -1    0    0    0    0 -0.00000000000E+00 -0.00000000000E+00 -0.45593999997E+02  0.45594000000E+02  0.51100000000E-03 0. -1.
    9900012    2    1    2    0    0  0.17595398824E+01  0.25919166288E+02 -0.34766707707E+02  0.47787272743E+02  0.20000007745E+02 0.  0.
        -12    1    1    2    0    0 -0.17595398824E+01 -0.25919166288E+02  0.34766707707E+02  0.43400727257E+02  0.00000000000E+00 0.  1.
         11    1    3    3    0    0 -0.78218763562E+01  0.10350155817E+02 -0.11498475568E+02  0.17335582361E+02  0.51100000000E-03 0. -1.
        -11    1    3    3    0    0  0.93160586464E+01  0.13043801287E+02 -0.22798706589E+02  0.27869530371E+02  0.51100000000E-03 0.  1.
        -12    1    3    3    0    0  0.26535759215E+00  0.25252091846E+01 -0.46952554974E+00  0.25821600104E+01  0.00000000000E+00 0.  1.
</event>
<event>
 7    1  0.2430096E-009  0.4778727E+02  0.7816164E-02  0.1312668E+00
        -11   -1    0    0    0    0  0.00000000000E+00  0.00000000000E+00  0.45593999997E+02  0.45594000000E+02  0.51100000000E-03 0.  1.
         11   -1    0    0    0    0 -0.00000000000E+00 -0.00000000000E+00 -0.45593999997E+02  0.45594000000E+02  0.51100000000E-03 0. -1.
    9900012    2    1    2    0    0 -0.53877622127E+01  0.42446561389E+02 -0.72721851428E+01  0.47787271525E+02  0.20000002193E+02 0.  0.
        -12    1    1    2    0    0  0.53877622127E+01 -0.42446561389E+02  0.72721851428E+01  0.43400728475E+02  0.00000000000E+00 0.  1.
         11    1    3    3    0    0  0.52480047665E+01  0.16181145596E+02 -0.39872229448E+01  0.17471948200E+02  0.51100000000E-03 0. -1.
        -11    1    3    3    0    0 -0.48764976074E+01  0.39966355562E+01  0.21840951679E+01  0.66726004412E+01  0.51100000000E-03 0.  1.
         12    1    3    3    0    0 -0.57592693718E+01  0.22268780236E+02 -0.54690573658E+01  0.23642722884E+02  0.00000000000E+00 0. -1.
</event>
<event>
 7    1  0.2430096E-009  0.4778726E+02  0.7816164E-02  0.1312668E+00
        -11   -1    0    0    0    0  0.00000000000E+00  0.00000000000E+00  0.45593999997E+02  0.45594000000E+02  0.51100000000E-03 0.  1.
         11   -1    0    0    0    0 -0.00000000000E+00 -0.00000000000E+00 -0.45593999997E+02  0.45594000000E+02  0.51100000000E-03 0. -1.
    9900012    2    1    2    0    0 -0.41803684988E+02  0.10407022979E+02 -0.52697357109E+01  0.47787258989E+02  0.19999945034E+02 0.  0.
        -12    1    1    2    0    0  0.41803684988E+02 -0.10407022979E+02  0.52697357109E+01  0.43400741011E+02  0.00000000000E+00 0.  1.
         11    1    3    3    0    0 -0.16181437781E+02  0.21922430236E+01 -0.10524384112E+02  0.19426979161E+02  0.51100000000E-03 0. -1.
        -11    1    3    3    0    0 -0.24067591249E+02  0.54297216489E+01  0.44471947493E+01  0.25070069148E+02  0.51100000000E-03 0.  1.
        -12    1    3    3    0    0 -0.15546559580E+01  0.27850583060E+01  0.80745365140E+00  0.32902106794E+01  0.00000000000E+00 0.  1.
</event>
<event>
 7    1  0.2430096E-009  0.4778727E+02  0.7816164E-02  0.1312668E+00
        -11   -1    0    0    0    0  0.00000000000E+00  0.00000000000E+00  0.45593999997E+02  0.45594000000E+02  0.51100000000E-03 0.  1.
         11   -1    0    0    0    0 -0.00000000000E+00 -0.00000000000E+00 -0.45593999997E+02  0.45594000000E+02  0.51100000000E-03 0. -1.
    9900012    2    1    2    0    0 -0.27803794174E+02 -0.18990394423E+01 -0.33271094534E+02  0.47787273592E+02  0.20000011615E+02 0.  0.
        -12    1    1    2    0    0  0.27803794174E+02  0.18990394423E+01  0.33271094534E+02  0.43400726408E+02  0.00000000000E+00 0.  1.
         11    1    3    3    0    0 -0.17774620412E+02  0.44320967008E+01 -0.27740063908E+02  0.33242920417E+02  0.51100000000E-03 0. -1.
        -11    1    3    3    0    0 -0.95211487758E+01 -0.29450451807E+01 -0.34979557151E+01  0.10562256368E+02  0.51100000000E-03 0.  1.
         12    1    3    3    0    0 -0.50802498624E+00 -0.33860909625E+01 -0.20330749104E+01  0.39820968075E+01  0.00000000000E+00 0. -1.
</event>
<event>
 7    1  0.2430096E-009  0.4778727E+02  0.7816164E-02  0.1312668E+00
        -11   -1    0    0    0    0  0.00000000000E+00  0.00000000000E+00  0.45593999997E+02  0.45594000000E+02  0.51100000000E-03 0. -1.
         11   -1    0    0    0    0 -0.00000000000E+00 -0.00000000000E+00 -0.45593999997E+02  0.45594000000E+02  0.51100000000E-03 0.  1.
    9900012    2    1    2    0    0  0.27176223335E+02  0.16080137302E+02  0.29774242724E+02  0.47787268898E+02  0.19999990215E+02 0.  0.
        -12    1    1    2    0    0 -0.27176223335E+02 -0.16080137302E+02 -0.29774242724E+02  0.43400731102E+02  0.00000000000E+00 0.  1.
         11    1    3    3    0    0  0.15704699134E+01 -0.74700602458E-01  0.23619537576E+01  0.28373899526E+01  0.51100000000E-03 0. -1.
        -11    1    3    3    0    0  0.43482752633E+01  0.11792562129E+02  0.16260177852E+02  0.20551530439E+02  0.51100000000E-03 0.  1.
        -12    1    3    3    0    0  0.21257478158E+02  0.43622757756E+01  0.11152111114E+02  0.24398348507E+02  0.00000000000E+00 0.  1.
</event>
<event>
 7    1  0.2430096E-009  0.4778727E+02  0.7816164E-02  0.1312668E+00
        -11   -1    0    0    0    0  0.00000000000E+00  0.00000000000E+00  0.45593999997E+02  0.45594000000E+02  0.51100000000E-03 0.  1.
         11   -1    0    0    0    0 -0.00000000000E+00 -0.00000000000E+00 -0.45593999997E+02  0.45594000000E+02  0.51100000000E-03 0. -1.
    9900012    2    1    2    0    0  0.23284387345E+02 -0.20667362937E+02 -0.30237734693E+02  0.47787272078E+02  0.20000004713E+02 0.  0.
        -12    1    1    2    0    0 -0.23284387345E+02  0.20667362937E+02  0.30237734693E+02  0.43400727922E+02  0.00000000000E+00 0.  1.
         11    1    3    3    0    0  0.56655671435E+01 -0.14483522695E+02 -0.21134526118E+02  0.26240031921E+02  0.51100000000E-03 0. -1.
        -11    1    3    3    0    0  0.11722189062E+02 -0.21866547265E+01 -0.33377243200E+01  0.12382712917E+02  0.51100000000E-03 0.  1.
         12    1    3    3    0    0  0.58966311398E+01 -0.39971855152E+01 -0.57654842549E+01  0.91645272402E+01  0.00000000000E+00 0. -1.
</event>
<event>
 7    1  0.2430096E-009  0.4778727E+02  0.7816164E-02  0.1312668E+00
        -11   -1    0    0    0    0  0.00000000000E+00  0.00000000000E+00  0.45593999997E+02  0.45594000000E+02  0.51100000000E-03 0.  1.
         11   -1    0    0    0    0 -0.00000000000E+00 -0.00000000000E+00 -0.45593999997E+02  0.45594000000E+02  0.51100000000E-03 0. -1.
    9900012    2    1    2    0    0  0.24659231005E+02 -0.34169101427E+02 -0.10393173485E+02  0.47787271652E+02  0.20000002769E+02 0.  0.
        -12    1    1    2    0    0 -0.24659231005E+02  0.34169101427E+02  0.10393173485E+02  0.43400728348E+02  0.00000000000E+00 0.  1.
         11    1    3    3    0    0  0.32452848666E+01 -0.49214098559E+01 -0.22753723179E+01  0.63189768381E+01  0.51100000000E-03 0. -1.
        -11    1    3    3    0    0  0.74189879612E+01 -0.80507050602E+01  0.59211785520E+01  0.12446509151E+02  0.51100000000E-03 0.  1.
        -12    1    3    3    0    0  0.13994958177E+02 -0.21196986511E+02 -0.14038979719E+02  0.29021785663E+02  0.00000000000E+00 0.  1.
</event>
<event>
 7    1  0.2430096E-009  0.4778727E+02  0.7816164E-02  0.1312668E+00
        -11   -1    0    0    0    0  0.00000000000E+00  0.00000000000E+00  0.45593999997E+02  0.45594000000E+02  0.51100000000E-03 0.  1.
         11   -1    0    0    0    0 -0.00000000000E+00 -0.00000000000E+00 -0.45593999997E+02  0.45594000000E+02  0.51100000000E-03 0. -1.
    9900012    2    1    2    0    0  0.20176928248E+02 -0.38425444939E+02  0.64640645895E-02  0.47787270812E+02  0.19999998941E+02 0.  0.
        -12    1    1    2    0    0 -0.20176928248E+02  0.38425444939E+02 -0.64640645895E-02  0.43400729188E+02  0.00000000000E+00 0.  1.
         11    1    3    3    0    0  0.17374791804E+02 -0.31315147241E+02  0.49862312486E+01  0.36157770110E+02  0.51100000000E-03 0. -1.
        -11    1    3    3    0    0  0.30128538408E+01 -0.41486364211E+01 -0.65120684967E+01  0.82882753807E+01  0.51100000000E-03 0.  1.
         12    1    3    3    0    0 -0.21071739715E+00 -0.29616612762E+01  0.15323013126E+01  0.33412253215E+01  0.00000000000E+00 0. -1.
</event>
<event>
 7    1  0.2430096E-009  0.4778727E+02  0.7816164E-02  0.1312668E+00
        -11   -1    0    0    0    0  0.00000000000E+00  0.00000000000E+00  0.45593999997E+02  0.45594000000E+02  0.51100000000E-03 0.  1.
         11   -1    0    0    0    0 -0.00000000000E+00 -0.00000000000E+00 -0.45593999997E+02  0.45594000000E+02  0.51100000000E-03 0. -1.
    9900012    2    1    2    0    0  0.21011547069E+02  0.36691975285E+01 -0.37797819200E+02  0.47787271238E+02  0.20000000884E+02 0.  0.
        -12    1    1    2    0    0 -0.21011547069E+02 -0.36691975285E+01  0.37797819200E+02  0.43400728762E+02  0.00000000000E+00 0.  1.
         11    1    3    3    0    0 -0.24310713866E+01  0.87007564926E+00 -0.58883845644E+00  0.26483713318E+01  0.51100000000E-03 0. -1.
        -11    1    3    3    0    0  0.22573457888E+02  0.18138994138E+01 -0.28846569795E+02  0.36673911999E+02  0.51100000000E-03 0.  1.
        -12    1    3    3    0    0  0.86916056779E+00  0.98522246546E+00 -0.83624109486E+01  0.84649879074E+01  0.00000000000E+00 0.  1.
</event>
<event>
 7    1  0.2430096E-009  0.4778727E+02  0.7816164E-02  0.1312668E+00
        -11   -1    0    0    0    0  0.00000000000E+00  0.00000000000E+00  0.45593999997E+02  0.45594000000E+02  0.51100000000E-03 0.  1.
         11   -1    0    0    0    0 -0.00000000000E+00 -0.00000000000E+00 -0.45593999997E+02  0.45594000000E+02  0.51100000000E-03 0. -1.
    9900012    2    1    2    0    0 -0.22581155008E+02 -0.29433730766E+02 -0.22524878184E+02  0.47787271832E+02  0.20000003593E+02 0.  0.
        -12    1    1    2    0    0  0.22581155008E+02  0.29433730766E+02  0.22524878184E+02  0.43400728168E+02  0.00000000000E+00 0.  1.
         11    1    3    3    0    0 -0.18895171071E+02 -0.17416431249E+02 -0.20588112126E+02  0.32927646870E+02  0.51100000000E-03 0. -1.
        -11    1    3    3    0    0 -0.35038805684E+01 -0.13088205125E+02 -0.13270729183E+01  0.13613941943E+02  0.51100000000E-03 0.  1.
         12    1    3    3    0    0 -0.18210336868E+00  0.10709056085E+01 -0.60969313943E+00  0.12456830188E+01  0.00000000000E+00 0. -1.
</event>
<event>
 7    1  0.2430096E-009  0.4778727E+02  0.7816164E-02  0.1312668E+00
        -11   -1    0    0    0    0  0.00000000000E+00  0.00000000000E+00  0.45593999997E+02  0.45594000000E+02  0.51100000000E-03 0. -1.
         11   -1    0    0    0    0 -0.00000000000E+00 -0.00000000000E+00 -0.45593999997E+02  0.45594000000E+02  0.51100000000E-03 0.  1.
    9900012    2    1    2    0    0 -0.18279411999E+02  0.65194378528E+01  0.38819885020E+02  0.47787269062E+02  0.19999990963E+02 0.  0.
        -12    1    1    2    0    0  0.18279411999E+02 -0.65194378528E+01 -0.38819885020E+02  0.43400730938E+02  0.00000000000E+00 0.  1.
         11    1    3    3    0    0 -0.75721160769E+01 -0.19985638232E+01  0.11174856652E+02  0.13645827959E+02  0.51100000000E-03 0. -1.
        -11    1    3    3    0    0 -0.72321667468E+01  0.12480943471E+02  0.22812857424E+02  0.26990825291E+02  0.51100000000E-03 0.  1.
        -12    1    3    3    0    0 -0.34751291749E+01 -0.39629417954E+01  0.48321709451E+01  0.71506158126E+01  0.00000000000E+00 0.  1.
</event>
<event>
 7    1  0.2430096E-009  0.4778727E+02  0.7816164E-02  0.1312668E+00
        -11   -1    0    0    0    0  0.00000000000E+00  0.00000000000E+00  0.45593999997E+02  0.45594000000E+02  0.51100000000E-03 0.  1.
         11   -1    0    0    0    0 -0.00000000000E+00 -0.00000000000E+00 -0.45593999997E+02  0.45594000000E+02  0.51100000000E-03 0. -1.
    9900012    2    1    2    0    0  0.10255143591E+02 -0.72277377544E+01 -0.41547744805E+02  0.47787271187E+02  0.20000000651E+02 0.  0.
        -12    1    1    2    0    0 -0.10255143591E+02  0.72277377544E+01  0.41547744805E+02  0.43400728813E+02  0.00000000000E+00 0.  1.
         11    1    3    3    0    0  0.13492129785E+01  0.55604745184E+01 -0.15692438513E+02  0.16703050000E+02  0.51100000000E-03 0. -1.
        -11    1    3    3    0    0  0.87338972597E+01 -0.74511896583E+01 -0.20651957219E+02  0.23628468547E+02  0.51100000000E-03 0.  1.
         12    1    3    3    0    0  0.17203335327E+00 -0.53370226145E+01 -0.52033490725E+01  0.74557526402E+01  0.00000000000E+00 0. -1.
</event>
<event>
 7    1  0.2430096E-009  0.4778727E+02  0.7816164E-02  0.1312668E+00
        -11   -1    0    0    0    0  0.00000000000E+00  0.00000000000E+00  0.45593999997E+02  0.45594000000E+02  0.51100000000E-03 0. -1.
         11   -1    0    0    0    0 -0.00000000000E+00 -0.00000000000E+00 -0.45593999997E+02  0.45594000000E+02  0.51100000000E-03 0.  1.
    9900012    2    1    2    0    0  0.23743398729E+02 -0.20230257135E+02 -0.30176327358E+02  0.47787273972E+02  0.20000013347E+02 0.  0.
        -12    1    1    2    0    0 -0.23743398729E+02  0.20230257135E+02  0.30176327358E+02  0.43400726028E+02  0.00000000000E+00 0.  1.
         11    1    3    3    0    0  0.27568852261E+01  0.23096829571E+01 -0.15712681062E+01  0.39247847374E+01  0.51100000000E-03 0. -1.
        -11    1    3    3    0    0  0.64844465722E+01 -0.15143868313E+02 -0.10601167607E+02  0.19590037002E+02  0.51100000000E-03 0.  1.
        -12    1    3    3    0    0  0.14502066931E+02 -0.73960717786E+01 -0.18003891645E+02  0.24272452232E+02  0.00000000000E+00 0.  1.
</event>
<event>
 7    1  0.2430096E-009  0.4778728E+02  0.7816164E-02  0.1312668E+00
        -11   -1    0    0    0    0  0.00000000000E+00  0.00000000000E+00  0.45593999997E+02  0.45594000000E+02  0.51100000000E-03 0.  1.
         11   -1    0    0    0    0 -0.00000000000E+00 -0.00000000000E+00 -0.45593999997E+02  0.45594000000E+02  0.51100000000E-03 0. -1.
    9900012    2    1    2    0    0  0.41867825590E+02  0.63938045592E+01 -0.94777113407E+01  0.47787279169E+02  0.20000037045E+02 0.  0.
        -12    1    1    2    0    0 -0.41867825590E+02 -0.63938045592E+01  0.94777113407E+01  0.43400720831E+02  0.00000000000E+00 0.  1.
         11    1    3    3    0    0  0.20593170344E+02  0.48298768132E+01  0.23142221447E+01  0.21278204793E+02  0.51100000000E-03 0. -1.
        -11    1    3    3    0    0  0.92011828754E+01 -0.40702604449E+01 -0.73672730842E+01  0.12470184415E+02  0.51100000000E-03 0.  1.
         12    1    3    3    0    0  0.12073472371E+02  0.56341881910E+01 -0.44246604012E+01  0.14038889961E+02  0.00000000000E+00 0. -1.
</event>
<event>
 7    1  0.2430096E-009  0.4778727E+02  0.7816164E-02  0.1312668E+00
        -11   -1    0    0    0    0  0.00000000000E+00  0.00000000000E+00  0.45593999997E+02  0.45594000000E+02  0.51100000000E-03 0.  1.
         11   -1    0    0    0    0 -0.00000000000E+00 -0.00000000000E+00 -0.45593999997E+02  0.45594000000E+02  0.51100000000E-03 0. -1.
    9900012    2    1    2    0    0  0.51937323802E+01  0.29275643658E+02 -0.31616217205E+02  0.47787270076E+02  0.19999995584E+02 0.  0.
        -12    1    1    2    0    0 -0.51937323802E+01 -0.29275643658E+02  0.31616217205E+02  0.43400729924E+02  0.00000000000E+00 0.  1.
         11    1    3    3    0    0  0.46110370543E+01  0.22363547637E+02 -0.17066133293E+02  0.28506890947E+02  0.51100000000E-03 0. -1.
        -11    1    3    3    0    0  0.52368682070E+01  0.57719574513E+01 -0.80456573351E+01  0.11201467924E+02  0.51100000000E-03 0.  1.
         12    1    3    3    0    0 -0.46541728812E+01  0.11401385692E+01 -0.65044265767E+01  0.80789112049E+01  0.00000000000E+00 0. -1.
</event>
<event>
 7    1  0.2430096E-009  0.4778727E+02  0.7816164E-02  0.1312668E+00
        -11   -1    0    0    0    0  0.00000000000E+00  0.00000000000E+00  0.45593999997E+02  0.45594000000E+02  0.51100000000E-03 0.  1.
         11   -1    0    0    0    0 -0.00000000000E+00 -0.00000000000E+00 -0.45593999997E+02  0.45594000000E+02  0.51100000000E-03 0. -1.
    9900012    2    1    2    0    0 -0.68968969161E+01 -0.39270476556E+01 -0.42668893338E+02  0.47787270178E+02  0.19999996049E+02 0.  0.
        -12    1    1    2    0    0  0.68968969161E+01  0.39270476556E+01  0.42668893338E+02  0.43400729822E+02  0.00000000000E+00 0.  1.
         11    1    3    3    0    0 -0.83139506554E+01 -0.70603435961E+01 -0.30375407354E+02  0.32274379923E+02  0.51100000000E-03 0. -1.
        -11    1    3    3    0    0  0.56054893673E-01 -0.61710265840E+00  0.12493628178E+01  0.13945843660E+01  0.51100000000E-03 0.  1.
         12    1    3    3    0    0  0.13609988455E+01  0.37503985989E+01 -0.13542848802E+02  0.14118305889E+02  0.00000000000E+00 0. -1.
</event>
<event>
 7    1  0.2430096E-009  0.4778727E+02  0.7816164E-02  0.1312668E+00
        -11   -1    0    0    0    0  0.00000000000E+00  0.00000000000E+00  0.45593999997E+02  0.45594000000E+02  0.51100000000E-03 0.  1.
         11   -1    0    0    0    0 -0.00000000000E+00 -0.00000000000E+00 -0.45593999997E+02  0.45594000000E+02  0.51100000000E-03 0. -1.
    9900012    2    1    2    0    0  0.44052946146E+01 -0.39853413210E+02 -0.16610903853E+02  0.47787270836E+02  0.19999999050E+02 0.  0.
        -12    1    1    2    0    0 -0.44052946146E+01  0.39853413210E+02  0.16610903853E+02  0.43400729164E+02  0.00000000000E+00 0.  1.
         11    1    3    3    0    0  0.41741383491E+01 -0.56011469292E+01  0.21353698607E+01  0.73045248020E+01  0.51100000000E-03 0.  1.
        -11    1    3    3    0    0 -0.15401262332E+01 -0.29173225995E+02 -0.11358738704E+02  0.31344378268E+02  0.51100000000E-03 0. -1.
         12    1    3    3    0    0  0.17712824987E+01 -0.50790402856E+01 -0.73875350095E+01  0.91383677661E+01  0.00000000000E+00 0. -1.
</event>
<event>
 7    1  0.2430096E-009  0.4778727E+02  0.7816164E-02  0.1312668E+00
        -11   -1    0    0    0    0  0.00000000000E+00  0.00000000000E+00  0.45593999997E+02  0.45594000000E+02  0.51100000000E-03 0.  1.
         11   -1    0    0    0    0 -0.00000000000E+00 -0.00000000000E+00 -0.45593999997E+02  0.45594000000E+02  0.51100000000E-03 0. -1.
    9900012    2    1    2    0    0  0.19419535192E+02 -0.20362122470E+02 -0.33043746976E+02  0.47787267370E+02  0.19999983248E+02 0.  0.
        -12    1    1    2    0    0 -0.19419535192E+02  0.20362122470E+02  0.33043746976E+02  0.43400732630E+02  0.00000000000E+00 0.  1.
         11    1    3    3    0    0  0.92406402716E+01 -0.13387889774E+02 -0.21423165858E+02  0.26899387741E+02  0.51100000000E-03 0. -1.
        -11    1    3    3    0    0  0.77193593237E+01 -0.24512541379E+01 -0.13213885207E+02  0.15498513404E+02  0.51100000000E-03 0.  1.
         12    1    3    3    0    0  0.24595355969E+01 -0.45229785580E+01  0.15933040883E+01  0.53893662250E+01  0.00000000000E+00 0. -1.
</event>
<event>
 7    1  0.2430096E-009  0.4778727E+02  0.7816164E-02  0.1312668E+00
        -11   -1    0    0    0    0  0.00000000000E+00  0.00000000000E+00  0.45593999997E+02  0.45594000000E+02  0.51100000000E-03 0. -1.
         11   -1    0    0    0    0 -0.00000000000E+00 -0.00000000000E+00 -0.45593999997E+02  0.45594000000E+02  0.51100000000E-03 0.  1.
    9900012    2    1    2    0    0  0.32550333037E+02 -0.25504787856E+02  0.13175918012E+02  0.47787271897E+02  0.20000003888E+02 0.  0.
        -12    1    1    2    0    0 -0.32550333037E+02  0.25504787856E+02 -0.13175918012E+02  0.43400728103E+02  0.00000000000E+00 0.  1.
         11    1    3    3    0    0  0.12137373720E+02 -0.53846022228E+01  0.60186247681E+01  0.14578533063E+02  0.51100000000E-03 0. -1.
        -11    1    3    3    0    0 -0.15631309706E+00 -0.72016415937E+01 -0.16176076880E+01  0.73827319010E+01  0.51100000000E-03 0.  1.
        -12    1    3    3    0    0  0.20569272414E+02 -0.12918544040E+02  0.87749009320E+01  0.25826006933E+02  0.00000000000E+00 0.  1.
</event>
<event>
 7    1  0.2430096E-009  0.4778726E+02  0.7816164E-02  0.1312668E+00
        -11   -1    0    0    0    0  0.00000000000E+00  0.00000000000E+00  0.45593999997E+02  0.45594000000E+02  0.51100000000E-03 0.  1.
         11   -1    0    0    0    0 -0.00000000000E+00 -0.00000000000E+00 -0.45593999997E+02  0.45594000000E+02  0.51100000000E-03 0. -1.
    9900012    2    1    2    0    0  0.30967427734E+02 -0.40675115066E+01 -0.30134658278E+02  0.47787264294E+02  0.19999969222E+02 0.  0.
        -12    1    1    2    0    0 -0.30967427734E+02  0.40675115066E+01  0.30134658278E+02  0.43400735706E+02  0.00000000000E+00 0.  1.
         11    1    3    3    0    0  0.24477047039E+02 -0.51718926957E+01 -0.15639960667E+02  0.29503943393E+02  0.51100000000E-03 0. -1.
        -11    1    3    3    0    0  0.25406858095E+01 -0.17750356774E+01 -0.12144919639E+00  0.31017069828E+01  0.51100000000E-03 0.  1.
         12    1    3    3    0    0  0.39496948852E+01  0.28794168666E+01 -0.14373248414E+02  0.15181613918E+02  0.00000000000E+00 0. -1.
</event>
<event>
 7    1  0.2430096E-009  0.4778725E+02  0.7816164E-02  0.1312668E+00
        -11   -1    0    0    0    0  0.00000000000E+00  0.00000000000E+00  0.45593999997E+02  0.45594000000E+02  0.51100000000E-03 0. -1.
         11   -1    0    0    0    0 -0.00000000000E+00 -0.00000000000E+00 -0.45593999997E+02  0.45594000000E+02  0.51100000000E-03 0.  1.
    9900012    2    1    2    0    0 -0.28717380234E+00 -0.20313449271E+02  0.38352398152E+02  0.47787249614E+02  0.19999902288E+02 0.  0.
        -12    1    1    2    0    0  0.28717380234E+00  0.20313449271E+02 -0.38352398152E+02  0.43400750386E+02  0.00000000000E+00 0.  1.
         11    1    3    3    0    0 -0.28833555446E+01 -0.16583757582E+02  0.22442368160E+02  0.28053424811E+02  0.51100000000E-03 0. -1.
        -11    1    3    3    0    0 -0.91719239532E+00  0.11730496020E+01 -0.99105240851E+00  0.17887069062E+01  0.51100000000E-03 0.  1.
         12    1    3    3    0    0  0.35133741376E+01 -0.49027412906E+01  0.16901082401E+02  0.17945117896E+02  0.00000000000E+00 0. -1.
</event>
<event>
 7    1  0.2430096E-009  0.4778727E+02  0.7816164E-02  0.1312668E+00
        -11   -1    0    0    0    0  0.00000000000E+00  0.00000000000E+00  0.45593999997E+02  0.45594000000E+02  0.51100000000E-03 0. -1.
         11   -1    0    0    0    0 -0.00000000000E+00 -0.00000000000E+00 -0.45593999997E+02  0.45594000000E+02  0.51100000000E-03 0.  1.
    9900012    2    1    2    0    0 -0.41020583573E+01  0.37243164256E+02  0.21903038690E+02  0.47787271084E+02  0.20000000180E+02 0.  0.
        -12    1    1    2    0    0  0.41020583573E+01 -0.37243164256E+02 -0.21903038690E+02  0.43400728916E+02  0.00000000000E+00 0.  1.
         11    1    3    3    0    0 -0.87820749731E+01  0.25995896213E+02  0.10741333941E+02  0.29466722176E+02  0.51100000000E-03 0. -1.
        -11    1    3    3    0    0  0.61855900719E+01  0.10327556349E+02  0.11351392050E+02  0.16546118772E+02  0.51100000000E-03 0.  1.
        -12    1    3    3    0    0 -0.15055734561E+01  0.91971169497E+00 -0.18968730143E+00  0.17744301355E+01  0.00000000000E+00 0.  1.
</event>
<event>
 7    1  0.2430096E-009  0.4778727E+02  0.7816164E-02  0.1312668E+00
        -11   -1    0    0    0    0  0.00000000000E+00  0.00000000000E+00  0.45593999997E+02  0.45594000000E+02  0.51100000000E-03 0.  1.
         11   -1    0    0    0    0 -0.00000000000E+00 -0.00000000000E+00 -0.45593999997E+02  0.45594000000E+02  0.51100000000E-03 0. -1.
    9900012    2    1    2    0    0  0.22919526303E+02  0.20153215802E+02 -0.30857194415E+02  0.47787271431E+02  0.20000001763E+02 0.  0.
        -12    1    1    2    0    0 -0.22919526303E+02 -0.20153215802E+02  0.30857194415E+02  0.43400728569E+02  0.00000000000E+00 0.  1.
         11    1    3    3    0    0  0.73339118494E+00  0.11402712871E+02 -0.74280883347E+01  0.13628507622E+02  0.51100000000E-03 0. -1.
        -11    1    3    3    0    0  0.17641787758E+02  0.94397159987E+01 -0.20809931010E+02  0.28868566683E+02  0.51100000000E-03 0.  1.
         12    1    3    3    0    0  0.45443473594E+01 -0.68921306703E+00 -0.26191750705E+01  0.52901971253E+01  0.00000000000E+00 0. -1.
</event>
<event>
 7    1  0.2430096E-009  0.4778727E+02  0.7816164E-02  0.1312668E+00
        -11   -1    0    0    0    0  0.00000000000E+00  0.00000000000E+00  0.45593999997E+02  0.45594000000E+02  0.51100000000E-03 0. -1.
         11   -1    0    0    0    0 -0.00000000000E+00 -0.00000000000E+00 -0.45593999997E+02  0.45594000000E+02  0.51100000000E-03 0.  1.
    9900012    2    1    2    0    0  0.68923460041E+01 -0.46036358627E+01  0.42601942467E+02  0.47787269608E+02  0.19999993449E+02 0.  0.
        -12    1    1    2    0    0 -0.68923460041E+01  0.46036358627E+01 -0.42601942467E+02  0.43400730392E+02  0.00000000000E+00 0.  1.
         11    1    3    3    0    0  0.74958303470E+01 -0.15186553305E+01  0.30345608838E+02  0.31294564426E+02  0.51100000000E-03 0. -1.
        -11    1    3    3    0    0 -0.15919505270E+01  0.24629157041E+01 -0.76257609746E-01  0.29336113802E+01  0.51100000000E-03 0.  1.
         12    1    3    3    0    0  0.98846618401E+00 -0.55478962363E+01  0.12332591239E+02  0.13559093802E+02  0.00000000000E+00 0. -1.
</event>
<event>
 7    1  0.2430096E-009  0.4778728E+02  0.7816164E-02  0.1312668E+00
        -11   -1    0    0    0    0  0.00000000000E+00  0.00000000000E+00  0.45593999997E+02  0.45594000000E+02  0.51100000000E-03 0.  1.
         11   -1    0    0    0    0 -0.00000000000E+00 -0.00000000000E+00 -0.45593999997E+02  0.45594000000E+02  0.51100000000E-03 0. -1.
    9900012    2    1    2    0    0 -0.15299697027E+02  0.11477603069E+02 -0.38959034016E+02  0.47787280734E+02  0.20000044181E+02 0.  0.
        -12    1    1    2    0    0  0.15299697027E+02 -0.11477603069E+02  0.38959034016E+02  0.43400719266E+02  0.00000000000E+00 0.  1.
         11    1    3    3    0    0 -0.10137080640E+02  0.41255991843E+01 -0.34950386993E+02  0.36623906452E+02  0.51100000000E-03 0. -1.
        -11    1    3    3    0    0 -0.45964233163E+01  0.51678225820E+01 -0.51611952353E+01  0.86296833116E+01  0.51100000000E-03 0.  1.
         12    1    3    3    0    0 -0.56619307082E+00  0.21841813025E+01  0.11525482128E+01  0.25336909713E+01  0.00000000000E+00 0. -1.
</event>
<event>
 7    1  0.2430096E-009  0.4778727E+02  0.7816164E-02  0.1312668E+00
        -11   -1    0    0    0    0  0.00000000000E+00  0.00000000000E+00  0.45593999997E+02  0.45594000000E+02  0.51100000000E-03 0.  1.
         11   -1    0    0    0    0 -0.00000000000E+00 -0.00000000000E+00 -0.45593999997E+02  0.45594000000E+02  0.51100000000E-03 0. -1.
    9900012    2    1    2    0    0  0.64832295210E+00  0.18143194227E+02 -0.39421156761E+02  0.47787269363E+02  0.19999992334E+02 0.  0.
        -12    1    1    2    0    0 -0.64832295210E+00 -0.18143194227E+02  0.39421156761E+02  0.43400730637E+02  0.00000000000E+00 0.  1.
         11    1    3    3    0    0 -0.45777852092E+00  0.97065493301E+01 -0.17627552307E+02  0.20128518616E+02  0.51100000000E-03 0. -1.
        -11    1    3    3    0    0 -0.62006537961E+01  0.41310605795E+01 -0.54017318838E+01  0.92028515481E+01  0.51100000000E-03 0.  1.
        -12    1    3    3    0    0  0.73067552691E+01  0.43055843179E+01 -0.16391872570E+02  0.18455899199E+02  0.00000000000E+00 0.  1.
</event>
<event>
 7    1  0.2430096E-009  0.4778727E+02  0.7816164E-02  0.1312668E+00
        -11   -1    0    0    0    0  0.00000000000E+00  0.00000000000E+00  0.45593999997E+02  0.45594000000E+02  0.51100000000E-03 0.  1.
         11   -1    0    0    0    0 -0.00000000000E+00 -0.00000000000E+00 -0.45593999997E+02  0.45594000000E+02  0.51100000000E-03 0. -1.
    9900012    2    1    2    0    0 -0.25046438248E+02 -0.75571149942E+01 -0.34629306806E+02  0.47787274824E+02  0.20000017232E+02 0.  0.
        -12    1    1    2    0    0  0.25046438248E+02  0.75571149942E+01  0.34629306806E+02  0.43400725176E+02  0.00000000000E+00 0.  1.
         11    1    3    3    0    0 -0.13615601679E+02 -0.65545317674E+01 -0.12613084234E+02  0.19683403922E+02  0.51100000000E-03 0.  1.
        -11    1    3    3    0    0 -0.61270120648E+01  0.55969580377E+01 -0.14850600387E+02  0.17011953098E+02  0.51100000000E-03 0. -1.
         12    1    3    3    0    0 -0.53038245035E+01 -0.65995412645E+01 -0.71656221854E+01  0.11091917804E+02  0.00000000000E+00 0. -1.
</event>
<event>
 7    1  0.2430096E-009  0.4778727E+02  0.7816164E-02  0.1312668E+00
        -11   -1    0    0    0    0  0.00000000000E+00  0.00000000000E+00  0.45593999997E+02  0.45594000000E+02  0.51100000000E-03 0. -1.
         11   -1    0    0    0    0 -0.00000000000E+00 -0.00000000000E+00 -0.45593999997E+02  0.45594000000E+02  0.51100000000E-03 0.  1.
    9900012    2    1    2    0    0  0.78447439588E+01 -0.30954115630E+02  0.29392616013E+02  0.47787272376E+02  0.20000006070E+02 0.  0.
        -12    1    1    2    0    0 -0.78447439588E+01  0.30954115630E+02 -0.29392616013E+02  0.43400727624E+02  0.00000000000E+00 0.  1.
         11    1    3    3    0    0  0.26110818888E+01 -0.28356369301E+02  0.23714381060E+02  0.37057702275E+02  0.51100000000E-03 0. -1.
        -11    1    3    3    0    0  0.40994749968E+01  0.11346937600E+01  0.55414764902E+00  0.42895576761E+01  0.51100000000E-03 0.  1.
        -12    1    3    3    0    0  0.11341870732E+01 -0.37324400892E+01  0.51240873039E+01  0.64400124250E+01  0.00000000000E+00 0.  1.
</event>
<event>
 7    1  0.2430096E-009  0.4778727E+02  0.7816164E-02  0.1312668E+00
        -11   -1    0    0    0    0  0.00000000000E+00  0.00000000000E+00  0.45593999997E+02  0.45594000000E+02  0.51100000000E-03 0. -1.
         11   -1    0    0    0    0 -0.00000000000E+00 -0.00000000000E+00 -0.45593999997E+02  0.45594000000E+02  0.51100000000E-03 0.  1.
    9900012    2    1    2    0    0  0.27080103055E+02  0.30962728574E+02  0.13841985181E+02  0.47787273094E+02  0.20000009345E+02 0.  0.
        -12    1    1    2    0    0 -0.27080103055E+02 -0.30962728574E+02 -0.13841985181E+02  0.43400726906E+02  0.00000000000E+00 0.  1.
         11    1    3    3    0    0  0.74013874285E+01  0.28288742786E+01  0.46749146281E+01  0.91998854662E+01  0.51100000000E-03 0. -1.
        -11    1    3    3    0    0  0.11474172909E+02  0.26713281660E+02  0.81822342937E+01  0.30202731984E+02  0.51100000000E-03 0.  1.
        -12    1    3    3    0    0  0.82045427169E+01  0.14205726356E+01  0.98483625908E+00  0.83846556437E+01  0.00000000000E+00 0.  1.
</event>
<event>
 7    1  0.2430096E-009  0.4778727E+02  0.7816164E-02  0.1312668E+00
        -11   -1    0    0    0    0  0.00000000000E+00  0.00000000000E+00  0.45593999997E+02  0.45594000000E+02  0.51100000000E-03 0.  1.
         11   -1    0    0    0    0 -0.00000000000E+00 -0.00000000000E+00 -0.45593999997E+02  0.45594000000E+02  0.51100000000E-03 0. -1.
    9900012    2    1    2    0    0  0.29082104624E+02 -0.27781773748E+02 -0.16310353591E+02  0.47787269635E+02  0.19999993574E+02 0.  0.
        -12    1    1    2    0    0 -0.29082104624E+02  0.27781773748E+02  0.16310353591E+02  0.43400730365E+02  0.00000000000E+00 0.  1.
         11    1    3    3    0    0  0.36336470039E+01 -0.12257508141E+01 -0.75356213319E+01  0.84552613636E+01  0.51100000000E-03 0. -1.
        -11    1    3    3    0    0  0.13317545472E+01  0.32863840321E-01  0.14877402446E+01  0.19970031303E+01  0.51100000000E-03 0.  1.
         12    1    3    3    0    0  0.24116703073E+02 -0.26588886774E+02 -0.10262472503E+02  0.37335005141E+02  0.00000000000E+00 0. -1.
</event>
<event>
 7    1  0.2430096E-009  0.4778727E+02  0.7816164E-02  0.1312668E+00
        -11   -1    0    0    0    0  0.00000000000E+00  0.00000000000E+00  0.45593999997E+02  0.45594000000E+02  0.51100000000E-03 0.  1.
         11   -1    0    0    0    0 -0.00000000000E+00 -0.00000000000E+00 -0.45593999997E+02  0.45594000000E+02  0.51100000000E-03 0. -1.
    9900012    2    1    2    0    0 -0.32366841049E+02 -0.23307500644E+02 -0.17110551099E+02  0.47787274837E+02  0.20000017293E+02 0.  0.
        -12    1    1    2    0    0  0.32366841049E+02  0.23307500644E+02  0.17110551099E+02  0.43400725163E+02  0.00000000000E+00 0.  1.
         11    1    3    3    0    0 -0.10989384780E+02 -0.70131533416E+01 -0.81687859089E+01  0.15384406428E+02  0.51100000000E-03 0. -1.
        -11    1    3    3    0    0 -0.13785314184E+02 -0.10933290713E+01 -0.17007806406E+01  0.13932799814E+02  0.51100000000E-03 0.  1.
        -12    1    3    3    0    0 -0.75921420847E+01 -0.15201018231E+02 -0.72409845494E+01  0.18470068596E+02  0.00000000000E+00 0.  1.
</event>
<event>
 7    1  0.2430096E-009  0.4778726E+02  0.7816164E-02  0.1312668E+00
        -11   -1    0    0    0    0  0.00000000000E+00  0.00000000000E+00  0.45593999997E+02  0.45594000000E+02  0.51100000000E-03 0.  1.
         11   -1    0    0    0    0 -0.00000000000E+00 -0.00000000000E+00 -0.45593999997E+02  0.45594000000E+02  0.51100000000E-03 0. -1.
    9900012    2    1    2    0    0 -0.33586373668E+02  0.20604440227E+02 -0.18194417525E+02  0.47787259427E+02  0.19999947032E+02 0.  0.
        -12    1    1    2    0    0  0.33586373668E+02 -0.20604440227E+02  0.18194417525E+02  0.43400740573E+02  0.00000000000E+00 0.  1.
         11    1    3    3    0    0 -0.25610935210E+02  0.10524782533E+02 -0.15512291609E+02  0.31738340236E+02  0.51100000000E-03 0. -1.
        -11    1    3    3    0    0 -0.80536445422E+01  0.10610771751E+02 -0.45723858105E+01  0.14083904992E+02  0.51100000000E-03 0.  1.
         12    1    3    3    0    0  0.78206084949E-01 -0.53111405654E+00  0.18902598946E+01  0.19650141989E+01  0.00000000000E+00 0. -1.
</event>
<event>
 7    1  0.2430096E-009  0.4778727E+02  0.7816164E-02  0.1312668E+00
        -11   -1    0    0    0    0  0.00000000000E+00  0.00000000000E+00  0.45593999997E+02  0.45594000000E+02  0.51100000000E-03 0.  1.
         11   -1    0    0    0    0 -0.00000000000E+00 -0.00000000000E+00 -0.45593999997E+02  0.45594000000E+02  0.51100000000E-03 0. -1.
    9900012    2    1    2    0    0 -0.78857113984E+01  0.56958428565E+01 -0.42296527158E+02  0.47787270977E+02  0.19999999694E+02 0.  0.
        -12    1    1    2    0    0  0.78857113984E+01 -0.56958428565E+01  0.42296527158E+02  0.43400729023E+02  0.00000000000E+00 0.  1.
         11    1    3    3    0    0  0.25387158021E+01  0.82490949137E+01 -0.15902941514E+02  0.18094092789E+02  0.51100000000E-03 0. -1.
        -11    1    3    3    0    0 -0.64400309493E+01 -0.17811093437E+01 -0.62649949582E+01  0.91595038736E+01  0.51100000000E-03 0.  1.
         12    1    3    3    0    0 -0.39843962512E+01 -0.77214271356E+00 -0.20128590686E+02  0.20533674315E+02  0.00000000000E+00 0. -1.
</event>
<event>
 7    1  0.2430096E-009  0.4778727E+02  0.7816164E-02  0.1312668E+00
        -11   -1    0    0    0    0  0.00000000000E+00  0.00000000000E+00  0.45593999997E+02  0.45594000000E+02  0.51100000000E-03 0.  1.
         11   -1    0    0    0    0 -0.00000000000E+00 -0.00000000000E+00 -0.45593999997E+02  0.45594000000E+02  0.51100000000E-03 0. -1.
    9900012    2    1    2    0    0  0.23535370702E+02  0.21230436992E+02 -0.29647564750E+02  0.47787271613E+02  0.20000002592E+02 0.  0.
        -12    1    1    2    0    0 -0.23535370702E+02 -0.21230436992E+02  0.29647564750E+02  0.43400728387E+02  0.00000000000E+00 0.  1.
         11    1    3    3    0    0  0.15422197311E+02  0.48686323911E+01 -0.14909183481E+02  0.21996170203E+02  0.51100000000E-03 0. -1.
        -11    1    3    3    0    0  0.33972573545E+00  0.12357157645E+02 -0.95725427174E+01  0.15634843555E+02  0.51100000000E-03 0.  1.
        -12    1    3    3    0    0  0.77734476554E+01  0.40046469551E+01 -0.51658385516E+01  0.10156257856E+02  0.00000000000E+00 0.  1.
</event>
<event>
 7    1  0.2430096E-009  0.4778727E+02  0.7816164E-02  0.1312668E+00
        -11   -1    0    0    0    0  0.00000000000E+00  0.00000000000E+00  0.45593999997E+02  0.45594000000E+02  0.51100000000E-03 0. -1.
         11   -1    0    0    0    0 -0.00000000000E+00 -0.00000000000E+00 -0.45593999997E+02  0.45594000000E+02  0.51100000000E-03 0.  1.
    9900012    2    1    2    0    0  0.43243108569E+02  0.31123017945E+01  0.19925959978E+01  0.47787270743E+02  0.19999998627E+02 0.  0.
        -12    1    1    2    0    0 -0.43243108569E+02 -0.31123017945E+01 -0.19925959978E+01  0.43400729257E+02  0.00000000000E+00 0.  1.
         11    1    3    3    0    0  0.26838603823E+02  0.64655335185E+01 -0.41314167263E+01  0.27913838562E+02  0.51100000000E-03 0. -1.
        -11    1    3    3    0    0  0.66770207233E+01 -0.58347477516E+01  0.29110085976E+01  0.93327840637E+01  0.51100000000E-03 0.  1.
        -12    1    3    3    0    0  0.97274840230E+01  0.24815160275E+01  0.32130041265E+01  0.10540648117E+02  0.00000000000E+00 0.  1.
</event>
<event>
 7    1  0.2430096E-009  0.4778727E+02  0.7816164E-02  0.1312668E+00
        -11   -1    0    0    0    0  0.00000000000E+00  0.00000000000E+00  0.45593999997E+02  0.45594000000E+02  0.51100000000E-03 0.  1.
         11   -1    0    0    0    0 -0.00000000000E+00 -0.00000000000E+00 -0.45593999997E+02  0.45594000000E+02  0.51100000000E-03 0. -1.
    9900012    2    1    2    0    0 -0.19349636545E+02 -0.25618936705E+02 -0.29204193726E+02  0.47787270933E+02  0.19999999494E+02 0.  0.
        -12    1    1    2    0    0  0.19349636545E+02  0.25618936705E+02  0.29204193726E+02  0.43400729067E+02  0.00000000000E+00 0.  1.
         11    1    3    3    0    0 -0.10845792617E+02 -0.78868657400E+01 -0.58734428941E+01  0.14640054658E+02  0.51100000000E-03 0. -1.
        -11    1    3    3    0    0 -0.44809358353E+01 -0.18216918050E+02 -0.21931390997E+02  0.28860367297E+02  0.51100000000E-03 0.  1.
        -12    1    3    3    0    0 -0.40229080922E+01  0.48484708499E+00 -0.13993598348E+01  0.42868489782E+01  0.00000000000E+00 0.  1.
</event>
<event>
 7    1  0.2430096E-009  0.4778727E+02  0.7816164E-02  0.1312668E+00
        -11   -1    0    0    0    0  0.00000000000E+00  0.00000000000E+00  0.45593999997E+02  0.45594000000E+02  0.51100000000E-03 0.  1.
         11   -1    0    0    0    0 -0.00000000000E+00 -0.00000000000E+00 -0.45593999997E+02  0.45594000000E+02  0.51100000000E-03 0. -1.
    9900012    2    1    2    0    0  0.39364291871E+01  0.39632892711E+02 -0.17244179565E+02  0.47787269726E+02  0.19999993991E+02 0.  0.
        -12    1    1    2    0    0 -0.39364291871E+01 -0.39632892711E+02  0.17244179565E+02  0.43400730274E+02  0.00000000000E+00 0.  1.
         11    1    3    3    0    0 -0.54943396318E+01  0.21816848568E+02 -0.11188508772E+02  0.25126587079E+02  0.51100000000E-03 0. -1.
        -11    1    3    3    0    0  0.82928442606E+01  0.79133745782E+01 -0.10614954221E+01  0.11511712989E+02  0.51100000000E-03 0.  1.
         12    1    3    3    0    0  0.11379245583E+01  0.99026695649E+01 -0.49941753704E+01  0.11148969658E+02  0.00000000000E+00 0. -1.
</event>
<event>
 7    1  0.2430096E-009  0.4778728E+02  0.7816164E-02  0.1312668E+00
        -11   -1    0    0    0    0  0.00000000000E+00  0.00000000000E+00  0.45593999997E+02  0.45594000000E+02  0.51100000000E-03 0.  1.
         11   -1    0    0    0    0 -0.00000000000E+00 -0.00000000000E+00 -0.45593999997E+02  0.45594000000E+02  0.51100000000E-03 0. -1.
    9900012    2    1    2    0    0 -0.21843875722E+02  0.29068921209E+02 -0.23695265924E+02  0.47787277494E+02  0.20000029408E+02 0.  0.
        -12    1    1    2    0    0  0.21843875722E+02 -0.29068921209E+02  0.23695265924E+02  0.43400722506E+02  0.00000000000E+00 0.  1.
         11    1    3    3    0    0 -0.73283774844E+01  0.97857410590E+01 -0.17465101839E+02  0.21318903047E+02  0.51100000000E-03 0.  1.
        -11    1    3    3    0    0 -0.14968825306E+01  0.61895540940E+01 -0.47509780486E+01  0.79450003066E+01  0.51100000000E-03 0. -1.
         12    1    3    3    0    0 -0.13018615707E+02  0.13093626056E+02 -0.14791860364E+01  0.18523374140E+02  0.00000000000E+00 0. -1.
</event>
<event>
 7    1  0.2430096E-009  0.4778727E+02  0.7816164E-02  0.1312668E+00
        -11   -1    0    0    0    0  0.00000000000E+00  0.00000000000E+00  0.45593999997E+02  0.45594000000E+02  0.51100000000E-03 0.  1.
         11   -1    0    0    0    0 -0.00000000000E+00 -0.00000000000E+00 -0.45593999997E+02  0.45594000000E+02  0.51100000000E-03 0. -1.
    9900012    2    1    2    0    0 -0.30739760678E+02  0.20161329550E+01 -0.30571648685E+02  0.47787269800E+02  0.19999994325E+02 0.  0.
        -12    1    1    2    0    0  0.30739760678E+02 -0.20161329550E+01  0.30571648685E+02  0.43400730200E+02  0.00000000000E+00 0.  1.
         11    1    3    3    0    0 -0.11862473188E+02 -0.52990783167E+01 -0.61515465665E+01  0.14374979185E+02  0.51100000000E-03 0. -1.
        -11    1    3    3    0    0 -0.76761247031E+00  0.35707964491E+01 -0.75218626826E+01  0.83617124241E+01  0.51100000000E-03 0.  1.
         12    1    3    3    0    0 -0.18109675019E+02  0.37444148226E+01 -0.16898239436E+02  0.25050578191E+02  0.00000000000E+00 0. -1.
</event>
<event>
 7    1  0.2430096E-009  0.4778727E+02  0.7816164E-02  0.1312668E+00
        -11   -1    0    0    0    0  0.00000000000E+00  0.00000000000E+00  0.45593999997E+02  0.45594000000E+02  0.51100000000E-03 0.  1.
         11   -1    0    0    0    0 -0.00000000000E+00 -0.00000000000E+00 -0.45593999997E+02  0.45594000000E+02  0.51100000000E-03 0. -1.
    9900012    2    1    2    0    0  0.27442631043E+02 -0.38523781631E+01 -0.33401858736E+02  0.47787274394E+02  0.20000015274E+02 0.  0.
        -12    1    1    2    0    0 -0.27442631043E+02  0.38523781631E+01  0.33401858736E+02  0.43400725606E+02  0.00000000000E+00 0.  1.
         11    1    3    3    0    0  0.13255036943E+02 -0.11868721236E+01 -0.28080843438E+02  0.31074723462E+02  0.51100000000E-03 0. -1.
        -11    1    3    3    0    0  0.51814231188E+01 -0.19028495520E+01  0.10963869666E+01  0.56276146452E+01  0.51100000000E-03 0.  1.
         12    1    3    3    0    0  0.90061709816E+01 -0.76265648743E+00 -0.64174022644E+01  0.11084936287E+02  0.00000000000E+00 0. -1.
</event>
<event>
 7    1  0.2430096E-009  0.4778726E+02  0.7816164E-02  0.1312668E+00
        -11   -1    0    0    0    0  0.00000000000E+00  0.00000000000E+00  0.45593999997E+02  0.45594000000E+02  0.51100000000E-03 0. -1.
         11   -1    0    0    0    0 -0.00000000000E+00 -0.00000000000E+00 -0.45593999997E+02  0.45594000000E+02  0.51100000000E-03 0.  1.
    9900012    2    1    2    0    0 -0.15242943571E+02  0.24820255375E+02 -0.32175020657E+02  0.47787258533E+02  0.19999942956E+02 0.  0.
        -12    1    1    2    0    0  0.15242943571E+02 -0.24820255375E+02  0.32175020657E+02  0.43400741467E+02  0.00000000000E+00 0.  1.
         11    1    3    3    0    0 -0.10713428676E+02  0.22479014864E+02 -0.13749058852E+02  0.28445039687E+02  0.51100000000E-03 0. -1.
        -11    1    3    3    0    0 -0.39228153926E+01  0.52658713057E+00 -0.12969387406E+02  0.13559896185E+02  0.51100000000E-03 0.  1.
         12    1    3    3    0    0 -0.60669950288E+00  0.18146533804E+01 -0.54565743995E+01  0.57823226610E+01  0.00000000000E+00 0. -1.
</event>
<event>
 7    1  0.2430096E-009  0.4778727E+02  0.7816164E-02  0.1312668E+00
        -11   -1    0    0    0    0  0.00000000000E+00  0.00000000000E+00  0.45593999997E+02  0.45594000000E+02  0.51100000000E-03 0.  1.
         11   -1    0    0    0    0 -0.00000000000E+00 -0.00000000000E+00 -0.45593999997E+02  0.45594000000E+02  0.51100000000E-03 0. -1.
    9900012    2    1    2    0    0 -0.12159008208E+02 -0.28498117426E+02 -0.30391431839E+02  0.47787270666E+02  0.19999998276E+02 0.  0.
        -12    1    1    2    0    0  0.12159008208E+02  0.28498117426E+02  0.30391431839E+02  0.43400729334E+02  0.00000000000E+00 0.  1.
         11    1    3    3    0    0 -0.91564809616E+01 -0.94985342896E+01 -0.81808336837E+01  0.15523831269E+02  0.51100000000E-03 0. -1.
        -11    1    3    3    0    0  0.45094358708E+01 -0.13084406110E+02 -0.13061490949E+02  0.19029956416E+02  0.51100000000E-03 0.  1.
        -12    1    3    3    0    0 -0.75119631177E+01 -0.59151770267E+01 -0.91491072069E+01  0.13233482982E+02  0.00000000000E+00 0.  1.
</event>
<event>
 7    1  0.2430096E-009  0.4778728E+02  0.7816164E-02  0.1312668E+00
        -11   -1    0    0    0    0  0.00000000000E+00  0.00000000000E+00  0.45593999997E+02  0.45594000000E+02  0.51100000000E-03 0.  1.
         11   -1    0    0    0    0 -0.00000000000E+00 -0.00000000000E+00 -0.45593999997E+02  0.45594000000E+02  0.51100000000E-03 0. -1.
    9900012    2    1    2    0    0  0.13468279973E+02  0.18939970707E+02 -0.36653864841E+02  0.47787275771E+02  0.20000021551E+02 0.  0.
        -12    1    1    2    0    0 -0.13468279973E+02 -0.18939970707E+02  0.36653864841E+02  0.43400724229E+02  0.00000000000E+00 0.  1.
         11    1    3    3    0    0 -0.14414238976E+00  0.13695848021E+02 -0.18904421703E+02  0.23344682268E+02  0.51100000000E-03 0. -1.
        -11    1    3    3    0    0  0.99291207271E+01  0.74267212375E+01 -0.14427509109E+02  0.19023581317E+02  0.51100000000E-03 0.  1.
         12    1    3    3    0    0  0.36833016358E+01 -0.21825985516E+01 -0.33219340292E+01  0.54190121860E+01  0.00000000000E+00 0. -1.
</event>
<event>
 7    1  0.2430096E-009  0.4778727E+02  0.7816164E-02  0.1312668E+00
        -11   -1    0    0    0    0  0.00000000000E+00  0.00000000000E+00  0.45593999997E+02  0.45594000000E+02  0.51100000000E-03 0. -1.
         11   -1    0    0    0    0 -0.00000000000E+00 -0.00000000000E+00 -0.45593999997E+02  0.45594000000E+02  0.51100000000E-03 0.  1.
    9900012    2    1    2    0    0 -0.90926272106E+01  0.37256038645E+02 -0.20320811495E+02  0.47787266539E+02  0.19999979457E+02 0.  0.
        -12    1    1    2    0    0  0.90926272106E+01 -0.37256038645E+02  0.20320811495E+02  0.43400733461E+02  0.00000000000E+00 0.  1.
         11    1    3    3    0    0 -0.13393650629E+02  0.16584398663E+02 -0.12842343204E+02  0.24886902889E+02  0.51100000000E-03 0. -1.
        -11    1    3    3    0    0  0.29371221722E+01  0.49147402173E+01 -0.10148745111E+01  0.58147509484E+01  0.51100000000E-03 0.  1.
         12    1    3    3    0    0  0.13639012466E+01  0.15756899765E+02 -0.64635937807E+01  0.17085612701E+02  0.00000000000E+00 0. -1.
</event>
<event>
 7    1  0.2430096E-009  0.4778728E+02  0.7816164E-02  0.1312668E+00
        -11   -1    0    0    0    0  0.00000000000E+00  0.00000000000E+00  0.45593999997E+02  0.45594000000E+02  0.51100000000E-03 0. -1.
         11   -1    0    0    0    0 -0.00000000000E+00 -0.00000000000E+00 -0.45593999997E+02  0.45594000000E+02  0.51100000000E-03 0.  1.
    9900012    2    1    2    0    0  0.73057984600E+01 -0.18742989124E+02  0.38457099898E+02  0.47787275755E+02  0.20000021478E+02 0.  0.
        -12    1    1    2    0    0 -0.73057984600E+01  0.18742989124E+02 -0.38457099898E+02  0.43400724245E+02  0.00000000000E+00 0.  1.
         11    1    3    3    0    0  0.61733475625E+01  0.20487412478E+01  0.65757382460E+01  0.92492104836E+01  0.51100000000E-03 0. -1.
        -11    1    3    3    0    0 -0.19559396482E+01 -0.71570338437E+01  0.13956168585E+02  0.15805805110E+02  0.51100000000E-03 0.  1.
         12    1    3    3    0    0  0.30883905456E+01 -0.13634696528E+02  0.17925193067E+02  0.22732260162E+02  0.00000000000E+00 0. -1.
</event>
<event>
 7    1  0.2430096E-009  0.4778729E+02  0.7816164E-02  0.1312668E+00
        -11   -1    0    0    0    0  0.00000000000E+00  0.00000000000E+00  0.45593999997E+02  0.45594000000E+02  0.51100000000E-03 0. -1.
         11   -1    0    0    0    0 -0.00000000000E+00 -0.00000000000E+00 -0.45593999997E+02  0.45594000000E+02  0.51100000000E-03 0.  1.
    9900012    2    1    2    0    0  0.12623228846E+02 -0.20610191761E+02  0.36048523554E+02  0.47787286166E+02  0.20000068944E+02 0.  0.
        -12    1    1    2    0    0 -0.12623228846E+02  0.20610191761E+02 -0.36048523554E+02  0.43400713834E+02  0.00000000000E+00 0.  1.
         11    1    3    3    0    0  0.13361842207E+02 -0.21082810079E+02  0.28611751951E+02  0.37969146132E+02  0.51100000000E-03 0. -1.
        -11    1    3    3    0    0 -0.26113578125E+01 -0.10214870175E+00  0.56651368685E+00  0.26740534775E+01  0.51100000000E-03 0.  1.
        -12    1    3    3    0    0  0.18727444509E+01  0.57476701924E+00  0.68702579155E+01  0.71440865567E+01  0.00000000000E+00 0.  1.
</event>
<event>
 7    1  0.2430096E-009  0.4778727E+02  0.7816164E-02  0.1312668E+00
        -11   -1    0    0    0    0  0.00000000000E+00  0.00000000000E+00  0.45593999997E+02  0.45594000000E+02  0.51100000000E-03 0.  1.
         11   -1    0    0    0    0 -0.00000000000E+00 -0.00000000000E+00 -0.45593999997E+02  0.45594000000E+02  0.51100000000E-03 0. -1.
    9900012    2    1    2    0    0 -0.87216704542E+01  0.42017366427E+02 -0.64881999055E+01  0.47787270110E+02  0.19999995741E+02 0.  0.
        -12    1    1    2    0    0  0.87216704542E+01 -0.42017366427E+02  0.64881999055E+01  0.43400729890E+02  0.00000000000E+00 0.  1.
         11    1    3    3    0    0  0.30364564095E+00  0.22415855511E+02 -0.14373109919E+00  0.22418372775E+02  0.51100000000E-03 0. -1.
        -11    1    3    3    0    0 -0.11496418134E+02  0.12727588619E+02 -0.55222574132E+01  0.18018170528E+02  0.51100000000E-03 0.  1.
        -12    1    3    3    0    0  0.24711020390E+01  0.68739222966E+01 -0.82221139308E+00  0.73507268078E+01  0.00000000000E+00 0.  1.
</event>
<event>
 7    1  0.2430096E-009  0.4778727E+02  0.7816164E-02  0.1312668E+00
        -11   -1    0    0    0    0  0.00000000000E+00  0.00000000000E+00  0.45593999997E+02  0.45594000000E+02  0.51100000000E-03 0.  1.
         11   -1    0    0    0    0 -0.00000000000E+00 -0.00000000000E+00 -0.45593999997E+02  0.45594000000E+02  0.51100000000E-03 0. -1.
    9900012    2    1    2    0    0  0.14421572722E+02 -0.47803222566E+01 -0.40654518844E+02  0.47787272551E+02  0.20000006868E+02 0.  0.
        -12    1    1    2    0    0 -0.14421572722E+02  0.47803222566E+01  0.40654518844E+02  0.43400727449E+02  0.00000000000E+00 0.  1.
         11    1    3    3    0    0  0.20190602977E+01 -0.40330237424E+01 -0.29587808091E+02  0.29929588585E+02  0.51100000000E-03 0. -1.
        -11    1    3    3    0    0  0.45161219377E+01 -0.31241502477E+01 -0.27088862512E+01  0.61232129728E+01  0.51100000000E-03 0.  1.
         12    1    3    3    0    0  0.78863904866E+01  0.23768517336E+01 -0.83578245025E+01  0.11734470993E+02  0.00000000000E+00 0. -1.
</event>
<event>
 7    1  0.2430096E-009  0.4778727E+02  0.7816164E-02  0.1312668E+00
        -11   -1    0    0    0    0  0.00000000000E+00  0.00000000000E+00  0.45593999997E+02  0.45594000000E+02  0.51100000000E-03 0.  1.
         11   -1    0    0    0    0 -0.00000000000E+00 -0.00000000000E+00 -0.45593999997E+02  0.45594000000E+02  0.51100000000E-03 0. -1.
    9900012    2    1    2    0    0  0.31955450761E+00  0.40766070318E+02 -0.14887884926E+02  0.47787265884E+02  0.19999976470E+02 0.  0.
        -12    1    1    2    0    0 -0.31955450761E+00 -0.40766070318E+02  0.14887884926E+02  0.43400734116E+02  0.00000000000E+00 0.  1.
         11    1    3    3    0    0 -0.53366958792E+00  0.36269515071E+01  0.11784775900E+01  0.38507648793E+01  0.51100000000E-03 0. -1.
        -11    1    3    3    0    0  0.69780992901E+01  0.24534522929E+02 -0.47997881891E+01  0.25955243246E+02  0.51100000000E-03 0.  1.
        -12    1    3    3    0    0 -0.61248751945E+01  0.12604595882E+02 -0.11266574327E+02  0.17981257758E+02  0.00000000000E+00 0.  1.
</event>
<event>
 7    1 -0.6053327E-009  0.4778727E+02  0.7816164E-02  0.1312668E+00
        -11   -1    0    0    0    0  0.00000000000E+00  0.00000000000E+00  0.45593999997E+02  0.45594000000E+02  0.51100000000E-03 0. -1.
         11   -1    0    0    0    0 -0.00000000000E+00 -0.00000000000E+00 -0.45593999997E+02  0.45594000000E+02  0.51100000000E-03 0.  1.
    9900012    2    1    2    0    0 -0.32675255397E+02 -0.28564092022E+02  0.20880114668E+00  0.47787271133E+02  0.20000000402E+02 0.  0.
        -12    1    1    2    0    0  0.32675255397E+02  0.28564092022E+02 -0.20880114668E+00  0.43400728867E+02  0.00000000000E+00 0.  1.
         11    1    3    3    0    0 -0.26454944471E+02 -0.24506368504E+02  0.10900775238E+01  0.36077894249E+02  0.51100000000E-03 0. -1.
        -11    1    3    3    0    0 -0.48614168140E+01 -0.49385636620E+01 -0.41386742001E+01  0.80716422665E+01  0.51100000000E-03 0.  1.
         12    1    3    3    0    0 -0.13588941120E+01  0.88084014362E+00  0.32573978230E+01  0.36377346169E+01  0.00000000000E+00 0. -1.
</event>
<event>
 7    1  0.2430096E-009  0.4778727E+02  0.7816164E-02  0.1312668E+00
        -11   -1    0    0    0    0  0.00000000000E+00  0.00000000000E+00  0.45593999997E+02  0.45594000000E+02  0.51100000000E-03 0.  1.
         11   -1    0    0    0    0 -0.00000000000E+00 -0.00000000000E+00 -0.45593999997E+02  0.45594000000E+02  0.51100000000E-03 0. -1.
    9900012    2    1    2    0    0  0.41589073418E+02  0.64393091202E+01 -0.10606963032E+02  0.47787269655E+02  0.19999993665E+02 0.  0.
        -12    1    1    2    0    0 -0.41589073418E+02 -0.64393091202E+01  0.10606963032E+02  0.43400730345E+02  0.00000000000E+00 0.  1.
         11    1    3    3    0    0  0.35587395456E+02  0.62785339851E+01 -0.15591948372E+02  0.39357230068E+02  0.51100000000E-03 0. -1.
        -11    1    3    3    0    0  0.31712182895E+01  0.68919630734E+00  0.44399836048E+01  0.54995519510E+01  0.51100000000E-03 0.  1.
         12    1    3    3    0    0  0.28304596722E+01 -0.52842117215E+00  0.54500173508E+00  0.29304876356E+01  0.00000000000E+00 0. -1.
</event>
<event>
 7    1  0.2806078E-009  0.4778728E+02  0.7816164E-02  0.1312668E+00
        -11   -1    0    0    0    0  0.00000000000E+00  0.00000000000E+00  0.45593999997E+02  0.45594000000E+02  0.51100000000E-03 0. -1.
         11   -1    0    0    0    0 -0.00000000000E+00 -0.00000000000E+00 -0.45593999997E+02  0.45594000000E+02  0.51100000000E-03 0.  1.
    9900012    2    1    2    0    0 -0.16657588122E+02 -0.22648335297E+02  0.33063574684E+02  0.47787282211E+02  0.20000050911E+02 0.  0.
        -12    1    1    2    0    0  0.16657588122E+02  0.22648335297E+02 -0.33063574684E+02  0.43400717789E+02  0.00000000000E+00 0.  1.
         11    1    3    3    0    0 -0.78993381490E+01 -0.89606820934E+01  0.10124795534E+02  0.15659018221E+02  0.51100000000E-03 0. -1.
        -11    1    3    3    0    0 -0.91181248466E+01 -0.60642656412E+01  0.21821518664E+02  0.24415040355E+02  0.51100000000E-03 0.  1.
        -12    1    3    3    0    0  0.35987487397E+00 -0.76233875620E+01  0.11172604864E+01  0.77132236348E+01  0.00000000000E+00 0.  1.
</event>
<event>
 7    1  0.2430096E-009  0.4778727E+02  0.7816164E-02  0.1312668E+00
        -11   -1    0    0    0    0  0.00000000000E+00  0.00000000000E+00  0.45593999997E+02  0.45594000000E+02  0.51100000000E-03 0.  1.
         11   -1    0    0    0    0 -0.00000000000E+00 -0.00000000000E+00 -0.45593999997E+02  0.45594000000E+02  0.51100000000E-03 0. -1.
    9900012    2    1    2    0    0  0.72445250254E+01  0.32223351858E+02 -0.28156625520E+02  0.47787272950E+02  0.20000008689E+02 0.  0.
        -12    1    1    2    0    0 -0.72445250254E+01 -0.32223351858E+02  0.28156625520E+02  0.43400727050E+02  0.00000000000E+00 0.  1.
         11    1    3    3    0    0 -0.89143778774E+00  0.13012864518E+02 -0.20636071145E+02  0.24412634779E+02  0.51100000000E-03 0. -1.
        -11    1    3    3    0    0  0.75348186407E-01  0.64739320068E+01  0.12063120487E+00  0.64754941994E+01  0.51100000000E-03 0.  1.
         12    1    3    3    0    0  0.80606146268E+01  0.12736555333E+02 -0.76411855796E+01  0.16899143972E+02  0.00000000000E+00 0. -1.
</event>
<event>
 7    1  0.2430096E-009  0.4778727E+02  0.7816164E-02  0.1312668E+00
        -11   -1    0    0    0    0  0.00000000000E+00  0.00000000000E+00  0.45593999997E+02  0.45594000000E+02  0.51100000000E-03 0.  1.
         11   -1    0    0    0    0 -0.00000000000E+00 -0.00000000000E+00 -0.45593999997E+02  0.45594000000E+02  0.51100000000E-03 0. -1.
    9900012    2    1    2    0    0  0.30939541251E+02  0.66864938152E+01 -0.29692737499E+02  0.47787273364E+02  0.20000010576E+02 0.  0.
        -12    1    1    2    0    0 -0.30939541251E+02 -0.66864938152E+01  0.29692737499E+02  0.43400726636E+02  0.00000000000E+00 0.  1.
         11    1    3    3    0    0  0.92880062395E+01 -0.58330263986E+01 -0.14786958655E+02  0.18410469940E+02  0.51100000000E-03 0. -1.
        -11    1    3    3    0    0  0.14552469796E+02  0.63625377638E+01 -0.86170652071E+01  0.18069589841E+02  0.51100000000E-03 0.  1.
         12    1    3    3    0    0  0.70990652156E+01  0.61569824500E+01 -0.62887136364E+01  0.11307213584E+02  0.00000000000E+00 0. -1.
</event>
<event>
 7    1  0.2430096E-009  0.4778727E+02  0.7816164E-02  0.1312668E+00
        -11   -1    0    0    0    0  0.00000000000E+00  0.00000000000E+00  0.45593999997E+02  0.45594000000E+02  0.51100000000E-03 0.  1.
         11   -1    0    0    0    0 -0.00000000000E+00 -0.00000000000E+00 -0.45593999997E+02  0.45594000000E+02  0.51100000000E-03 0. -1.
    9900012    2    1    2    0    0  0.21036069112E+02  0.37297852725E+02  0.70694897520E+01  0.47787266055E+02  0.19999977253E+02 0.  0.
        -12    1    1    2    0    0 -0.21036069112E+02 -0.37297852725E+02 -0.70694897520E+01  0.43400733945E+02  0.00000000000E+00 0.  1.
         11    1    3    3    0    0  0.11690140507E+02  0.11418377303E+02  0.23872878803E+01  0.16514777292E+02  0.51100000000E-03 0. -1.
        -11    1    3    3    0    0 -0.23640647362E+01  0.11475000398E+02 -0.12535236285E+01  0.11782858650E+02  0.51100000000E-03 0.  1.
        -12    1    3    3    0    0  0.11709993341E+02  0.14404475024E+02  0.59357255002E+01  0.19489630114E+02  0.00000000000E+00 0.  1.
</event>
<event>
 7    1  0.2430096E-009  0.4778727E+02  0.7816164E-02  0.1312668E+00
        -11   -1    0    0    0    0  0.00000000000E+00  0.00000000000E+00  0.45593999997E+02  0.45594000000E+02  0.51100000000E-03 0.  1.
         11   -1    0    0    0    0 -0.00000000000E+00 -0.00000000000E+00 -0.45593999997E+02  0.45594000000E+02  0.51100000000E-03 0. -1.
    9900012    2    1    2    0    0  0.19910431086E+02 -0.36377933678E+02 -0.12800148702E+02  0.47787272684E+02  0.20000007477E+02 0.  0.
        -12    1    1    2    0    0 -0.19910431086E+02  0.36377933678E+02  0.12800148702E+02  0.43400727316E+02  0.00000000000E+00 0.  1.
         11    1    3    3    0    0  0.16166346300E+02 -0.22841862789E+02 -0.10835305905E+02  0.30008420529E+02  0.51100000000E-03 0. -1.
        -11    1    3    3    0    0 -0.30656311782E+01 -0.29333529869E+01 -0.29057768486E+01  0.51425862775E+01  0.51100000000E-03 0.  1.
        -12    1    3    3    0    0  0.68097159645E+01 -0.10602717902E+02  0.94093405159E+00  0.12636265877E+02  0.00000000000E+00 0.  1.
</event>
<event>
 7    1  0.2430096E-009  0.4778727E+02  0.7816164E-02  0.1312668E+00
        -11   -1    0    0    0    0  0.00000000000E+00  0.00000000000E+00  0.45593999997E+02  0.45594000000E+02  0.51100000000E-03 0.  1.
         11   -1    0    0    0    0 -0.00000000000E+00 -0.00000000000E+00 -0.45593999997E+02  0.45594000000E+02  0.51100000000E-03 0. -1.
    9900012    2    1    2    0    0  0.99524574807E+01 -0.11755630247E+02 -0.40575569411E+02  0.47787273215E+02  0.20000009897E+02 0.  0.
        -12    1    1    2    0    0 -0.99524574807E+01  0.11755630247E+02  0.40575569411E+02  0.43400726785E+02  0.00000000000E+00 0.  1.
         11    1    3    3    0    0  0.97740962853E+01 -0.46457076051E+00 -0.21485759625E+02  0.23609037488E+02  0.51100000000E-03 0. -1.
        -11    1    3    3    0    0 -0.26696039723E+01 -0.10698585437E+02 -0.17924479967E+02  0.21044559821E+02  0.51100000000E-03 0.  1.
        -12    1    3    3    0    0  0.28479651676E+01 -0.59247404941E+00 -0.11653298196E+01  0.31336759060E+01  0.00000000000E+00 0.  1.
</event>
<event>
 7    1  0.2430096E-009  0.4778728E+02  0.7816164E-02  0.1312668E+00
        -11   -1    0    0    0    0  0.00000000000E+00  0.00000000000E+00  0.45593999997E+02  0.45594000000E+02  0.51100000000E-03 0.  1.
         11   -1    0    0    0    0 -0.00000000000E+00 -0.00000000000E+00 -0.45593999997E+02  0.45594000000E+02  0.51100000000E-03 0. -1.
    9900012    2    1    2    0    0  0.10555126893E+02  0.27550666156E+02 -0.31830373112E+02  0.47787279248E+02  0.20000037404E+02 0.  0.
        -12    1    1    2    0    0 -0.10555126893E+02 -0.27550666156E+02  0.31830373112E+02  0.43400720752E+02  0.00000000000E+00 0.  1.
         11    1    3    3    0    0  0.10629551358E+02  0.23585020822E+02 -0.25436699367E+02  0.36280383738E+02  0.51100000000E-03 0. -1.
        -11    1    3    3    0    0 -0.36122055304E+01 -0.34580372886E+00 -0.10370879229E+01  0.37740112127E+01  0.51100000000E-03 0.  1.
         12    1    3    3    0    0  0.35377810660E+01  0.43114490627E+01 -0.53565858215E+01  0.77328842973E+01  0.00000000000E+00 0. -1.
</event>
<event>
 7    1  0.2430096E-009  0.4778727E+02  0.7816164E-02  0.1312668E+00
        -11   -1    0    0    0    0  0.00000000000E+00  0.00000000000E+00  0.45593999997E+02  0.45594000000E+02  0.51100000000E-03 0.  1.
         11   -1    0    0    0    0 -0.00000000000E+00 -0.00000000000E+00 -0.45593999997E+02  0.45594000000E+02  0.51100000000E-03 0. -1.
    9900012    2    1    2    0    0 -0.22066782171E+02 -0.10752855263E+02 -0.35791847477E+02  0.47787272846E+02  0.20000008212E+02 0.  0.
        -12    1    1    2    0    0  0.22066782171E+02  0.10752855263E+02  0.35791847477E+02  0.43400727154E+02  0.00000000000E+00 0.  1.
         11    1    3    3    0    0  0.10614300472E+01  0.27499472883E+01 -0.17970743416E+01  0.34522920334E+01  0.51100000000E-03 0. -1.
        -11    1    3    3    0    0  0.49228056716E+00 -0.19300512884E+01 -0.37989331101E+01  0.42894441562E+01  0.51100000000E-03 0.  1.
         12    1    3    3    0    0 -0.23620492785E+02 -0.11572751263E+02 -0.30195840026E+02  0.40045536656E+02  0.00000000000E+00 0. -1.
</event>
<event>
 7    1  0.2430096E-009  0.4778727E+02  0.7816164E-02  0.1312668E+00
        -11   -1    0    0    0    0  0.00000000000E+00  0.00000000000E+00  0.45593999997E+02  0.45594000000E+02  0.51100000000E-03 0. -1.
         11   -1    0    0    0    0 -0.00000000000E+00 -0.00000000000E+00 -0.45593999997E+02  0.45594000000E+02  0.51100000000E-03 0.  1.
    9900012    2    1    2    0    0 -0.35297539783E+02 -0.21265590252E+02  0.13619163684E+02  0.47787271170E+02  0.20000000571E+02 0.  0.
        -12    1    1    2    0    0  0.35297539783E+02  0.21265590252E+02 -0.13619163684E+02  0.43400728830E+02  0.00000000000E+00 0.  1.
         11    1    3    3    0    0 -0.22250389462E+02 -0.11380256957E+02  0.13466089828E+02  0.28388829760E+02  0.51100000000E-03 0. -1.
        -11    1    3    3    0    0 -0.47024223854E+01 -0.22399378880E+01 -0.47641543354E+01  0.70588430231E+01  0.51100000000E-03 0.  1.
         12    1    3    3    0    0 -0.83447279362E+01 -0.76453954071E+01  0.49172281916E+01  0.12339598387E+02  0.00000000000E+00 0. -1.
</event>
<event>
 7    1  0.2430096E-009  0.4778727E+02  0.7816164E-02  0.1312668E+00
        -11   -1    0    0    0    0  0.00000000000E+00  0.00000000000E+00  0.45593999997E+02  0.45594000000E+02  0.51100000000E-03 0. -1.
         11   -1    0    0    0    0 -0.00000000000E+00 -0.00000000000E+00 -0.45593999997E+02  0.45594000000E+02  0.51100000000E-03 0.  1.
    9900012    2    1    2    0    0  0.43208270294E+02 -0.35451247013E+01  0.20249796010E+01  0.47787273355E+02  0.20000010534E+02 0.  0.
        -12    1    1    2    0    0 -0.43208270294E+02  0.35451247013E+01 -0.20249796010E+01  0.43400726645E+02  0.00000000000E+00 0.  1.
         11    1    3    3    0    0  0.19521595133E+02 -0.10024923898E+01 -0.42602358648E+01  0.20006180981E+02  0.51100000000E-03 0. -1.
        -11    1    3    3    0    0  0.23003786847E+02 -0.32755353908E+01  0.89764747289E+01  0.24909444799E+02  0.51100000000E-03 0.  1.
        -12    1    3    3    0    0  0.68288831376E+00  0.73290307927E+00 -0.26912592630E+01  0.28716475747E+01  0.00000000000E+00 0.  1.
</event>
<event>
 7    1  0.2430096E-009  0.4778727E+02  0.7816164E-02  0.1312668E+00
        -11   -1    0    0    0    0  0.00000000000E+00  0.00000000000E+00  0.45593999997E+02  0.45594000000E+02  0.51100000000E-03 0.  1.
         11   -1    0    0    0    0 -0.00000000000E+00 -0.00000000000E+00 -0.45593999997E+02  0.45594000000E+02  0.51100000000E-03 0. -1.
    9900012    2    1    2    0    0  0.41177151123E+02  0.75656495100E+01 -0.11437928164E+02  0.47787273880E+02  0.20000012926E+02 0.  0.
        -12    1    1    2    0    0 -0.41177151123E+02 -0.75656495100E+01  0.11437928164E+02  0.43400726120E+02  0.00000000000E+00 0.  1.
         11    1    3    3    0    0  0.60944906224E+01 -0.26853940641E+01 -0.17850611737E+01  0.68949692444E+01  0.51100000000E-03 0. -1.
        -11    1    3    3    0    0  0.25371407578E+02  0.13700784134E+02 -0.10165451577E+02  0.30573783122E+02  0.51100000000E-03 0.  1.
        -12    1    3    3    0    0  0.97112529222E+01 -0.34497405600E+01  0.51258458711E+00  0.10318521513E+02  0.00000000000E+00 0.  1.
</event>
<event>
 7    1  0.2430096E-009  0.4778726E+02  0.7816164E-02  0.1312668E+00
        -11   -1    0    0    0    0  0.00000000000E+00  0.00000000000E+00  0.45593999997E+02  0.45594000000E+02  0.51100000000E-03 0.  1.
         11   -1    0    0    0    0 -0.00000000000E+00 -0.00000000000E+00 -0.45593999997E+02  0.45594000000E+02  0.51100000000E-03 0. -1.
    9900012    2    1    2    0    0 -0.87488561292E+01  0.37294550787E+02  0.20400926549E+02  0.47787264914E+02  0.19999972048E+02 0.  0.
        -12    1    1    2    0    0  0.87488561292E+01 -0.37294550787E+02 -0.20400926549E+02  0.43400735086E+02  0.00000000000E+00 0.  1.
         11    1    3    3    0    0 -0.10274189738E+02  0.11967083605E+02  0.11765763969E+02  0.19677481211E+02  0.51100000000E-03 0. -1.
        -11    1    3    3    0    0  0.13532504230E+01  0.16835350540E+02  0.98148870885E+01  0.19534388226E+02  0.51100000000E-03 0.  1.
         12    1    3    3    0    0  0.17208318609E+00  0.84921166415E+01 -0.11797245081E+01  0.85753954772E+01  0.00000000000E+00 0. -1.
</event>
<event>
 7    1  0.2430096E-009  0.4778727E+02  0.7816164E-02  0.1312668E+00
        -11   -1    0    0    0    0  0.00000000000E+00  0.00000000000E+00  0.45593999997E+02  0.45594000000E+02  0.51100000000E-03 0. -1.
         11   -1    0    0    0    0 -0.00000000000E+00 -0.00000000000E+00 -0.45593999997E+02  0.45594000000E+02  0.51100000000E-03 0.  1.
    9900012    2    1    2    0    0  0.30149831567E+02  0.29243382347E+02  0.10928656723E+02  0.47787270831E+02  0.19999999028E+02 0.  0.
        -12    1    1    2    0    0 -0.30149831567E+02 -0.29243382347E+02 -0.10928656723E+02  0.43400729169E+02  0.00000000000E+00 0.  1.
         11    1    3    3    0    0  0.45906782037E+01 -0.12866807264E+01  0.37255409224E+01  0.60505808884E+01  0.51100000000E-03 0. -1.
        -11    1    3    3    0    0  0.17301625095E+02  0.24810818536E+02  0.17287456306E+01  0.30297054461E+02  0.51100000000E-03 0.  1.
        -12    1    3    3    0    0  0.82575282682E+01  0.57192445381E+01  0.54743701704E+01  0.11439635481E+02  0.00000000000E+00 0.  1.
</event>
<event>
 7    1  0.2430096E-009  0.4778728E+02  0.7816164E-02  0.1312668E+00
        -11   -1    0    0    0    0  0.00000000000E+00  0.00000000000E+00  0.45593999997E+02  0.45594000000E+02  0.51100000000E-03 0.  1.
         11   -1    0    0    0    0 -0.00000000000E+00 -0.00000000000E+00 -0.45593999997E+02  0.45594000000E+02  0.51100000000E-03 0. -1.
    9900012    2    1    2    0    0 -0.35520870274E+02  0.13129320826E+02 -0.21201682406E+02  0.47787278494E+02  0.20000033966E+02 0.  0.
        -12    1    1    2    0    0  0.35520870274E+02 -0.13129320826E+02  0.21201682406E+02  0.43400721506E+02  0.00000000000E+00 0.  1.
         11    1    3    3    0    0 -0.75708649993E+01  0.17537045944E+01 -0.12534190290E+02  0.14747860968E+02  0.51100000000E-03 0. -1.
        -11    1    3    3    0    0 -0.21079264731E+01 -0.18566110795E+01 -0.30057502237E+00  0.28250140392E+01  0.51100000000E-03 0.  1.
         12    1    3    3    0    0 -0.25842078802E+02  0.13232227311E+02 -0.83669170936E+01  0.30214403487E+02  0.00000000000E+00 0. -1.
</event>
<event>
 7    1  0.2430096E-009  0.4778727E+02  0.7816164E-02  0.1312668E+00
        -11   -1    0    0    0    0  0.00000000000E+00  0.00000000000E+00  0.45593999997E+02  0.45594000000E+02  0.51100000000E-03 0.  1.
         11   -1    0    0    0    0 -0.00000000000E+00 -0.00000000000E+00 -0.45593999997E+02  0.45594000000E+02  0.51100000000E-03 0. -1.
    9900012    2    1    2    0    0 -0.44845076504E+01  0.41548330292E+02 -0.11715308642E+02  0.47787274021E+02  0.20000013573E+02 0.  0.
        -12    1    1    2    0    0  0.44845076504E+01 -0.41548330292E+02  0.11715308642E+02  0.43400725979E+02  0.00000000000E+00 0.  1.
         11    1    3    3    0    0 -0.15643718325E+01  0.18096470576E+02  0.34037591147E+01  0.18480126702E+02  0.51100000000E-03 0. -1.
        -11    1    3    3    0    0  0.91307669816E+00  0.15514228034E+02 -0.12950225097E+02  0.20229515834E+02  0.51100000000E-03 0.  1.
         12    1    3    3    0    0 -0.38332125160E+01  0.79376316810E+01 -0.21688426594E+01  0.90776314850E+01  0.00000000000E+00 0. -1.
</event>
<event>
 7    1  0.2430096E-009  0.4778727E+02  0.7816164E-02  0.1312668E+00
        -11   -1    0    0    0    0  0.00000000000E+00  0.00000000000E+00  0.45593999997E+02  0.45594000000E+02  0.51100000000E-03 0.  1.
         11   -1    0    0    0    0 -0.00000000000E+00 -0.00000000000E+00 -0.45593999997E+02  0.45594000000E+02  0.51100000000E-03 0. -1.
    9900012    2    1    2    0    0  0.10733538000E+02 -0.83251971580E+01 -0.41220204831E+02  0.47787273831E+02  0.20000012705E+02 0.  0.
        -12    1    1    2    0    0 -0.10733538000E+02  0.83251971580E+01  0.41220204831E+02  0.43400726169E+02  0.00000000000E+00 0.  1.
         11    1    3    3    0    0  0.73923509571E+01 -0.24754239015E+00 -0.31385126552E+02  0.32244911208E+02  0.51100000000E-03 0.  1.
        -11    1    3    3    0    0  0.10226620900E+01 -0.90738197531E+01 -0.91516520284E+01  0.12927984289E+02  0.51100000000E-03 0. -1.
        -12    1    3    3    0    0  0.23185249525E+01  0.99616498520E+00 -0.68342625064E+00  0.26143783340E+01  0.00000000000E+00 0.  1.
</event>
<event>
 7    1  0.2430096E-009  0.4778727E+02  0.7816164E-02  0.1312668E+00
        -11   -1    0    0    0    0  0.00000000000E+00  0.00000000000E+00  0.45593999997E+02  0.45594000000E+02  0.51100000000E-03 0. -1.
         11   -1    0    0    0    0 -0.00000000000E+00 -0.00000000000E+00 -0.45593999997E+02  0.45594000000E+02  0.51100000000E-03 0.  1.
    9900012    2    1    2    0    0 -0.12519379937E+02 -0.22238133660E+02  0.35104893687E+02  0.47787273929E+02  0.20000013154E+02 0.  0.
        -12    1    1    2    0    0  0.12519379937E+02  0.22238133660E+02 -0.35104893687E+02  0.43400726071E+02  0.00000000000E+00 0.  1.
         11    1    3    3    0    0 -0.44799284744E+01  0.11724655081E+01  0.10689606694E+01  0.47525899968E+01  0.51100000000E-03 0. -1.
        -11    1    3    3    0    0 -0.27528955714E+01 -0.67290556906E+01  0.40664617648E+01  0.83303502963E+01  0.51100000000E-03 0.  1.
         12    1    3    3    0    0 -0.52865558914E+01 -0.16681543478E+02  0.29969471252E+02  0.34704333636E+02  0.00000000000E+00 0. -1.
</event>
<event>
 7    1  0.2430096E-009  0.4778727E+02  0.7816164E-02  0.1312668E+00
        -11   -1    0    0    0    0  0.00000000000E+00  0.00000000000E+00  0.45593999997E+02  0.45594000000E+02  0.51100000000E-03 0.  1.
         11   -1    0    0    0    0 -0.00000000000E+00 -0.00000000000E+00 -0.45593999997E+02  0.45594000000E+02  0.51100000000E-03 0. -1.
    9900012    2    1    2    0    0  0.17662348062E+02  0.26666009856E+02 -0.29335789433E+02  0.47787272330E+02  0.20000005859E+02 0.  0.
        -12    1    1    2    0    0 -0.17662348062E+02 -0.26666009856E+02  0.29335789433E+02  0.43400727670E+02  0.00000000000E+00 0.  1.
         11    1    3    3    0    0  0.35098069692E+01  0.15917799149E+02 -0.63787614561E+01  0.17503818803E+02  0.51100000000E-03 0. -1.
        -11    1    3    3    0    0  0.88161824245E+01  0.36033484509E+01 -0.17224074276E+02  0.19681918797E+02  0.51100000000E-03 0.  1.
        -12    1    3    3    0    0  0.53363586684E+01  0.71448622557E+01 -0.57329537004E+01  0.10601534730E+02  0.00000000000E+00 0.  1.
</event>
<event>
 7    1  0.2430096E-009  0.4778727E+02  0.7816164E-02  0.1312668E+00
        -11   -1    0    0    0    0  0.00000000000E+00  0.00000000000E+00  0.45593999997E+02  0.45594000000E+02  0.51100000000E-03 0.  1.
         11   -1    0    0    0    0 -0.00000000000E+00 -0.00000000000E+00 -0.45593999997E+02  0.45594000000E+02  0.51100000000E-03 0. -1.
    9900012    2    1    2    0    0 -0.33788423213E+02  0.61331887846E+01 -0.26539585713E+02  0.47787272383E+02  0.20000006101E+02 0.  0.
        -12    1    1    2    0    0  0.33788423213E+02 -0.61331887846E+01  0.26539585713E+02  0.43400727617E+02  0.00000000000E+00 0.  1.
         11    1    3    3    0    0 -0.14953667902E+02 -0.15059054717E+00 -0.20303593760E+02  0.25216478364E+02  0.51100000000E-03 0. -1.
        -11    1    3    3    0    0 -0.15534015431E+02  0.23426287150E+01 -0.18593608738E+01  0.15819316288E+02  0.51100000000E-03 0.  1.
         12    1    3    3    0    0 -0.33007398797E+01  0.39411506169E+01 -0.43766310800E+01  0.67514777307E+01  0.00000000000E+00 0. -1.
</event>
<event>
 7    1  0.2430096E-009  0.4778732E+02  0.7816164E-02  0.1312668E+00
        -11   -1    0    0    0    0  0.00000000000E+00  0.00000000000E+00  0.45593999997E+02  0.45594000000E+02  0.51100000000E-03 0.  1.
         11   -1    0    0    0    0 -0.00000000000E+00 -0.00000000000E+00 -0.45593999997E+02  0.45594000000E+02  0.51100000000E-03 0. -1.
    9900012    2    1    2    0    0 -0.24029172022E+02 -0.16093067893E+02 -0.32360949247E+02  0.47787320530E+02  0.20000225624E+02 0.  0.
        -12    1    1    2    0    0  0.24029172022E+02  0.16093067893E+02  0.32360949247E+02  0.43400679470E+02  0.00000000000E+00 0.  1.
         11    1    3    3    0    0 -0.14805410702E+02 -0.32645234879E+01 -0.87597370346E+01  0.17509719953E+02  0.51100000000E-03 0. -1.
        -11    1    3    3    0    0 -0.29231797085E+01  0.97263863629E+00 -0.13907497396E+01  0.33801169542E+01  0.51100000000E-03 0.  1.
         12    1    3    3    0    0 -0.63005816114E+01 -0.13801183041E+02 -0.22210462473E+02  0.26897483623E+02  0.00000000000E+00 0. -1.
</event>
<event>
 7    1  0.2430096E-009  0.4778727E+02  0.7816164E-02  0.1312668E+00
        -11   -1    0    0    0    0  0.00000000000E+00  0.00000000000E+00  0.45593999997E+02  0.45594000000E+02  0.51100000000E-03 0.  1.
         11   -1    0    0    0    0 -0.00000000000E+00 -0.00000000000E+00 -0.45593999997E+02  0.45594000000E+02  0.51100000000E-03 0. -1.
    9900012    2    1    2    0    0  0.87712327160E+01 -0.35168507655E+02 -0.23871845776E+02  0.47787268730E+02  0.19999989447E+02 0.  0.
        -12    1    1    2    0    0 -0.87712327160E+01  0.35168507655E+02  0.23871845776E+02  0.43400731270E+02  0.00000000000E+00 0.  1.
         11    1    3    3    0    0  0.12575486188E+02 -0.24610948096E+02 -0.19021800986E+02  0.33551013875E+02  0.51100000000E-03 0. -1.
        -11    1    3    3    0    0 -0.20763145216E+01 -0.34176223512E+00 -0.30724746573E+01  0.37239742479E+01  0.51100000000E-03 0.  1.
        -12    1    3    3    0    0 -0.17279389500E+01 -0.10215797324E+02 -0.17775701323E+01  0.10512280606E+02  0.00000000000E+00 0.  1.
</event>
<event>
 7    1  0.2430096E-009  0.4778727E+02  0.7816164E-02  0.1312668E+00
        -11   -1    0    0    0    0  0.00000000000E+00  0.00000000000E+00  0.45593999997E+02  0.45594000000E+02  0.51100000000E-03 0.  1.
         11   -1    0    0    0    0 -0.00000000000E+00 -0.00000000000E+00 -0.45593999997E+02  0.45594000000E+02  0.51100000000E-03 0. -1.
    9900012    2    1    2    0    0 -0.27087501410E+02  0.36646651938E+01 -0.33711435927E+02  0.47787269409E+02  0.19999992541E+02 0.  0.
        -12    1    1    2    0    0  0.27087501410E+02 -0.36646651938E+01  0.33711435927E+02  0.43400730591E+02  0.00000000000E+00 0.  1.
         11    1    3    3    0    0 -0.10741239452E+02  0.10360622500E+02 -0.16139609610E+02  0.21981895327E+02  0.51100000000E-03 0. -1.
        -11    1    3    3    0    0 -0.29153286313E+00  0.56628668414E+00  0.30315017183E+00  0.70538805399E+00  0.51100000000E-03 0.  1.
         12    1    3    3    0    0 -0.16054729095E+02 -0.72622439906E+01 -0.17874976489E+02  0.25099986027E+02  0.00000000000E+00 0. -1.
</event>
<event>
 7    1  0.2430096E-009  0.4778727E+02  0.7816164E-02  0.1312668E+00
        -11   -1    0    0    0    0  0.00000000000E+00  0.00000000000E+00  0.45593999997E+02  0.45594000000E+02  0.51100000000E-03 0.  1.
         11   -1    0    0    0    0 -0.00000000000E+00 -0.00000000000E+00 -0.45593999997E+02  0.45594000000E+02  0.51100000000E-03 0. -1.
    9900012    2    1    2    0    0 -0.26340528687E+02  0.24610766823E+02 -0.24168373092E+02  0.47787267828E+02  0.19999985334E+02 0.  0.
        -12    1    1    2    0    0  0.26340528687E+02 -0.24610766823E+02  0.24168373092E+02  0.43400732172E+02  0.00000000000E+00 0.  1.
         11    1    3    3    0    0 -0.26433175532E+01  0.32758372289E+01 -0.98107281439E+01  0.10675608845E+02  0.51100000000E-03 0. -1.
        -11    1    3    3    0    0 -0.19590972845E+02  0.13646733395E+02 -0.51339029689E+01  0.24421230709E+02  0.51100000000E-03 0.  1.
        -12    1    3    3    0    0 -0.41062382894E+01  0.76881961991E+01 -0.92237419794E+01  0.12690428274E+02  0.00000000000E+00 0.  1.
</event>
<event>
 7    1  0.2430096E-009  0.4778727E+02  0.7816164E-02  0.1312668E+00
        -11   -1    0    0    0    0  0.00000000000E+00  0.00000000000E+00  0.45593999997E+02  0.45594000000E+02  0.51100000000E-03 0.  1.
         11   -1    0    0    0    0 -0.00000000000E+00 -0.00000000000E+00 -0.45593999997E+02  0.45594000000E+02  0.51100000000E-03 0. -1.
    9900012    2    1    2    0    0  0.24183366446E+02 -0.18827792339E+02 -0.30729506341E+02  0.47787268013E+02  0.19999986179E+02 0.  0.
        -12    1    1    2    0    0 -0.24183366446E+02  0.18827792339E+02  0.30729506341E+02  0.43400731987E+02  0.00000000000E+00 0.  1.
         11    1    3    3    0    0  0.45818449380E+01 -0.21513377864E+01 -0.30010907563E+01  0.58845648348E+01  0.51100000000E-03 0. -1.
        -11    1    3    3    0    0  0.19630658464E+02 -0.18383378993E+02 -0.18803295827E+02  0.32815778357E+02  0.51100000000E-03 0.  1.
        -12    1    3    3    0    0 -0.29136956300E-01  0.17069244410E+01 -0.89251197585E+01  0.90869248215E+01  0.00000000000E+00 0.  1.
</event>
<event>
 7    1  0.2430096E-009  0.4778732E+02  0.7816164E-02  0.1312668E+00
        -11   -1    0    0    0    0  0.00000000000E+00  0.00000000000E+00  0.45593999997E+02  0.45594000000E+02  0.51100000000E-03 0. -1.
         11   -1    0    0    0    0 -0.00000000000E+00 -0.00000000000E+00 -0.45593999997E+02  0.45594000000E+02  0.51100000000E-03 0.  1.
    9900012    2    1    2    0    0  0.34356001444E+02 -0.13350550192E+01  0.26485877369E+02  0.47787321352E+02  0.20000229370E+02 0.  0.
        -12    1    1    2    0    0 -0.34356001444E+02  0.13350550192E+01 -0.26485877369E+02  0.43400678648E+02  0.00000000000E+00 0.  1.
         11    1    3    3    0    0  0.19527045016E+02 -0.13510376743E+01  0.25083941747E+02  0.31817211124E+02  0.51100000000E-03 0. -1.
        -11    1    3    3    0    0  0.11220965314E+02  0.22311752669E+01  0.22304938868E+01  0.11656041733E+02  0.51100000000E-03 0.  1.
         12    1    3    3    0    0  0.36079911138E+01 -0.22151926118E+01 -0.82855826429E+00  0.43140684952E+01  0.00000000000E+00 0. -1.
</event>
<event>
 7    1  0.2430096E-009  0.4778727E+02  0.7816164E-02  0.1312668E+00
        -11   -1    0    0    0    0  0.00000000000E+00  0.00000000000E+00  0.45593999997E+02  0.45594000000E+02  0.51100000000E-03 0. -1.
         11   -1    0    0    0    0 -0.00000000000E+00 -0.00000000000E+00 -0.45593999997E+02  0.45594000000E+02  0.51100000000E-03 0.  1.
    9900012    2    1    2    0    0 -0.31037755703E+02  0.21433307984E+02  0.21468444771E+02  0.47787273151E+02  0.20000009603E+02 0.  0.
        -12    1    1    2    0    0  0.31037755703E+02 -0.21433307984E+02 -0.21468444771E+02  0.43400726849E+02  0.00000000000E+00 0.  1.
         11    1    3    3    0    0 -0.75933764683E+01  0.13907775387E+02  0.94761454988E+01  0.18463014818E+02  0.51100000000E-03 0.  1.
        -11    1    3    3    0    0 -0.20630274024E+02  0.81451683185E+01  0.13606978088E+02  0.26021180338E+02  0.51100000000E-03 0. -1.
        -12    1    3    3    0    0 -0.28141052098E+01 -0.61963572171E+00 -0.16146788152E+01  0.33030779942E+01  0.00000000000E+00 0.  1.
</event>
<event>
 7    1  0.2430096E-009  0.4778727E+02  0.7816164E-02  0.1312668E+00
        -11   -1    0    0    0    0  0.00000000000E+00  0.00000000000E+00  0.45593999997E+02  0.45594000000E+02  0.51100000000E-03 0. -1.
         11   -1    0    0    0    0 -0.00000000000E+00 -0.00000000000E+00 -0.45593999997E+02  0.45594000000E+02  0.51100000000E-03 0.  1.
    9900012    2    1    2    0    0 -0.39182082305E+02  0.73515410338E+01  0.17156413426E+02  0.47787271308E+02  0.20000001202E+02 0.  0.
        -12    1    1    2    0    0  0.39182082305E+02 -0.73515410338E+01 -0.17156413426E+02  0.43400728692E+02  0.00000000000E+00 0.  1.
         11    1    3    3    0    0 -0.25824999330E+02  0.10945275804E+00  0.14464009011E+02  0.29599833230E+02  0.51100000000E-03 0. -1.
        -11    1    3    3    0    0  0.74301699198E+00  0.32056226798E+01  0.90255734133E+00  0.34121402420E+01  0.51100000000E-03 0.  1.
        -12    1    3    3    0    0 -0.14100099967E+02  0.40364655960E+01  0.17898470731E+01  0.14775297836E+02  0.00000000000E+00 0.  1.
</event>
<event>
 7    1  0.2430096E-009  0.4778727E+02  0.7816164E-02  0.1312668E+00
        -11   -1    0    0    0    0  0.00000000000E+00  0.00000000000E+00  0.45593999997E+02  0.45594000000E+02  0.51100000000E-03 0. -1.
         11   -1    0    0    0    0 -0.00000000000E+00 -0.00000000000E+00 -0.45593999997E+02  0.45594000000E+02  0.51100000000E-03 0.  1.
    9900012    2    1    2    0    0 -0.39765125153E+02  0.69941621610E+01  0.15919793648E+02  0.47787270599E+02  0.19999997968E+02 0.  0.
        -12    1    1    2    0    0  0.39765125153E+02 -0.69941621610E+01 -0.15919793648E+02  0.43400729401E+02  0.00000000000E+00 0.  1.
         11    1    3    3    0    0 -0.14724882836E+02 -0.19638799583E+01  0.12506867696E+02  0.19419081824E+02  0.51100000000E-03 0. -1.
        -11    1    3    3    0    0 -0.25086187068E+02  0.68028639796E+01  0.29098549602E+01  0.26154597992E+02  0.51100000000E-03 0.  1.
        -12    1    3    3    0    0  0.45944751769E-01  0.21551781398E+01  0.50307099141E+00  0.22135907835E+01  0.00000000000E+00 0.  1.
</event>
<event>
 7    1  0.2430096E-009  0.4778727E+02  0.7816164E-02  0.1312668E+00
        -11   -1    0    0    0    0  0.00000000000E+00  0.00000000000E+00  0.45593999997E+02  0.45594000000E+02  0.51100000000E-03 0.  1.
         11   -1    0    0    0    0 -0.00000000000E+00 -0.00000000000E+00 -0.45593999997E+02  0.45594000000E+02  0.51100000000E-03 0. -1.
    9900012    2    1    2    0    0  0.40830055951E+02  0.13026082785E+02  0.68447562999E+01  0.47787274309E+02  0.20000014883E+02 0.  0.
        -12    1    1    2    0    0 -0.40830055951E+02 -0.13026082785E+02 -0.68447562999E+01  0.43400725691E+02  0.00000000000E+00 0.  1.
         11    1    3    3    0    0  0.22558010876E+02  0.13390431058E+02  0.36479183266E+01  0.26485369677E+02  0.51100000000E-03 0. -1.
        -11    1    3    3    0    0  0.33733430691E+01  0.42269750487E+01  0.11006640267E+00  0.54091474743E+01  0.51100000000E-03 0.  1.
         12    1    3    3    0    0  0.14898702007E+02 -0.45913233209E+01  0.30867715707E+01  0.15892757157E+02  0.00000000000E+00 0. -1.
</event>
<event>
 7    1  0.2430096E-009  0.4778726E+02  0.7816164E-02  0.1312668E+00
        -11   -1    0    0    0    0  0.00000000000E+00  0.00000000000E+00  0.45593999997E+02  0.45594000000E+02  0.51100000000E-03 0. -1.
         11   -1    0    0    0    0 -0.00000000000E+00 -0.00000000000E+00 -0.45593999997E+02  0.45594000000E+02  0.51100000000E-03 0.  1.
    9900012    2    1    2    0    0 -0.38857020653E+02 -0.14926195643E+02 -0.12286763104E+02  0.47787263624E+02  0.19999966166E+02 0.  0.
        -12    1    1    2    0    0  0.38857020653E+02  0.14926195643E+02  0.12286763104E+02  0.43400736376E+02  0.00000000000E+00 0.  1.
         11    1    3    3    0    0 -0.22377129940E+02 -0.37240639668E+01 -0.73939067733E+01  0.23859473054E+02  0.51100000000E-03 0. -1.
        -11    1    3    3    0    0 -0.52456235677E+00 -0.67535848594E+01 -0.23493413484E+01  0.71697614431E+01  0.51100000000E-03 0.  1.
        -12    1    3    3    0    0 -0.15955328356E+02 -0.44485468170E+01 -0.25435149822E+01  0.16758029127E+02  0.00000000000E+00 0.  1.
</event>
<event>
 7    1  0.2430096E-009  0.4778728E+02  0.7816164E-02  0.1312668E+00
        -11   -1    0    0    0    0  0.00000000000E+00  0.00000000000E+00  0.45593999997E+02  0.45594000000E+02  0.51100000000E-03 0.  1.
         11   -1    0    0    0    0 -0.00000000000E+00 -0.00000000000E+00 -0.45593999997E+02  0.45594000000E+02  0.51100000000E-03 0. -1.
    9900012    2    1    2    0    0  0.44735112064E+01  0.25405677338E+01 -0.43094729354E+02  0.47787280133E+02  0.20000041437E+02 0.  0.
        -12    1    1    2    0    0 -0.44735112064E+01 -0.25405677338E+01  0.43094729354E+02  0.43400719867E+02  0.00000000000E+00 0.  1.
         11    1    3    3    0    0  0.26183927634E+01  0.29242614348E+01 -0.24642077721E+00  0.39329389854E+01  0.51100000000E-03 0. -1.
        -11    1    3    3    0    0 -0.14792409843E+01 -0.20968786149E+00 -0.84084499306E+00  0.17143930274E+01  0.51100000000E-03 0.  1.
         12    1    3    3    0    0  0.33343594273E+01 -0.17400583946E+00 -0.42007463584E+02  0.42139948120E+02  0.00000000000E+00 0. -1.
</event>
<event>
 7    1  0.2430096E-009  0.4778727E+02  0.7816164E-02  0.1312668E+00
        -11   -1    0    0    0    0  0.00000000000E+00  0.00000000000E+00  0.45593999997E+02  0.45594000000E+02  0.51100000000E-03 0. -1.
         11   -1    0    0    0    0 -0.00000000000E+00 -0.00000000000E+00 -0.45593999997E+02  0.45594000000E+02  0.51100000000E-03 0.  1.
    9900012    2    1    2    0    0 -0.34794406314E+02 -0.15126254715E+02 -0.21075321709E+02  0.47787268697E+02  0.19999989298E+02 0.  0.
        -12    1    1    2    0    0  0.34794406314E+02  0.15126254715E+02  0.21075321709E+02  0.43400731303E+02  0.00000000000E+00 0.  1.
         11    1    3    3    0    0 -0.31385995030E+02 -0.70195390174E+01 -0.12895719432E+02  0.34650457313E+02  0.51100000000E-03 0. -1.
        -11    1    3    3    0    0 -0.22811795413E+00 -0.47114910349E+00  0.78227613201E+00  0.94126270857E+00  0.51100000000E-03 0.  1.
         12    1    3    3    0    0 -0.31802933298E+01 -0.76355665939E+01 -0.89618784093E+01  0.12195548675E+02  0.00000000000E+00 0. -1.
</event>
<event>
 7    1  0.2430096E-009  0.4778727E+02  0.7816164E-02  0.1312668E+00
        -11   -1    0    0    0    0  0.00000000000E+00  0.00000000000E+00  0.45593999997E+02  0.45594000000E+02  0.51100000000E-03 0.  1.
         11   -1    0    0    0    0 -0.00000000000E+00 -0.00000000000E+00 -0.45593999997E+02  0.45594000000E+02  0.51100000000E-03 0. -1.
    9900012    2    1    2    0    0 -0.93045793337E+01  0.22543684933E+02 -0.35900284967E+02  0.47787269734E+02  0.19999994023E+02 0.  0.
        -12    1    1    2    0    0  0.93045793337E+01 -0.22543684933E+02  0.35900284967E+02  0.43400730266E+02  0.00000000000E+00 0.  1.
         11    1    3    3    0    0  0.29393308415E+01  0.10035174758E+02 -0.18317486293E+02  0.21092053067E+02  0.51100000000E-03 0. -1.
        -11    1    3    3    0    0 -0.51217866496E+01  0.35101668244E+01 -0.65425787637E+00  0.62435585405E+01  0.51100000000E-03 0.  1.
        -12    1    3    3    0    0 -0.71221235256E+01  0.89983433507E+01 -0.16928540797E+02  0.20451658126E+02  0.00000000000E+00 0.  1.
</event>
<event>
 7    1  0.2430096E-009  0.4778728E+02  0.7816164E-02  0.1312668E+00
        -11   -1    0    0    0    0  0.00000000000E+00  0.00000000000E+00  0.45593999997E+02  0.45594000000E+02  0.51100000000E-03 0.  1.
         11   -1    0    0    0    0 -0.00000000000E+00 -0.00000000000E+00 -0.45593999997E+02  0.45594000000E+02  0.51100000000E-03 0. -1.
    9900012    2    1    2    0    0  0.50626067414E+01  0.31748436784E+02 -0.29155263511E+02  0.47787278628E+02  0.20000034575E+02 0.  0.
        -12    1    1    2    0    0 -0.50626067414E+01 -0.31748436784E+02  0.29155263511E+02  0.43400721372E+02  0.00000000000E+00 0.  1.
         11    1    3    3    0    0  0.93317603977E+01  0.83425330355E+01 -0.14853342134E+02  0.19424247280E+02  0.51100000000E-03 0. -1.
        -11    1    3    3    0    0 -0.11482494222E+01  0.19278073496E+02 -0.11536093778E+02  0.22495422964E+02  0.51100000000E-03 0.  1.
         12    1    3    3    0    0 -0.31209042340E+01  0.41278302527E+01 -0.27658275994E+01  0.58676083836E+01  0.00000000000E+00 0. -1.
</event>
<event>
 7    1  0.2430096E-009  0.4778727E+02  0.7816164E-02  0.1312668E+00
        -11   -1    0    0    0    0  0.00000000000E+00  0.00000000000E+00  0.45593999997E+02  0.45594000000E+02  0.51100000000E-03 0. -1.
         11   -1    0    0    0    0 -0.00000000000E+00 -0.00000000000E+00 -0.45593999997E+02  0.45594000000E+02  0.51100000000E-03 0.  1.
    9900012    2    1    2    0    0  0.40524351421E+02 -0.10838107093E+02  0.11132646736E+02  0.47787269053E+02  0.19999990918E+02 0.  0.
        -12    1    1    2    0    0 -0.40524351421E+02  0.10838107093E+02 -0.11132646736E+02  0.43400730947E+02  0.00000000000E+00 0.  1.
         11    1    3    3    0    0  0.18653602007E+02 -0.24374700965E+01  0.98514101400E+01  0.21235545915E+02  0.51100000000E-03 0. -1.
        -11    1    3    3    0    0 -0.12372273211E+01 -0.81259804890E-01 -0.13715704925E+01  0.18489295490E+01  0.51100000000E-03 0.  1.
         12    1    3    3    0    0  0.23107976734E+02 -0.83193771917E+01  0.26528070887E+01  0.24702793588E+02  0.00000000000E+00 0. -1.
</event>
<event>
 7    1  0.2430096E-009  0.4778725E+02  0.7816164E-02  0.1312668E+00
        -11   -1    0    0    0    0  0.00000000000E+00  0.00000000000E+00  0.45593999997E+02  0.45594000000E+02  0.51100000000E-03 0.  1.
         11   -1    0    0    0    0 -0.00000000000E+00 -0.00000000000E+00 -0.45593999997E+02  0.45594000000E+02  0.51100000000E-03 0. -1.
    9900012    2    1    2    0    0 -0.13003355010E+02  0.41339342210E+02  0.23656360460E+01  0.47787254732E+02  0.19999925627E+02 0.  0.
        -12    1    1    2    0    0  0.13003355010E+02 -0.41339342210E+02 -0.23656360460E+01  0.43400745268E+02  0.00000000000E+00 0.  1.
         11    1    3    3    0    0 -0.45883001149E+01  0.77616202443E+00  0.91918714427E+00  0.47433986445E+01  0.51100000000E-03 0. -1.
        -11    1    3    3    0    0 -0.22570469744E+01  0.31612878125E+01  0.32946249528E+01  0.50933835040E+01  0.51100000000E-03 0.  1.
         12    1    3    3    0    0 -0.61580079209E+01  0.37401892373E+02 -0.18481760510E+01  0.37950472584E+02  0.00000000000E+00 0. -1.
</event>
<event>
 7    1  0.2430096E-009  0.4778727E+02  0.7816164E-02  0.1312668E+00
        -11   -1    0    0    0    0  0.00000000000E+00  0.00000000000E+00  0.45593999997E+02  0.45594000000E+02  0.51100000000E-03 0.  1.
         11   -1    0    0    0    0 -0.00000000000E+00 -0.00000000000E+00 -0.45593999997E+02  0.45594000000E+02  0.51100000000E-03 0. -1.
    9900012    2    1    2    0    0 -0.12115272846E+02  0.34799619337E+02 -0.22930986134E+02  0.47787268817E+02  0.19999989846E+02 0.  0.
        -12    1    1    2    0    0  0.12115272846E+02 -0.34799619337E+02  0.22930986134E+02  0.43400731183E+02  0.00000000000E+00 0.  1.
         11    1    3    3    0    0 -0.10402997083E+02  0.18363510836E+02 -0.94902099516E+01  0.23140980181E+02  0.51100000000E-03 0. -1.
        -11    1    3    3    0    0  0.70083198280E+00 -0.52964319286E+00 -0.58298479950E+01  0.58956607167E+01  0.51100000000E-03 0.  1.
         12    1    3    3    0    0 -0.24131077459E+01  0.16965751694E+02 -0.76109281873E+01  0.18750627920E+02  0.00000000000E+00 0. -1.
</event>
<event>
 7    1  0.2430096E-009  0.4778727E+02  0.7816164E-02  0.1312668E+00
        -11   -1    0    0    0    0  0.00000000000E+00  0.00000000000E+00  0.45593999997E+02  0.45594000000E+02  0.51100000000E-03 0.  1.
         11   -1    0    0    0    0 -0.00000000000E+00 -0.00000000000E+00 -0.45593999997E+02  0.45594000000E+02  0.51100000000E-03 0. -1.
    9900012    2    1    2    0    0 -0.65134035751E+01 -0.28117847196E+02 -0.32412735525E+02  0.47787272111E+02  0.20000004863E+02 0.  0.
        -12    1    1    2    0    0  0.65134035751E+01  0.28117847196E+02  0.32412735525E+02  0.43400727889E+02  0.00000000000E+00 0.  1.
         11    1    3    3    0    0 -0.43546489041E+01 -0.10731141726E+02 -0.23857724041E+02  0.26520018222E+02  0.51100000000E-03 0. -1.
        -11    1    3    3    0    0 -0.50835129675E+01 -0.91808467874E+01 -0.64045863813E+01  0.12294257961E+02  0.51100000000E-03 0.  1.
         12    1    3    3    0    0  0.29247582965E+01 -0.82058586823E+01 -0.21504251029E+01  0.89729959283E+01  0.00000000000E+00 0. -1.
</event>
<event>
 7    1  0.2430096E-009  0.4778728E+02  0.7816164E-02  0.1312668E+00
        -11   -1    0    0    0    0  0.00000000000E+00  0.00000000000E+00  0.45593999997E+02  0.45594000000E+02  0.51100000000E-03 0.  1.
         11   -1    0    0    0    0 -0.00000000000E+00 -0.00000000000E+00 -0.45593999997E+02  0.45594000000E+02  0.51100000000E-03 0. -1.
    9900012    2    1    2    0    0 -0.88860827565E+01 -0.28972365490E+02 -0.31068663054E+02  0.47787282808E+02  0.20000053634E+02 0.  0.
        -12    1    1    2    0    0  0.88860827565E+01  0.28972365490E+02  0.31068663054E+02  0.43400717192E+02  0.00000000000E+00 0.  1.
         11    1    3    3    0    0 -0.45050924542E+01 -0.10368944406E+02 -0.16059278291E+02  0.19639533742E+02  0.51100000000E-03 0. -1.
        -11    1    3    3    0    0 -0.15336073673E+01 -0.19700235613E+02 -0.96725920414E+01  0.22000233450E+02  0.51100000000E-03 0.  1.
        -12    1    3    3    0    0 -0.28473829350E+01  0.10968145301E+01 -0.53367927218E+01  0.61475156159E+01  0.00000000000E+00 0.  1.
</event>
<event>
 7    1  0.2430096E-009  0.4778727E+02  0.7816164E-02  0.1312668E+00
        -11   -1    0    0    0    0  0.00000000000E+00  0.00000000000E+00  0.45593999997E+02  0.45594000000E+02  0.51100000000E-03 0.  1.
         11   -1    0    0    0    0 -0.00000000000E+00 -0.00000000000E+00 -0.45593999997E+02  0.45594000000E+02  0.51100000000E-03 0. -1.
    9900012    2    1    2    0    0 -0.10301921699E+02  0.22496293945E+02 -0.35656846560E+02  0.47787267996E+02  0.19999986099E+02 0.  0.
        -12    1    1    2    0    0  0.10301921699E+02 -0.22496293945E+02  0.35656846560E+02  0.43400732004E+02  0.00000000000E+00 0.  1.
         11    1    3    3    0    0 -0.86597431685E+01  0.30407199102E+01 -0.13466087297E+02  0.16296399500E+02  0.51100000000E-03 0. -1.
        -11    1    3    3    0    0 -0.34061014761E+01  0.18196000291E+02 -0.14541393994E+02  0.23540350324E+02  0.51100000000E-03 0.  1.
         12    1    3    3    0    0  0.17639229456E+01  0.12595737437E+01 -0.76493652693E+01  0.79505181716E+01  0.00000000000E+00 0. -1.
</event>
<event>
 7    1  0.2430096E-009  0.4778727E+02  0.7816164E-02  0.1312668E+00
        -11   -1    0    0    0    0  0.00000000000E+00  0.00000000000E+00  0.45593999997E+02  0.45594000000E+02  0.51100000000E-03 0. -1.
         11   -1    0    0    0    0 -0.00000000000E+00 -0.00000000000E+00 -0.45593999997E+02  0.45594000000E+02  0.51100000000E-03 0.  1.
    9900012    2    1    2    0    0 -0.61792624628E+01 -0.22086819391E+02  0.36845790667E+02  0.47787272295E+02  0.20000005704E+02 0.  0.
        -12    1    1    2    0    0  0.61792624628E+01  0.22086819391E+02 -0.36845790667E+02  0.43400727705E+02  0.00000000000E+00 0.  1.
         11    1    3    3    0    0 -0.41905171499E+01 -0.29228490959E+00  0.10072556996E+02  0.10913398607E+02  0.51100000000E-03 0.  1.
        -11    1    3    3    0    0  0.50813129179E+01 -0.64197626743E+01  0.64181616154E+01  0.10403167429E+02  0.51100000000E-03 0. -1.
        -12    1    3    3    0    0 -0.70700582308E+01 -0.15374771807E+02  0.20355072056E+02  0.26470706260E+02  0.00000000000E+00 0.  1.
</event>
<event>
 7    1  0.2430096E-009  0.4778726E+02  0.7816164E-02  0.1312668E+00
        -11   -1    0    0    0    0  0.00000000000E+00  0.00000000000E+00  0.45593999997E+02  0.45594000000E+02  0.51100000000E-03 0.  1.
         11   -1    0    0    0    0 -0.00000000000E+00 -0.00000000000E+00 -0.45593999997E+02  0.45594000000E+02  0.51100000000E-03 0. -1.
    9900012    2    1    2    0    0  0.20529640694E+02 -0.38234982987E+02  0.49369298063E+00  0.47787264939E+02  0.19999972164E+02 0.  0.
        -12    1    1    2    0    0 -0.20529640694E+02  0.38234982987E+02 -0.49369298063E+00  0.43400735061E+02  0.00000000000E+00 0.  1.
         11    1    3    3    0    0  0.13851146380E+01 -0.22322807751E+01 -0.96534179268E+00  0.27988399485E+01  0.51100000000E-03 0. -1.
        -11    1    3    3    0    0  0.94451071091E-01 -0.18757199561E+01  0.53894664103E+01  0.57073281672E+01  0.51100000000E-03 0.  1.
        -12    1    3    3    0    0  0.19050074985E+02 -0.34126982256E+02 -0.39304316370E+01  0.39281096824E+02  0.00000000000E+00 0.  1.
</event>
<event>
 7    1  0.2430096E-009  0.4778727E+02  0.7816164E-02  0.1312668E+00
        -11   -1    0    0    0    0  0.00000000000E+00  0.00000000000E+00  0.45593999997E+02  0.45594000000E+02  0.51100000000E-03 0.  1.
         11   -1    0    0    0    0 -0.00000000000E+00 -0.00000000000E+00 -0.45593999997E+02  0.45594000000E+02  0.51100000000E-03 0. -1.
    9900012    2    1    2    0    0 -0.23913483163E+01  0.30299797581E-01 -0.43334790894E+02  0.47787267671E+02  0.19999984620E+02 0.  0.
        -12    1    1    2    0    0  0.23913483163E+01 -0.30299797581E-01  0.43334790894E+02  0.43400732329E+02  0.00000000000E+00 0.  1.
         11    1    3    3    0    0 -0.27597201858E+01  0.12590226658E+01 -0.23917464090E+01  0.38628544787E+01  0.51100000000E-03 0. -1.
        -11    1    3    3    0    0  0.56448834534E+01 -0.35733441576E+01 -0.77464489936E+01  0.10229416892E+02  0.51100000000E-03 0.  1.
        -12    1    3    3    0    0 -0.52765115839E+01  0.23446212894E+01 -0.33196595491E+02  0.33694996301E+02  0.00000000000E+00 0.  1.
</event>
<event>
 7    1  0.2430096E-009  0.4778727E+02  0.7816164E-02  0.1312668E+00
        -11   -1    0    0    0    0  0.00000000000E+00  0.00000000000E+00  0.45593999997E+02  0.45594000000E+02  0.51100000000E-03 0.  1.
         11   -1    0    0    0    0 -0.00000000000E+00 -0.00000000000E+00 -0.45593999997E+02  0.45594000000E+02  0.51100000000E-03 0. -1.
    9900012    2    1    2    0    0 -0.34467630302E+02 -0.22459455636E+02 -0.13826739965E+02  0.47787269313E+02  0.19999992106E+02 0.  0.
        -12    1    1    2    0    0  0.34467630302E+02  0.22459455636E+02  0.13826739965E+02  0.43400730687E+02  0.00000000000E+00 0.  1.
         11    1    3    3    0    0 -0.57879124253E+01 -0.12934676428E+02 -0.64930877339E+01  0.15587365818E+02  0.51100000000E-03 0. -1.
        -11    1    3    3    0    0 -0.13700100366E+02 -0.19974594104E+00 -0.35460351979E+01  0.14152986058E+02  0.51100000000E-03 0.  1.
        -12    1    3    3    0    0 -0.14979617511E+02 -0.93250332664E+01 -0.37876170331E+01  0.18046917437E+02  0.00000000000E+00 0.  1.
</event>
<event>
 7    1  0.2430096E-009  0.4778727E+02  0.7816164E-02  0.1312668E+00
        -11   -1    0    0    0    0  0.00000000000E+00  0.00000000000E+00  0.45593999997E+02  0.45594000000E+02  0.51100000000E-03 0. -1.
         11   -1    0    0    0    0 -0.00000000000E+00 -0.00000000000E+00 -0.45593999997E+02  0.45594000000E+02  0.51100000000E-03 0.  1.
    9900012    2    1    2    0    0  0.38447612280E+02 -0.41749689871E+01  0.19697055553E+02  0.47787271279E+02  0.20000001068E+02 0.  0.
        -12    1    1    2    0    0 -0.38447612280E+02  0.41749689871E+01 -0.19697055553E+02  0.43400728721E+02  0.00000000000E+00 0.  1.
         11    1    3    3    0    0  0.18167572220E+02  0.78908321313E-01  0.14563913292E+02  0.23284640378E+02  0.51100000000E-03 0. -1.
        -11    1    3    3    0    0  0.17084676943E+02 -0.54429305527E+01 -0.47772893297E+00  0.17937109701E+02  0.51100000000E-03 0.  1.
         12    1    3    3    0    0  0.31953631176E+01  0.11890532443E+01  0.56108711932E+01  0.65655211992E+01  0.00000000000E+00 0. -1.
</event>
<event>
 7    1  0.2430096E-009  0.4778727E+02  0.7816164E-02  0.1312668E+00
        -11   -1    0    0    0    0  0.00000000000E+00  0.00000000000E+00  0.45593999997E+02  0.45594000000E+02  0.51100000000E-03 0.  1.
         11   -1    0    0    0    0 -0.00000000000E+00 -0.00000000000E+00 -0.45593999997E+02  0.45594000000E+02  0.51100000000E-03 0. -1.
    9900012    2    1    2    0    0 -0.21466647065E+02 -0.31265479318E+02 -0.21101564311E+02  0.47787272476E+02  0.20000006528E+02 0.  0.
        -12    1    1    2    0    0  0.21466647065E+02  0.31265479318E+02  0.21101564311E+02  0.43400727524E+02  0.00000000000E+00 0.  1.
         11    1    3    3    0    0 -0.19025352895E+01 -0.10985079668E+02  0.91501861581E+00  0.11186101875E+02  0.51100000000E-03 0. -1.
        -11    1    3    3    0    0 -0.12280899441E+02 -0.12702377012E+02 -0.18339893996E+02  0.25466106591E+02  0.51100000000E-03 0.  1.
        -12    1    3    3    0    0 -0.72832123348E+01 -0.75780226382E+01 -0.36766889308E+01  0.11135064010E+02  0.00000000000E+00 0.  1.
</event>
<event>
 7    1  0.2430096E-009  0.4778727E+02  0.7816164E-02  0.1312668E+00
        -11   -1    0    0    0    0  0.00000000000E+00  0.00000000000E+00  0.45593999997E+02  0.45594000000E+02  0.51100000000E-03 0. -1.
         11   -1    0    0    0    0 -0.00000000000E+00 -0.00000000000E+00 -0.45593999997E+02  0.45594000000E+02  0.51100000000E-03 0.  1.
    9900012    2    1    2    0    0  0.37356806966E+02 -0.16653660640E+02  0.14517158814E+02  0.47787270289E+02  0.19999996557E+02 0.  0.
        -12    1    1    2    0    0 -0.37356806966E+02  0.16653660640E+02 -0.14517158814E+02  0.43400729711E+02  0.00000000000E+00 0.  1.
         11    1    3    3    0    0  0.15858120524E+02 -0.14460777455E+02  0.26156799419E+01  0.21620264868E+02  0.51100000000E-03 0. -1.
        -11    1    3    3    0    0  0.17088072486E+02 -0.66069124002E+00  0.12864705578E+02  0.21399518314E+02  0.51100000000E-03 0.  1.
        -12    1    3    3    0    0  0.44106139559E+01 -0.15321919444E+01 -0.96322670637E+00  0.47674871065E+01  0.00000000000E+00 0.  1.
</event>
<event>
 7    1  0.2430096E-009  0.4778727E+02  0.7816164E-02  0.1312668E+00
        -11   -1    0    0    0    0  0.00000000000E+00  0.00000000000E+00  0.45593999997E+02  0.45594000000E+02  0.51100000000E-03 0.  1.
         11   -1    0    0    0    0 -0.00000000000E+00 -0.00000000000E+00 -0.45593999997E+02  0.45594000000E+02  0.51100000000E-03 0. -1.
    9900012    2    1    2    0    0  0.76771683635E+01 -0.57331514987E+01 -0.42329840768E+02  0.47787270056E+02  0.19999995493E+02 0.  0.
        -12    1    1    2    0    0 -0.76771683635E+01  0.57331514987E+01  0.42329840768E+02  0.43400729944E+02  0.00000000000E+00 0.  1.
         11    1    3    3    0    0  0.67237261609E+01 -0.90997646279E+01 -0.38873560381E+02  0.40486638620E+02  0.51100000000E-03 0. -1.
        -11    1    3    3    0    0  0.22325536030E+01 -0.50855312133E+00 -0.77312112056E+00  0.24167412761E+01  0.51100000000E-03 0.  1.
         12    1    3    3    0    0 -0.12791114004E+01  0.38751662505E+01 -0.26831592664E+01  0.48838901597E+01  0.00000000000E+00 0. -1.
</event>
<event>
 7    1  0.2430096E-009  0.4778724E+02  0.7816164E-02  0.1312668E+00
        -11   -1    0    0    0    0  0.00000000000E+00  0.00000000000E+00  0.45593999997E+02  0.45594000000E+02  0.51100000000E-03 0.  1.
         11   -1    0    0    0    0 -0.00000000000E+00 -0.00000000000E+00 -0.45593999997E+02  0.45594000000E+02  0.51100000000E-03 0. -1.
    9900012    2    1    2    0    0 -0.14558653996E+02  0.82354241716E+01 -0.40048088139E+02  0.47787239856E+02  0.19999857800E+02 0.  0.
        -12    1    1    2    0    0  0.14558653996E+02 -0.82354241716E+01  0.40048088139E+02  0.43400760144E+02  0.00000000000E+00 0.  1.
         11    1    3    3    0    0 -0.60629181766E+01 -0.29862159595E+00 -0.22566353683E+01  0.64761528024E+01  0.51100000000E-03 0.  1.
        -11    1    3    3    0    0 -0.33399146626E+01  0.58683665507E+01 -0.33284671526E+02  0.33962657652E+02  0.51100000000E-03 0. -1.
         12    1    3    3    0    0 -0.51558211567E+01  0.26656792169E+01 -0.45067812448E+01  0.73484294020E+01  0.00000000000E+00 0. -1.
</event>
<event>
 7    1  0.2430096E-009  0.4778726E+02  0.7816164E-02  0.1312668E+00
        -11   -1    0    0    0    0  0.00000000000E+00  0.00000000000E+00  0.45593999997E+02  0.45594000000E+02  0.51100000000E-03 0. -1.
         11   -1    0    0    0    0 -0.00000000000E+00 -0.00000000000E+00 -0.45593999997E+02  0.45594000000E+02  0.51100000000E-03 0.  1.
    9900012    2    1    2    0    0 -0.46086293131E+01  0.42646432512E+02  0.66080665050E+01  0.47787260224E+02  0.19999950667E+02 0.  0.
        -12    1    1    2    0    0  0.46086293131E+01 -0.42646432512E+02 -0.66080665050E+01  0.43400739776E+02  0.00000000000E+00 0.  1.
         11    1    3    3    0    0 -0.59091943606E+01  0.39338088285E+02  0.52374717357E+01  0.40122747642E+02  0.51100000000E-03 0. -1.
        -11    1    3    3    0    0 -0.11268619062E+01 -0.87453351483E+00 -0.14761085758E+01  0.20526868765E+01  0.51100000000E-03 0.  1.
         12    1    3    3    0    0  0.24274269537E+01  0.41828777420E+01  0.28467033451E+01  0.56118257060E+01  0.00000000000E+00 0. -1.
</event>
<event>
 7    1  0.2430096E-009  0.4778727E+02  0.7816164E-02  0.1312668E+00
        -11   -1    0    0    0    0  0.00000000000E+00  0.00000000000E+00  0.45593999997E+02  0.45594000000E+02  0.51100000000E-03 0.  1.
         11   -1    0    0    0    0 -0.00000000000E+00 -0.00000000000E+00 -0.45593999997E+02  0.45594000000E+02  0.51100000000E-03 0. -1.
    9900012    2    1    2    0    0 -0.25232166615E+02 -0.30359517395E+02 -0.18034995685E+02  0.47787267311E+02  0.19999982979E+02 0.  0.
        -12    1    1    2    0    0  0.25232166615E+02  0.30359517395E+02  0.18034995685E+02  0.43400732689E+02  0.00000000000E+00 0.  1.
         11    1    3    3    0    0 -0.59341637000E+01 -0.69470470963E+01 -0.13308110123E+02  0.16142538756E+02  0.51100000000E-03 0. -1.
        -11    1    3    3    0    0 -0.77477866938E+01 -0.15352346176E+02 -0.22290876524E+01  0.17340460310E+02  0.51100000000E-03 0.  1.
         12    1    3    3    0    0 -0.11550216221E+02 -0.80601241231E+01 -0.24977979101E+01  0.14304268245E+02  0.00000000000E+00 0. -1.
</event>
<event>
 7    1  0.2430096E-009  0.4778727E+02  0.7816164E-02  0.1312668E+00
        -11   -1    0    0    0    0  0.00000000000E+00  0.00000000000E+00  0.45593999997E+02  0.45594000000E+02  0.51100000000E-03 0.  1.
         11   -1    0    0    0    0 -0.00000000000E+00 -0.00000000000E+00 -0.45593999997E+02  0.45594000000E+02  0.51100000000E-03 0. -1.
    9900012    2    1    2    0    0 -0.38340503961E+02  0.20303212498E+02 -0.11869794176E+01  0.47787267266E+02  0.19999982772E+02 0.  0.
        -12    1    1    2    0    0  0.38340503961E+02 -0.20303212498E+02  0.11869794176E+01  0.43400732734E+02  0.00000000000E+00 0.  1.
         11    1    3    3    0    0 -0.25610574713E+02  0.17661772712E+02  0.75916089816E+01  0.32022996107E+02  0.51100000000E-03 0. -1.
        -11    1    3    3    0    0 -0.82413600335E+01  0.16603811894E+01 -0.47642551554E+01  0.96630744768E+01  0.51100000000E-03 0.  1.
         12    1    3    3    0    0 -0.44885692150E+01  0.98105859617E+00 -0.40143332438E+01  0.61011966826E+01  0.00000000000E+00 0. -1.
</event>
<event>
 7    1  0.2430096E-009  0.4778727E+02  0.7816164E-02  0.1312668E+00
        -11   -1    0    0    0    0  0.00000000000E+00  0.00000000000E+00  0.45593999997E+02  0.45594000000E+02  0.51100000000E-03 0.  1.
         11   -1    0    0    0    0 -0.00000000000E+00 -0.00000000000E+00 -0.45593999997E+02  0.45594000000E+02  0.51100000000E-03 0. -1.
    9900012    2    1    2    0    0 -0.41833960553E+02 -0.34794089133E+01  0.11019827117E+02  0.47787272683E+02  0.20000007471E+02 0.  0.
        -12    1    1    2    0    0  0.41833960553E+02  0.34794089133E+01 -0.11019827117E+02  0.43400727317E+02  0.00000000000E+00 0.  1.
         11    1    3    3    0    0 -0.98798615967E+01 -0.76415213697E+00 -0.44240438328E+00  0.99192396663E+01  0.51100000000E-03 0. -1.
        -11    1    3    3    0    0 -0.71623516054E+01  0.43238371093E+01 -0.22663176552E+01  0.86678165557E+01  0.51100000000E-03 0.  1.
        -12    1    3    3    0    0 -0.24791747351E+02 -0.70390938857E+01  0.13728549156E+02  0.29200216461E+02  0.00000000000E+00 0.  1.
</event>
<event>
 7    1  0.2430096E-009  0.4778727E+02  0.7816164E-02  0.1312668E+00
        -11   -1    0    0    0    0  0.00000000000E+00  0.00000000000E+00  0.45593999997E+02  0.45594000000E+02  0.51100000000E-03 0.  1.
         11   -1    0    0    0    0 -0.00000000000E+00 -0.00000000000E+00 -0.45593999997E+02  0.45594000000E+02  0.51100000000E-03 0. -1.
    9900012    2    1    2    0    0 -0.18955638424E+02 -0.14240518943E+01 -0.39016398979E+02  0.47787267965E+02  0.19999985961E+02 0.  0.
        -12    1    1    2    0    0  0.18955638424E+02  0.14240518943E+01  0.39016398979E+02  0.43400732035E+02  0.00000000000E+00 0.  1.
         11    1    3    3    0    0 -0.11017655295E+02 -0.18318240443E+01 -0.26039020438E+02  0.28333282428E+02  0.51100000000E-03 0. -1.
        -11    1    3    3    0    0 -0.80778138058E+01  0.41413570615E+01 -0.43782143858E+01  0.10078227804E+02  0.51100000000E-03 0.  1.
        -12    1    3    3    0    0  0.13983067665E+00 -0.37335849115E+01 -0.85991641556E+01  0.93757577339E+01  0.00000000000E+00 0.  1.
</event>
<event>
 7    1  0.2430096E-009  0.4778727E+02  0.7816164E-02  0.1312668E+00
        -11   -1    0    0    0    0  0.00000000000E+00  0.00000000000E+00  0.45593999997E+02  0.45594000000E+02  0.51100000000E-03 0.  1.
         11   -1    0    0    0    0 -0.00000000000E+00 -0.00000000000E+00 -0.45593999997E+02  0.45594000000E+02  0.51100000000E-03 0. -1.
    9900012    2    1    2    0    0 -0.14530627800E+02  0.39040766928E+02  0.12177959090E+02  0.47787270580E+02  0.19999997882E+02 0.  0.
        -12    1    1    2    0    0  0.14530627800E+02 -0.39040766928E+02 -0.12177959090E+02  0.43400729420E+02  0.00000000000E+00 0.  1.
         11    1    3    3    0    0 -0.10301080188E+02  0.22598089956E+02  0.14668283881E+01  0.24878454705E+02  0.51100000000E-03 0. -1.
        -11    1    3    3    0    0 -0.89269843740E+00 -0.16325256897E+01  0.78806668486E+00  0.20206682035E+01  0.51100000000E-03 0.  1.
        -12    1    3    3    0    0 -0.33368491742E+01  0.18075202661E+02  0.99230640173E+01  0.20888147672E+02  0.00000000000E+00 0.  1.
</event>
<event>
 7    1  0.2430096E-009  0.4778727E+02  0.7816164E-02  0.1312668E+00
        -11   -1    0    0    0    0  0.00000000000E+00  0.00000000000E+00  0.45593999997E+02  0.45594000000E+02  0.51100000000E-03 0.  1.
         11   -1    0    0    0    0 -0.00000000000E+00 -0.00000000000E+00 -0.45593999997E+02  0.45594000000E+02  0.51100000000E-03 0. -1.
    9900012    2    1    2    0    0  0.50656685344E+01  0.27163897557E+02 -0.33467667173E+02  0.47787273345E+02  0.20000010488E+02 0.  0.
        -12    1    1    2    0    0 -0.50656685344E+01 -0.27163897557E+02  0.33467667173E+02  0.43400726655E+02  0.00000000000E+00 0.  1.
         11    1    3    3    0    0  0.82635457686E+01  0.18406631898E+02 -0.26408886003E+02  0.33234312791E+02  0.51100000000E-03 0. -1.
        -11    1    3    3    0    0 -0.43937954032E+01  0.36871336605E+01 -0.73645596703E+01  0.93347272094E+01  0.51100000000E-03 0.  1.
         12    1    3    3    0    0  0.11959181690E+01  0.50701319986E+01  0.30577850004E+00  0.52182333448E+01  0.00000000000E+00 0. -1.
</event>
<event>
 7    1  0.2430096E-009  0.4778727E+02  0.7816164E-02  0.1312668E+00
        -11   -1    0    0    0    0  0.00000000000E+00  0.00000000000E+00  0.45593999997E+02  0.45594000000E+02  0.51100000000E-03 0.  1.
         11   -1    0    0    0    0 -0.00000000000E+00 -0.00000000000E+00 -0.45593999997E+02  0.45594000000E+02  0.51100000000E-03 0. -1.
    9900012    2    1    2    0    0  0.98545840881E+01 -0.35307820723E+02 -0.23235068303E+02  0.47787269236E+02  0.19999991757E+02 0.  0.
        -12    1    1    2    0    0 -0.98545840881E+01  0.35307820723E+02  0.23235068303E+02  0.43400730764E+02  0.00000000000E+00 0.  1.
         11    1    3    3    0    0  0.98965440520E+01 -0.22223301915E+02 -0.10280412374E+02  0.26410293656E+02  0.51100000000E-03 0. -1.
        -11    1    3    3    0    0  0.11162636632E+01 -0.16291767994E+01 -0.89829060343E+01  0.91974378330E+01  0.51100000000E-03 0.  1.
         12    1    3    3    0    0 -0.11582236271E+01 -0.11455342009E+02 -0.39717498950E+01  0.12179537747E+02  0.00000000000E+00 0. -1.
</event>
<event>
 7    1  0.2430096E-009  0.4778727E+02  0.7816164E-02  0.1312668E+00
        -11   -1    0    0    0    0  0.00000000000E+00  0.00000000000E+00  0.45593999997E+02  0.45594000000E+02  0.51100000000E-03 0.  1.
         11   -1    0    0    0    0 -0.00000000000E+00 -0.00000000000E+00 -0.45593999997E+02  0.45594000000E+02  0.51100000000E-03 0. -1.
    9900012    2    1    2    0    0 -0.34356602192E+02 -0.20935560458E+02 -0.16277271608E+02  0.47787269858E+02  0.19999994589E+02 0.  0.
        -12    1    1    2    0    0  0.34356602192E+02  0.20935560458E+02  0.16277271608E+02  0.43400730142E+02  0.00000000000E+00 0.  1.
         11    1    3    3    0    0 -0.46383672233E+01  0.18093379232E+01  0.13781924507E+01  0.51660012496E+01  0.51100000000E-03 0. -1.
        -11    1    3    3    0    0 -0.67655979235E+01 -0.50200882673E+01 -0.90660395799E+01  0.12376092897E+02  0.51100000000E-03 0.  1.
         12    1    3    3    0    0 -0.22952637046E+02 -0.17724810113E+02 -0.85894244789E+01  0.30245175711E+02  0.00000000000E+00 0. -1.
</event>
<event>
 7    1  0.2430096E-009  0.4778728E+02  0.7816164E-02  0.1312668E+00
        -11   -1    0    0    0    0  0.00000000000E+00  0.00000000000E+00  0.45593999997E+02  0.45594000000E+02  0.51100000000E-03 0.  1.
         11   -1    0    0    0    0 -0.00000000000E+00 -0.00000000000E+00 -0.45593999997E+02  0.45594000000E+02  0.51100000000E-03 0. -1.
    9900012    2    1    2    0    0  0.32894629430E+02 -0.27461161407E+02 -0.68884288138E+01  0.47787280159E+02  0.20000041559E+02 0.  0.
        -12    1    1    2    0    0 -0.32894629430E+02  0.27461161407E+02  0.68884288138E+01  0.43400719841E+02  0.00000000000E+00 0.  1.
         11    1    3    3    0    0 -0.16488074819E+01 -0.28983438302E+01 -0.27773818590E+01  0.43396789423E+01  0.51100000000E-03 0. -1.
        -11    1    3    3    0    0  0.58830478089E+01 -0.58358452403E+01  0.23362660988E+01  0.86096155974E+01  0.51100000000E-03 0.  1.
         12    1    3    3    0    0  0.28660389103E+02 -0.18726972336E+02 -0.64473130536E+01  0.34837985620E+02  0.00000000000E+00 0. -1.
</event>
<event>
 7    1  0.2430096E-009  0.4778727E+02  0.7816164E-02  0.1312668E+00
        -11   -1    0    0    0    0  0.00000000000E+00  0.00000000000E+00  0.45593999997E+02  0.45594000000E+02  0.51100000000E-03 0.  1.
         11   -1    0    0    0    0 -0.00000000000E+00 -0.00000000000E+00 -0.45593999997E+02  0.45594000000E+02  0.51100000000E-03 0. -1.
    9900012    2    1    2    0    0 -0.11275416346E+02  0.18346131262E+02 -0.37681662386E+02  0.47787271593E+02  0.20000002501E+02 0.  0.
        -12    1    1    2    0    0  0.11275416346E+02 -0.18346131262E+02  0.37681662386E+02  0.43400728407E+02  0.00000000000E+00 0.  1.
         11    1    3    3    0    0 -0.60166761792E+01  0.89963323572E+00 -0.16229817744E+02  0.17332533469E+02  0.51100000000E-03 0. -1.
        -11    1    3    3    0    0 -0.34924778489E+01  0.18510156055E+02 -0.16316332818E+02  0.24920794442E+02  0.51100000000E-03 0.  1.
        -12    1    3    3    0    0 -0.17662623182E+01 -0.10636580286E+01 -0.51355118240E+01  0.55339436818E+01  0.00000000000E+00 0.  1.
</event>
<event>
 7    1  0.2430096E-009  0.4778727E+02  0.7816164E-02  0.1312668E+00
        -11   -1    0    0    0    0  0.00000000000E+00  0.00000000000E+00  0.45593999997E+02  0.45594000000E+02  0.51100000000E-03 0. -1.
         11   -1    0    0    0    0 -0.00000000000E+00 -0.00000000000E+00 -0.45593999997E+02  0.45594000000E+02  0.51100000000E-03 0.  1.
    9900012    2    1    2    0    0  0.25959205630E+02 -0.31248572372E+02  0.15273174275E+02  0.47787268616E+02  0.19999988928E+02 0.  0.
        -12    1    1    2    0    0 -0.25959205630E+02  0.31248572372E+02 -0.15273174275E+02  0.43400731384E+02  0.00000000000E+00 0.  1.
         11    1    3    3    0    0  0.88468386053E+01 -0.47295518090E+01  0.19760560878E+01  0.10224480991E+02  0.51100000000E-03 0. -1.
        -11    1    3    3    0    0  0.68375146781E+01 -0.22891161073E+02  0.11517638034E+02  0.26521931460E+02  0.51100000000E-03 0.  1.
        -12    1    3    3    0    0  0.10274852347E+02 -0.36278594900E+01  0.17794801535E+01  0.11040856165E+02  0.00000000000E+00 0.  1.
</event>
<event>
 7    1  0.2430096E-009  0.4778731E+02  0.7816164E-02  0.1312668E+00
        -11   -1    0    0    0    0  0.00000000000E+00  0.00000000000E+00  0.45593999997E+02  0.45594000000E+02  0.51100000000E-03 0.  1.
         11   -1    0    0    0    0 -0.00000000000E+00 -0.00000000000E+00 -0.45593999997E+02  0.45594000000E+02  0.51100000000E-03 0. -1.
    9900012    2    1    2    0    0 -0.17537296075E+02  0.35966391729E+02 -0.16807193118E+02  0.47787310742E+02  0.20000180995E+02 0.  0.
        -12    1    1    2    0    0  0.17537296075E+02 -0.35966391729E+02  0.16807193118E+02  0.43400689258E+02  0.00000000000E+00 0.  1.
         11    1    3    3    0    0 -0.26478275226E+01  0.38709570145E+01 -0.64548038655E+01  0.79787086675E+01  0.51100000000E-03 0. -1.
        -11    1    3    3    0    0 -0.14378451114E+02  0.14076926985E+02 -0.30151219476E+01  0.20346761177E+02  0.51100000000E-03 0.  1.
        -12    1    3    3    0    0 -0.51101743854E+00  0.18018507729E+02 -0.73372673048E+01  0.19461840897E+02  0.00000000000E+00 0.  1.
</event>
