<event>
 7    1  0.2702714E-011  0.5052886E+02  0.7816164E-02  0.1300439E+00
        -11   -1    0    0    0    0  0.00000000000E+00  0.00000000000E+00  0.45593999997E+02  0.45594000000E+02  0.51100000000E-03 0.  1.
         11   -1    0    0    0    0 -0.00000000000E+00 -0.00000000000E+00 -0.45593999997E+02  0.45594000000E+02  0.51100000000E-03 0. -1.
    9900012    2    1    2    0    0  0.25318001570E+02  0.84771578671E+01 -0.30664352153E+02  0.50528857093E+02  0.29999991619E+02 0.  0.
        -12    1    1    2    0    0 -0.25318001570E+02 -0.84771578671E+01  0.30664352153E+02  0.40659142907E+02  0.00000000000E+00 0.  1.
         11    1    3    3    0    0  0.14803968354E+02  0.88295068251E+01 -0.10774503918E+02  0.20327508572E+02  0.51100000000E-03 0. -1.
        -11    1    3    3    0    0  0.88671595301E+01  0.86381308335E+01 -0.64794435249E+01  0.13972365980E+02  0.51100000000E-03 0.  1.
         12    1    3    3    0    0  0.16468736858E+01 -0.89904797915E+01 -0.13410404710E+02  0.16228982541E+02  0.00000000000E+00 0. -1.
</event>
<event>
 7    1  0.2702714E-011  0.5052885E+02  0.7816164E-02  0.1300439E+00
        -11   -1    0    0    0    0  0.00000000000E+00  0.00000000000E+00  0.45593999997E+02  0.45594000000E+02  0.51100000000E-03 0. -1.
         11   -1    0    0    0    0 -0.00000000000E+00 -0.00000000000E+00 -0.45593999997E+02  0.45594000000E+02  0.51100000000E-03 0.  1.
    9900012    2    1    2    0    0  0.14287736687E+02 -0.25950196305E+02  0.27849847065E+02  0.50528854787E+02  0.29999984611E+02 0.  0.
        -12    1    1    2    0    0 -0.14287736687E+02  0.25950196305E+02 -0.27849847065E+02  0.40659145213E+02  0.00000000000E+00 0.  1.
         11    1    3    3    0    0  0.39269009702E+01 -0.90522098328E+01  0.17823479466E+02  0.20372517631E+02  0.51100000000E-03 0. -1.
        -11    1    3    3    0    0 -0.35750671014E+01  0.60898181792E+00  0.65839763215E+01  0.75166952910E+01  0.51100000000E-03 0.  1.
         12    1    3    3    0    0  0.13935902818E+02 -0.17506968290E+02  0.34423912774E+01  0.22639641865E+02  0.00000000000E+00 0. -1.
</event>
<event>
 7    1  0.2702714E-011  0.5052886E+02  0.7816164E-02  0.1300439E+00
        -11   -1    0    0    0    0  0.00000000000E+00  0.00000000000E+00  0.45593999997E+02  0.45594000000E+02  0.51100000000E-03 0.  1.
         11   -1    0    0    0    0 -0.00000000000E+00 -0.00000000000E+00 -0.45593999997E+02  0.45594000000E+02  0.51100000000E-03 0. -1.
    9900012    2    1    2    0    0 -0.38836143363E+02 -0.11914352532E+02 -0.17227954885E+01  0.50528857708E+02  0.29999993490E+02 0.  0.
        -12    1    1    2    0    0  0.38836143363E+02  0.11914352532E+02  0.17227954885E+01  0.40659142292E+02  0.00000000000E+00 0.  1.
         11    1    3    3    0    0 -0.15560378181E+02 -0.33089445080E+01  0.14559870341E+01  0.15974804581E+02  0.51100000000E-03 0. -1.
        -11    1    3    3    0    0 -0.16732829233E+02 -0.40042364363E+00 -0.12202551313E+02  0.20713526306E+02  0.51100000000E-03 0.  1.
        -12    1    3    3    0    0 -0.65429359489E+01 -0.82049843800E+01  0.90237687900E+01  0.13840526821E+02  0.00000000000E+00 0.  1.
</event>
<event>
 7    1  0.2702714E-011  0.5052885E+02  0.7816164E-02  0.1300439E+00
        -11   -1    0    0    0    0  0.00000000000E+00  0.00000000000E+00  0.45593999997E+02  0.45594000000E+02  0.51100000000E-03 0.  1.
         11   -1    0    0    0    0 -0.00000000000E+00 -0.00000000000E+00 -0.45593999997E+02  0.45594000000E+02  0.51100000000E-03 0. -1.
    9900012    2    1    2    0    0  0.44649269469E+01  0.11318043394E+01 -0.40397399983E+02  0.50528849995E+02  0.29999970046E+02 0.  0.
        -12    1    1    2    0    0 -0.44649269469E+01 -0.11318043394E+01  0.40397399983E+02  0.40659150005E+02  0.00000000000E+00 0.  1.
         11    1    3    3    0    0  0.28603398645E+01 -0.33523493556E+01 -0.11522846926E+02  0.12336765860E+02  0.51100000000E-03 0. -1.
        -11    1    3    3    0    0 -0.64255478054E+01  0.77474099142E+01 -0.27666376648E+02  0.29440421567E+02  0.51100000000E-03 0.  1.
         12    1    3    3    0    0  0.80301348878E+01 -0.32632562192E+01 -0.12081764093E+01  0.87516625680E+01  0.00000000000E+00 0. -1.
</event>
<event>
 7    1  0.2702714E-011  0.5052887E+02  0.7816164E-02  0.1300439E+00
        -11   -1    0    0    0    0  0.00000000000E+00  0.00000000000E+00  0.45593999997E+02  0.45594000000E+02  0.51100000000E-03 0.  1.
         11   -1    0    0    0    0 -0.00000000000E+00 -0.00000000000E+00 -0.45593999997E+02  0.45594000000E+02  0.51100000000E-03 0. -1.
    9900012    2    1    2    0    0  0.20171869770E+01  0.80023440666E+01 -0.39812793993E+02  0.50528866717E+02  0.30000020872E+02 0.  0.
        -12    1    1    2    0    0 -0.20171869770E+01 -0.80023440666E+01  0.39812793993E+02  0.40659133283E+02  0.00000000000E+00 0.  1.
         11    1    3    3    0    0  0.42977540543E+01  0.12439135692E+02 -0.17730901637E+02  0.22081387180E+02  0.51100000000E-03 0. -1.
        -11    1    3    3    0    0 -0.58919124691E+01  0.34622647626E+01 -0.17145477883E+02  0.18457229530E+02  0.51100000000E-03 0.  1.
         12    1    3    3    0    0  0.36113453919E+01 -0.78990563876E+01 -0.49364144732E+01  0.99902500072E+01  0.00000000000E+00 0. -1.
</event>
<event>
 7    1  0.2702714E-011  0.5052886E+02  0.7816164E-02  0.1300439E+00
        -11   -1    0    0    0    0  0.00000000000E+00  0.00000000000E+00  0.45593999997E+02  0.45594000000E+02  0.51100000000E-03 0. -1.
         11   -1    0    0    0    0 -0.00000000000E+00 -0.00000000000E+00 -0.45593999997E+02  0.45594000000E+02  0.51100000000E-03 0.  1.
    9900012    2    1    2    0    0  0.15251532878E+02  0.37635646739E+02 -0.20284977922E+01  0.50528856332E+02  0.29999989305E+02 0.  0.
        -12    1    1    2    0    0 -0.15251532878E+02 -0.37635646739E+02  0.20284977922E+01  0.40659143668E+02  0.00000000000E+00 0.  1.
         11    1    3    3    0    0  0.21756622116E+01  0.62549132936E+01  0.86203234899E+00  0.66783640513E+01  0.51100000000E-03 0. -1.
        -11    1    3    3    0    0 -0.86949580550E+01  0.83031836951E+01 -0.46035690849E+00  0.12031503805E+02  0.51100000000E-03 0.  1.
        -12    1    3    3    0    0  0.21770828722E+02  0.23077549750E+02 -0.24301732327E+01  0.31818988476E+02  0.00000000000E+00 0.  1.
</event>
<event>
 7    1  0.2702714E-011  0.5052887E+02  0.7816164E-02  0.1300439E+00
        -11   -1    0    0    0    0  0.00000000000E+00  0.00000000000E+00  0.45593999997E+02  0.45594000000E+02  0.51100000000E-03 0.  1.
         11   -1    0    0    0    0 -0.00000000000E+00 -0.00000000000E+00 -0.45593999997E+02  0.45594000000E+02  0.51100000000E-03 0. -1.
    9900012    2    1    2    0    0 -0.27401404862E+02  0.93398178258E+01 -0.28549880185E+02  0.50528870103E+02  0.30000031164E+02 0.  0.
        -12    1    1    2    0    0  0.27401404862E+02 -0.93398178258E+01  0.28549880185E+02  0.40659129897E+02  0.00000000000E+00 0.  1.
         11    1    3    3    0    0 -0.90195917919E+01 -0.57328326455E+01  0.18713507341E+01  0.10849901385E+02  0.51100000000E-03 0. -1.
        -11    1    3    3    0    0 -0.33583597684E+01  0.59743918169E+01 -0.39484265028E+01  0.79096150365E+01  0.51100000000E-03 0.  1.
        -12    1    3    3    0    0 -0.15023453301E+02  0.90982586544E+01 -0.26472804417E+02  0.31769353681E+02  0.00000000000E+00 0.  1.
</event>
<event>
 7    1  0.2702714E-011  0.5052886E+02  0.7816164E-02  0.1300439E+00
        -11   -1    0    0    0    0  0.00000000000E+00  0.00000000000E+00  0.45593999997E+02  0.45594000000E+02  0.51100000000E-03 0. -1.
         11   -1    0    0    0    0 -0.00000000000E+00 -0.00000000000E+00 -0.45593999997E+02  0.45594000000E+02  0.51100000000E-03 0.  1.
    9900012    2    1    2    0    0  0.35597338350E+02 -0.19502274121E+02 -0.23782950932E+01  0.50528862268E+02  0.30000007351E+02 0.  0.
        -12    1    1    2    0    0 -0.35597338350E+02  0.19502274121E+02  0.23782950932E+01  0.40659137732E+02  0.00000000000E+00 0.  1.
         11    1    3    3    0    0  0.14859830696E+02 -0.13191640552E+02 -0.13255794922E+01  0.19914595402E+02  0.51100000000E-03 0. -1.
        -11    1    3    3    0    0 -0.10078780323E+00 -0.91529142252E+01 -0.26304431165E+01  0.95239292440E+01  0.51100000000E-03 0.  1.
        -12    1    3    3    0    0  0.20838295458E+02  0.28422806566E+01  0.15777275155E+01  0.21090337622E+02  0.00000000000E+00 0.  1.
</event>
<event>
 7    1  0.2702714E-011  0.5052886E+02  0.7816164E-02  0.1300439E+00
        -11   -1    0    0    0    0  0.00000000000E+00  0.00000000000E+00  0.45593999997E+02  0.45594000000E+02  0.51100000000E-03 0.  1.
         11   -1    0    0    0    0 -0.00000000000E+00 -0.00000000000E+00 -0.45593999997E+02  0.45594000000E+02  0.51100000000E-03 0. -1.
    9900012    2    1    2    0    0  0.29206916713E+02  0.78353513064E+00 -0.28275563627E+02  0.50528863147E+02  0.30000010023E+02 0.  0.
        -12    1    1    2    0    0 -0.29206916713E+02 -0.78353513064E+00  0.28275563627E+02  0.40659136853E+02  0.00000000000E+00 0.  1.
         11    1    3    3    0    0  0.93883380688E+01  0.12095912859E+01 -0.11235885508E+02  0.14691804729E+02  0.51100000000E-03 0. -1.
        -11    1    3    3    0    0  0.35219615671E+01  0.10757333700E+02 -0.91529715316E+01  0.14556831033E+02  0.51100000000E-03 0.  1.
        -12    1    3    3    0    0  0.16296617077E+02 -0.11183389855E+02 -0.78867065874E+01  0.21280227386E+02  0.00000000000E+00 0.  1.
</event>
<event>
 7    1  0.2702714E-011  0.5052885E+02  0.7816164E-02  0.1300439E+00
        -11   -1    0    0    0    0  0.00000000000E+00  0.00000000000E+00  0.45593999997E+02  0.45594000000E+02  0.51100000000E-03 0. -1.
         11   -1    0    0    0    0 -0.00000000000E+00 -0.00000000000E+00 -0.45593999997E+02  0.45594000000E+02  0.51100000000E-03 0.  1.
    9900012    2    1    2    0    0 -0.11867039674E+02  0.38485014865E+02 -0.55896097421E+01  0.50528846826E+02  0.29999960412E+02 0.  0.
        -12    1    1    2    0    0  0.11867039674E+02 -0.38485014865E+02  0.55896097421E+01  0.40659153174E+02  0.00000000000E+00 0.  1.
         11    1    3    3    0    0 -0.81943887744E+01  0.20458004954E+02 -0.17288320037E+02  0.28010069333E+02  0.51100000000E-03 0. -1.
        -11    1    3    3    0    0  0.69902714854E+00  0.53470076022E+01  0.12988891133E+01  0.55467325916E+01  0.51100000000E-03 0.  1.
        -12    1    3    3    0    0 -0.43716780486E+01  0.12680002309E+02  0.10399821182E+02  0.16972044901E+02  0.00000000000E+00 0.  1.
</event>
<event>
 7    1  0.2702714E-011  0.5052889E+02  0.7816164E-02  0.1300439E+00
        -11   -1    0    0    0    0  0.00000000000E+00  0.00000000000E+00  0.45593999997E+02  0.45594000000E+02  0.51100000000E-03 0.  1.
         11   -1    0    0    0    0 -0.00000000000E+00 -0.00000000000E+00 -0.45593999997E+02  0.45594000000E+02  0.51100000000E-03 0. -1.
    9900012    2    1    2    0    0 -0.15254292921E+01 -0.22299407114E+02 -0.33964292026E+02  0.50528885094E+02  0.30000076731E+02 0.  0.
        -12    1    1    2    0    0  0.15254292921E+01  0.22299407114E+02  0.33964292026E+02  0.40659114906E+02  0.00000000000E+00 0.  1.
         11    1    3    3    0    0  0.25425597086E+01  0.32959661339E+01 -0.55172356094E+01  0.69114319543E+01  0.51100000000E-03 0. -1.
        -11    1    3    3    0    0  0.65092955237E+00 -0.67529026974E+00 -0.14773956928E+02  0.14803699869E+02  0.51100000000E-03 0.  1.
        -12    1    3    3    0    0 -0.47189185532E+01 -0.24920082978E+02 -0.13673099488E+02  0.28813753270E+02  0.00000000000E+00 0.  1.
</event>
<event>
 7    1  0.2702714E-011  0.5052888E+02  0.7816164E-02  0.1300439E+00
        -11   -1    0    0    0    0  0.00000000000E+00  0.00000000000E+00  0.45593999997E+02  0.45594000000E+02  0.51100000000E-03 0. -1.
         11   -1    0    0    0    0 -0.00000000000E+00 -0.00000000000E+00 -0.45593999997E+02  0.45594000000E+02  0.51100000000E-03 0.  1.
    9900012    2    1    2    0    0  0.39699611213E+02 -0.87565413561E+01  0.65440632972E+00  0.50528875629E+02  0.30000047963E+02 0.  0.
        -12    1    1    2    0    0 -0.39699611213E+02  0.87565413561E+01 -0.65440632972E+00  0.40659124371E+02  0.00000000000E+00 0.  1.
         11    1    3    3    0    0  0.11851441557E+02 -0.11956076904E+02 -0.28445761978E+01  0.17073255574E+02  0.51100000000E-03 0. -1.
        -11    1    3    3    0    0  0.20770734170E+02 -0.17149169145E+01 -0.49143223526E+01  0.21412961085E+02  0.51100000000E-03 0.  1.
         12    1    3    3    0    0  0.70774354857E+01  0.49144524620E+01  0.84133048801E+01  0.12042658970E+02  0.00000000000E+00 0. -1.
</event>
<event>
 7    1  0.2702714E-011  0.5052886E+02  0.7816164E-02  0.1300439E+00
        -11   -1    0    0    0    0  0.00000000000E+00  0.00000000000E+00  0.45593999997E+02  0.45594000000E+02  0.51100000000E-03 0.  1.
         11   -1    0    0    0    0 -0.00000000000E+00 -0.00000000000E+00 -0.45593999997E+02  0.45594000000E+02  0.51100000000E-03 0. -1.
    9900012    2    1    2    0    0 -0.37275114715E+01  0.39952634819E+02 -0.65618639743E+01  0.50528862902E+02  0.30000009276E+02 0.  0.
        -12    1    1    2    0    0  0.37275114715E+01 -0.39952634819E+02  0.65618639743E+01  0.40659137098E+02  0.00000000000E+00 0.  1.
         11    1    3    3    0    0 -0.65687939314E+01  0.17776348762E+02 -0.23136323289E+01  0.19091896810E+02  0.51100000000E-03 0.  1.
        -11    1    3    3    0    0 -0.62693353215E+01  0.25906819975E+01 -0.68974068090E+01  0.96742141560E+01  0.51100000000E-03 0. -1.
         12    1    3    3    0    0  0.91106177814E+01  0.19585604060E+02  0.26491751636E+01  0.21762751935E+02  0.00000000000E+00 0. -1.
</event>
<event>
 7    1  0.2702714E-011  0.5052886E+02  0.7816164E-02  0.1300439E+00
        -11   -1    0    0    0    0  0.00000000000E+00  0.00000000000E+00  0.45593999997E+02  0.45594000000E+02  0.51100000000E-03 0.  1.
         11   -1    0    0    0    0 -0.00000000000E+00 -0.00000000000E+00 -0.45593999997E+02  0.45594000000E+02  0.51100000000E-03 0. -1.
    9900012    2    1    2    0    0  0.22741332526E+02 -0.43758531173E+01 -0.33419294873E+02  0.50528861232E+02  0.30000004201E+02 0.  0.
        -12    1    1    2    0    0 -0.22741332526E+02  0.43758531173E+01  0.33419294873E+02  0.40659138768E+02  0.00000000000E+00 0.  1.
         11    1    3    3    0    0  0.16083086681E+02 -0.94617629379E+01 -0.22582080864E+02  0.29294043959E+02  0.51100000000E-03 0.  1.
        -11    1    3    3    0    0 -0.41755622598E+01  0.38554333969E+00 -0.80866304057E+01  0.91092016902E+01  0.51100000000E-03 0. -1.
        -12    1    3    3    0    0  0.10833808105E+02  0.47003664809E+01 -0.27505836033E+01  0.12125615583E+02  0.00000000000E+00 0.  1.
</event>
<event>
 7    1  0.2702714E-011  0.5052887E+02  0.7816164E-02  0.1300439E+00
        -11   -1    0    0    0    0  0.00000000000E+00  0.00000000000E+00  0.45593999997E+02  0.45594000000E+02  0.51100000000E-03 0. -1.
         11   -1    0    0    0    0 -0.00000000000E+00 -0.00000000000E+00 -0.45593999997E+02  0.45594000000E+02  0.51100000000E-03 0.  1.
    9900012    2    1    2    0    0 -0.35306603589E+02 -0.49851025243E+01  0.19538610387E+02  0.50528870643E+02  0.30000032807E+02 0.  0.
        -12    1    1    2    0    0  0.35306603589E+02  0.49851025243E+01 -0.19538610387E+02  0.40659129357E+02  0.00000000000E+00 0.  1.
         11    1    3    3    0    0 -0.27075184045E+02 -0.12724260010E+01  0.56677923279E+01  0.27691307827E+02  0.51100000000E-03 0. -1.
        -11    1    3    3    0    0 -0.70623640553E+01 -0.96395639381E+01  0.10568566042E+02  0.15952829448E+02  0.51100000000E-03 0.  1.
         12    1    3    3    0    0 -0.11690554889E+01  0.59268874147E+01  0.33022520174E+01  0.68847333681E+01  0.00000000000E+00 0. -1.
</event>
<event>
 7    1  0.2702714E-011  0.5052886E+02  0.7816164E-02  0.1300439E+00
        -11   -1    0    0    0    0  0.00000000000E+00  0.00000000000E+00  0.45593999997E+02  0.45594000000E+02  0.51100000000E-03 0. -1.
         11   -1    0    0    0    0 -0.00000000000E+00 -0.00000000000E+00 -0.45593999997E+02  0.45594000000E+02  0.51100000000E-03 0.  1.
    9900012    2    1    2    0    0  0.28295567146E+02  0.28645254473E+02  0.56547062362E+01  0.50528862939E+02  0.30000009390E+02 0.  0.
        -12    1    1    2    0    0 -0.28295567146E+02 -0.28645254473E+02 -0.56547062362E+01  0.40659137061E+02  0.00000000000E+00 0.  1.
         11    1    3    3    0    0  0.13686900772E+02  0.50693500685E+01 -0.51559892006E+01  0.15479463420E+02  0.51100000000E-03 0. -1.
        -11    1    3    3    0    0  0.57054950013E+01  0.59593161381E+01 -0.50977332429E+01  0.96980929321E+01  0.51100000000E-03 0.  1.
         12    1    3    3    0    0  0.89031713723E+01  0.17616588266E+02  0.15908428680E+02  0.25351306587E+02  0.00000000000E+00 0. -1.
</event>
<event>
 7    1  0.2702714E-011  0.5052887E+02  0.7816164E-02  0.1300439E+00
        -11   -1    0    0    0    0  0.00000000000E+00  0.00000000000E+00  0.45593999997E+02  0.45594000000E+02  0.51100000000E-03 0.  1.
         11   -1    0    0    0    0 -0.00000000000E+00 -0.00000000000E+00 -0.45593999997E+02  0.45594000000E+02  0.51100000000E-03 0. -1.
    9900012    2    1    2    0    0 -0.38059454026E+02  0.80083402600E+01 -0.11853650021E+02  0.50528873432E+02  0.30000041284E+02 0.  0.
        -12    1    1    2    0    0  0.38059454026E+02 -0.80083402600E+01  0.11853650021E+02  0.40659126568E+02  0.00000000000E+00 0.  1.
         11    1    3    3    0    0 -0.29058507291E+02  0.96136612415E+01 -0.15513624292E+02  0.34314601373E+02  0.51100000000E-03 0. -1.
        -11    1    3    3    0    0 -0.74055758982E+01  0.48924285011E+01  0.34426947865E+01  0.95200083338E+01  0.51100000000E-03 0.  1.
        -12    1    3    3    0    0 -0.15953708363E+01 -0.64977494826E+01  0.21727948483E+00  0.66942637249E+01  0.00000000000E+00 0.  1.
</event>
<event>
 7    1  0.2702714E-011  0.5052886E+02  0.7816164E-02  0.1300439E+00
        -11   -1    0    0    0    0  0.00000000000E+00  0.00000000000E+00  0.45593999997E+02  0.45594000000E+02  0.51100000000E-03 0.  1.
         11   -1    0    0    0    0 -0.00000000000E+00 -0.00000000000E+00 -0.45593999997E+02  0.45594000000E+02  0.51100000000E-03 0. -1.
    9900012    2    1    2    0    0  0.92787527025E+00  0.27999512431E+02 -0.29467468980E+02  0.50528863549E+02  0.30000011243E+02 0.  0.
        -12    1    1    2    0    0 -0.92787527025E+00 -0.27999512431E+02  0.29467468980E+02  0.40659136451E+02  0.00000000000E+00 0.  1.
         11    1    3    3    0    0  0.69042439398E+01  0.24828524050E+02 -0.18811783655E+02  0.31906228161E+02  0.51100000000E-03 0. -1.
        -11    1    3    3    0    0  0.24168612222E+01  0.50737478587E+01 -0.10352808777E+01  0.57145377991E+01  0.51100000000E-03 0.  1.
         12    1    3    3    0    0 -0.83932298917E+01 -0.19027594780E+01 -0.96204044471E+01  0.12908097589E+02  0.00000000000E+00 0. -1.
</event>
<event>
 7    1  0.2702714E-011  0.5052886E+02  0.7816164E-02  0.1300439E+00
        -11   -1    0    0    0    0  0.00000000000E+00  0.00000000000E+00  0.45593999997E+02  0.45594000000E+02  0.51100000000E-03 0.  1.
         11   -1    0    0    0    0 -0.00000000000E+00 -0.00000000000E+00 -0.45593999997E+02  0.45594000000E+02  0.51100000000E-03 0. -1.
    9900012    2    1    2    0    0  0.32013254320E+01  0.99292091107E+01 -0.39297933584E+02  0.50528864962E+02  0.30000015537E+02 0.  0.
        -12    1    1    2    0    0 -0.32013254320E+01 -0.99292091107E+01  0.39297933584E+02  0.40659135038E+02  0.00000000000E+00 0.  1.
         11    1    3    3    0    0  0.47773459415E+01  0.98172287798E+01 -0.16068901137E+02  0.19427058428E+02  0.51100000000E-03 0. -1.
        -11    1    3    3    0    0 -0.97586114142E+00 -0.21285027866E+01  0.35335154423E+01  0.42389339134E+01  0.51100000000E-03 0.  1.
         12    1    3    3    0    0 -0.60015936802E+00  0.22404831175E+01 -0.26762547889E+02  0.26862872620E+02  0.00000000000E+00 0. -1.
</event>
<event>
 7    1  0.3180365E-011  0.5052885E+02  0.7816164E-02  0.1300439E+00
        -11   -1    0    0    0    0  0.00000000000E+00  0.00000000000E+00  0.45593999997E+02  0.45594000000E+02  0.51100000000E-03 0. -1.
         11   -1    0    0    0    0 -0.00000000000E+00 -0.00000000000E+00 -0.45593999997E+02  0.45594000000E+02  0.51100000000E-03 0.  1.
    9900012    2    1    2    0    0  0.33246252503E+02  0.17995266383E+02  0.14967409181E+02  0.50528852747E+02  0.29999978411E+02 0.  0.
        -12    1    1    2    0    0 -0.33246252503E+02 -0.17995266383E+02 -0.14967409181E+02  0.40659147253E+02  0.00000000000E+00 0.  1.
         11    1    3    3    0    0  0.16943366370E+01 -0.15568504820E+01  0.68793627454E+01  0.72539776748E+01  0.51100000000E-03 0. -1.
        -11    1    3    3    0    0  0.11587266987E+02  0.13095733434E+02  0.12921978873E+02  0.21742597100E+02  0.51100000000E-03 0.  1.
        -12    1    3    3    0    0  0.19964648879E+02  0.64563834312E+01 -0.48339324368E+01  0.21532277973E+02  0.00000000000E+00 0.  1.
</event>
<event>
 7    1  0.2702714E-011  0.5052886E+02  0.7816164E-02  0.1300439E+00
        -11   -1    0    0    0    0  0.00000000000E+00  0.00000000000E+00  0.45593999997E+02  0.45594000000E+02  0.51100000000E-03 0.  1.
         11   -1    0    0    0    0 -0.00000000000E+00 -0.00000000000E+00 -0.45593999997E+02  0.45594000000E+02  0.51100000000E-03 0. -1.
    9900012    2    1    2    0    0 -0.12572836554E+02  0.23003285372E+02 -0.31079545927E+02  0.50528861643E+02  0.30000005450E+02 0.  0.
        -12    1    1    2    0    0  0.12572836554E+02 -0.23003285372E+02  0.31079545927E+02  0.40659138357E+02  0.00000000000E+00 0.  1.
         11    1    3    3    0    0  0.42324581496E+01  0.16772493768E+02 -0.19656867197E+02  0.26184397596E+02  0.51100000000E-03 0. -1.
        -11    1    3    3    0    0  0.10718941405E+01 -0.16092928066E+01 -0.14956794406E+01  0.24445526454E+01  0.51100000000E-03 0.  1.
        -12    1    3    3    0    0 -0.17877188844E+02  0.78400844101E+01 -0.99269992891E+01  0.21899911402E+02  0.00000000000E+00 0.  1.
</event>
<event>
 7    1  0.2702714E-011  0.5052887E+02  0.7816164E-02  0.1300439E+00
        -11   -1    0    0    0    0  0.00000000000E+00  0.00000000000E+00  0.45593999997E+02  0.45594000000E+02  0.51100000000E-03 0.  1.
         11   -1    0    0    0    0 -0.00000000000E+00 -0.00000000000E+00 -0.45593999997E+02  0.45594000000E+02  0.51100000000E-03 0. -1.
    9900012    2    1    2    0    0  0.22791065631E+02  0.77768713314E+01 -0.32760536546E+02  0.50528866277E+02  0.30000019536E+02 0.  0.
        -12    1    1    2    0    0 -0.22791065631E+02 -0.77768713314E+01  0.32760536546E+02  0.40659133723E+02  0.00000000000E+00 0.  1.
         11    1    3    3    0    0  0.20174547932E+02  0.16366003301E+02 -0.29368751049E+02  0.39209462975E+02  0.51100000000E-03 0. -1.
        -11    1    3    3    0    0 -0.21088237733E+00 -0.12307197174E+01 -0.31990773657E+01  0.34341285143E+01  0.51100000000E-03 0.  1.
         12    1    3    3    0    0  0.28274000765E+01 -0.73584122520E+01 -0.19270813101E+00  0.78852747883E+01  0.00000000000E+00 0. -1.
</event>
<event>
 7    1  0.2702714E-011  0.5052886E+02  0.7816164E-02  0.1300439E+00
        -11   -1    0    0    0    0  0.00000000000E+00  0.00000000000E+00  0.45593999997E+02  0.45594000000E+02  0.51100000000E-03 0.  1.
         11   -1    0    0    0    0 -0.00000000000E+00 -0.00000000000E+00 -0.45593999997E+02  0.45594000000E+02  0.51100000000E-03 0. -1.
    9900012    2    1    2    0    0  0.27768513645E+02 -0.18561093057E+02 -0.23185371897E+02  0.50528855942E+02  0.29999988121E+02 0.  0.
        -12    1    1    2    0    0 -0.27768513645E+02  0.18561093057E+02  0.23185371897E+02  0.40659144058E+02  0.00000000000E+00 0.  1.
         11    1    3    3    0    0  0.12744491272E+02 -0.51454046324E+01 -0.13847359228E+02  0.19510166695E+02  0.51100000000E-03 0. -1.
        -11    1    3    3    0    0 -0.63229931656E+00 -0.61276690785E+01 -0.12054041759E+02  0.13536914484E+02  0.51100000000E-03 0.  1.
        -12    1    3    3    0    0  0.15656321689E+02 -0.72880193463E+01  0.27160290899E+01  0.17481774763E+02  0.00000000000E+00 0.  1.
</event>
<event>
 7    1  0.2702714E-011  0.5052887E+02  0.7816164E-02  0.1300439E+00
        -11   -1    0    0    0    0  0.00000000000E+00  0.00000000000E+00  0.45593999997E+02  0.45594000000E+02  0.51100000000E-03 0.  1.
         11   -1    0    0    0    0 -0.00000000000E+00 -0.00000000000E+00 -0.45593999997E+02  0.45594000000E+02  0.51100000000E-03 0. -1.
    9900012    2    1    2    0    0 -0.13243821214E+02 -0.33589845057E+02 -0.18694602847E+02  0.50528872281E+02  0.30000037784E+02 0.  0.
        -12    1    1    2    0    0  0.13243821214E+02  0.33589845057E+02  0.18694602847E+02  0.40659127719E+02  0.00000000000E+00 0.  1.
         11    1    3    3    0    0 -0.15168947988E+02 -0.10972760538E+02 -0.12280202410E+02  0.22389770619E+02  0.51100000000E-03 0. -1.
        -11    1    3    3    0    0  0.18968077164E+01  0.19738739819E+01 -0.50413155377E-01  0.27379919205E+01  0.51100000000E-03 0.  1.
         12    1    3    3    0    0  0.28319057811E-01 -0.24590958501E+02 -0.63639872820E+01  0.25401109741E+02  0.00000000000E+00 0. -1.
</event>
<event>
 7    1  0.2702714E-011  0.5052884E+02  0.7816164E-02  0.1300439E+00
        -11   -1    0    0    0    0  0.00000000000E+00  0.00000000000E+00  0.45593999997E+02  0.45594000000E+02  0.51100000000E-03 0. -1.
         11   -1    0    0    0    0 -0.00000000000E+00 -0.00000000000E+00 -0.45593999997E+02  0.45594000000E+02  0.51100000000E-03 0.  1.
    9900012    2    1    2    0    0  0.22916261127E+02  0.18745136011E+02  0.27868125660E+02  0.50528836508E+02  0.29999929048E+02 0.  0.
        -12    1    1    2    0    0 -0.22916261127E+02 -0.18745136011E+02 -0.27868125660E+02  0.40659163492E+02  0.00000000000E+00 0.  1.
         11    1    3    3    0    0  0.13729337583E+02  0.13657481816E+02  0.21857473628E+02  0.29202237477E+02  0.51100000000E-03 0. -1.
        -11    1    3    3    0    0  0.85694738916E+01  0.10116519442E+02 -0.26514069135E+00  0.13260850209E+02  0.51100000000E-03 0.  1.
         12    1    3    3    0    0  0.61744965237E+00 -0.50288652473E+01  0.62757927235E+01  0.80657488219E+01  0.00000000000E+00 0. -1.
</event>
<event>
 7    1  0.2702714E-011  0.5052885E+02  0.7816164E-02  0.1300439E+00
        -11   -1    0    0    0    0  0.00000000000E+00  0.00000000000E+00  0.45593999997E+02  0.45594000000E+02  0.51100000000E-03 0.  1.
         11   -1    0    0    0    0 -0.00000000000E+00 -0.00000000000E+00 -0.45593999997E+02  0.45594000000E+02  0.51100000000E-03 0. -1.
    9900012    2    1    2    0    0 -0.37635210276E+02  0.11255754015E+02 -0.10491189824E+02  0.50528854474E+02  0.29999983661E+02 0.  0.
        -12    1    1    2    0    0  0.37635210276E+02 -0.11255754015E+02  0.10491189824E+02  0.40659145526E+02  0.00000000000E+00 0.  1.
         11    1    3    3    0    0 -0.16010886455E+01  0.58358744714E+01 -0.61114339788E+01  0.86006128406E+01  0.51100000000E-03 0. -1.
        -11    1    3    3    0    0 -0.19795315721E+02 -0.71658831492E+01 -0.36772077739E+01  0.21371154931E+02  0.51100000000E-03 0.  1.
         12    1    3    3    0    0 -0.16238805909E+02  0.12585762693E+02 -0.70254807093E+00  0.20557086703E+02  0.00000000000E+00 0. -1.
</event>
<event>
 7    1  0.2702714E-011  0.5052887E+02  0.7816164E-02  0.1300439E+00
        -11   -1    0    0    0    0  0.00000000000E+00  0.00000000000E+00  0.45593999997E+02  0.45594000000E+02  0.51100000000E-03 0.  1.
         11   -1    0    0    0    0 -0.00000000000E+00 -0.00000000000E+00 -0.45593999997E+02  0.45594000000E+02  0.51100000000E-03 0. -1.
    9900012    2    1    2    0    0  0.34479551656E+02  0.20166741451E+02 -0.75913269415E+01  0.50528865874E+02  0.30000018311E+02 0.  0.
        -12    1    1    2    0    0 -0.34479551656E+02 -0.20166741451E+02  0.75913269415E+01  0.40659134126E+02  0.00000000000E+00 0.  1.
         11    1    3    3    0    0  0.21002905807E+02  0.11712584742E+02 -0.21693050753E+01  0.24145653407E+02  0.51100000000E-03 0. -1.
        -11    1    3    3    0    0  0.10444052280E+02  0.37763097918E+01 -0.12921712866E+02  0.17038468456E+02  0.51100000000E-03 0.  1.
         12    1    3    3    0    0  0.30325935686E+01  0.46778469169E+01  0.74996910001E+01  0.93447440108E+01  0.00000000000E+00 0. -1.
</event>
<event>
 7    1  0.2702714E-011  0.5052887E+02  0.7816164E-02  0.1300439E+00
        -11   -1    0    0    0    0  0.00000000000E+00  0.00000000000E+00  0.45593999997E+02  0.45594000000E+02  0.51100000000E-03 0.  1.
         11   -1    0    0    0    0 -0.00000000000E+00 -0.00000000000E+00 -0.45593999997E+02  0.45594000000E+02  0.51100000000E-03 0. -1.
    9900012    2    1    2    0    0 -0.35201143206E+01 -0.14076336806E+02 -0.37981978225E+02  0.50528866554E+02  0.30000020377E+02 0.  0.
        -12    1    1    2    0    0  0.35201143206E+01  0.14076336806E+02  0.37981978225E+02  0.40659133446E+02  0.00000000000E+00 0.  1.
         11    1    3    3    0    0  0.71598427729E+01 -0.34339142042E+01 -0.68365860690E+01  0.10478264390E+02  0.51100000000E-03 0. -1.
        -11    1    3    3    0    0 -0.32468220394E+00 -0.17089403318E+01 -0.24994332131E+02  0.25054790650E+02  0.51100000000E-03 0.  1.
        -12    1    3    3    0    0 -0.10355274890E+02 -0.89334822697E+01 -0.61510600251E+01  0.14995811513E+02  0.00000000000E+00 0.  1.
</event>
<event>
 7    1  0.2702714E-011  0.5052886E+02  0.7816164E-02  0.1300439E+00
        -11   -1    0    0    0    0  0.00000000000E+00  0.00000000000E+00  0.45593999997E+02  0.45594000000E+02  0.51100000000E-03 0.  1.
         11   -1    0    0    0    0 -0.00000000000E+00 -0.00000000000E+00 -0.45593999997E+02  0.45594000000E+02  0.51100000000E-03 0. -1.
    9900012    2    1    2    0    0  0.35812918667E+02  0.19158585811E+02 -0.18838738811E+01  0.50528861611E+02  0.30000005353E+02 0.  0.
        -12    1    1    2    0    0 -0.35812918667E+02 -0.19158585811E+02  0.18838738811E+01  0.40659138389E+02  0.00000000000E+00 0.  1.
         11    1    3    3    0    0  0.33556208289E+01 -0.34102097436E+01 -0.81684670965E+01  0.94664447714E+01  0.51100000000E-03 0. -1.
        -11    1    3    3    0    0  0.14682363974E+01  0.30118401364E+01  0.25850603555E+01  0.42319542091E+01  0.51100000000E-03 0.  1.
         12    1    3    3    0    0  0.30989061441E+02  0.19556955418E+02  0.36995328599E+01  0.36830462631E+02  0.00000000000E+00 0. -1.
</event>
<event>
 7    1  0.2702714E-011  0.5052887E+02  0.7816164E-02  0.1300439E+00
        -11   -1    0    0    0    0  0.00000000000E+00  0.00000000000E+00  0.45593999997E+02  0.45594000000E+02  0.51100000000E-03 0.  1.
         11   -1    0    0    0    0 -0.00000000000E+00 -0.00000000000E+00 -0.45593999997E+02  0.45594000000E+02  0.51100000000E-03 0. -1.
    9900012    2    1    2    0    0  0.36184110317E+02 -0.13875836292E+02 -0.12301886478E+02  0.50528867162E+02  0.30000022225E+02 0.  0.
        -12    1    1    2    0    0 -0.36184110317E+02  0.13875836292E+02  0.12301886478E+02  0.40659132838E+02  0.00000000000E+00 0.  1.
         11    1    3    3    0    0  0.31393403517E+02 -0.71568380842E+01 -0.72312131994E+01  0.33000856964E+02  0.51100000000E-03 0. -1.
        -11    1    3    3    0    0  0.66029402526E+01  0.11052728618E+01  0.18286838474E+01  0.69400672153E+01  0.51100000000E-03 0.  1.
         12    1    3    3    0    0 -0.18122334529E+01 -0.78242710692E+01 -0.68993571256E+01  0.10587942982E+02  0.00000000000E+00 0. -1.
</event>
<event>
 7    1  0.2702714E-011  0.5052886E+02  0.7816164E-02  0.1300439E+00
        -11   -1    0    0    0    0  0.00000000000E+00  0.00000000000E+00  0.45593999997E+02  0.45594000000E+02  0.51100000000E-03 0.  1.
         11   -1    0    0    0    0 -0.00000000000E+00 -0.00000000000E+00 -0.45593999997E+02  0.45594000000E+02  0.51100000000E-03 0. -1.
    9900012    2    1    2    0    0  0.29414114283E+02 -0.74500399058E+01 -0.27064221395E+02  0.50528864576E+02  0.30000014366E+02 0.  0.
        -12    1    1    2    0    0 -0.29414114283E+02  0.74500399058E+01  0.27064221395E+02  0.40659135424E+02  0.00000000000E+00 0.  1.
         11    1    3    3    0    0 -0.75465154542E+00  0.23887946712E+01 -0.41283767392E+01  0.48290095980E+01  0.51100000000E-03 0.  1.
        -11    1    3    3    0    0  0.19715569844E+02 -0.64074619796E+00 -0.10420061079E+01  0.19753481388E+02  0.51100000000E-03 0. -1.
         12    1    3    3    0    0  0.10453195985E+02 -0.91980883791E+01 -0.21893838548E+02  0.25946373590E+02  0.00000000000E+00 0. -1.
</event>
<event>
 7    1  0.2702714E-011  0.5052888E+02  0.7816164E-02  0.1300439E+00
        -11   -1    0    0    0    0  0.00000000000E+00  0.00000000000E+00  0.45593999997E+02  0.45594000000E+02  0.51100000000E-03 0.  1.
         11   -1    0    0    0    0 -0.00000000000E+00 -0.00000000000E+00 -0.45593999997E+02  0.45594000000E+02  0.51100000000E-03 0. -1.
    9900012    2    1    2    0    0  0.22007978155E+02 -0.33532040435E+02  0.66644439565E+01  0.50528884767E+02  0.30000075739E+02 0.  0.
        -12    1    1    2    0    0 -0.22007978155E+02  0.33532040435E+02 -0.66644439565E+01  0.40659115233E+02  0.00000000000E+00 0.  1.
         11    1    3    3    0    0  0.83891211682E+01 -0.49384515840E+01 -0.25653695712E+00  0.97381450746E+01  0.51100000000E-03 0.  1.
        -11    1    3    3    0    0  0.79874481850E+01 -0.22917708443E+02 -0.65388823200E+01  0.25135187905E+02  0.51100000000E-03 0. -1.
        -12    1    3    3    0    0  0.56314088022E+01 -0.56758804087E+01  0.13459863234E+02  0.15655551788E+02  0.00000000000E+00 0.  1.
</event>
<event>
 7    1  0.2702714E-011  0.5052886E+02  0.7816164E-02  0.1300439E+00
        -11   -1    0    0    0    0  0.00000000000E+00  0.00000000000E+00  0.45593999997E+02  0.45594000000E+02  0.51100000000E-03 0.  1.
         11   -1    0    0    0    0 -0.00000000000E+00 -0.00000000000E+00 -0.45593999997E+02  0.45594000000E+02  0.51100000000E-03 0. -1.
    9900012    2    1    2    0    0 -0.44384218558E+01 -0.22585931733E+02 -0.33516287585E+02  0.50528862844E+02  0.30000009100E+02 0.  0.
        -12    1    1    2    0    0  0.44384218558E+01  0.22585931733E+02  0.33516287585E+02  0.40659137156E+02  0.00000000000E+00 0.  1.
         11    1    3    3    0    0 -0.92411406623E+01 -0.14521065561E+02 -0.19330571600E+02  0.25883025797E+02  0.51100000000E-03 0. -1.
        -11    1    3    3    0    0 -0.36743512181E+01 -0.22280578472E+01  0.25513643790E+01  0.49974552624E+01  0.51100000000E-03 0.  1.
         12    1    3    3    0    0  0.84770700246E+01 -0.58368083246E+01 -0.16737080364E+02  0.19648381784E+02  0.00000000000E+00 0. -1.
</event>
<event>
 7    1  0.2702714E-011  0.5052885E+02  0.7816164E-02  0.1300439E+00
        -11   -1    0    0    0    0  0.00000000000E+00  0.00000000000E+00  0.45593999997E+02  0.45594000000E+02  0.51100000000E-03 0.  1.
         11   -1    0    0    0    0 -0.00000000000E+00 -0.00000000000E+00 -0.45593999997E+02  0.45594000000E+02  0.51100000000E-03 0. -1.
    9900012    2    1    2    0    0 -0.33719239358E+02 -0.16505387959E+02 -0.15612543939E+02  0.50528850196E+02  0.29999970656E+02 0.  0.
        -12    1    1    2    0    0  0.33719239358E+02  0.16505387959E+02  0.15612543939E+02  0.40659149804E+02  0.00000000000E+00 0.  1.
         11    1    3    3    0    0 -0.26036076708E+02 -0.10209514917E+02 -0.15765252095E+02  0.32103810663E+02  0.51100000000E-03 0. -1.
        -11    1    3    3    0    0 -0.12214181605E+02 -0.24029502440E+01  0.24258718190E+00  0.12450672711E+02  0.51100000000E-03 0.  1.
         12    1    3    3    0    0  0.45310189555E+01 -0.38929227977E+01 -0.89879025244E-01  0.59743668219E+01  0.00000000000E+00 0. -1.
</event>
<event>
 7    1  0.2702714E-011  0.5052886E+02  0.7816164E-02  0.1300439E+00
        -11   -1    0    0    0    0  0.00000000000E+00  0.00000000000E+00  0.45593999997E+02  0.45594000000E+02  0.51100000000E-03 0.  1.
         11   -1    0    0    0    0 -0.00000000000E+00 -0.00000000000E+00 -0.45593999997E+02  0.45594000000E+02  0.51100000000E-03 0. -1.
    9900012    2    1    2    0    0  0.23441546816E+02  0.23723273396E+02 -0.23256515433E+02  0.50528864153E+02  0.30000013080E+02 0.  0.
        -12    1    1    2    0    0 -0.23441546816E+02 -0.23723273396E+02  0.23256515433E+02  0.40659135847E+02  0.00000000000E+00 0.  1.
         11    1    3    3    0    0  0.85296504901E+01  0.14500393216E+02 -0.19747496093E+02  0.25941856971E+02  0.51100000000E-03 0. -1.
        -11    1    3    3    0    0  0.11838721449E+02  0.40759340380E+01 -0.97979810834E+01  0.15898710558E+02  0.51100000000E-03 0.  1.
         12    1    3    3    0    0  0.30731748764E+01  0.51469461420E+01  0.62889617438E+01  0.86882966239E+01  0.00000000000E+00 0. -1.
</event>
<event>
 7    1  0.2702714E-011  0.5052887E+02  0.7816164E-02  0.1300439E+00
        -11   -1    0    0    0    0  0.00000000000E+00  0.00000000000E+00  0.45593999997E+02  0.45594000000E+02  0.51100000000E-03 0.  1.
         11   -1    0    0    0    0 -0.00000000000E+00 -0.00000000000E+00 -0.45593999997E+02  0.45594000000E+02  0.51100000000E-03 0. -1.
    9900012    2    1    2    0    0  0.32982836496E+02  0.15977973637E+02 -0.17606857421E+02  0.50528873434E+02  0.30000041289E+02 0.  0.
        -12    1    1    2    0    0 -0.32982836496E+02 -0.15977973637E+02  0.17606857421E+02  0.40659126566E+02  0.00000000000E+00 0.  1.
         11    1    3    3    0    0  0.31081451416E+02  0.38556422521E+01 -0.41309151925E+01  0.31590933192E+02  0.51100000000E-03 0.  1.
        -11    1    3    3    0    0  0.31496106978E+01  0.51137304106E+01 -0.77333608773E+01  0.97915860298E+01  0.51100000000E-03 0. -1.
        -12    1    3    3    0    0 -0.12482256178E+01  0.70086009738E+01 -0.57425813513E+01  0.91463542124E+01  0.00000000000E+00 0.  1.
</event>
<event>
 7    1  0.2702714E-011  0.5052884E+02  0.7816164E-02  0.1300439E+00
        -11   -1    0    0    0    0  0.00000000000E+00  0.00000000000E+00  0.45593999997E+02  0.45594000000E+02  0.51100000000E-03 0. -1.
         11   -1    0    0    0    0 -0.00000000000E+00 -0.00000000000E+00 -0.45593999997E+02  0.45594000000E+02  0.51100000000E-03 0.  1.
    9900012    2    1    2    0    0  0.31182389731E+01  0.38287463856E+02 -0.13323437052E+02  0.50528840174E+02  0.29999940194E+02 0.  0.
        -12    1    1    2    0    0 -0.31182389731E+01 -0.38287463856E+02  0.13323437052E+02  0.40659159826E+02  0.00000000000E+00 0.  1.
         11    1    3    3    0    0 -0.85919704858E+01  0.12872613543E+02 -0.47346080038E+01  0.16184642396E+02  0.51100000000E-03 0. -1.
        -11    1    3    3    0    0  0.31356585024E+01  0.14117362321E+01 -0.81565979319E+01  0.88518610199E+01  0.51100000000E-03 0.  1.
         12    1    3    3    0    0  0.85745509564E+01  0.24003114081E+02 -0.43223111604E+00  0.25492336759E+02  0.00000000000E+00 0. -1.
</event>
<event>
 7    1  0.2702714E-011  0.5052886E+02  0.7816164E-02  0.1300439E+00
        -11   -1    0    0    0    0  0.00000000000E+00  0.00000000000E+00  0.45593999997E+02  0.45594000000E+02  0.51100000000E-03 0.  1.
         11   -1    0    0    0    0 -0.00000000000E+00 -0.00000000000E+00 -0.45593999997E+02  0.45594000000E+02  0.51100000000E-03 0. -1.
    9900012    2    1    2    0    0 -0.23948851757E+02  0.32018424496E+02 -0.73782438386E+01  0.50528862161E+02  0.30000007024E+02 0.  0.
        -12    1    1    2    0    0  0.23948851757E+02 -0.32018424496E+02  0.73782438386E+01  0.40659137839E+02  0.00000000000E+00 0.  1.
         11    1    3    3    0    0  0.47293267675E+00 -0.20790500320E+01 -0.38821681585E+01  0.44291471215E+01  0.51100000000E-03 0. -1.
        -11    1    3    3    0    0 -0.10218464712E+02  0.74805549245E+01  0.66066549404E+01  0.14283683447E+02  0.51100000000E-03 0.  1.
         12    1    3    3    0    0 -0.14203319722E+02  0.26616919603E+02 -0.10102730620E+02  0.31816031593E+02  0.00000000000E+00 0. -1.
</event>
<event>
 7    1  0.2702714E-011  0.5052886E+02  0.7816164E-02  0.1300439E+00
        -11   -1    0    0    0    0  0.00000000000E+00  0.00000000000E+00  0.45593999997E+02  0.45594000000E+02  0.51100000000E-03 0. -1.
         11   -1    0    0    0    0 -0.00000000000E+00 -0.00000000000E+00 -0.45593999997E+02  0.45594000000E+02  0.51100000000E-03 0.  1.
    9900012    2    1    2    0    0  0.36351006663E+02  0.13484368937E+02  0.12245061818E+02  0.50528862897E+02  0.30000009261E+02 0.  0.
        -12    1    1    2    0    0 -0.36351006663E+02 -0.13484368937E+02 -0.12245061818E+02  0.40659137103E+02  0.00000000000E+00 0.  1.
         11    1    3    3    0    0  0.19561379678E+02 -0.15033114384E+01  0.10525177108E+02  0.22264026446E+02  0.51100000000E-03 0. -1.
        -11    1    3    3    0    0  0.66319842931E+01 -0.14267555396E+01 -0.43156405552E+01  0.80401244205E+01  0.51100000000E-03 0.  1.
         12    1    3    3    0    0  0.10157642692E+02  0.16414435915E+02  0.60355252653E+01  0.20224712030E+02  0.00000000000E+00 0. -1.
</event>
<event>
 7    1  0.2702714E-011  0.5052887E+02  0.7816164E-02  0.1300439E+00
        -11   -1    0    0    0    0  0.00000000000E+00  0.00000000000E+00  0.45593999997E+02  0.45594000000E+02  0.51100000000E-03 0.  1.
         11   -1    0    0    0    0 -0.00000000000E+00 -0.00000000000E+00 -0.45593999997E+02  0.45594000000E+02  0.51100000000E-03 0. -1.
    9900012    2    1    2    0    0 -0.19245065079E+02  0.59823977257E+01 -0.35312936587E+02  0.50528866920E+02  0.30000021490E+02 0.  0.
        -12    1    1    2    0    0  0.19245065079E+02 -0.59823977257E+01  0.35312936587E+02  0.40659133080E+02  0.00000000000E+00 0.  1.
         11    1    3    3    0    0 -0.83914535594E+01 -0.31435966745E+01 -0.19375503914E+01  0.91680311229E+01  0.51100000000E-03 0. -1.
        -11    1    3    3    0    0  0.47830959250E+01 -0.19121691478E+01 -0.53852436108E+01  0.74521974267E+01  0.51100000000E-03 0.  1.
         12    1    3    3    0    0 -0.15636707445E+02  0.11038163548E+02 -0.27990142584E+02  0.33908638370E+02  0.00000000000E+00 0. -1.
</event>
<event>
 7    1  0.2702714E-011  0.5052886E+02  0.7816164E-02  0.1300439E+00
        -11   -1    0    0    0    0  0.00000000000E+00  0.00000000000E+00  0.45593999997E+02  0.45594000000E+02  0.51100000000E-03 0.  1.
         11   -1    0    0    0    0 -0.00000000000E+00 -0.00000000000E+00 -0.45593999997E+02  0.45594000000E+02  0.51100000000E-03 0. -1.
    9900012    2    1    2    0    0  0.28045292804E+00  0.40062128260E+02  0.69363598662E+01  0.50528857575E+02  0.29999993085E+02 0.  0.
        -12    1    1    2    0    0 -0.28045292804E+00 -0.40062128260E+02 -0.69363598662E+01  0.40659142425E+02  0.00000000000E+00 0.  1.
         11    1    3    3    0    0 -0.65858168360E+01  0.14814814691E+02  0.12704536771E+02  0.20597499182E+02  0.51100000000E-03 0. -1.
        -11    1    3    3    0    0  0.49988749834E+01  0.89261778224E+01  0.38080461551E+01  0.10916346339E+02  0.51100000000E-03 0.  1.
         12    1    3    3    0    0  0.18673947806E+01  0.16321135746E+02 -0.95762230600E+01  0.19015012054E+02  0.00000000000E+00 0. -1.
</event>
<event>
 7    1  0.2702714E-011  0.5052886E+02  0.7816164E-02  0.1300439E+00
        -11   -1    0    0    0    0  0.00000000000E+00  0.00000000000E+00  0.45593999997E+02  0.45594000000E+02  0.51100000000E-03 0. -1.
         11   -1    0    0    0    0 -0.00000000000E+00 -0.00000000000E+00 -0.45593999997E+02  0.45594000000E+02  0.51100000000E-03 0.  1.
    9900012    2    1    2    0    0 -0.15204697595E+02 -0.28984865019E+02  0.24121785633E+02  0.50528858700E+02  0.29999996504E+02 0.  0.
        -12    1    1    2    0    0  0.15204697595E+02  0.28984865019E+02 -0.24121785633E+02  0.40659141300E+02  0.00000000000E+00 0.  1.
         11    1    3    3    0    0 -0.89742182869E+01 -0.29914695144E+01  0.13467425403E+02  0.16457734685E+02  0.51100000000E-03 0. -1.
        -11    1    3    3    0    0 -0.42022509802E+01 -0.19313454979E+01 -0.37497591333E+01  0.59539652797E+01  0.51100000000E-03 0.  1.
         12    1    3    3    0    0 -0.20282283278E+01 -0.24062050007E+02  0.14404119363E+02  0.28117158735E+02  0.00000000000E+00 0. -1.
</event>
<event>
 7    1  0.2702714E-011  0.5052885E+02  0.7816164E-02  0.1300439E+00
        -11   -1    0    0    0    0  0.00000000000E+00  0.00000000000E+00  0.45593999997E+02  0.45594000000E+02  0.51100000000E-03 0.  1.
         11   -1    0    0    0    0 -0.00000000000E+00 -0.00000000000E+00 -0.45593999997E+02  0.45594000000E+02  0.51100000000E-03 0. -1.
    9900012    2    1    2    0    0 -0.28358138141E+02  0.10379365424E+02 -0.27225924335E+02  0.50528853657E+02  0.29999981177E+02 0.  0.
        -12    1    1    2    0    0  0.28358138141E+02 -0.10379365424E+02  0.27225924335E+02  0.40659146343E+02  0.00000000000E+00 0.  1.
         11    1    3    3    0    0 -0.79753349976E+01  0.10663887951E+02  0.16644563953E+01  0.13419943737E+02  0.51100000000E-03 0.  1.
        -11    1    3    3    0    0 -0.53325619852E+01  0.50150012439E+01 -0.96797922115E+01  0.12136096255E+02  0.51100000000E-03 0. -1.
        -12    1    3    3    0    0 -0.15050241158E+02 -0.52995237707E+01 -0.19210588519E+02  0.24972813665E+02  0.00000000000E+00 0.  1.
</event>
<event>
 7    1  0.2702714E-011  0.5052888E+02  0.7816164E-02  0.1300439E+00
        -11   -1    0    0    0    0  0.00000000000E+00  0.00000000000E+00  0.45593999997E+02  0.45594000000E+02  0.51100000000E-03 0.  1.
         11   -1    0    0    0    0 -0.00000000000E+00 -0.00000000000E+00 -0.45593999997E+02  0.45594000000E+02  0.51100000000E-03 0. -1.
    9900012    2    1    2    0    0 -0.33483251248E+02  0.41865116563E+01 -0.22682786202E+02  0.50528883140E+02  0.30000070791E+02 0.  0.
        -12    1    1    2    0    0  0.33483251248E+02 -0.41865116563E+01  0.22682786202E+02  0.40659116860E+02  0.00000000000E+00 0.  1.
         11    1    3    3    0    0 -0.20890275796E+02 -0.31635139543E+01 -0.11143479264E+02  0.23886995912E+02  0.51100000000E-03 0.  1.
        -11    1    3    3    0    0 -0.41526673363E+01 -0.65006715474E+01 -0.47462601134E+01  0.90570614384E+01  0.51100000000E-03 0. -1.
         12    1    3    3    0    0 -0.84403081163E+01  0.13850697158E+02 -0.67930468248E+01  0.17584825789E+02  0.00000000000E+00 0. -1.
</event>
<event>
 7    1  0.2702714E-011  0.5052886E+02  0.7816164E-02  0.1300439E+00
        -11   -1    0    0    0    0  0.00000000000E+00  0.00000000000E+00  0.45593999997E+02  0.45594000000E+02  0.51100000000E-03 0.  1.
         11   -1    0    0    0    0 -0.00000000000E+00 -0.00000000000E+00 -0.45593999997E+02  0.45594000000E+02  0.51100000000E-03 0. -1.
    9900012    2    1    2    0    0  0.39425699192E+02  0.13385104567E+00 -0.99378911219E+01  0.50528863846E+02  0.30000012145E+02 0.  0.
        -12    1    1    2    0    0 -0.39425699192E+02 -0.13385104567E+00  0.99378911219E+01  0.40659136154E+02  0.00000000000E+00 0.  1.
         11    1    3    3    0    0  0.10088147837E+02 -0.11593652768E+02 -0.70317372804E+01  0.16900557409E+02  0.51100000000E-03 0. -1.
        -11    1    3    3    0    0  0.64967205178E+01  0.31954650057E+01  0.40200890501E+01  0.82812734721E+01  0.51100000000E-03 0.  1.
        -12    1    3    3    0    0  0.22840830837E+02  0.85320388076E+01 -0.69262428917E+01  0.25347032965E+02  0.00000000000E+00 0.  1.
</event>
<event>
 7    1  0.2702714E-011  0.5052886E+02  0.7816164E-02  0.1300439E+00
        -11   -1    0    0    0    0  0.00000000000E+00  0.00000000000E+00  0.45593999997E+02  0.45594000000E+02  0.51100000000E-03 0. -1.
         11   -1    0    0    0    0 -0.00000000000E+00 -0.00000000000E+00 -0.45593999997E+02  0.45594000000E+02  0.51100000000E-03 0.  1.
    9900012    2    1    2    0    0  0.83395349893E+01 -0.17546193429E+02  0.35717631824E+02  0.50528856246E+02  0.29999989045E+02 0.  0.
        -12    1    1    2    0    0 -0.83395349893E+01  0.17546193429E+02 -0.35717631824E+02  0.40659143754E+02  0.00000000000E+00 0.  1.
         11    1    3    3    0    0  0.27141452872E+01 -0.14583422981E+01  0.20951167247E+02  0.21176514260E+02  0.51100000000E-03 0. -1.
        -11    1    3    3    0    0  0.99090913401E+01 -0.29031239943E+01  0.10780042810E+02  0.14927409131E+02  0.51100000000E-03 0.  1.
        -12    1    3    3    0    0 -0.42837016380E+01 -0.13184727136E+02  0.39864217674E+01  0.14424932856E+02  0.00000000000E+00 0.  1.
</event>
<event>
 7    1  0.2702714E-011  0.5052885E+02  0.7816164E-02  0.1300439E+00
        -11   -1    0    0    0    0  0.00000000000E+00  0.00000000000E+00  0.45593999997E+02  0.45594000000E+02  0.51100000000E-03 0. -1.
         11   -1    0    0    0    0 -0.00000000000E+00 -0.00000000000E+00 -0.45593999997E+02  0.45594000000E+02  0.51100000000E-03 0.  1.
    9900012    2    1    2    0    0  0.10730661743E+02 -0.18823939019E+02  0.34404626213E+02  0.50528854823E+02  0.29999984721E+02 0.  0.
        -12    1    1    2    0    0 -0.10730661743E+02  0.18823939019E+02 -0.34404626213E+02  0.40659145177E+02  0.00000000000E+00 0.  1.
         11    1    3    3    0    0 -0.32937478308E+01 -0.14754534160E+02  0.57937353257E+01  0.16189886422E+02  0.51100000000E-03 0. -1.
        -11    1    3    3    0    0  0.81321185987E+01 -0.34959559056E+01  0.26682891810E+02  0.28112804488E+02  0.51100000000E-03 0.  1.
        -12    1    3    3    0    0  0.58922909751E+01 -0.57344895318E+00  0.19279990774E+01  0.62261639136E+01  0.00000000000E+00 0.  1.
</event>
<event>
 7    1  0.2702714E-011  0.5052886E+02  0.7816164E-02  0.1300439E+00
        -11   -1    0    0    0    0  0.00000000000E+00  0.00000000000E+00  0.45593999997E+02  0.45594000000E+02  0.51100000000E-03 0. -1.
         11   -1    0    0    0    0 -0.00000000000E+00 -0.00000000000E+00 -0.45593999997E+02  0.45594000000E+02  0.51100000000E-03 0.  1.
    9900012    2    1    2    0    0  0.38457691832E+02  0.37047310998E+00 -0.13192218686E+02  0.50528856561E+02  0.29999990002E+02 0.  0.
        -12    1    1    2    0    0 -0.38457691832E+02 -0.37047310998E+00  0.13192218686E+02  0.40659143439E+02  0.00000000000E+00 0.  1.
         11    1    3    3    0    0  0.87674508459E+00 -0.79237481427E+00  0.20140884289E+01  0.23351856993E+01  0.51100000000E-03 0. -1.
        -11    1    3    3    0    0  0.64702145345E+01 -0.44815540828E+01 -0.14580085599E+02  0.16568853293E+02  0.51100000000E-03 0.  1.
         12    1    3    3    0    0  0.31110732213E+02  0.56444020070E+01 -0.62622151568E+00  0.31624817568E+02  0.00000000000E+00 0. -1.
</event>
<event>
 7    1  0.2702714E-011  0.5052889E+02  0.7816164E-02  0.1300439E+00
        -11   -1    0    0    0    0  0.00000000000E+00  0.00000000000E+00  0.45593999997E+02  0.45594000000E+02  0.51100000000E-03 0.  1.
         11   -1    0    0    0    0 -0.00000000000E+00 -0.00000000000E+00 -0.45593999997E+02  0.45594000000E+02  0.51100000000E-03 0. -1.
    9900012    2    1    2    0    0 -0.11125399696E+01  0.12059494820E+02 -0.38813577527E+02  0.50528893259E+02  0.30000101550E+02 0.  0.
        -12    1    1    2    0    0  0.11125399696E+01 -0.12059494820E+02  0.38813577527E+02  0.40659106741E+02  0.00000000000E+00 0.  1.
         11    1    3    3    0    0  0.10839118971E+02  0.29922443964E+00 -0.86992890532E+01  0.13901570618E+02  0.51100000000E-03 0. -1.
        -11    1    3    3    0    0 -0.37278848066E+01  0.73656878518E+00 -0.32182937899E+00  0.38135591141E+01  0.51100000000E-03 0.  1.
         12    1    3    3    0    0 -0.82237741345E+01  0.11023701596E+02 -0.29792459095E+02  0.32813763527E+02  0.00000000000E+00 0. -1.
</event>
<event>
 7    1  0.2702714E-011  0.5052886E+02  0.7816164E-02  0.1300439E+00
        -11   -1    0    0    0    0  0.00000000000E+00  0.00000000000E+00  0.45593999997E+02  0.45594000000E+02  0.51100000000E-03 0. -1.
         11   -1    0    0    0    0 -0.00000000000E+00 -0.00000000000E+00 -0.45593999997E+02  0.45594000000E+02  0.51100000000E-03 0.  1.
    9900012    2    1    2    0    0 -0.11322656126E+02  0.25412249116E+02  0.29650982283E+02  0.50528859610E+02  0.29999999271E+02 0.  0.
        -12    1    1    2    0    0  0.11322656126E+02 -0.25412249116E+02 -0.29650982283E+02  0.40659140390E+02  0.00000000000E+00 0.  1.
         11    1    3    3    0    0  0.47095126125E+01  0.17001720835E+01  0.15433265585E+02  0.16225158891E+02  0.51100000000E-03 0. -1.
        -11    1    3    3    0    0 -0.73730175091E+01  0.21806281107E+01  0.57450524486E+01  0.95980286541E+01  0.51100000000E-03 0.  1.
         12    1    3    3    0    0 -0.86591512299E+01  0.21531448922E+02  0.84726642492E+01  0.24705672065E+02  0.00000000000E+00 0. -1.
</event>
<event>
 7    1  0.2702714E-011  0.5052886E+02  0.7816164E-02  0.1300439E+00
        -11   -1    0    0    0    0  0.00000000000E+00  0.00000000000E+00  0.45593999997E+02  0.45594000000E+02  0.51100000000E-03 0. -1.
         11   -1    0    0    0    0 -0.00000000000E+00 -0.00000000000E+00 -0.45593999997E+02  0.45594000000E+02  0.51100000000E-03 0.  1.
    9900012    2    1    2    0    0 -0.34086845845E+02 -0.21525108129E+02  0.52841567045E+01  0.50528860171E+02  0.30000000974E+02 0.  0.
        -12    1    1    2    0    0  0.34086845845E+02  0.21525108129E+02 -0.52841567045E+01  0.40659139829E+02  0.00000000000E+00 0.  1.
         11    1    3    3    0    0 -0.89497640161E+01 -0.12316488257E+02  0.10364243372E+02  0.18417700721E+02  0.51100000000E-03 0. -1.
        -11    1    3    3    0    0 -0.47102160087E+01 -0.81402711305E+01 -0.67679433848E+01  0.11586854916E+02  0.51100000000E-03 0.  1.
        -12    1    3    3    0    0 -0.20426865820E+02 -0.10683487409E+01  0.16878567175E+01  0.20524304533E+02  0.00000000000E+00 0.  1.
</event>
<event>
 7    1  0.2702714E-011  0.5052885E+02  0.7816164E-02  0.1300439E+00
        -11   -1    0    0    0    0  0.00000000000E+00  0.00000000000E+00  0.45593999997E+02  0.45594000000E+02  0.51100000000E-03 0.  1.
         11   -1    0    0    0    0 -0.00000000000E+00 -0.00000000000E+00 -0.45593999997E+02  0.45594000000E+02  0.51100000000E-03 0. -1.
    9900012    2    1    2    0    0  0.16857996211E+02 -0.65265847987E+01 -0.36419479984E+02  0.50528845217E+02  0.29999955520E+02 0.  0.
        -12    1    1    2    0    0 -0.16857996211E+02  0.65265847987E+01  0.36419479984E+02  0.40659154783E+02  0.00000000000E+00 0.  1.
         11    1    3    3    0    0  0.85746223236E+01 -0.99102252260E+01 -0.16249995720E+02  0.20875801139E+02  0.51100000000E-03 0. -1.
        -11    1    3    3    0    0  0.34918415293E+01 -0.36404304933E+01  0.23624517418E+01  0.55701768316E+01  0.51100000000E-03 0.  1.
        -12    1    3    3    0    0  0.47915323584E+01  0.70240709205E+01 -0.22531936006E+02  0.24082867246E+02  0.00000000000E+00 0.  1.
</event>
<event>
 7    1  0.2702714E-011  0.5052886E+02  0.7816164E-02  0.1300439E+00
        -11   -1    0    0    0    0  0.00000000000E+00  0.00000000000E+00  0.45593999997E+02  0.45594000000E+02  0.51100000000E-03 0.  1.
         11   -1    0    0    0    0 -0.00000000000E+00 -0.00000000000E+00 -0.45593999997E+02  0.45594000000E+02  0.51100000000E-03 0. -1.
    9900012    2    1    2    0    0 -0.63764416840E+01  0.32085480281E+02 -0.24145988056E+02  0.50528858438E+02  0.29999995707E+02 0.  0.
        -12    1    1    2    0    0  0.63764416840E+01 -0.32085480281E+02  0.24145988056E+02  0.40659141562E+02  0.00000000000E+00 0.  1.
         11    1    3    3    0    0  0.51580177842E+01  0.63082745617E+01  0.28181098874E+01  0.86221354087E+01  0.51100000000E-03 0. -1.
        -11    1    3    3    0    0  0.22628166077E+01  0.13251054185E+02 -0.11085660039E+02  0.17424196818E+02  0.51100000000E-03 0.  1.
         12    1    3    3    0    0 -0.13797276076E+02  0.12526151534E+02 -0.15878437905E+02  0.24482526211E+02  0.00000000000E+00 0. -1.
</event>
<event>
 7    1  0.2702714E-011  0.5052886E+02  0.7816164E-02  0.1300439E+00
        -11   -1    0    0    0    0  0.00000000000E+00  0.00000000000E+00  0.45593999997E+02  0.45594000000E+02  0.51100000000E-03 0.  1.
         11   -1    0    0    0    0 -0.00000000000E+00 -0.00000000000E+00 -0.45593999997E+02  0.45594000000E+02  0.51100000000E-03 0. -1.
    9900012    2    1    2    0    0 -0.61651850849E+00  0.40635646401E+02 -0.12368041384E+01  0.50528861568E+02  0.30000005223E+02 0.  0.
        -12    1    1    2    0    0  0.61651850849E+00 -0.40635646401E+02  0.12368041384E+01  0.40659138432E+02  0.00000000000E+00 0.  1.
         11    1    3    3    0    0  0.62370409150E+01  0.98860523092E+01  0.49074481513E+01  0.12677450740E+02  0.51100000000E-03 0. -1.
        -11    1    3    3    0    0 -0.31423576359E+01 -0.11824767837E+01  0.29214393827E+01  0.44505585250E+01  0.51100000000E-03 0.  1.
        -12    1    3    3    0    0 -0.37112017875E+01  0.31932070876E+02 -0.90656916724E+01  0.33400852304E+02  0.00000000000E+00 0.  1.
</event>
<event>
 7    1  0.2702714E-011  0.5052885E+02  0.7816164E-02  0.1300439E+00
        -11   -1    0    0    0    0  0.00000000000E+00  0.00000000000E+00  0.45593999997E+02  0.45594000000E+02  0.51100000000E-03 0.  1.
         11   -1    0    0    0    0 -0.00000000000E+00 -0.00000000000E+00 -0.45593999997E+02  0.45594000000E+02  0.51100000000E-03 0. -1.
    9900012    2    1    2    0    0 -0.31533665662E+02  0.18402160873E+02  0.17892864113E+02  0.50528853660E+02  0.29999981185E+02 0.  0.
        -12    1    1    2    0    0  0.31533665662E+02 -0.18402160873E+02 -0.17892864113E+02  0.40659146340E+02  0.00000000000E+00 0.  1.
         11    1    3    3    0    0 -0.96214973778E+01  0.50797783751E+01 -0.73629335885E+01  0.13137357094E+02  0.51100000000E-03 0. -1.
        -11    1    3    3    0    0 -0.28895282669E+01 -0.16807785345E+01  0.28845141570E+01  0.44152929994E+01  0.51100000000E-03 0.  1.
        -12    1    3    3    0    0 -0.19022640018E+02  0.15003161033E+02  0.22371283545E+02  0.32976203566E+02  0.00000000000E+00 0.  1.
</event>
<event>
 7    1  0.2702714E-011  0.5052885E+02  0.7816164E-02  0.1300439E+00
        -11   -1    0    0    0    0  0.00000000000E+00  0.00000000000E+00  0.45593999997E+02  0.45594000000E+02  0.51100000000E-03 0.  1.
         11   -1    0    0    0    0 -0.00000000000E+00 -0.00000000000E+00 -0.45593999997E+02  0.45594000000E+02  0.51100000000E-03 0. -1.
    9900012    2    1    2    0    0 -0.25341930889E+02  0.34658573401E+01 -0.31606020825E+02  0.50528853666E+02  0.29999981202E+02 0.  0.
        -12    1    1    2    0    0  0.25341930889E+02 -0.34658573401E+01  0.31606020825E+02  0.40659146334E+02  0.00000000000E+00 0.  1.
         11    1    3    3    0    0 -0.17524951997E+01  0.19352500829E+01  0.14609386957E+01  0.29917844912E+01  0.51100000000E-03 0. -1.
        -11    1    3    3    0    0 -0.21374982108E+02  0.11269670062E+02 -0.23483664870E+02  0.33695368220E+02  0.51100000000E-03 0.  1.
        -12    1    3    3    0    0 -0.22144535805E+01 -0.97390628050E+01 -0.95832946499E+01  0.13841700955E+02  0.00000000000E+00 0.  1.
</event>
<event>
 7    1  0.2702714E-011  0.5052886E+02  0.7816164E-02  0.1300439E+00
        -11   -1    0    0    0    0  0.00000000000E+00  0.00000000000E+00  0.45593999997E+02  0.45594000000E+02  0.51100000000E-03 0.  1.
         11   -1    0    0    0    0 -0.00000000000E+00 -0.00000000000E+00 -0.45593999997E+02  0.45594000000E+02  0.51100000000E-03 0. -1.
    9900012    2    1    2    0    0 -0.48305114813E+01 -0.27295704459E+02 -0.29745193887E+02  0.50528857333E+02  0.29999992348E+02 0.  0.
        -12    1    1    2    0    0  0.48305114813E+01  0.27295704459E+02  0.29745193887E+02  0.40659142667E+02  0.00000000000E+00 0.  1.
         11    1    3    3    0    0 -0.78877213420E+01 -0.20796198397E+01 -0.47218507417E+00  0.81709195108E+01  0.51100000000E-03 0. -1.
        -11    1    3    3    0    0 -0.39423404573E+01 -0.14292084099E+02 -0.65853975910E+01  0.16222613164E+02  0.51100000000E-03 0.  1.
         12    1    3    3    0    0  0.69995503180E+01 -0.10924000520E+02 -0.22687611222E+02  0.26135324658E+02  0.00000000000E+00 0. -1.
</event>
<event>
 7    1  0.2702714E-011  0.5052886E+02  0.7816164E-02  0.1300439E+00
        -11   -1    0    0    0    0  0.00000000000E+00  0.00000000000E+00  0.45593999997E+02  0.45594000000E+02  0.51100000000E-03 0.  1.
         11   -1    0    0    0    0 -0.00000000000E+00 -0.00000000000E+00 -0.45593999997E+02  0.45594000000E+02  0.51100000000E-03 0. -1.
    9900012    2    1    2    0    0 -0.30700509366E+02  0.13675608602E+02  0.22882792500E+02  0.50528859102E+02  0.29999997727E+02 0.  0.
        -12    1    1    2    0    0  0.30700509366E+02 -0.13675608602E+02 -0.22882792500E+02  0.40659140898E+02  0.00000000000E+00 0.  1.
         11    1    3    3    0    0 -0.11334588167E+02 -0.61009928389E+01  0.12814699663E+02  0.18163466912E+02  0.51100000000E-03 0. -1.
        -11    1    3    3    0    0  0.20119368320E+01  0.13887719790E+01  0.64515318943E-01  0.24455551339E+01  0.51100000000E-03 0.  1.
         12    1    3    3    0    0 -0.21377858032E+02  0.18387829462E+02  0.10003577517E+02  0.29919837056E+02  0.00000000000E+00 0. -1.
</event>
<event>
 7    1  0.2702714E-011  0.5052886E+02  0.7816164E-02  0.1300439E+00
        -11   -1    0    0    0    0  0.00000000000E+00  0.00000000000E+00  0.45593999997E+02  0.45594000000E+02  0.51100000000E-03 0.  1.
         11   -1    0    0    0    0 -0.00000000000E+00 -0.00000000000E+00 -0.45593999997E+02  0.45594000000E+02  0.51100000000E-03 0. -1.
    9900012    2    1    2    0    0 -0.30406792186E+02  0.16942010550E+02  0.21013358030E+02  0.50528856524E+02  0.29999989890E+02 0.  0.
        -12    1    1    2    0    0  0.30406792186E+02 -0.16942010550E+02 -0.21013358030E+02  0.40659143476E+02  0.00000000000E+00 0.  1.
         11    1    3    3    0    0  0.14534758866E+01  0.73001086508E+01  0.11195629192E+02  0.13444191747E+02  0.51100000000E-03 0. -1.
        -11    1    3    3    0    0 -0.33902041577E+01  0.42547144940E+00  0.60171663965E+01  0.69195955004E+01  0.51100000000E-03 0.  1.
         12    1    3    3    0    0 -0.28470063915E+02  0.92164304494E+01  0.38005624416E+01  0.30165069276E+02  0.00000000000E+00 0. -1.
</event>
<event>
 7    1  0.2702714E-011  0.5052885E+02  0.7816164E-02  0.1300439E+00
        -11   -1    0    0    0    0  0.00000000000E+00  0.00000000000E+00  0.45593999997E+02  0.45594000000E+02  0.51100000000E-03 0. -1.
         11   -1    0    0    0    0 -0.00000000000E+00 -0.00000000000E+00 -0.45593999997E+02  0.45594000000E+02  0.51100000000E-03 0.  1.
    9900012    2    1    2    0    0  0.36489113917E+02 -0.12154094385E+02  0.13190483763E+02  0.50528852116E+02  0.29999976491E+02 0.  0.
        -12    1    1    2    0    0 -0.36489113917E+02  0.12154094385E+02 -0.13190483763E+02  0.40659147884E+02  0.00000000000E+00 0.  1.
         11    1    3    3    0    0  0.21657763704E+02 -0.48840552871E+01  0.71095852938E+01  0.23312205559E+02  0.51100000000E-03 0. -1.
        -11    1    3    3    0    0  0.14618001810E+02 -0.25529646869E+01 -0.46022055325E+01  0.15536534415E+02  0.51100000000E-03 0.  1.
         12    1    3    3    0    0  0.21334840298E+00 -0.47170744114E+01  0.10683104001E+02  0.11680112142E+02  0.00000000000E+00 0. -1.
</event>
<event>
 7    1  0.2702714E-011  0.5052886E+02  0.7816164E-02  0.1300439E+00
        -11   -1    0    0    0    0  0.00000000000E+00  0.00000000000E+00  0.45593999997E+02  0.45594000000E+02  0.51100000000E-03 0. -1.
         11   -1    0    0    0    0 -0.00000000000E+00 -0.00000000000E+00 -0.45593999997E+02  0.45594000000E+02  0.51100000000E-03 0.  1.
    9900012    2    1    2    0    0 -0.35668235350E+02  0.15908296165E+02  0.11307917121E+02  0.50528857246E+02  0.29999992086E+02 0.  0.
        -12    1    1    2    0    0  0.35668235350E+02 -0.15908296165E+02 -0.11307917121E+02  0.40659142754E+02  0.00000000000E+00 0.  1.
         11    1    3    3    0    0  0.63162448410E+00 -0.11838987131E+01  0.12513779306E+01  0.18348058857E+01  0.51100000000E-03 0.  1.
        -11    1    3    3    0    0 -0.32343484729E+02  0.40128359714E+01  0.12321750340E+02  0.34842924513E+02  0.51100000000E-03 0. -1.
         12    1    3    3    0    0 -0.39563751051E+01  0.13079358907E+02 -0.22652111499E+01  0.13851126847E+02  0.00000000000E+00 0. -1.
</event>
<event>
 7    1  0.2702714E-011  0.5052886E+02  0.7816164E-02  0.1300439E+00
        -11   -1    0    0    0    0  0.00000000000E+00  0.00000000000E+00  0.45593999997E+02  0.45594000000E+02  0.51100000000E-03 0. -1.
         11   -1    0    0    0    0 -0.00000000000E+00 -0.00000000000E+00 -0.45593999997E+02  0.45594000000E+02  0.51100000000E-03 0.  1.
    9900012    2    1    2    0    0 -0.11729621876E+02  0.38641615335E+02 -0.47336168382E+01  0.50528860887E+02  0.30000003152E+02 0.  0.
        -12    1    1    2    0    0  0.11729621876E+02 -0.38641615335E+02  0.47336168382E+01  0.40659139113E+02  0.00000000000E+00 0.  1.
         11    1    3    3    0    0 -0.45557009768E+01  0.27176162025E+01  0.59811096294E+01  0.79945932901E+01  0.51100000000E-03 0. -1.
        -11    1    3    3    0    0  0.56540422782E+00 -0.10381467861E+01 -0.40092026411E+01  0.41798488930E+01  0.51100000000E-03 0.  1.
        -12    1    3    3    0    0 -0.77393251270E+01  0.36962145918E+02 -0.67055238265E+01  0.38354418704E+02  0.00000000000E+00 0.  1.
</event>
<event>
 7    1  0.3459721E-011  0.5052885E+02  0.7816164E-02  0.1300439E+00
        -11   -1    0    0    0    0  0.00000000000E+00  0.00000000000E+00  0.45593999997E+02  0.45594000000E+02  0.51100000000E-03 0. -1.
         11   -1    0    0    0    0 -0.00000000000E+00 -0.00000000000E+00 -0.45593999997E+02  0.45594000000E+02  0.51100000000E-03 0.  1.
    9900012    2    1    2    0    0 -0.17923073763E+02 -0.10557273846E+02  0.34935279577E+02  0.50528851420E+02  0.29999974376E+02 0.  0.
        -12    1    1    2    0    0  0.17923073763E+02  0.10557273846E+02 -0.34935279577E+02  0.40659148580E+02  0.00000000000E+00 0.  1.
         11    1    3    3    0    0 -0.74013275679E+01  0.45325654160E+01  0.64478983820E+01  0.10811993009E+02  0.51100000000E-03 0. -1.
        -11    1    3    3    0    0 -0.16113224468E+02 -0.67404783406E+01  0.20092955958E+02  0.26623240419E+02  0.51100000000E-03 0.  1.
        -12    1    3    3    0    0  0.55914782726E+01 -0.83493609215E+01  0.83944252365E+01  0.13093617992E+02  0.00000000000E+00 0.  1.
</event>
<event>
 7    1  0.2702714E-011  0.5052885E+02  0.7816164E-02  0.1300439E+00
        -11   -1    0    0    0    0  0.00000000000E+00  0.00000000000E+00  0.45593999997E+02  0.45594000000E+02  0.51100000000E-03 0.  1.
         11   -1    0    0    0    0 -0.00000000000E+00 -0.00000000000E+00 -0.45593999997E+02  0.45594000000E+02  0.51100000000E-03 0. -1.
    9900012    2    1    2    0    0 -0.67537060106E+01  0.26113414708E+02 -0.30424385512E+02  0.50528853349E+02  0.29999980240E+02 0.  0.
        -12    1    1    2    0    0  0.67537060106E+01 -0.26113414708E+02  0.30424385512E+02  0.40659146651E+02  0.00000000000E+00 0.  1.
         11    1    3    3    0    0  0.34240532946E+01  0.30958163133E+01 -0.19799142308E+02  0.20330131726E+02  0.51100000000E-03 0. -1.
        -11    1    3    3    0    0  0.94390100872E+00 -0.16458024874E+00  0.14931123927E+01  0.17740971368E+01  0.51100000000E-03 0.  1.
         12    1    3    3    0    0 -0.11121660314E+02  0.23182178644E+02 -0.12118355597E+02  0.28424624486E+02  0.00000000000E+00 0. -1.
</event>
<event>
 7    1  0.3120581E-011  0.5052885E+02  0.7816164E-02  0.1300439E+00
        -11   -1    0    0    0    0  0.00000000000E+00  0.00000000000E+00  0.45593999997E+02  0.45594000000E+02  0.51100000000E-03 0. -1.
         11   -1    0    0    0    0 -0.00000000000E+00 -0.00000000000E+00 -0.45593999997E+02  0.45594000000E+02  0.51100000000E-03 0.  1.
    9900012    2    1    2    0    0  0.37358029611E+02  0.74836611884E+01  0.14196438557E+02  0.50528850613E+02  0.29999971923E+02 0.  0.
        -12    1    1    2    0    0 -0.37358029611E+02 -0.74836611884E+01 -0.14196438557E+02  0.40659149387E+02  0.00000000000E+00 0.  1.
         11    1    3    3    0    0  0.15243406506E+02  0.51562324291E+01 -0.15242263588E+01  0.16163893127E+02  0.51100000000E-03 0. -1.
        -11    1    3    3    0    0 -0.35293417739E+01  0.32506800442E+01  0.14991918712E+01  0.50270021518E+01  0.51100000000E-03 0.  1.
        -12    1    3    3    0    0  0.25643964879E+02 -0.92325128481E+00  0.14221473045E+02  0.29337955334E+02  0.00000000000E+00 0.  1.
</event>
<event>
 7    1  0.2702714E-011  0.5052896E+02  0.7816164E-02  0.1300438E+00
        -11   -1    0    0    0    0  0.00000000000E+00  0.00000000000E+00  0.45593999997E+02  0.45594000000E+02  0.51100000000E-03 0.  1.
         11   -1    0    0    0    0 -0.00000000000E+00 -0.00000000000E+00 -0.45593999997E+02  0.45594000000E+02  0.51100000000E-03 0. -1.
    9900012    2    1    2    0    0  0.14811716974E+02 -0.31945844093E+02  0.20328147935E+02  0.50528960255E+02  0.30000305190E+02 0.  0.
        -12    1    1    2    0    0 -0.14811716974E+02  0.31945844093E+02 -0.20328147935E+02  0.40659039745E+02  0.00000000000E+00 0.  1.
         11    1    3    3    0    0 -0.26988795463E+01  0.46767530327E+00  0.71921808687E+01  0.76961118042E+01  0.51100000000E-03 0. -1.
        -11    1    3    3    0    0  0.41949643955E+01 -0.11057191618E+02 -0.38874058925E+01  0.12448740402E+02  0.51100000000E-03 0.  1.
         12    1    3    3    0    0  0.13315632125E+02 -0.21356327778E+02  0.17023372959E+02  0.30384108049E+02  0.00000000000E+00 0. -1.
</event>
<event>
 7    1  0.2702714E-011  0.5052886E+02  0.7816164E-02  0.1300439E+00
        -11   -1    0    0    0    0  0.00000000000E+00  0.00000000000E+00  0.45593999997E+02  0.45594000000E+02  0.51100000000E-03 0. -1.
         11   -1    0    0    0    0 -0.00000000000E+00 -0.00000000000E+00 -0.45593999997E+02  0.45594000000E+02  0.51100000000E-03 0.  1.
    9900012    2    1    2    0    0  0.22545574343E+02 -0.13512677295E+02  0.31020477282E+02  0.50528863499E+02  0.30000011093E+02 0.  0.
        -12    1    1    2    0    0 -0.22545574343E+02  0.13512677295E+02 -0.31020477282E+02  0.40659136501E+02  0.00000000000E+00 0.  1.
         11    1    3    3    0    0  0.36939469812E+01  0.39612196554E+01 -0.33593246181E+01  0.63735051274E+01  0.51100000000E-03 0. -1.
        -11    1    3    3    0    0  0.40513126163E+01 -0.46608776654E+01  0.23310837237E+01  0.66008231392E+01  0.51100000000E-03 0.  1.
         12    1    3    3    0    0  0.14800314746E+02 -0.12813019285E+02  0.32048718177E+02  0.37554535233E+02  0.00000000000E+00 0. -1.
</event>
<event>
 7    1  0.2702714E-011  0.5052886E+02  0.7816164E-02  0.1300439E+00
        -11   -1    0    0    0    0  0.00000000000E+00  0.00000000000E+00  0.45593999997E+02  0.45594000000E+02  0.51100000000E-03 0.  1.
         11   -1    0    0    0    0 -0.00000000000E+00 -0.00000000000E+00 -0.45593999997E+02  0.45594000000E+02  0.51100000000E-03 0. -1.
    9900012    2    1    2    0    0  0.92723900603E+01 -0.23534122104E+02 -0.31832905427E+02  0.50528856027E+02  0.29999988380E+02 0.  0.
        -12    1    1    2    0    0 -0.92723900603E+01  0.23534122104E+02  0.31832905427E+02  0.40659143973E+02  0.00000000000E+00 0.  1.
         11    1    3    3    0    0 -0.31239897246E+01 -0.52000407536E+01 -0.15547644225E+02  0.16689187423E+02  0.51100000000E-03 0. -1.
        -11    1    3    3    0    0  0.10434479775E+02 -0.14028918319E+02 -0.20887576773E+02  0.27239305811E+02  0.51100000000E-03 0.  1.
         12    1    3    3    0    0  0.19619000101E+01 -0.43051630314E+01  0.46023155708E+01  0.66003627923E+01  0.00000000000E+00 0. -1.
</event>
<event>
 7    1  0.2702714E-011  0.5052886E+02  0.7816164E-02  0.1300439E+00
        -11   -1    0    0    0    0  0.00000000000E+00  0.00000000000E+00  0.45593999997E+02  0.45594000000E+02  0.51100000000E-03 0.  1.
         11   -1    0    0    0    0 -0.00000000000E+00 -0.00000000000E+00 -0.45593999997E+02  0.45594000000E+02  0.51100000000E-03 0. -1.
    9900012    2    1    2    0    0 -0.31123163374E+02  0.21967912290E+02 -0.14210029382E+02  0.50528863218E+02  0.30000010239E+02 0.  0.
        -12    1    1    2    0    0  0.31123163374E+02 -0.21967912290E+02  0.14210029382E+02  0.40659136782E+02  0.00000000000E+00 0.  1.
         11    1    3    3    0    0 -0.33357544031E+01 -0.26183586889E+01 -0.62542272973E+01  0.75563495822E+01  0.51100000000E-03 0. -1.
        -11    1    3    3    0    0 -0.17128019405E+02  0.17548229592E+02 -0.14636549231E+02  0.28557625675E+02  0.51100000000E-03 0.  1.
        -12    1    3    3    0    0 -0.10659389566E+02  0.70380413864E+01  0.66807471468E+01  0.14414887961E+02  0.00000000000E+00 0.  1.
</event>
<event>
 7    1  0.2702714E-011  0.5052886E+02  0.7816164E-02  0.1300439E+00
        -11   -1    0    0    0    0  0.00000000000E+00  0.00000000000E+00  0.45593999997E+02  0.45594000000E+02  0.51100000000E-03 0.  1.
         11   -1    0    0    0    0 -0.00000000000E+00 -0.00000000000E+00 -0.45593999997E+02  0.45594000000E+02  0.51100000000E-03 0. -1.
    9900012    2    1    2    0    0 -0.28060661672E+02 -0.15576140732E+02 -0.24962945028E+02  0.50528861814E+02  0.30000005970E+02 0.  0.
        -12    1    1    2    0    0  0.28060661672E+02  0.15576140732E+02  0.24962945028E+02  0.40659138186E+02  0.00000000000E+00 0.  1.
         11    1    3    3    0    0 -0.17252192087E+02 -0.12194927238E+02 -0.26043555144E+02  0.33535371579E+02  0.51100000000E-03 0. -1.
        -11    1    3    3    0    0 -0.10612300421E+01 -0.58571267320E+01 -0.23034200953E+01  0.63826238455E+01  0.51100000000E-03 0.  1.
         12    1    3    3    0    0 -0.97472395428E+01  0.24759132377E+01  0.33840302117E+01  0.10610866390E+02  0.00000000000E+00 0. -1.
</event>
<event>
 7    1  0.2702714E-011  0.5052886E+02  0.7816164E-02  0.1300439E+00
        -11   -1    0    0    0    0  0.00000000000E+00  0.00000000000E+00  0.45593999997E+02  0.45594000000E+02  0.51100000000E-03 0.  1.
         11   -1    0    0    0    0 -0.00000000000E+00 -0.00000000000E+00 -0.45593999997E+02  0.45594000000E+02  0.51100000000E-03 0. -1.
    9900012    2    1    2    0    0 -0.10447375610E+02 -0.13610278695E+02 -0.36861614735E+02  0.50528856082E+02  0.29999988546E+02 0.  0.
        -12    1    1    2    0    0  0.10447375610E+02  0.13610278695E+02  0.36861614735E+02  0.40659143918E+02  0.00000000000E+00 0.  1.
         11    1    3    3    0    0 -0.10130270430E+02 -0.15525772976E+02 -0.14343153575E+02  0.23439241887E+02  0.51100000000E-03 0. -1.
        -11    1    3    3    0    0  0.50962076936E+01 -0.43598840312E+01 -0.11327142236E+02  0.13163740848E+02  0.51100000000E-03 0.  1.
        -12    1    3    3    0    0 -0.54133128733E+01  0.62753783121E+01 -0.11191318924E+02  0.13925873347E+02  0.00000000000E+00 0.  1.
</event>
<event>
 7    1  0.2702714E-011  0.5052885E+02  0.7816164E-02  0.1300439E+00
        -11   -1    0    0    0    0  0.00000000000E+00  0.00000000000E+00  0.45593999997E+02  0.45594000000E+02  0.51100000000E-03 0.  1.
         11   -1    0    0    0    0 -0.00000000000E+00 -0.00000000000E+00 -0.45593999997E+02  0.45594000000E+02  0.51100000000E-03 0. -1.
    9900012    2    1    2    0    0  0.36943096472E+02 -0.10864006198E+02 -0.13051710585E+02  0.50528853958E+02  0.29999982092E+02 0.  0.
        -12    1    1    2    0    0 -0.36943096472E+02  0.10864006198E+02  0.13051710585E+02  0.40659146042E+02  0.00000000000E+00 0.  1.
         11    1    3    3    0    0  0.17513455355E+02  0.64711768429E+01 -0.34382663481E+01  0.18984702366E+02  0.51100000000E-03 0.  1.
        -11    1    3    3    0    0  0.15575932450E+01 -0.43932005788E+01  0.35420187265E+01  0.58542467460E+01  0.51100000000E-03 0. -1.
         12    1    3    3    0    0  0.17872047873E+02 -0.12941982462E+02 -0.13155462964E+02  0.25689904846E+02  0.00000000000E+00 0. -1.
</event>
<event>
 7    1  0.2702714E-011  0.5052887E+02  0.7816164E-02  0.1300439E+00
        -11   -1    0    0    0    0  0.00000000000E+00  0.00000000000E+00  0.45593999997E+02  0.45594000000E+02  0.51100000000E-03 0.  1.
         11   -1    0    0    0    0 -0.00000000000E+00 -0.00000000000E+00 -0.45593999997E+02  0.45594000000E+02  0.51100000000E-03 0. -1.
    9900012    2    1    2    0    0  0.21968604386E+02  0.45560118456E+01 -0.33908520696E+02  0.50528873123E+02  0.30000040344E+02 0.  0.
        -12    1    1    2    0    0 -0.21968604386E+02 -0.45560118456E+01  0.33908520696E+02  0.40659126877E+02  0.00000000000E+00 0.  1.
         11    1    3    3    0    0  0.11339172067E+02  0.11184139352E+00 -0.21622224953E+02  0.24415362866E+02  0.51100000000E-03 0. -1.
        -11    1    3    3    0    0  0.71331048554E+01 -0.53162967396E+01 -0.12964786016E+02  0.15723545167E+02  0.51100000000E-03 0.  1.
         12    1    3    3    0    0  0.34963274637E+01  0.97604671917E+01  0.67849027339E+00  0.10389965091E+02  0.00000000000E+00 0. -1.
</event>
<event>
 7    1  0.2702714E-011  0.5052886E+02  0.7816164E-02  0.1300439E+00
        -11   -1    0    0    0    0  0.00000000000E+00  0.00000000000E+00  0.45593999997E+02  0.45594000000E+02  0.51100000000E-03 0.  1.
         11   -1    0    0    0    0 -0.00000000000E+00 -0.00000000000E+00 -0.45593999997E+02  0.45594000000E+02  0.51100000000E-03 0. -1.
    9900012    2    1    2    0    0  0.33672596195E+02  0.10504602952E+02 -0.20223139239E+02  0.50528858612E+02  0.29999996237E+02 0.  0.
        -12    1    1    2    0    0 -0.33672596195E+02 -0.10504602952E+02  0.20223139239E+02  0.40659141388E+02  0.00000000000E+00 0.  1.
         11    1    3    3    0    0 -0.22888597091E+01  0.15415137114E+01  0.90089539262E+00  0.29028875383E+01  0.51100000000E-03 0. -1.
        -11    1    3    3    0    0  0.10177427241E+02 -0.55881293970E+01 -0.64854087733E+00  0.11628749758E+02  0.51100000000E-03 0.  1.
         12    1    3    3    0    0  0.25784028664E+02  0.14551218638E+02 -0.20475493755E+02  0.35997221316E+02  0.00000000000E+00 0. -1.
</event>
<event>
 7    1  0.2702714E-011  0.5052891E+02  0.7816164E-02  0.1300439E+00
        -11   -1    0    0    0    0  0.00000000000E+00  0.00000000000E+00  0.45593999997E+02  0.45594000000E+02  0.51100000000E-03 0.  1.
         11   -1    0    0    0    0 -0.00000000000E+00 -0.00000000000E+00 -0.45593999997E+02  0.45594000000E+02  0.51100000000E-03 0. -1.
    9900012    2    1    2    0    0 -0.84367266227E+01 -0.18294973540E+02 -0.35316808624E+02  0.50528912647E+02  0.30000160483E+02 0.  0.
        -12    1    1    2    0    0  0.84367266227E+01  0.18294973540E+02  0.35316808624E+02  0.40659087353E+02  0.00000000000E+00 0.  1.
         11    1    3    3    0    0  0.51951091576E+00 -0.21403716929E+01 -0.16532274227E+02  0.16678344461E+02  0.51100000000E-03 0. -1.
        -11    1    3    3    0    0 -0.14333797599E+02 -0.17278616877E+02 -0.16676223709E+02  0.27966136527E+02  0.51100000000E-03 0.  1.
         12    1    3    3    0    0  0.53775600609E+01  0.11240150298E+01 -0.21083106881E+01  0.58844316593E+01  0.00000000000E+00 0. -1.
</event>
<event>
 7    1  0.2702714E-011  0.5052884E+02  0.7816164E-02  0.1300439E+00
        -11   -1    0    0    0    0  0.00000000000E+00  0.00000000000E+00  0.45593999997E+02  0.45594000000E+02  0.51100000000E-03 0. -1.
         11   -1    0    0    0    0 -0.00000000000E+00 -0.00000000000E+00 -0.45593999997E+02  0.45594000000E+02  0.51100000000E-03 0.  1.
    9900012    2    1    2    0    0  0.10402328218E+02  0.13828684731E+02  0.36793017467E+02  0.50528842507E+02  0.29999947284E+02 0.  0.
        -12    1    1    2    0    0 -0.10402328218E+02 -0.13828684731E+02 -0.36793017467E+02  0.40659157493E+02  0.00000000000E+00 0.  1.
         11    1    3    3    0    0  0.90676329472E+01  0.15414480674E+02  0.20940729329E+02  0.27538016029E+02  0.51100000000E-03 0. -1.
        -11    1    3    3    0    0  0.24263336912E+01  0.50541958802E+01 -0.17401563425E+00  0.56091240741E+01  0.51100000000E-03 0.  1.
         12    1    3    3    0    0 -0.10916384205E+01 -0.66399918235E+01  0.16026303772E+02  0.17381702404E+02  0.00000000000E+00 0. -1.
</event>
<event>
 7    1  0.2702714E-011  0.5052886E+02  0.7816164E-02  0.1300439E+00
        -11   -1    0    0    0    0  0.00000000000E+00  0.00000000000E+00  0.45593999997E+02  0.45594000000E+02  0.51100000000E-03 0.  1.
         11   -1    0    0    0    0 -0.00000000000E+00 -0.00000000000E+00 -0.45593999997E+02  0.45594000000E+02  0.51100000000E-03 0. -1.
    9900012    2    1    2    0    0 -0.12706008554E+01 -0.50775451182E+01 -0.40320832921E+02  0.50528862547E+02  0.30000008199E+02 0.  0.
        -12    1    1    2    0    0  0.12706008554E+01  0.50775451182E+01  0.40320832921E+02  0.40659137453E+02  0.00000000000E+00 0.  1.
         11    1    3    3    0    0 -0.33422540723E+01 -0.26105121195E+01 -0.36437892415E+02  0.36683858027E+02  0.51100000000E-03 0. -1.
        -11    1    3    3    0    0 -0.53650568822E+01 -0.23181908558E+01 -0.19266839380E+01  0.61538569573E+01  0.51100000000E-03 0.  1.
        -12    1    3    3    0    0  0.74367100991E+01 -0.14884214284E+00 -0.19562565678E+01  0.76911475633E+01  0.00000000000E+00 0.  1.
</event>
<event>
 7    1  0.2702714E-011  0.5052886E+02  0.7816164E-02  0.1300439E+00
        -11   -1    0    0    0    0  0.00000000000E+00  0.00000000000E+00  0.45593999997E+02  0.45594000000E+02  0.51100000000E-03 0. -1.
         11   -1    0    0    0    0 -0.00000000000E+00 -0.00000000000E+00 -0.45593999997E+02  0.45594000000E+02  0.51100000000E-03 0.  1.
    9900012    2    1    2    0    0 -0.28881743774E+02 -0.20558383499E+02 -0.19908886655E+02  0.50528855600E+02  0.29999987082E+02 0.  0.
        -12    1    1    2    0    0  0.28881743774E+02  0.20558383499E+02  0.19908886655E+02  0.40659144400E+02  0.00000000000E+00 0.  1.
         11    1    3    3    0    0  0.46598988761E+01 -0.76117250248E+00  0.19963330665E+01  0.51263424669E+01  0.51100000000E-03 0. -1.
        -11    1    3    3    0    0 -0.77658832940E+01 -0.12776021990E+01 -0.60294402653E+01  0.99144016909E+01  0.51100000000E-03 0.  1.
         12    1    3    3    0    0 -0.25775759356E+02 -0.18519608797E+02 -0.15875779456E+02  0.35488111442E+02  0.00000000000E+00 0. -1.
</event>
<event>
 7    1  0.2702714E-011  0.5052885E+02  0.7816164E-02  0.1300439E+00
        -11   -1    0    0    0    0  0.00000000000E+00  0.00000000000E+00  0.45593999997E+02  0.45594000000E+02  0.51100000000E-03 0.  1.
         11   -1    0    0    0    0 -0.00000000000E+00 -0.00000000000E+00 -0.45593999997E+02  0.45594000000E+02  0.51100000000E-03 0. -1.
    9900012    2    1    2    0    0  0.22378540680E+02 -0.28213186939E+02 -0.18878128344E+02  0.50528846910E+02  0.29999960668E+02 0.  0.
        -12    1    1    2    0    0 -0.22378540680E+02  0.28213186939E+02  0.18878128344E+02  0.40659153090E+02  0.00000000000E+00 0.  1.
         11    1    3    3    0    0  0.80742876723E+01 -0.54841273458E+01 -0.17798317329E+01  0.99215712172E+01  0.51100000000E-03 0. -1.
        -11    1    3    3    0    0  0.21373282684E+02 -0.19062504244E+02 -0.15191658996E+02  0.32418864633E+02  0.51100000000E-03 0.  1.
        -12    1    3    3    0    0 -0.70690296764E+01 -0.36665553488E+01 -0.19066376148E+01  0.81884110599E+01  0.00000000000E+00 0.  1.
</event>
<event>
 7    1  0.2702714E-011  0.5052885E+02  0.7816164E-02  0.1300439E+00
        -11   -1    0    0    0    0  0.00000000000E+00  0.00000000000E+00  0.45593999997E+02  0.45594000000E+02  0.51100000000E-03 0.  1.
         11   -1    0    0    0    0 -0.00000000000E+00 -0.00000000000E+00 -0.45593999997E+02  0.45594000000E+02  0.51100000000E-03 0. -1.
    9900012    2    1    2    0    0 -0.30320461056E+02 -0.24579389048E+02 -0.11388133716E+02  0.50528852024E+02  0.29999976212E+02 0.  0.
        -12    1    1    2    0    0  0.30320461056E+02  0.24579389048E+02  0.11388133716E+02  0.40659147976E+02  0.00000000000E+00 0.  1.
         11    1    3    3    0    0 -0.28099438167E+01  0.18753497507E+01  0.19855376082E+01  0.39185559579E+01  0.51100000000E-03 0. -1.
        -11    1    3    3    0    0  0.32101047491E+01 -0.80124986086E+01 -0.43233424599E+01  0.96538177288E+01  0.51100000000E-03 0.  1.
         12    1    3    3    0    0 -0.30720621988E+02 -0.18442240190E+02 -0.90503288642E+01  0.36956478337E+02  0.00000000000E+00 0. -1.
</event>
<event>
 7    1  0.2702714E-011  0.5052885E+02  0.7816164E-02  0.1300439E+00
        -11   -1    0    0    0    0  0.00000000000E+00  0.00000000000E+00  0.45593999997E+02  0.45594000000E+02  0.51100000000E-03 0.  1.
         11   -1    0    0    0    0 -0.00000000000E+00 -0.00000000000E+00 -0.45593999997E+02  0.45594000000E+02  0.51100000000E-03 0. -1.
    9900012    2    1    2    0    0 -0.29312077087E+02  0.14647386265E+02 -0.24071192564E+02  0.50528854669E+02  0.29999984253E+02 0.  0.
        -12    1    1    2    0    0  0.29312077087E+02 -0.14647386265E+02  0.24071192564E+02  0.40659145331E+02  0.00000000000E+00 0.  1.
         11    1    3    3    0    0 -0.25945147388E+02  0.12399902471E+02 -0.75397091068E+01  0.29728024959E+02  0.51100000000E-03 0. -1.
        -11    1    3    3    0    0 -0.44791645834E+01 -0.37222105450E+01 -0.46313624330E+01  0.74409196309E+01  0.51100000000E-03 0.  1.
        -12    1    3    3    0    0  0.11122348841E+01  0.59696943389E+01 -0.11900121025E+02  0.13359910080E+02  0.00000000000E+00 0.  1.
</event>
<event>
 7    1  0.2702714E-011  0.5052887E+02  0.7816164E-02  0.1300439E+00
        -11   -1    0    0    0    0  0.00000000000E+00  0.00000000000E+00  0.45593999997E+02  0.45594000000E+02  0.51100000000E-03 0. -1.
         11   -1    0    0    0    0 -0.00000000000E+00 -0.00000000000E+00 -0.45593999997E+02  0.45594000000E+02  0.51100000000E-03 0.  1.
    9900012    2    1    2    0    0  0.94322580884E+01  0.23906633113E+02  0.31506670022E+02  0.50528869964E+02  0.30000030742E+02 0.  0.
        -12    1    1    2    0    0 -0.94322580884E+01 -0.23906633113E+02 -0.31506670022E+02  0.40659130036E+02  0.00000000000E+00 0.  1.
         11    1    3    3    0    0 -0.17591250380E+01  0.20818109339E+02  0.26207979319E+02  0.33516359850E+02  0.51100000000E-03 0. -1.
        -11    1    3    3    0    0 -0.13840515660E+01 -0.20970057460E+01  0.34589302740E+00  0.25362716896E+01  0.51100000000E-03 0.  1.
        -12    1    3    3    0    0  0.12575434692E+02  0.51855295197E+01  0.49527976753E+01  0.14476238424E+02  0.00000000000E+00 0.  1.
</event>
<event>
 7    1  0.2702714E-011  0.5052886E+02  0.7816164E-02  0.1300439E+00
        -11   -1    0    0    0    0  0.00000000000E+00  0.00000000000E+00  0.45593999997E+02  0.45594000000E+02  0.51100000000E-03 0.  1.
         11   -1    0    0    0    0 -0.00000000000E+00 -0.00000000000E+00 -0.45593999997E+02  0.45594000000E+02  0.51100000000E-03 0. -1.
    9900012    2    1    2    0    0  0.21065061071E+02 -0.27298925396E+02 -0.21545248664E+02  0.50528857539E+02  0.29999992974E+02 0.  0.
        -12    1    1    2    0    0 -0.21065061071E+02  0.27298925396E+02  0.21545248664E+02  0.40659142461E+02  0.00000000000E+00 0.  1.
         11    1    3    3    0    0  0.15893288000E+02 -0.48832792036E+01 -0.12129609425E+02  0.20580827104E+02  0.51100000000E-03 0. -1.
        -11    1    3    3    0    0  0.10568291625E+01  0.24791656205E+01  0.66570416251E+00  0.27760245578E+01  0.51100000000E-03 0.  1.
         12    1    3    3    0    0  0.41149439086E+01 -0.24894811813E+02 -0.10081343401E+02  0.27172005877E+02  0.00000000000E+00 0. -1.
</event>
<event>
 7    1  0.2702714E-011  0.5052887E+02  0.7816164E-02  0.1300439E+00
        -11   -1    0    0    0    0  0.00000000000E+00  0.00000000000E+00  0.45593999997E+02  0.45594000000E+02  0.51100000000E-03 0.  1.
         11   -1    0    0    0    0 -0.00000000000E+00 -0.00000000000E+00 -0.45593999997E+02  0.45594000000E+02  0.51100000000E-03 0. -1.
    9900012    2    1    2    0    0 -0.36234129252E+02 -0.16335426385E+02 -0.85677613726E+01  0.50528870487E+02  0.30000032331E+02 0.  0.
        -12    1    1    2    0    0  0.36234129252E+02  0.16335426385E+02  0.85677613726E+01  0.40659129513E+02  0.00000000000E+00 0.  1.
         11    1    3    3    0    0 -0.97581895887E+01 -0.10954528955E+02 -0.68301817649E+01  0.16182563205E+02  0.51100000000E-03 0. -1.
        -11    1    3    3    0    0  0.29134933020E+01 -0.30106118125E+01  0.19693873505E+01  0.46293318637E+01  0.51100000000E-03 0.  1.
        -12    1    3    3    0    0 -0.29389432966E+02 -0.23702856167E+01 -0.37069669582E+01  0.29716975418E+02  0.00000000000E+00 0.  1.
</event>
<event>
 7    1  0.2702714E-011  0.5052886E+02  0.7816164E-02  0.1300439E+00
        -11   -1    0    0    0    0  0.00000000000E+00  0.00000000000E+00  0.45593999997E+02  0.45594000000E+02  0.51100000000E-03 0.  1.
         11   -1    0    0    0    0 -0.00000000000E+00 -0.00000000000E+00 -0.45593999997E+02  0.45594000000E+02  0.51100000000E-03 0. -1.
    9900012    2    1    2    0    0 -0.32408607988E+02  0.13870186811E+02 -0.20259943523E+02  0.50528864920E+02  0.30000015411E+02 0.  0.
        -12    1    1    2    0    0  0.32408607988E+02 -0.13870186811E+02  0.20259943523E+02  0.40659135080E+02  0.00000000000E+00 0.  1.
         11    1    3    3    0    0 -0.10038298498E+02  0.76512821878E+01 -0.18066768220E+02  0.22039003381E+02  0.51100000000E-03 0. -1.
        -11    1    3    3    0    0 -0.17528793094E+02  0.96671420926E+01 -0.66139863921E+01  0.21082149791E+02  0.51100000000E-03 0.  1.
        -12    1    3    3    0    0 -0.48415163964E+01 -0.34482374695E+01  0.44208110886E+01  0.74077117481E+01  0.00000000000E+00 0.  1.
</event>
<event>
 7    1  0.2702714E-011  0.5052887E+02  0.7816164E-02  0.1300439E+00
        -11   -1    0    0    0    0  0.00000000000E+00  0.00000000000E+00  0.45593999997E+02  0.45594000000E+02  0.51100000000E-03 0.  1.
         11   -1    0    0    0    0 -0.00000000000E+00 -0.00000000000E+00 -0.45593999997E+02  0.45594000000E+02  0.51100000000E-03 0. -1.
    9900012    2    1    2    0    0  0.24522485987E+02 -0.30567027853E+02 -0.10838340826E+02  0.50528866431E+02  0.30000020003E+02 0.  0.
        -12    1    1    2    0    0 -0.24522485987E+02  0.30567027853E+02  0.10838340826E+02  0.40659133569E+02  0.00000000000E+00 0.  1.
         11    1    3    3    0    0  0.45834490990E+01 -0.21846346296E+02 -0.81984812065E+01  0.23779948412E+02  0.51100000000E-03 0. -1.
        -11    1    3    3    0    0  0.56687346449E+01 -0.52131214831E+01 -0.80021170078E+01  0.11106082340E+02  0.51100000000E-03 0.  1.
        -12    1    3    3    0    0  0.14270302243E+02 -0.35075600738E+01  0.53622573881E+01  0.15642835679E+02  0.00000000000E+00 0.  1.
</event>
<event>
 7    1  0.2702714E-011  0.5052888E+02  0.7816164E-02  0.1300439E+00
        -11   -1    0    0    0    0  0.00000000000E+00  0.00000000000E+00  0.45593999997E+02  0.45594000000E+02  0.51100000000E-03 0.  1.
         11   -1    0    0    0    0 -0.00000000000E+00 -0.00000000000E+00 -0.45593999997E+02  0.45594000000E+02  0.51100000000E-03 0. -1.
    9900012    2    1    2    0    0  0.28121466569E+02  0.27179636355E+01 -0.29239700057E+02  0.50528877189E+02  0.30000052705E+02 0.  0.
        -12    1    1    2    0    0 -0.28121466569E+02 -0.27179636355E+01  0.29239700057E+02  0.40659122811E+02  0.00000000000E+00 0.  1.
         11    1    3    3    0    0  0.11760965638E+02 -0.49263222555E+01 -0.21338796509E+02  0.24858262216E+02  0.51100000000E-03 0. -1.
        -11    1    3    3    0    0  0.17480567037E+02  0.31845889039E+01 -0.10244060774E+02  0.20509817449E+02  0.51100000000E-03 0.  1.
        -12    1    3    3    0    0 -0.11200661065E+01  0.44596969870E+01  0.23431572251E+01  0.51607975237E+01  0.00000000000E+00 0.  1.
</event>
<event>
 7    1  0.2702714E-011  0.5052886E+02  0.7816164E-02  0.1300439E+00
        -11   -1    0    0    0    0  0.00000000000E+00  0.00000000000E+00  0.45593999997E+02  0.45594000000E+02  0.51100000000E-03 0. -1.
         11   -1    0    0    0    0 -0.00000000000E+00 -0.00000000000E+00 -0.45593999997E+02  0.45594000000E+02  0.51100000000E-03 0.  1.
    9900012    2    1    2    0    0  0.13616721291E+02  0.38209827130E+02 -0.27855801924E+01  0.50528862711E+02  0.30000008698E+02 0.  0.
        -12    1    1    2    0    0 -0.13616721291E+02 -0.38209827130E+02  0.27855801924E+01  0.40659137289E+02  0.00000000000E+00 0.  1.
         11    1    3    3    0    0 -0.55823299054E+00  0.44264563547E+01  0.32251341129E+00  0.44731594084E+01  0.51100000000E-03 0. -1.
        -11    1    3    3    0    0  0.14955607624E+01  0.16369942609E+02  0.11471349557E+02  0.20045038886E+02  0.51100000000E-03 0.  1.
         12    1    3    3    0    0  0.12679393519E+02  0.17413428167E+02 -0.14579443161E+02  0.26010664417E+02  0.00000000000E+00 0. -1.
</event>
<event>
 7    1  0.2702714E-011  0.5052886E+02  0.7816164E-02  0.1300439E+00
        -11   -1    0    0    0    0  0.00000000000E+00  0.00000000000E+00  0.45593999997E+02  0.45594000000E+02  0.51100000000E-03 0.  1.
         11   -1    0    0    0    0 -0.00000000000E+00 -0.00000000000E+00 -0.45593999997E+02  0.45594000000E+02  0.51100000000E-03 0. -1.
    9900012    2    1    2    0    0 -0.13430700735E+02  0.34634031015E+02 -0.16530745191E+02  0.50528863719E+02  0.30000011761E+02 0.  0.
        -12    1    1    2    0    0  0.13430700735E+02 -0.34634031015E+02  0.16530745191E+02  0.40659136281E+02  0.00000000000E+00 0.  1.
         11    1    3    3    0    0 -0.10581423387E+02  0.14802626118E+02 -0.58457788861E+01  0.19111708242E+02  0.51100000000E-03 0. -1.
        -11    1    3    3    0    0 -0.10786325931E+02  0.17883118191E+02 -0.10168457992E+02  0.23228178610E+02  0.51100000000E-03 0.  1.
        -12    1    3    3    0    0  0.79370485833E+01  0.19482867058E+01 -0.51650831220E+00  0.81889768676E+01  0.00000000000E+00 0.  1.
</event>
<event>
 7    1  0.2702714E-011  0.5052886E+02  0.7816164E-02  0.1300439E+00
        -11   -1    0    0    0    0  0.00000000000E+00  0.00000000000E+00  0.45593999997E+02  0.45594000000E+02  0.51100000000E-03 0.  1.
         11   -1    0    0    0    0 -0.00000000000E+00 -0.00000000000E+00 -0.45593999997E+02  0.45594000000E+02  0.51100000000E-03 0. -1.
    9900012    2    1    2    0    0 -0.23150533220E+02 -0.35561478574E+01 -0.33235110822E+02  0.50528856289E+02  0.29999989175E+02 0.  0.
        -12    1    1    2    0    0  0.23150533220E+02  0.35561478574E+01  0.33235110822E+02  0.40659143711E+02  0.00000000000E+00 0.  1.
         11    1    3    3    0    0 -0.16266813519E+02  0.37484843803E+01 -0.23683112375E+02  0.28974992135E+02  0.51100000000E-03 0. -1.
        -11    1    3    3    0    0 -0.95166816544E+01  0.79764817982E+00 -0.12029908759E+01  0.96255212658E+01  0.51100000000E-03 0.  1.
         12    1    3    3    0    0  0.26329619532E+01 -0.81022804175E+01 -0.83490075718E+01  0.11928342888E+02  0.00000000000E+00 0. -1.
</event>
<event>
 7    1  0.2702714E-011  0.5052887E+02  0.7816164E-02  0.1300439E+00
        -11   -1    0    0    0    0  0.00000000000E+00  0.00000000000E+00  0.45593999997E+02  0.45594000000E+02  0.51100000000E-03 0.  1.
         11   -1    0    0    0    0 -0.00000000000E+00 -0.00000000000E+00 -0.45593999997E+02  0.45594000000E+02  0.51100000000E-03 0. -1.
    9900012    2    1    2    0    0  0.10326978511E+02  0.39309686836E+02 -0.11257059174E+01  0.50528865994E+02  0.30000018674E+02 0.  0.
        -12    1    1    2    0    0 -0.10326978511E+02 -0.39309686836E+02  0.11257059174E+01  0.40659134006E+02  0.00000000000E+00 0.  1.
         11    1    3    3    0    0  0.83680295156E+01  0.14232040269E+02  0.11690218569E+02  0.20229584737E+02  0.51100000000E-03 0.  1.
        -11    1    3    3    0    0 -0.34769464403E+01  0.26519426609E+01 -0.17865260804E+01  0.47237307419E+01  0.51100000000E-03 0. -1.
        -12    1    3    3    0    0  0.54358954360E+01  0.22425703907E+02 -0.11029398406E+02  0.25575550514E+02  0.00000000000E+00 0.  1.
</event>
<event>
 7    1  0.2702714E-011  0.5052885E+02  0.7816164E-02  0.1300439E+00
        -11   -1    0    0    0    0  0.00000000000E+00  0.00000000000E+00  0.45593999997E+02  0.45594000000E+02  0.51100000000E-03 0. -1.
         11   -1    0    0    0    0 -0.00000000000E+00 -0.00000000000E+00 -0.45593999997E+02  0.45594000000E+02  0.51100000000E-03 0.  1.
    9900012    2    1    2    0    0 -0.17734308287E+02  0.30036178193E+02  0.20892314668E+02  0.50528849701E+02  0.29999969151E+02 0.  0.
        -12    1    1    2    0    0  0.17734308287E+02 -0.30036178193E+02 -0.20892314668E+02  0.40659150299E+02  0.00000000000E+00 0.  1.
         11    1    3    3    0    0  0.20387491340E+01  0.33758578607E+01  0.84053024861E+01  0.92845045355E+01  0.51100000000E-03 0. -1.
        -11    1    3    3    0    0 -0.14554208161E+02  0.20194677473E+02  0.18477387363E+02  0.31001029297E+02  0.51100000000E-03 0.  1.
        -12    1    3    3    0    0 -0.52188492603E+01  0.64656428591E+01 -0.59903751806E+01  0.10243315869E+02  0.00000000000E+00 0.  1.
</event>
<event>
 7    1  0.2702714E-011  0.5052886E+02  0.7816164E-02  0.1300439E+00
        -11   -1    0    0    0    0  0.00000000000E+00  0.00000000000E+00  0.45593999997E+02  0.45594000000E+02  0.51100000000E-03 0.  1.
         11   -1    0    0    0    0 -0.00000000000E+00 -0.00000000000E+00 -0.45593999997E+02  0.45594000000E+02  0.51100000000E-03 0. -1.
    9900012    2    1    2    0    0 -0.34338075906E+01  0.37958528157E+02 -0.14160671236E+02  0.50528861983E+02  0.30000006484E+02 0.  0.
        -12    1    1    2    0    0  0.34338075906E+01 -0.37958528157E+02  0.14160671236E+02  0.40659138017E+02  0.00000000000E+00 0.  1.
         11    1    3    3    0    0 -0.47814733906E+01  0.47569319977E+00 -0.79308477325E+01  0.92729239090E+01  0.51100000000E-03 0. -1.
        -11    1    3    3    0    0  0.75740521256E+01  0.97597188906E+01 -0.13699752897E+01  0.12429610251E+02  0.51100000000E-03 0.  1.
         12    1    3    3    0    0 -0.62263863256E+01  0.27723116067E+02 -0.48598482136E+01  0.28826327824E+02  0.00000000000E+00 0. -1.
</event>
<event>
 7    1  0.2702714E-011  0.5052888E+02  0.7816164E-02  0.1300439E+00
        -11   -1    0    0    0    0  0.00000000000E+00  0.00000000000E+00  0.45593999997E+02  0.45594000000E+02  0.51100000000E-03 0. -1.
         11   -1    0    0    0    0 -0.00000000000E+00 -0.00000000000E+00 -0.45593999997E+02  0.45594000000E+02  0.51100000000E-03 0.  1.
    9900012    2    1    2    0    0 -0.65177007408E+00 -0.28793822174E+02  0.28699385396E+02  0.50528883904E+02  0.30000073114E+02 0.  0.
        -12    1    1    2    0    0  0.65177007408E+00  0.28793822174E+02 -0.28699385396E+02  0.40659116096E+02  0.00000000000E+00 0.  1.
         11    1    3    3    0    0  0.59898310695E+01 -0.47270916380E+01  0.29592808083E+01  0.81841807629E+01  0.51100000000E-03 0. -1.
        -11    1    3    3    0    0  0.37796949358E+01 -0.63616330213E+01 -0.21489816437E+01  0.77054909559E+01  0.51100000000E-03 0.  1.
         12    1    3    3    0    0 -0.10421296079E+02 -0.17705097514E+02  0.27889086232E+02  0.34639212185E+02  0.00000000000E+00 0. -1.
</event>
<event>
 7    1  0.2702714E-011  0.5052886E+02  0.7816164E-02  0.1300439E+00
        -11   -1    0    0    0    0  0.00000000000E+00  0.00000000000E+00  0.45593999997E+02  0.45594000000E+02  0.51100000000E-03 0. -1.
         11   -1    0    0    0    0 -0.00000000000E+00 -0.00000000000E+00 -0.45593999997E+02  0.45594000000E+02  0.51100000000E-03 0.  1.
    9900012    2    1    2    0    0 -0.19544076202E+02 -0.95317453188E+01  0.34356087626E+02  0.50528857849E+02  0.29999993919E+02 0.  0.
        -12    1    1    2    0    0  0.19544076202E+02  0.95317453188E+01 -0.34356087626E+02  0.40659142151E+02  0.00000000000E+00 0.  1.
         11    1    3    3    0    0 -0.20234038378E+02 -0.56933743718E+01  0.29828361840E+02  0.36490574004E+02  0.51100000000E-03 0. -1.
        -11    1    3    3    0    0  0.25883835965E+01  0.42247456882E+01  0.22870580675E+01  0.54569992338E+01  0.51100000000E-03 0.  1.
        -12    1    3    3    0    0 -0.18984214213E+01 -0.80631166352E+01  0.22406677189E+01  0.85812846120E+01  0.00000000000E+00 0.  1.
</event>
<event>
 7    1  0.2702714E-011  0.5052886E+02  0.7816164E-02  0.1300439E+00
        -11   -1    0    0    0    0  0.00000000000E+00  0.00000000000E+00  0.45593999997E+02  0.45594000000E+02  0.51100000000E-03 0. -1.
         11   -1    0    0    0    0 -0.00000000000E+00 -0.00000000000E+00 -0.45593999997E+02  0.45594000000E+02  0.51100000000E-03 0.  1.
    9900012    2    1    2    0    0 -0.21032865813E+01 -0.97345538736E+01  0.39420559267E+02  0.50528857775E+02  0.29999993694E+02 0.  0.
        -12    1    1    2    0    0  0.21032865813E+01  0.97345538736E+01 -0.39420559267E+02  0.40659142225E+02  0.00000000000E+00 0.  1.
         11    1    3    3    0    0 -0.10765491426E+01 -0.34008492613E+01  0.24578887636E+02  0.24836393688E+02  0.51100000000E-03 0. -1.
        -11    1    3    3    0    0 -0.56473379836E+01 -0.12217995856E+02  0.10196165363E+02  0.16885900551E+02  0.51100000000E-03 0.  1.
         12    1    3    3    0    0  0.46206005449E+01  0.58842912438E+01  0.46455062679E+01  0.88065635365E+01  0.00000000000E+00 0. -1.
</event>
<event>
 7    1  0.2702714E-011  0.5052886E+02  0.7816164E-02  0.1300439E+00
        -11   -1    0    0    0    0  0.00000000000E+00  0.00000000000E+00  0.45593999997E+02  0.45594000000E+02  0.51100000000E-03 0.  1.
         11   -1    0    0    0    0 -0.00000000000E+00 -0.00000000000E+00 -0.45593999997E+02  0.45594000000E+02  0.51100000000E-03 0. -1.
    9900012    2    1    2    0    0 -0.34664562826E+02  0.21059104598E+02 -0.28368775474E+01  0.50528859864E+02  0.30000000042E+02 0.  0.
        -12    1    1    2    0    0  0.34664562826E+02 -0.21059104598E+02  0.28368775474E+01  0.40659140136E+02  0.00000000000E+00 0.  1.
         11    1    3    3    0    0 -0.13639680440E+02  0.32869779049E+01 -0.60457761296E+01  0.15277320299E+02  0.51100000000E-03 0. -1.
        -11    1    3    3    0    0 -0.24333442326E+02  0.18157461806E+02 -0.36843613935E+00  0.30363556776E+02  0.51100000000E-03 0.  1.
        -12    1    3    3    0    0  0.33085599402E+01 -0.38533511263E+00  0.35773347216E+01  0.48879827881E+01  0.00000000000E+00 0.  1.
</event>
<event>
 7    1  0.2702714E-011  0.5052886E+02  0.7816164E-02  0.1300439E+00
        -11   -1    0    0    0    0  0.00000000000E+00  0.00000000000E+00  0.45593999997E+02  0.45594000000E+02  0.51100000000E-03 0.  1.
         11   -1    0    0    0    0 -0.00000000000E+00 -0.00000000000E+00 -0.45593999997E+02  0.45594000000E+02  0.51100000000E-03 0. -1.
    9900012    2    1    2    0    0  0.39899545208E+02 -0.19471240790E+01 -0.75763398370E+01  0.50528856805E+02  0.29999990746E+02 0.  0.
        -12    1    1    2    0    0 -0.39899545208E+02  0.19471240790E+01  0.75763398370E+01  0.40659143195E+02  0.00000000000E+00 0.  1.
         11    1    3    3    0    0  0.43756681357E+01 -0.37161397057E+01 -0.25634157865E+01  0.62870713931E+01  0.51100000000E-03 0. -1.
        -11    1    3    3    0    0  0.30135992765E+02  0.11902189922E+02 -0.48640676177E+01  0.32764299762E+02  0.51100000000E-03 0.  1.
        -12    1    3    3    0    0  0.53878843073E+01 -0.10133174295E+02 -0.14885643283E+00  0.11477485650E+02  0.00000000000E+00 0.  1.
</event>
<event>
 7    1  0.2702714E-011  0.5052885E+02  0.7816164E-02  0.1300439E+00
        -11   -1    0    0    0    0  0.00000000000E+00  0.00000000000E+00  0.45593999997E+02  0.45594000000E+02  0.51100000000E-03 0. -1.
         11   -1    0    0    0    0 -0.00000000000E+00 -0.00000000000E+00 -0.45593999997E+02  0.45594000000E+02  0.51100000000E-03 0.  1.
    9900012    2    1    2    0    0  0.40554343179E+02 -0.15892293078E+01 -0.24466273277E+01  0.50528851143E+02  0.29999973536E+02 0.  0.
        -12    1    1    2    0    0 -0.40554343179E+02  0.15892293078E+01  0.24466273277E+01  0.40659148857E+02  0.00000000000E+00 0.  1.
         11    1    3    3    0    0  0.29049692493E+02  0.57665215239E+01 -0.74276466265E+00  0.29625818200E+02  0.51100000000E-03 0. -1.
        -11    1    3    3    0    0  0.12965777599E+02 -0.98193280622E+01  0.18155008696E+01  0.16365409742E+02  0.51100000000E-03 0.  1.
        -12    1    3    3    0    0 -0.14611269136E+01  0.24635772304E+01 -0.35193635346E+01  0.45376232013E+01  0.00000000000E+00 0.  1.
</event>
<event>
 7    1  0.2702714E-011  0.5052884E+02  0.7816164E-02  0.1300439E+00
        -11   -1    0    0    0    0  0.00000000000E+00  0.00000000000E+00  0.45593999997E+02  0.45594000000E+02  0.51100000000E-03 0. -1.
         11   -1    0    0    0    0 -0.00000000000E+00 -0.00000000000E+00 -0.45593999997E+02  0.45594000000E+02  0.51100000000E-03 0.  1.
    9900012    2    1    2    0    0 -0.17771087604E+02 -0.35084630446E+02  0.10316212124E+02  0.50528842596E+02  0.29999947555E+02 0.  0.
        -12    1    1    2    0    0  0.17771087604E+02  0.35084630446E+02 -0.10316212124E+02  0.40659157404E+02  0.00000000000E+00 0.  1.
         11    1    3    3    0    0  0.14880636006E+01 -0.59354195044E+01  0.21127724038E+01  0.64735882989E+01  0.51100000000E-03 0. -1.
        -11    1    3    3    0    0 -0.61995418169E+01  0.15368598674E+01 -0.50765770505E+01  0.81589148667E+01  0.51100000000E-03 0.  1.
         12    1    3    3    0    0 -0.13059609388E+02 -0.30686070809E+02  0.13280016770E+02  0.35896339431E+02  0.00000000000E+00 0. -1.
</event>
<event>
 7    1  0.2702714E-011  0.5052885E+02  0.7816164E-02  0.1300439E+00
        -11   -1    0    0    0    0  0.00000000000E+00  0.00000000000E+00  0.45593999997E+02  0.45594000000E+02  0.51100000000E-03 0. -1.
         11   -1    0    0    0    0 -0.00000000000E+00 -0.00000000000E+00 -0.45593999997E+02  0.45594000000E+02  0.51100000000E-03 0.  1.
    9900012    2    1    2    0    0  0.59665578065E+01  0.38468305916E+02  0.11736956551E+02  0.50528849478E+02  0.29999968474E+02 0.  0.
        -12    1    1    2    0    0 -0.59665578065E+01 -0.38468305916E+02 -0.11736956551E+02  0.40659150522E+02  0.00000000000E+00 0.  1.
         11    1    3    3    0    0 -0.80570957131E+00  0.15316680362E+02  0.17275013503E+02  0.23101427596E+02  0.51100000000E-03 0. -1.
        -11    1    3    3    0    0  0.13774474073E+01  0.60678561879E+00  0.24779466740E+01  0.28992706199E+01  0.51100000000E-03 0.  1.
         12    1    3    3    0    0  0.53948199705E+01  0.22544839935E+02 -0.80160036257E+01  0.24528151262E+02  0.00000000000E+00 0. -1.
</event>
<event>
 7    1  0.2702714E-011  0.5052886E+02  0.7816164E-02  0.1300439E+00
        -11   -1    0    0    0    0  0.00000000000E+00  0.00000000000E+00  0.45593999997E+02  0.45594000000E+02  0.51100000000E-03 0.  1.
         11   -1    0    0    0    0 -0.00000000000E+00 -0.00000000000E+00 -0.45593999997E+02  0.45594000000E+02  0.51100000000E-03 0. -1.
    9900012    2    1    2    0    0 -0.31892944195E+02  0.18626059397E+02 -0.17002218701E+02  0.50528863034E+02  0.30000009679E+02 0.  0.
        -12    1    1    2    0    0  0.31892944195E+02 -0.18626059397E+02  0.17002218701E+02  0.40659136966E+02  0.00000000000E+00 0.  1.
         11    1    3    3    0    0 -0.72135938035E+01 -0.12329502055E+01 -0.13828069643E+02  0.15645178557E+02  0.51100000000E-03 0. -1.
        -11    1    3    3    0    0 -0.19149136074E+01 -0.12853328923E+00  0.33818461535E+01  0.38884828143E+01  0.51100000000E-03 0.  1.
         12    1    3    3    0    0 -0.22764436784E+02  0.19987542892E+02 -0.65559952115E+01  0.30995201663E+02  0.00000000000E+00 0. -1.
</event>
<event>
 7    1  0.2702714E-011  0.5052889E+02  0.7816164E-02  0.1300439E+00
        -11   -1    0    0    0    0  0.00000000000E+00  0.00000000000E+00  0.45593999997E+02  0.45594000000E+02  0.51100000000E-03 0.  1.
         11   -1    0    0    0    0 -0.00000000000E+00 -0.00000000000E+00 -0.45593999997E+02  0.45594000000E+02  0.51100000000E-03 0. -1.
    9900012    2    1    2    0    0  0.11202733495E+02 -0.14045663129E+02 -0.36474391997E+02  0.50528890787E+02  0.30000094035E+02 0.  0.
        -12    1    1    2    0    0 -0.11202733495E+02  0.14045663129E+02  0.36474391997E+02  0.40659109213E+02  0.00000000000E+00 0.  1.
         11    1    3    3    0    0  0.35002222574E+01 -0.64718158873E+00 -0.32140328318E+01  0.47958739730E+01  0.51100000000E-03 0. -1.
        -11    1    3    3    0    0 -0.55548132186E+01  0.20218406422E+01  0.89842000879E+00  0.59792096676E+01  0.51100000000E-03 0.  1.
         12    1    3    3    0    0  0.13257324456E+02 -0.15420322182E+02 -0.34158779174E+02  0.39753807146E+02  0.00000000000E+00 0. -1.
</event>
<event>
 7    1  0.2702714E-011  0.5052887E+02  0.7816164E-02  0.1300439E+00
        -11   -1    0    0    0    0  0.00000000000E+00  0.00000000000E+00  0.45593999997E+02  0.45594000000E+02  0.51100000000E-03 0.  1.
         11   -1    0    0    0    0 -0.00000000000E+00 -0.00000000000E+00 -0.45593999997E+02  0.45594000000E+02  0.51100000000E-03 0. -1.
    9900012    2    1    2    0    0  0.19380441837E+02  0.10829296028E+02 -0.34063028672E+02  0.50528866948E+02  0.30000021574E+02 0.  0.
        -12    1    1    2    0    0 -0.19380441837E+02 -0.10829296028E+02  0.34063028672E+02  0.40659133052E+02  0.00000000000E+00 0.  1.
         11    1    3    3    0    0  0.19036398845E+01  0.47289833145E+00 -0.23426675064E+02  0.23508649099E+02  0.51100000000E-03 0. -1.
        -11    1    3    3    0    0  0.51126786444E+01  0.16912642901E+01 -0.10636461110E+02  0.11922003314E+02  0.51100000000E-03 0.  1.
        -12    1    3    3    0    0  0.12364123308E+02  0.86651334065E+01  0.10750166799E-03  0.15098214535E+02  0.00000000000E+00 0.  1.
</event>
<event>
 7    1  0.2702714E-011  0.5052886E+02  0.7816164E-02  0.1300439E+00
        -11   -1    0    0    0    0  0.00000000000E+00  0.00000000000E+00  0.45593999997E+02  0.45594000000E+02  0.51100000000E-03 0.  1.
         11   -1    0    0    0    0 -0.00000000000E+00 -0.00000000000E+00 -0.45593999997E+02  0.45594000000E+02  0.51100000000E-03 0. -1.
    9900012    2    1    2    0    0 -0.34184570415E+02  0.13108244450E+02 -0.17684877443E+02  0.50528858135E+02  0.29999994788E+02 0.  0.
        -12    1    1    2    0    0  0.34184570415E+02 -0.13108244450E+02  0.17684877443E+02  0.40659141865E+02  0.00000000000E+00 0.  1.
         11    1    3    3    0    0 -0.51233601495E+01  0.31174244569E+00 -0.56372081629E+01  0.76239175433E+01  0.51100000000E-03 0. -1.
        -11    1    3    3    0    0 -0.69463310153E+01  0.15908996879E+02 -0.10992718253E+02  0.20547203000E+02  0.51100000000E-03 0.  1.
        -12    1    3    3    0    0 -0.22114879250E+02 -0.31124948746E+01 -0.10549510272E+01  0.22357737592E+02  0.00000000000E+00 0.  1.
</event>
<event>
 7    1  0.2702714E-011  0.5052886E+02  0.7816164E-02  0.1300439E+00
        -11   -1    0    0    0    0  0.00000000000E+00  0.00000000000E+00  0.45593999997E+02  0.45594000000E+02  0.51100000000E-03 0.  1.
         11   -1    0    0    0    0 -0.00000000000E+00 -0.00000000000E+00 -0.45593999997E+02  0.45594000000E+02  0.51100000000E-03 0. -1.
    9900012    2    1    2    0    0 -0.27961140746E+02  0.11733268772E+01 -0.29495147722E+02  0.50528858016E+02  0.29999994424E+02 0.  0.
        -12    1    1    2    0    0  0.27961140746E+02 -0.11733268772E+01  0.29495147722E+02  0.40659141984E+02  0.00000000000E+00 0.  1.
         11    1    3    3    0    0 -0.65884772793E+01 -0.70727116974E+01 -0.36433596386E+01  0.10329828330E+02  0.51100000000E-03 0. -1.
        -11    1    3    3    0    0 -0.13902525496E+02  0.45176369209E+01 -0.17867706950E+01  0.14726907629E+02  0.51100000000E-03 0.  1.
         12    1    3    3    0    0 -0.74701379705E+01  0.37284016537E+01 -0.24065017388E+02  0.25472122057E+02  0.00000000000E+00 0. -1.
</event>
<event>
 7    1  0.2702714E-011  0.5052888E+02  0.7816164E-02  0.1300439E+00
        -11   -1    0    0    0    0  0.00000000000E+00  0.00000000000E+00  0.45593999997E+02  0.45594000000E+02  0.51100000000E-03 0.  1.
         11   -1    0    0    0    0 -0.00000000000E+00 -0.00000000000E+00 -0.45593999997E+02  0.45594000000E+02  0.51100000000E-03 0. -1.
    9900012    2    1    2    0    0 -0.10884037623E+02  0.39046434353E+02 -0.31745959293E+01  0.50528875932E+02  0.30000048883E+02 0.  0.
        -12    1    1    2    0    0  0.10884037623E+02 -0.39046434353E+02  0.31745959293E+01  0.40659124068E+02  0.00000000000E+00 0.  1.
         11    1    3    3    0    0 -0.20155489587E+01  0.18488148107E+02  0.12431546068E+02  0.22370011085E+02  0.51100000000E-03 0. -1.
        -11    1    3    3    0    0 -0.30706090962E+01  0.14054682459E+01 -0.16263237802E+01  0.37481876301E+01  0.51100000000E-03 0.  1.
         12    1    3    3    0    0 -0.57978795681E+01  0.19152818000E+02 -0.13979818217E+02  0.24410677217E+02  0.00000000000E+00 0. -1.
</event>
<event>
 7    1  0.2702714E-011  0.5052885E+02  0.7816164E-02  0.1300439E+00
        -11   -1    0    0    0    0  0.00000000000E+00  0.00000000000E+00  0.45593999997E+02  0.45594000000E+02  0.51100000000E-03 0.  1.
         11   -1    0    0    0    0 -0.00000000000E+00 -0.00000000000E+00 -0.45593999997E+02  0.45594000000E+02  0.51100000000E-03 0. -1.
    9900012    2    1    2    0    0 -0.12618366317E+02 -0.12285610708E+02 -0.36647059743E+02  0.50528851131E+02  0.29999973496E+02 0.  0.
        -12    1    1    2    0    0  0.12618366317E+02  0.12285610708E+02  0.36647059743E+02  0.40659148869E+02  0.00000000000E+00 0.  1.
         11    1    3    3    0    0 -0.90463216311E+01  0.23337064933E+01 -0.17390217251E+01  0.95029636362E+01  0.51100000000E-03 0.  1.
        -11    1    3    3    0    0 -0.47022207297E+01 -0.75374918327E+01 -0.48448013847E+01  0.10119128601E+02  0.51100000000E-03 0. -1.
        -12    1    3    3    0    0  0.11301760438E+01 -0.70818253686E+01 -0.30063236633E+02  0.30906758894E+02  0.00000000000E+00 0.  1.
</event>
<event>
 7    1  0.2702714E-011  0.5052886E+02  0.7816164E-02  0.1300439E+00
        -11   -1    0    0    0    0  0.00000000000E+00  0.00000000000E+00  0.45593999997E+02  0.45594000000E+02  0.51100000000E-03 0.  1.
         11   -1    0    0    0    0 -0.00000000000E+00 -0.00000000000E+00 -0.45593999997E+02  0.45594000000E+02  0.51100000000E-03 0. -1.
    9900012    2    1    2    0    0  0.21799042697E+02 -0.21613193760E+02 -0.26661537138E+02  0.50528856261E+02  0.29999989091E+02 0.  0.
        -12    1    1    2    0    0 -0.21799042697E+02  0.21613193760E+02  0.26661537138E+02  0.40659143739E+02  0.00000000000E+00 0.  1.
         11    1    3    3    0    0  0.81473386868E+01 -0.18578988472E+02 -0.19385150032E+02  0.28059614793E+02  0.51100000000E-03 0. -1.
        -11    1    3    3    0    0 -0.25730063675E+01 -0.17394499141E+01 -0.52056555320E+01  0.60617569689E+01  0.51100000000E-03 0.  1.
        -12    1    3    3    0    0  0.16224710378E+02 -0.12947553738E+01 -0.20707315741E+01  0.16407484499E+02  0.00000000000E+00 0.  1.
</event>
<event>
 7    1  0.2702714E-011  0.5052883E+02  0.7816164E-02  0.1300439E+00
        -11   -1    0    0    0    0  0.00000000000E+00  0.00000000000E+00  0.45593999997E+02  0.45594000000E+02  0.51100000000E-03 0.  1.
         11   -1    0    0    0    0 -0.00000000000E+00 -0.00000000000E+00 -0.45593999997E+02  0.45594000000E+02  0.51100000000E-03 0. -1.
    9900012    2    1    2    0    0  0.24794816895E+01  0.12035254105E+02 -0.38757870572E+02  0.50528834956E+02  0.29999924331E+02 0.  0.
        -12    1    1    2    0    0 -0.24794816895E+01 -0.12035254105E+02  0.38757870572E+02  0.40659165044E+02  0.00000000000E+00 0.  1.
         11    1    3    3    0    0 -0.50224210675E+01  0.27724271876E-01 -0.22186064463E+01  0.54906918361E+01  0.51100000000E-03 0. -1.
        -11    1    3    3    0    0  0.84070125679E+01 -0.57449173567E+00 -0.29313557144E+02  0.30500697267E+02  0.51100000000E-03 0.  1.
         12    1    3    3    0    0 -0.90510981085E+00  0.12582021569E+02 -0.72257069815E+01  0.14537445852E+02  0.00000000000E+00 0. -1.
</event>
<event>
 7    1  0.2702714E-011  0.5052888E+02  0.7816164E-02  0.1300439E+00
        -11   -1    0    0    0    0  0.00000000000E+00  0.00000000000E+00  0.45593999997E+02  0.45594000000E+02  0.51100000000E-03 0.  1.
         11   -1    0    0    0    0 -0.00000000000E+00 -0.00000000000E+00 -0.45593999997E+02  0.45594000000E+02  0.51100000000E-03 0. -1.
    9900012    2    1    2    0    0  0.26473299370E+02  0.30359767292E+02  0.55328702181E+01  0.50528884142E+02  0.30000073838E+02 0.  0.
        -12    1    1    2    0    0 -0.26473299370E+02 -0.30359767292E+02 -0.55328702181E+01  0.40659115858E+02  0.00000000000E+00 0.  1.
         11    1    3    3    0    0  0.20274364960E+02  0.18434976961E+02 -0.17092651269E+01  0.27455779676E+02  0.51100000000E-03 0. -1.
        -11    1    3    3    0    0  0.50534276993E+01  0.15883803614E+02  0.26074996918E+01  0.16871022602E+02  0.51100000000E-03 0.  1.
         12    1    3    3    0    0  0.11455067102E+01 -0.39590132832E+01  0.46346356532E+01  0.62020818632E+01  0.00000000000E+00 0. -1.
</event>
<event>
 7    1  0.2702714E-011  0.5052886E+02  0.7816164E-02  0.1300439E+00
        -11   -1    0    0    0    0  0.00000000000E+00  0.00000000000E+00  0.45593999997E+02  0.45594000000E+02  0.51100000000E-03 0.  1.
         11   -1    0    0    0    0 -0.00000000000E+00 -0.00000000000E+00 -0.45593999997E+02  0.45594000000E+02  0.51100000000E-03 0. -1.
    9900012    2    1    2    0    0  0.14539158252E+02 -0.32219764531E+02 -0.20091420690E+02  0.50528861612E+02  0.30000005355E+02 0.  0.
        -12    1    1    2    0    0 -0.14539158252E+02  0.32219764531E+02  0.20091420690E+02  0.40659138388E+02  0.00000000000E+00 0.  1.
         11    1    3    3    0    0  0.14160234891E+02 -0.10361219236E+02 -0.98722642284E+01  0.20132777193E+02  0.51100000000E-03 0. -1.
        -11    1    3    3    0    0  0.51384129094E+00 -0.20055327808E+01 -0.10336978881E+02  0.10542263858E+02  0.51100000000E-03 0.  1.
        -12    1    3    3    0    0 -0.13491792999E+00 -0.19853012515E+02  0.11782241949E+00  0.19853820561E+02  0.00000000000E+00 0.  1.
</event>
<event>
 7    1  0.2702714E-011  0.5052886E+02  0.7816164E-02  0.1300439E+00
        -11   -1    0    0    0    0  0.00000000000E+00  0.00000000000E+00  0.45593999997E+02  0.45594000000E+02  0.51100000000E-03 0.  1.
         11   -1    0    0    0    0 -0.00000000000E+00 -0.00000000000E+00 -0.45593999997E+02  0.45594000000E+02  0.51100000000E-03 0. -1.
    9900012    2    1    2    0    0  0.34107763517E+02 -0.26391041388E+01 -0.21974104885E+02  0.50528859720E+02  0.29999999605E+02 0.  0.
        -12    1    1    2    0    0 -0.34107763517E+02  0.26391041388E+01  0.21974104885E+02  0.40659140280E+02  0.00000000000E+00 0.  1.
         11    1    3    3    0    0  0.19494741929E+02 -0.20883731125E+01 -0.38056863472E+01  0.19972218554E+02  0.51100000000E-03 0. -1.
        -11    1    3    3    0    0  0.17040112899E+02 -0.54789089385E+01 -0.94206744542E+01  0.20227036318E+02  0.51100000000E-03 0.  1.
        -12    1    3    3    0    0 -0.24270913105E+01  0.49281779122E+01 -0.87477440840E+01  0.10329604848E+02  0.00000000000E+00 0.  1.
</event>
<event>
 7    1  0.2702714E-011  0.5052885E+02  0.7816164E-02  0.1300439E+00
        -11   -1    0    0    0    0  0.00000000000E+00  0.00000000000E+00  0.45593999997E+02  0.45594000000E+02  0.51100000000E-03 0.  1.
         11   -1    0    0    0    0 -0.00000000000E+00 -0.00000000000E+00 -0.45593999997E+02  0.45594000000E+02  0.51100000000E-03 0. -1.
    9900012    2    1    2    0    0  0.34322809116E+02  0.21339737406E+02  0.44414503887E+01  0.50528854661E+02  0.29999984228E+02 0.  0.
        -12    1    1    2    0    0 -0.34322809116E+02 -0.21339737406E+02 -0.44414503887E+01  0.40659145339E+02  0.00000000000E+00 0.  1.
         11    1    3    3    0    0  0.68057060915E+01  0.28496717441E+01  0.72398362888E+01  0.10336996382E+02  0.51100000000E-03 0. -1.
        -11    1    3    3    0    0  0.53000571603E+01  0.16980776543E+02 -0.38087664729E+00  0.17792763843E+02  0.51100000000E-03 0.  1.
         12    1    3    3    0    0  0.22217045864E+02  0.15092891187E+01 -0.24175092529E+01  0.22399094436E+02  0.00000000000E+00 0. -1.
</event>
<event>
 7    1  0.2702714E-011  0.5052885E+02  0.7816164E-02  0.1300439E+00
        -11   -1    0    0    0    0  0.00000000000E+00  0.00000000000E+00  0.45593999997E+02  0.45594000000E+02  0.51100000000E-03 0. -1.
         11   -1    0    0    0    0 -0.00000000000E+00 -0.00000000000E+00 -0.45593999997E+02  0.45594000000E+02  0.51100000000E-03 0.  1.
    9900012    2    1    2    0    0 -0.32079559836E+02 -0.14755294975E+02 -0.20158120937E+02  0.50528846924E+02  0.29999960711E+02 0.  0.
        -12    1    1    2    0    0  0.32079559836E+02  0.14755294975E+02  0.20158120937E+02  0.40659153076E+02  0.00000000000E+00 0.  1.
         11    1    3    3    0    0 -0.16264097987E+02 -0.99847828656E+01  0.17744456946E+01  0.19166779332E+02  0.51100000000E-03 0. -1.
        -11    1    3    3    0    0  0.13572859963E+01 -0.34990013763E+01 -0.37556690953E+00  0.37717750028E+01  0.51100000000E-03 0.  1.
         12    1    3    3    0    0 -0.17172747846E+02 -0.12715107334E+01 -0.21556999722E+02  0.27590292589E+02  0.00000000000E+00 0. -1.
</event>
<event>
 7    1  0.2702714E-011  0.5052886E+02  0.7816164E-02  0.1300439E+00
        -11   -1    0    0    0    0  0.00000000000E+00  0.00000000000E+00  0.45593999997E+02  0.45594000000E+02  0.51100000000E-03 0.  1.
         11   -1    0    0    0    0 -0.00000000000E+00 -0.00000000000E+00 -0.45593999997E+02  0.45594000000E+02  0.51100000000E-03 0. -1.
    9900012    2    1    2    0    0 -0.13534616107E+02 -0.30979259621E+02 -0.22589052910E+02  0.50528859931E+02  0.30000000245E+02 0.  0.
        -12    1    1    2    0    0  0.13534616107E+02  0.30979259621E+02  0.22589052910E+02  0.40659140069E+02  0.00000000000E+00 0.  1.
         11    1    3    3    0    0 -0.57754131125E+01 -0.99639021501E+01  0.15092419314E+01  0.11615186359E+02  0.51100000000E-03 0.  1.
        -11    1    3    3    0    0  0.98050548473E+00 -0.18603283246E+02 -0.23271642687E+02  0.29809610735E+02  0.51100000000E-03 0. -1.
         12    1    3    3    0    0 -0.87397084788E+01 -0.24120742252E+01 -0.82665215386E+00  0.91040628374E+01  0.00000000000E+00 0. -1.
</event>
<event>
 7    1  0.2702714E-011  0.5052886E+02  0.7816164E-02  0.1300439E+00
        -11   -1    0    0    0    0  0.00000000000E+00  0.00000000000E+00  0.45593999997E+02  0.45594000000E+02  0.51100000000E-03 0. -1.
         11   -1    0    0    0    0 -0.00000000000E+00 -0.00000000000E+00 -0.45593999997E+02  0.45594000000E+02  0.51100000000E-03 0.  1.
    9900012    2    1    2    0    0 -0.53772474945E+01 -0.99776478983E+01  0.39047372281E+02  0.50528861664E+02  0.30000005513E+02 0.  0.
        -12    1    1    2    0    0  0.53772474945E+01  0.99776478983E+01 -0.39047372281E+02  0.40659138336E+02  0.00000000000E+00 0.  1.
         11    1    3    3    0    0 -0.30140183919E+01 -0.76881575231E+01  0.20998191631E+02  0.22563601774E+02  0.51100000000E-03 0.  1.
        -11    1    3    3    0    0 -0.62234323392E+01 -0.77790783867E+01  0.18735384531E+02  0.21219326201E+02  0.51100000000E-03 0. -1.
        -12    1    3    3    0    0  0.38602032367E+01  0.54895880115E+01 -0.68620388151E+00  0.67459336886E+01  0.00000000000E+00 0.  1.
</event>
<event>
 7    1  0.2831804E-011  0.5052887E+02  0.7816164E-02  0.1300439E+00
        -11   -1    0    0    0    0  0.00000000000E+00  0.00000000000E+00  0.45593999997E+02  0.45594000000E+02  0.51100000000E-03 0. -1.
         11   -1    0    0    0    0 -0.00000000000E+00 -0.00000000000E+00 -0.45593999997E+02  0.45594000000E+02  0.51100000000E-03 0.  1.
    9900012    2    1    2    0    0  0.21178628766E+02  0.31610831173E+02  0.14331302376E+02  0.50528865827E+02  0.30000018169E+02 0.  0.
        -12    1    1    2    0    0 -0.21178628766E+02 -0.31610831173E+02 -0.14331302376E+02  0.40659134173E+02  0.00000000000E+00 0.  1.
         11    1    3    3    0    0  0.12634657859E+02  0.18014252418E+01  0.87969179656E+01  0.15500499285E+02  0.51100000000E-03 0. -1.
        -11    1    3    3    0    0  0.76629535846E+01  0.91611726893E+01 -0.35397264502E+01  0.12457030396E+02  0.51100000000E-03 0.  1.
        -12    1    3    3    0    0  0.88101732222E+00  0.20648233242E+02  0.90741108611E+01  0.22571336147E+02  0.00000000000E+00 0.  1.
</event>
<event>
 7    1  0.2702714E-011  0.5052886E+02  0.7816164E-02  0.1300439E+00
        -11   -1    0    0    0    0  0.00000000000E+00  0.00000000000E+00  0.45593999997E+02  0.45594000000E+02  0.51100000000E-03 0.  1.
         11   -1    0    0    0    0 -0.00000000000E+00 -0.00000000000E+00 -0.45593999997E+02  0.45594000000E+02  0.51100000000E-03 0. -1.
    9900012    2    1    2    0    0  0.82614931332E-01 -0.22930400405E+02 -0.33576114489E+02  0.50528861394E+02  0.30000004695E+02 0.  0.
        -12    1    1    2    0    0 -0.82614931332E-01  0.22930400405E+02  0.33576114489E+02  0.40659138606E+02  0.00000000000E+00 0.  1.
         11    1    3    3    0    0  0.24632414892E+01 -0.63426779343E+01 -0.82669171559E+01  0.10706962293E+02  0.51100000000E-03 0. -1.
        -11    1    3    3    0    0  0.42069596026E+01  0.49691125808E+01 -0.11979847519E+02  0.13634784039E+02  0.51100000000E-03 0.  1.
         12    1    3    3    0    0 -0.65875861605E+01 -0.21556835052E+02 -0.13329349814E+02  0.26187115063E+02  0.00000000000E+00 0. -1.
</event>
<event>
 7    1  0.2702714E-011  0.5052886E+02  0.7816164E-02  0.1300439E+00
        -11   -1    0    0    0    0  0.00000000000E+00  0.00000000000E+00  0.45593999997E+02  0.45594000000E+02  0.51100000000E-03 0.  1.
         11   -1    0    0    0    0 -0.00000000000E+00 -0.00000000000E+00 -0.45593999997E+02  0.45594000000E+02  0.51100000000E-03 0. -1.
    9900012    2    1    2    0    0 -0.38195976155E+01  0.31028161908E+02 -0.25996715520E+02  0.50528863571E+02  0.30000011310E+02 0.  0.
        -12    1    1    2    0    0  0.38195976155E+01 -0.31028161908E+02  0.25996715520E+02  0.40659136429E+02  0.00000000000E+00 0.  1.
         11    1    3    3    0    0  0.52558168984E+01  0.17319586528E+02 -0.10306315729E+02  0.20828150013E+02  0.51100000000E-03 0. -1.
        -11    1    3    3    0    0 -0.10742635820E+02  0.16754600190E+02 -0.16810442951E+02  0.26052098655E+02  0.51100000000E-03 0.  1.
        -12    1    3    3    0    0  0.16672213058E+01 -0.30460248105E+01  0.11200431599E+01  0.36486149028E+01  0.00000000000E+00 0.  1.
</event>
<event>
 7    1  0.2702714E-011  0.5052886E+02  0.7816164E-02  0.1300439E+00
        -11   -1    0    0    0    0  0.00000000000E+00  0.00000000000E+00  0.45593999997E+02  0.45594000000E+02  0.51100000000E-03 0.  1.
         11   -1    0    0    0    0 -0.00000000000E+00 -0.00000000000E+00 -0.45593999997E+02  0.45594000000E+02  0.51100000000E-03 0. -1.
    9900012    2    1    2    0    0  0.13517730641E+02  0.36462641624E+01 -0.38172519491E+02  0.50528861687E+02  0.30000005584E+02 0.  0.
        -12    1    1    2    0    0 -0.13517730641E+02 -0.36462641624E+01  0.38172519491E+02  0.40659138313E+02  0.00000000000E+00 0.  1.
         11    1    3    3    0    0  0.34615892502E+01 -0.64106244433E+01  0.11465171159E+01  0.73751750927E+01  0.51100000000E-03 0. -1.
        -11    1    3    3    0    0  0.77603287960E+01  0.36253919784E+00 -0.18881733500E+02  0.20417492449E+02  0.51100000000E-03 0.  1.
        -12    1    3    3    0    0  0.22958125953E+01  0.96943494079E+01 -0.20437303107E+02  0.22736194145E+02  0.00000000000E+00 0.  1.
</event>
<event>
 7    1  0.2702714E-011  0.5052886E+02  0.7816164E-02  0.1300439E+00
        -11   -1    0    0    0    0  0.00000000000E+00  0.00000000000E+00  0.45593999997E+02  0.45594000000E+02  0.51100000000E-03 0. -1.
         11   -1    0    0    0    0 -0.00000000000E+00 -0.00000000000E+00 -0.45593999997E+02  0.45594000000E+02  0.51100000000E-03 0.  1.
    9900012    2    1    2    0    0  0.18483529002E+02  0.34172692729E+02  0.11989660526E+02  0.50528859180E+02  0.29999997963E+02 0.  0.
        -12    1    1    2    0    0 -0.18483529002E+02 -0.34172692729E+02 -0.11989660526E+02  0.40659140820E+02  0.00000000000E+00 0.  1.
         11    1    3    3    0    0  0.10455032852E+02  0.29828226322E+02  0.33822933017E+00  0.31609258086E+02  0.51100000000E-03 0. -1.
        -11    1    3    3    0    0  0.10575369146E+01 -0.37038424074E+00 -0.23387172549E+01  0.25932927855E+01  0.51100000000E-03 0.  1.
         12    1    3    3    0    0  0.69709592352E+01  0.47148506479E+01  0.13990148451E+02  0.16326308308E+02  0.00000000000E+00 0. -1.
</event>
<event>
 7    1  0.2702714E-011  0.5052884E+02  0.7816164E-02  0.1300439E+00
        -11   -1    0    0    0    0  0.00000000000E+00  0.00000000000E+00  0.45593999997E+02  0.45594000000E+02  0.51100000000E-03 0. -1.
         11   -1    0    0    0    0 -0.00000000000E+00 -0.00000000000E+00 -0.45593999997E+02  0.45594000000E+02  0.51100000000E-03 0.  1.
    9900012    2    1    2    0    0 -0.35723675894E+02 -0.18349277994E+02 -0.63474655499E+01  0.50528839394E+02  0.29999937821E+02 0.  0.
        -12    1    1    2    0    0  0.35723675894E+02  0.18349277994E+02  0.63474655499E+01  0.40659160606E+02  0.00000000000E+00 0.  1.
         11    1    3    3    0    0 -0.18239535200E+01 -0.65054813763E+01 -0.23971879921E+01  0.71690030626E+01  0.51100000000E-03 0.  1.
        -11    1    3    3    0    0 -0.21190908042E+02 -0.55464238648E+01 -0.13982415478E+02  0.25987022611E+02  0.51100000000E-03 0. -1.
         12    1    3    3    0    0 -0.12708814332E+02 -0.62973727534E+01  0.10032137920E+02  0.17372813720E+02  0.00000000000E+00 0. -1.
</event>
<event>
 7    1  0.2702714E-011  0.5052885E+02  0.7816164E-02  0.1300439E+00
        -11   -1    0    0    0    0  0.00000000000E+00  0.00000000000E+00  0.45593999997E+02  0.45594000000E+02  0.51100000000E-03 0.  1.
         11   -1    0    0    0    0 -0.00000000000E+00 -0.00000000000E+00 -0.45593999997E+02  0.45594000000E+02  0.51100000000E-03 0. -1.
    9900012    2    1    2    0    0  0.31875156138E+02 -0.54108063756E+01 -0.24654894622E+02  0.50528853019E+02  0.29999979236E+02 0.  0.
        -12    1    1    2    0    0 -0.31875156138E+02  0.54108063756E+01  0.24654894622E+02  0.40659146981E+02  0.00000000000E+00 0.  1.
         11    1    3    3    0    0  0.90100077249E+01 -0.76696483916E+00 -0.22751924477E+02  0.24483025588E+02  0.51100000000E-03 0. -1.
        -11    1    3    3    0    0  0.41630139900E+01  0.35939235891E+01  0.18935579429E+00  0.55029835656E+01  0.51100000000E-03 0.  1.
        -12    1    3    3    0    0  0.18702134423E+02 -0.82377651256E+01 -0.20923259387E+01  0.20542843865E+02  0.00000000000E+00 0.  1.
</event>
<event>
 7    1  0.2702714E-011  0.5052885E+02  0.7816164E-02  0.1300439E+00
        -11   -1    0    0    0    0  0.00000000000E+00  0.00000000000E+00  0.45593999997E+02  0.45594000000E+02  0.51100000000E-03 0.  1.
         11   -1    0    0    0    0 -0.00000000000E+00 -0.00000000000E+00 -0.45593999997E+02  0.45594000000E+02  0.51100000000E-03 0. -1.
    9900012    2    1    2    0    0 -0.60978988228E+00 -0.29160964869E+02 -0.28327242797E+02  0.50528850965E+02  0.29999972992E+02 0.  0.
        -12    1    1    2    0    0  0.60978988228E+00  0.29160964869E+02  0.28327242797E+02  0.40659149035E+02  0.00000000000E+00 0.  1.
         11    1    3    3    0    0  0.51100204961E+01  0.73242815617E+00 -0.46668515706E+01  0.69590419109E+01  0.51100000000E-03 0. -1.
        -11    1    3    3    0    0 -0.74092337053E+01 -0.44865366350E+01  0.21480105712E+00  0.86644038936E+01  0.51100000000E-03 0.  1.
         12    1    3    3    0    0  0.16894233269E+01 -0.25406856391E+02 -0.23875192283E+02  0.34905405160E+02  0.00000000000E+00 0. -1.
</event>
<event>
 7    1  0.2702714E-011  0.5052886E+02  0.7816164E-02  0.1300439E+00
        -11   -1    0    0    0    0  0.00000000000E+00  0.00000000000E+00  0.45593999997E+02  0.45594000000E+02  0.51100000000E-03 0.  1.
         11   -1    0    0    0    0 -0.00000000000E+00 -0.00000000000E+00 -0.45593999997E+02  0.45594000000E+02  0.51100000000E-03 0. -1.
    9900012    2    1    2    0    0  0.39867427458E+02  0.72668378746E+01  0.33085651760E+01  0.50528864392E+02  0.30000013807E+02 0.  0.
        -12    1    1    2    0    0 -0.39867427458E+02 -0.72668378746E+01 -0.33085651760E+01  0.40659135608E+02  0.00000000000E+00 0.  1.
         11    1    3    3    0    0  0.38061019292E+01  0.19817093064E+01 -0.49660444113E+01  0.65631685204E+01  0.51100000000E-03 0. -1.
        -11    1    3    3    0    0  0.10751968235E+02 -0.86898286739E+01  0.56533792972E+01  0.14935817388E+02  0.51100000000E-03 0.  1.
         12    1    3    3    0    0  0.25309357294E+02  0.13974957242E+02  0.26212302900E+01  0.29029878484E+02  0.00000000000E+00 0. -1.
</event>
<event>
 7    1  0.2702714E-011  0.5052886E+02  0.7816164E-02  0.1300439E+00
        -11   -1    0    0    0    0  0.00000000000E+00  0.00000000000E+00  0.45593999997E+02  0.45594000000E+02  0.51100000000E-03 0.  1.
         11   -1    0    0    0    0 -0.00000000000E+00 -0.00000000000E+00 -0.45593999997E+02  0.45594000000E+02  0.51100000000E-03 0. -1.
    9900012    2    1    2    0    0  0.25528851302E+02 -0.18269591493E+02 -0.25839225304E+02  0.50528858513E+02  0.29999995937E+02 0.  0.
        -12    1    1    2    0    0 -0.25528851302E+02  0.18269591493E+02  0.25839225304E+02  0.40659141487E+02  0.00000000000E+00 0.  1.
         11    1    3    3    0    0  0.21841879977E+02 -0.12102962092E+01 -0.90423072506E+01  0.23670569459E+02  0.51100000000E-03 0.  1.
        -11    1    3    3    0    0 -0.10987345250E+01 -0.28245264354E+00 -0.65039818351E+01  0.66021797177E+01  0.51100000000E-03 0. -1.
        -12    1    3    3    0    0  0.47857058500E+01 -0.16776842640E+02 -0.10292936219E+02  0.20256109336E+02  0.00000000000E+00 0.  1.
</event>
<event>
 7    1  0.2702714E-011  0.5052887E+02  0.7816164E-02  0.1300439E+00
        -11   -1    0    0    0    0  0.00000000000E+00  0.00000000000E+00  0.45593999997E+02  0.45594000000E+02  0.51100000000E-03 0.  1.
         11   -1    0    0    0    0 -0.00000000000E+00 -0.00000000000E+00 -0.45593999997E+02  0.45594000000E+02  0.51100000000E-03 0. -1.
    9900012    2    1    2    0    0 -0.23734217246E+02  0.33004565272E+02  0.74217962423E+00  0.50528865385E+02  0.30000016823E+02 0.  0.
        -12    1    1    2    0    0  0.23734217246E+02 -0.33004565272E+02 -0.74217962423E+00  0.40659134615E+02  0.00000000000E+00 0.  1.
         11    1    3    3    0    0 -0.11114586710E+02  0.10941304249E+02 -0.20133243298E+01  0.15725763941E+02  0.51100000000E-03 0.  1.
        -11    1    3    3    0    0 -0.61576008124E+01  0.22567032382E+01  0.10663473175E+02  0.12518722686E+02  0.51100000000E-03 0. -1.
         12    1    3    3    0    0 -0.64620297232E+01  0.19806557785E+02 -0.79079692208E+01  0.22284378758E+02  0.00000000000E+00 0. -1.
</event>
<event>
 7    1  0.2702714E-011  0.5052886E+02  0.7816164E-02  0.1300439E+00
        -11   -1    0    0    0    0  0.00000000000E+00  0.00000000000E+00  0.45593999997E+02  0.45594000000E+02  0.51100000000E-03 0.  1.
         11   -1    0    0    0    0 -0.00000000000E+00 -0.00000000000E+00 -0.45593999997E+02  0.45594000000E+02  0.51100000000E-03 0. -1.
    9900012    2    1    2    0    0  0.21717776568E+02 -0.12375011515E+02 -0.32068102461E+02  0.50528856816E+02  0.29999990776E+02 0.  0.
        -12    1    1    2    0    0 -0.21717776568E+02  0.12375011515E+02  0.32068102461E+02  0.40659143184E+02  0.00000000000E+00 0.  1.
         11    1    3    3    0    0  0.11672564800E+02  0.56438801085E+00 -0.10849321828E+02  0.15946005369E+02  0.51100000000E-03 0. -1.
        -11    1    3    3    0    0  0.10230462701E+02 -0.32613502924E+01  0.55739342691E+00  0.10752183987E+02  0.51100000000E-03 0.  1.
         12    1    3    3    0    0 -0.18525093270E+00 -0.96780492338E+01 -0.21776174060E+02  0.23830667459E+02  0.00000000000E+00 0. -1.
</event>
<event>
 7    1  0.2702714E-011  0.5052886E+02  0.7816164E-02  0.1300439E+00
        -11   -1    0    0    0    0  0.00000000000E+00  0.00000000000E+00  0.45593999997E+02  0.45594000000E+02  0.51100000000E-03 0. -1.
         11   -1    0    0    0    0 -0.00000000000E+00 -0.00000000000E+00 -0.45593999997E+02  0.45594000000E+02  0.51100000000E-03 0.  1.
    9900012    2    1    2    0    0 -0.41395956719E+01 -0.11922472308E+02  0.38650792181E+02  0.50528864071E+02  0.30000012830E+02 0.  0.
        -12    1    1    2    0    0  0.41395956719E+01  0.11922472308E+02 -0.38650792181E+02  0.40659135929E+02  0.00000000000E+00 0.  1.
         11    1    3    3    0    0  0.82663632984E+01 -0.76413382771E+01  0.26603971657E+02  0.28887611896E+02  0.51100000000E-03 0. -1.
        -11    1    3    3    0    0 -0.20501207552E+01  0.36482357708E+01  0.48728828498E+00  0.42130831328E+01  0.51100000000E-03 0.  1.
        -12    1    3    3    0    0 -0.10355838215E+02 -0.79293698013E+01  0.11559532239E+02  0.17428169042E+02  0.00000000000E+00 0.  1.
</event>
<event>
 7    1  0.2702714E-011  0.5052885E+02  0.7816164E-02  0.1300439E+00
        -11   -1    0    0    0    0  0.00000000000E+00  0.00000000000E+00  0.45593999997E+02  0.45594000000E+02  0.51100000000E-03 0.  1.
         11   -1    0    0    0    0 -0.00000000000E+00 -0.00000000000E+00 -0.45593999997E+02  0.45594000000E+02  0.51100000000E-03 0. -1.
    9900012    2    1    2    0    0 -0.23781651978E+02  0.29756346406E+02 -0.14218262330E+02  0.50528854584E+02  0.29999983994E+02 0.  0.
        -12    1    1    2    0    0  0.23781651978E+02 -0.29756346406E+02  0.14218262330E+02  0.40659145416E+02  0.00000000000E+00 0.  1.
         11    1    3    3    0    0 -0.15541692737E+02  0.12856329802E+02 -0.12852409071E+02  0.23916810998E+02  0.51100000000E-03 0. -1.
        -11    1    3    3    0    0 -0.61385949961E+01  0.65020357049E+01 -0.96473359622E+01  0.13154083330E+02  0.51100000000E-03 0.  1.
        -12    1    3    3    0    0 -0.21013642453E+01  0.10397980900E+02  0.82814827039E+01  0.13457960256E+02  0.00000000000E+00 0.  1.
</event>
<event>
 7    1  0.2702714E-011  0.5052884E+02  0.7816164E-02  0.1300439E+00
        -11   -1    0    0    0    0  0.00000000000E+00  0.00000000000E+00  0.45593999997E+02  0.45594000000E+02  0.51100000000E-03 0.  1.
         11   -1    0    0    0    0 -0.00000000000E+00 -0.00000000000E+00 -0.45593999997E+02  0.45594000000E+02  0.51100000000E-03 0. -1.
    9900012    2    1    2    0    0  0.25678784070E+02  0.30165680763E+02 -0.91541947476E+01  0.50528837088E+02  0.29999930813E+02 0.  0.
        -12    1    1    2    0    0 -0.25678784070E+02 -0.30165680763E+02  0.91541947476E+01  0.40659162912E+02  0.00000000000E+00 0.  1.
         11    1    3    3    0    0 -0.14026776884E+01 -0.67759781266E+00 -0.20093467196E+01  0.25424629779E+01  0.51100000000E-03 0. -1.
        -11    1    3    3    0    0  0.52999963301E+01  0.22258991659E+02 -0.88018115256E+01  0.24515802193E+02  0.51100000000E-03 0.  1.
        -12    1    3    3    0    0  0.21781465428E+02  0.85842869168E+01  0.16569634976E+01  0.23470571917E+02  0.00000000000E+00 0.  1.
</event>
<event>
 7    1  0.2702714E-011  0.5052887E+02  0.7816164E-02  0.1300439E+00
        -11   -1    0    0    0    0  0.00000000000E+00  0.00000000000E+00  0.45593999997E+02  0.45594000000E+02  0.51100000000E-03 0. -1.
         11   -1    0    0    0    0 -0.00000000000E+00 -0.00000000000E+00 -0.45593999997E+02  0.45594000000E+02  0.51100000000E-03 0.  1.
    9900012    2    1    2    0    0 -0.21527684167E+02  0.33959915966E+02  0.60371791541E+01  0.50528872979E+02  0.30000039905E+02 0.  0.
        -12    1    1    2    0    0  0.21527684167E+02 -0.33959915966E+02 -0.60371791541E+01  0.40659127021E+02  0.00000000000E+00 0.  1.
         11    1    3    3    0    0 -0.18780537937E+02  0.25888144980E+02  0.71659289049E+01  0.32775832454E+02  0.51100000000E-03 0. -1.
        -11    1    3    3    0    0 -0.65792641715E+01  0.87730647122E+01 -0.51840827307E+01  0.12129637072E+02  0.51100000000E-03 0.  1.
         12    1    3    3    0    0  0.38321179418E+01 -0.70129372619E+00  0.40553329800E+01  0.56234034524E+01  0.00000000000E+00 0. -1.
</event>
<event>
 7    1  0.2702714E-011  0.5052886E+02  0.7816164E-02  0.1300439E+00
        -11   -1    0    0    0    0  0.00000000000E+00  0.00000000000E+00  0.45593999997E+02  0.45594000000E+02  0.51100000000E-03 0. -1.
         11   -1    0    0    0    0 -0.00000000000E+00 -0.00000000000E+00 -0.45593999997E+02  0.45594000000E+02  0.51100000000E-03 0.  1.
    9900012    2    1    2    0    0 -0.32462789247E+02  0.23609243836E+02  0.64758675559E+01  0.50528856615E+02  0.29999990167E+02 0.  0.
        -12    1    1    2    0    0  0.32462789247E+02 -0.23609243836E+02 -0.64758675559E+01  0.40659143385E+02  0.00000000000E+00 0.  1.
         11    1    3    3    0    0 -0.15241394128E+02  0.57792585186E+01  0.42589134871E+01  0.16847500359E+02  0.51100000000E-03 0. -1.
        -11    1    3    3    0    0  0.14439964802E-01 -0.42351817829E+01  0.37270703261E+01  0.56416333383E+01  0.51100000000E-03 0.  1.
         12    1    3    3    0    0 -0.17235835083E+02  0.22065167100E+02 -0.15101162573E+01  0.28039722918E+02  0.00000000000E+00 0. -1.
</event>
<event>
 7    1  0.2702714E-011  0.5052886E+02  0.7816164E-02  0.1300439E+00
        -11   -1    0    0    0    0  0.00000000000E+00  0.00000000000E+00  0.45593999997E+02  0.45594000000E+02  0.51100000000E-03 0.  1.
         11   -1    0    0    0    0 -0.00000000000E+00 -0.00000000000E+00 -0.45593999997E+02  0.45594000000E+02  0.51100000000E-03 0. -1.
    9900012    2    1    2    0    0 -0.23958824041E+02 -0.24717044030E+02 -0.21638119107E+02  0.50528859411E+02  0.29999998665E+02 0.  0.
        -12    1    1    2    0    0  0.23958824041E+02  0.24717044030E+02  0.21638119107E+02  0.40659140589E+02  0.00000000000E+00 0.  1.
         11    1    3    3    0    0 -0.92178035497E+01 -0.36362813425E+01 -0.57507511314E+01  0.11456944755E+02  0.51100000000E-03 0. -1.
        -11    1    3    3    0    0 -0.49125828432E+01  0.12958790530E+01  0.48467811235E+01  0.70216849995E+01  0.51100000000E-03 0.  1.
        -12    1    3    3    0    0 -0.98284376477E+01 -0.22376641740E+02 -0.20734149099E+02  0.32050229656E+02  0.00000000000E+00 0.  1.
</event>
<event>
 7    1  0.2702714E-011  0.5052888E+02  0.7816164E-02  0.1300439E+00
        -11   -1    0    0    0    0  0.00000000000E+00  0.00000000000E+00  0.45593999997E+02  0.45594000000E+02  0.51100000000E-03 0.  1.
         11   -1    0    0    0    0 -0.00000000000E+00 -0.00000000000E+00 -0.45593999997E+02  0.45594000000E+02  0.51100000000E-03 0. -1.
    9900012    2    1    2    0    0  0.29590888818E+01  0.11834136562E+02 -0.38786089202E+02  0.50528884038E+02  0.30000073523E+02 0.  0.
        -12    1    1    2    0    0 -0.29590888818E+01 -0.11834136562E+02  0.38786089202E+02  0.40659115962E+02  0.00000000000E+00 0.  1.
         11    1    3    3    0    0  0.12090047164E+01 -0.14557501428E+01 -0.29959379126E+02  0.30019082244E+02  0.51100000000E-03 0. -1.
        -11    1    3    3    0    0 -0.33072038442E+01 -0.77940919186E+00 -0.61687673449E+00  0.34533481032E+01  0.51100000000E-03 0.  1.
         12    1    3    3    0    0  0.50572880096E+01  0.14069295896E+02 -0.82098333418E+01  0.17056453692E+02  0.00000000000E+00 0. -1.
</event>
<event>
 7    1  0.2702714E-011  0.5052886E+02  0.7816164E-02  0.1300439E+00
        -11   -1    0    0    0    0  0.00000000000E+00  0.00000000000E+00  0.45593999997E+02  0.45594000000E+02  0.51100000000E-03 0. -1.
         11   -1    0    0    0    0 -0.00000000000E+00 -0.00000000000E+00 -0.45593999997E+02  0.45594000000E+02  0.51100000000E-03 0.  1.
    9900012    2    1    2    0    0 -0.16205958208E+02  0.57740528899E+01  0.36840101316E+02  0.50528857938E+02  0.29999994188E+02 0.  0.
        -12    1    1    2    0    0  0.16205958208E+02 -0.57740528899E+01 -0.36840101316E+02  0.40659142062E+02  0.00000000000E+00 0.  1.
         11    1    3    3    0    0 -0.80540485720E+01 -0.45762241918E+01  0.13383102613E+02  0.16276269907E+02  0.51100000000E-03 0. -1.
        -11    1    3    3    0    0 -0.15201346120E+02  0.76919522468E+01  0.18910813692E+02  0.25453210564E+02  0.51100000000E-03 0.  1.
        -12    1    3    3    0    0  0.70494364839E+01  0.26583248348E+01  0.45461850106E+01  0.87993774677E+01  0.00000000000E+00 0.  1.
</event>
<event>
 7    1  0.2702714E-011  0.5052887E+02  0.7816164E-02  0.1300439E+00
        -11   -1    0    0    0    0  0.00000000000E+00  0.00000000000E+00  0.45593999997E+02  0.45594000000E+02  0.51100000000E-03 0.  1.
         11   -1    0    0    0    0 -0.00000000000E+00 -0.00000000000E+00 -0.45593999997E+02  0.45594000000E+02  0.51100000000E-03 0. -1.
    9900012    2    1    2    0    0 -0.41021264711E+01  0.39343716225E+02  0.94026472165E+01  0.50528865447E+02  0.30000017011E+02 0.  0.
        -12    1    1    2    0    0  0.41021264711E+01 -0.39343716225E+02 -0.94026472165E+01  0.40659134553E+02  0.00000000000E+00 0.  1.
         11    1    3    3    0    0  0.57972883083E+01  0.25295533854E+02  0.17686963787E+02  0.31405433813E+02  0.51100000000E-03 0.  1.
        -11    1    3    3    0    0 -0.16656182496E+01  0.17484546748E+01 -0.14870612147E+01  0.28359705959E+01  0.51100000000E-03 0. -1.
        -12    1    3    3    0    0 -0.82337965298E+01  0.12299727696E+02 -0.67972553561E+01  0.16287461038E+02  0.00000000000E+00 0.  1.
</event>
<event>
 7    1  0.2702714E-011  0.5052890E+02  0.7816164E-02  0.1300439E+00
        -11   -1    0    0    0    0  0.00000000000E+00  0.00000000000E+00  0.45593999997E+02  0.45594000000E+02  0.51100000000E-03 0. -1.
         11   -1    0    0    0    0 -0.00000000000E+00 -0.00000000000E+00 -0.45593999997E+02  0.45594000000E+02  0.51100000000E-03 0.  1.
    9900012    2    1    2    0    0 -0.19727933433E+02  0.31337393351E+02  0.16791034283E+02  0.50528900012E+02  0.30000122075E+02 0.  0.
        -12    1    1    2    0    0  0.19727933433E+02 -0.31337393351E+02 -0.16791034283E+02  0.40659099988E+02  0.00000000000E+00 0.  1.
         11    1    3    3    0    0 -0.15443873065E+02  0.17697692120E+02  0.63263969054E+01  0.24325805633E+02  0.51100000000E-03 0. -1.
        -11    1    3    3    0    0 -0.67589679234E+01  0.14573539287E+02  0.14324673546E+02  0.21523660637E+02  0.51100000000E-03 0.  1.
        -12    1    3    3    0    0  0.24749075553E+01 -0.93383805601E+00 -0.38600361687E+01  0.46794337420E+01  0.00000000000E+00 0.  1.
</event>
<event>
 7    1  0.2702714E-011  0.5052886E+02  0.7816164E-02  0.1300439E+00
        -11   -1    0    0    0    0  0.00000000000E+00  0.00000000000E+00  0.45593999997E+02  0.45594000000E+02  0.51100000000E-03 0.  1.
         11   -1    0    0    0    0 -0.00000000000E+00 -0.00000000000E+00 -0.45593999997E+02  0.45594000000E+02  0.51100000000E-03 0. -1.
    9900012    2    1    2    0    0 -0.10149789125E+02 -0.39158677161E+02  0.40921597607E+01  0.50528856037E+02  0.29999988411E+02 0.  0.
        -12    1    1    2    0    0  0.10149789125E+02  0.39158677161E+02 -0.40921597607E+01  0.40659143963E+02  0.00000000000E+00 0.  1.
         11    1    3    3    0    0  0.62735210021E+00 -0.18561394454E+02  0.87902229035E-01  0.18572201318E+02  0.51100000000E-03 0. -1.
        -11    1    3    3    0    0  0.48247994106E+01 -0.81836819531E+01  0.69926016440E+01  0.11796093323E+02  0.51100000000E-03 0.  1.
        -12    1    3    3    0    0 -0.15601940636E+02 -0.12413600753E+02 -0.29883441124E+01  0.20160561396E+02  0.00000000000E+00 0.  1.
</event>
<event>
 7    1  0.2702714E-011  0.5052886E+02  0.7816164E-02  0.1300439E+00
        -11   -1    0    0    0    0  0.00000000000E+00  0.00000000000E+00  0.45593999997E+02  0.45594000000E+02  0.51100000000E-03 0.  1.
         11   -1    0    0    0    0 -0.00000000000E+00 -0.00000000000E+00 -0.45593999997E+02  0.45594000000E+02  0.51100000000E-03 0. -1.
    9900012    2    1    2    0    0 -0.11837465538E+02  0.70700978705E+01 -0.38249883886E+02  0.50528862140E+02  0.30000006961E+02 0.  0.
        -12    1    1    2    0    0  0.11837465538E+02 -0.70700978705E+01  0.38249883886E+02  0.40659137860E+02  0.00000000000E+00 0.  1.
         11    1    3    3    0    0 -0.10245331002E+02  0.28634954300E+01 -0.12762867012E+02  0.16614968795E+02  0.51100000000E-03 0. -1.
        -11    1    3    3    0    0 -0.31709237598E+01  0.99536175445E+01 -0.25912309677E+02  0.27938809079E+02  0.51100000000E-03 0.  1.
        -12    1    3    3    0    0  0.15787892245E+01 -0.57470151040E+01  0.42529280302E+00  0.59750842663E+01  0.00000000000E+00 0.  1.
</event>
<event>
 7    1  0.2702714E-011  0.5052886E+02  0.7816164E-02  0.1300439E+00
        -11   -1    0    0    0    0  0.00000000000E+00  0.00000000000E+00  0.45593999997E+02  0.45594000000E+02  0.51100000000E-03 0.  1.
         11   -1    0    0    0    0 -0.00000000000E+00 -0.00000000000E+00 -0.45593999997E+02  0.45594000000E+02  0.51100000000E-03 0. -1.
    9900012    2    1    2    0    0 -0.24614050211E+02  0.26998269788E+02 -0.17843987311E+02  0.50528856840E+02  0.29999990851E+02 0.  0.
        -12    1    1    2    0    0  0.24614050211E+02 -0.26998269788E+02  0.17843987311E+02  0.40659143160E+02  0.00000000000E+00 0.  1.
         11    1    3    3    0    0 -0.23783806405E+01  0.80665052349E+01 -0.39566081776E+01  0.92940814343E+01  0.51100000000E-03 0. -1.
        -11    1    3    3    0    0 -0.37960068396E+01  0.19997528584E+02 -0.71486810392E+01  0.21573466533E+02  0.51100000000E-03 0.  1.
        -12    1    3    3    0    0 -0.18439662731E+02 -0.10657640304E+01 -0.67386980942E+01  0.19661308873E+02  0.00000000000E+00 0.  1.
</event>
<event>
 7    1  0.2702714E-011  0.5052887E+02  0.7816164E-02  0.1300439E+00
        -11   -1    0    0    0    0  0.00000000000E+00  0.00000000000E+00  0.45593999997E+02  0.45594000000E+02  0.51100000000E-03 0.  1.
         11   -1    0    0    0    0 -0.00000000000E+00 -0.00000000000E+00 -0.45593999997E+02  0.45594000000E+02  0.51100000000E-03 0. -1.
    9900012    2    1    2    0    0  0.23165744733E+02  0.25049945808E+01 -0.33320241773E+02  0.50528865249E+02  0.30000016412E+02 0.  0.
        -12    1    1    2    0    0 -0.23165744733E+02 -0.25049945808E+01  0.33320241773E+02  0.40659134751E+02  0.00000000000E+00 0.  1.
         11    1    3    3    0    0  0.10221449941E+02  0.10716799748E+02 -0.35416527526E+01  0.15227315594E+02  0.51100000000E-03 0. -1.
        -11    1    3    3    0    0 -0.19989381820E+01 -0.28277030633E+00 -0.37457575001E+01  0.42551630301E+01  0.51100000000E-03 0.  1.
         12    1    3    3    0    0  0.14943232974E+02 -0.79290348603E+01 -0.26032831520E+02  0.31046386625E+02  0.00000000000E+00 0. -1.
</event>
<event>
 7    1  0.2702714E-011  0.5052888E+02  0.7816164E-02  0.1300439E+00
        -11   -1    0    0    0    0  0.00000000000E+00  0.00000000000E+00  0.45593999997E+02  0.45594000000E+02  0.51100000000E-03 0.  1.
         11   -1    0    0    0    0 -0.00000000000E+00 -0.00000000000E+00 -0.45593999997E+02  0.45594000000E+02  0.51100000000E-03 0. -1.
    9900012    2    1    2    0    0  0.22144718813E+02  0.27265058469E+02 -0.20479059627E+02  0.50528882107E+02  0.30000067653E+02 0.  0.
        -12    1    1    2    0    0 -0.22144718813E+02 -0.27265058469E+02  0.20479059627E+02  0.40659117893E+02  0.00000000000E+00 0.  1.
         11    1    3    3    0    0  0.36897125387E+01  0.93571746976E+01 -0.20420398383E+01  0.10263558053E+02  0.51100000000E-03 0. -1.
        -11    1    3    3    0    0 -0.59970269217E+01  0.10329484624E+01 -0.32609444469E+01  0.69039896707E+01  0.51100000000E-03 0.  1.
        -12    1    3    3    0    0  0.24452033196E+02  0.16874935309E+02 -0.15176075342E+02  0.33361334384E+02  0.00000000000E+00 0.  1.
</event>
<event>
 7    1  0.2702714E-011  0.5052886E+02  0.7816164E-02  0.1300439E+00
        -11   -1    0    0    0    0  0.00000000000E+00  0.00000000000E+00  0.45593999997E+02  0.45594000000E+02  0.51100000000E-03 0.  1.
         11   -1    0    0    0    0 -0.00000000000E+00 -0.00000000000E+00 -0.45593999997E+02  0.45594000000E+02  0.51100000000E-03 0. -1.
    9900012    2    1    2    0    0 -0.38561795313E+02 -0.29322537939E+01 -0.12552120223E+02  0.50528857213E+02  0.29999991986E+02 0.  0.
        -12    1    1    2    0    0  0.38561795313E+02  0.29322537939E+01  0.12552120223E+02  0.40659142787E+02  0.00000000000E+00 0.  1.
         11    1    3    3    0    0 -0.63057254860E+01 -0.10019812716E+02 -0.56679039516E+01  0.13125698314E+02  0.51100000000E-03 0. -1.
        -11    1    3    3    0    0 -0.15630588029E+02  0.31063118263E+01 -0.11550853530E+02  0.19682140961E+02  0.51100000000E-03 0.  1.
        -12    1    3    3    0    0 -0.16625481798E+02  0.39812470957E+01  0.46666372588E+01  0.17721017938E+02  0.00000000000E+00 0.  1.
</event>
<event>
 7    1  0.2702714E-011  0.5052888E+02  0.7816164E-02  0.1300439E+00
        -11   -1    0    0    0    0  0.00000000000E+00  0.00000000000E+00  0.45593999997E+02  0.45594000000E+02  0.51100000000E-03 0.  1.
         11   -1    0    0    0    0 -0.00000000000E+00 -0.00000000000E+00 -0.45593999997E+02  0.45594000000E+02  0.51100000000E-03 0. -1.
    9900012    2    1    2    0    0 -0.32625933582E+02  0.13187283554E+02 -0.20366845688E+02  0.50528875650E+02  0.30000048027E+02 0.  0.
        -12    1    1    2    0    0  0.32625933582E+02 -0.13187283554E+02  0.20366845688E+02  0.40659124350E+02  0.00000000000E+00 0.  1.
         11    1    3    3    0    0 -0.13692740718E+01 -0.81137137205E+00 -0.10635262254E+02  0.10753698827E+02  0.51100000000E-03 0. -1.
        -11    1    3    3    0    0 -0.25031593289E+02  0.20776136437E+01 -0.62881083622E+01  0.25892806879E+02  0.51100000000E-03 0.  1.
        -12    1    3    3    0    0 -0.62250662217E+01  0.11921041282E+02 -0.34434750710E+01  0.13882369944E+02  0.00000000000E+00 0.  1.
</event>
<event>
 7    1  0.2702714E-011  0.5052886E+02  0.7816164E-02  0.1300439E+00
        -11   -1    0    0    0    0  0.00000000000E+00  0.00000000000E+00  0.45593999997E+02  0.45594000000E+02  0.51100000000E-03 0.  1.
         11   -1    0    0    0    0 -0.00000000000E+00 -0.00000000000E+00 -0.45593999997E+02  0.45594000000E+02  0.51100000000E-03 0. -1.
    9900012    2    1    2    0    0  0.30623584269E+02 -0.23775840106E+02 -0.12250352412E+02  0.50528860554E+02  0.30000002141E+02 0.  0.
        -12    1    1    2    0    0 -0.30623584269E+02  0.23775840106E+02  0.12250352412E+02  0.40659139446E+02  0.00000000000E+00 0.  1.
         11    1    3    3    0    0  0.13835764921E+02 -0.33197817956E+01 -0.46330243469E+01  0.14963764800E+02  0.51100000000E-03 0. -1.
        -11    1    3    3    0    0  0.27151541279E+01  0.42770599704E+00  0.62420783680E+01  0.68204499098E+01  0.51100000000E-03 0.  1.
        -12    1    3    3    0    0  0.14072665220E+02 -0.20883764308E+02 -0.13859406433E+02  0.28744645845E+02  0.00000000000E+00 0.  1.
</event>
<event>
 7    1  0.2740306E-011  0.5052887E+02  0.7816164E-02  0.1300439E+00
        -11   -1    0    0    0    0  0.00000000000E+00  0.00000000000E+00  0.45593999997E+02  0.45594000000E+02  0.51100000000E-03 0.  1.
         11   -1    0    0    0    0 -0.00000000000E+00 -0.00000000000E+00 -0.45593999997E+02  0.45594000000E+02  0.51100000000E-03 0. -1.
    9900012    2    1    2    0    0  0.12690265415E+02 -0.38480153678E+02 -0.33763431495E+01  0.50528871179E+02  0.30000034437E+02 0.  0.
        -12    1    1    2    0    0 -0.12690265415E+02  0.38480153678E+02  0.33763431495E+01  0.40659128821E+02  0.00000000000E+00 0.  1.
         11    1    3    3    0    0  0.14286803884E+02 -0.23003264990E+02  0.58832212513E+00  0.27085219006E+02  0.51100000000E-03 0.  1.
        -11    1    3    3    0    0 -0.69355456526E+00 -0.19185236413E+02 -0.40744184521E+01  0.19625371338E+02  0.51100000000E-03 0. -1.
        -12    1    3    3    0    0 -0.90298390371E+00  0.37083477250E+01  0.10975317754E+00  0.38182808357E+01  0.00000000000E+00 0.  1.
</event>
<event>
 7    1  0.2702714E-011  0.5052886E+02  0.7816164E-02  0.1300439E+00
        -11   -1    0    0    0    0  0.00000000000E+00  0.00000000000E+00  0.45593999997E+02  0.45594000000E+02  0.51100000000E-03 0. -1.
         11   -1    0    0    0    0 -0.00000000000E+00 -0.00000000000E+00 -0.45593999997E+02  0.45594000000E+02  0.51100000000E-03 0.  1.
    9900012    2    1    2    0    0  0.34274868268E+02 -0.16995213072E+02 -0.13768137493E+02  0.50528862378E+02  0.30000007684E+02 0.  0.
        -12    1    1    2    0    0 -0.34274868268E+02  0.16995213072E+02  0.13768137493E+02  0.40659137622E+02  0.00000000000E+00 0.  1.
         11    1    3    3    0    0  0.22704002681E+01 -0.53237034603E+01  0.39104934772E+00  0.58008150948E+01  0.51100000000E-03 0. -1.
        -11    1    3    3    0    0  0.61591484670E+01 -0.93938855445E+01  0.51782093563E+01  0.12369076274E+02  0.51100000000E-03 0.  1.
         12    1    3    3    0    0  0.25845319533E+02 -0.22776240676E+01 -0.19337396197E+02  0.32358971010E+02  0.00000000000E+00 0. -1.
</event>
<event>
 7    1  0.2702714E-011  0.5052888E+02  0.7816164E-02  0.1300439E+00
        -11   -1    0    0    0    0  0.00000000000E+00  0.00000000000E+00  0.45593999997E+02  0.45594000000E+02  0.51100000000E-03 0.  1.
         11   -1    0    0    0    0 -0.00000000000E+00 -0.00000000000E+00 -0.45593999997E+02  0.45594000000E+02  0.51100000000E-03 0. -1.
    9900012    2    1    2    0    0  0.73158880086E+01 -0.31376055038E+02 -0.24802922935E+02  0.50528880073E+02  0.30000061471E+02 0.  0.
        -12    1    1    2    0    0 -0.73158880086E+01  0.31376055038E+02  0.24802922935E+02  0.40659119927E+02  0.00000000000E+00 0.  1.
         11    1    3    3    0    0 -0.13818579477E+01 -0.14295008139E+02 -0.78601436488E+01  0.16371885888E+02  0.51100000000E-03 0. -1.
        -11    1    3    3    0    0  0.59046477631E+01 -0.12883511533E+02  0.22173798989E+01  0.14344563727E+02  0.51100000000E-03 0.  1.
        -12    1    3    3    0    0  0.27930981931E+01 -0.41975353650E+01 -0.19160159185E+02  0.19812430458E+02  0.00000000000E+00 0.  1.
</event>
<event>
 7    1  0.2702714E-011  0.5052888E+02  0.7816164E-02  0.1300439E+00
        -11   -1    0    0    0    0  0.00000000000E+00  0.00000000000E+00  0.45593999997E+02  0.45594000000E+02  0.51100000000E-03 0.  1.
         11   -1    0    0    0    0 -0.00000000000E+00 -0.00000000000E+00 -0.45593999997E+02  0.45594000000E+02  0.51100000000E-03 0. -1.
    9900012    2    1    2    0    0  0.17816949617E+02 -0.36529576233E+02 -0.11447100887E+01  0.50528880548E+02  0.30000062912E+02 0.  0.
        -12    1    1    2    0    0 -0.17816949617E+02  0.36529576233E+02  0.11447100887E+01  0.40659119452E+02  0.00000000000E+00 0.  1.
         11    1    3    3    0    0  0.12054524887E+02 -0.71152193027E+01  0.50684825995E+01  0.14887156616E+02  0.51100000000E-03 0. -1.
        -11    1    3    3    0    0  0.65297628079E+01 -0.89453096503E+01  0.51540245348E+01  0.12215577605E+02  0.51100000000E-03 0.  1.
         12    1    3    3    0    0 -0.76733807795E+00 -0.20469047280E+02 -0.11367217223E+02  0.23426146326E+02  0.00000000000E+00 0. -1.
</event>
<event>
 7    1  0.2702714E-011  0.5052887E+02  0.7816164E-02  0.1300439E+00
        -11   -1    0    0    0    0  0.00000000000E+00  0.00000000000E+00  0.45593999997E+02  0.45594000000E+02  0.51100000000E-03 0.  1.
         11   -1    0    0    0    0 -0.00000000000E+00 -0.00000000000E+00 -0.45593999997E+02  0.45594000000E+02  0.51100000000E-03 0. -1.
    9900012    2    1    2    0    0 -0.84737358969E+01 -0.77200861652E+01 -0.39009757048E+02  0.50528867257E+02  0.30000022515E+02 0.  0.
        -12    1    1    2    0    0  0.84737358969E+01  0.77200861652E+01  0.39009757048E+02  0.40659132743E+02  0.00000000000E+00 0.  1.
         11    1    3    3    0    0  0.70888071560E+01  0.74809506311E+00 -0.32806756383E+01  0.78468889392E+01  0.51100000000E-03 0. -1.
        -11    1    3    3    0    0 -0.42280980280E+01  0.29239983895E+01 -0.23841556899E+01  0.56666372860E+01  0.51100000000E-03 0.  1.
         12    1    3    3    0    0 -0.11334445025E+02 -0.11392179618E+02 -0.33344925720E+02  0.37015341032E+02  0.00000000000E+00 0. -1.
</event>
<event>
 7    1  0.2702714E-011  0.5052886E+02  0.7816164E-02  0.1300439E+00
        -11   -1    0    0    0    0  0.00000000000E+00  0.00000000000E+00  0.45593999997E+02  0.45594000000E+02  0.51100000000E-03 0. -1.
         11   -1    0    0    0    0 -0.00000000000E+00 -0.00000000000E+00 -0.45593999997E+02  0.45594000000E+02  0.51100000000E-03 0.  1.
    9900012    2    1    2    0    0 -0.28426589590E+01 -0.23584551373E+02  0.32997790058E+02  0.50528856845E+02  0.29999990865E+02 0.  0.
        -12    1    1    2    0    0  0.28426589590E+01  0.23584551373E+02 -0.32997790058E+02  0.40659143155E+02  0.00000000000E+00 0.  1.
         11    1    3    3    0    0  0.74398491746E+01 -0.88991101812E+01  0.11260937957E+01  0.11653909441E+02  0.51100000000E-03 0. -1.
        -11    1    3    3    0    0  0.14658267767E+01  0.48211229815E+00 -0.14520139075E+00  0.15498916453E+01  0.51100000000E-03 0.  1.
         12    1    3    3    0    0 -0.11748334910E+02 -0.15167553490E+02  0.32016897653E+02  0.37325055758E+02  0.00000000000E+00 0. -1.
</event>
<event>
 7    1  0.2702714E-011  0.5052887E+02  0.7816164E-02  0.1300439E+00
        -11   -1    0    0    0    0  0.00000000000E+00  0.00000000000E+00  0.45593999997E+02  0.45594000000E+02  0.51100000000E-03 0.  1.
         11   -1    0    0    0    0 -0.00000000000E+00 -0.00000000000E+00 -0.45593999997E+02  0.45594000000E+02  0.51100000000E-03 0. -1.
    9900012    2    1    2    0    0  0.11011290665E+02 -0.38968517731E+02 -0.36565969552E+01  0.50528873133E+02  0.30000040376E+02 0.  0.
        -12    1    1    2    0    0 -0.11011290665E+02  0.38968517731E+02  0.36565969552E+01  0.40659126867E+02  0.00000000000E+00 0.  1.
         11    1    3    3    0    0  0.11030548903E+01 -0.12573874797E+02 -0.96592300956E+01  0.15894017233E+02  0.51100000000E-03 0. -1.
        -11    1    3    3    0    0  0.15331242489E+02 -0.14794320279E+02  0.37686653764E+01  0.21636121366E+02  0.51100000000E-03 0.  1.
         12    1    3    3    0    0 -0.54230067144E+01 -0.11600322655E+02  0.22339677639E+01  0.12998734534E+02  0.00000000000E+00 0. -1.
</event>
<event>
 7    1  0.2702714E-011  0.5052886E+02  0.7816164E-02  0.1300439E+00
        -11   -1    0    0    0    0  0.00000000000E+00  0.00000000000E+00  0.45593999997E+02  0.45594000000E+02  0.51100000000E-03 0.  1.
         11   -1    0    0    0    0 -0.00000000000E+00 -0.00000000000E+00 -0.45593999997E+02  0.45594000000E+02  0.51100000000E-03 0. -1.
    9900012    2    1    2    0    0  0.28589658395E+02 -0.17171156906E+02 -0.23258295657E+02  0.50528861870E+02  0.30000006139E+02 0.  0.
        -12    1    1    2    0    0 -0.28589658395E+02  0.17171156906E+02  0.23258295657E+02  0.40659138130E+02  0.00000000000E+00 0.  1.
         11    1    3    3    0    0  0.11590660907E+02 -0.21726868162E+01 -0.78741941484E+01  0.14179806839E+02  0.51100000000E-03 0. -1.
        -11    1    3    3    0    0  0.16087617352E+02 -0.76083773343E+01  0.15368088846E+01  0.17862268040E+02  0.51100000000E-03 0.  1.
         12    1    3    3    0    0  0.91138013598E+00 -0.73900927558E+01 -0.16920910393E+02  0.18486786990E+02  0.00000000000E+00 0. -1.
</event>
<event>
 7    1  0.2702714E-011  0.5052885E+02  0.7816164E-02  0.1300439E+00
        -11   -1    0    0    0    0  0.00000000000E+00  0.00000000000E+00  0.45593999997E+02  0.45594000000E+02  0.51100000000E-03 0. -1.
         11   -1    0    0    0    0 -0.00000000000E+00 -0.00000000000E+00 -0.45593999997E+02  0.45594000000E+02  0.51100000000E-03 0.  1.
    9900012    2    1    2    0    0 -0.16116922219E+02 -0.61418439429E+01  0.36819684642E+02  0.50528848436E+02  0.29999965305E+02 0.  0.
        -12    1    1    2    0    0  0.16116922219E+02  0.61418439429E+01 -0.36819684642E+02  0.40659151564E+02  0.00000000000E+00 0.  1.
         11    1    3    3    0    0  0.99794375619E-02 -0.62229320108E+01 -0.27074912786E+00  0.62288271569E+01  0.51100000000E-03 0.  1.
        -11    1    3    3    0    0 -0.12407720908E+00 -0.62872378376E+01  0.15176129022E+02  0.16427405368E+02  0.51100000000E-03 0. -1.
         12    1    3    3    0    0 -0.16002824447E+02  0.63683259055E+01  0.21914304747E+02  0.27872615911E+02  0.00000000000E+00 0. -1.
</event>
<event>
 7    1  0.2702714E-011  0.5052886E+02  0.7816164E-02  0.1300439E+00
        -11   -1    0    0    0    0  0.00000000000E+00  0.00000000000E+00  0.45593999997E+02  0.45594000000E+02  0.51100000000E-03 0.  1.
         11   -1    0    0    0    0 -0.00000000000E+00 -0.00000000000E+00 -0.45593999997E+02  0.45594000000E+02  0.51100000000E-03 0. -1.
    9900012    2    1    2    0    0 -0.49873175539E+01 -0.16818965107E+02 -0.36679893359E+02  0.50528862029E+02  0.30000006625E+02 0.  0.
        -12    1    1    2    0    0  0.49873175539E+01  0.16818965107E+02  0.36679893359E+02  0.40659137971E+02  0.00000000000E+00 0.  1.
         11    1    3    3    0    0  0.19188688911E+01 -0.11522532557E+02 -0.17168740902E+02  0.20765752546E+02  0.51100000000E-03 0. -1.
        -11    1    3    3    0    0  0.19225498761E+01 -0.88187396097E+01 -0.11650416752E+01  0.91007520951E+01  0.51100000000E-03 0.  1.
         12    1    3    3    0    0 -0.88287363210E+01  0.35223070597E+01 -0.18346110782E+02  0.20662357389E+02  0.00000000000E+00 0. -1.
</event>
<event>
 7    1  0.2702714E-011  0.5052885E+02  0.7816164E-02  0.1300439E+00
        -11   -1    0    0    0    0  0.00000000000E+00  0.00000000000E+00  0.45593999997E+02  0.45594000000E+02  0.51100000000E-03 0.  1.
         11   -1    0    0    0    0 -0.00000000000E+00 -0.00000000000E+00 -0.45593999997E+02  0.45594000000E+02  0.51100000000E-03 0. -1.
    9900012    2    1    2    0    0 -0.46511470244E+01  0.69461933911E+01 -0.39790492712E+02  0.50528854884E+02  0.29999984906E+02 0.  0.
        -12    1    1    2    0    0  0.46511470244E+01 -0.69461933911E+01  0.39790492712E+02  0.40659145116E+02  0.00000000000E+00 0.  1.
         11    1    3    3    0    0 -0.10897371928E+02  0.64252470959E+01 -0.24427515000E+02  0.27508907730E+02  0.51100000000E-03 0. -1.
        -11    1    3    3    0    0 -0.20060868034E+01  0.63936229795E+01 -0.40257268331E+01  0.78172422159E+01  0.51100000000E-03 0.  1.
        -12    1    3    3    0    0  0.82523117065E+01 -0.58726766843E+01 -0.11337250879E+02  0.15202704938E+02  0.00000000000E+00 0.  1.
</event>
<event>
 7    1  0.2702714E-011  0.5052884E+02  0.7816164E-02  0.1300439E+00
        -11   -1    0    0    0    0  0.00000000000E+00  0.00000000000E+00  0.45593999997E+02  0.45594000000E+02  0.51100000000E-03 0. -1.
         11   -1    0    0    0    0 -0.00000000000E+00 -0.00000000000E+00 -0.45593999997E+02  0.45594000000E+02  0.51100000000E-03 0.  1.
    9900012    2    1    2    0    0 -0.27136891763E+01 -0.36549522402E+02 -0.17604983743E+02  0.50528841753E+02  0.29999944992E+02 0.  0.
        -12    1    1    2    0    0  0.27136891763E+01  0.36549522402E+02  0.17604983743E+02  0.40659158247E+02  0.00000000000E+00 0.  1.
         11    1    3    3    0    0  0.17857939432E+01 -0.68894637850E+01  0.66880974854E+01  0.97664947391E+01  0.51100000000E-03 0. -1.
        -11    1    3    3    0    0 -0.41653626734E+01 -0.16839660273E+02 -0.58668741699E+01  0.18312417019E+02  0.51100000000E-03 0.  1.
        -12    1    3    3    0    0 -0.33412044611E+00 -0.12820398344E+02 -0.18426207059E+02  0.22449929995E+02  0.00000000000E+00 0.  1.
</event>
<event>
 7    1  0.2736802E-011  0.5052886E+02  0.7816164E-02  0.1300439E+00
        -11   -1    0    0    0    0  0.00000000000E+00  0.00000000000E+00  0.45593999997E+02  0.45594000000E+02  0.51100000000E-03 0. -1.
         11   -1    0    0    0    0 -0.00000000000E+00 -0.00000000000E+00 -0.45593999997E+02  0.45594000000E+02  0.51100000000E-03 0.  1.
    9900012    2    1    2    0    0  0.25227399983E+02 -0.20056787375E+02  0.24788484394E+02  0.50528863410E+02  0.30000010820E+02 0.  0.
        -12    1    1    2    0    0 -0.25227399983E+02  0.20056787375E+02 -0.24788484394E+02  0.40659136590E+02  0.00000000000E+00 0.  1.
         11    1    3    3    0    0  0.99423943118E+01 -0.53502496107E+01  0.97692253574E+01  0.14930309437E+02  0.51100000000E-03 0. -1.
        -11    1    3    3    0    0  0.12434662639E+02  0.42002086724E+01  0.53648768907E+01  0.14179015909E+02  0.51100000000E-03 0.  1.
        -12    1    3    3    0    0  0.28503430329E+01 -0.18906746437E+02  0.96543821456E+01  0.21419538064E+02  0.00000000000E+00 0.  1.
</event>
<event>
 7    1  0.2702714E-011  0.5052880E+02  0.7816164E-02  0.1300439E+00
        -11   -1    0    0    0    0  0.00000000000E+00  0.00000000000E+00  0.45593999997E+02  0.45594000000E+02  0.51100000000E-03 0.  1.
         11   -1    0    0    0    0 -0.00000000000E+00 -0.00000000000E+00 -0.45593999997E+02  0.45594000000E+02  0.51100000000E-03 0. -1.
    9900012    2    1    2    0    0  0.23621218217E+02  0.33093829997E+02  0.81845459668E-01  0.50528803837E+02  0.29999829744E+02 0.  0.
        -12    1    1    2    0    0 -0.23621218217E+02 -0.33093829997E+02 -0.81845459668E-01  0.40659196163E+02  0.00000000000E+00 0.  1.
         11    1    3    3    0    0  0.29659695700E+01  0.20708609813E+02  0.43970474866E+01  0.21377032599E+02  0.51100000000E-03 0. -1.
        -11    1    3    3    0    0 -0.13062276413E+01  0.21991837441E+01  0.29229938052E+01  0.38841386223E+01  0.51100000000E-03 0.  1.
        -12    1    3    3    0    0  0.21961476289E+02  0.10186036440E+02 -0.72381958321E+01  0.25267632616E+02  0.00000000000E+00 0.  1.
</event>
<event>
 7    1  0.2702714E-011  0.5052886E+02  0.7816164E-02  0.1300439E+00
        -11   -1    0    0    0    0  0.00000000000E+00  0.00000000000E+00  0.45593999997E+02  0.45594000000E+02  0.51100000000E-03 0.  1.
         11   -1    0    0    0    0 -0.00000000000E+00 -0.00000000000E+00 -0.45593999997E+02  0.45594000000E+02  0.51100000000E-03 0. -1.
    9900012    2    1    2    0    0 -0.10349647410E+02  0.90402527488E+01 -0.38266491163E+02  0.50528859365E+02  0.29999998525E+02 0.  0.
        -12    1    1    2    0    0  0.10349647410E+02 -0.90402527488E+01  0.38266491163E+02  0.40659140635E+02  0.00000000000E+00 0.  1.
         11    1    3    3    0    0 -0.11134802136E+01  0.14801256145E+02 -0.24031113789E+02  0.28245556320E+02  0.51100000000E-03 0. -1.
        -11    1    3    3    0    0  0.13968242165E+01  0.24292595322E+01 -0.57714282853E+01  0.64157466035E+01  0.51100000000E-03 0.  1.
        -12    1    3    3    0    0 -0.10632991413E+02 -0.81902629287E+01 -0.84639490891E+01  0.15867556441E+02  0.00000000000E+00 0.  1.
</event>
<event>
 7    1  0.2702714E-011  0.5052888E+02  0.7816164E-02  0.1300439E+00
        -11   -1    0    0    0    0  0.00000000000E+00  0.00000000000E+00  0.45593999997E+02  0.45594000000E+02  0.51100000000E-03 0.  1.
         11   -1    0    0    0    0 -0.00000000000E+00 -0.00000000000E+00 -0.45593999997E+02  0.45594000000E+02  0.51100000000E-03 0. -1.
    9900012    2    1    2    0    0  0.37839133928E+02 -0.14790967726E+02 -0.16098641870E+01  0.50528875005E+02  0.30000046064E+02 0.  0.
        -12    1    1    2    0    0 -0.37839133928E+02  0.14790967726E+02  0.16098641870E+01  0.40659124995E+02  0.00000000000E+00 0.  1.
         11    1    3    3    0    0  0.10818844502E+02  0.35160407511E+01  0.41221963776E+00  0.11383315168E+02  0.51100000000E-03 0.  1.
        -11    1    3    3    0    0  0.10043989332E+02  0.23274329782E+01 -0.63035213288E+01  0.12084413406E+02  0.51100000000E-03 0. -1.
        -12    1    3    3    0    0  0.16976300094E+02 -0.20634441455E+02  0.42814375041E+01  0.27061146431E+02  0.00000000000E+00 0.  1.
</event>
<event>
 7    1  0.2702714E-011  0.5052887E+02  0.7816164E-02  0.1300439E+00
        -11   -1    0    0    0    0  0.00000000000E+00  0.00000000000E+00  0.45593999997E+02  0.45594000000E+02  0.51100000000E-03 0. -1.
         11   -1    0    0    0    0 -0.00000000000E+00 -0.00000000000E+00 -0.45593999997E+02  0.45594000000E+02  0.51100000000E-03 0.  1.
    9900012    2    1    2    0    0  0.23418547079E+02 -0.12522801437E+02  0.30788247520E+02  0.50528867096E+02  0.30000022026E+02 0.  0.
        -12    1    1    2    0    0 -0.23418547079E+02  0.12522801437E+02 -0.30788247520E+02  0.40659132904E+02  0.00000000000E+00 0.  1.
         11    1    3    3    0    0  0.84684688062E+01 -0.48005670850E+00  0.15349256713E+02  0.17536963827E+02  0.51100000000E-03 0. -1.
        -11    1    3    3    0    0  0.15059145042E+02  0.19148576849E+01  0.74622482618E+01  0.16915368123E+02  0.51100000000E-03 0.  1.
         12    1    3    3    0    0 -0.10906676942E+00 -0.13957602413E+02  0.79767425462E+01  0.16076535147E+02  0.00000000000E+00 0. -1.
</event>
<event>
 7    1  0.2702714E-011  0.5052887E+02  0.7816164E-02  0.1300439E+00
        -11   -1    0    0    0    0  0.00000000000E+00  0.00000000000E+00  0.45593999997E+02  0.45594000000E+02  0.51100000000E-03 0.  1.
         11   -1    0    0    0    0 -0.00000000000E+00 -0.00000000000E+00 -0.45593999997E+02  0.45594000000E+02  0.51100000000E-03 0. -1.
    9900012    2    1    2    0    0  0.14010981918E+00 -0.42569900512E+01 -0.40435420217E+02  0.50528870604E+02  0.30000032689E+02 0.  0.
        -12    1    1    2    0    0 -0.14010981918E+00  0.42569900512E+01  0.40435420217E+02  0.40659129396E+02  0.00000000000E+00 0.  1.
         11    1    3    3    0    0 -0.61159768979E+01 -0.76692427177E+01 -0.12776514861E+02  0.16107817653E+02  0.51100000000E-03 0. -1.
        -11    1    3    3    0    0  0.50868849540E+01 -0.22444667132E+01  0.58666096617E+00  0.55909033896E+01  0.51100000000E-03 0.  1.
        -12    1    3    3    0    0  0.11692017631E+01  0.56567193796E+01 -0.28245566322E+02  0.28830149562E+02  0.00000000000E+00 0.  1.
</event>
<event>
 7    1  0.2702714E-011  0.5052886E+02  0.7816164E-02  0.1300439E+00
        -11   -1    0    0    0    0  0.00000000000E+00  0.00000000000E+00  0.45593999997E+02  0.45594000000E+02  0.51100000000E-03 0.  1.
         11   -1    0    0    0    0 -0.00000000000E+00 -0.00000000000E+00 -0.45593999997E+02  0.45594000000E+02  0.51100000000E-03 0. -1.
    9900012    2    1    2    0    0  0.13034837140E+02  0.31885397941E+02 -0.21600460872E+02  0.50528862146E+02  0.30000006980E+02 0.  0.
        -12    1    1    2    0    0 -0.13034837140E+02 -0.31885397941E+02  0.21600460872E+02  0.40659137854E+02  0.00000000000E+00 0.  1.
         11    1    3    3    0    0  0.11088863616E+01  0.11807301059E+02 -0.89745162845E+00  0.11893166397E+02  0.51100000000E-03 0. -1.
        -11    1    3    3    0    0 -0.74698574493E+00  0.46208824545E+01  0.44834050364E+01  0.64816250542E+01  0.51100000000E-03 0.  1.
        -12    1    3    3    0    0  0.12672936523E+02  0.15457214427E+02 -0.25186414280E+02  0.32154070695E+02  0.00000000000E+00 0.  1.
</event>
<event>
 7    1  0.2702714E-011  0.5052886E+02  0.7816164E-02  0.1300439E+00
        -11   -1    0    0    0    0  0.00000000000E+00  0.00000000000E+00  0.45593999997E+02  0.45594000000E+02  0.51100000000E-03 0.  1.
         11   -1    0    0    0    0 -0.00000000000E+00 -0.00000000000E+00 -0.45593999997E+02  0.45594000000E+02  0.51100000000E-03 0. -1.
    9900012    2    1    2    0    0 -0.36796320622E+02 -0.11744248149E+02  0.12699181787E+02  0.50528858421E+02  0.29999995657E+02 0.  0.
        -12    1    1    2    0    0  0.36796320622E+02  0.11744248149E+02 -0.12699181787E+02  0.40659141579E+02  0.00000000000E+00 0.  1.
         11    1    3    3    0    0 -0.65503164430E+01 -0.13178538865E+02  0.97023302168E+01  0.17627130907E+02  0.51100000000E-03 0. -1.
        -11    1    3    3    0    0 -0.11648050385E+02 -0.33988320900E+01  0.58585451805E+01  0.13474111817E+02  0.51100000000E-03 0.  1.
         12    1    3    3    0    0 -0.18597953794E+02  0.48331228064E+01 -0.28616936101E+01  0.19427615697E+02  0.00000000000E+00 0. -1.
</event>
<event>
 7    1  0.2702714E-011  0.5052886E+02  0.7816164E-02  0.1300439E+00
        -11   -1    0    0    0    0  0.00000000000E+00  0.00000000000E+00  0.45593999997E+02  0.45594000000E+02  0.51100000000E-03 0.  1.
         11   -1    0    0    0    0 -0.00000000000E+00 -0.00000000000E+00 -0.45593999997E+02  0.45594000000E+02  0.51100000000E-03 0. -1.
    9900012    2    1    2    0    0  0.25148935854E+02 -0.69447284506E+01 -0.31184410706E+02  0.50528859590E+02  0.29999999209E+02 0.  0.
        -12    1    1    2    0    0 -0.25148935854E+02  0.69447284506E+01  0.31184410706E+02  0.40659140410E+02  0.00000000000E+00 0.  1.
         11    1    3    3    0    0 -0.15593282168E+01 -0.38247661994E+00 -0.86913287369E+01  0.88383815446E+01  0.51100000000E-03 0. -1.
        -11    1    3    3    0    0  0.36261611522E+01  0.52202732890E+01  0.13244677907E+01  0.64926506993E+01  0.51100000000E-03 0.  1.
         12    1    3    3    0    0  0.23082102919E+02 -0.11782525120E+02 -0.23817549759E+02  0.35197827346E+02  0.00000000000E+00 0. -1.
</event>
<event>
 7    1  0.2702714E-011  0.5052886E+02  0.7816164E-02  0.1300439E+00
        -11   -1    0    0    0    0  0.00000000000E+00  0.00000000000E+00  0.45593999997E+02  0.45594000000E+02  0.51100000000E-03 0. -1.
         11   -1    0    0    0    0 -0.00000000000E+00 -0.00000000000E+00 -0.45593999997E+02  0.45594000000E+02  0.51100000000E-03 0.  1.
    9900012    2    1    2    0    0  0.22337666492E+02  0.19513921850E+02  0.27810091652E+02  0.50528859724E+02  0.29999999617E+02 0.  0.
        -12    1    1    2    0    0 -0.22337666492E+02 -0.19513921850E+02 -0.27810091652E+02  0.40659140276E+02  0.00000000000E+00 0.  1.
         11    1    3    3    0    0  0.63692719563E+01  0.63550841589E+01  0.21294822256E+02  0.23117616121E+02  0.51100000000E-03 0. -1.
        -11    1    3    3    0    0  0.78064811846E+01  0.14028197369E+02  0.95270478304E+01  0.18668050529E+02  0.51100000000E-03 0.  1.
        -12    1    3    3    0    0  0.81619133514E+01 -0.86935967819E+00 -0.30117784343E+01  0.87431930748E+01  0.00000000000E+00 0.  1.
</event>
<event>
 7    1  0.2702714E-011  0.5052886E+02  0.7816164E-02  0.1300439E+00
        -11   -1    0    0    0    0  0.00000000000E+00  0.00000000000E+00  0.45593999997E+02  0.45594000000E+02  0.51100000000E-03 0. -1.
         11   -1    0    0    0    0 -0.00000000000E+00 -0.00000000000E+00 -0.45593999997E+02  0.45594000000E+02  0.51100000000E-03 0.  1.
    9900012    2    1    2    0    0  0.16229617595E+02 -0.37278584109E+02 -0.26907154973E+00  0.50528859331E+02  0.29999998423E+02 0.  0.
        -12    1    1    2    0    0 -0.16229617595E+02  0.37278584109E+02  0.26907154973E+00  0.40659140669E+02  0.00000000000E+00 0.  1.
         11    1    3    3    0    0 -0.24773982427E+01 -0.17203637727E+02  0.77953341393E+01  0.19049144015E+02  0.51100000000E-03 0. -1.
        -11    1    3    3    0    0 -0.93678330670E+00 -0.41950606123E+01 -0.40448039743E+01  0.59022483814E+01  0.51100000000E-03 0.  1.
         12    1    3    3    0    0  0.19643799144E+02 -0.15879885770E+02 -0.40196017148E+01  0.25577466935E+02  0.00000000000E+00 0. -1.
</event>
<event>
 7    1  0.2702714E-011  0.5052886E+02  0.7816164E-02  0.1300439E+00
        -11   -1    0    0    0    0  0.00000000000E+00  0.00000000000E+00  0.45593999997E+02  0.45594000000E+02  0.51100000000E-03 0.  1.
         11   -1    0    0    0    0 -0.00000000000E+00 -0.00000000000E+00 -0.45593999997E+02  0.45594000000E+02  0.51100000000E-03 0. -1.
    9900012    2    1    2    0    0  0.35466665422E+02  0.97919526436E+01 -0.17303142841E+02  0.50528862713E+02  0.30000008702E+02 0.  0.
        -12    1    1    2    0    0 -0.35466665422E+02 -0.97919526436E+01  0.17303142841E+02  0.40659137287E+02  0.00000000000E+00 0.  1.
         11    1    3    3    0    0  0.27402933435E+02 -0.15185815589E+01 -0.56052124403E+01  0.28011520086E+02  0.51100000000E-03 0. -1.
        -11    1    3    3    0    0  0.82850598446E+01  0.86373109739E+01 -0.14390178967E+02  0.18716907021E+02  0.51100000000E-03 0.  1.
        -12    1    3    3    0    0 -0.22132785703E+00  0.26732232286E+01  0.26922485658E+01  0.38004356053E+01  0.00000000000E+00 0.  1.
</event>
<event>
 7    1  0.2702714E-011  0.5052886E+02  0.7816164E-02  0.1300439E+00
        -11   -1    0    0    0    0  0.00000000000E+00  0.00000000000E+00  0.45593999997E+02  0.45594000000E+02  0.51100000000E-03 0.  1.
         11   -1    0    0    0    0 -0.00000000000E+00 -0.00000000000E+00 -0.45593999997E+02  0.45594000000E+02  0.51100000000E-03 0. -1.
    9900012    2    1    2    0    0  0.39115653560E+02  0.38248363949E+01 -0.10416433727E+02  0.50528858119E+02  0.29999994740E+02 0.  0.
        -12    1    1    2    0    0 -0.39115653560E+02 -0.38248363949E+01  0.10416433727E+02  0.40659141881E+02  0.00000000000E+00 0.  1.
         11    1    3    3    0    0  0.15926758993E+01 -0.47301257324E+01 -0.38324320954E+01  0.62927134045E+01  0.51100000000E-03 0. -1.
        -11    1    3    3    0    0  0.53852746286E+01  0.24822052312E+01  0.66890931352E+01  0.89390431740E+01  0.51100000000E-03 0.  1.
         12    1    3    3    0    0  0.32137703032E+02  0.60727568961E+01 -0.13273094766E+02  0.35297101541E+02  0.00000000000E+00 0. -1.
</event>
<event>
 7    1  0.2702714E-011  0.5052886E+02  0.7816164E-02  0.1300439E+00
        -11   -1    0    0    0    0  0.00000000000E+00  0.00000000000E+00  0.45593999997E+02  0.45594000000E+02  0.51100000000E-03 0.  1.
         11   -1    0    0    0    0 -0.00000000000E+00 -0.00000000000E+00 -0.45593999997E+02  0.45594000000E+02  0.51100000000E-03 0. -1.
    9900012    2    1    2    0    0  0.68062581970E+01 -0.27329727408E+02  0.29324506248E+02  0.50528858130E+02  0.29999994773E+02 0.  0.
        -12    1    1    2    0    0 -0.68062581970E+01  0.27329727408E+02 -0.29324506248E+02  0.40659141870E+02  0.00000000000E+00 0.  1.
         11    1    3    3    0    0  0.14119253001E+01 -0.28889018975E+02  0.25093033764E+02  0.38291373626E+02  0.51100000000E-03 0. -1.
        -11    1    3    3    0    0 -0.19570758973E+01 -0.20645804135E+01 -0.31955924281E+00  0.28626485503E+01  0.51100000000E-03 0.  1.
        -12    1    3    3    0    0  0.73514087942E+01  0.36238719804E+01  0.45510317272E+01  0.93748359544E+01  0.00000000000E+00 0.  1.
</event>
<event>
 7    1  0.2702714E-011  0.5052883E+02  0.7816164E-02  0.1300439E+00
        -11   -1    0    0    0    0  0.00000000000E+00  0.00000000000E+00  0.45593999997E+02  0.45594000000E+02  0.51100000000E-03 0.  1.
         11   -1    0    0    0    0 -0.00000000000E+00 -0.00000000000E+00 -0.45593999997E+02  0.45594000000E+02  0.51100000000E-03 0. -1.
    9900012    2    1    2    0    0 -0.26307227967E+02  0.26907199701E+02 -0.15398059976E+02  0.50528832645E+02  0.29999917306E+02 0.  0.
        -12    1    1    2    0    0  0.26307227967E+02 -0.26907199701E+02  0.15398059976E+02  0.40659167355E+02  0.00000000000E+00 0.  1.
         11    1    3    3    0    0 -0.11488022576E+02  0.27124569396E+02 -0.58894084455E+01  0.30040007652E+02  0.51100000000E-03 0. -1.
        -11    1    3    3    0    0 -0.81807106324E+00 -0.23278088403E+01  0.11926341533E+01  0.27404946171E+01  0.51100000000E-03 0.  1.
        -12    1    3    3    0    0 -0.14001134328E+02  0.21104391450E+01 -0.10701285683E+02  0.17748330376E+02  0.00000000000E+00 0.  1.
</event>
<event>
 7    1  0.2702714E-011  0.5052886E+02  0.7816164E-02  0.1300439E+00
        -11   -1    0    0    0    0  0.00000000000E+00  0.00000000000E+00  0.45593999997E+02  0.45594000000E+02  0.51100000000E-03 0.  1.
         11   -1    0    0    0    0 -0.00000000000E+00 -0.00000000000E+00 -0.45593999997E+02  0.45594000000E+02  0.51100000000E-03 0. -1.
    9900012    2    1    2    0    0 -0.40517451185E+02  0.29979452400E+01  0.15854936618E+01  0.50528864294E+02  0.30000013509E+02 0.  0.
        -12    1    1    2    0    0  0.40517451185E+02 -0.29979452400E+01 -0.15854936618E+01  0.40659135706E+02  0.00000000000E+00 0.  1.
         11    1    3    3    0    0 -0.98734218405E+01  0.77503195441E+01  0.68010250484E+01  0.14276058764E+02  0.51100000000E-03 0. -1.
        -11    1    3    3    0    0  0.23694051635E+01 -0.25082496706E+00  0.53321834988E+00  0.24415806484E+01  0.51100000000E-03 0.  1.
         12    1    3    3    0    0 -0.33013434508E+02 -0.45015493371E+01 -0.57487497365E+01  0.33811224881E+02  0.00000000000E+00 0. -1.
</event>
<event>
 7    1  0.2702714E-011  0.5052885E+02  0.7816164E-02  0.1300439E+00
        -11   -1    0    0    0    0  0.00000000000E+00  0.00000000000E+00  0.45593999997E+02  0.45594000000E+02  0.51100000000E-03 0. -1.
         11   -1    0    0    0    0 -0.00000000000E+00 -0.00000000000E+00 -0.45593999997E+02  0.45594000000E+02  0.51100000000E-03 0.  1.
    9900012    2    1    2    0    0 -0.37476956675E+02  0.10348578762E+02 -0.11897536157E+02  0.50528846902E+02  0.29999960643E+02 0.  0.
        -12    1    1    2    0    0  0.37476956675E+02 -0.10348578762E+02  0.11897536157E+02  0.40659153098E+02  0.00000000000E+00 0.  1.
         11    1    3    3    0    0 -0.15737411317E+02  0.60821524247E+01 -0.13213471067E+02  0.21430224240E+02  0.51100000000E-03 0. -1.
        -11    1    3    3    0    0 -0.22888411716E+02  0.39684553017E+01 -0.40697572715E+01  0.23583701001E+02  0.51100000000E-03 0.  1.
        -12    1    3    3    0    0  0.11488663577E+01  0.29797103579E+00  0.53856921824E+01  0.55149216613E+01  0.00000000000E+00 0.  1.
</event>
<event>
 7    1  0.2702714E-011  0.5052886E+02  0.7816164E-02  0.1300439E+00
        -11   -1    0    0    0    0  0.00000000000E+00  0.00000000000E+00  0.45593999997E+02  0.45594000000E+02  0.51100000000E-03 0.  1.
         11   -1    0    0    0    0 -0.00000000000E+00 -0.00000000000E+00 -0.45593999997E+02  0.45594000000E+02  0.51100000000E-03 0. -1.
    9900012    2    1    2    0    0 -0.25178616464E+02  0.29078340565E+02 -0.13177736476E+02  0.50528863811E+02  0.30000012040E+02 0.  0.
        -12    1    1    2    0    0  0.25178616464E+02 -0.29078340565E+02  0.13177736476E+02  0.40659136189E+02  0.00000000000E+00 0.  1.
         11    1    3    3    0    0 -0.54300790789E+01 -0.35467802871E+01 -0.48730366948E+01  0.81124531492E+01  0.51100000000E-03 0. -1.
        -11    1    3    3    0    0  0.12496226926E+01  0.10939733357E+02  0.34356501222E+00  0.11016231660E+02  0.51100000000E-03 0.  1.
        -12    1    3    3    0    0 -0.20998160077E+02  0.21685387494E+02 -0.86482647933E+01  0.31400179002E+02  0.00000000000E+00 0.  1.
</event>
<event>
 7    1  0.2702714E-011  0.5052885E+02  0.7816164E-02  0.1300439E+00
        -11   -1    0    0    0    0  0.00000000000E+00  0.00000000000E+00  0.45593999997E+02  0.45594000000E+02  0.51100000000E-03 0.  1.
         11   -1    0    0    0    0 -0.00000000000E+00 -0.00000000000E+00 -0.45593999997E+02  0.45594000000E+02  0.51100000000E-03 0. -1.
    9900012    2    1    2    0    0  0.10312045663E+02 -0.13144899002E+02 -0.37068042096E+02  0.50528850964E+02  0.29999972989E+02 0.  0.
        -12    1    1    2    0    0 -0.10312045663E+02  0.13144899002E+02  0.37068042096E+02  0.40659149036E+02  0.00000000000E+00 0.  1.
         11    1    3    3    0    0  0.63852412044E+01  0.34064186986E+01 -0.16427563825E+02  0.17951040278E+02  0.51100000000E-03 0. -1.
        -11    1    3    3    0    0  0.72878621379E+00  0.37695966019E+01 -0.67197775780E+01  0.77392763774E+01  0.51100000000E-03 0.  1.
        -12    1    3    3    0    0  0.31980182449E+01 -0.20320914303E+02 -0.13920700693E+02  0.24838534308E+02  0.00000000000E+00 0.  1.
</event>
<event>
 7    1  0.2702714E-011  0.5052886E+02  0.7816164E-02  0.1300439E+00
        -11   -1    0    0    0    0  0.00000000000E+00  0.00000000000E+00  0.45593999997E+02  0.45594000000E+02  0.51100000000E-03 0.  1.
         11   -1    0    0    0    0 -0.00000000000E+00 -0.00000000000E+00 -0.45593999997E+02  0.45594000000E+02  0.51100000000E-03 0. -1.
    9900012    2    1    2    0    0 -0.52184194687E+01 -0.16329053618E+02 -0.36868629458E+02  0.50528859183E+02  0.29999997974E+02 0.  0.
        -12    1    1    2    0    0  0.52184194687E+01  0.16329053618E+02  0.36868629458E+02  0.40659140817E+02  0.00000000000E+00 0.  1.
         11    1    3    3    0    0  0.28641543601E+01 -0.12162953342E+02 -0.12166345236E+02  0.17440205585E+02  0.51100000000E-03 0. -1.
        -11    1    3    3    0    0 -0.80299466242E+01 -0.91874057797E+01 -0.25243609329E+02  0.28037979242E+02  0.51100000000E-03 0.  1.
        -12    1    3    3    0    0 -0.52627204568E-01  0.50213055036E+01  0.54132510621E+00  0.50506743564E+01  0.00000000000E+00 0.  1.
</event>
<event>
 7    1  0.2702714E-011  0.5052886E+02  0.7816164E-02  0.1300439E+00
        -11   -1    0    0    0    0  0.00000000000E+00  0.00000000000E+00  0.45593999997E+02  0.45594000000E+02  0.51100000000E-03 0. -1.
         11   -1    0    0    0    0 -0.00000000000E+00 -0.00000000000E+00 -0.45593999997E+02  0.45594000000E+02  0.51100000000E-03 0.  1.
    9900012    2    1    2    0    0 -0.26614018095E+02  0.10495872245E+02  0.28891108019E+02  0.50528863070E+02  0.30000009787E+02 0.  0.
        -12    1    1    2    0    0  0.26614018095E+02 -0.10495872245E+02 -0.28891108019E+02  0.40659136930E+02  0.00000000000E+00 0.  1.
         11    1    3    3    0    0 -0.89289583056E+01 -0.80959389225E+01  0.87581481029E+01  0.14898848342E+02  0.51100000000E-03 0. -1.
        -11    1    3    3    0    0  0.11848409639E+01  0.47878070849E+01  0.24974962011E+00  0.49385544368E+01  0.51100000000E-03 0.  1.
        -12    1    3    3    0    0 -0.18869900753E+02  0.13804004082E+02  0.19883210296E+02  0.30691460291E+02  0.00000000000E+00 0.  1.
</event>
<event>
 7    1  0.2702714E-011  0.5052886E+02  0.7816164E-02  0.1300439E+00
        -11   -1    0    0    0    0  0.00000000000E+00  0.00000000000E+00  0.45593999997E+02  0.45594000000E+02  0.51100000000E-03 0. -1.
         11   -1    0    0    0    0 -0.00000000000E+00 -0.00000000000E+00 -0.45593999997E+02  0.45594000000E+02  0.51100000000E-03 0.  1.
    9900012    2    1    2    0    0  0.65152469738E+01  0.35634760368E+02  0.18462965667E+02  0.50528859689E+02  0.29999999511E+02 0.  0.
        -12    1    1    2    0    0 -0.65152469738E+01 -0.35634760368E+02 -0.18462965667E+02  0.40659140311E+02  0.00000000000E+00 0.  1.
         11    1    3    3    0    0  0.29265005558E+01  0.96736072296E+01  0.17274573851E+02  0.20013844816E+02  0.51100000000E-03 0. -1.
        -11    1    3    3    0    0 -0.47851181021E+01  0.28172111881E+01  0.19656323190E+01  0.58904791659E+01  0.51100000000E-03 0.  1.
         12    1    3    3    0    0  0.83738645202E+01  0.23143941950E+02 -0.77724050304E+00  0.24624535707E+02  0.00000000000E+00 0. -1.
</event>
<event>
 7    1  0.2702714E-011  0.5052885E+02  0.7816164E-02  0.1300439E+00
        -11   -1    0    0    0    0  0.00000000000E+00  0.00000000000E+00  0.45593999997E+02  0.45594000000E+02  0.51100000000E-03 0. -1.
         11   -1    0    0    0    0 -0.00000000000E+00 -0.00000000000E+00 -0.45593999997E+02  0.45594000000E+02  0.51100000000E-03 0.  1.
    9900012    2    1    2    0    0  0.23157133503E+02 -0.10623247263E+02  0.31686911507E+02  0.50528848812E+02  0.29999966449E+02 0.  0.
        -12    1    1    2    0    0 -0.23157133503E+02  0.10623247263E+02 -0.31686911507E+02  0.40659151188E+02  0.00000000000E+00 0.  1.
         11    1    3    3    0    0  0.34309788401E+01  0.65595702787E+01  0.13868217891E+02  0.15720274991E+02  0.51100000000E-03 0. -1.
        -11    1    3    3    0    0  0.16593262348E+01 -0.15620934264E+01  0.91040025708E+01  0.93849007718E+01  0.51100000000E-03 0.  1.
        -12    1    3    3    0    0  0.18066828428E+02 -0.15620724115E+02  0.87146910448E+01  0.25423673049E+02  0.00000000000E+00 0.  1.
</event>
<event>
 7    1  0.2702714E-011  0.5052886E+02  0.7816164E-02  0.1300439E+00
        -11   -1    0    0    0    0  0.00000000000E+00  0.00000000000E+00  0.45593999997E+02  0.45594000000E+02  0.51100000000E-03 0.  1.
         11   -1    0    0    0    0 -0.00000000000E+00 -0.00000000000E+00 -0.45593999997E+02  0.45594000000E+02  0.51100000000E-03 0. -1.
    9900012    2    1    2    0    0 -0.24863303783E+02 -0.20034192309E+02 -0.25171664316E+02  0.50528863008E+02  0.30000009599E+02 0.  0.
        -12    1    1    2    0    0  0.24863303783E+02  0.20034192309E+02  0.25171664316E+02  0.40659136992E+02  0.00000000000E+00 0.  1.
         11    1    3    3    0    0 -0.20995952150E+02 -0.13093620222E+02 -0.13172115894E+02  0.28031723718E+02  0.51100000000E-03 0. -1.
        -11    1    3    3    0    0 -0.99433750700E+01 -0.46011712996E+00 -0.47410287782E+01  0.11025414718E+02  0.51100000000E-03 0.  1.
        -12    1    3    3    0    0  0.60760234367E+01 -0.64804549568E+01 -0.72585196437E+01  0.11471724573E+02  0.00000000000E+00 0.  1.
</event>
<event>
 7    1  0.2702714E-011  0.5052886E+02  0.7816164E-02  0.1300439E+00
        -11   -1    0    0    0    0  0.00000000000E+00  0.00000000000E+00  0.45593999997E+02  0.45594000000E+02  0.51100000000E-03 0.  1.
         11   -1    0    0    0    0 -0.00000000000E+00 -0.00000000000E+00 -0.45593999997E+02  0.45594000000E+02  0.51100000000E-03 0. -1.
    9900012    2    1    2    0    0  0.98319276773E+01 -0.23699464520E+02 -0.31540995115E+02  0.50528858430E+02  0.29999995683E+02 0.  0.
        -12    1    1    2    0    0 -0.98319276773E+01  0.23699464520E+02  0.31540995115E+02  0.40659141570E+02  0.00000000000E+00 0.  1.
         11    1    3    3    0    0  0.11025209894E+02 -0.15842726104E+02 -0.28233885933E+02  0.34200870438E+02  0.51100000000E-03 0.  1.
        -11    1    3    3    0    0 -0.59769191914E+01 -0.46071585763E+01 -0.62871696625E+01  0.98223202857E+01  0.51100000000E-03 0. -1.
        -12    1    3    3    0    0  0.47836369744E+01 -0.32495798392E+01  0.29800604800E+01  0.65056677058E+01  0.00000000000E+00 0.  1.
</event>
<event>
 7    1  0.2702714E-011  0.5052886E+02  0.7816164E-02  0.1300439E+00
        -11   -1    0    0    0    0  0.00000000000E+00  0.00000000000E+00  0.45593999997E+02  0.45594000000E+02  0.51100000000E-03 0.  1.
         11   -1    0    0    0    0 -0.00000000000E+00 -0.00000000000E+00 -0.45593999997E+02  0.45594000000E+02  0.51100000000E-03 0. -1.
    9900012    2    1    2    0    0  0.15769306599E+02 -0.15543851108E+02 -0.34101078765E+02  0.50528856984E+02  0.29999991289E+02 0.  0.
        -12    1    1    2    0    0 -0.15769306599E+02  0.15543851108E+02  0.34101078765E+02  0.40659143016E+02  0.00000000000E+00 0.  1.
         11    1    3    3    0    0  0.11192095308E+02 -0.88749027346E+01 -0.13713530611E+02  0.19801207488E+02  0.51100000000E-03 0. -1.
        -11    1    3    3    0    0  0.98766219682E+00 -0.79430078292E+01 -0.24108712241E+02  0.25402693876E+02  0.51100000000E-03 0.  1.
         12    1    3    3    0    0  0.35895490941E+01  0.12740594559E+01  0.37211640863E+01  0.53249556199E+01  0.00000000000E+00 0. -1.
</event>
<event>
 7    1  0.2702714E-011  0.5052886E+02  0.7816164E-02  0.1300439E+00
        -11   -1    0    0    0    0  0.00000000000E+00  0.00000000000E+00  0.45593999997E+02  0.45594000000E+02  0.51100000000E-03 0.  1.
         11   -1    0    0    0    0 -0.00000000000E+00 -0.00000000000E+00 -0.45593999997E+02  0.45594000000E+02  0.51100000000E-03 0. -1.
    9900012    2    1    2    0    0 -0.17204480916E+02 -0.23644682945E+02 -0.28250673088E+02  0.50528859268E+02  0.29999998230E+02 0.  0.
        -12    1    1    2    0    0  0.17204480916E+02  0.23644682945E+02  0.28250673088E+02  0.40659140732E+02  0.00000000000E+00 0.  1.
         11    1    3    3    0    0  0.64006082389E+01 -0.10236236388E+02 -0.10888855255E+02  0.16257782452E+02  0.51100000000E-03 0. -1.
        -11    1    3    3    0    0 -0.57869212290E+01  0.14928291027E+01 -0.15562077280E+01  0.61756601910E+01  0.51100000000E-03 0.  1.
        -12    1    3    3    0    0 -0.17818167926E+02 -0.14901275660E+02 -0.15805610105E+02  0.28095416625E+02  0.00000000000E+00 0.  1.
</event>
<event>
 7    1  0.2702714E-011  0.5052887E+02  0.7816164E-02  0.1300439E+00
        -11   -1    0    0    0    0  0.00000000000E+00  0.00000000000E+00  0.45593999997E+02  0.45594000000E+02  0.51100000000E-03 0. -1.
         11   -1    0    0    0    0 -0.00000000000E+00 -0.00000000000E+00 -0.45593999997E+02  0.45594000000E+02  0.51100000000E-03 0.  1.
    9900012    2    1    2    0    0  0.40389643288E+02 -0.27187448133E+01  0.38013010184E+01  0.50528871287E+02  0.30000034763E+02 0.  0.
        -12    1    1    2    0    0 -0.40389643288E+02  0.27187448133E+01 -0.38013010184E+01  0.40659128713E+02  0.00000000000E+00 0.  1.
         11    1    3    3    0    0  0.15715924890E+02  0.34176287969E+01 -0.56084650663E+01  0.17033066735E+02  0.51100000000E-03 0.  1.
        -11    1    3    3    0    0 -0.23713018769E+00 -0.25217111060E+01  0.78806433972E+01  0.82776686478E+01  0.51100000000E-03 0. -1.
         12    1    3    3    0    0  0.24910848586E+02 -0.36146625041E+01  0.15291226875E+01  0.25218135904E+02  0.00000000000E+00 0. -1.
</event>
<event>
 7    1  0.2702714E-011  0.5052886E+02  0.7816164E-02  0.1300439E+00
        -11   -1    0    0    0    0  0.00000000000E+00  0.00000000000E+00  0.45593999997E+02  0.45594000000E+02  0.51100000000E-03 0. -1.
         11   -1    0    0    0    0 -0.00000000000E+00 -0.00000000000E+00 -0.45593999997E+02  0.45594000000E+02  0.51100000000E-03 0.  1.
    9900012    2    1    2    0    0 -0.87647419341E+01  0.27984552569E+01  0.39604463411E+02  0.50528861113E+02  0.30000003839E+02 0.  0.
        -12    1    1    2    0    0  0.87647419341E+01 -0.27984552569E+01 -0.39604463411E+02  0.40659138887E+02  0.00000000000E+00 0.  1.
         11    1    3    3    0    0 -0.10106549877E+02  0.63708539454E+01  0.10173376927E+02  0.15691645190E+02  0.51100000000E-03 0. -1.
        -11    1    3    3    0    0  0.17462952441E+01  0.68247781802E+01  0.62080328261E+01  0.93897186390E+01  0.51100000000E-03 0.  1.
         12    1    3    3    0    0 -0.40448730089E+00 -0.10397176869E+02  0.23223053658E+02  0.25447497284E+02  0.00000000000E+00 0. -1.
</event>
<event>
 7    1  0.2702714E-011  0.5052885E+02  0.7816164E-02  0.1300439E+00
        -11   -1    0    0    0    0  0.00000000000E+00  0.00000000000E+00  0.45593999997E+02  0.45594000000E+02  0.51100000000E-03 0.  1.
         11   -1    0    0    0    0 -0.00000000000E+00 -0.00000000000E+00 -0.45593999997E+02  0.45594000000E+02  0.51100000000E-03 0. -1.
    9900012    2    1    2    0    0 -0.21211428415E+02  0.32964151138E+02 -0.10798444486E+02  0.50528851473E+02  0.29999974537E+02 0.  0.
        -12    1    1    2    0    0  0.21211428415E+02 -0.32964151138E+02  0.10798444486E+02  0.40659148527E+02  0.00000000000E+00 0.  1.
         11    1    3    3    0    0  0.28891175971E+01  0.11513860662E+02 -0.53139240572E+01  0.13005913154E+02  0.51100000000E-03 0. -1.
        -11    1    3    3    0    0 -0.20121838451E+01  0.78909517932E+01  0.50094776848E+01  0.95609032505E+01  0.51100000000E-03 0.  1.
        -12    1    3    3    0    0 -0.22088362167E+02  0.13559338683E+02 -0.10493998114E+02  0.27962035068E+02  0.00000000000E+00 0.  1.
</event>
<event>
 7    1  0.2702714E-011  0.5052887E+02  0.7816164E-02  0.1300439E+00
        -11   -1    0    0    0    0  0.00000000000E+00  0.00000000000E+00  0.45593999997E+02  0.45594000000E+02  0.51100000000E-03 0. -1.
         11   -1    0    0    0    0 -0.00000000000E+00 -0.00000000000E+00 -0.45593999997E+02  0.45594000000E+02  0.51100000000E-03 0.  1.
    9900012    2    1    2    0    0 -0.22254028509E+02  0.41600997574E+01  0.33773010566E+02  0.50528874855E+02  0.30000045610E+02 0.  0.
        -12    1    1    2    0    0  0.22254028509E+02 -0.41600997574E+01 -0.33773010566E+02  0.40659125145E+02  0.00000000000E+00 0.  1.
         11    1    3    3    0    0 -0.10328546968E+02 -0.99495903688E+01  0.91405166237E+01  0.17006536255E+02  0.51100000000E-03 0. -1.
        -11    1    3    3    0    0 -0.77857289836E+00  0.37264703822E+01 -0.78719414862E+00  0.38874711776E+01  0.51100000000E-03 0.  1.
        -12    1    3    3    0    0 -0.11146908643E+02  0.10383219744E+02  0.25419688091E+02  0.29634867423E+02  0.00000000000E+00 0.  1.
</event>
<event>
 7    1  0.2702714E-011  0.5052886E+02  0.7816164E-02  0.1300439E+00
        -11   -1    0    0    0    0  0.00000000000E+00  0.00000000000E+00  0.45593999997E+02  0.45594000000E+02  0.51100000000E-03 0. -1.
         11   -1    0    0    0    0 -0.00000000000E+00 -0.00000000000E+00 -0.45593999997E+02  0.45594000000E+02  0.51100000000E-03 0.  1.
    9900012    2    1    2    0    0 -0.84659725578E+01 -0.36983129238E+02  0.14619896618E+02  0.50528856912E+02  0.29999991069E+02 0.  0.
        -12    1    1    2    0    0  0.84659725578E+01  0.36983129238E+02 -0.14619896618E+02  0.40659143088E+02  0.00000000000E+00 0.  1.
         11    1    3    3    0    0  0.40033992554E+01 -0.31383611171E+01  0.23574366650E+01  0.56066053892E+01  0.51100000000E-03 0.  1.
        -11    1    3    3    0    0 -0.16766289191E+02 -0.14918562359E+02  0.12136377980E+02  0.25513988845E+02  0.51100000000E-03 0. -1.
         12    1    3    3    0    0  0.42969173773E+01 -0.18926205762E+02  0.12608197379E+00  0.19408262677E+02  0.00000000000E+00 0. -1.
</event>
<event>
 7    1  0.2702714E-011  0.5052886E+02  0.7816164E-02  0.1300439E+00
        -11   -1    0    0    0    0  0.00000000000E+00  0.00000000000E+00  0.45593999997E+02  0.45594000000E+02  0.51100000000E-03 0.  1.
         11   -1    0    0    0    0 -0.00000000000E+00 -0.00000000000E+00 -0.45593999997E+02  0.45594000000E+02  0.51100000000E-03 0. -1.
    9900012    2    1    2    0    0 -0.23889276078E+02  0.29363820180E+02 -0.14840280545E+02  0.50528863588E+02  0.30000011363E+02 0.  0.
        -12    1    1    2    0    0  0.23889276078E+02 -0.29363820180E+02  0.14840280545E+02  0.40659136412E+02  0.00000000000E+00 0.  1.
         11    1    3    3    0    0  0.40037867821E+01  0.64670080070E+01 -0.51150220306E+01  0.91660215903E+01  0.51100000000E-03 0. -1.
        -11    1    3    3    0    0 -0.94696214650E+01  0.84519233306E+01  0.50705540238E+01  0.13668184117E+02  0.51100000000E-03 0.  1.
        -12    1    3    3    0    0 -0.18423441395E+02  0.14444888842E+02 -0.14795812539E+02  0.27694657881E+02  0.00000000000E+00 0.  1.
</event>
<event>
 7    1  0.2702714E-011  0.5052886E+02  0.7816164E-02  0.1300439E+00
        -11   -1    0    0    0    0  0.00000000000E+00  0.00000000000E+00  0.45593999997E+02  0.45594000000E+02  0.51100000000E-03 0.  1.
         11   -1    0    0    0    0 -0.00000000000E+00 -0.00000000000E+00 -0.45593999997E+02  0.45594000000E+02  0.51100000000E-03 0. -1.
    9900012    2    1    2    0    0 -0.18100484480E+02  0.31500377067E+02 -0.18255540984E+02  0.50528855021E+02  0.29999985323E+02 0.  0.
        -12    1    1    2    0    0  0.18100484480E+02 -0.31500377067E+02  0.18255540984E+02  0.40659144979E+02  0.00000000000E+00 0.  1.
         11    1    3    3    0    0 -0.12777621573E+02  0.20766730704E+02 -0.12696105397E+02  0.27490285733E+02  0.51100000000E-03 0. -1.
        -11    1    3    3    0    0 -0.12200897261E+02  0.66464531905E+01 -0.12471187176E+01  0.13949642983E+02  0.51100000000E-03 0.  1.
         12    1    3    3    0    0  0.68780343537E+01  0.40871931724E+01 -0.43123168694E+01  0.90889263052E+01  0.00000000000E+00 0. -1.
</event>
<event>
 7    1  0.2702714E-011  0.5052888E+02  0.7816164E-02  0.1300439E+00
        -11   -1    0    0    0    0  0.00000000000E+00  0.00000000000E+00  0.45593999997E+02  0.45594000000E+02  0.51100000000E-03 0.  1.
         11   -1    0    0    0    0 -0.00000000000E+00 -0.00000000000E+00 -0.45593999997E+02  0.45594000000E+02  0.51100000000E-03 0. -1.
    9900012    2    1    2    0    0 -0.87141840023E+00 -0.11986817968E+02 -0.38842259146E+02  0.50528877154E+02  0.30000052598E+02 0.  0.
        -12    1    1    2    0    0  0.87141840023E+00  0.11986817968E+02  0.38842259146E+02  0.40659122846E+02  0.00000000000E+00 0.  1.
         11    1    3    3    0    0  0.26902244407E+01 -0.17007809135E+01 -0.77031275361E+01  0.83347547868E+01  0.51100000000E-03 0. -1.
        -11    1    3    3    0    0  0.10323794757E+02 -0.14126968130E+01 -0.56803751155E+01  0.11867734080E+02  0.51100000000E-03 0.  1.
        -12    1    3    3    0    0 -0.13885437598E+02 -0.88733402413E+01 -0.25458756494E+02  0.30326388288E+02  0.00000000000E+00 0.  1.
</event>
<event>
 7    1  0.2702714E-011  0.5052888E+02  0.7816164E-02  0.1300439E+00
        -11   -1    0    0    0    0  0.00000000000E+00  0.00000000000E+00  0.45593999997E+02  0.45594000000E+02  0.51100000000E-03 0. -1.
         11   -1    0    0    0    0 -0.00000000000E+00 -0.00000000000E+00 -0.45593999997E+02  0.45594000000E+02  0.51100000000E-03 0.  1.
    9900012    2    1    2    0    0  0.47742994140E+01 -0.35602226584E+02  0.19048659365E+02  0.50528881758E+02  0.30000066591E+02 0.  0.
        -12    1    1    2    0    0 -0.47742994140E+01  0.35602226584E+02 -0.19048659365E+02  0.40659118242E+02  0.00000000000E+00 0.  1.
         11    1    3    3    0    0  0.49446143258E+01 -0.37429044675E+02  0.11903441272E+02  0.39586291951E+02  0.51100000000E-03 0. -1.
        -11    1    3    3    0    0 -0.39025072920E+00 -0.78555986125E+00 -0.15935717626E+01  0.18190302776E+01  0.51100000000E-03 0.  1.
         12    1    3    3    0    0  0.21993581738E+00  0.26123779519E+01  0.87387898559E+01  0.91235595287E+01  0.00000000000E+00 0. -1.
</event>
<event>
 7    1  0.2702714E-011  0.5052886E+02  0.7816164E-02  0.1300439E+00
        -11   -1    0    0    0    0  0.00000000000E+00  0.00000000000E+00  0.45593999997E+02  0.45594000000E+02  0.51100000000E-03 0.  1.
         11   -1    0    0    0    0 -0.00000000000E+00 -0.00000000000E+00 -0.45593999997E+02  0.45594000000E+02  0.51100000000E-03 0. -1.
    9900012    2    1    2    0    0 -0.13841921004E+02  0.24719587919E+02 -0.29163489588E+02  0.50528856761E+02  0.29999990612E+02 0.  0.
        -12    1    1    2    0    0  0.13841921004E+02 -0.24719587919E+02  0.29163489588E+02  0.40659143239E+02  0.00000000000E+00 0.  1.
         11    1    3    3    0    0 -0.79483965890E+01  0.17805886562E+02 -0.28477875539E+02  0.34513997162E+02  0.51100000000E-03 0. -1.
        -11    1    3    3    0    0 -0.77786572052E+01  0.93206638914E+01  0.15341926041E+01  0.12236667459E+02  0.51100000000E-03 0.  1.
        -12    1    3    3    0    0  0.18851327898E+01 -0.24069625344E+01 -0.22198066524E+01  0.37781921406E+01  0.00000000000E+00 0.  1.
</event>
<event>
 7    1  0.2702714E-011  0.5052887E+02  0.7816164E-02  0.1300439E+00
        -11   -1    0    0    0    0  0.00000000000E+00  0.00000000000E+00  0.45593999997E+02  0.45594000000E+02  0.51100000000E-03 0.  1.
         11   -1    0    0    0    0 -0.00000000000E+00 -0.00000000000E+00 -0.45593999997E+02  0.45594000000E+02  0.51100000000E-03 0. -1.
    9900012    2    1    2    0    0 -0.41748273462E+01 -0.38604997151E+02  0.12057774541E+02  0.50528869227E+02  0.30000028502E+02 0.  0.
        -12    1    1    2    0    0  0.41748273462E+01  0.38604997151E+02 -0.12057774541E+02  0.40659130773E+02  0.00000000000E+00 0.  1.
         11    1    3    3    0    0 -0.52731395347E+01 -0.23558151465E+01 -0.46100678175E+01  0.73897625875E+01  0.51100000000E-03 0. -1.
        -11    1    3    3    0    0  0.48326334928E+01 -0.77340376425E+01  0.10161281543E+02  0.13653619579E+02  0.51100000000E-03 0.  1.
         12    1    3    3    0    0 -0.37343213043E+01 -0.28515144361E+02  0.65065608148E+01  0.29485487061E+02  0.00000000000E+00 0. -1.
</event>
<event>
 7    1  0.2702714E-011  0.5052887E+02  0.7816164E-02  0.1300439E+00
        -11   -1    0    0    0    0  0.00000000000E+00  0.00000000000E+00  0.45593999997E+02  0.45594000000E+02  0.51100000000E-03 0. -1.
         11   -1    0    0    0    0 -0.00000000000E+00 -0.00000000000E+00 -0.45593999997E+02  0.45594000000E+02  0.51100000000E-03 0.  1.
    9900012    2    1    2    0    0  0.39695676297E+02  0.76548744566E+01  0.43383633564E+01  0.50528865526E+02  0.30000017251E+02 0.  0.
        -12    1    1    2    0    0 -0.39695676297E+02 -0.76548744566E+01 -0.43383633564E+01  0.40659134474E+02  0.00000000000E+00 0.  1.
         11    1    3    3    0    0  0.18103682126E+02 -0.10869982974E+01 -0.67731836022E+01  0.19359775004E+02  0.51100000000E-03 0. -1.
        -11    1    3    3    0    0 -0.36928086092E+00  0.36374890180E+01 -0.28622268762E+01  0.46432787621E+01  0.51100000000E-03 0.  1.
        -12    1    3    3    0    0  0.21961275032E+02  0.51043837359E+01  0.13973773835E+02  0.26525811760E+02  0.00000000000E+00 0.  1.
</event>
<event>
 7    1  0.2702714E-011  0.5052884E+02  0.7816164E-02  0.1300439E+00
        -11   -1    0    0    0    0  0.00000000000E+00  0.00000000000E+00  0.45593999997E+02  0.45594000000E+02  0.51100000000E-03 0.  1.
         11   -1    0    0    0    0 -0.00000000000E+00 -0.00000000000E+00 -0.45593999997E+02  0.45594000000E+02  0.51100000000E-03 0. -1.
    9900012    2    1    2    0    0 -0.29093411590E+02  0.18053812890E+02 -0.21927169598E+02  0.50528837141E+02  0.29999930975E+02 0.  0.
        -12    1    1    2    0    0  0.29093411590E+02 -0.18053812890E+02  0.21927169598E+02  0.40659162859E+02  0.00000000000E+00 0.  1.
         11    1    3    3    0    0 -0.19231033532E+01 -0.33417571768E+01 -0.50530928593E+00  0.38885736809E+01  0.51100000000E-03 0. -1.
        -11    1    3    3    0    0  0.33837304135E+00  0.11856734453E+02 -0.31738264073E+01  0.12278836367E+02  0.51100000000E-03 0.  1.
         12    1    3    3    0    0 -0.27508681278E+02  0.95388356132E+01 -0.18248033905E+02  0.34361427093E+02  0.00000000000E+00 0. -1.
</event>
<event>
 7    1  0.2702714E-011  0.5052885E+02  0.7816164E-02  0.1300439E+00
        -11   -1    0    0    0    0  0.00000000000E+00  0.00000000000E+00  0.45593999997E+02  0.45594000000E+02  0.51100000000E-03 0.  1.
         11   -1    0    0    0    0 -0.00000000000E+00 -0.00000000000E+00 -0.45593999997E+02  0.45594000000E+02  0.51100000000E-03 0. -1.
    9900012    2    1    2    0    0 -0.32123653644E+02  0.17212076106E+02 -0.18027254415E+02  0.50528848643E+02  0.29999965935E+02 0.  0.
        -12    1    1    2    0    0  0.32123653644E+02 -0.17212076106E+02  0.18027254415E+02  0.40659151357E+02  0.00000000000E+00 0.  1.
         11    1    3    3    0    0 -0.91279518578E+01  0.14734228371E+02 -0.88040911830E+01  0.19440396411E+02  0.51100000000E-03 0. -1.
        -11    1    3    3    0    0 -0.21651813080E+02  0.86302135302E+01 -0.62947442002E+01  0.24143433891E+02  0.51100000000E-03 0.  1.
        -12    1    3    3    0    0 -0.13438887065E+01 -0.61523657951E+01 -0.29284190313E+01  0.69450183409E+01  0.00000000000E+00 0.  1.
</event>
<event>
 7    1  0.2702714E-011  0.5052885E+02  0.7816164E-02  0.1300439E+00
        -11   -1    0    0    0    0  0.00000000000E+00  0.00000000000E+00  0.45593999997E+02  0.45594000000E+02  0.51100000000E-03 0.  1.
         11   -1    0    0    0    0 -0.00000000000E+00 -0.00000000000E+00 -0.45593999997E+02  0.45594000000E+02  0.51100000000E-03 0. -1.
    9900012    2    1    2    0    0  0.39619216205E+02  0.50380224611E+01 -0.76225044863E+01  0.50528849275E+02  0.29999967858E+02 0.  0.
        -12    1    1    2    0    0 -0.39619216205E+02 -0.50380224611E+01  0.76225044863E+01  0.40659150725E+02  0.00000000000E+00 0.  1.
         11    1    3    3    0    0  0.15148665857E+02  0.17662851357E+01 -0.66484162929E+01  0.16637406045E+02  0.51100000000E-03 0. -1.
        -11    1    3    3    0    0  0.19980152023E+02  0.12341893714E+02  0.12914495683E+01  0.23520133025E+02  0.51100000000E-03 0.  1.
        -12    1    3    3    0    0  0.44903983248E+01 -0.90701563883E+01 -0.22655377617E+01  0.10371310205E+02  0.00000000000E+00 0.  1.
</event>
<event>
 7    1  0.2702714E-011  0.5052883E+02  0.7816164E-02  0.1300439E+00
        -11   -1    0    0    0    0  0.00000000000E+00  0.00000000000E+00  0.45593999997E+02  0.45594000000E+02  0.51100000000E-03 0. -1.
         11   -1    0    0    0    0 -0.00000000000E+00 -0.00000000000E+00 -0.45593999997E+02  0.45594000000E+02  0.51100000000E-03 0.  1.
    9900012    2    1    2    0    0  0.23314595367E+02  0.33231426292E+02  0.22956980030E+01  0.50528827850E+02  0.29999902734E+02 0.  0.
        -12    1    1    2    0    0 -0.23314595367E+02 -0.33231426292E+02 -0.22956980030E+01  0.40659172150E+02  0.00000000000E+00 0.  1.
         11    1    3    3    0    0  0.15004179979E+02  0.70251400940E+01 -0.80156279142E-02  0.16567379838E+02  0.51100000000E-03 0. -1.
        -11    1    3    3    0    0  0.60582206669E+01  0.11820411187E+02 -0.85533744255E+01  0.15798239541E+02  0.51100000000E-03 0.  1.
         12    1    3    3    0    0  0.22521947215E+01  0.14385875011E+02  0.10857088056E+02  0.18163208471E+02  0.00000000000E+00 0. -1.
</event>
<event>
 7    1  0.2702714E-011  0.5052886E+02  0.7816164E-02  0.1300439E+00
        -11   -1    0    0    0    0  0.00000000000E+00  0.00000000000E+00  0.45593999997E+02  0.45594000000E+02  0.51100000000E-03 0.  1.
         11   -1    0    0    0    0 -0.00000000000E+00 -0.00000000000E+00 -0.45593999997E+02  0.45594000000E+02  0.51100000000E-03 0. -1.
    9900012    2    1    2    0    0 -0.37444996574E+02 -0.12443593226E+02 -0.98078787936E+01  0.50528864898E+02  0.30000015344E+02 0.  0.
        -12    1    1    2    0    0  0.37444996574E+02  0.12443593226E+02  0.98078787936E+01  0.40659135102E+02  0.00000000000E+00 0.  1.
         11    1    3    3    0    0 -0.98705289516E+01  0.58581972442E+01 -0.27788676151E+01  0.11809653772E+02  0.51100000000E-03 0. -1.
        -11    1    3    3    0    0 -0.30338305223E+01 -0.20622962531E+01  0.56015478212E+01  0.66958592972E+01  0.51100000000E-03 0.  1.
         12    1    3    3    0    0 -0.24540637100E+02 -0.16239494217E+02 -0.12630559000E+02  0.32023351829E+02  0.00000000000E+00 0. -1.
</event>
<event>
 7    1  0.2702714E-011  0.5052884E+02  0.7816164E-02  0.1300439E+00
        -11   -1    0    0    0    0  0.00000000000E+00  0.00000000000E+00  0.45593999997E+02  0.45594000000E+02  0.51100000000E-03 0.  1.
         11   -1    0    0    0    0 -0.00000000000E+00 -0.00000000000E+00 -0.45593999997E+02  0.45594000000E+02  0.51100000000E-03 0. -1.
    9900012    2    1    2    0    0 -0.48879460934E+01  0.23814889045E+02 -0.32590280566E+02  0.50528839352E+02  0.29999937694E+02 0.  0.
        -12    1    1    2    0    0  0.48879460934E+01 -0.23814889045E+02  0.32590280566E+02  0.40659160648E+02  0.00000000000E+00 0.  1.
         11    1    3    3    0    0 -0.15790919024E+01  0.13984404225E+02 -0.80219034615E+01  0.16199013185E+02  0.51100000000E-03 0. -1.
        -11    1    3    3    0    0 -0.59032361072E+01  0.76608408612E+01 -0.27932561550E+02  0.29559510724E+02  0.51100000000E-03 0.  1.
         12    1    3    3    0    0  0.25943819162E+01  0.21696439588E+01  0.33641844458E+01  0.47703154425E+01  0.00000000000E+00 0. -1.
</event>
<event>
 7    1  0.2702714E-011  0.5052885E+02  0.7816164E-02  0.1300439E+00
        -11   -1    0    0    0    0  0.00000000000E+00  0.00000000000E+00  0.45593999997E+02  0.45594000000E+02  0.51100000000E-03 0.  1.
         11   -1    0    0    0    0 -0.00000000000E+00 -0.00000000000E+00 -0.45593999997E+02  0.45594000000E+02  0.51100000000E-03 0. -1.
    9900012    2    1    2    0    0 -0.37426826061E+02  0.55453334649E+01 -0.14887849741E+02  0.50528854631E+02  0.29999984136E+02 0.  0.
        -12    1    1    2    0    0  0.37426826061E+02 -0.55453334649E+01  0.14887849741E+02  0.40659145369E+02  0.00000000000E+00 0.  1.
         11    1    3    3    0    0 -0.16206122720E+02  0.45730817624E+01 -0.12478110313E+02  0.20958404703E+02  0.51100000000E-03 0. -1.
        -11    1    3    3    0    0 -0.79016866281E+01  0.10459393734E+02 -0.66975034295E+00  0.13125705110E+02  0.51100000000E-03 0.  1.
        -12    1    3    3    0    0 -0.13319016713E+02 -0.94871420314E+01 -0.17399890844E+01  0.16444744818E+02  0.00000000000E+00 0.  1.
</event>
<event>
 7    1  0.2702714E-011  0.5052886E+02  0.7816164E-02  0.1300439E+00
        -11   -1    0    0    0    0  0.00000000000E+00  0.00000000000E+00  0.45593999997E+02  0.45594000000E+02  0.51100000000E-03 0.  1.
         11   -1    0    0    0    0 -0.00000000000E+00 -0.00000000000E+00 -0.45593999997E+02  0.45594000000E+02  0.51100000000E-03 0. -1.
    9900012    2    1    2    0    0 -0.16979771138E+02 -0.22358937838E+02 -0.29409710607E+02  0.50528858259E+02  0.29999995163E+02 0.  0.
        -12    1    1    2    0    0  0.16979771138E+02  0.22358937838E+02  0.29409710607E+02  0.40659141741E+02  0.00000000000E+00 0.  1.
         11    1    3    3    0    0  0.45406729822E+00  0.10135382962E+01  0.37721888346E+01  0.39322825247E+01  0.51100000000E-03 0. -1.
        -11    1    3    3    0    0 -0.99796632827E+01 -0.21829282059E+01 -0.93751937206E+01  0.13865536858E+02  0.51100000000E-03 0.  1.
         12    1    3    3    0    0 -0.74541751537E+01 -0.21189547928E+02 -0.23806705721E+02  0.32731038876E+02  0.00000000000E+00 0. -1.
</event>
<event>
 7    1  0.2702714E-011  0.5052886E+02  0.7816164E-02  0.1300439E+00
        -11   -1    0    0    0    0  0.00000000000E+00  0.00000000000E+00  0.45593999997E+02  0.45594000000E+02  0.51100000000E-03 0.  1.
         11   -1    0    0    0    0 -0.00000000000E+00 -0.00000000000E+00 -0.45593999997E+02  0.45594000000E+02  0.51100000000E-03 0. -1.
    9900012    2    1    2    0    0  0.23569693218E+01 -0.19097738721E+02 -0.35817405458E+02  0.50528862498E+02  0.30000008050E+02 0.  0.
        -12    1    1    2    0    0 -0.23569693218E+01  0.19097738721E+02  0.35817405458E+02  0.40659137502E+02  0.00000000000E+00 0.  1.
         11    1    3    3    0    0  0.27349365244E+01  0.55277793125E+01 -0.57723597186E+01  0.84472693164E+01  0.51100000000E-03 0. -1.
        -11    1    3    3    0    0 -0.45585756632E+01 -0.19497977524E+01 -0.11389709990E+02  0.12422069766E+02  0.51100000000E-03 0.  1.
         12    1    3    3    0    0  0.41806084605E+01 -0.22675720281E+02 -0.18655335749E+02  0.29659523416E+02  0.00000000000E+00 0. -1.
</event>
<event>
 7    1  0.2702714E-011  0.5052887E+02  0.7816164E-02  0.1300439E+00
        -11   -1    0    0    0    0  0.00000000000E+00  0.00000000000E+00  0.45593999997E+02  0.45594000000E+02  0.51100000000E-03 0. -1.
         11   -1    0    0    0    0 -0.00000000000E+00 -0.00000000000E+00 -0.45593999997E+02  0.45594000000E+02  0.51100000000E-03 0.  1.
    9900012    2    1    2    0    0 -0.40299125446E+02  0.40060390887E+01 -0.36190323056E+01  0.50528865040E+02  0.30000015776E+02 0.  0.
        -12    1    1    2    0    0  0.40299125446E+02 -0.40060390887E+01  0.36190323056E+01  0.40659134960E+02  0.00000000000E+00 0.  1.
         11    1    3    3    0    0 -0.91475801951E+01 -0.34509914367E+01  0.50348779833E+01  0.10997161538E+02  0.51100000000E-03 0. -1.
        -11    1    3    3    0    0 -0.62555887683E+00  0.24080717308E+01 -0.82196474259E+01  0.85879413969E+01  0.51100000000E-03 0.  1.
         12    1    3    3    0    0 -0.30525986374E+02  0.50489587946E+01 -0.43426286298E+00  0.30943762105E+02  0.00000000000E+00 0. -1.
</event>
<event>
 7    1  0.2702714E-011  0.5052886E+02  0.7816164E-02  0.1300439E+00
        -11   -1    0    0    0    0  0.00000000000E+00  0.00000000000E+00  0.45593999997E+02  0.45594000000E+02  0.51100000000E-03 0. -1.
         11   -1    0    0    0    0 -0.00000000000E+00 -0.00000000000E+00 -0.45593999997E+02  0.45594000000E+02  0.51100000000E-03 0.  1.
    9900012    2    1    2    0    0 -0.29580167518E+02 -0.27863462813E+02 -0.13441695133E+01  0.50528860043E+02  0.30000000588E+02 0.  0.
        -12    1    1    2    0    0  0.29580167518E+02  0.27863462813E+02  0.13441695133E+01  0.40659139957E+02  0.00000000000E+00 0.  1.
         11    1    3    3    0    0 -0.11505596028E+01 -0.87898678866E+01  0.30773922937E+01  0.93838109771E+01  0.51100000000E-03 0. -1.
        -11    1    3    3    0    0  0.82860650228E+00 -0.10337894502E+02 -0.98196510755E+00  0.10417432851E+02  0.51100000000E-03 0.  1.
         12    1    3    3    0    0 -0.29258214418E+02 -0.87357004245E+01 -0.34395966994E+01  0.30727616215E+02  0.00000000000E+00 0. -1.
</event>
<event>
 7    1  0.2702714E-011  0.5052887E+02  0.7816164E-02  0.1300439E+00
        -11   -1    0    0    0    0  0.00000000000E+00  0.00000000000E+00  0.45593999997E+02  0.45594000000E+02  0.51100000000E-03 0. -1.
         11   -1    0    0    0    0 -0.00000000000E+00 -0.00000000000E+00 -0.45593999997E+02  0.45594000000E+02  0.51100000000E-03 0.  1.
    9900012    2    1    2    0    0 -0.19966924168E+02 -0.34358284833E+02 -0.86020331100E+01  0.50528871000E+02  0.30000033893E+02 0.  0.
        -12    1    1    2    0    0  0.19966924168E+02  0.34358284833E+02  0.86020331100E+01  0.40659129000E+02  0.00000000000E+00 0.  1.
         11    1    3    3    0    0 -0.23060581087E+01  0.82438594144E+00 -0.28693395138E+01  0.37723501544E+01  0.51100000000E-03 0. -1.
        -11    1    3    3    0    0  0.43601658553E+01 -0.40619126098E+01  0.42835317897E+01  0.73388572128E+01  0.51100000000E-03 0.  1.
         12    1    3    3    0    0 -0.22021031915E+02 -0.31120758164E+02 -0.10016225386E+02  0.39417663633E+02  0.00000000000E+00 0. -1.
</event>
<event>
 7    1  0.2702714E-011  0.5052886E+02  0.7816164E-02  0.1300439E+00
        -11   -1    0    0    0    0  0.00000000000E+00  0.00000000000E+00  0.45593999997E+02  0.45594000000E+02  0.51100000000E-03 0.  1.
         11   -1    0    0    0    0 -0.00000000000E+00 -0.00000000000E+00 -0.45593999997E+02  0.45594000000E+02  0.51100000000E-03 0. -1.
    9900012    2    1    2    0    0  0.28622500940E+02 -0.16917662223E+02 -0.23403220625E+02  0.50528860919E+02  0.30000003251E+02 0.  0.
        -12    1    1    2    0    0 -0.28622500940E+02  0.16917662223E+02  0.23403220625E+02  0.40659139081E+02  0.00000000000E+00 0.  1.
         11    1    3    3    0    0  0.11941758566E+02 -0.13594396031E+02 -0.74164678758E+01  0.19555490204E+02  0.51100000000E-03 0. -1.
        -11    1    3    3    0    0  0.60020420683E+01 -0.93117929506E+00  0.46266126638E+01  0.76352569617E+01  0.51100000000E-03 0.  1.
        -12    1    3    3    0    0  0.10678700306E+02 -0.23920868967E+01 -0.20613365413E+02  0.23338113754E+02  0.00000000000E+00 0.  1.
</event>
<event>
 7    1  0.2702714E-011  0.5052886E+02  0.7816164E-02  0.1300439E+00
        -11   -1    0    0    0    0  0.00000000000E+00  0.00000000000E+00  0.45593999997E+02  0.45594000000E+02  0.51100000000E-03 0.  1.
         11   -1    0    0    0    0 -0.00000000000E+00 -0.00000000000E+00 -0.45593999997E+02  0.45594000000E+02  0.51100000000E-03 0. -1.
    9900012    2    1    2    0    0 -0.94336729308E+01  0.37711761953E+02 -0.11916128164E+02  0.50528864680E+02  0.30000014680E+02 0.  0.
        -12    1    1    2    0    0  0.94336729308E+01 -0.37711761953E+02  0.11916128164E+02  0.40659135320E+02  0.00000000000E+00 0.  1.
         11    1    3    3    0    0 -0.57760320268E+01  0.20238597527E+02 -0.12720915487E+02  0.24592378228E+02  0.51100000000E-03 0. -1.
        -11    1    3    3    0    0  0.96438579667E+00  0.19072173660E+02  0.47204538282E+01  0.19671312429E+02  0.51100000000E-03 0.  1.
        -12    1    3    3    0    0 -0.46220267006E+01 -0.15990092335E+01 -0.39156665055E+01  0.62651740225E+01  0.00000000000E+00 0.  1.
</event>
<event>
 7    1  0.2702714E-011  0.5052886E+02  0.7816164E-02  0.1300439E+00
        -11   -1    0    0    0    0  0.00000000000E+00  0.00000000000E+00  0.45593999997E+02  0.45594000000E+02  0.51100000000E-03 0.  1.
         11   -1    0    0    0    0 -0.00000000000E+00 -0.00000000000E+00 -0.45593999997E+02  0.45594000000E+02  0.51100000000E-03 0. -1.
    9900012    2    1    2    0    0  0.38188874076E+02  0.10525003573E+02  0.91651535504E+01  0.50528857818E+02  0.29999993824E+02 0.  0.
        -12    1    1    2    0    0 -0.38188874076E+02 -0.10525003573E+02 -0.91651535504E+01  0.40659142182E+02  0.00000000000E+00 0.  1.
         11    1    3    3    0    0  0.12862300740E+01 -0.24116429607E+01 -0.14698788716E+01  0.31033777938E+01  0.51100000000E-03 0.  1.
        -11    1    3    3    0    0 -0.19682514218E+01  0.35175524506E+01 -0.31553984269E+01  0.51189577450E+01  0.51100000000E-03 0. -1.
        -12    1    3    3    0    0  0.38870895423E+02  0.94190940828E+01  0.13790430849E+02  0.42306522279E+02  0.00000000000E+00 0.  1.
</event>
<event>
 7    1  0.2702714E-011  0.5052876E+02  0.7816164E-02  0.1300439E+00
        -11   -1    0    0    0    0  0.00000000000E+00  0.00000000000E+00  0.45593999997E+02  0.45594000000E+02  0.51100000000E-03 0.  1.
         11   -1    0    0    0    0 -0.00000000000E+00 -0.00000000000E+00 -0.45593999997E+02  0.45594000000E+02  0.51100000000E-03 0. -1.
    9900012    2    1    2    0    0 -0.36510440768E+02 -0.17469747501E+02 -0.38690022124E+01  0.50528763153E+02  0.29999706079E+02 0.  0.
        -12    1    1    2    0    0  0.36510440768E+02  0.17469747501E+02  0.38690022124E+01  0.40659236847E+02  0.00000000000E+00 0.  1.
         11    1    3    3    0    0 -0.85804397840E+01 -0.35190436339E+01 -0.59497456693E+01  0.11018488498E+02  0.51100000000E-03 0. -1.
        -11    1    3    3    0    0 -0.11951700178E+02  0.57615214538E+01  0.45243606700E+01  0.14018134910E+02  0.51100000000E-03 0.  1.
         12    1    3    3    0    0 -0.15978300806E+02 -0.19712225320E+02 -0.24436172132E+01  0.25492139746E+02  0.00000000000E+00 0. -1.
</event>
<event>
 7    1  0.2702714E-011  0.5052886E+02  0.7816164E-02  0.1300439E+00
        -11   -1    0    0    0    0  0.00000000000E+00  0.00000000000E+00  0.45593999997E+02  0.45594000000E+02  0.51100000000E-03 0.  1.
         11   -1    0    0    0    0 -0.00000000000E+00 -0.00000000000E+00 -0.45593999997E+02  0.45594000000E+02  0.51100000000E-03 0. -1.
    9900012    2    1    2    0    0  0.16410644103E+02 -0.23772359867E+02 -0.28613483552E+02  0.50528858660E+02  0.29999996382E+02 0.  0.
        -12    1    1    2    0    0 -0.16410644103E+02  0.23772359867E+02  0.28613483552E+02  0.40659141340E+02  0.00000000000E+00 0.  1.
         11    1    3    3    0    0  0.15213728714E+01  0.20074168857E+01 -0.13336427231E+01  0.28500703747E+01  0.51100000000E-03 0. -1.
        -11    1    3    3    0    0  0.81381091237E+01 -0.43804144663E+01  0.32436748784E+01  0.97948087263E+01  0.51100000000E-03 0.  1.
         12    1    3    3    0    0  0.67511621082E+01 -0.21399362287E+02 -0.30523515707E+02  0.37883979559E+02  0.00000000000E+00 0. -1.
</event>
<event>
 7    1  0.2702714E-011  0.5052886E+02  0.7816164E-02  0.1300439E+00
        -11   -1    0    0    0    0  0.00000000000E+00  0.00000000000E+00  0.45593999997E+02  0.45594000000E+02  0.51100000000E-03 0. -1.
         11   -1    0    0    0    0 -0.00000000000E+00 -0.00000000000E+00 -0.45593999997E+02  0.45594000000E+02  0.51100000000E-03 0.  1.
    9900012    2    1    2    0    0 -0.28379707277E+02 -0.27054456376E+02 -0.10761720960E+02  0.50528855482E+02  0.29999986722E+02 0.  0.
        -12    1    1    2    0    0  0.28379707277E+02  0.27054456376E+02  0.10761720960E+02  0.40659144518E+02  0.00000000000E+00 0.  1.
         11    1    3    3    0    0 -0.30247303313E+02 -0.15380904236E+02 -0.25712351166E+01  0.34030615968E+02  0.51100000000E-03 0.  1.
        -11    1    3    3    0    0 -0.20285839510E+01 -0.75073574773E+01 -0.18974718999E+01  0.80047466550E+01  0.51100000000E-03 0. -1.
        -12    1    3    3    0    0  0.38961799869E+01 -0.41661946622E+01 -0.62930139435E+01  0.84934928591E+01  0.00000000000E+00 0.  1.
</event>
<event>
 7    1  0.2702714E-011  0.5052885E+02  0.7816164E-02  0.1300439E+00
        -11   -1    0    0    0    0  0.00000000000E+00  0.00000000000E+00  0.45593999997E+02  0.45594000000E+02  0.51100000000E-03 0.  1.
         11   -1    0    0    0    0 -0.00000000000E+00 -0.00000000000E+00 -0.45593999997E+02  0.45594000000E+02  0.51100000000E-03 0. -1.
    9900012    2    1    2    0    0 -0.17610249233E+02 -0.26723026513E+02 -0.25078384208E+02  0.50528851232E+02  0.29999973803E+02 0.  0.
        -12    1    1    2    0    0  0.17610249233E+02  0.26723026513E+02  0.25078384208E+02  0.40659148768E+02  0.00000000000E+00 0.  1.
         11    1    3    3    0    0  0.24431371392E+01 -0.15372138308E+01 -0.43946357197E+01  0.52578292871E+01  0.51100000000E-03 0. -1.
        -11    1    3    3    0    0  0.17556076359E+01 -0.16756589088E+02 -0.76691446440E+01  0.18511650814E+02  0.51100000000E-03 0.  1.
        -12    1    3    3    0    0 -0.21808994008E+02 -0.84292235944E+01 -0.13014603844E+02  0.26759371130E+02  0.00000000000E+00 0.  1.
</event>
<event>
 7    1  0.2702714E-011  0.5052887E+02  0.7816164E-02  0.1300439E+00
        -11   -1    0    0    0    0  0.00000000000E+00  0.00000000000E+00  0.45593999997E+02  0.45594000000E+02  0.51100000000E-03 0.  1.
         11   -1    0    0    0    0 -0.00000000000E+00 -0.00000000000E+00 -0.45593999997E+02  0.45594000000E+02  0.51100000000E-03 0. -1.
    9900012    2    1    2    0    0  0.13422092506E+01  0.14481784152E+02 -0.37968949319E+02  0.50528871748E+02  0.30000036164E+02 0.  0.
        -12    1    1    2    0    0 -0.13422092506E+01 -0.14481784152E+02  0.37968949319E+02  0.40659128252E+02  0.00000000000E+00 0.  1.
         11    1    3    3    0    0  0.14414722868E+01  0.44003826571E+01 -0.27945541488E+02  0.28326568787E+02  0.51100000000E-03 0. -1.
        -11    1    3    3    0    0 -0.62536726551E+01 -0.15823173298E+01 -0.46962883477E+01  0.79791775463E+01  0.51100000000E-03 0.  1.
         12    1    3    3    0    0  0.61544096188E+01  0.11663718825E+02 -0.53271194824E+01  0.14223125415E+02  0.00000000000E+00 0. -1.
</event>
<event>
 7    1  0.2702714E-011  0.5052886E+02  0.7816164E-02  0.1300439E+00
        -11   -1    0    0    0    0  0.00000000000E+00  0.00000000000E+00  0.45593999997E+02  0.45594000000E+02  0.51100000000E-03 0.  1.
         11   -1    0    0    0    0 -0.00000000000E+00 -0.00000000000E+00 -0.45593999997E+02  0.45594000000E+02  0.51100000000E-03 0. -1.
    9900012    2    1    2    0    0 -0.29179099840E+02 -0.18493205893E+02 -0.21441708829E+02  0.50528863152E+02  0.30000010037E+02 0.  0.
        -12    1    1    2    0    0  0.29179099840E+02  0.18493205893E+02  0.21441708829E+02  0.40659136848E+02  0.00000000000E+00 0.  1.
         11    1    3    3    0    0 -0.88177608056E+01 -0.33468492615E+01  0.50816859824E+01  0.10713441944E+02  0.51100000000E-03 0. -1.
        -11    1    3    3    0    0 -0.11503368406E+02 -0.91635408499E+01 -0.45745136102E+01  0.15402082347E+02  0.51100000000E-03 0.  1.
        -12    1    3    3    0    0 -0.88579706292E+01 -0.59828157819E+01 -0.21948881202E+02  0.24413338861E+02  0.00000000000E+00 0.  1.
</event>
<event>
 7    1  0.2702714E-011  0.5052887E+02  0.7816164E-02  0.1300439E+00
        -11   -1    0    0    0    0  0.00000000000E+00  0.00000000000E+00  0.45593999997E+02  0.45594000000E+02  0.51100000000E-03 0.  1.
         11   -1    0    0    0    0 -0.00000000000E+00 -0.00000000000E+00 -0.45593999997E+02  0.45594000000E+02  0.51100000000E-03 0. -1.
    9900012    2    1    2    0    0  0.22655432062E+02  0.19721688185E+02 -0.27403491135E+02  0.50528869252E+02  0.30000028578E+02 0.  0.
        -12    1    1    2    0    0 -0.22655432062E+02 -0.19721688185E+02  0.27403491135E+02  0.40659130748E+02  0.00000000000E+00 0.  1.
         11    1    3    3    0    0  0.18458341619E+02  0.46829720482E+01 -0.19063001824E+02  0.26945104218E+02  0.51100000000E-03 0. -1.
        -11    1    3    3    0    0  0.53383460040E+01  0.10803872501E+02 -0.12624490852E+02  0.17452775384E+02  0.51100000000E-03 0.  1.
        -12    1    3    3    0    0 -0.11412555616E+01  0.42348436366E+01  0.42840015406E+01  0.61309896496E+01  0.00000000000E+00 0.  1.
</event>
<event>
 7    1  0.2702714E-011  0.5052887E+02  0.7816164E-02  0.1300439E+00
        -11   -1    0    0    0    0  0.00000000000E+00  0.00000000000E+00  0.45593999997E+02  0.45594000000E+02  0.51100000000E-03 0.  1.
         11   -1    0    0    0    0 -0.00000000000E+00 -0.00000000000E+00 -0.45593999997E+02  0.45594000000E+02  0.51100000000E-03 0. -1.
    9900012    2    1    2    0    0  0.28956995051E+02 -0.28520695450E+02  0.11078887030E+01  0.50528867585E+02  0.30000023511E+02 0.  0.
        -12    1    1    2    0    0 -0.28956995051E+02  0.28520695450E+02 -0.11078887030E+01  0.40659132415E+02  0.00000000000E+00 0.  1.
         11    1    3    3    0    0  0.17197526391E+02 -0.11253365593E+02 -0.93063517129E+01  0.22561057900E+02  0.51100000000E-03 0. -1.
        -11    1    3    3    0    0 -0.14990381335E+01 -0.98925359394E+01  0.86857534939E+00  0.10043097432E+02  0.51100000000E-03 0.  1.
        -12    1    3    3    0    0  0.13258506794E+02 -0.73747939181E+01  0.95456650665E+01  0.17924712252E+02  0.00000000000E+00 0.  1.
</event>
<event>
 7    1  0.2702714E-011  0.5052885E+02  0.7816164E-02  0.1300439E+00
        -11   -1    0    0    0    0  0.00000000000E+00  0.00000000000E+00  0.45593999997E+02  0.45594000000E+02  0.51100000000E-03 0. -1.
         11   -1    0    0    0    0 -0.00000000000E+00 -0.00000000000E+00 -0.45593999997E+02  0.45594000000E+02  0.51100000000E-03 0.  1.
    9900012    2    1    2    0    0  0.26099203007E+02  0.26864046085E+02  0.15821527231E+02  0.50528854736E+02  0.29999984457E+02 0.  0.
        -12    1    1    2    0    0 -0.26099203007E+02 -0.26864046085E+02 -0.15821527231E+02  0.40659145264E+02  0.00000000000E+00 0.  1.
         11    1    3    3    0    0  0.27085011773E+02  0.24969231592E+02  0.18298265360E+02  0.41132552857E+02  0.51100000000E-03 0. -1.
        -11    1    3    3    0    0 -0.14096088253E+01  0.30223583872E+01  0.25684280545E+01  0.42093313238E+01  0.51100000000E-03 0.  1.
        -12    1    3    3    0    0  0.42380005913E+00 -0.11275438946E+01 -0.50451661839E+01  0.51869705559E+01  0.00000000000E+00 0.  1.
</event>
<event>
 7    1  0.2702714E-011  0.5052884E+02  0.7816164E-02  0.1300439E+00
        -11   -1    0    0    0    0  0.00000000000E+00  0.00000000000E+00  0.45593999997E+02  0.45594000000E+02  0.51100000000E-03 0.  1.
         11   -1    0    0    0    0 -0.00000000000E+00 -0.00000000000E+00 -0.45593999997E+02  0.45594000000E+02  0.51100000000E-03 0. -1.
    9900012    2    1    2    0    0  0.23757291328E+02 -0.28502497380E+02  0.16624265359E+02  0.50528838094E+02  0.29999933870E+02 0.  0.
        -12    1    1    2    0    0 -0.23757291328E+02  0.28502497380E+02 -0.16624265359E+02  0.40659161906E+02  0.00000000000E+00 0.  1.
         11    1    3    3    0    0  0.11835596056E+02 -0.10189059448E+02  0.78152559941E+01  0.17463576178E+02  0.51100000000E-03 0. -1.
        -11    1    3    3    0    0  0.84259653385E+01  0.23385165001E+01 -0.27180901478E+01  0.91571592549E+01  0.51100000000E-03 0.  1.
         12    1    3    3    0    0  0.34957299343E+01 -0.20651954432E+02  0.11527099513E+02  0.23908102661E+02  0.00000000000E+00 0. -1.
</event>
<event>
 7    1  0.2702714E-011  0.5052879E+02  0.7816164E-02  0.1300439E+00
        -11   -1    0    0    0    0  0.00000000000E+00  0.00000000000E+00  0.45593999997E+02  0.45594000000E+02  0.51100000000E-03 0.  1.
         11   -1    0    0    0    0 -0.00000000000E+00 -0.00000000000E+00 -0.45593999997E+02  0.45594000000E+02  0.51100000000E-03 0. -1.
    9900012    2    1    2    0    0  0.60908588892E+01  0.36200712489E+02 -0.17480876711E+02  0.50528791974E+02  0.29999793683E+02 0.  0.
        -12    1    1    2    0    0 -0.60908588892E+01 -0.36200712489E+02  0.17480876711E+02  0.40659208026E+02  0.00000000000E+00 0.  1.
         11    1    3    3    0    0 -0.53373840695E+01  0.14945800010E+02 -0.13682054912E+02  0.20953835771E+02  0.51100000000E-03 0. -1.
        -11    1    3    3    0    0  0.97538022936E+01  0.57906998812E+01 -0.74841291476E+01  0.13589740750E+02  0.51100000000E-03 0.  1.
        -12    1    3    3    0    0  0.16744406651E+01  0.15464212597E+02  0.36853073487E+01  0.15985215452E+02  0.00000000000E+00 0.  1.
</event>
<event>
 7    1  0.2702714E-011  0.5052891E+02  0.7816164E-02  0.1300439E+00
        -11   -1    0    0    0    0  0.00000000000E+00  0.00000000000E+00  0.45593999997E+02  0.45594000000E+02  0.51100000000E-03 0.  1.
         11   -1    0    0    0    0 -0.00000000000E+00 -0.00000000000E+00 -0.45593999997E+02  0.45594000000E+02  0.51100000000E-03 0. -1.
    9900012    2    1    2    0    0  0.16860397560E+01 -0.37469935583E+02 -0.15694672649E+02  0.50528910583E+02  0.30000154209E+02 0.  0.
        -12    1    1    2    0    0 -0.16860397560E+01  0.37469935583E+02  0.15694672649E+02  0.40659089417E+02  0.00000000000E+00 0.  1.
         11    1    3    3    0    0  0.38839992832E+01 -0.20384259060E+02 -0.15796514305E+02  0.26079366026E+02  0.51100000000E-03 0. -1.
        -11    1    3    3    0    0  0.46909012494E+01 -0.16881610422E+02  0.67208975579E+00  0.17534110467E+02  0.51100000000E-03 0.  1.
        -12    1    3    3    0    0 -0.68888607766E+01 -0.20406610141E+00 -0.57024809939E+00  0.69154340911E+01  0.00000000000E+00 0.  1.
</event>
<event>
 7    1  0.2702714E-011  0.5052885E+02  0.7816164E-02  0.1300439E+00
        -11   -1    0    0    0    0  0.00000000000E+00  0.00000000000E+00  0.45593999997E+02  0.45594000000E+02  0.51100000000E-03 0.  1.
         11   -1    0    0    0    0 -0.00000000000E+00 -0.00000000000E+00 -0.45593999997E+02  0.45594000000E+02  0.51100000000E-03 0. -1.
    9900012    2    1    2    0    0 -0.20211196207E+02 -0.34303120594E+02  0.82443688091E+01  0.50528854022E+02  0.29999982286E+02 0.  0.
        -12    1    1    2    0    0  0.20211196207E+02  0.34303120594E+02 -0.82443688091E+01  0.40659145978E+02  0.00000000000E+00 0.  1.
         11    1    3    3    0    0 -0.26001528728E+02 -0.17147271010E+02  0.77049373671E+01  0.32085424406E+02  0.51100000000E-03 0. -1.
        -11    1    3    3    0    0  0.88879325598E+00 -0.25688652653E+01  0.13471251439E+01  0.30337713522E+01  0.51100000000E-03 0.  1.
        -12    1    3    3    0    0  0.49015392650E+01 -0.14586984319E+02 -0.80769370195E+00  0.15409658264E+02  0.00000000000E+00 0.  1.
</event>
<event>
 7    1  0.2702714E-011  0.5052885E+02  0.7816164E-02  0.1300439E+00
        -11   -1    0    0    0    0  0.00000000000E+00  0.00000000000E+00  0.45593999997E+02  0.45594000000E+02  0.51100000000E-03 0.  1.
         11   -1    0    0    0    0 -0.00000000000E+00 -0.00000000000E+00 -0.45593999997E+02  0.45594000000E+02  0.51100000000E-03 0. -1.
    9900012    2    1    2    0    0 -0.72821672541E+01 -0.18341170830E+01 -0.39959636798E+02  0.50528849512E+02  0.29999968577E+02 0.  0.
        -12    1    1    2    0    0  0.72821672541E+01  0.18341170830E+01  0.39959636798E+02  0.40659150488E+02  0.00000000000E+00 0.  1.
         11    1    3    3    0    0 -0.18547090950E+01 -0.27469489158E+01 -0.24496442781E+02  0.24719655809E+02  0.51100000000E-03 0. -1.
        -11    1    3    3    0    0  0.19795104179E+01 -0.82160149367E+01 -0.91871354867E+01  0.12482981280E+02  0.51100000000E-03 0.  1.
         12    1    3    3    0    0 -0.74069685770E+01  0.91288467695E+01 -0.62760585305E+01  0.13326212422E+02  0.00000000000E+00 0. -1.
</event>
<event>
 7    1  0.2702714E-011  0.5052886E+02  0.7816164E-02  0.1300439E+00
        -11   -1    0    0    0    0  0.00000000000E+00  0.00000000000E+00  0.45593999997E+02  0.45594000000E+02  0.51100000000E-03 0.  1.
         11   -1    0    0    0    0 -0.00000000000E+00 -0.00000000000E+00 -0.45593999997E+02  0.45594000000E+02  0.51100000000E-03 0. -1.
    9900012    2    1    2    0    0 -0.18796143502E+02 -0.27111945521E+02 -0.23765800322E+02  0.50528857542E+02  0.29999992984E+02 0.  0.
        -12    1    1    2    0    0  0.18796143502E+02  0.27111945521E+02  0.23765800322E+02  0.40659142458E+02  0.00000000000E+00 0.  1.
         11    1    3    3    0    0 -0.10777395536E+02 -0.29169633916E+02 -0.15636027993E+02  0.34806682821E+02  0.51100000000E-03 0. -1.
        -11    1    3    3    0    0 -0.28874117089E+01 -0.18956647913E+01 -0.85596598194E+01  0.92303016128E+01  0.51100000000E-03 0.  1.
        -12    1    3    3    0    0 -0.51313362567E+01  0.39533531864E+01  0.42988749003E+00  0.64918731080E+01  0.00000000000E+00 0.  1.
</event>
<event>
 7    1  0.2702714E-011  0.5052885E+02  0.7816164E-02  0.1300439E+00
        -11   -1    0    0    0    0  0.00000000000E+00  0.00000000000E+00  0.45593999997E+02  0.45594000000E+02  0.51100000000E-03 0. -1.
         11   -1    0    0    0    0 -0.00000000000E+00 -0.00000000000E+00 -0.45593999997E+02  0.45594000000E+02  0.51100000000E-03 0.  1.
    9900012    2    1    2    0    0 -0.19750589784E+02 -0.22119326270E+02  0.27817543076E+02  0.50528854728E+02  0.29999984431E+02 0.  0.
        -12    1    1    2    0    0  0.19750589784E+02  0.22119326270E+02 -0.27817543076E+02  0.40659145272E+02  0.00000000000E+00 0.  1.
         11    1    3    3    0    0 -0.77263824779E+01 -0.20654097407E+02  0.15752861363E+02  0.27100578726E+02  0.51100000000E-03 0. -1.
        -11    1    3    3    0    0 -0.23694717044E+01 -0.78467194799E+01  0.30025162997E+01  0.87292901856E+01  0.51100000000E-03 0.  1.
         12    1    3    3    0    0 -0.96547356018E+01  0.63814906173E+01  0.90621654136E+01  0.14698985816E+02  0.00000000000E+00 0. -1.
</event>
<event>
 7    1  0.2702714E-011  0.5052879E+02  0.7816164E-02  0.1300439E+00
        -11   -1    0    0    0    0  0.00000000000E+00  0.00000000000E+00  0.45593999997E+02  0.45594000000E+02  0.51100000000E-03 0.  1.
         11   -1    0    0    0    0 -0.00000000000E+00 -0.00000000000E+00 -0.45593999997E+02  0.45594000000E+02  0.51100000000E-03 0. -1.
    9900012    2    1    2    0    0 -0.25615800267E+02  0.28964225999E+01 -0.31442216657E+02  0.50528788553E+02  0.29999783284E+02 0.  0.
        -12    1    1    2    0    0  0.25615800267E+02 -0.28964225999E+01  0.31442216657E+02  0.40659211447E+02  0.00000000000E+00 0.  1.
         11    1    3    3    0    0 -0.83515107717E+01  0.22643821458E+01 -0.56313774490E+01  0.10324125673E+02  0.51100000000E-03 0. -1.
        -11    1    3    3    0    0  0.18409243362E+01  0.94498547338E+01 -0.10027907379E+02  0.13901355458E+02  0.51100000000E-03 0.  1.
         12    1    3    3    0    0 -0.19105213831E+02 -0.88178142797E+01 -0.15782931829E+02  0.26303307422E+02  0.00000000000E+00 0. -1.
</event>
<event>
 7    1  0.2702714E-011  0.5052886E+02  0.7816164E-02  0.1300439E+00
        -11   -1    0    0    0    0  0.00000000000E+00  0.00000000000E+00  0.45593999997E+02  0.45594000000E+02  0.51100000000E-03 0.  1.
         11   -1    0    0    0    0 -0.00000000000E+00 -0.00000000000E+00 -0.45593999997E+02  0.45594000000E+02  0.51100000000E-03 0. -1.
    9900012    2    1    2    0    0  0.19717216858E+02 -0.22467970009E+02 -0.27560608028E+02  0.50528862874E+02  0.30000009190E+02 0.  0.
        -12    1    1    2    0    0 -0.19717216858E+02  0.22467970009E+02  0.27560608028E+02  0.40659137126E+02  0.00000000000E+00 0.  1.
         11    1    3    3    0    0  0.11252818592E+02 -0.80931732992E+01 -0.11078537419E+02  0.17744277160E+02  0.51100000000E-03 0. -1.
        -11    1    3    3    0    0  0.20585784029E-01 -0.84333172455E+01 -0.20137348911E+02  0.21831951012E+02  0.51100000000E-03 0.  1.
         12    1    3    3    0    0  0.84438124817E+01 -0.59414794648E+01  0.36552783017E+01  0.10952634702E+02  0.00000000000E+00 0. -1.
</event>
<event>
 7    1  0.2702714E-011  0.5052886E+02  0.7816164E-02  0.1300439E+00
        -11   -1    0    0    0    0  0.00000000000E+00  0.00000000000E+00  0.45593999997E+02  0.45594000000E+02  0.51100000000E-03 0.  1.
         11   -1    0    0    0    0 -0.00000000000E+00 -0.00000000000E+00 -0.45593999997E+02  0.45594000000E+02  0.51100000000E-03 0. -1.
    9900012    2    1    2    0    0 -0.18319331659E+02  0.60323993380E+01 -0.35793548029E+02  0.50528857920E+02  0.29999994134E+02 0.  0.
        -12    1    1    2    0    0  0.18319331659E+02 -0.60323993380E+01  0.35793548029E+02  0.40659142080E+02  0.00000000000E+00 0.  1.
         11    1    3    3    0    0 -0.66261027039E+01  0.90237438054E-01  0.36295419740E+01  0.75555909789E+01  0.51100000000E-03 0. -1.
        -11    1    3    3    0    0  0.19229910145E+01  0.19568266004E+01 -0.89157268059E+01  0.93283036788E+01  0.51100000000E-03 0.  1.
        -12    1    3    3    0    0 -0.13616219970E+02  0.39853352996E+01 -0.30507363197E+02  0.33644963262E+02  0.00000000000E+00 0.  1.
</event>
<event>
 7    1  0.2702714E-011  0.5052885E+02  0.7816164E-02  0.1300439E+00
        -11   -1    0    0    0    0  0.00000000000E+00  0.00000000000E+00  0.45593999997E+02  0.45594000000E+02  0.51100000000E-03 0. -1.
         11   -1    0    0    0    0 -0.00000000000E+00 -0.00000000000E+00 -0.45593999997E+02  0.45594000000E+02  0.51100000000E-03 0.  1.
    9900012    2    1    2    0    0  0.33813103715E+02 -0.22142602260E+02  0.44210208149E+01  0.50528852902E+02  0.29999978882E+02 0.  0.
        -12    1    1    2    0    0 -0.33813103715E+02  0.22142602260E+02 -0.44210208149E+01  0.40659147098E+02  0.00000000000E+00 0.  1.
         11    1    3    3    0    0  0.51766172011E+01 -0.10066545975E+02  0.12918163861E+00  0.11320309257E+02  0.51100000000E-03 0. -1.
        -11    1    3    3    0    0  0.11958322404E+02 -0.11216244977E+02 -0.82206538810E+01  0.18340795418E+02  0.51100000000E-03 0.  1.
        -12    1    3    3    0    0  0.16678164110E+02 -0.85981130819E+00  0.12512493057E+02  0.20867748227E+02  0.00000000000E+00 0.  1.
</event>
<event>
 7    1  0.2702714E-011  0.5052886E+02  0.7816164E-02  0.1300439E+00
        -11   -1    0    0    0    0  0.00000000000E+00  0.00000000000E+00  0.45593999997E+02  0.45594000000E+02  0.51100000000E-03 0. -1.
         11   -1    0    0    0    0 -0.00000000000E+00 -0.00000000000E+00 -0.45593999997E+02  0.45594000000E+02  0.51100000000E-03 0.  1.
    9900012    2    1    2    0    0 -0.28698844704E+02 -0.36811931613E+01  0.28565556312E+02  0.50528857389E+02  0.29999992519E+02 0.  0.
        -12    1    1    2    0    0  0.28698844704E+02  0.36811931613E+01 -0.28565556312E+02  0.40659142611E+02  0.00000000000E+00 0.  1.
         11    1    3    3    0    0 -0.36520534713E+00 -0.34914150148E+01  0.15408170608E+01  0.38337281107E+01  0.51100000000E-03 0. -1.
        -11    1    3    3    0    0  0.80665436570E+00 -0.18555858276E+01 -0.37620088753E+01  0.42716040392E+01  0.51100000000E-03 0.  1.
         12    1    3    3    0    0 -0.29140293722E+02  0.16658076811E+01  0.30786748127E+02  0.42423525239E+02  0.00000000000E+00 0. -1.
</event>
<event>
 7    1  0.2702714E-011  0.5052886E+02  0.7816164E-02  0.1300439E+00
        -11   -1    0    0    0    0  0.00000000000E+00  0.00000000000E+00  0.45593999997E+02  0.45594000000E+02  0.51100000000E-03 0.  1.
         11   -1    0    0    0    0 -0.00000000000E+00 -0.00000000000E+00 -0.45593999997E+02  0.45594000000E+02  0.51100000000E-03 0. -1.
    9900012    2    1    2    0    0  0.30889294524E+02  0.22726857034E+02 -0.13509524174E+02  0.50528858467E+02  0.29999995795E+02 0.  0.
        -12    1    1    2    0    0 -0.30889294524E+02 -0.22726857034E+02  0.13509524174E+02  0.40659141533E+02  0.00000000000E+00 0.  1.
         11    1    3    3    0    0  0.25362786254E+02  0.10116704188E+02 -0.64039285724E+01  0.28046905919E+02  0.51100000000E-03 0. -1.
        -11    1    3    3    0    0  0.26898138845E+01 -0.13640126182E+01  0.35669640085E+01  0.46710664366E+01  0.51100000000E-03 0.  1.
        -12    1    3    3    0    0  0.28366943861E+01  0.13974165464E+02 -0.10672559610E+02  0.17810886111E+02  0.00000000000E+00 0.  1.
</event>
<event>
 7    1  0.2702714E-011  0.5052886E+02  0.7816164E-02  0.1300439E+00
        -11   -1    0    0    0    0  0.00000000000E+00  0.00000000000E+00  0.45593999997E+02  0.45594000000E+02  0.51100000000E-03 0.  1.
         11   -1    0    0    0    0 -0.00000000000E+00 -0.00000000000E+00 -0.45593999997E+02  0.45594000000E+02  0.51100000000E-03 0. -1.
    9900012    2    1    2    0    0 -0.36161610203E+02  0.96816870747E+01 -0.15867223825E+02  0.50528857007E+02  0.29999991357E+02 0.  0.
        -12    1    1    2    0    0  0.36161610203E+02 -0.96816870747E+01  0.15867223825E+02  0.40659142993E+02  0.00000000000E+00 0.  1.
         11    1    3    3    0    0 -0.22959574940E+02  0.13551185791E+01 -0.14968510131E+02  0.27441478160E+02  0.51100000000E-03 0. -1.
        -11    1    3    3    0    0 -0.16461687665E+02  0.92809269858E+01 -0.29394922359E+01  0.19124941343E+02  0.51100000000E-03 0.  1.
        -12    1    3    3    0    0  0.32596524023E+01 -0.95435849026E+00  0.20407785426E+01  0.39624375039E+01  0.00000000000E+00 0.  1.
</event>
<event>
 7    1  0.2702714E-011  0.5052895E+02  0.7816164E-02  0.1300438E+00
        -11   -1    0    0    0    0  0.00000000000E+00  0.00000000000E+00  0.45593999997E+02  0.45594000000E+02  0.51100000000E-03 0.  1.
         11   -1    0    0    0    0 -0.00000000000E+00 -0.00000000000E+00 -0.45593999997E+02  0.45594000000E+02  0.51100000000E-03 0. -1.
    9900012    2    1    2    0    0  0.53120816966E+01  0.37382975933E+02  0.15081557724E+02  0.50528948302E+02  0.30000268858E+02 0.  0.
        -12    1    1    2    0    0 -0.53120816966E+01 -0.37382975933E+02 -0.15081557724E+02  0.40659051698E+02  0.00000000000E+00 0.  1.
         11    1    3    3    0    0 -0.24494239048E+01  0.12780034178E+02  0.11918583413E+02  0.17646007534E+02  0.51100000000E-03 0. -1.
        -11    1    3    3    0    0  0.12263820857E+02  0.78575201029E+01 -0.22047439100E+01  0.14731015584E+02  0.51100000000E-03 0.  1.
         12    1    3    3    0    0 -0.45023152552E+01  0.16745421653E+02  0.53677182211E+01  0.18151925184E+02  0.00000000000E+00 0. -1.
</event>
<event>
 7    1  0.3755921E-011  0.5052886E+02  0.7816164E-02  0.1300439E+00
        -11   -1    0    0    0    0  0.00000000000E+00  0.00000000000E+00  0.45593999997E+02  0.45594000000E+02  0.51100000000E-03 0.  1.
         11   -1    0    0    0    0 -0.00000000000E+00 -0.00000000000E+00 -0.45593999997E+02  0.45594000000E+02  0.51100000000E-03 0. -1.
    9900012    2    1    2    0    0  0.38453780425E+02 -0.47054232441E+00 -0.13200427011E+02  0.50528856965E+02  0.29999991231E+02 0.  0.
        -12    1    1    2    0    0 -0.38453780425E+02  0.47054232441E+00  0.13200427011E+02  0.40659143035E+02  0.00000000000E+00 0.  1.
         11    1    3    3    0    0  0.11071501552E+02  0.57333071007E+01 -0.78269130869E+01  0.14721057219E+02  0.51100000000E-03 0. -1.
        -11    1    3    3    0    0  0.99646049584E+01 -0.63353618802E+01 -0.12311404494E+02  0.17058746818E+02  0.51100000000E-03 0.  1.
        -12    1    3    3    0    0  0.17417673915E+02  0.13151245504E+00  0.69378905699E+01  0.18749052928E+02  0.00000000000E+00 0.  1.
</event>
<event>
 7    1  0.2702714E-011  0.5052886E+02  0.7816164E-02  0.1300439E+00
        -11   -1    0    0    0    0  0.00000000000E+00  0.00000000000E+00  0.45593999997E+02  0.45594000000E+02  0.51100000000E-03 0.  1.
         11   -1    0    0    0    0 -0.00000000000E+00 -0.00000000000E+00 -0.45593999997E+02  0.45594000000E+02  0.51100000000E-03 0. -1.
    9900012    2    1    2    0    0 -0.16546024164E+02  0.12708550152E+02 -0.34898244955E+02  0.50528860024E+02  0.30000000530E+02 0.  0.
        -12    1    1    2    0    0  0.16546024164E+02 -0.12708550152E+02  0.34898244955E+02  0.40659139976E+02  0.00000000000E+00 0.  1.
         11    1    3    3    0    0 -0.26964815024E+01  0.61769980378E+01 -0.28212265220E+02  0.29006175659E+02  0.51100000000E-03 0. -1.
        -11    1    3    3    0    0 -0.14823856334E+02  0.36119904557E+01 -0.89617969842E+01  0.17694829672E+02  0.51100000000E-03 0.  1.
        -12    1    3    3    0    0  0.97431367272E+00  0.29195616581E+01  0.22758172485E+01  0.38278546938E+01  0.00000000000E+00 0.  1.
</event>
<event>
 7    1  0.2702714E-011  0.5052887E+02  0.7816164E-02  0.1300439E+00
        -11   -1    0    0    0    0  0.00000000000E+00  0.00000000000E+00  0.45593999997E+02  0.45594000000E+02  0.51100000000E-03 0.  1.
         11   -1    0    0    0    0 -0.00000000000E+00 -0.00000000000E+00 -0.45593999997E+02  0.45594000000E+02  0.51100000000E-03 0. -1.
    9900012    2    1    2    0    0 -0.10227269781E+02  0.21177234941E+02 -0.33167644084E+02  0.50528868910E+02  0.30000027538E+02 0.  0.
        -12    1    1    2    0    0  0.10227269781E+02 -0.21177234941E+02  0.33167644084E+02  0.40659131090E+02  0.00000000000E+00 0.  1.
         11    1    3    3    0    0 -0.22250858189E+00  0.24580265070E+02 -0.23669036471E+02  0.34124217628E+02  0.51100000000E-03 0. -1.
        -11    1    3    3    0    0 -0.44258826401E+01  0.26349883907E+01 -0.34833006739E+01  0.62181174650E+01  0.51100000000E-03 0.  1.
         12    1    3    3    0    0 -0.55788785592E+01 -0.60380185201E+01 -0.60153069400E+01  0.10186533817E+02  0.00000000000E+00 0. -1.
</event>
<event>
 7    1  0.2702714E-011  0.5052886E+02  0.7816164E-02  0.1300439E+00
        -11   -1    0    0    0    0  0.00000000000E+00  0.00000000000E+00  0.45593999997E+02  0.45594000000E+02  0.51100000000E-03 0.  1.
         11   -1    0    0    0    0 -0.00000000000E+00 -0.00000000000E+00 -0.45593999997E+02  0.45594000000E+02  0.51100000000E-03 0. -1.
    9900012    2    1    2    0    0  0.33058721638E+02 -0.65085012024E+01 -0.22757996204E+02  0.50528855205E+02  0.29999985882E+02 0.  0.
        -12    1    1    2    0    0 -0.33058721638E+02  0.65085012024E+01  0.22757996204E+02  0.40659144795E+02  0.00000000000E+00 0.  1.
         11    1    3    3    0    0  0.86783690884E+01 -0.30040666227E+01 -0.99047788433E+01  0.13507151828E+02  0.51100000000E-03 0. -1.
        -11    1    3    3    0    0  0.12411250993E+02 -0.57680642728E+01  0.57011032640E+01  0.14826068102E+02  0.51100000000E-03 0.  1.
         12    1    3    3    0    0  0.11969101556E+02  0.22636296931E+01 -0.18554320625E+02  0.22195635276E+02  0.00000000000E+00 0. -1.
</event>
<event>
 7    1  0.2702714E-011  0.5052886E+02  0.7816164E-02  0.1300439E+00
        -11   -1    0    0    0    0  0.00000000000E+00  0.00000000000E+00  0.45593999997E+02  0.45594000000E+02  0.51100000000E-03 0. -1.
         11   -1    0    0    0    0 -0.00000000000E+00 -0.00000000000E+00 -0.45593999997E+02  0.45594000000E+02  0.51100000000E-03 0.  1.
    9900012    2    1    2    0    0  0.94949811619E+01  0.39050962609E+02  0.61671040800E+01  0.50528861781E+02  0.30000005870E+02 0.  0.
        -12    1    1    2    0    0 -0.94949811619E+01 -0.39050962609E+02 -0.61671040800E+01  0.40659138219E+02  0.00000000000E+00 0.  1.
         11    1    3    3    0    0  0.67938844619E+01  0.14792330122E+02 -0.67916357144E+01  0.17637919731E+02  0.51100000000E-03 0. -1.
        -11    1    3    3    0    0  0.71939352543E+01  0.21240885343E+02  0.45375407757E+01  0.22880498053E+02  0.51100000000E-03 0.  1.
        -12    1    3    3    0    0 -0.44928385543E+01  0.30177471444E+01  0.84211990188E+01  0.10010443997E+02  0.00000000000E+00 0.  1.
</event>
<event>
 7    1  0.2702714E-011  0.5052882E+02  0.7816164E-02  0.1300439E+00
        -11   -1    0    0    0    0  0.00000000000E+00  0.00000000000E+00  0.45593999997E+02  0.45594000000E+02  0.51100000000E-03 0.  1.
         11   -1    0    0    0    0 -0.00000000000E+00 -0.00000000000E+00 -0.45593999997E+02  0.45594000000E+02  0.51100000000E-03 0. -1.
    9900012    2    1    2    0    0  0.76843514349E+01 -0.83519018543E+01 -0.39043117927E+02  0.50528824171E+02  0.29999891551E+02 0.  0.
        -12    1    1    2    0    0 -0.76843514349E+01  0.83519018543E+01  0.39043117927E+02  0.40659175829E+02  0.00000000000E+00 0.  1.
         11    1    3    3    0    0 -0.50506988229E+01 -0.26844864622E+01 -0.29515503134E+02  0.30064612947E+02  0.51100000000E-03 0. -1.
        -11    1    3    3    0    0  0.98817713878E+01  0.18394854606E+01 -0.58658743177E+01  0.11637937717E+02  0.51100000000E-03 0.  1.
        -12    1    3    3    0    0  0.28532788699E+01 -0.75069008527E+01 -0.36617404761E+01  0.88262735079E+01  0.00000000000E+00 0.  1.
</event>
<event>
 7    1  0.2702714E-011  0.5052886E+02  0.7816164E-02  0.1300439E+00
        -11   -1    0    0    0    0  0.00000000000E+00  0.00000000000E+00  0.45593999997E+02  0.45594000000E+02  0.51100000000E-03 0. -1.
         11   -1    0    0    0    0 -0.00000000000E+00 -0.00000000000E+00 -0.45593999997E+02  0.45594000000E+02  0.51100000000E-03 0.  1.
    9900012    2    1    2    0    0  0.24275898692E+01 -0.40586185076E+02 -0.18385992734E+00  0.50528863067E+02  0.30000009780E+02 0.  0.
        -12    1    1    2    0    0 -0.24275898692E+01  0.40586185076E+02  0.18385992734E+00  0.40659136933E+02  0.00000000000E+00 0.  1.
         11    1    3    3    0    0  0.68630981155E+01 -0.17096441730E+01  0.46051135367E+01  0.84399093531E+01  0.51100000000E-03 0. -1.
        -11    1    3    3    0    0 -0.88457417897E+01 -0.17901508173E+02  0.64147232298E+00  0.19978053701E+02  0.51100000000E-03 0.  1.
        -12    1    3    3    0    0  0.44102335433E+01 -0.20975032731E+02 -0.54304457870E+01  0.22110900013E+02  0.00000000000E+00 0.  1.
</event>
<event>
 7    1  0.2702714E-011  0.5052886E+02  0.7816164E-02  0.1300439E+00
        -11   -1    0    0    0    0  0.00000000000E+00  0.00000000000E+00  0.45593999997E+02  0.45594000000E+02  0.51100000000E-03 0. -1.
         11   -1    0    0    0    0 -0.00000000000E+00 -0.00000000000E+00 -0.45593999997E+02  0.45594000000E+02  0.51100000000E-03 0.  1.
    9900012    2    1    2    0    0 -0.28419211039E+02  0.28270317096E+02 -0.68046518526E+01  0.50528859925E+02  0.30000000229E+02 0.  0.
        -12    1    1    2    0    0  0.28419211039E+02 -0.28270317096E+02  0.68046518526E+01  0.40659140075E+02  0.00000000000E+00 0.  1.
         11    1    3    3    0    0 -0.18479684092E+02  0.14985365693E+02 -0.64160363893E+01  0.24641944573E+02  0.51100000000E-03 0.  1.
        -11    1    3    3    0    0 -0.30563106098E+01  0.13559658050E+01 -0.90292037943E+01  0.96284058508E+01  0.51100000000E-03 0. -1.
         12    1    3    3    0    0 -0.68832163368E+01  0.11928985597E+02  0.86405883309E+01  0.16258509502E+02  0.00000000000E+00 0. -1.
</event>
<event>
 7    1  0.2702714E-011  0.5052887E+02  0.7816164E-02  0.1300439E+00
        -11   -1    0    0    0    0  0.00000000000E+00  0.00000000000E+00  0.45593999997E+02  0.45594000000E+02  0.51100000000E-03 0.  1.
         11   -1    0    0    0    0 -0.00000000000E+00 -0.00000000000E+00 -0.45593999997E+02  0.45594000000E+02  0.51100000000E-03 0. -1.
    9900012    2    1    2    0    0  0.20501468764E+02 -0.27358289310E+02 -0.22008612435E+02  0.50528865273E+02  0.30000016484E+02 0.  0.
        -12    1    1    2    0    0 -0.20501468764E+02  0.27358289310E+02  0.22008612435E+02  0.40659134727E+02  0.00000000000E+00 0.  1.
         11    1    3    3    0    0  0.92318549902E+01 -0.15080630876E+02 -0.18697858290E+01  0.17780570112E+02  0.51100000000E-03 0. -1.
        -11    1    3    3    0    0 -0.30343435152E+01  0.26090545553E+00 -0.11428407843E+02  0.11827248975E+02  0.51100000000E-03 0.  1.
         12    1    3    3    0    0  0.14303957289E+02 -0.12538563889E+02 -0.87104187625E+01  0.20921046186E+02  0.00000000000E+00 0. -1.
</event>
<event>
 7    1  0.2702714E-011  0.5052887E+02  0.7816164E-02  0.1300439E+00
        -11   -1    0    0    0    0  0.00000000000E+00  0.00000000000E+00  0.45593999997E+02  0.45594000000E+02  0.51100000000E-03 0.  1.
         11   -1    0    0    0    0 -0.00000000000E+00 -0.00000000000E+00 -0.45593999997E+02  0.45594000000E+02  0.51100000000E-03 0. -1.
    9900012    2    1    2    0    0 -0.80686659412E+01  0.34732746190E+02  0.19537088676E+02  0.50528869882E+02  0.30000030495E+02 0.  0.
        -12    1    1    2    0    0  0.80686659412E+01 -0.34732746190E+02 -0.19537088676E+02  0.40659130118E+02  0.00000000000E+00 0.  1.
         11    1    3    3    0    0 -0.38926459479E+01  0.27129737683E+02  0.16575937415E+01  0.27457657885E+02  0.51100000000E-03 0. -1.
        -11    1    3    3    0    0 -0.15880856354E+01 -0.27554309505E+01  0.14930627706E+01  0.35133534417E+01  0.51100000000E-03 0.  1.
        -12    1    3    3    0    0 -0.25879343580E+01  0.10358439457E+02  0.16386432164E+02  0.19557858556E+02  0.00000000000E+00 0.  1.
</event>
<event>
 7    1  0.2702714E-011  0.5052886E+02  0.7816164E-02  0.1300439E+00
        -11   -1    0    0    0    0  0.00000000000E+00  0.00000000000E+00  0.45593999997E+02  0.45594000000E+02  0.51100000000E-03 0.  1.
         11   -1    0    0    0    0 -0.00000000000E+00 -0.00000000000E+00 -0.45593999997E+02  0.45594000000E+02  0.51100000000E-03 0. -1.
    9900012    2    1    2    0    0  0.28121207231E+02 -0.19798495333E+02 -0.21688314327E+02  0.50528859676E+02  0.29999999470E+02 0.  0.
        -12    1    1    2    0    0 -0.28121207231E+02  0.19798495333E+02  0.21688314327E+02  0.40659140324E+02  0.00000000000E+00 0.  1.
         11    1    3    3    0    0 -0.73412499204E+00 -0.69867360531E+00 -0.57391019200E+01  0.58278963117E+01  0.51100000000E-03 0. -1.
        -11    1    3    3    0    0  0.20575386796E+02 -0.46009426180E+01 -0.18201268312E+02  0.27853211362E+02  0.51100000000E-03 0.  1.
        -12    1    3    3    0    0  0.82799454267E+01 -0.14498879110E+02  0.22520559046E+01  0.16847752002E+02  0.00000000000E+00 0.  1.
</event>
<event>
 7    1  0.2702714E-011  0.5052885E+02  0.7816164E-02  0.1300439E+00
        -11   -1    0    0    0    0  0.00000000000E+00  0.00000000000E+00  0.45593999997E+02  0.45594000000E+02  0.51100000000E-03 0.  1.
         11   -1    0    0    0    0 -0.00000000000E+00 -0.00000000000E+00 -0.45593999997E+02  0.45594000000E+02  0.51100000000E-03 0. -1.
    9900012    2    1    2    0    0 -0.11480155292E+02  0.23279140411E+02 -0.31296237395E+02  0.50528845817E+02  0.29999957346E+02 0.  0.
        -12    1    1    2    0    0  0.11480155292E+02 -0.23279140411E+02  0.31296237395E+02  0.40659154183E+02  0.00000000000E+00 0.  1.
         11    1    3    3    0    0  0.81636281760E+01  0.36320923960E+01 -0.14952954589E+02  0.17419178263E+02  0.51100000000E-03 0. -1.
        -11    1    3    3    0    0 -0.15299311543E+01  0.55182090774E+01 -0.22118362314E+01  0.61386920866E+01  0.51100000000E-03 0.  1.
         12    1    3    3    0    0 -0.18113852314E+02  0.14128838938E+02 -0.14131446575E+02  0.26970975467E+02  0.00000000000E+00 0. -1.
</event>
<event>
 7    1  0.2702714E-011  0.5052886E+02  0.7816164E-02  0.1300439E+00
        -11   -1    0    0    0    0  0.00000000000E+00  0.00000000000E+00  0.45593999997E+02  0.45594000000E+02  0.51100000000E-03 0.  1.
         11   -1    0    0    0    0 -0.00000000000E+00 -0.00000000000E+00 -0.45593999997E+02  0.45594000000E+02  0.51100000000E-03 0. -1.
    9900012    2    1    2    0    0  0.16706625520E+02  0.28442940664E+02 -0.23770853198E+02  0.50528859925E+02  0.30000000228E+02 0.  0.
        -12    1    1    2    0    0 -0.16706625520E+02 -0.28442940664E+02  0.23770853198E+02  0.40659140075E+02  0.00000000000E+00 0.  1.
         11    1    3    3    0    0  0.41188320610E+01 -0.22633328899E+01  0.17537891689E+01  0.50162964453E+01  0.51100000000E-03 0. -1.
        -11    1    3    3    0    0 -0.66122571657E+00  0.17614558804E+02 -0.62328674385E+01  0.18696484645E+02  0.51100000000E-03 0.  1.
         12    1    3    3    0    0  0.13249019175E+02  0.13091714750E+02 -0.19291774929E+02  0.26816078835E+02  0.00000000000E+00 0. -1.
</event>
<event>
 7    1  0.2702714E-011  0.5052887E+02  0.7816164E-02  0.1300439E+00
        -11   -1    0    0    0    0  0.00000000000E+00  0.00000000000E+00  0.45593999997E+02  0.45594000000E+02  0.51100000000E-03 0.  1.
         11   -1    0    0    0    0 -0.00000000000E+00 -0.00000000000E+00 -0.45593999997E+02  0.45594000000E+02  0.51100000000E-03 0. -1.
    9900012    2    1    2    0    0  0.42357176439E+01  0.29707329785E+02 -0.27435348958E+02  0.50528866716E+02  0.30000020871E+02 0.  0.
        -12    1    1    2    0    0 -0.42357176439E+01 -0.29707329785E+02  0.27435348958E+02  0.40659133284E+02  0.00000000000E+00 0.  1.
         11    1    3    3    0    0  0.48176634639E+01  0.15130685736E+02 -0.14633577760E+02  0.21593728960E+02  0.51100000000E-03 0. -1.
        -11    1    3    3    0    0  0.71109423503E+01  0.29370997200E+01 -0.12856819210E+02  0.14982985561E+02  0.51100000000E-03 0.  1.
         12    1    3    3    0    0 -0.76928881703E+01  0.11639544329E+02  0.55048011193E-01  0.13952152195E+02  0.00000000000E+00 0. -1.
</event>
<event>
 7    1  0.2702714E-011  0.5052885E+02  0.7816164E-02  0.1300439E+00
        -11   -1    0    0    0    0  0.00000000000E+00  0.00000000000E+00  0.45593999997E+02  0.45594000000E+02  0.51100000000E-03 0.  1.
         11   -1    0    0    0    0 -0.00000000000E+00 -0.00000000000E+00 -0.45593999997E+02  0.45594000000E+02  0.51100000000E-03 0. -1.
    9900012    2    1    2    0    0  0.87156512408E+01 -0.10622113895E+02 -0.38267149017E+02  0.50528848828E+02  0.29999966496E+02 0.  0.
        -12    1    1    2    0    0 -0.87156512408E+01  0.10622113895E+02  0.38267149017E+02  0.40659151172E+02  0.00000000000E+00 0.  1.
         11    1    3    3    0    0  0.83599389083E+00 -0.63856007792E+01 -0.94527541416E+00  0.65090958640E+01  0.51100000000E-03 0. -1.
        -11    1    3    3    0    0 -0.65174208296E-02  0.61706482756E+01 -0.22032622372E+01  0.65521986664E+01  0.51100000000E-03 0.  1.
         12    1    3    3    0    0  0.78861747708E+01 -0.10407161391E+02 -0.35118611366E+02  0.37467554297E+02  0.00000000000E+00 0. -1.
</event>
<event>
 7    1  0.2702714E-011  0.5052887E+02  0.7816164E-02  0.1300439E+00
        -11   -1    0    0    0    0  0.00000000000E+00  0.00000000000E+00  0.45593999997E+02  0.45594000000E+02  0.51100000000E-03 0. -1.
         11   -1    0    0    0    0 -0.00000000000E+00 -0.00000000000E+00 -0.45593999997E+02  0.45594000000E+02  0.51100000000E-03 0.  1.
    9900012    2    1    2    0    0 -0.35634438660E+02  0.15939377409E+02 -0.11370477975E+02  0.50528871380E+02  0.30000035046E+02 0.  0.
        -12    1    1    2    0    0  0.35634438660E+02 -0.15939377409E+02  0.11370477975E+02  0.40659128620E+02  0.00000000000E+00 0.  1.
         11    1    3    3    0    0 -0.12199679863E+01 -0.27279072571E+01 -0.66799320305E+01  0.73178748338E+01  0.51100000000E-03 0. -1.
        -11    1    3    3    0    0 -0.23119015686E+02  0.16477628046E+02 -0.10565141292E+02  0.30292298082E+02  0.51100000000E-03 0.  1.
         12    1    3    3    0    0 -0.11295454988E+02  0.21896566192E+01  0.58745953479E+01  0.12918698463E+02  0.00000000000E+00 0. -1.
</event>
<event>
 7    1  0.2702714E-011  0.5052885E+02  0.7816164E-02  0.1300439E+00
        -11   -1    0    0    0    0  0.00000000000E+00  0.00000000000E+00  0.45593999997E+02  0.45594000000E+02  0.51100000000E-03 0. -1.
         11   -1    0    0    0    0 -0.00000000000E+00 -0.00000000000E+00 -0.45593999997E+02  0.45594000000E+02  0.51100000000E-03 0.  1.
    9900012    2    1    2    0    0 -0.34723046593E+01 -0.40509880867E+02 -0.24358310710E+00  0.50528847522E+02  0.29999962527E+02 0.  0.
        -12    1    1    2    0    0  0.34723046593E+01  0.40509880867E+02  0.24358310710E+00  0.40659152478E+02  0.00000000000E+00 0.  1.
         11    1    3    3    0    0 -0.12129147097E+02 -0.32989161656E+02 -0.53260651694E+01  0.35549514293E+02  0.51100000000E-03 0.  1.
        -11    1    3    3    0    0  0.16001393251E+01 -0.15883472851E+01  0.52980226227E+01  0.57578066075E+01  0.51100000000E-03 0. -1.
        -12    1    3    3    0    0  0.70567031125E+01 -0.59323719262E+01 -0.21554056030E+00  0.92215266210E+01  0.00000000000E+00 0.  1.
</event>
<event>
 7    1  0.2702714E-011  0.5052885E+02  0.7816164E-02  0.1300439E+00
        -11   -1    0    0    0    0  0.00000000000E+00  0.00000000000E+00  0.45593999997E+02  0.45594000000E+02  0.51100000000E-03 0.  1.
         11   -1    0    0    0    0 -0.00000000000E+00 -0.00000000000E+00 -0.45593999997E+02  0.45594000000E+02  0.51100000000E-03 0. -1.
    9900012    2    1    2    0    0 -0.11033947108E+01 -0.13456584070E+02 -0.38351912553E+02  0.50528851814E+02  0.29999975573E+02 0.  0.
        -12    1    1    2    0    0  0.11033947108E+01  0.13456584070E+02  0.38351912553E+02  0.40659148186E+02  0.00000000000E+00 0.  1.
         11    1    3    3    0    0 -0.61568869735E+01  0.18884075627E+01 -0.16232565963E+01  0.66414081764E+01  0.51100000000E-03 0. -1.
        -11    1    3    3    0    0  0.34620588001E+01  0.21098923486E+01 -0.17092009229E+02  0.17566282378E+02  0.51100000000E-03 0.  1.
         12    1    3    3    0    0  0.15914334626E+01 -0.17454883982E+02 -0.19636646728E+02  0.26321161259E+02  0.00000000000E+00 0. -1.
</event>
<event>
 7    1  0.2702714E-011  0.5052885E+02  0.7816164E-02  0.1300439E+00
        -11   -1    0    0    0    0  0.00000000000E+00  0.00000000000E+00  0.45593999997E+02  0.45594000000E+02  0.51100000000E-03 0.  1.
         11   -1    0    0    0    0 -0.00000000000E+00 -0.00000000000E+00 -0.45593999997E+02  0.45594000000E+02  0.51100000000E-03 0. -1.
    9900012    2    1    2    0    0 -0.35480182149E+02 -0.12732962069E+02 -0.15237934681E+02  0.50528852176E+02  0.29999976675E+02 0.  0.
        -12    1    1    2    0    0  0.35480182149E+02  0.12732962069E+02  0.15237934681E+02  0.40659147824E+02  0.00000000000E+00 0.  1.
         11    1    3    3    0    0 -0.98676938549E+00  0.12753780166E+01  0.19797923848E+01  0.25534057753E+01  0.51100000000E-03 0. -1.
        -11    1    3    3    0    0 -0.17814799987E+00  0.15178504870E+00  0.48061405934E+01  0.48118357282E+01  0.51100000000E-03 0.  1.
         12    1    3    3    0    0 -0.34315264764E+02 -0.14160125134E+02 -0.22023867659E+02  0.43163610673E+02  0.00000000000E+00 0. -1.
</event>
<event>
 7    1  0.2702714E-011  0.5052886E+02  0.7816164E-02  0.1300439E+00
        -11   -1    0    0    0    0  0.00000000000E+00  0.00000000000E+00  0.45593999997E+02  0.45594000000E+02  0.51100000000E-03 0.  1.
         11   -1    0    0    0    0 -0.00000000000E+00 -0.00000000000E+00 -0.45593999997E+02  0.45594000000E+02  0.51100000000E-03 0. -1.
    9900012    2    1    2    0    0  0.32153339520E+02  0.22365690647E+02  0.10913494960E+02  0.50528859174E+02  0.29999997946E+02 0.  0.
        -12    1    1    2    0    0 -0.32153339520E+02 -0.22365690647E+02 -0.10913494960E+02  0.40659140826E+02  0.00000000000E+00 0.  1.
         11    1    3    3    0    0  0.55104849486E+01  0.11951852732E+02  0.79880670315E+00  0.13185231151E+02  0.51100000000E-03 0. -1.
        -11    1    3    3    0    0  0.24790939290E+02  0.25071697144E+01  0.72289209084E+00  0.24927878852E+02  0.51100000000E-03 0.  1.
         12    1    3    3    0    0  0.18519152823E+01  0.79066682004E+01  0.93917961664E+01  0.12415749171E+02  0.00000000000E+00 0. -1.
</event>
<event>
 7    1  0.2702714E-011  0.5052888E+02  0.7816164E-02  0.1300439E+00
        -11   -1    0    0    0    0  0.00000000000E+00  0.00000000000E+00  0.45593999997E+02  0.45594000000E+02  0.51100000000E-03 0. -1.
         11   -1    0    0    0    0 -0.00000000000E+00 -0.00000000000E+00 -0.45593999997E+02  0.45594000000E+02  0.51100000000E-03 0.  1.
    9900012    2    1    2    0    0 -0.33130766470E+02  0.23337432525E+02 -0.32985991217E+01  0.50528878024E+02  0.30000055241E+02 0.  0.
        -12    1    1    2    0    0  0.33130766470E+02 -0.23337432525E+02  0.32985991217E+01  0.40659121976E+02  0.00000000000E+00 0.  1.
         11    1    3    3    0    0 -0.12263433103E+02 -0.33284263147E+01 -0.17313890807E+01  0.12824504731E+02  0.51100000000E-03 0. -1.
        -11    1    3    3    0    0 -0.52502698431E+01  0.23608546788E+01  0.55009800852E+01  0.79623960212E+01  0.51100000000E-03 0.  1.
        -12    1    3    3    0    0 -0.15617063524E+02  0.24305004161E+02 -0.70681901261E+01  0.29741977271E+02  0.00000000000E+00 0.  1.
</event>
<event>
 7    1  0.2702714E-011  0.5052886E+02  0.7816164E-02  0.1300439E+00
        -11   -1    0    0    0    0  0.00000000000E+00  0.00000000000E+00  0.45593999997E+02  0.45594000000E+02  0.51100000000E-03 0.  1.
         11   -1    0    0    0    0 -0.00000000000E+00 -0.00000000000E+00 -0.45593999997E+02  0.45594000000E+02  0.51100000000E-03 0. -1.
    9900012    2    1    2    0    0 -0.25903989187E+02  0.24012866950E+02 -0.20137812157E+02  0.50528856952E+02  0.29999991190E+02 0.  0.
        -12    1    1    2    0    0  0.25903989187E+02 -0.24012866950E+02  0.20137812157E+02  0.40659143048E+02  0.00000000000E+00 0.  1.
         11    1    3    3    0    0 -0.53562679237E+01  0.97818841481E+01 -0.10013720056E+02  0.14988310551E+02  0.51100000000E-03 0. -1.
        -11    1    3    3    0    0  0.45247974150E+01  0.22318944322E+01 -0.53211518626E+01  0.73327894971E+01  0.51100000000E-03 0.  1.
         12    1    3    3    0    0 -0.25072518678E+02  0.11999088370E+02 -0.48029402378E+01  0.28207756903E+02  0.00000000000E+00 0. -1.
</event>
<event>
 7    1  0.2702714E-011  0.5052886E+02  0.7816164E-02  0.1300439E+00
        -11   -1    0    0    0    0  0.00000000000E+00  0.00000000000E+00  0.45593999997E+02  0.45594000000E+02  0.51100000000E-03 0.  1.
         11   -1    0    0    0    0 -0.00000000000E+00 -0.00000000000E+00 -0.45593999997E+02  0.45594000000E+02  0.51100000000E-03 0. -1.
    9900012    2    1    2    0    0  0.85410909699E+01 -0.25011183728E+01 -0.39673161294E+02  0.50528861357E+02  0.30000004582E+02 0.  0.
        -12    1    1    2    0    0 -0.85410909699E+01  0.25011183728E+01  0.39673161294E+02  0.40659138643E+02  0.00000000000E+00 0.  1.
         11    1    3    3    0    0  0.58462476805E+01 -0.39588282394E+01 -0.18080493196E+02  0.19410182056E+02  0.51100000000E-03 0.  1.
        -11    1    3    3    0    0  0.11139569014E+02  0.59629869198E+01 -0.10195736173E+02  0.16235770607E+02  0.51100000000E-03 0. -1.
        -12    1    3    3    0    0 -0.84447257251E+01 -0.45052770531E+01 -0.11396931926E+02  0.14882908695E+02  0.00000000000E+00 0.  1.
</event>
<event>
 7    1  0.2702714E-011  0.5052886E+02  0.7816164E-02  0.1300439E+00
        -11   -1    0    0    0    0  0.00000000000E+00  0.00000000000E+00  0.45593999997E+02  0.45594000000E+02  0.51100000000E-03 0.  1.
         11   -1    0    0    0    0 -0.00000000000E+00 -0.00000000000E+00 -0.45593999997E+02  0.45594000000E+02  0.51100000000E-03 0. -1.
    9900012    2    1    2    0    0 -0.16826434562E+02  0.33858527257E+02 -0.14954483670E+02  0.50528863881E+02  0.30000012254E+02 0.  0.
        -12    1    1    2    0    0  0.16826434562E+02 -0.33858527257E+02  0.14954483670E+02  0.40659136119E+02  0.00000000000E+00 0.  1.
         11    1    3    3    0    0 -0.52263657042E+00  0.10567345387E+02 -0.16537868472E+02  0.19632703109E+02  0.51100000000E-03 0. -1.
        -11    1    3    3    0    0 -0.24999172187E+01  0.12525594470E+02  0.36117636830E+01  0.13273467524E+02  0.51100000000E-03 0.  1.
        -12    1    3    3    0    0 -0.13803880773E+02  0.10765587399E+02 -0.20283788809E+01  0.17622693249E+02  0.00000000000E+00 0.  1.
</event>
<event>
 7    1  0.2702714E-011  0.5052882E+02  0.7816164E-02  0.1300439E+00
        -11   -1    0    0    0    0  0.00000000000E+00  0.00000000000E+00  0.45593999997E+02  0.45594000000E+02  0.51100000000E-03 0. -1.
         11   -1    0    0    0    0 -0.00000000000E+00 -0.00000000000E+00 -0.45593999997E+02  0.45594000000E+02  0.51100000000E-03 0.  1.
    9900012    2    1    2    0    0  0.23687419594E+02 -0.31611067638E+02  0.96340783934E+01  0.50528820093E+02  0.29999879156E+02 0.  0.
        -12    1    1    2    0    0 -0.23687419594E+02  0.31611067638E+02 -0.96340783934E+01  0.40659179907E+02  0.00000000000E+00 0.  1.
         11    1    3    3    0    0  0.27746791410E+02 -0.19512999045E+02  0.49396658259E+01  0.34278883646E+02  0.51100000000E-03 0. -1.
        -11    1    3    3    0    0  0.23173426106E+01 -0.17526617447E+01 -0.64452006143E+00  0.29761227020E+01  0.51100000000E-03 0.  1.
        -12    1    3    3    0    0 -0.63767144271E+01 -0.10345406848E+02  0.53389326289E+01  0.13273813745E+02  0.00000000000E+00 0.  1.
</event>
<event>
 7    1  0.2702714E-011  0.5052890E+02  0.7816164E-02  0.1300439E+00
        -11   -1    0    0    0    0  0.00000000000E+00  0.00000000000E+00  0.45593999997E+02  0.45594000000E+02  0.51100000000E-03 0.  1.
         11   -1    0    0    0    0 -0.00000000000E+00 -0.00000000000E+00 -0.45593999997E+02  0.45594000000E+02  0.51100000000E-03 0. -1.
    9900012    2    1    2    0    0  0.39557849839E+00 -0.89350649037E+01 -0.39663216755E+02  0.50528897323E+02  0.30000113902E+02 0.  0.
        -12    1    1    2    0    0 -0.39557849839E+00  0.89350649037E+01  0.39663216755E+02  0.40659102677E+02  0.00000000000E+00 0.  1.
         11    1    3    3    0    0 -0.63857432921E+01 -0.51748468600E+01 -0.20847532456E+01  0.84795609422E+01  0.51100000000E-03 0.  1.
        -11    1    3    3    0    0  0.76130513584E+01 -0.34000459956E+01 -0.55679927155E+01  0.10026036450E+02  0.51100000000E-03 0. -1.
        -12    1    3    3    0    0 -0.83172956799E+00 -0.36017204812E+00 -0.32010470794E+02  0.32023299930E+02  0.00000000000E+00 0.  1.
</event>
<event>
 7    1  0.2702714E-011  0.5052886E+02  0.7816164E-02  0.1300439E+00
        -11   -1    0    0    0    0  0.00000000000E+00  0.00000000000E+00  0.45593999997E+02  0.45594000000E+02  0.51100000000E-03 0. -1.
         11   -1    0    0    0    0 -0.00000000000E+00 -0.00000000000E+00 -0.45593999997E+02  0.45594000000E+02  0.51100000000E-03 0.  1.
    9900012    2    1    2    0    0  0.20243515970E+02  0.32625062380E+02  0.13378012385E+02  0.50528857738E+02  0.29999993580E+02 0.  0.
        -12    1    1    2    0    0 -0.20243515970E+02 -0.32625062380E+02 -0.13378012385E+02  0.40659142262E+02  0.00000000000E+00 0.  1.
         11    1    3    3    0    0  0.45269455121E+01  0.11497469131E+02 -0.95197664878E+01  0.15598428970E+02  0.51100000000E-03 0.  1.
        -11    1    3    3    0    0  0.43171521891E+01  0.48449991157E+01  0.51725974020E+01  0.82986495045E+01  0.51100000000E-03 0. -1.
        -12    1    3    3    0    0  0.11399418269E+02  0.16282594134E+02  0.17725181471E+02  0.26631779264E+02  0.00000000000E+00 0.  1.
</event>
<event>
 7    1  0.2702714E-011  0.5052886E+02  0.7816164E-02  0.1300439E+00
        -11   -1    0    0    0    0  0.00000000000E+00  0.00000000000E+00  0.45593999997E+02  0.45594000000E+02  0.51100000000E-03 0.  1.
         11   -1    0    0    0    0 -0.00000000000E+00 -0.00000000000E+00 -0.45593999997E+02  0.45594000000E+02  0.51100000000E-03 0. -1.
    9900012    2    1    2    0    0 -0.16599337940E+02 -0.20637476939E+02 -0.30849994531E+02  0.50528860351E+02  0.30000001522E+02 0.  0.
        -12    1    1    2    0    0  0.16599337940E+02  0.20637476939E+02  0.30849994531E+02  0.40659139649E+02  0.00000000000E+00 0.  1.
         11    1    3    3    0    0 -0.15622852074E+02 -0.17446387274E+02 -0.21890462883E+02  0.32056860441E+02  0.51100000000E-03 0. -1.
        -11    1    3    3    0    0 -0.61910020280E+00 -0.83886174032E+01 -0.36207010623E+00  0.84192209866E+01  0.51100000000E-03 0.  1.
         12    1    3    3    0    0 -0.35738566301E+00  0.51975277384E+01 -0.85974615426E+01  0.10052778923E+02  0.00000000000E+00 0. -1.
</event>
<event>
 7    1  0.2702714E-011  0.5052886E+02  0.7816164E-02  0.1300439E+00
        -11   -1    0    0    0    0  0.00000000000E+00  0.00000000000E+00  0.45593999997E+02  0.45594000000E+02  0.51100000000E-03 0.  1.
         11   -1    0    0    0    0 -0.00000000000E+00 -0.00000000000E+00 -0.45593999997E+02  0.45594000000E+02  0.51100000000E-03 0. -1.
    9900012    2    1    2    0    0 -0.29177546743E+02 -0.24394758447E+02  0.14378176350E+02  0.50528862912E+02  0.30000009307E+02 0.  0.
        -12    1    1    2    0    0  0.29177546743E+02  0.24394758447E+02 -0.14378176350E+02  0.40659137088E+02  0.00000000000E+00 0.  1.
         11    1    3    3    0    0 -0.23692432488E+02 -0.21225527838E+02  0.85852650798E+01  0.32947855256E+02  0.51100000000E-03 0. -1.
        -11    1    3    3    0    0 -0.47977417590E+01 -0.31804263268E+01 -0.44744304600E+01  0.72906766358E+01  0.51100000000E-03 0.  1.
         12    1    3    3    0    0 -0.68737249556E+00  0.11195718444E-01  0.10267341730E+02  0.10290331020E+02  0.00000000000E+00 0. -1.
</event>
<event>
 7    1  0.2702714E-011  0.5052886E+02  0.7816164E-02  0.1300439E+00
        -11   -1    0    0    0    0  0.00000000000E+00  0.00000000000E+00  0.45593999997E+02  0.45594000000E+02  0.51100000000E-03 0.  1.
         11   -1    0    0    0    0 -0.00000000000E+00 -0.00000000000E+00 -0.45593999997E+02  0.45594000000E+02  0.51100000000E-03 0. -1.
    9900012    2    1    2    0    0  0.19652845129E+02 -0.34005098898E+02  0.10515901831E+02  0.50528864937E+02  0.30000015463E+02 0.  0.
        -12    1    1    2    0    0 -0.19652845129E+02  0.34005098898E+02 -0.10515901831E+02  0.40659135063E+02  0.00000000000E+00 0.  1.
         11    1    3    3    0    0 -0.49276120494E+01 -0.56138918974E+01  0.20944411359E+01  0.77578235787E+01  0.51100000000E-03 0. -1.
        -11    1    3    3    0    0  0.11896787681E+02 -0.14399169509E+02  0.13697926860E+02  0.23162530954E+02  0.51100000000E-03 0.  1.
        -12    1    3    3    0    0  0.12683669497E+02 -0.13992037492E+02 -0.52764661650E+01  0.19608510404E+02  0.00000000000E+00 0.  1.
</event>
<event>
 7    1  0.2702714E-011  0.5052885E+02  0.7816164E-02  0.1300439E+00
        -11   -1    0    0    0    0  0.00000000000E+00  0.00000000000E+00  0.45593999997E+02  0.45594000000E+02  0.51100000000E-03 0. -1.
         11   -1    0    0    0    0 -0.00000000000E+00 -0.00000000000E+00 -0.45593999997E+02  0.45594000000E+02  0.51100000000E-03 0.  1.
    9900012    2    1    2    0    0 -0.19567438710E+02  0.14945424939E+02  0.32356083986E+02  0.50528849060E+02  0.29999967203E+02 0.  0.
        -12    1    1    2    0    0  0.19567438710E+02 -0.14945424939E+02 -0.32356083986E+02  0.40659150940E+02  0.00000000000E+00 0.  1.
         11    1    3    3    0    0 -0.60381563561E+01  0.19422678193E+01  0.18114405089E+02  0.19192795743E+02  0.51100000000E-03 0. -1.
        -11    1    3    3    0    0  0.55455584910E+01  0.27965718297E+01  0.41075905696E+01  0.74462294837E+01  0.51100000000E-03 0.  1.
         12    1    3    3    0    0 -0.19074840845E+02  0.10206585290E+02  0.10134088327E+02  0.23889823833E+02  0.00000000000E+00 0. -1.
</event>
<event>
 7    1  0.2702714E-011  0.5052886E+02  0.7816164E-02  0.1300439E+00
        -11   -1    0    0    0    0  0.00000000000E+00  0.00000000000E+00  0.45593999997E+02  0.45594000000E+02  0.51100000000E-03 0.  1.
         11   -1    0    0    0    0 -0.00000000000E+00 -0.00000000000E+00 -0.45593999997E+02  0.45594000000E+02  0.51100000000E-03 0. -1.
    9900012    2    1    2    0    0  0.42422501841E+01 -0.12923503907E+02 -0.38316469307E+02  0.50528862528E+02  0.30000008139E+02 0.  0.
        -12    1    1    2    0    0 -0.42422501841E+01  0.12923503907E+02  0.38316469307E+02  0.40659137472E+02  0.00000000000E+00 0.  1.
         11    1    3    3    0    0  0.85238482627E+01 -0.92006090782E+01 -0.23186085707E+02  0.26360989498E+02  0.51100000000E-03 0. -1.
        -11    1    3    3    0    0 -0.63291110311E+01  0.24804131472E+01 -0.16181483085E+02  0.17551367210E+02  0.51100000000E-03 0.  1.
        -12    1    3    3    0    0  0.20475129526E+01 -0.62033079765E+01  0.10510994857E+01  0.66165058204E+01  0.00000000000E+00 0.  1.
</event>
<event>
 7    1  0.2702714E-011  0.5052888E+02  0.7816164E-02  0.1300439E+00
        -11   -1    0    0    0    0  0.00000000000E+00  0.00000000000E+00  0.45593999997E+02  0.45594000000E+02  0.51100000000E-03 0.  1.
         11   -1    0    0    0    0 -0.00000000000E+00 -0.00000000000E+00 -0.45593999997E+02  0.45594000000E+02  0.51100000000E-03 0. -1.
    9900012    2    1    2    0    0 -0.18517244703E+00  0.97948528028E+01 -0.39461254460E+02  0.50528880066E+02  0.30000061449E+02 0.  0.
        -12    1    1    2    0    0  0.18517244703E+00 -0.97948528028E+01  0.39461254460E+02  0.40659119934E+02  0.00000000000E+00 0.  1.
         11    1    3    3    0    0  0.66054132029E+01  0.91936991331E+01 -0.32515779486E+02  0.34430095893E+02  0.51100000000E-03 0. -1.
        -11    1    3    3    0    0 -0.18209680171E+01 -0.30902643557E+01 -0.89092326606E+01  0.96041701968E+01  0.51100000000E-03 0.  1.
        -12    1    3    3    0    0 -0.49696176328E+01  0.36914180253E+01  0.19637576868E+01  0.64946139767E+01  0.00000000000E+00 0.  1.
</event>
<event>
 7    1  0.2702714E-011  0.5052892E+02  0.7816164E-02  0.1300439E+00
        -11   -1    0    0    0    0  0.00000000000E+00  0.00000000000E+00  0.45593999997E+02  0.45594000000E+02  0.51100000000E-03 0.  1.
         11   -1    0    0    0    0 -0.00000000000E+00 -0.00000000000E+00 -0.45593999997E+02  0.45594000000E+02  0.51100000000E-03 0. -1.
    9900012    2    1    2    0    0 -0.32475739971E+02  0.18383389795E+02 -0.16141179807E+02  0.50528924843E+02  0.30000197553E+02 0.  0.
        -12    1    1    2    0    0  0.32475739971E+02 -0.18383389795E+02  0.16141179807E+02  0.40659075157E+02  0.00000000000E+00 0.  1.
         11    1    3    3    0    0 -0.89499450971E+01  0.12978633908E+02 -0.18267405077E+02  0.24129743966E+02  0.51100000000E-03 0. -1.
        -11    1    3    3    0    0  0.75477232792E+00  0.52774398903E+00  0.13339426697E+01  0.16209868267E+01  0.51100000000E-03 0.  1.
         12    1    3    3    0    0 -0.24280567202E+02  0.48770118982E+01  0.79228260034E+00  0.24778194051E+02  0.00000000000E+00 0. -1.
</event>
<event>
 7    1  0.2702714E-011  0.5052887E+02  0.7816164E-02  0.1300439E+00
        -11   -1    0    0    0    0  0.00000000000E+00  0.00000000000E+00  0.45593999997E+02  0.45594000000E+02  0.51100000000E-03 0.  1.
         11   -1    0    0    0    0 -0.00000000000E+00 -0.00000000000E+00 -0.45593999997E+02  0.45594000000E+02  0.51100000000E-03 0. -1.
    9900012    2    1    2    0    0 -0.20369060422E+02 -0.24374710101E+02 -0.25379903508E+02  0.50528872894E+02  0.30000039648E+02 0.  0.
        -12    1    1    2    0    0  0.20369060422E+02  0.24374710101E+02  0.25379903508E+02  0.40659127106E+02  0.00000000000E+00 0.  1.
         11    1    3    3    0    0 -0.70334764286E+01  0.32829347246E+01 -0.51044878138E+01  0.92899541000E+01  0.51100000000E-03 0. -1.
        -11    1    3    3    0    0  0.42422276815E+01 -0.60054621624E+01 -0.11990827396E+01  0.74498235659E+01  0.51100000000E-03 0.  1.
        -12    1    3    3    0    0 -0.17577811675E+02 -0.21652182663E+02 -0.19076332954E+02  0.33789095228E+02  0.00000000000E+00 0.  1.
</event>
<event>
 7    1  0.2702714E-011  0.5052885E+02  0.7816164E-02  0.1300439E+00
        -11   -1    0    0    0    0  0.00000000000E+00  0.00000000000E+00  0.45593999997E+02  0.45594000000E+02  0.51100000000E-03 0.  1.
         11   -1    0    0    0    0 -0.00000000000E+00 -0.00000000000E+00 -0.45593999997E+02  0.45594000000E+02  0.51100000000E-03 0. -1.
    9900012    2    1    2    0    0 -0.20897503022E+02 -0.12849255635E+02 -0.32424644129E+02  0.50528849126E+02  0.29999967403E+02 0.  0.
        -12    1    1    2    0    0  0.20897503022E+02  0.12849255635E+02  0.32424644129E+02  0.40659150874E+02  0.00000000000E+00 0.  1.
         11    1    3    3    0    0  0.19715367984E+00 -0.62265521499E+01 -0.14912978105E+02  0.16161860582E+02  0.51100000000E-03 0. -1.
        -11    1    3    3    0    0 -0.17979332800E+02 -0.13127731932E+02 -0.14390304926E+02  0.26508010671E+02  0.51100000000E-03 0.  1.
         12    1    3    3    0    0 -0.31153239018E+01  0.65050284467E+01 -0.31213610974E+01  0.78589778729E+01  0.00000000000E+00 0. -1.
</event>
<event>
 7    1  0.2702714E-011  0.5052886E+02  0.7816164E-02  0.1300439E+00
        -11   -1    0    0    0    0  0.00000000000E+00  0.00000000000E+00  0.45593999997E+02  0.45594000000E+02  0.51100000000E-03 0.  1.
         11   -1    0    0    0    0 -0.00000000000E+00 -0.00000000000E+00 -0.45593999997E+02  0.45594000000E+02  0.51100000000E-03 0. -1.
    9900012    2    1    2    0    0  0.60462086832E+00 -0.29914919792E+02 -0.27529936253E+02  0.50528863479E+02  0.30000011030E+02 0.  0.
        -12    1    1    2    0    0 -0.60462086832E+00  0.29914919792E+02  0.27529936253E+02  0.40659136521E+02  0.00000000000E+00 0.  1.
         11    1    3    3    0    0 -0.69546645321E+01 -0.23086268425E+02 -0.98671449555E+01  0.26051942315E+02  0.51100000000E-03 0. -1.
        -11    1    3    3    0    0  0.23928806973E+01 -0.40618737835E+01  0.10823709830E+01  0.48369643239E+01  0.51100000000E-03 0.  1.
        -12    1    3    3    0    0  0.51664047032E+01 -0.27667775834E+01 -0.18745162280E+02  0.19639956840E+02  0.00000000000E+00 0.  1.
</event>
<event>
 7    1  0.2702714E-011  0.5052885E+02  0.7816164E-02  0.1300439E+00
        -11   -1    0    0    0    0  0.00000000000E+00  0.00000000000E+00  0.45593999997E+02  0.45594000000E+02  0.51100000000E-03 0. -1.
         11   -1    0    0    0    0 -0.00000000000E+00 -0.00000000000E+00 -0.45593999997E+02  0.45594000000E+02  0.51100000000E-03 0.  1.
    9900012    2    1    2    0    0  0.30887985264E+02  0.25413278246E+02  0.72982432197E+01  0.50528847292E+02  0.29999961827E+02 0.  0.
        -12    1    1    2    0    0 -0.30887985264E+02 -0.25413278246E+02 -0.72982432197E+01  0.40659152708E+02  0.00000000000E+00 0.  1.
         11    1    3    3    0    0  0.15052433340E+02  0.44156354362E+01  0.23374580382E+01  0.15859927367E+02  0.51100000000E-03 0. -1.
        -11    1    3    3    0    0  0.37300870722E+01 -0.22302490185E+01  0.71684496951E+01  0.83829727151E+01  0.51100000000E-03 0.  1.
        -12    1    3    3    0    0  0.12105464852E+02  0.23227891829E+02 -0.22076645135E+01  0.26285947209E+02  0.00000000000E+00 0.  1.
</event>
<event>
 7    1  0.2702714E-011  0.5052886E+02  0.7816164E-02  0.1300439E+00
        -11   -1    0    0    0    0  0.00000000000E+00  0.00000000000E+00  0.45593999997E+02  0.45594000000E+02  0.51100000000E-03 0.  1.
         11   -1    0    0    0    0 -0.00000000000E+00 -0.00000000000E+00 -0.45593999997E+02  0.45594000000E+02  0.51100000000E-03 0. -1.
    9900012    2    1    2    0    0  0.77171753741E+01  0.28044872080E+02 -0.28409441463E+02  0.50528855765E+02  0.29999987582E+02 0.  0.
        -12    1    1    2    0    0 -0.77171753741E+01 -0.28044872080E+02  0.28409441463E+02  0.40659144235E+02  0.00000000000E+00 0.  1.
         11    1    3    3    0    0  0.20719526180E+01  0.49840661286E+01  0.22958160122E+01  0.58655497823E+01  0.51100000000E-03 0. -1.
        -11    1    3    3    0    0 -0.51592595584E+01  0.17419285792E+02 -0.10270147040E+02  0.20869245247E+02  0.51100000000E-03 0.  1.
         12    1    3    3    0    0  0.10804482314E+02  0.56415201593E+01 -0.20435110435E+02  0.23794060736E+02  0.00000000000E+00 0. -1.
</event>
<event>
 7    1  0.2702714E-011  0.5052885E+02  0.7816164E-02  0.1300439E+00
        -11   -1    0    0    0    0  0.00000000000E+00  0.00000000000E+00  0.45593999997E+02  0.45594000000E+02  0.51100000000E-03 0. -1.
         11   -1    0    0    0    0 -0.00000000000E+00 -0.00000000000E+00 -0.45593999997E+02  0.45594000000E+02  0.51100000000E-03 0.  1.
    9900012    2    1    2    0    0 -0.84486643919E+01 -0.35088767448E+02  0.18723371132E+02  0.50528853950E+02  0.29999982065E+02 0.  0.
        -12    1    1    2    0    0  0.84486643919E+01  0.35088767448E+02 -0.18723371132E+02  0.40659146050E+02  0.00000000000E+00 0.  1.
         11    1    3    3    0    0  0.80798444448E+01 -0.16147572825E+02  0.97672176184E+01  0.20528675911E+02  0.51100000000E-03 0. -1.
        -11    1    3    3    0    0 -0.28367597668E+01 -0.11784775483E+01 -0.32454654719E+01  0.44686756088E+01  0.51100000000E-03 0.  1.
        -12    1    3    3    0    0 -0.13691749070E+02 -0.17762717074E+02  0.12201618985E+02  0.25531502430E+02  0.00000000000E+00 0.  1.
</event>
<event>
 7    1  0.2702714E-011  0.5052887E+02  0.7816164E-02  0.1300439E+00
        -11   -1    0    0    0    0  0.00000000000E+00  0.00000000000E+00  0.45593999997E+02  0.45594000000E+02  0.51100000000E-03 0. -1.
         11   -1    0    0    0    0 -0.00000000000E+00 -0.00000000000E+00 -0.45593999997E+02  0.45594000000E+02  0.51100000000E-03 0.  1.
    9900012    2    1    2    0    0 -0.68471072426E+01 -0.22685456454E+02  0.33040158771E+02  0.50528869368E+02  0.30000028931E+02 0.  0.
        -12    1    1    2    0    0  0.68471072426E+01  0.22685456454E+02 -0.33040158771E+02  0.40659130632E+02  0.00000000000E+00 0.  1.
         11    1    3    3    0    0 -0.14411274243E+01 -0.44249120754E+01 -0.16693979349E+01  0.49440453936E+01  0.51100000000E-03 0. -1.
        -11    1    3    3    0    0  0.29095233805E+01  0.35974026441E+01  0.12516776148E+02  0.13344523876E+02  0.51100000000E-03 0.  1.
         12    1    3    3    0    0 -0.83155031988E+01 -0.21857947023E+02  0.22192780558E+02  0.32240300098E+02  0.00000000000E+00 0. -1.
</event>
<event>
 7    1  0.2702714E-011  0.5052900E+02  0.7816164E-02  0.1300438E+00
        -11   -1    0    0    0    0  0.00000000000E+00  0.00000000000E+00  0.45593999997E+02  0.45594000000E+02  0.51100000000E-03 0.  1.
         11   -1    0    0    0    0 -0.00000000000E+00 -0.00000000000E+00 -0.45593999997E+02  0.45594000000E+02  0.51100000000E-03 0. -1.
    9900012    2    1    2    0    0 -0.16267129576E+02 -0.29397565681E+02 -0.22897980719E+02  0.50529004763E+02  0.30000440476E+02 0.  0.
        -12    1    1    2    0    0  0.16267129576E+02  0.29397565681E+02  0.22897980719E+02  0.40658995237E+02  0.00000000000E+00 0.  1.
         11    1    3    3    0    0 -0.82500959751E+01 -0.14020900393E+02 -0.61161674010E+01  0.17379793881E+02  0.51100000000E-03 0. -1.
        -11    1    3    3    0    0 -0.90569288556E+01  0.33945823048E+01 -0.71312654240E+01  0.12016908759E+02  0.51100000000E-03 0.  1.
         12    1    3    3    0    0  0.10398952547E+01 -0.18771247593E+02 -0.96505478941E+01  0.21132302123E+02  0.00000000000E+00 0. -1.
</event>
<event>
 7    1  0.2702714E-011  0.5052886E+02  0.7816164E-02  0.1300439E+00
        -11   -1    0    0    0    0  0.00000000000E+00  0.00000000000E+00  0.45593999997E+02  0.45594000000E+02  0.51100000000E-03 0.  1.
         11   -1    0    0    0    0 -0.00000000000E+00 -0.00000000000E+00 -0.45593999997E+02  0.45594000000E+02  0.51100000000E-03 0. -1.
    9900012    2    1    2    0    0  0.27164890248E+02 -0.15935314579E+02 -0.25715751848E+02  0.50528863192E+02  0.30000010157E+02 0.  0.
        -12    1    1    2    0    0 -0.27164890248E+02  0.15935314579E+02  0.25715751848E+02  0.40659136808E+02  0.00000000000E+00 0.  1.
         11    1    3    3    0    0  0.12080861417E+02 -0.31107987850E+01 -0.24815950540E+02  0.27775091055E+02  0.51100000000E-03 0. -1.
        -11    1    3    3    0    0  0.89717787729E+01 -0.16026079483E+01 -0.34103407501E+01  0.97309604294E+01  0.51100000000E-03 0.  1.
         12    1    3    3    0    0  0.61122500577E+01 -0.11221907846E+02  0.25105394422E+01  0.13022811707E+02  0.00000000000E+00 0. -1.
</event>
<event>
 7    1  0.2702714E-011  0.5052886E+02  0.7816164E-02  0.1300439E+00
        -11   -1    0    0    0    0  0.00000000000E+00  0.00000000000E+00  0.45593999997E+02  0.45594000000E+02  0.51100000000E-03 0.  1.
         11   -1    0    0    0    0 -0.00000000000E+00 -0.00000000000E+00 -0.45593999997E+02  0.45594000000E+02  0.51100000000E-03 0. -1.
    9900012    2    1    2    0    0 -0.63629121687E+01 -0.26916794241E+02 -0.29802100230E+02  0.50528860294E+02  0.30000001351E+02 0.  0.
        -12    1    1    2    0    0  0.63629121687E+01  0.26916794241E+02  0.29802100230E+02  0.40659139706E+02  0.00000000000E+00 0.  1.
         11    1    3    3    0    0 -0.23500096133E+01  0.56187233701E+01 -0.93270307618E+01  0.11139394085E+02  0.51100000000E-03 0. -1.
        -11    1    3    3    0    0  0.20728826676E+01 -0.52428667252E+01 -0.42500600885E+01  0.70602765575E+01  0.51100000000E-03 0.  1.
        -12    1    3    3    0    0 -0.60857852229E+01 -0.27292650886E+02 -0.16225009380E+02  0.32329189652E+02  0.00000000000E+00 0.  1.
</event>
<event>
 7    1  0.2702714E-011  0.5052886E+02  0.7816164E-02  0.1300439E+00
        -11   -1    0    0    0    0  0.00000000000E+00  0.00000000000E+00  0.45593999997E+02  0.45594000000E+02  0.51100000000E-03 0.  1.
         11   -1    0    0    0    0 -0.00000000000E+00 -0.00000000000E+00 -0.45593999997E+02  0.45594000000E+02  0.51100000000E-03 0. -1.
    9900012    2    1    2    0    0 -0.45912894442E+01  0.38733443308E+02  0.11480680040E+02  0.50528861010E+02  0.30000003525E+02 0.  0.
        -12    1    1    2    0    0  0.45912894442E+01 -0.38733443308E+02 -0.11480680040E+02  0.40659138990E+02  0.00000000000E+00 0.  1.
         11    1    3    3    0    0 -0.15340578203E+00  0.24088675493E+01 -0.67740328782E+01  0.71912236720E+01  0.51100000000E-03 0. -1.
        -11    1    3    3    0    0 -0.65427261961E+01  0.15544192455E+02  0.22299029592E+01  0.17011809211E+02  0.51100000000E-03 0.  1.
         12    1    3    3    0    0  0.21048425340E+01  0.20780383304E+02  0.16024809959E+02  0.26325828127E+02  0.00000000000E+00 0. -1.
</event>
<event>
 7    1  0.2702714E-011  0.5052885E+02  0.7816164E-02  0.1300439E+00
        -11   -1    0    0    0    0  0.00000000000E+00  0.00000000000E+00  0.45593999997E+02  0.45594000000E+02  0.51100000000E-03 0.  1.
         11   -1    0    0    0    0 -0.00000000000E+00 -0.00000000000E+00 -0.45593999997E+02  0.45594000000E+02  0.51100000000E-03 0. -1.
    9900012    2    1    2    0    0 -0.13350512797E+01  0.34603243050E+02 -0.21307268407E+02  0.50528850003E+02  0.29999970069E+02 0.  0.
        -12    1    1    2    0    0  0.13350512797E+01 -0.34603243050E+02  0.21307268407E+02  0.40659149997E+02  0.00000000000E+00 0.  1.
         11    1    3    3    0    0  0.26858140047E+01  0.22884122262E+02 -0.16629727583E+02  0.28415567710E+02  0.51100000000E-03 0. -1.
        -11    1    3    3    0    0  0.60077338057E+01  0.86275950712E+01  0.25777116396E+00  0.10516401876E+02  0.51100000000E-03 0.  1.
        -12    1    3    3    0    0 -0.10028599090E+02  0.30915257175E+01 -0.49353119883E+01  0.11596880417E+02  0.00000000000E+00 0.  1.
</event>
<event>
 7    1  0.2702714E-011  0.5052885E+02  0.7816164E-02  0.1300439E+00
        -11   -1    0    0    0    0  0.00000000000E+00  0.00000000000E+00  0.45593999997E+02  0.45594000000E+02  0.51100000000E-03 0. -1.
         11   -1    0    0    0    0 -0.00000000000E+00 -0.00000000000E+00 -0.45593999997E+02  0.45594000000E+02  0.51100000000E-03 0.  1.
    9900012    2    1    2    0    0 -0.32709404236E+02  0.13439554316E+02  0.20065880886E+02  0.50528851934E+02  0.29999975940E+02 0.  0.
        -12    1    1    2    0    0  0.32709404236E+02 -0.13439554316E+02 -0.20065880886E+02  0.40659148066E+02  0.00000000000E+00 0.  1.
         11    1    3    3    0    0 -0.55542110119E+01  0.70954246732E+01  0.15242007734E+02  0.17706301457E+02  0.51100000000E-03 0. -1.
        -11    1    3    3    0    0 -0.30492747971E+01  0.72171329589E+01 -0.12844274736E+01  0.79394482888E+01  0.51100000000E-03 0.  1.
         12    1    3    3    0    0 -0.24105918427E+02 -0.87300331628E+00  0.61083006255E+01  0.24883102189E+02  0.00000000000E+00 0. -1.
</event>
<event>
 7    1  0.2702714E-011  0.5052890E+02  0.7816164E-02  0.1300439E+00
        -11   -1    0    0    0    0  0.00000000000E+00  0.00000000000E+00  0.45593999997E+02  0.45594000000E+02  0.51100000000E-03 0. -1.
         11   -1    0    0    0    0 -0.00000000000E+00 -0.00000000000E+00 -0.45593999997E+02  0.45594000000E+02  0.51100000000E-03 0.  1.
    9900012    2    1    2    0    0  0.32209864553E+02 -0.14024622271E+02  0.20469420499E+02  0.50528897944E+02  0.30000115792E+02 0.  0.
        -12    1    1    2    0    0 -0.32209864553E+02  0.14024622271E+02 -0.20469420499E+02  0.40659102056E+02  0.00000000000E+00 0.  1.
         11    1    3    3    0    0  0.12191577000E+01  0.13771132640E+00  0.11029576593E+02  0.11097606499E+02  0.51100000000E-03 0. -1.
        -11    1    3    3    0    0  0.12615209329E+01 -0.18786561471E+01  0.67879424547E+01  0.71552041909E+01  0.51100000000E-03 0.  1.
         12    1    3    3    0    0  0.29729185921E+02 -0.12283677450E+02  0.26519014512E+01  0.32276087255E+02  0.00000000000E+00 0. -1.
</event>
<event>
 7    1  0.2702714E-011  0.5052886E+02  0.7816164E-02  0.1300439E+00
        -11   -1    0    0    0    0  0.00000000000E+00  0.00000000000E+00  0.45593999997E+02  0.45594000000E+02  0.51100000000E-03 0.  1.
         11   -1    0    0    0    0 -0.00000000000E+00 -0.00000000000E+00 -0.45593999997E+02  0.45594000000E+02  0.51100000000E-03 0. -1.
    9900012    2    1    2    0    0  0.19605635023E+02  0.23668901598E+01 -0.35541274414E+02  0.50528864733E+02  0.30000014843E+02 0.  0.
        -12    1    1    2    0    0 -0.19605635023E+02 -0.23668901598E+01  0.35541274414E+02  0.40659135267E+02  0.00000000000E+00 0.  1.
         11    1    3    3    0    0  0.15504328807E+02  0.17813111087E+01 -0.79878767464E+01  0.17531784170E+02  0.51100000000E-03 0. -1.
        -11    1    3    3    0    0  0.50833153246E+01 -0.65396056486E+01 -0.58703172535E+01  0.10152199843E+02  0.51100000000E-03 0.  1.
        -12    1    3    3    0    0 -0.98200910802E+00  0.71251846997E+01 -0.21683080414E+02  0.22844880720E+02  0.00000000000E+00 0.  1.
</event>
<event>
 7    1  0.2702714E-011  0.5052886E+02  0.7816164E-02  0.1300439E+00
        -11   -1    0    0    0    0  0.00000000000E+00  0.00000000000E+00  0.45593999997E+02  0.45594000000E+02  0.51100000000E-03 0. -1.
         11   -1    0    0    0    0 -0.00000000000E+00 -0.00000000000E+00 -0.45593999997E+02  0.45594000000E+02  0.51100000000E-03 0.  1.
    9900012    2    1    2    0    0 -0.15617747984E+02 -0.14685808687E+02  0.34548211461E+02  0.50528856576E+02  0.29999990048E+02 0.  0.
        -12    1    1    2    0    0  0.15617747984E+02  0.14685808687E+02 -0.34548211461E+02  0.40659143424E+02  0.00000000000E+00 0.  1.
         11    1    3    3    0    0 -0.14593511106E+01 -0.14019581348E+01 -0.30358225300E+01  0.36484806387E+01  0.51100000000E-03 0. -1.
        -11    1    3    3    0    0 -0.10550066873E+02  0.23419219895E+01  0.88259121787E+01  0.13952965121E+02  0.51100000000E-03 0.  1.
         12    1    3    3    0    0 -0.36083300006E+01 -0.15625772541E+02  0.28758121812E+02  0.32927410816E+02  0.00000000000E+00 0. -1.
</event>
<event>
 7    1  0.2702714E-011  0.5052885E+02  0.7816164E-02  0.1300439E+00
        -11   -1    0    0    0    0  0.00000000000E+00  0.00000000000E+00  0.45593999997E+02  0.45594000000E+02  0.51100000000E-03 0.  1.
         11   -1    0    0    0    0 -0.00000000000E+00 -0.00000000000E+00 -0.45593999997E+02  0.45594000000E+02  0.51100000000E-03 0. -1.
    9900012    2    1    2    0    0  0.14204438249E+02 -0.12881864565E+02 -0.35853280406E+02  0.50528853224E+02  0.29999979861E+02 0.  0.
        -12    1    1    2    0    0 -0.14204438249E+02  0.12881864565E+02  0.35853280406E+02  0.40659146776E+02  0.00000000000E+00 0.  1.
         11    1    3    3    0    0 -0.45580622259E+01 -0.22351582799E+01 -0.91616763344E+01  0.10474167142E+02  0.51100000000E-03 0. -1.
        -11    1    3    3    0    0 -0.20296915258E+01 -0.18380696556E+01 -0.13766357883E+02  0.14036052058E+02  0.51100000000E-03 0.  1.
         12    1    3    3    0    0  0.20792192001E+02 -0.88086366299E+01 -0.12925246188E+02  0.26018634025E+02  0.00000000000E+00 0. -1.
</event>
<event>
 7    1  0.2702714E-011  0.5052886E+02  0.7816164E-02  0.1300439E+00
        -11   -1    0    0    0    0  0.00000000000E+00  0.00000000000E+00  0.45593999997E+02  0.45594000000E+02  0.51100000000E-03 0. -1.
         11   -1    0    0    0    0 -0.00000000000E+00 -0.00000000000E+00 -0.45593999997E+02  0.45594000000E+02  0.51100000000E-03 0.  1.
    9900012    2    1    2    0    0  0.30109639894E+02 -0.25187119012E+02  0.10591699149E+02  0.50528862410E+02  0.30000007782E+02 0.  0.
        -12    1    1    2    0    0 -0.30109639894E+02  0.25187119012E+02 -0.10591699149E+02  0.40659137590E+02  0.00000000000E+00 0.  1.
         11    1    3    3    0    0  0.16677959232E+02 -0.23777992343E+00 -0.11318529552E+01  0.16718012885E+02  0.51100000000E-03 0. -1.
        -11    1    3    3    0    0  0.41347559731E+01 -0.94934823163E+00  0.61585721312E+01  0.74783340377E+01  0.51100000000E-03 0.  1.
        -12    1    3    3    0    0  0.92969246888E+01 -0.23999990857E+02  0.55649799725E+01  0.26332515488E+02  0.00000000000E+00 0.  1.
</event>
<event>
 7    1  0.2702714E-011  0.5052885E+02  0.7816164E-02  0.1300439E+00
        -11   -1    0    0    0    0  0.00000000000E+00  0.00000000000E+00  0.45593999997E+02  0.45594000000E+02  0.51100000000E-03 0. -1.
         11   -1    0    0    0    0 -0.00000000000E+00 -0.00000000000E+00 -0.45593999997E+02  0.45594000000E+02  0.51100000000E-03 0.  1.
    9900012    2    1    2    0    0 -0.16631597370E+02 -0.30912650879E+02  0.20517416224E+02  0.50528851166E+02  0.29999973603E+02 0.  0.
        -12    1    1    2    0    0  0.16631597370E+02  0.30912650879E+02 -0.20517416224E+02  0.40659148834E+02  0.00000000000E+00 0.  1.
         11    1    3    3    0    0 -0.15185406090E+02 -0.20261791928E+02  0.23009931816E+01  0.25425014063E+02  0.51100000000E-03 0. -1.
        -11    1    3    3    0    0 -0.50749940741E+01  0.86892392508E+00  0.46206377836E+01  0.69181563604E+01  0.51100000000E-03 0.  1.
         12    1    3    3    0    0  0.36288027942E+01 -0.11519782876E+02  0.13595785259E+02  0.18185680742E+02  0.00000000000E+00 0. -1.
</event>
<event>
 7    1  0.2702714E-011  0.5052887E+02  0.7816164E-02  0.1300439E+00
        -11   -1    0    0    0    0  0.00000000000E+00  0.00000000000E+00  0.45593999997E+02  0.45594000000E+02  0.51100000000E-03 0. -1.
         11   -1    0    0    0    0 -0.00000000000E+00 -0.00000000000E+00 -0.45593999997E+02  0.45594000000E+02  0.51100000000E-03 0.  1.
    9900012    2    1    2    0    0  0.17752843774E+02  0.34555280334E+02  0.11997265571E+02  0.50528865206E+02  0.30000016280E+02 0.  0.
        -12    1    1    2    0    0 -0.17752843774E+02 -0.34555280334E+02 -0.11997265571E+02  0.40659134794E+02  0.00000000000E+00 0.  1.
         11    1    3    3    0    0  0.14526431620E+02  0.19468796694E+02  0.80289575910E+01  0.25583498990E+02  0.51100000000E-03 0. -1.
        -11    1    3    3    0    0 -0.23498561613E+00 -0.45952597053E+01  0.17406234798E+00  0.46045551317E+01  0.51100000000E-03 0.  1.
         12    1    3    3    0    0  0.34613977693E+01  0.19681743346E+02  0.37942456318E+01  0.20340811084E+02  0.00000000000E+00 0. -1.
</event>
<event>
 7    1  0.2702714E-011  0.5052884E+02  0.7816164E-02  0.1300439E+00
        -11   -1    0    0    0    0  0.00000000000E+00  0.00000000000E+00  0.45593999997E+02  0.45594000000E+02  0.51100000000E-03 0.  1.
         11   -1    0    0    0    0 -0.00000000000E+00 -0.00000000000E+00 -0.45593999997E+02  0.45594000000E+02  0.51100000000E-03 0. -1.
    9900012    2    1    2    0    0 -0.34491601940E+02  0.20905001318E+02 -0.51456238905E+01  0.50528841994E+02  0.29999945725E+02 0.  0.
        -12    1    1    2    0    0  0.34491601940E+02 -0.20905001318E+02  0.51456238905E+01  0.40659158006E+02  0.00000000000E+00 0.  1.
         11    1    3    3    0    0 -0.28293245615E+02  0.15523885774E+02  0.13888166551E+01  0.32302129790E+02  0.51100000000E-03 0.  1.
        -11    1    3    3    0    0  0.23143200702E+01 -0.36702610609E+01 -0.36618509880E+00  0.43544213658E+01  0.51100000000E-03 0. -1.
         12    1    3    3    0    0 -0.85126763951E+01  0.90513766053E+01 -0.61682554467E+01  0.13872290839E+02  0.00000000000E+00 0. -1.
</event>
<event>
 7    1  0.2702714E-011  0.5052888E+02  0.7816164E-02  0.1300439E+00
        -11   -1    0    0    0    0  0.00000000000E+00  0.00000000000E+00  0.45593999997E+02  0.45594000000E+02  0.51100000000E-03 0. -1.
         11   -1    0    0    0    0 -0.00000000000E+00 -0.00000000000E+00 -0.45593999997E+02  0.45594000000E+02  0.51100000000E-03 0.  1.
    9900012    2    1    2    0    0  0.17298707275E+02 -0.34187824643E+02  0.13605570315E+02  0.50528878381E+02  0.30000056327E+02 0.  0.
        -12    1    1    2    0    0 -0.17298707275E+02  0.34187824643E+02 -0.13605570315E+02  0.40659121619E+02  0.00000000000E+00 0.  1.
         11    1    3    3    0    0  0.67585823817E+01 -0.93871755892E+01 -0.14574078687E+01  0.11658539330E+02  0.51100000000E-03 0. -1.
        -11    1    3    3    0    0 -0.65999276108E+01 -0.11880392324E+02  0.19823245982E+01  0.13734350269E+02  0.51100000000E-03 0.  1.
        -12    1    3    3    0    0  0.17140052504E+02 -0.12920256730E+02  0.13080653586E+02  0.25135988782E+02  0.00000000000E+00 0.  1.
</event>
<event>
 7    1  0.2702714E-011  0.5052886E+02  0.7816164E-02  0.1300439E+00
        -11   -1    0    0    0    0  0.00000000000E+00  0.00000000000E+00  0.45593999997E+02  0.45594000000E+02  0.51100000000E-03 0.  1.
         11   -1    0    0    0    0 -0.00000000000E+00 -0.00000000000E+00 -0.45593999997E+02  0.45594000000E+02  0.51100000000E-03 0. -1.
    9900012    2    1    2    0    0 -0.37053714891E+02  0.49781692625E+01 -0.15981421533E+02  0.50528858461E+02  0.29999995779E+02 0.  0.
        -12    1    1    2    0    0  0.37053714891E+02 -0.49781692625E+01  0.15981421533E+02  0.40659141539E+02  0.00000000000E+00 0.  1.
         11    1    3    3    0    0  0.10389089816E+01  0.15407016592E+01 -0.42533032025E+01  0.46415171946E+01  0.51100000000E-03 0. -1.
        -11    1    3    3    0    0 -0.15878831590E+02 -0.80622495491E+01 -0.10859733510E+02  0.20858354984E+02  0.51100000000E-03 0.  1.
        -12    1    3    3    0    0 -0.22213792283E+02  0.11499717152E+02 -0.86838482030E+00  0.25028986283E+02  0.00000000000E+00 0.  1.
</event>
<event>
 7    1  0.2702714E-011  0.5052886E+02  0.7816164E-02  0.1300439E+00
        -11   -1    0    0    0    0  0.00000000000E+00  0.00000000000E+00  0.45593999997E+02  0.45594000000E+02  0.51100000000E-03 0. -1.
         11   -1    0    0    0    0 -0.00000000000E+00 -0.00000000000E+00 -0.45593999997E+02  0.45594000000E+02  0.51100000000E-03 0.  1.
    9900012    2    1    2    0    0 -0.40469700810E+02  0.35432980310E-01  0.39201889778E+01  0.50528858091E+02  0.29999994653E+02 0.  0.
        -12    1    1    2    0    0  0.40469700810E+02 -0.35432980310E-01 -0.39201889778E+01  0.40659141909E+02  0.00000000000E+00 0.  1.
         11    1    3    3    0    0 -0.29977796295E+02 -0.91690801453E+00  0.17960833075E+01  0.30045547200E+02  0.51100000000E-03 0. -1.
        -11    1    3    3    0    0 -0.78343135148E+01 -0.65939634937E+01 -0.33673462162E+01  0.10779417591E+02  0.51100000000E-03 0.  1.
         12    1    3    3    0    0 -0.26575910004E+01  0.75463044886E+01  0.54914518864E+01  0.97038933002E+01  0.00000000000E+00 0. -1.
</event>
<event>
 7    1  0.2702714E-011  0.5052886E+02  0.7816164E-02  0.1300439E+00
        -11   -1    0    0    0    0  0.00000000000E+00  0.00000000000E+00  0.45593999997E+02  0.45594000000E+02  0.51100000000E-03 0.  1.
         11   -1    0    0    0    0 -0.00000000000E+00 -0.00000000000E+00 -0.45593999997E+02  0.45594000000E+02  0.51100000000E-03 0. -1.
    9900012    2    1    2    0    0  0.15416185520E+02  0.14638979041E+02 -0.34658434905E+02  0.50528860887E+02  0.30000003153E+02 0.  0.
        -12    1    1    2    0    0 -0.15416185520E+02 -0.14638979041E+02  0.34658434905E+02  0.40659139113E+02  0.00000000000E+00 0.  1.
         11    1    3    3    0    0  0.12764911944E+01  0.34804151191E+01 -0.13143781317E+02  0.13656562771E+02  0.51100000000E-03 0.  1.
        -11    1    3    3    0    0  0.13668688952E+02 -0.28676709155E+01 -0.17269442959E+02  0.22210138552E+02  0.51100000000E-03 0. -1.
        -12    1    3    3    0    0  0.47100537348E+00  0.14026234838E+02 -0.42452106289E+01  0.14662159563E+02  0.00000000000E+00 0.  1.
</event>
<event>
 7    1  0.2702714E-011  0.5052886E+02  0.7816164E-02  0.1300439E+00
        -11   -1    0    0    0    0  0.00000000000E+00  0.00000000000E+00  0.45593999997E+02  0.45594000000E+02  0.51100000000E-03 0.  1.
         11   -1    0    0    0    0 -0.00000000000E+00 -0.00000000000E+00 -0.45593999997E+02  0.45594000000E+02  0.51100000000E-03 0. -1.
    9900012    2    1    2    0    0 -0.83026041395E+01 -0.38293695331E+02  0.10854734063E+02  0.50528860939E+02  0.30000003311E+02 0.  0.
        -12    1    1    2    0    0  0.83026041395E+01  0.38293695331E+02 -0.10854734063E+02  0.40659139061E+02  0.00000000000E+00 0.  1.
         11    1    3    3    0    0  0.30995719800E+01 -0.75633247788E+01  0.88097045717E+00  0.82211518278E+01  0.51100000000E-03 0. -1.
        -11    1    3    3    0    0 -0.15795385825E+01 -0.24804875900E+01  0.11976134995E+02  0.12331892413E+02  0.51100000000E-03 0.  1.
         12    1    3    3    0    0 -0.98226375370E+01 -0.28249882962E+02 -0.20023713892E+01  0.29975816698E+02  0.00000000000E+00 0. -1.
</event>
<event>
 7    1  0.2702714E-011  0.5052895E+02  0.7816164E-02  0.1300438E+00
        -11   -1    0    0    0    0  0.00000000000E+00  0.00000000000E+00  0.45593999997E+02  0.45594000000E+02  0.51100000000E-03 0. -1.
         11   -1    0    0    0    0 -0.00000000000E+00 -0.00000000000E+00 -0.45593999997E+02  0.45594000000E+02  0.51100000000E-03 0.  1.
    9900012    2    1    2    0    0  0.30473002122E+02  0.11235120845E+02  0.24460711296E+02  0.50528951857E+02  0.30000279665E+02 0.  0.
        -12    1    1    2    0    0 -0.30473002122E+02 -0.11235120845E+02 -0.24460711296E+02  0.40659048143E+02  0.00000000000E+00 0.  1.
         11    1    3    3    0    0  0.10144612681E+02 -0.86490652258E+01  0.80420981789E+01  0.15569034623E+02  0.51100000000E-03 0. -1.
        -11    1    3    3    0    0 -0.17632137163E+00 -0.34392807324E+00  0.32782780312E+01  0.33009821049E+01  0.51100000000E-03 0.  1.
         12    1    3    3    0    0  0.20504710813E+02  0.20228114144E+02  0.13140335086E+02  0.31658935129E+02  0.00000000000E+00 0. -1.
</event>
<event>
 7    1  0.2702714E-011  0.5052886E+02  0.7816164E-02  0.1300439E+00
        -11   -1    0    0    0    0  0.00000000000E+00  0.00000000000E+00  0.45593999997E+02  0.45594000000E+02  0.51100000000E-03 0.  1.
         11   -1    0    0    0    0 -0.00000000000E+00 -0.00000000000E+00 -0.45593999997E+02  0.45594000000E+02  0.51100000000E-03 0. -1.
    9900012    2    1    2    0    0 -0.29996810187E+01  0.27378281803E+02 -0.29909818393E+02  0.50528860350E+02  0.30000001521E+02 0.  0.
        -12    1    1    2    0    0  0.29996810187E+01 -0.27378281803E+02  0.29909818393E+02  0.40659139650E+02  0.00000000000E+00 0.  1.
         11    1    3    3    0    0  0.60823545126E+01  0.12954442063E+02 -0.21589620267E+02  0.25902206646E+02  0.51100000000E-03 0. -1.
        -11    1    3    3    0    0  0.37688551303E+01  0.20506014519E-01 -0.50869571707E+00  0.38030857319E+01  0.51100000000E-03 0.  1.
         12    1    3    3    0    0 -0.12850890662E+02  0.14403333726E+02 -0.78115024089E+01  0.20823567973E+02  0.00000000000E+00 0. -1.
</event>
<event>
 7    1  0.2702714E-011  0.5052886E+02  0.7816164E-02  0.1300439E+00
        -11   -1    0    0    0    0  0.00000000000E+00  0.00000000000E+00  0.45593999997E+02  0.45594000000E+02  0.51100000000E-03 0. -1.
         11   -1    0    0    0    0 -0.00000000000E+00 -0.00000000000E+00 -0.45593999997E+02  0.45594000000E+02  0.51100000000E-03 0.  1.
    9900012    2    1    2    0    0 -0.11283851414E+01  0.23406825416E+02  0.33226692586E+02  0.50528857986E+02  0.29999994335E+02 0.  0.
        -12    1    1    2    0    0  0.11283851414E+01 -0.23406825416E+02 -0.33226692586E+02  0.40659142014E+02  0.00000000000E+00 0.  1.
         11    1    3    3    0    0  0.65586341436E+01 -0.36473985549E+01  0.72408049656E+00  0.75394622404E+01  0.51100000000E-03 0. -1.
        -11    1    3    3    0    0 -0.17907684219E+01  0.61613179289E+01  0.79344648030E+01  0.10204137501E+02  0.51100000000E-03 0.  1.
         12    1    3    3    0    0 -0.58962508631E+01  0.20892906042E+02  0.24568147286E+02  0.32785258245E+02  0.00000000000E+00 0. -1.
</event>
<event>
 7    1  0.2702714E-011  0.5052886E+02  0.7816164E-02  0.1300439E+00
        -11   -1    0    0    0    0  0.00000000000E+00  0.00000000000E+00  0.45593999997E+02  0.45594000000E+02  0.51100000000E-03 0.  1.
         11   -1    0    0    0    0 -0.00000000000E+00 -0.00000000000E+00 -0.45593999997E+02  0.45594000000E+02  0.51100000000E-03 0. -1.
    9900012    2    1    2    0    0  0.37726524697E+01  0.22307456511E+02 -0.33783280446E+02  0.50528861294E+02  0.30000004388E+02 0.  0.
        -12    1    1    2    0    0 -0.37726524697E+01 -0.22307456511E+02  0.33783280446E+02  0.40659138706E+02  0.00000000000E+00 0.  1.
         11    1    3    3    0    0  0.38625915754E+01  0.29468134829E+01 -0.22696832075E+02  0.23210978219E+02  0.51100000000E-03 0. -1.
        -11    1    3    3    0    0  0.25694973487E+01  0.52244859865E+01  0.35316288531E+01  0.68095501368E+01  0.51100000000E-03 0.  1.
         12    1    3    3    0    0 -0.26594364544E+01  0.14136157041E+02 -0.14618077224E+02  0.20508332938E+02  0.00000000000E+00 0. -1.
</event>
<event>
 7    1  0.2702714E-011  0.5052885E+02  0.7816164E-02  0.1300439E+00
        -11   -1    0    0    0    0  0.00000000000E+00  0.00000000000E+00  0.45593999997E+02  0.45594000000E+02  0.51100000000E-03 0.  1.
         11   -1    0    0    0    0 -0.00000000000E+00 -0.00000000000E+00 -0.45593999997E+02  0.45594000000E+02  0.51100000000E-03 0. -1.
    9900012    2    1    2    0    0 -0.27786281248E+01  0.11783805416E+02 -0.38814782912E+02  0.50528853221E+02  0.29999979850E+02 0.  0.
        -12    1    1    2    0    0  0.27786281248E+01 -0.11783805416E+02  0.38814782912E+02  0.40659146779E+02  0.00000000000E+00 0.  1.
         11    1    3    3    0    0 -0.57416504467E+01  0.73900901770E+01 -0.18817942533E+02  0.21016539775E+02  0.51100000000E-03 0. -1.
        -11    1    3    3    0    0  0.97628019664E+01  0.82059460469E+01 -0.16786429549E+02  0.21081605015E+02  0.51100000000E-03 0.  1.
        -12    1    3    3    0    0 -0.67997796445E+01 -0.38122308082E+01 -0.32104108300E+01  0.84307084308E+01  0.00000000000E+00 0.  1.
</event>
<event>
 7    1  0.2702714E-011  0.5052886E+02  0.7816164E-02  0.1300439E+00
        -11   -1    0    0    0    0  0.00000000000E+00  0.00000000000E+00  0.45593999997E+02  0.45594000000E+02  0.51100000000E-03 0. -1.
         11   -1    0    0    0    0 -0.00000000000E+00 -0.00000000000E+00 -0.45593999997E+02  0.45594000000E+02  0.51100000000E-03 0.  1.
    9900012    2    1    2    0    0 -0.39024022104E+02  0.50399270126E+01 -0.10241620462E+02  0.50528856439E+02  0.29999989631E+02 0.  0.
        -12    1    1    2    0    0  0.39024022104E+02 -0.50399270126E+01  0.10241620462E+02  0.40659143561E+02  0.00000000000E+00 0.  1.
         11    1    3    3    0    0 -0.16984280854E+02  0.55691253751E+01 -0.10933557685E+02  0.20952890910E+02  0.51100000000E-03 0. -1.
        -11    1    3    3    0    0 -0.13172801409E+01  0.72108830811E+01 -0.96376330304E+00  0.73933011399E+01  0.51100000000E-03 0.  1.
         12    1    3    3    0    0 -0.20722461109E+02 -0.77400814437E+01  0.16557005257E+01  0.22182664389E+02  0.00000000000E+00 0. -1.
</event>
<event>
 7    1  0.2702714E-011  0.5052887E+02  0.7816164E-02  0.1300439E+00
        -11   -1    0    0    0    0  0.00000000000E+00  0.00000000000E+00  0.45593999997E+02  0.45594000000E+02  0.51100000000E-03 0.  1.
         11   -1    0    0    0    0 -0.00000000000E+00 -0.00000000000E+00 -0.45593999997E+02  0.45594000000E+02  0.51100000000E-03 0. -1.
    9900012    2    1    2    0    0 -0.24101472986E+02 -0.23482650156E+02 -0.22822118783E+02  0.50528868625E+02  0.30000026672E+02 0.  0.
        -12    1    1    2    0    0  0.24101472986E+02  0.23482650156E+02  0.22822118783E+02  0.40659131375E+02  0.00000000000E+00 0.  1.
         11    1    3    3    0    0 -0.13471715753E+02 -0.23763029645E+02 -0.16520719909E+02  0.31923390951E+02  0.51100000000E-03 0. -1.
        -11    1    3    3    0    0 -0.35624954650E+00  0.11915959353E+01  0.39031926045E+01  0.40965506687E+01  0.51100000000E-03 0.  1.
        -12    1    3    3    0    0 -0.10273507686E+02 -0.91121644645E+00 -0.10204591478E+02  0.14508927005E+02  0.00000000000E+00 0.  1.
</event>
<event>
 7    1  0.2702714E-011  0.5052886E+02  0.7816164E-02  0.1300439E+00
        -11   -1    0    0    0    0  0.00000000000E+00  0.00000000000E+00  0.45593999997E+02  0.45594000000E+02  0.51100000000E-03 0.  1.
         11   -1    0    0    0    0 -0.00000000000E+00 -0.00000000000E+00 -0.45593999997E+02  0.45594000000E+02  0.51100000000E-03 0. -1.
    9900012    2    1    2    0    0  0.51320482203E+01 -0.33139322861E+02 -0.22991577465E+02  0.50528864828E+02  0.30000015131E+02 0.  0.
        -12    1    1    2    0    0 -0.51320482203E+01  0.33139322861E+02  0.22991577465E+02  0.40659135172E+02  0.00000000000E+00 0.  1.
         11    1    3    3    0    0  0.12057876967E+01  0.28820131168E+00  0.12972771265E+01  0.17944113714E+01  0.51100000000E-03 0.  1.
        -11    1    3    3    0    0  0.94483500588E+01 -0.34743384421E+02 -0.17970996999E+02  0.40240909698E+02  0.51100000000E-03 0. -1.
         12    1    3    3    0    0 -0.55220895353E+01  0.13158602490E+01 -0.63178575921E+01  0.84935437589E+01  0.00000000000E+00 0. -1.
</event>
<event>
 7    1  0.2702714E-011  0.5052894E+02  0.7816164E-02  0.1300439E+00
        -11   -1    0    0    0    0  0.00000000000E+00  0.00000000000E+00  0.45593999997E+02  0.45594000000E+02  0.51100000000E-03 0.  1.
         11   -1    0    0    0    0 -0.00000000000E+00 -0.00000000000E+00 -0.45593999997E+02  0.45594000000E+02  0.51100000000E-03 0. -1.
    9900012    2    1    2    0    0  0.29003759421E+02 -0.11217025726E+02 -0.26193881899E+02  0.50528939809E+02  0.30000243042E+02 0.  0.
        -12    1    1    2    0    0 -0.29003759421E+02  0.11217025726E+02  0.26193881899E+02  0.40659060191E+02  0.00000000000E+00 0.  1.
         11    1    3    3    0    0  0.63612527466E+01 -0.10921484427E+02 -0.28323087204E+01  0.12952464304E+02  0.51100000000E-03 0. -1.
        -11    1    3    3    0    0 -0.23919706112E+01  0.31559385803E+01 -0.47903878947E+01  0.62152464288E+01  0.51100000000E-03 0.  1.
         12    1    3    3    0    0  0.25034477285E+02 -0.34514798789E+01 -0.18571185284E+02  0.31361229076E+02  0.00000000000E+00 0. -1.
</event>
<event>
 7    1  0.2702714E-011  0.5052886E+02  0.7816164E-02  0.1300439E+00
        -11   -1    0    0    0    0  0.00000000000E+00  0.00000000000E+00  0.45593999997E+02  0.45594000000E+02  0.51100000000E-03 0.  1.
         11   -1    0    0    0    0 -0.00000000000E+00 -0.00000000000E+00 -0.45593999997E+02  0.45594000000E+02  0.51100000000E-03 0. -1.
    9900012    2    1    2    0    0  0.15568190320E+02  0.35478196908E+02 -0.12332651642E+02  0.50528864468E+02  0.30000014036E+02 0.  0.
        -12    1    1    2    0    0 -0.15568190320E+02 -0.35478196908E+02  0.12332651642E+02  0.40659135532E+02  0.00000000000E+00 0.  1.
         11    1    3    3    0    0  0.12801107190E+02  0.20203539666E+02 -0.87667253543E+00  0.23933656539E+02  0.51100000000E-03 0. -1.
        -11    1    3    3    0    0 -0.54937093810E+01  0.13856837057E+02 -0.41414360835E+01  0.15470755285E+02  0.51100000000E-03 0.  1.
         12    1    3    3    0    0  0.82607925114E+01  0.14178201850E+01 -0.73145430230E+01  0.11124452644E+02  0.00000000000E+00 0. -1.
</event>
<event>
 7    1  0.2702714E-011  0.5052884E+02  0.7816164E-02  0.1300439E+00
        -11   -1    0    0    0    0  0.00000000000E+00  0.00000000000E+00  0.45593999997E+02  0.45594000000E+02  0.51100000000E-03 0. -1.
         11   -1    0    0    0    0 -0.00000000000E+00 -0.00000000000E+00 -0.45593999997E+02  0.45594000000E+02  0.51100000000E-03 0.  1.
    9900012    2    1    2    0    0 -0.12907539631E+02 -0.34040004199E+02  0.18106373473E+02  0.50528840816E+02  0.29999942144E+02 0.  0.
        -12    1    1    2    0    0  0.12907539631E+02  0.34040004199E+02 -0.18106373473E+02  0.40659159184E+02  0.00000000000E+00 0.  1.
         11    1    3    3    0    0 -0.68611998228E+01 -0.13726710681E+02  0.44350711726E+01  0.15973994669E+02  0.51100000000E-03 0. -1.
        -11    1    3    3    0    0  0.30339266188E+01 -0.22103465371E+02  0.80068902129E+01  0.23703969779E+02  0.51100000000E-03 0.  1.
         12    1    3    3    0    0 -0.90802664272E+01  0.17901718528E+01  0.56644120872E+01  0.10850876368E+02  0.00000000000E+00 0. -1.
</event>
<event>
 7    1  0.2702714E-011  0.5052877E+02  0.7816164E-02  0.1300439E+00
        -11   -1    0    0    0    0  0.00000000000E+00  0.00000000000E+00  0.45593999997E+02  0.45594000000E+02  0.51100000000E-03 0.  1.
         11   -1    0    0    0    0 -0.00000000000E+00 -0.00000000000E+00 -0.45593999997E+02  0.45594000000E+02  0.51100000000E-03 0. -1.
    9900012    2    1    2    0    0 -0.39283394682E+02 -0.55540629492E+01 -0.88960857892E+01  0.50528769125E+02  0.29999724231E+02 0.  0.
        -12    1    1    2    0    0  0.39283394682E+02  0.55540629492E+01  0.88960857892E+01  0.40659230875E+02  0.00000000000E+00 0.  1.
         11    1    3    3    0    0 -0.18230656701E+02  0.55921481953E+01 -0.10570936349E+02  0.21803065398E+02  0.51100000000E-03 0. -1.
        -11    1    3    3    0    0  0.37438602437E+00  0.24182267980E+01  0.23000054782E+01  0.33582750338E+01  0.51100000000E-03 0.  1.
         12    1    3    3    0    0 -0.21427124005E+02 -0.13564437943E+02 -0.62515491855E+00  0.25367428693E+02  0.00000000000E+00 0. -1.
</event>
<event>
 7    1  0.2702714E-011  0.5052887E+02  0.7816164E-02  0.1300439E+00
        -11   -1    0    0    0    0  0.00000000000E+00  0.00000000000E+00  0.45593999997E+02  0.45594000000E+02  0.51100000000E-03 0. -1.
         11   -1    0    0    0    0 -0.00000000000E+00 -0.00000000000E+00 -0.45593999997E+02  0.45594000000E+02  0.51100000000E-03 0.  1.
    9900012    2    1    2    0    0  0.82601376937E+01  0.17441672793E+02  0.35787194638E+02  0.50528866652E+02  0.30000020676E+02 0.  0.
        -12    1    1    2    0    0 -0.82601376937E+01 -0.17441672793E+02 -0.35787194638E+02  0.40659133348E+02  0.00000000000E+00 0.  1.
         11    1    3    3    0    0  0.35417799519E+01  0.15434412490E+02  0.18340838790E+02  0.24231212556E+02  0.51100000000E-03 0. -1.
        -11    1    3    3    0    0  0.31548475502E+01  0.28473878276E+01  0.21477043874E+02  0.21893471500E+02  0.51100000000E-03 0.  1.
         12    1    3    3    0    0  0.15635101915E+01 -0.84012752470E+00 -0.40306880263E+01  0.44041825963E+01  0.00000000000E+00 0. -1.
</event>
<event>
 7    1  0.2702714E-011  0.5052886E+02  0.7816164E-02  0.1300439E+00
        -11   -1    0    0    0    0  0.00000000000E+00  0.00000000000E+00  0.45593999997E+02  0.45594000000E+02  0.51100000000E-03 0. -1.
         11   -1    0    0    0    0 -0.00000000000E+00 -0.00000000000E+00 -0.45593999997E+02  0.45594000000E+02  0.51100000000E-03 0.  1.
    9900012    2    1    2    0    0  0.25554875827E+02 -0.30838949834E+02  0.70052420648E+01  0.50528856849E+02  0.29999990879E+02 0.  0.
        -12    1    1    2    0    0 -0.25554875827E+02  0.30838949834E+02 -0.70052420648E+01  0.40659143151E+02  0.00000000000E+00 0.  1.
         11    1    3    3    0    0  0.18499214642E+02 -0.14108531445E+02 -0.59934608229E+00  0.23272963239E+02  0.51100000000E-03 0. -1.
        -11    1    3    3    0    0  0.75902300124E+01 -0.68890433326E+01 -0.48775836374E+01  0.11351710535E+02  0.51100000000E-03 0.  1.
        -12    1    3    3    0    0 -0.53456882828E+00 -0.98413750562E+01  0.12482171784E+02  0.15904183075E+02  0.00000000000E+00 0.  1.
</event>
<event>
 7    1  0.2702714E-011  0.5052886E+02  0.7816164E-02  0.1300439E+00
        -11   -1    0    0    0    0  0.00000000000E+00  0.00000000000E+00  0.45593999997E+02  0.45594000000E+02  0.51100000000E-03 0.  1.
         11   -1    0    0    0    0 -0.00000000000E+00 -0.00000000000E+00 -0.45593999997E+02  0.45594000000E+02  0.51100000000E-03 0. -1.
    9900012    2    1    2    0    0 -0.13393230437E+02  0.10114817583E+02 -0.37033466402E+02  0.50528858469E+02  0.29999995803E+02 0.  0.
        -12    1    1    2    0    0  0.13393230437E+02 -0.10114817583E+02  0.37033466402E+02  0.40659141531E+02  0.00000000000E+00 0.  1.
         11    1    3    3    0    0 -0.52987056563E+00 -0.74108736893E+01 -0.15685048445E+02  0.17355764363E+02  0.51100000000E-03 0. -1.
        -11    1    3    3    0    0 -0.78563295749E+01  0.34105130473E+01 -0.14187604353E+02  0.16572315203E+02  0.51100000000E-03 0.  1.
        -12    1    3    3    0    0 -0.50070302964E+01  0.14115178225E+02 -0.71608136035E+01  0.16600778903E+02  0.00000000000E+00 0.  1.
</event>
<event>
 7    1  0.2702714E-011  0.5052885E+02  0.7816164E-02  0.1300439E+00
        -11   -1    0    0    0    0  0.00000000000E+00  0.00000000000E+00  0.45593999997E+02  0.45594000000E+02  0.51100000000E-03 0.  1.
         11   -1    0    0    0    0 -0.00000000000E+00 -0.00000000000E+00 -0.45593999997E+02  0.45594000000E+02  0.51100000000E-03 0. -1.
    9900012    2    1    2    0    0 -0.17687148564E+02  0.10011623955E+02 -0.35215029839E+02  0.50528853857E+02  0.29999981783E+02 0.  0.
        -12    1    1    2    0    0  0.17687148564E+02 -0.10011623955E+02  0.35215029839E+02  0.40659146143E+02  0.00000000000E+00 0.  1.
         11    1    3    3    0    0 -0.68741114182E+01  0.37945797519E+00 -0.29006886196E+02  0.29812696007E+02  0.51100000000E-03 0. -1.
        -11    1    3    3    0    0  0.29009015065E+01  0.34165865948E+00 -0.22451289984E+01  0.36840961809E+01  0.51100000000E-03 0.  1.
         12    1    3    3    0    0 -0.13713938652E+02  0.92905073199E+01 -0.39630146446E+01  0.17032061669E+02  0.00000000000E+00 0. -1.
</event>
<event>
 7    1  0.2702714E-011  0.5052886E+02  0.7816164E-02  0.1300439E+00
        -11   -1    0    0    0    0  0.00000000000E+00  0.00000000000E+00  0.45593999997E+02  0.45594000000E+02  0.51100000000E-03 0.  1.
         11   -1    0    0    0    0 -0.00000000000E+00 -0.00000000000E+00 -0.45593999997E+02  0.45594000000E+02  0.51100000000E-03 0. -1.
    9900012    2    1    2    0    0 -0.64696826745E+01  0.38169684878E+02 -0.12425135666E+02  0.50528860388E+02  0.30000001637E+02 0.  0.
        -12    1    1    2    0    0  0.64696826745E+01 -0.38169684878E+02  0.12425135666E+02  0.40659139612E+02  0.00000000000E+00 0.  1.
         11    1    3    3    0    0 -0.42584303056E+01  0.19085473589E+02  0.15277067255E+01  0.19614367664E+02  0.51100000000E-03 0. -1.
        -11    1    3    3    0    0 -0.82961220349E+01  0.42143931879E+01  0.47945025489E+00  0.93175438592E+01  0.51100000000E-03 0.  1.
        -12    1    3    3    0    0  0.60848696659E+01  0.14869818102E+02 -0.14432292647E+02  0.21596948865E+02  0.00000000000E+00 0.  1.
</event>
<event>
 7    1  0.2702714E-011  0.5052886E+02  0.7816164E-02  0.1300439E+00
        -11   -1    0    0    0    0  0.00000000000E+00  0.00000000000E+00  0.45593999997E+02  0.45594000000E+02  0.51100000000E-03 0.  1.
         11   -1    0    0    0    0 -0.00000000000E+00 -0.00000000000E+00 -0.45593999997E+02  0.45594000000E+02  0.51100000000E-03 0. -1.
    9900012    2    1    2    0    0  0.23634501213E+02 -0.24906570610E+02 -0.21777021608E+02  0.50528861086E+02  0.30000003756E+02 0.  0.
        -12    1    1    2    0    0 -0.23634501213E+02  0.24906570610E+02  0.21777021608E+02  0.40659138914E+02  0.00000000000E+00 0.  1.
         11    1    3    3    0    0  0.16806010959E+02 -0.80614111137E+01 -0.99865751905E+01  0.21146158937E+02  0.51100000000E-03 0. -1.
        -11    1    3    3    0    0  0.58991741535E+01 -0.51139574726E+00 -0.11597180286E+02  0.13021381346E+02  0.51100000000E-03 0.  1.
        -12    1    3    3    0    0  0.92931610043E+00 -0.16333763749E+02 -0.19326613172E+00  0.16361320803E+02  0.00000000000E+00 0.  1.
</event>
<event>
 7    1  0.2702714E-011  0.5052886E+02  0.7816164E-02  0.1300439E+00
        -11   -1    0    0    0    0  0.00000000000E+00  0.00000000000E+00  0.45593999997E+02  0.45594000000E+02  0.51100000000E-03 0. -1.
         11   -1    0    0    0    0 -0.00000000000E+00 -0.00000000000E+00 -0.45593999997E+02  0.45594000000E+02  0.51100000000E-03 0.  1.
    9900012    2    1    2    0    0 -0.27780797812E+02 -0.13547866668E+02  0.26416817224E+02  0.50528860184E+02  0.30000001015E+02 0.  0.
        -12    1    1    2    0    0  0.27780797812E+02  0.13547866668E+02 -0.26416817224E+02  0.40659139816E+02  0.00000000000E+00 0.  1.
         11    1    3    3    0    0 -0.83905516465E+01 -0.53144675935E+01  0.22700457080E+02  0.24778128958E+02  0.51100000000E-03 0. -1.
        -11    1    3    3    0    0 -0.78811133415E+00  0.29371567058E+01 -0.15631479396E+01  0.34192748840E+01  0.51100000000E-03 0.  1.
        -12    1    3    3    0    0 -0.18602134832E+02 -0.11170555781E+02  0.52795080831E+01  0.22331456342E+02  0.00000000000E+00 0.  1.
</event>
<event>
 7    1  0.2702714E-011  0.5052886E+02  0.7816164E-02  0.1300439E+00
        -11   -1    0    0    0    0  0.00000000000E+00  0.00000000000E+00  0.45593999997E+02  0.45594000000E+02  0.51100000000E-03 0. -1.
         11   -1    0    0    0    0 -0.00000000000E+00 -0.00000000000E+00 -0.45593999997E+02  0.45594000000E+02  0.51100000000E-03 0.  1.
    9900012    2    1    2    0    0  0.11353538418E+02  0.38069543665E+02  0.86586749043E+01  0.50528860307E+02  0.30000001390E+02 0.  0.
        -12    1    1    2    0    0 -0.11353538418E+02 -0.38069543665E+02 -0.86586749043E+01  0.40659139693E+02  0.00000000000E+00 0.  1.
         11    1    3    3    0    0 -0.10663421805E+01 -0.15382929845E+01 -0.20488710104E+01  0.27751222731E+01  0.51100000000E-03 0. -1.
        -11    1    3    3    0    0  0.11205360637E+02  0.15411408732E+02 -0.39199290630E+01  0.19453469362E+02  0.51100000000E-03 0.  1.
         12    1    3    3    0    0  0.12145199622E+01  0.24196427917E+02  0.14627474978E+02  0.28300268672E+02  0.00000000000E+00 0. -1.
</event>
<event>
 7    1  0.2702714E-011  0.5052887E+02  0.7816164E-02  0.1300439E+00
        -11   -1    0    0    0    0  0.00000000000E+00  0.00000000000E+00  0.45593999997E+02  0.45594000000E+02  0.51100000000E-03 0.  1.
         11   -1    0    0    0    0 -0.00000000000E+00 -0.00000000000E+00 -0.45593999997E+02  0.45594000000E+02  0.51100000000E-03 0. -1.
    9900012    2    1    2    0    0  0.20180288859E+02  0.34817572986E+02 -0.58015328192E+01  0.50528865354E+02  0.30000016730E+02 0.  0.
        -12    1    1    2    0    0 -0.20180288859E+02 -0.34817572986E+02  0.58015328192E+01  0.40659134646E+02  0.00000000000E+00 0.  1.
         11    1    3    3    0    0  0.61420453727E+00  0.15425857545E+02 -0.99806163545E+01  0.18383335695E+02  0.51100000000E-03 0. -1.
        -11    1    3    3    0    0  0.12562009330E+02  0.46629395626E+01 -0.38851766592E+01  0.13951404292E+02  0.51100000000E-03 0.  1.
         12    1    3    3    0    0  0.70040749917E+01  0.14728775879E+02  0.80642601944E+01  0.18194125367E+02  0.00000000000E+00 0. -1.
</event>
<event>
 7    1  0.2702714E-011  0.5052886E+02  0.7816164E-02  0.1300439E+00
        -11   -1    0    0    0    0  0.00000000000E+00  0.00000000000E+00  0.45593999997E+02  0.45594000000E+02  0.51100000000E-03 0.  1.
         11   -1    0    0    0    0 -0.00000000000E+00 -0.00000000000E+00 -0.45593999997E+02  0.45594000000E+02  0.51100000000E-03 0. -1.
    9900012    2    1    2    0    0  0.88487616711E+01  0.32130131603E+02 -0.23292050381E+02  0.50528861409E+02  0.30000004740E+02 0.  0.
        -12    1    1    2    0    0 -0.88487616711E+01 -0.32130131603E+02  0.23292050381E+02  0.40659138591E+02  0.00000000000E+00 0.  1.
         11    1    3    3    0    0 -0.13708164867E+01  0.91873741412E+01 -0.11347242493E+00  0.92897716712E+01  0.51100000000E-03 0.  1.
        -11    1    3    3    0    0  0.14122002212E+02  0.16970794849E+02 -0.25506845705E+02  0.33734818843E+02  0.51100000000E-03 0. -1.
         12    1    3    3    0    0 -0.39024240545E+01  0.59719626135E+01  0.23282677486E+01  0.75042708951E+01  0.00000000000E+00 0. -1.
</event>
<event>
 7    1  0.2702714E-011  0.5052886E+02  0.7816164E-02  0.1300439E+00
        -11   -1    0    0    0    0  0.00000000000E+00  0.00000000000E+00  0.45593999997E+02  0.45594000000E+02  0.51100000000E-03 0. -1.
         11   -1    0    0    0    0 -0.00000000000E+00 -0.00000000000E+00 -0.45593999997E+02  0.45594000000E+02  0.51100000000E-03 0.  1.
    9900012    2    1    2    0    0  0.28518999124E+01  0.32026704494E+02 -0.24886194242E+02  0.50528858375E+02  0.29999995517E+02 0.  0.
        -12    1    1    2    0    0 -0.28518999124E+01 -0.32026704494E+02  0.24886194242E+02  0.40659141625E+02  0.00000000000E+00 0.  1.
         11    1    3    3    0    0  0.69132776549E+01  0.25897112758E+02 -0.19227850567E+02  0.32987332338E+02  0.51100000000E-03 0. -1.
        -11    1    3    3    0    0  0.36766701259E+01  0.54328433539E+01 -0.70703884272E+01  0.96448993202E+01  0.51100000000E-03 0.  1.
         12    1    3    3    0    0 -0.77380478684E+01  0.69674838213E+00  0.14120447522E+01  0.78966267167E+01  0.00000000000E+00 0. -1.
</event>
<event>
 7    1  0.2702714E-011  0.5052886E+02  0.7816164E-02  0.1300439E+00
        -11   -1    0    0    0    0  0.00000000000E+00  0.00000000000E+00  0.45593999997E+02  0.45594000000E+02  0.51100000000E-03 0. -1.
         11   -1    0    0    0    0 -0.00000000000E+00 -0.00000000000E+00 -0.45593999997E+02  0.45594000000E+02  0.51100000000E-03 0.  1.
    9900012    2    1    2    0    0  0.24715556021E+02  0.20385134804E+02  0.25035048140E+02  0.50528855078E+02  0.29999985494E+02 0.  0.
        -12    1    1    2    0    0 -0.24715556021E+02 -0.20385134804E+02 -0.25035048140E+02  0.40659144922E+02  0.00000000000E+00 0.  1.
         11    1    3    3    0    0  0.10924985603E+02  0.84983508214E+01  0.15253115291E+02  0.20596961024E+02  0.51100000000E-03 0. -1.
        -11    1    3    3    0    0 -0.15487764120E+01  0.12212051000E+02  0.75151179291E+01  0.14422548171E+02  0.51100000000E-03 0.  1.
         12    1    3    3    0    0  0.15339346830E+02 -0.32526701691E+00  0.22668149206E+01  0.15509345882E+02  0.00000000000E+00 0. -1.
</event>
<event>
 7    1  0.2702714E-011  0.5052885E+02  0.7816164E-02  0.1300439E+00
        -11   -1    0    0    0    0  0.00000000000E+00  0.00000000000E+00  0.45593999997E+02  0.45594000000E+02  0.51100000000E-03 0.  1.
         11   -1    0    0    0    0 -0.00000000000E+00 -0.00000000000E+00 -0.45593999997E+02  0.45594000000E+02  0.51100000000E-03 0. -1.
    9900012    2    1    2    0    0  0.35795914170E+02 -0.19258377374E+02 -0.96624827598E+00  0.50528853353E+02  0.29999980251E+02 0.  0.
        -12    1    1    2    0    0 -0.35795914170E+02  0.19258377374E+02  0.96624827598E+00  0.40659146647E+02  0.00000000000E+00 0.  1.
         11    1    3    3    0    0  0.35852504262E+01 -0.14484032251E+02  0.23683329765E+00  0.14923045974E+02  0.51100000000E-03 0. -1.
        -11    1    3    3    0    0 -0.79792305515E+00 -0.26282409092E-01  0.19516181808E+01  0.21085980536E+01  0.51100000000E-03 0.  1.
         12    1    3    3    0    0  0.33008586799E+02 -0.47480627131E+01 -0.31546997545E+01  0.33497209325E+02  0.00000000000E+00 0. -1.
</event>
<event>
 7    1  0.2702714E-011  0.5052885E+02  0.7816164E-02  0.1300439E+00
        -11   -1    0    0    0    0  0.00000000000E+00  0.00000000000E+00  0.45593999997E+02  0.45594000000E+02  0.51100000000E-03 0. -1.
         11   -1    0    0    0    0 -0.00000000000E+00 -0.00000000000E+00 -0.45593999997E+02  0.45594000000E+02  0.51100000000E-03 0.  1.
    9900012    2    1    2    0    0 -0.33272174158E+02 -0.18322661796E+02  0.14505477721E+02  0.50528851062E+02  0.29999973287E+02 0.  0.
        -12    1    1    2    0    0  0.33272174158E+02  0.18322661796E+02 -0.14505477721E+02  0.40659148938E+02  0.00000000000E+00 0.  1.
         11    1    3    3    0    0 -0.67278623953E+00 -0.58614839466E+01 -0.59421962547E+01  0.83737286778E+01  0.51100000000E-03 0.  1.
        -11    1    3    3    0    0 -0.64252631261E+01  0.20256490912E+01  0.20806469208E+01  0.70509823678E+01  0.51100000000E-03 0. -1.
         12    1    3    3    0    0 -0.26174124792E+02 -0.14486826940E+02  0.18367027055E+02  0.35104140016E+02  0.00000000000E+00 0. -1.
</event>
<event>
 7    1  0.2702714E-011  0.5052885E+02  0.7816164E-02  0.1300439E+00
        -11   -1    0    0    0    0  0.00000000000E+00  0.00000000000E+00  0.45593999997E+02  0.45594000000E+02  0.51100000000E-03 0.  1.
         11   -1    0    0    0    0 -0.00000000000E+00 -0.00000000000E+00 -0.45593999997E+02  0.45594000000E+02  0.51100000000E-03 0. -1.
    9900012    2    1    2    0    0  0.13221519296E+02 -0.31387084126E+02 -0.22208301958E+02  0.50528852219E+02  0.29999976805E+02 0.  0.
        -12    1    1    2    0    0 -0.13221519296E+02  0.31387084126E+02  0.22208301958E+02  0.40659147781E+02  0.00000000000E+00 0.  1.
         11    1    3    3    0    0 -0.29940533446E+01 -0.77616097956E+01 -0.15448925490E+02  0.17546402512E+02  0.51100000000E-03 0. -1.
        -11    1    3    3    0    0  0.25982601423E+01 -0.16891544272E+02 -0.36970021230E+01  0.17485509676E+02  0.51100000000E-03 0.  1.
        -12    1    3    3    0    0  0.13617312498E+02 -0.67339300579E+01 -0.30623743444E+01  0.15496940031E+02  0.00000000000E+00 0.  1.
</event>
<event>
 7    1  0.2702714E-011  0.5052885E+02  0.7816164E-02  0.1300439E+00
        -11   -1    0    0    0    0  0.00000000000E+00  0.00000000000E+00  0.45593999997E+02  0.45594000000E+02  0.51100000000E-03 0. -1.
         11   -1    0    0    0    0 -0.00000000000E+00 -0.00000000000E+00 -0.45593999997E+02  0.45594000000E+02  0.51100000000E-03 0.  1.
    9900012    2    1    2    0    0  0.30910643066E+02 -0.11296566113E+02  0.23876470905E+02  0.50528854368E+02  0.29999983336E+02 0.  0.
        -12    1    1    2    0    0 -0.30910643066E+02  0.11296566113E+02 -0.23876470905E+02  0.40659145632E+02  0.00000000000E+00 0.  1.
         11    1    3    3    0    0 -0.23729995088E+00  0.20002919853E+01  0.81796355436E+01  0.84240083797E+01  0.51100000000E-03 0. -1.
        -11    1    3    3    0    0  0.10449323141E+02  0.25846732365E-01 -0.33582087370E+01  0.10975727235E+02  0.51100000000E-03 0.  1.
         12    1    3    3    0    0  0.20698619875E+02 -0.13322704830E+02  0.19055044098E+02  0.31129118753E+02  0.00000000000E+00 0. -1.
</event>
<event>
 7    1  0.2702714E-011  0.5052886E+02  0.7816164E-02  0.1300439E+00
        -11   -1    0    0    0    0  0.00000000000E+00  0.00000000000E+00  0.45593999997E+02  0.45594000000E+02  0.51100000000E-03 0. -1.
         11   -1    0    0    0    0 -0.00000000000E+00 -0.00000000000E+00 -0.45593999997E+02  0.45594000000E+02  0.51100000000E-03 0.  1.
    9900012    2    1    2    0    0 -0.60645125634E+01  0.51751408906E+01  0.39869851463E+02  0.50528862632E+02  0.30000008456E+02 0.  0.
        -12    1    1    2    0    0  0.60645125634E+01 -0.51751408906E+01 -0.39869851463E+02  0.40659137368E+02  0.00000000000E+00 0.  1.
         11    1    3    3    0    0 -0.11654212110E+02 -0.37202137934E-01  0.85369101722E+01  0.14446483290E+02  0.51100000000E-03 0. -1.
        -11    1    3    3    0    0 -0.16844168367E+01  0.89084371513E+01  0.11553237064E+02  0.14685870743E+02  0.51100000000E-03 0.  1.
         12    1    3    3    0    0  0.72741163836E+01 -0.36960941228E+01  0.19779704226E+02  0.21396508599E+02  0.00000000000E+00 0. -1.
</event>
<event>
 7    1  0.2702714E-011  0.5052886E+02  0.7816164E-02  0.1300439E+00
        -11   -1    0    0    0    0  0.00000000000E+00  0.00000000000E+00  0.45593999997E+02  0.45594000000E+02  0.51100000000E-03 0.  1.
         11   -1    0    0    0    0 -0.00000000000E+00 -0.00000000000E+00 -0.45593999997E+02  0.45594000000E+02  0.51100000000E-03 0. -1.
    9900012    2    1    2    0    0  0.83679578679E+01 -0.35795984864E+02 -0.17372123752E+02  0.50528856687E+02  0.29999990387E+02 0.  0.
        -12    1    1    2    0    0 -0.83679578679E+01  0.35795984864E+02  0.17372123752E+02  0.40659143313E+02  0.00000000000E+00 0.  1.
         11    1    3    3    0    0  0.28741970968E+01 -0.30095885418E+02 -0.24679158522E+02  0.39026711285E+02  0.51100000000E-03 0. -1.
        -11    1    3    3    0    0  0.22810152661E+01 -0.39405240294E+01  0.18169940195E+01  0.49022676181E+01  0.51100000000E-03 0.  1.
        -12    1    3    3    0    0  0.32127455049E+01 -0.17595754165E+01  0.54900407509E+01  0.65998777847E+01  0.00000000000E+00 0.  1.
</event>
<event>
 7    1  0.2702714E-011  0.5052886E+02  0.7816164E-02  0.1300439E+00
        -11   -1    0    0    0    0  0.00000000000E+00  0.00000000000E+00  0.45593999997E+02  0.45594000000E+02  0.51100000000E-03 0.  1.
         11   -1    0    0    0    0 -0.00000000000E+00 -0.00000000000E+00 -0.45593999997E+02  0.45594000000E+02  0.51100000000E-03 0. -1.
    9900012    2    1    2    0    0 -0.58626914398E+01  0.64986721822E+00 -0.40228991816E+02  0.50528864976E+02  0.30000015582E+02 0.  0.
        -12    1    1    2    0    0  0.58626914398E+01 -0.64986721822E+00  0.40228991816E+02  0.40659135024E+02  0.00000000000E+00 0.  1.
         11    1    3    3    0    0 -0.98431116737E+01 -0.73521044523E+01 -0.18651063035E+02  0.22333885464E+02  0.51100000000E-03 0. -1.
        -11    1    3    3    0    0 -0.68238673136E+00 -0.24381300750E+01  0.11286757373E+01  0.27720099377E+01  0.51100000000E-03 0.  1.
         12    1    3    3    0    0  0.46628069653E+01  0.10440101746E+02 -0.22706604518E+02  0.25422969575E+02  0.00000000000E+00 0. -1.
</event>
<event>
 7    1  0.2702714E-011  0.5052899E+02  0.7816164E-02  0.1300438E+00
        -11   -1    0    0    0    0  0.00000000000E+00  0.00000000000E+00  0.45593999997E+02  0.45594000000E+02  0.51100000000E-03 0.  1.
         11   -1    0    0    0    0 -0.00000000000E+00 -0.00000000000E+00 -0.45593999997E+02  0.45594000000E+02  0.51100000000E-03 0. -1.
    9900012    2    1    2    0    0  0.18254959176E+02  0.13900732971E+02 -0.33566072983E+02  0.50528989103E+02  0.30000392874E+02 0.  0.
        -12    1    1    2    0    0 -0.18254959176E+02 -0.13900732971E+02  0.33566072983E+02  0.40659010897E+02  0.00000000000E+00 0.  1.
         11    1    3    3    0    0 -0.14708918674E+01  0.44438927022E+01 -0.10420161274E+02  0.11423286150E+02  0.51100000000E-03 0. -1.
        -11    1    3    3    0    0  0.41106887372E+01 -0.39665008534E+01  0.24835110219E+01  0.62288617075E+01  0.51100000000E-03 0.  1.
         12    1    3    3    0    0  0.15615162306E+02  0.13423341122E+02 -0.25629422731E+02  0.32876841245E+02  0.00000000000E+00 0. -1.
</event>
<event>
 7    1  0.2702714E-011  0.5052886E+02  0.7816164E-02  0.1300439E+00
        -11   -1    0    0    0    0  0.00000000000E+00  0.00000000000E+00  0.45593999997E+02  0.45594000000E+02  0.51100000000E-03 0.  1.
         11   -1    0    0    0    0 -0.00000000000E+00 -0.00000000000E+00 -0.45593999997E+02  0.45594000000E+02  0.51100000000E-03 0. -1.
    9900012    2    1    2    0    0  0.86493717639E+01  0.20249359455E+02 -0.34180658251E+02  0.50528860945E+02  0.30000003329E+02 0.  0.
        -12    1    1    2    0    0 -0.86493717639E+01 -0.20249359455E+02  0.34180658251E+02  0.40659139055E+02  0.00000000000E+00 0.  1.
         11    1    3    3    0    0  0.40975954450E+01  0.40579751216E+01 -0.13689205265E+02  0.14854352614E+02  0.51100000000E-03 0. -1.
        -11    1    3    3    0    0  0.42977324762E+01 -0.12328371612E+01 -0.17413957805E+02  0.17978774113E+02  0.51100000000E-03 0.  1.
        -12    1    3    3    0    0  0.25404384266E+00  0.17424221494E+02 -0.30774951801E+01  0.17695734219E+02  0.00000000000E+00 0.  1.
</event>
<event>
 7    1  0.2702714E-011  0.5052891E+02  0.7816164E-02  0.1300439E+00
        -11   -1    0    0    0    0  0.00000000000E+00  0.00000000000E+00  0.45593999997E+02  0.45594000000E+02  0.51100000000E-03 0.  1.
         11   -1    0    0    0    0 -0.00000000000E+00 -0.00000000000E+00 -0.45593999997E+02  0.45594000000E+02  0.51100000000E-03 0. -1.
    9900012    2    1    2    0    0 -0.36416016178E+01 -0.40453182742E+02  0.18547307933E+01  0.50528913898E+02  0.30000164284E+02 0.  0.
        -12    1    1    2    0    0  0.36416016178E+01  0.40453182742E+02 -0.18547307933E+01  0.40659086102E+02  0.00000000000E+00 0.  1.
         11    1    3    3    0    0  0.84867124452E+01 -0.16069759151E+02  0.48039842683E+01  0.18797332588E+02  0.51100000000E-03 0. -1.
        -11    1    3    3    0    0  0.24181144589E+01 -0.30217133492E+00 -0.26446693196E+01  0.35962287362E+01  0.51100000000E-03 0.  1.
         12    1    3    3    0    0 -0.14546428522E+02 -0.24081252256E+02 -0.30458415546E+00  0.28135352574E+02  0.00000000000E+00 0. -1.
</event>
<event>
 7    1  0.2702714E-011  0.5052885E+02  0.7816164E-02  0.1300439E+00
        -11   -1    0    0    0    0  0.00000000000E+00  0.00000000000E+00  0.45593999997E+02  0.45594000000E+02  0.51100000000E-03 0. -1.
         11   -1    0    0    0    0 -0.00000000000E+00 -0.00000000000E+00 -0.45593999997E+02  0.45594000000E+02  0.51100000000E-03 0.  1.
    9900012    2    1    2    0    0  0.23612699412E+02 -0.64352668920E+01  0.32468351951E+02  0.50528854511E+02  0.29999983771E+02 0.  0.
        -12    1    1    2    0    0 -0.23612699412E+02  0.64352668920E+01 -0.32468351951E+02  0.40659145489E+02  0.00000000000E+00 0.  1.
         11    1    3    3    0    0  0.40956901014E+01 -0.89674905826E+01  0.10186603840E+02  0.14175946629E+02  0.51100000000E-03 0.  1.
        -11    1    3    3    0    0  0.38271842293E-01 -0.68857252766E+01  0.73061740065E+01  0.10039664147E+02  0.51100000000E-03 0. -1.
        -12    1    3    3    0    0  0.19478737468E+02  0.94179489672E+01  0.14975574104E+02  0.26313243735E+02  0.00000000000E+00 0.  1.
</event>
<event>
 7    1  0.2702714E-011  0.5052884E+02  0.7816164E-02  0.1300439E+00
        -11   -1    0    0    0    0  0.00000000000E+00  0.00000000000E+00  0.45593999997E+02  0.45594000000E+02  0.51100000000E-03 0. -1.
         11   -1    0    0    0    0 -0.00000000000E+00 -0.00000000000E+00 -0.45593999997E+02  0.45594000000E+02  0.51100000000E-03 0.  1.
    9900012    2    1    2    0    0 -0.23734123601E+02  0.25356183744E+02  0.21140552371E+02  0.50528835821E+02  0.29999926961E+02 0.  0.
        -12    1    1    2    0    0  0.23734123601E+02 -0.25356183744E+02 -0.21140552371E+02  0.40659164179E+02  0.00000000000E+00 0.  1.
         11    1    3    3    0    0 -0.47616812421E+01  0.13755928397E+02  0.85271311730E+01  0.16870422064E+02  0.51100000000E-03 0. -1.
        -11    1    3    3    0    0  0.13280261837E+01  0.10788940634E+02  0.49520456606E+01  0.11945193596E+02  0.51100000000E-03 0.  1.
        -12    1    3    3    0    0 -0.20300468543E+02  0.81131471273E+00  0.76613755379E+01  0.21713220161E+02  0.00000000000E+00 0.  1.
</event>
<event>
 7    1  0.2702714E-011  0.5052886E+02  0.7816164E-02  0.1300439E+00
        -11   -1    0    0    0    0  0.00000000000E+00  0.00000000000E+00  0.45593999997E+02  0.45594000000E+02  0.51100000000E-03 0.  1.
         11   -1    0    0    0    0 -0.00000000000E+00 -0.00000000000E+00 -0.45593999997E+02  0.45594000000E+02  0.51100000000E-03 0. -1.
    9900012    2    1    2    0    0 -0.31020655920E+01 -0.39150810810E+02 -0.10524104129E+02  0.50528861228E+02  0.30000004187E+02 0.  0.
        -12    1    1    2    0    0  0.31020655920E+01  0.39150810810E+02  0.10524104129E+02  0.40659138772E+02  0.00000000000E+00 0.  1.
         11    1    3    3    0    0  0.72574467193E+00 -0.20990544578E+01 -0.62851576658E+01  0.66660289596E+01  0.51100000000E-03 0. -1.
        -11    1    3    3    0    0  0.69301335328E+01 -0.13983065658E+02 -0.89297767130E+01  0.17980372309E+02  0.51100000000E-03 0.  1.
        -12    1    3    3    0    0 -0.10757943797E+02 -0.23068690694E+02  0.46908302500E+01  0.25882459959E+02  0.00000000000E+00 0.  1.
</event>
<event>
 7    1  0.2702714E-011  0.5052886E+02  0.7816164E-02  0.1300439E+00
        -11   -1    0    0    0    0  0.00000000000E+00  0.00000000000E+00  0.45593999997E+02  0.45594000000E+02  0.51100000000E-03 0.  1.
         11   -1    0    0    0    0 -0.00000000000E+00 -0.00000000000E+00 -0.45593999997E+02  0.45594000000E+02  0.51100000000E-03 0. -1.
    9900012    2    1    2    0    0 -0.24874981593E+02  0.44829354798E+01 -0.31848140340E+02  0.50528862492E+02  0.30000008031E+02 0.  0.
        -12    1    1    2    0    0  0.24874981593E+02 -0.44829354798E+01  0.31848140340E+02  0.40659137508E+02  0.00000000000E+00 0.  1.
         11    1    3    3    0    0 -0.56998891663E+01  0.62107028582E+01 -0.12912112113E+02  0.15420253110E+02  0.51100000000E-03 0. -1.
        -11    1    3    3    0    0 -0.16818362479E+02 -0.21454409109E+01 -0.24071298642E+02  0.29442955893E+02  0.51100000000E-03 0.  1.
        -12    1    3    3    0    0 -0.23567299479E+01  0.41767353241E+00  0.51352704146E+01  0.56656534891E+01  0.00000000000E+00 0.  1.
</event>
<event>
 7    1  0.2702714E-011  0.5052890E+02  0.7816164E-02  0.1300439E+00
        -11   -1    0    0    0    0  0.00000000000E+00  0.00000000000E+00  0.45593999997E+02  0.45594000000E+02  0.51100000000E-03 0.  1.
         11   -1    0    0    0    0 -0.00000000000E+00 -0.00000000000E+00 -0.45593999997E+02  0.45594000000E+02  0.51100000000E-03 0. -1.
    9900012    2    1    2    0    0  0.18095973465E+02 -0.24580994441E+02 -0.26860249653E+02  0.50528898254E+02  0.30000116732E+02 0.  0.
        -12    1    1    2    0    0 -0.18095973465E+02  0.24580994441E+02  0.26860249653E+02  0.40659101746E+02  0.00000000000E+00 0.  1.
         11    1    3    3    0    0  0.75579484857E+01 -0.97665027324E+01 -0.10626597749E+02  0.16292076016E+02  0.51100000000E-03 0. -1.
        -11    1    3    3    0    0  0.64402686474E+00 -0.19274477033E+02 -0.10074251511E+02  0.21758004946E+02  0.51100000000E-03 0.  1.
        -12    1    3    3    0    0  0.98939981149E+01  0.44599853240E+01 -0.61594003934E+01  0.12478817291E+02  0.00000000000E+00 0.  1.
</event>
<event>
 7    1  0.3198975E-011  0.5052886E+02  0.7816164E-02  0.1300439E+00
        -11   -1    0    0    0    0  0.00000000000E+00  0.00000000000E+00  0.45593999997E+02  0.45594000000E+02  0.51100000000E-03 0. -1.
         11   -1    0    0    0    0 -0.00000000000E+00 -0.00000000000E+00 -0.45593999997E+02  0.45594000000E+02  0.51100000000E-03 0.  1.
    9900012    2    1    2    0    0 -0.36408131591E+02 -0.72031658023E+01  0.16605060411E+02  0.50528859886E+02  0.30000000111E+02 0.  0.
        -12    1    1    2    0    0  0.36408131591E+02  0.72031658023E+01 -0.16605060411E+02  0.40659140114E+02  0.00000000000E+00 0.  1.
         11    1    3    3    0    0 -0.13171203922E+02 -0.99483054616E+01  0.25837099678E+01  0.16707033003E+02  0.51100000000E-03 0. -1.
        -11    1    3    3    0    0 -0.24542583294E+02 -0.31296508809E+01  0.11745197565E+02  0.27387639100E+02  0.51100000000E-03 0.  1.
        -12    1    3    3    0    0  0.13056556251E+01  0.58747905401E+01  0.22761528790E+01  0.64341877833E+01  0.00000000000E+00 0.  1.
</event>
<event>
 7    1  0.2702714E-011  0.5052886E+02  0.7816164E-02  0.1300439E+00
        -11   -1    0    0    0    0  0.00000000000E+00  0.00000000000E+00  0.45593999997E+02  0.45594000000E+02  0.51100000000E-03 0. -1.
         11   -1    0    0    0    0 -0.00000000000E+00 -0.00000000000E+00 -0.45593999997E+02  0.45594000000E+02  0.51100000000E-03 0.  1.
    9900012    2    1    2    0    0  0.25312267791E+02 -0.17786544660E+02  0.26383588743E+02  0.50528858019E+02  0.29999994435E+02 0.  0.
        -12    1    1    2    0    0 -0.25312267791E+02  0.17786544660E+02 -0.26383588743E+02  0.40659141981E+02  0.00000000000E+00 0.  1.
         11    1    3    3    0    0  0.14432465575E+01 -0.76149879594E+00 -0.26813233546E+01  0.31388431364E+01  0.51100000000E-03 0. -1.
        -11    1    3    3    0    0  0.31999275454E+01 -0.10873172231E+01  0.19188159610E+02  0.19483512633E+02  0.51100000000E-03 0.  1.
         12    1    3    3    0    0  0.20669093688E+02 -0.15937728641E+02  0.98767524871E+01  0.27906502250E+02  0.00000000000E+00 0. -1.
</event>
<event>
 7    1  0.2702714E-011  0.5052886E+02  0.7816164E-02  0.1300439E+00
        -11   -1    0    0    0    0  0.00000000000E+00  0.00000000000E+00  0.45593999997E+02  0.45594000000E+02  0.51100000000E-03 0.  1.
         11   -1    0    0    0    0 -0.00000000000E+00 -0.00000000000E+00 -0.45593999997E+02  0.45594000000E+02  0.51100000000E-03 0. -1.
    9900012    2    1    2    0    0  0.84151417992E+01  0.17564956642E+02 -0.35690667263E+02  0.50528855358E+02  0.29999986347E+02 0.  0.
        -12    1    1    2    0    0 -0.84151417992E+01 -0.17564956642E+02  0.35690667263E+02  0.40659144642E+02  0.00000000000E+00 0.  1.
         11    1    3    3    0    0  0.85817079153E+01  0.55621727722E+01 -0.23759684213E+02  0.25867084699E+02  0.51100000000E-03 0. -1.
        -11    1    3    3    0    0  0.88773112174E+01  0.61935276876E+01 -0.63691603767E+01  0.12559165730E+02  0.51100000000E-03 0.  1.
         12    1    3    3    0    0 -0.90438773335E+01  0.58092561822E+01 -0.55618226734E+01  0.12102604929E+02  0.00000000000E+00 0. -1.
</event>
<event>
 7    1  0.2702714E-011  0.5052890E+02  0.7816164E-02  0.1300439E+00
        -11   -1    0    0    0    0  0.00000000000E+00  0.00000000000E+00  0.45593999997E+02  0.45594000000E+02  0.51100000000E-03 0.  1.
         11   -1    0    0    0    0 -0.00000000000E+00 -0.00000000000E+00 -0.45593999997E+02  0.45594000000E+02  0.51100000000E-03 0. -1.
    9900012    2    1    2    0    0 -0.40073910399E+02  0.63758081470E+01  0.25677653217E+01  0.50528897170E+02  0.30000113436E+02 0.  0.
        -12    1    1    2    0    0  0.40073910399E+02 -0.63758081470E+01 -0.25677653217E+01  0.40659102830E+02  0.00000000000E+00 0.  1.
         11    1    3    3    0    0 -0.97543314262E+01 -0.67284837943E+01  0.10750969173E+02  0.16000087942E+02  0.51100000000E-03 0. -1.
        -11    1    3    3    0    0 -0.17762857602E+01  0.49071330513E+00  0.86735981799E+00  0.20367385607E+01  0.51100000000E-03 0.  1.
         12    1    3    3    0    0 -0.28543293213E+02  0.12613578636E+02 -0.90505636695E+01  0.32492070666E+02  0.00000000000E+00 0. -1.
</event>
<event>
 7    1  0.4132210E-011  0.5052886E+02  0.7816164E-02  0.1300439E+00
        -11   -1    0    0    0    0  0.00000000000E+00  0.00000000000E+00  0.45593999997E+02  0.45594000000E+02  0.51100000000E-03 0.  1.
         11   -1    0    0    0    0 -0.00000000000E+00 -0.00000000000E+00 -0.45593999997E+02  0.45594000000E+02  0.51100000000E-03 0. -1.
    9900012    2    1    2    0    0  0.16561407534E+02  0.33931116684E+02 -0.15085249197E+02  0.50528860286E+02  0.30000001326E+02 0.  0.
        -12    1    1    2    0    0 -0.16561407534E+02 -0.33931116684E+02  0.15085249197E+02  0.40659139714E+02  0.00000000000E+00 0.  1.
         11    1    3    3    0    0  0.11163284365E+02  0.20124888986E+02 -0.99805978978E+01  0.25084704686E+02  0.51100000000E-03 0. -1.
        -11    1    3    3    0    0  0.57574064145E+01  0.67620907879E+01 -0.12428937236E+02  0.15275865983E+02  0.51100000000E-03 0.  1.
        -12    1    3    3    0    0 -0.35928324516E+00  0.70441369096E+01  0.73242859369E+01  0.10168289617E+02  0.00000000000E+00 0.  1.
</event>
<event>
 7    1  0.3641366E-011  0.5052884E+02  0.7816164E-02  0.1300439E+00
        -11   -1    0    0    0    0  0.00000000000E+00  0.00000000000E+00  0.45593999997E+02  0.45594000000E+02  0.51100000000E-03 0.  1.
         11   -1    0    0    0    0 -0.00000000000E+00 -0.00000000000E+00 -0.45593999997E+02  0.45594000000E+02  0.51100000000E-03 0. -1.
    9900012    2    1    2    0    0 -0.19267036800E+02 -0.31321075496E+02 -0.17347598398E+02  0.50528835628E+02  0.29999926374E+02 0.  0.
        -12    1    1    2    0    0  0.19267036800E+02  0.31321075496E+02  0.17347598398E+02  0.40659164372E+02  0.00000000000E+00 0.  1.
         11    1    3    3    0    0 -0.13083545544E+02 -0.26749267859E+02 -0.59617479465E+01  0.30368485866E+02  0.51100000000E-03 0. -1.
        -11    1    3    3    0    0  0.43463945853E+01 -0.17417757561E+00 -0.48101221070E+00  0.43763976883E+01  0.51100000000E-03 0.  1.
        -12    1    3    3    0    0 -0.10529885841E+02 -0.43976300616E+01 -0.10904838241E+02  0.15783952073E+02  0.00000000000E+00 0.  1.
</event>
<event>
 7    1  0.2702714E-011  0.5052885E+02  0.7816164E-02  0.1300439E+00
        -11   -1    0    0    0    0  0.00000000000E+00  0.00000000000E+00  0.45593999997E+02  0.45594000000E+02  0.51100000000E-03 0. -1.
         11   -1    0    0    0    0 -0.00000000000E+00 -0.00000000000E+00 -0.45593999997E+02  0.45594000000E+02  0.51100000000E-03 0.  1.
    9900012    2    1    2    0    0 -0.37386113210E+02 -0.42245231940E+01  0.15414220222E+02  0.50528852908E+02  0.29999978900E+02 0.  0.
        -12    1    1    2    0    0  0.37386113210E+02  0.42245231940E+01 -0.15414220222E+02  0.40659147092E+02  0.00000000000E+00 0.  1.
         11    1    3    3    0    0 -0.44574760812E+01 -0.60785973564E+01 -0.39728837655E+01  0.85206950720E+01  0.51100000000E-03 0.  1.
        -11    1    3    3    0    0 -0.20478033740E+02 -0.39879873492E+01  0.37736943403E+01  0.21201289541E+02  0.51100000000E-03 0. -1.
        -12    1    3    3    0    0 -0.12450603389E+02  0.58420615116E+01  0.15613409647E+02  0.20806868295E+02  0.00000000000E+00 0.  1.
</event>
<event>
 7    1  0.2702714E-011  0.5052886E+02  0.7816164E-02  0.1300439E+00
        -11   -1    0    0    0    0  0.00000000000E+00  0.00000000000E+00  0.45593999997E+02  0.45594000000E+02  0.51100000000E-03 0. -1.
         11   -1    0    0    0    0 -0.00000000000E+00 -0.00000000000E+00 -0.45593999997E+02  0.45594000000E+02  0.51100000000E-03 0.  1.
    9900012    2    1    2    0    0 -0.22600404995E+02  0.18366253003E+02  0.28373722699E+02  0.50528859637E+02  0.29999999351E+02 0.  0.
        -12    1    1    2    0    0  0.22600404995E+02 -0.18366253003E+02 -0.28373722699E+02  0.40659140363E+02  0.00000000000E+00 0.  1.
         11    1    3    3    0    0 -0.14987035932E+02  0.66689409910E+01  0.14337298177E+02  0.21786329182E+02  0.51100000000E-03 0. -1.
        -11    1    3    3    0    0 -0.51385407827E+01 -0.39641701039E+01  0.10738619604E+02  0.12547398027E+02  0.51100000000E-03 0.  1.
        -12    1    3    3    0    0 -0.24748282806E+01  0.15661482115E+02  0.32978049187E+01  0.16195132428E+02  0.00000000000E+00 0.  1.
</event>
<event>
 7    1  0.2702714E-011  0.5052886E+02  0.7816164E-02  0.1300439E+00
        -11   -1    0    0    0    0  0.00000000000E+00  0.00000000000E+00  0.45593999997E+02  0.45594000000E+02  0.51100000000E-03 0.  1.
         11   -1    0    0    0    0 -0.00000000000E+00 -0.00000000000E+00 -0.45593999997E+02  0.45594000000E+02  0.51100000000E-03 0. -1.
    9900012    2    1    2    0    0 -0.89245298911E+00 -0.33709868266E+02 -0.22715944780E+02  0.50528857878E+02  0.29999994005E+02 0.  0.
        -12    1    1    2    0    0  0.89245298911E+00  0.33709868266E+02  0.22715944780E+02  0.40659142122E+02  0.00000000000E+00 0.  1.
         11    1    3    3    0    0 -0.98007329889E+01 -0.20019249141E+02 -0.20162409196E+02  0.30055739022E+02  0.51100000000E-03 0. -1.
        -11    1    3    3    0    0 -0.24680306880E+01 -0.49708534133E+01  0.11521512867E+01  0.56681577238E+01  0.51100000000E-03 0.  1.
         12    1    3    3    0    0  0.11376310688E+02 -0.87197657119E+01 -0.37056868704E+01  0.14804961132E+02  0.00000000000E+00 0. -1.
</event>
<event>
 7    1  0.2702714E-011  0.5052887E+02  0.7816164E-02  0.1300439E+00
        -11   -1    0    0    0    0  0.00000000000E+00  0.00000000000E+00  0.45593999997E+02  0.45594000000E+02  0.51100000000E-03 0. -1.
         11   -1    0    0    0    0 -0.00000000000E+00 -0.00000000000E+00 -0.45593999997E+02  0.45594000000E+02  0.51100000000E-03 0.  1.
    9900012    2    1    2    0    0  0.33639046356E+02  0.38153113384E+01 -0.22517170353E+02  0.50528868171E+02  0.30000025294E+02 0.  0.
        -12    1    1    2    0    0 -0.33639046356E+02 -0.38153113384E+01  0.22517170353E+02  0.40659131829E+02  0.00000000000E+00 0.  1.
         11    1    3    3    0    0  0.17546414719E+02  0.10760326521E+02 -0.12371638857E+02  0.24014969178E+02  0.51100000000E-03 0. -1.
        -11    1    3    3    0    0 -0.31261734732E+01 -0.15849424941E+01 -0.46417864643E+01  0.58164581263E+01  0.51100000000E-03 0.  1.
        -12    1    3    3    0    0  0.19218805110E+02 -0.53600726886E+01 -0.55037450314E+01  0.20697440867E+02  0.00000000000E+00 0.  1.
</event>
<event>
 7    1  0.2702714E-011  0.5052886E+02  0.7816164E-02  0.1300439E+00
        -11   -1    0    0    0    0  0.00000000000E+00  0.00000000000E+00  0.45593999997E+02  0.45594000000E+02  0.51100000000E-03 0. -1.
         11   -1    0    0    0    0 -0.00000000000E+00 -0.00000000000E+00 -0.45593999997E+02  0.45594000000E+02  0.51100000000E-03 0.  1.
    9900012    2    1    2    0    0  0.38159500967E+02  0.77446255539E+01 -0.11706354878E+02  0.50528862239E+02  0.30000007260E+02 0.  0.
        -12    1    1    2    0    0 -0.38159500967E+02 -0.77446255539E+01  0.11706354878E+02  0.40659137761E+02  0.00000000000E+00 0.  1.
         11    1    3    3    0    0  0.24877903139E+02  0.17559898173E+02 -0.38728122099E+01  0.30696233696E+02  0.51100000000E-03 0. -1.
        -11    1    3    3    0    0  0.55890446921E+01 -0.29244556246E+01 -0.70728481488E+01  0.94770798492E+01  0.51100000000E-03 0.  1.
        -12    1    3    3    0    0  0.76925531354E+01 -0.68908169943E+01 -0.76069451882E+00  0.10355548693E+02  0.00000000000E+00 0.  1.
</event>
<event>
 7    1  0.2702714E-011  0.5052886E+02  0.7816164E-02  0.1300439E+00
        -11   -1    0    0    0    0  0.00000000000E+00  0.00000000000E+00  0.45593999997E+02  0.45594000000E+02  0.51100000000E-03 0.  1.
         11   -1    0    0    0    0 -0.00000000000E+00 -0.00000000000E+00 -0.45593999997E+02  0.45594000000E+02  0.51100000000E-03 0. -1.
    9900012    2    1    2    0    0 -0.11024576369E+02 -0.32702125911E+02 -0.21498725654E+02  0.50528861691E+02  0.30000005597E+02 0.  0.
        -12    1    1    2    0    0  0.11024576369E+02  0.32702125911E+02  0.21498725654E+02  0.40659138309E+02  0.00000000000E+00 0.  1.
         11    1    3    3    0    0 -0.13482575042E+02 -0.16872886528E+02 -0.16583599445E+02  0.27230312161E+02  0.51100000000E-03 0. -1.
        -11    1    3    3    0    0 -0.46427236401E+01 -0.26135079484E+01  0.32271143891E+01  0.62289304167E+01  0.51100000000E-03 0.  1.
        -12    1    3    3    0    0  0.71007223133E+01 -0.13215731434E+02 -0.81422405980E+01  0.17069619113E+02  0.00000000000E+00 0.  1.
</event>
<event>
 7    1  0.2702714E-011  0.5052886E+02  0.7816164E-02  0.1300439E+00
        -11   -1    0    0    0    0  0.00000000000E+00  0.00000000000E+00  0.45593999997E+02  0.45594000000E+02  0.51100000000E-03 0.  1.
         11   -1    0    0    0    0 -0.00000000000E+00 -0.00000000000E+00 -0.45593999997E+02  0.45594000000E+02  0.51100000000E-03 0. -1.
    9900012    2    1    2    0    0  0.23191585733E+02  0.27039378095E+02 -0.19600721702E+02  0.50528857020E+02  0.29999991399E+02 0.  0.
        -12    1    1    2    0    0 -0.23191585733E+02 -0.27039378095E+02  0.19600721702E+02  0.40659142980E+02  0.00000000000E+00 0.  1.
         11    1    3    3    0    0  0.33328515486E+01  0.22922754360E+01 -0.16657528705E+02  0.17141636122E+02  0.51100000000E-03 0. -1.
        -11    1    3    3    0    0  0.11232940860E+02  0.11936275816E+02 -0.63397074450E+01  0.17574001578E+02  0.51100000000E-03 0.  1.
        -12    1    3    3    0    0  0.86257933244E+01  0.12810826843E+02  0.33965144476E+01  0.15813219320E+02  0.00000000000E+00 0.  1.
</event>
<event>
 7    1  0.2702714E-011  0.5052888E+02  0.7816164E-02  0.1300439E+00
        -11   -1    0    0    0    0  0.00000000000E+00  0.00000000000E+00  0.45593999997E+02  0.45594000000E+02  0.51100000000E-03 0.  1.
         11   -1    0    0    0    0 -0.00000000000E+00 -0.00000000000E+00 -0.45593999997E+02  0.45594000000E+02  0.51100000000E-03 0. -1.
    9900012    2    1    2    0    0 -0.81772571711E+01 -0.18075983602E+02 -0.35490218413E+02  0.50528876534E+02  0.30000050712E+02 0.  0.
        -12    1    1    2    0    0  0.81772571711E+01  0.18075983602E+02  0.35490218413E+02  0.40659123466E+02  0.00000000000E+00 0.  1.
         11    1    3    3    0    0  0.77489507423E+01 -0.66234581837E+01 -0.15347904773E+02  0.18424836963E+02  0.51100000000E-03 0. -1.
        -11    1    3    3    0    0 -0.46183884601E+01 -0.37128544936E+01  0.18362168217E+01  0.62037482973E+01  0.51100000000E-03 0.  1.
         12    1    3    3    0    0 -0.11307819453E+02 -0.77396709250E+01 -0.21978530461E+02  0.25900291274E+02  0.00000000000E+00 0. -1.
</event>
<event>
 7    1  0.2702714E-011  0.5052886E+02  0.7816164E-02  0.1300439E+00
        -11   -1    0    0    0    0  0.00000000000E+00  0.00000000000E+00  0.45593999997E+02  0.45594000000E+02  0.51100000000E-03 0.  1.
         11   -1    0    0    0    0 -0.00000000000E+00 -0.00000000000E+00 -0.45593999997E+02  0.45594000000E+02  0.51100000000E-03 0. -1.
    9900012    2    1    2    0    0 -0.23044263676E+02 -0.22272019886E+02 -0.25021680134E+02  0.50528862836E+02  0.30000009076E+02 0.  0.
        -12    1    1    2    0    0  0.23044263676E+02  0.22272019886E+02  0.25021680134E+02  0.40659137164E+02  0.00000000000E+00 0.  1.
         11    1    3    3    0    0 -0.16290887554E+02 -0.65717485749E+01 -0.11689085999E+02  0.21100133373E+02  0.51100000000E-03 0. -1.
        -11    1    3    3    0    0 -0.33168077151E+01 -0.18719348423E+01  0.49523202027E+01  0.62474658161E+01  0.51100000000E-03 0.  1.
         12    1    3    3    0    0 -0.34365684074E+01 -0.13828336469E+02 -0.18284914337E+02  0.23181263646E+02  0.00000000000E+00 0. -1.
</event>
<event>
 7    1  0.2702714E-011  0.5052886E+02  0.7816164E-02  0.1300439E+00
        -11   -1    0    0    0    0  0.00000000000E+00  0.00000000000E+00  0.45593999997E+02  0.45594000000E+02  0.51100000000E-03 0. -1.
         11   -1    0    0    0    0 -0.00000000000E+00 -0.00000000000E+00 -0.45593999997E+02  0.45594000000E+02  0.51100000000E-03 0.  1.
    9900012    2    1    2    0    0 -0.29782166154E+02 -0.32598646725E+01  0.27487486841E+02  0.50528855010E+02  0.29999985287E+02 0.  0.
        -12    1    1    2    0    0  0.29782166154E+02  0.32598646725E+01 -0.27487486841E+02  0.40659144990E+02  0.00000000000E+00 0.  1.
         11    1    3    3    0    0 -0.12531099125E+02  0.89175699808E+01  0.19169302137E+02  0.24576689043E+02  0.51100000000E-03 0. -1.
        -11    1    3    3    0    0 -0.84552258313E+01  0.10850475506E+01  0.15774254043E+01  0.86692815857E+01  0.51100000000E-03 0.  1.
         12    1    3    3    0    0 -0.87958411974E+01 -0.13262482204E+02  0.67407593001E+01  0.17282884381E+02  0.00000000000E+00 0. -1.
</event>
<event>
 7    1  0.2702714E-011  0.5052887E+02  0.7816164E-02  0.1300439E+00
        -11   -1    0    0    0    0  0.00000000000E+00  0.00000000000E+00  0.45593999997E+02  0.45594000000E+02  0.51100000000E-03 0.  1.
         11   -1    0    0    0    0 -0.00000000000E+00 -0.00000000000E+00 -0.45593999997E+02  0.45594000000E+02  0.51100000000E-03 0. -1.
    9900012    2    1    2    0    0 -0.30658310281E+01  0.34508939531E+02  0.21281422102E+02  0.50528866289E+02  0.30000019572E+02 0.  0.
        -12    1    1    2    0    0  0.30658310281E+01 -0.34508939531E+02 -0.21281422102E+02  0.40659133711E+02  0.00000000000E+00 0.  1.
         11    1    3    3    0    0  0.82499975506E+01  0.63829998700E+01  0.15579260432E+02  0.18748826704E+02  0.51100000000E-03 0.  1.
        -11    1    3    3    0    0 -0.51065479156E+01  0.12329966610E+02  0.63836932405E+01  0.14793797615E+02  0.51100000000E-03 0. -1.
        -12    1    3    3    0    0 -0.62092806631E+01  0.15795973051E+02 -0.68153157013E+00  0.16986241970E+02  0.00000000000E+00 0.  1.
</event>
<event>
 7    1  0.2702714E-011  0.5052886E+02  0.7816164E-02  0.1300439E+00
        -11   -1    0    0    0    0  0.00000000000E+00  0.00000000000E+00  0.45593999997E+02  0.45594000000E+02  0.51100000000E-03 0.  1.
         11   -1    0    0    0    0 -0.00000000000E+00 -0.00000000000E+00 -0.45593999997E+02  0.45594000000E+02  0.51100000000E-03 0. -1.
    9900012    2    1    2    0    0  0.90776397364E+01 -0.18167449718E+02 -0.35223657203E+02  0.50528858356E+02  0.29999995459E+02 0.  0.
        -12    1    1    2    0    0 -0.90776397364E+01  0.18167449718E+02  0.35223657203E+02  0.40659141644E+02  0.00000000000E+00 0.  1.
         11    1    3    3    0    0  0.69064249220E+01  0.17513451229E+01 -0.21760876980E+02  0.22897634859E+02  0.51100000000E-03 0. -1.
        -11    1    3    3    0    0  0.79636502400E+00 -0.72618394738E+01 -0.12975287147E+02  0.14890486446E+02  0.51100000000E-03 0.  1.
        -12    1    3    3    0    0  0.13748497904E+01 -0.12656955367E+02 -0.48749307728E+00  0.12740737051E+02  0.00000000000E+00 0.  1.
</event>
<event>
 7    1  0.2702714E-011  0.5052886E+02  0.7816164E-02  0.1300439E+00
        -11   -1    0    0    0    0  0.00000000000E+00  0.00000000000E+00  0.45593999997E+02  0.45594000000E+02  0.51100000000E-03 0.  1.
         11   -1    0    0    0    0 -0.00000000000E+00 -0.00000000000E+00 -0.45593999997E+02  0.45594000000E+02  0.51100000000E-03 0. -1.
    9900012    2    1    2    0    0 -0.68374704669E+01  0.35316237620E+02 -0.18951987416E+02  0.50528862416E+02  0.30000007801E+02 0.  0.
        -12    1    1    2    0    0  0.68374704669E+01 -0.35316237620E+02  0.18951987416E+02  0.40659137584E+02  0.00000000000E+00 0.  1.
         11    1    3    3    0    0 -0.38152003978E+01  0.16256625919E+02 -0.32848427522E+01  0.17018338125E+02  0.51100000000E-03 0. -1.
        -11    1    3    3    0    0 -0.95394422251E+01  0.18951099740E+02 -0.16582969689E+02  0.26928424077E+02  0.51100000000E-03 0.  1.
        -12    1    3    3    0    0  0.65171721560E+01  0.10851196100E+00  0.91582502524E+00  0.65821002145E+01  0.00000000000E+00 0.  1.
</event>
<event>
 7    1  0.2702714E-011  0.5052888E+02  0.7816164E-02  0.1300439E+00
        -11   -1    0    0    0    0  0.00000000000E+00  0.00000000000E+00  0.45593999997E+02  0.45594000000E+02  0.51100000000E-03 0.  1.
         11   -1    0    0    0    0 -0.00000000000E+00 -0.00000000000E+00 -0.45593999997E+02  0.45594000000E+02  0.51100000000E-03 0. -1.
    9900012    2    1    2    0    0 -0.18279254186E+02  0.10182740765E+02 -0.34861792627E+02  0.50528881364E+02  0.30000065394E+02 0.  0.
        -12    1    1    2    0    0  0.18279254186E+02 -0.10182740765E+02  0.34861792627E+02  0.40659118636E+02  0.00000000000E+00 0.  1.
         11    1    3    3    0    0 -0.71692794134E+01  0.10359619952E+02 -0.87916332367E+01  0.15362718122E+02  0.51100000000E-03 0.  1.
        -11    1    3    3    0    0 -0.93946977561E+01 -0.88673662073E+01 -0.84270954652E+01  0.15424216921E+02  0.51100000000E-03 0. -1.
         12    1    3    3    0    0 -0.17152770165E+01  0.86904870203E+01 -0.17643063925E+02  0.19741946321E+02  0.00000000000E+00 0. -1.
</event>
<event>
 7    1  0.2702714E-011  0.5052893E+02  0.7816164E-02  0.1300439E+00
        -11   -1    0    0    0    0  0.00000000000E+00  0.00000000000E+00  0.45593999997E+02  0.45594000000E+02  0.51100000000E-03 0.  1.
         11   -1    0    0    0    0 -0.00000000000E+00 -0.00000000000E+00 -0.45593999997E+02  0.45594000000E+02  0.51100000000E-03 0. -1.
    9900012    2    1    2    0    0 -0.10979023938E+02  0.66666075204E+01 -0.38576897294E+02  0.50528934255E+02  0.30000226160E+02 0.  0.
        -12    1    1    2    0    0  0.10979023938E+02 -0.66666075204E+01  0.38576897294E+02  0.40659065745E+02  0.00000000000E+00 0.  1.
         11    1    3    3    0    0 -0.11904753211E+02  0.30426802737E+01 -0.15002105333E+02  0.19391859554E+02  0.51100000000E-03 0. -1.
        -11    1    3    3    0    0 -0.91698045218E+01  0.43782259987E+01 -0.10658033228E+02  0.14725754664E+02  0.51100000000E-03 0.  1.
         12    1    3    3    0    0  0.10095533795E+02 -0.75429875203E+00 -0.12916758733E+02  0.16411320037E+02  0.00000000000E+00 0. -1.
</event>
<event>
 7    1  0.2702714E-011  0.5052886E+02  0.7816164E-02  0.1300439E+00
        -11   -1    0    0    0    0  0.00000000000E+00  0.00000000000E+00  0.45593999997E+02  0.45594000000E+02  0.51100000000E-03 0.  1.
         11   -1    0    0    0    0 -0.00000000000E+00 -0.00000000000E+00 -0.45593999997E+02  0.45594000000E+02  0.51100000000E-03 0. -1.
    9900012    2    1    2    0    0 -0.19028374057E+02  0.34921196448E+02  0.84615024328E+01  0.50528855838E+02  0.29999987804E+02 0.  0.
        -12    1    1    2    0    0  0.19028374057E+02 -0.34921196448E+02 -0.84615024328E+01  0.40659144162E+02  0.00000000000E+00 0.  1.
         11    1    3    3    0    0 -0.12812055176E+02  0.85182107120E+01  0.75100206935E+01  0.17120428810E+02  0.51100000000E-03 0. -1.
        -11    1    3    3    0    0 -0.24091005789E+01 -0.29004909953E+01 -0.60012656642E+00  0.38179530864E+01  0.51100000000E-03 0.  1.
         12    1    3    3    0    0 -0.38072183022E+01  0.29303476731E+02  0.15516083057E+01  0.29590473941E+02  0.00000000000E+00 0. -1.
</event>
<event>
 7    1  0.2702714E-011  0.5052886E+02  0.7816164E-02  0.1300439E+00
        -11   -1    0    0    0    0  0.00000000000E+00  0.00000000000E+00  0.45593999997E+02  0.45594000000E+02  0.51100000000E-03 0. -1.
         11   -1    0    0    0    0 -0.00000000000E+00 -0.00000000000E+00 -0.45593999997E+02  0.45594000000E+02  0.51100000000E-03 0.  1.
    9900012    2    1    2    0    0  0.37954672082E+02 -0.14011200166E+02 -0.40366476392E+01  0.50528863424E+02  0.30000010863E+02 0.  0.
        -12    1    1    2    0    0 -0.37954672082E+02  0.14011200166E+02  0.40366476392E+01  0.40659136576E+02  0.00000000000E+00 0.  1.
         11    1    3    3    0    0  0.24811220258E+02 -0.13761805286E+02 -0.44050791285E+01  0.28712169159E+02  0.51100000000E-03 0. -1.
        -11    1    3    3    0    0  0.35134030139E+00 -0.57211200319E+01 -0.42733823326E+01  0.71495769979E+01  0.51100000000E-03 0.  1.
         12    1    3    3    0    0  0.12792111523E+02  0.54717251524E+01  0.46418138220E+01  0.14667117267E+02  0.00000000000E+00 0. -1.
</event>
<event>
 7    1  0.2702714E-011  0.5052886E+02  0.7816164E-02  0.1300439E+00
        -11   -1    0    0    0    0  0.00000000000E+00  0.00000000000E+00  0.45593999997E+02  0.45594000000E+02  0.51100000000E-03 0.  1.
         11   -1    0    0    0    0 -0.00000000000E+00 -0.00000000000E+00 -0.45593999997E+02  0.45594000000E+02  0.51100000000E-03 0. -1.
    9900012    2    1    2    0    0 -0.13955546652E+02  0.26978611587E+02 -0.27028932925E+02  0.50528856126E+02  0.29999988679E+02 0.  0.
        -12    1    1    2    0    0  0.13955546652E+02 -0.26978611587E+02  0.27028932925E+02  0.40659143874E+02  0.00000000000E+00 0.  1.
         11    1    3    3    0    0 -0.10222599684E+02  0.42950070756E+00 -0.12164992800E+02  0.15895693292E+02  0.51100000000E-03 0. -1.
        -11    1    3    3    0    0 -0.87310865242E+01  0.13248202065E+02 -0.30558188377E+01  0.16158117430E+02  0.51100000000E-03 0.  1.
         12    1    3    3    0    0  0.49981395562E+01  0.13300908814E+02 -0.11808121288E+02  0.18475045403E+02  0.00000000000E+00 0. -1.
</event>
<event>
 7    1  0.2702714E-011  0.5052896E+02  0.7816164E-02  0.1300438E+00
        -11   -1    0    0    0    0  0.00000000000E+00  0.00000000000E+00  0.45593999997E+02  0.45594000000E+02  0.51100000000E-03 0. -1.
         11   -1    0    0    0    0 -0.00000000000E+00 -0.00000000000E+00 -0.45593999997E+02  0.45594000000E+02  0.51100000000E-03 0.  1.
    9900012    2    1    2    0    0  0.39798720317E+02  0.46728880963E+01  0.68835605145E+01  0.50528961307E+02  0.30000308388E+02 0.  0.
        -12    1    1    2    0    0 -0.39798720317E+02 -0.46728880963E+01 -0.68835605145E+01  0.40659038693E+02  0.00000000000E+00 0.  1.
         11    1    3    3    0    0 -0.11787749771E+01  0.31899492510E+00  0.53192846924E+01  0.54576604978E+01  0.51100000000E-03 0. -1.
        -11    1    3    3    0    0  0.28654970860E+02 -0.53304022374E+01 -0.11317994124E+01  0.29168502072E+02  0.51100000000E-03 0.  1.
         12    1    3    3    0    0  0.12322524435E+02  0.96842954086E+01  0.26960752345E+01  0.15902798737E+02  0.00000000000E+00 0. -1.
</event>
<event>
 7    1  0.2702714E-011  0.5052884E+02  0.7816164E-02  0.1300439E+00
        -11   -1    0    0    0    0  0.00000000000E+00  0.00000000000E+00  0.45593999997E+02  0.45594000000E+02  0.51100000000E-03 0. -1.
         11   -1    0    0    0    0 -0.00000000000E+00 -0.00000000000E+00 -0.45593999997E+02  0.45594000000E+02  0.51100000000E-03 0.  1.
    9900012    2    1    2    0    0  0.14796314049E+02  0.66107213553E+01  0.37289870024E+02  0.50528844172E+02  0.29999952345E+02 0.  0.
        -12    1    1    2    0    0 -0.14796314049E+02 -0.66107213553E+01 -0.37289870024E+02  0.40659155828E+02  0.00000000000E+00 0.  1.
         11    1    3    3    0    0  0.58236223925E+01  0.11333363750E+02  0.26118849914E+02  0.29061211825E+02  0.51100000000E-03 0. -1.
        -11    1    3    3    0    0 -0.32220015957E+00 -0.10713153835E+00  0.11084308206E+02  0.11089507598E+02  0.51100000000E-03 0.  1.
        -12    1    3    3    0    0  0.92948918161E+01 -0.46155108564E+01  0.86711903657E-01  0.10378124748E+02  0.00000000000E+00 0.  1.
</event>
<event>
 7    1  0.2702714E-011  0.5052886E+02  0.7816164E-02  0.1300439E+00
        -11   -1    0    0    0    0  0.00000000000E+00  0.00000000000E+00  0.45593999997E+02  0.45594000000E+02  0.51100000000E-03 0.  1.
         11   -1    0    0    0    0 -0.00000000000E+00 -0.00000000000E+00 -0.45593999997E+02  0.45594000000E+02  0.51100000000E-03 0. -1.
    9900012    2    1    2    0    0 -0.22361811913E+02 -0.24537940057E+02 -0.23473492655E+02  0.50528855989E+02  0.29999988266E+02 0.  0.
        -12    1    1    2    0    0  0.22361811913E+02  0.24537940057E+02  0.23473492655E+02  0.40659144011E+02  0.00000000000E+00 0.  1.
         11    1    3    3    0    0  0.69749673516E+00 -0.59907319590E+01 -0.12531245854E+02  0.13907102287E+02  0.51100000000E-03 0. -1.
        -11    1    3    3    0    0 -0.11513887007E+02 -0.29511596798E+00 -0.95810794790E+01  0.14981781326E+02  0.51100000000E-03 0.  1.
        -12    1    3    3    0    0 -0.11545421641E+02 -0.18252092130E+02 -0.13611673212E+01  0.21639972377E+02  0.00000000000E+00 0.  1.
</event>
<event>
 7    1  0.2702714E-011  0.5052885E+02  0.7816164E-02  0.1300439E+00
        -11   -1    0    0    0    0  0.00000000000E+00  0.00000000000E+00  0.45593999997E+02  0.45594000000E+02  0.51100000000E-03 0.  1.
         11   -1    0    0    0    0 -0.00000000000E+00 -0.00000000000E+00 -0.45593999997E+02  0.45594000000E+02  0.51100000000E-03 0. -1.
    9900012    2    1    2    0    0  0.10599350042E+02  0.22218860215E+02 -0.32359578443E+02  0.50528852350E+02  0.29999977204E+02 0.  0.
        -12    1    1    2    0    0 -0.10599350042E+02 -0.22218860215E+02  0.32359578443E+02  0.40659147650E+02  0.00000000000E+00 0.  1.
         11    1    3    3    0    0  0.11865951261E+02  0.10312924748E+02 -0.20472775538E+02  0.25812627814E+02  0.51100000000E-03 0. -1.
        -11    1    3    3    0    0 -0.44127033096E+01 -0.25166541776E+01 -0.79570745227E+01  0.94403672581E+01  0.51100000000E-03 0.  1.
         12    1    3    3    0    0  0.31461020900E+01  0.14422589644E+02 -0.39297283831E+01  0.15275857278E+02  0.00000000000E+00 0. -1.
</event>
<event>
 7    1  0.2702714E-011  0.5052885E+02  0.7816164E-02  0.1300439E+00
        -11   -1    0    0    0    0  0.00000000000E+00  0.00000000000E+00  0.45593999997E+02  0.45594000000E+02  0.51100000000E-03 0.  1.
         11   -1    0    0    0    0 -0.00000000000E+00 -0.00000000000E+00 -0.45593999997E+02  0.45594000000E+02  0.51100000000E-03 0. -1.
    9900012    2    1    2    0    0  0.14125911744E+02  0.40593093876E+01 -0.37909722122E+02  0.50528850886E+02  0.29999972752E+02 0.  0.
        -12    1    1    2    0    0 -0.14125911744E+02 -0.40593093876E+01  0.37909722122E+02  0.40659149114E+02  0.00000000000E+00 0.  1.
         11    1    3    3    0    0  0.10641000596E+02 -0.33278893146E+01 -0.19619964219E+02  0.22566540213E+02  0.51100000000E-03 0. -1.
        -11    1    3    3    0    0 -0.54267938082E+01  0.33817671673E+01 -0.16930510369E+02  0.18097751845E+02  0.51100000000E-03 0.  1.
         12    1    3    3    0    0  0.89117049567E+01  0.40054315350E+01 -0.13592475344E+01  0.98645588283E+01  0.00000000000E+00 0. -1.
</event>
<event>
 7    1  0.2702714E-011  0.5052886E+02  0.7816164E-02  0.1300439E+00
        -11   -1    0    0    0    0  0.00000000000E+00  0.00000000000E+00  0.45593999997E+02  0.45594000000E+02  0.51100000000E-03 0.  1.
         11   -1    0    0    0    0 -0.00000000000E+00 -0.00000000000E+00 -0.45593999997E+02  0.45594000000E+02  0.51100000000E-03 0. -1.
    9900012    2    1    2    0    0 -0.34393628015E+01  0.40344211454E+02 -0.36987382888E+01  0.50528864751E+02  0.30000014896E+02 0.  0.
        -12    1    1    2    0    0  0.34393628015E+01 -0.40344211454E+02  0.36987382888E+01  0.40659135249E+02  0.00000000000E+00 0.  1.
         11    1    3    3    0    0  0.33596339785E+01 -0.98281791769E+00  0.11103047034E+01  0.36723083101E+01  0.51100000000E-03 0. -1.
        -11    1    3    3    0    0 -0.13409124536E+02  0.23390195184E+02 -0.62834925683E+01  0.27683715984E+02  0.51100000000E-03 0.  1.
         12    1    3    3    0    0  0.66101277562E+01  0.17936834188E+02  0.14744495761E+01  0.19172840457E+02  0.00000000000E+00 0. -1.
</event>
<event>
 7    1  0.2702714E-011  0.5052886E+02  0.7816164E-02  0.1300439E+00
        -11   -1    0    0    0    0  0.00000000000E+00  0.00000000000E+00  0.45593999997E+02  0.45594000000E+02  0.51100000000E-03 0. -1.
         11   -1    0    0    0    0 -0.00000000000E+00 -0.00000000000E+00 -0.45593999997E+02  0.45594000000E+02  0.51100000000E-03 0.  1.
    9900012    2    1    2    0    0 -0.55546612451E+01  0.48010800928E+01  0.39990761855E+02  0.50528860002E+02  0.30000000462E+02 0.  0.
        -12    1    1    2    0    0  0.55546612451E+01 -0.48010800928E+01 -0.39990761855E+02  0.40659139998E+02  0.00000000000E+00 0.  1.
         11    1    3    3    0    0  0.51922837565E+01  0.48887406989E+01  0.29165491638E+02  0.30024748109E+02  0.51100000000E-03 0.  1.
        -11    1    3    3    0    0 -0.77894847746E+01  0.77083865530E+00  0.14026072461E+02  0.16062408731E+02  0.51100000000E-03 0. -1.
        -12    1    3    3    0    0 -0.29574602270E+01 -0.85849926138E+00 -0.32008022442E+01  0.44417031624E+01  0.00000000000E+00 0.  1.
</event>
<event>
 7    1  0.3666904E-011  0.5052885E+02  0.7816164E-02  0.1300439E+00
        -11   -1    0    0    0    0  0.00000000000E+00  0.00000000000E+00  0.45593999997E+02  0.45594000000E+02  0.51100000000E-03 0.  1.
         11   -1    0    0    0    0 -0.00000000000E+00 -0.00000000000E+00 -0.45593999997E+02  0.45594000000E+02  0.51100000000E-03 0. -1.
    9900012    2    1    2    0    0 -0.68719379523E+01 -0.39183363015E+02 -0.84027815980E+01  0.50528853342E+02  0.29999980219E+02 0.  0.
        -12    1    1    2    0    0  0.68719379523E+01  0.39183363015E+02  0.84027815980E+01  0.40659146658E+02  0.00000000000E+00 0.  1.
         11    1    3    3    0    0 -0.22504626139E+01 -0.11115159775E+02 -0.60816367731E+01  0.12868475624E+02  0.51100000000E-03 0. -1.
        -11    1    3    3    0    0  0.32453613405E+00  0.12095881028E+01 -0.74270913732E+01  0.75319395648E+01  0.51100000000E-03 0.  1.
        -12    1    3    3    0    0 -0.49460114724E+01 -0.29277791343E+02  0.51059465483E+01  0.30128438153E+02  0.00000000000E+00 0.  1.
</event>
<event>
 7    1  0.2702714E-011  0.5052886E+02  0.7816164E-02  0.1300439E+00
        -11   -1    0    0    0    0  0.00000000000E+00  0.00000000000E+00  0.45593999997E+02  0.45594000000E+02  0.51100000000E-03 0.  1.
         11   -1    0    0    0    0 -0.00000000000E+00 -0.00000000000E+00 -0.45593999997E+02  0.45594000000E+02  0.51100000000E-03 0. -1.
    9900012    2    1    2    0    0  0.40071441454E+02  0.59206672664E+01  0.35200236733E+01  0.50528864646E+02  0.30000014578E+02 0.  0.
        -12    1    1    2    0    0 -0.40071441454E+02 -0.59206672664E+01 -0.35200236733E+01  0.40659135354E+02  0.00000000000E+00 0.  1.
         11    1    3    3    0    0 -0.25413202772E+01  0.41493101124E+01 -0.30103297485E+01  0.57216403781E+01  0.51100000000E-03 0. -1.
        -11    1    3    3    0    0  0.61359596839E+01  0.38593396144E+01  0.37597948941E+01  0.81658166406E+01  0.51100000000E-03 0.  1.
        -12    1    3    3    0    0  0.36476802047E+02 -0.20879824604E+01  0.27705585277E+01  0.36641407627E+02  0.00000000000E+00 0.  1.
</event>
<event>
 7    1  0.2702714E-011  0.5052886E+02  0.7816164E-02  0.1300439E+00
        -11   -1    0    0    0    0  0.00000000000E+00  0.00000000000E+00  0.45593999997E+02  0.45594000000E+02  0.51100000000E-03 0.  1.
         11   -1    0    0    0    0 -0.00000000000E+00 -0.00000000000E+00 -0.45593999997E+02  0.45594000000E+02  0.51100000000E-03 0. -1.
    9900012    2    1    2    0    0 -0.26611347022E+02 -0.30198617339E+02 -0.57484788952E+01  0.50528864629E+02  0.30000014525E+02 0.  0.
        -12    1    1    2    0    0  0.26611347022E+02  0.30198617339E+02  0.57484788952E+01  0.40659135371E+02  0.00000000000E+00 0.  1.
         11    1    3    3    0    0 -0.95175296157E+01 -0.16135902793E+02 -0.11110483489E+02  0.21780577875E+02  0.51100000000E-03 0. -1.
        -11    1    3    3    0    0  0.33186848004E+01 -0.56904291110E-01  0.16812400474E+01  0.37206820962E+01  0.51100000000E-03 0.  1.
        -12    1    3    3    0    0 -0.20412502207E+02 -0.14005810255E+02  0.36807645468E+01  0.25027604658E+02  0.00000000000E+00 0.  1.
</event>
<event>
 7    1  0.2768185E-011  0.5052886E+02  0.7816164E-02  0.1300439E+00
        -11   -1    0    0    0    0  0.00000000000E+00  0.00000000000E+00  0.45593999997E+02  0.45594000000E+02  0.51100000000E-03 0.  1.
         11   -1    0    0    0    0 -0.00000000000E+00 -0.00000000000E+00 -0.45593999997E+02  0.45594000000E+02  0.51100000000E-03 0. -1.
    9900012    2    1    2    0    0 -0.50676810813E+01 -0.37819528542E+02  0.14041642688E+02  0.50528857608E+02  0.29999993185E+02 0.  0.
        -12    1    1    2    0    0  0.50676810813E+01  0.37819528542E+02 -0.14041642688E+02  0.40659142392E+02  0.00000000000E+00 0.  1.
         11    1    3    3    0    0 -0.82664637834E+01 -0.34346739149E+02  0.90090687035E+01  0.36458143574E+02  0.51100000000E-03 0. -1.
        -11    1    3    3    0    0 -0.36867462691E+01  0.20163335507E+01  0.71152787352E+00  0.42619210711E+01  0.51100000000E-03 0.  1.
        -12    1    3    3    0    0  0.68855289712E+01 -0.54891229431E+01  0.43210461112E+01  0.98087929631E+01  0.00000000000E+00 0.  1.
</event>
<event>
 7    1  0.2702714E-011  0.5052885E+02  0.7816164E-02  0.1300439E+00
        -11   -1    0    0    0    0  0.00000000000E+00  0.00000000000E+00  0.45593999997E+02  0.45594000000E+02  0.51100000000E-03 0.  1.
         11   -1    0    0    0    0 -0.00000000000E+00 -0.00000000000E+00 -0.45593999997E+02  0.45594000000E+02  0.51100000000E-03 0. -1.
    9900012    2    1    2    0    0 -0.26474112544E+02  0.21437742156E+02 -0.22197104241E+02  0.50528845306E+02  0.29999955793E+02 0.  0.
        -12    1    1    2    0    0  0.26474112544E+02 -0.21437742156E+02  0.22197104241E+02  0.40659154694E+02  0.00000000000E+00 0.  1.
         11    1    3    3    0    0 -0.23448424618E+01  0.10276286817E+02 -0.26963747670E+01  0.10879834285E+02  0.51100000000E-03 0. -1.
        -11    1    3    3    0    0 -0.14861813852E+02  0.14801999407E+02 -0.20880780584E+02  0.29596954159E+02  0.51100000000E-03 0.  1.
        -12    1    3    3    0    0 -0.92674562304E+01 -0.36405440687E+01  0.13800511106E+01  0.10052056862E+02  0.00000000000E+00 0.  1.
</event>
<event>
 7    1  0.2702714E-011  0.5052884E+02  0.7816164E-02  0.1300439E+00
        -11   -1    0    0    0    0  0.00000000000E+00  0.00000000000E+00  0.45593999997E+02  0.45594000000E+02  0.51100000000E-03 0. -1.
         11   -1    0    0    0    0 -0.00000000000E+00 -0.00000000000E+00 -0.45593999997E+02  0.45594000000E+02  0.51100000000E-03 0.  1.
    9900012    2    1    2    0    0  0.32855821679E+02  0.10271528241E+02 -0.21636959760E+02  0.50528839430E+02  0.29999937931E+02 0.  0.
        -12    1    1    2    0    0 -0.32855821679E+02 -0.10271528241E+02  0.21636959760E+02  0.40659160570E+02  0.00000000000E+00 0.  1.
         11    1    3    3    0    0  0.96660520493E+01 -0.37050045964E+00  0.28410620095E-02  0.96731505283E+01  0.51100000000E-03 0. -1.
        -11    1    3    3    0    0  0.91459490692E+01  0.11606706633E+02  0.30928015799E+00  0.14780381515E+02  0.51100000000E-03 0.  1.
        -12    1    3    3    0    0  0.14043820560E+02 -0.96467793253E+00 -0.21949080980E+02  0.26075307387E+02  0.00000000000E+00 0.  1.
</event>
<event>
 7    1  0.2702714E-011  0.5052886E+02  0.7816164E-02  0.1300439E+00
        -11   -1    0    0    0    0  0.00000000000E+00  0.00000000000E+00  0.45593999997E+02  0.45594000000E+02  0.51100000000E-03 0.  1.
         11   -1    0    0    0    0 -0.00000000000E+00 -0.00000000000E+00 -0.45593999997E+02  0.45594000000E+02  0.51100000000E-03 0. -1.
    9900012    2    1    2    0    0 -0.12601769862E+02  0.38357695978E+02 -0.48008379858E+01  0.50528862161E+02  0.30000007026E+02 0.  0.
        -12    1    1    2    0    0  0.12601769862E+02 -0.38357695978E+02  0.48008379858E+01  0.40659137839E+02  0.00000000000E+00 0.  1.
         11    1    3    3    0    0 -0.25203708210E+01  0.27169788105E+02 -0.39356599011E+00  0.27289275351E+02  0.51100000000E-03 0. -1.
        -11    1    3    3    0    0  0.41196039534E+01 -0.13047434137E-01 -0.30038795373E+01  0.50984899239E+01  0.51100000000E-03 0.  1.
         12    1    3    3    0    0 -0.14201002994E+02  0.11200955307E+02 -0.14033924584E+01  0.18141096886E+02  0.00000000000E+00 0. -1.
</event>
<event>
 7    1  0.2702714E-011  0.5052886E+02  0.7816164E-02  0.1300439E+00
        -11   -1    0    0    0    0  0.00000000000E+00  0.00000000000E+00  0.45593999997E+02  0.45594000000E+02  0.51100000000E-03 0.  1.
         11   -1    0    0    0    0 -0.00000000000E+00 -0.00000000000E+00 -0.45593999997E+02  0.45594000000E+02  0.51100000000E-03 0. -1.
    9900012    2    1    2    0    0 -0.17236968325E+02  0.62176068011E+01 -0.36295919556E+02  0.50528862186E+02  0.30000007100E+02 0.  0.
        -12    1    1    2    0    0  0.17236968325E+02 -0.62176068011E+01  0.36295919556E+02  0.40659137814E+02  0.00000000000E+00 0.  1.
         11    1    3    3    0    0 -0.44735181910E+01 -0.10678771760E+01 -0.21413852700E+02  0.21902187434E+02  0.51100000000E-03 0. -1.
        -11    1    3    3    0    0  0.80688700506E+00  0.99880220845E+01 -0.94126898808E+01  0.13748104700E+02  0.51100000000E-03 0.  1.
        -12    1    3    3    0    0 -0.13570337139E+02 -0.27025381075E+01 -0.54693769755E+01  0.14878570052E+02  0.00000000000E+00 0.  1.
</event>
<event>
 7    1  0.2702714E-011  0.5052876E+02  0.7816164E-02  0.1300439E+00
        -11   -1    0    0    0    0  0.00000000000E+00  0.00000000000E+00  0.45593999997E+02  0.45594000000E+02  0.51100000000E-03 0.  1.
         11   -1    0    0    0    0 -0.00000000000E+00 -0.00000000000E+00 -0.45593999997E+02  0.45594000000E+02  0.51100000000E-03 0. -1.
    9900012    2    1    2    0    0  0.32464337151E+02  0.18321078986E+02 -0.16235104609E+02  0.50528760662E+02  0.29999698508E+02 0.  0.
        -12    1    1    2    0    0 -0.32464337151E+02 -0.18321078986E+02  0.16235104609E+02  0.40659239338E+02  0.00000000000E+00 0.  1.
         11    1    3    3    0    0  0.11208196935E+02  0.95248639012E+00 -0.78494691093E+01  0.13716598500E+02  0.51100000000E-03 0. -1.
        -11    1    3    3    0    0 -0.25955362442E+01 -0.27610247879E+01  0.14967235871E+01  0.40743401959E+01  0.51100000000E-03 0.  1.
        -12    1    3    3    0    0  0.23851676460E+02  0.20129617384E+02 -0.98823590864E+01  0.32737821966E+02  0.00000000000E+00 0.  1.
</event>
<event>
 7    1  0.2702714E-011  0.5052886E+02  0.7816164E-02  0.1300439E+00
        -11   -1    0    0    0    0  0.00000000000E+00  0.00000000000E+00  0.45593999997E+02  0.45594000000E+02  0.51100000000E-03 0.  1.
         11   -1    0    0    0    0 -0.00000000000E+00 -0.00000000000E+00 -0.45593999997E+02  0.45594000000E+02  0.51100000000E-03 0. -1.
    9900012    2    1    2    0    0 -0.56651407715E+01  0.17669536482E+02 -0.36178157240E+02  0.50528863257E+02  0.30000010355E+02 0.  0.
        -12    1    1    2    0    0  0.56651407715E+01 -0.17669536482E+02  0.36178157240E+02  0.40659136743E+02  0.00000000000E+00 0.  1.
         11    1    3    3    0    0 -0.12016294461E+02  0.29517388125E+01 -0.12302187394E+02  0.17448435733E+02  0.51100000000E-03 0. -1.
        -11    1    3    3    0    0  0.34316774550E+01 -0.30365631764E+01 -0.72828306188E+01  0.86044609455E+01  0.51100000000E-03 0.  1.
         12    1    3    3    0    0  0.29194762344E+01  0.17754360846E+02 -0.16593139227E+02  0.24475966578E+02  0.00000000000E+00 0. -1.
</event>
<event>
 7    1  0.2702714E-011  0.5052883E+02  0.7816164E-02  0.1300439E+00
        -11   -1    0    0    0    0  0.00000000000E+00  0.00000000000E+00  0.45593999997E+02  0.45594000000E+02  0.51100000000E-03 0. -1.
         11   -1    0    0    0    0 -0.00000000000E+00 -0.00000000000E+00 -0.45593999997E+02  0.45594000000E+02  0.51100000000E-03 0.  1.
    9900012    2    1    2    0    0 -0.21013668442E+02  0.32645653874E+02 -0.12077038324E+02  0.50528833347E+02  0.29999919441E+02 0.  0.
        -12    1    1    2    0    0  0.21013668442E+02 -0.32645653874E+02  0.12077038324E+02  0.40659166653E+02  0.00000000000E+00 0.  1.
         11    1    3    3    0    0 -0.10799868004E+02  0.17222198711E+02 -0.90224572741E+01  0.22240638769E+02  0.51100000000E-03 0.  1.
        -11    1    3    3    0    0  0.57510725525E+01  0.84910825552E+01  0.13249130078E+01  0.10340634081E+02  0.51100000000E-03 0. -1.
         12    1    3    3    0    0 -0.15964872990E+02  0.69323726084E+01 -0.43794940572E+01  0.17947560496E+02  0.00000000000E+00 0. -1.
</event>
<event>
 7    1  0.2702714E-011  0.5052887E+02  0.7816164E-02  0.1300439E+00
        -11   -1    0    0    0    0  0.00000000000E+00  0.00000000000E+00  0.45593999997E+02  0.45594000000E+02  0.51100000000E-03 0.  1.
         11   -1    0    0    0    0 -0.00000000000E+00 -0.00000000000E+00 -0.45593999997E+02  0.45594000000E+02  0.51100000000E-03 0. -1.
    9900012    2    1    2    0    0 -0.62221817123E+01 -0.38843093941E+02  0.10279265149E+02  0.50528870838E+02  0.30000033400E+02 0.  0.
        -12    1    1    2    0    0  0.62221817123E+01  0.38843093941E+02 -0.10279265149E+02  0.40659129162E+02  0.00000000000E+00 0.  1.
         11    1    3    3    0    0  0.68669302101E+00  0.89132833150E+00  0.88275137985E+01  0.88989332858E+01  0.51100000000E-03 0. -1.
        -11    1    3    3    0    0 -0.22044135607E+00 -0.32592504046E+01 -0.28015521413E+01  0.43034872200E+01  0.51100000000E-03 0.  1.
         12    1    3    3    0    0 -0.66884333772E+01 -0.36475171868E+02  0.42533034922E+01  0.37326450333E+02  0.00000000000E+00 0. -1.
</event>
<event>
 7    1  0.3159928E-011  0.5052887E+02  0.7816164E-02  0.1300439E+00
        -11   -1    0    0    0    0  0.00000000000E+00  0.00000000000E+00  0.45593999997E+02  0.45594000000E+02  0.51100000000E-03 0.  1.
         11   -1    0    0    0    0 -0.00000000000E+00 -0.00000000000E+00 -0.45593999997E+02  0.45594000000E+02  0.51100000000E-03 0. -1.
    9900012    2    1    2    0    0 -0.32602390983E+02 -0.14085921604E+02  0.19794837300E+02  0.50528872255E+02  0.30000037705E+02 0.  0.
        -12    1    1    2    0    0  0.32602390983E+02  0.14085921604E+02 -0.19794837300E+02  0.40659127745E+02  0.00000000000E+00 0.  1.
         11    1    3    3    0    0 -0.16501897704E+02 -0.10177025850E+02  0.51629750826E+01  0.20063419324E+02  0.51100000000E-03 0. -1.
        -11    1    3    3    0    0 -0.50196001684E+01 -0.11947317513E+02  0.82434982748E+01  0.15358712370E+02  0.51100000000E-03 0.  1.
        -12    1    3    3    0    0 -0.11080893111E+02  0.80384217586E+01  0.63883639429E+01  0.15106740561E+02  0.00000000000E+00 0.  1.
</event>
<event>
 7    1  0.2702714E-011  0.5052886E+02  0.7816164E-02  0.1300439E+00
        -11   -1    0    0    0    0  0.00000000000E+00  0.00000000000E+00  0.45593999997E+02  0.45594000000E+02  0.51100000000E-03 0.  1.
         11   -1    0    0    0    0 -0.00000000000E+00 -0.00000000000E+00 -0.45593999997E+02  0.45594000000E+02  0.51100000000E-03 0. -1.
    9900012    2    1    2    0    0 -0.21450662338E+01  0.35553542404E+00 -0.40600955878E+02  0.50528864092E+02  0.30000012894E+02 0.  0.
        -12    1    1    2    0    0  0.21450662338E+01 -0.35553542404E+00  0.40600955878E+02  0.40659135908E+02  0.00000000000E+00 0.  1.
         11    1    3    3    0    0  0.91050091994E+00 -0.75657593793E+01 -0.60240049621E+01  0.97138232924E+01  0.51100000000E-03 0. -1.
        -11    1    3    3    0    0  0.66299368499E+01  0.24758549175E+01 -0.36714089254E+01  0.79727764276E+01  0.51100000000E-03 0.  1.
         12    1    3    3    0    0 -0.96855040036E+01  0.54454398859E+01 -0.30905541990E+02  0.32842264372E+02  0.00000000000E+00 0. -1.
</event>
<event>
 7    1  0.2702714E-011  0.5052886E+02  0.7816164E-02  0.1300439E+00
        -11   -1    0    0    0    0  0.00000000000E+00  0.00000000000E+00  0.45593999997E+02  0.45594000000E+02  0.51100000000E-03 0.  1.
         11   -1    0    0    0    0 -0.00000000000E+00 -0.00000000000E+00 -0.45593999997E+02  0.45594000000E+02  0.51100000000E-03 0. -1.
    9900012    2    1    2    0    0  0.35696415746E+02 -0.18279902553E+02 -0.66915344273E+01  0.50528861206E+02  0.30000004123E+02 0.  0.
        -12    1    1    2    0    0 -0.35696415746E+02  0.18279902553E+02  0.66915344273E+01  0.40659138794E+02  0.00000000000E+00 0.  1.
         11    1    3    3    0    0  0.10106716912E+02  0.22151043703E+01 -0.33761293037E+01  0.10883504190E+02  0.51100000000E-03 0. -1.
        -11    1    3    3    0    0  0.19903746040E+02 -0.19036317496E+01 -0.28643036891E+01  0.20198691942E+02  0.51100000000E-03 0.  1.
         12    1    3    3    0    0  0.56859527930E+01 -0.18591375174E+02 -0.45110143447E+00  0.19446665075E+02  0.00000000000E+00 0. -1.
</event>
<event>
 7    1  0.2702714E-011  0.5052887E+02  0.7816164E-02  0.1300439E+00
        -11   -1    0    0    0    0  0.00000000000E+00  0.00000000000E+00  0.45593999997E+02  0.45594000000E+02  0.51100000000E-03 0.  1.
         11   -1    0    0    0    0 -0.00000000000E+00 -0.00000000000E+00 -0.45593999997E+02  0.45594000000E+02  0.51100000000E-03 0. -1.
    9900012    2    1    2    0    0 -0.26736608512E+02  0.59197495444E+01 -0.30054543208E+02  0.50528865272E+02  0.30000016482E+02 0.  0.
        -12    1    1    2    0    0  0.26736608512E+02 -0.59197495444E+01  0.30054543208E+02  0.40659134728E+02  0.00000000000E+00 0.  1.
         11    1    3    3    0    0 -0.63845035400E+01  0.10217624005E+02 -0.10892204544E+02  0.16241977892E+02  0.51100000000E-03 0. -1.
        -11    1    3    3    0    0 -0.29968365105E+01  0.17540557555E+01  0.36189487464E+01  0.50154292891E+01  0.51100000000E-03 0.  1.
         12    1    3    3    0    0 -0.17355268461E+02 -0.60519302162E+01 -0.22781287410E+02  0.29271458091E+02  0.00000000000E+00 0. -1.
</event>
<event>
 7    1  0.2702714E-011  0.5052886E+02  0.7816164E-02  0.1300439E+00
        -11   -1    0    0    0    0  0.00000000000E+00  0.00000000000E+00  0.45593999997E+02  0.45594000000E+02  0.51100000000E-03 0.  1.
         11   -1    0    0    0    0 -0.00000000000E+00 -0.00000000000E+00 -0.45593999997E+02  0.45594000000E+02  0.51100000000E-03 0. -1.
    9900012    2    1    2    0    0 -0.16210759018E+02  0.32513456082E+02 -0.18255200766E+02  0.50528857248E+02  0.29999992090E+02 0.  0.
        -12    1    1    2    0    0  0.16210759018E+02 -0.32513456082E+02  0.18255200766E+02  0.40659142752E+02  0.00000000000E+00 0.  1.
         11    1    3    3    0    0 -0.63014001183E+01  0.58186569955E+01 -0.78083748053E+00  0.86124398468E+01  0.51100000000E-03 0.  1.
        -11    1    3    3    0    0  0.76340507309E+01  0.15030624115E+02 -0.57823914674E+01  0.17822301849E+02  0.51100000000E-03 0. -1.
         12    1    3    3    0    0 -0.17543409631E+02  0.11664174972E+02 -0.11691971819E+02  0.24094115552E+02  0.00000000000E+00 0. -1.
</event>
<event>
 7    1  0.2702714E-011  0.5052886E+02  0.7816164E-02  0.1300439E+00
        -11   -1    0    0    0    0  0.00000000000E+00  0.00000000000E+00  0.45593999997E+02  0.45594000000E+02  0.51100000000E-03 0.  1.
         11   -1    0    0    0    0 -0.00000000000E+00 -0.00000000000E+00 -0.45593999997E+02  0.45594000000E+02  0.51100000000E-03 0. -1.
    9900012    2    1    2    0    0  0.32040211795E+02  0.11668407670E+02 -0.22145852375E+02  0.50528859738E+02  0.29999999660E+02 0.  0.
        -12    1    1    2    0    0 -0.32040211795E+02 -0.11668407670E+02  0.22145852375E+02  0.40659140262E+02  0.00000000000E+00 0.  1.
         11    1    3    3    0    0  0.14765677646E+02  0.12854845754E+01 -0.65889320823E+01  0.16220102749E+02  0.51100000000E-03 0. -1.
        -11    1    3    3    0    0  0.13441773286E+02  0.13647637423E+02 -0.19927710322E+02  0.27641507109E+02  0.51100000000E-03 0.  1.
        -12    1    3    3    0    0  0.38327608632E+01 -0.32647143284E+01  0.43707900298E+01  0.66672498802E+01  0.00000000000E+00 0.  1.
</event>
<event>
 7    1  0.2702714E-011  0.5052886E+02  0.7816164E-02  0.1300439E+00
        -11   -1    0    0    0    0  0.00000000000E+00  0.00000000000E+00  0.45593999997E+02  0.45594000000E+02  0.51100000000E-03 0.  1.
         11   -1    0    0    0    0 -0.00000000000E+00 -0.00000000000E+00 -0.45593999997E+02  0.45594000000E+02  0.51100000000E-03 0. -1.
    9900012    2    1    2    0    0  0.29961091143E+02 -0.13876257867E+02 -0.23726526949E+02  0.50528860857E+02  0.30000003060E+02 0.  0.
        -12    1    1    2    0    0 -0.29961091143E+02  0.13876257867E+02  0.23726526949E+02  0.40659139143E+02  0.00000000000E+00 0.  1.
         11    1    3    3    0    0  0.10914743929E+01 -0.28677190108E+01 -0.15152665192E+02  0.15460219641E+02  0.51100000000E-03 0. -1.
        -11    1    3    3    0    0  0.18839444531E+02 -0.33427480841E+01 -0.11205048812E+02  0.22173221555E+02  0.51100000000E-03 0.  1.
        -12    1    3    3    0    0  0.10030172218E+02 -0.76657907716E+01  0.26311870552E+01  0.12895419660E+02  0.00000000000E+00 0.  1.
</event>
<event>
 7    1  0.2702714E-011  0.5052886E+02  0.7816164E-02  0.1300439E+00
        -11   -1    0    0    0    0  0.00000000000E+00  0.00000000000E+00  0.45593999997E+02  0.45594000000E+02  0.51100000000E-03 0.  1.
         11   -1    0    0    0    0 -0.00000000000E+00 -0.00000000000E+00 -0.45593999997E+02  0.45594000000E+02  0.51100000000E-03 0. -1.
    9900012    2    1    2    0    0  0.29133857752E+02 -0.16039040050E+02 -0.23390879285E+02  0.50528859490E+02  0.29999998907E+02 0.  0.
        -12    1    1    2    0    0 -0.29133857752E+02  0.16039040050E+02  0.23390879285E+02  0.40659140510E+02  0.00000000000E+00 0.  1.
         11    1    3    3    0    0  0.13625318472E+02 -0.40120997520E+01 -0.13241030353E+02  0.19418319519E+02  0.51100000000E-03 0. -1.
        -11    1    3    3    0    0  0.12092840575E+02  0.33587169694E+01 -0.35714511065E+00  0.12555688979E+02  0.51100000000E-03 0.  1.
        -12    1    3    3    0    0  0.34156987054E+01 -0.15385657267E+02 -0.97927038213E+01  0.18554850992E+02  0.00000000000E+00 0.  1.
</event>
<event>
 7    1  0.2702714E-011  0.5052886E+02  0.7816164E-02  0.1300439E+00
        -11   -1    0    0    0    0  0.00000000000E+00  0.00000000000E+00  0.45593999997E+02  0.45594000000E+02  0.51100000000E-03 0.  1.
         11   -1    0    0    0    0 -0.00000000000E+00 -0.00000000000E+00 -0.45593999997E+02  0.45594000000E+02  0.51100000000E-03 0. -1.
    9900012    2    1    2    0    0 -0.18499277401E+02 -0.33696196624E+02 -0.13247977419E+02  0.50528857892E+02  0.29999994048E+02 0.  0.
        -12    1    1    2    0    0  0.18499277401E+02  0.33696196624E+02  0.13247977419E+02  0.40659142108E+02  0.00000000000E+00 0.  1.
         11    1    3    3    0    0 -0.40627453137E+01 -0.23984113614E+02 -0.44995060162E+01  0.24738414662E+02  0.51100000000E-03 0. -1.
        -11    1    3    3    0    0  0.65106931302E+00  0.33509809969E+01  0.10313436225E+01  0.35660390941E+01  0.51100000000E-03 0.  1.
         12    1    3    3    0    0 -0.15087601400E+02 -0.13063064007E+02 -0.97798150251E+01  0.22224404136E+02  0.00000000000E+00 0. -1.
</event>
<event>
 7    1  0.2702714E-011  0.5052884E+02  0.7816164E-02  0.1300439E+00
        -11   -1    0    0    0    0  0.00000000000E+00  0.00000000000E+00  0.45593999997E+02  0.45594000000E+02  0.51100000000E-03 0.  1.
         11   -1    0    0    0    0 -0.00000000000E+00 -0.00000000000E+00 -0.45593999997E+02  0.45594000000E+02  0.51100000000E-03 0. -1.
    9900012    2    1    2    0    0 -0.23607179451E+02 -0.88302192968E+01 -0.31904482386E+02  0.50528835095E+02  0.29999924753E+02 0.  0.
        -12    1    1    2    0    0  0.23607179451E+02  0.88302192968E+01  0.31904482386E+02  0.40659164905E+02  0.00000000000E+00 0.  1.
         11    1    3    3    0    0 -0.61378480796E+01  0.73122828915E+01 -0.31071967040E+01  0.10039787436E+02  0.51100000000E-03 0.  1.
        -11    1    3    3    0    0 -0.61809114460E+01 -0.27424683795E+01 -0.19531146514E+02  0.20668586877E+02  0.51100000000E-03 0. -1.
        -12    1    3    3    0    0 -0.11288419926E+02 -0.13400033809E+02 -0.92661391687E+01  0.19820460781E+02  0.00000000000E+00 0.  1.
</event>
<event>
 7    1  0.2702714E-011  0.5052886E+02  0.7816164E-02  0.1300439E+00
        -11   -1    0    0    0    0  0.00000000000E+00  0.00000000000E+00  0.45593999997E+02  0.45594000000E+02  0.51100000000E-03 0.  1.
         11   -1    0    0    0    0 -0.00000000000E+00 -0.00000000000E+00 -0.45593999997E+02  0.45594000000E+02  0.51100000000E-03 0. -1.
    9900012    2    1    2    0    0 -0.18794205873E+02 -0.24079006133E+02 -0.26835514414E+02  0.50528861487E+02  0.30000004974E+02 0.  0.
        -12    1    1    2    0    0  0.18794205873E+02  0.24079006133E+02  0.26835514414E+02  0.40659138513E+02  0.00000000000E+00 0.  1.
         11    1    3    3    0    0 -0.14277473745E+02 -0.13366203267E+02 -0.20916595235E+02  0.28635739956E+02  0.51100000000E-03 0. -1.
        -11    1    3    3    0    0 -0.87330254921E+01 -0.11485110919E+02  0.19109613692E+00  0.14429484574E+02  0.51100000000E-03 0.  1.
         12    1    3    3    0    0  0.42162933641E+01  0.77230805285E+00 -0.61100153162E+01  0.74636369569E+01  0.00000000000E+00 0. -1.
</event>
<event>
 7    1  0.2702714E-011  0.5052881E+02  0.7816164E-02  0.1300439E+00
        -11   -1    0    0    0    0  0.00000000000E+00  0.00000000000E+00  0.45593999997E+02  0.45594000000E+02  0.51100000000E-03 0.  1.
         11   -1    0    0    0    0 -0.00000000000E+00 -0.00000000000E+00 -0.45593999997E+02  0.45594000000E+02  0.51100000000E-03 0. -1.
    9900012    2    1    2    0    0  0.18543985008E+02 -0.29768045640E+02 -0.20570707316E+02  0.50528807672E+02  0.29999841401E+02 0.  0.
        -12    1    1    2    0    0 -0.18543985008E+02  0.29768045640E+02  0.20570707316E+02  0.40659192328E+02  0.00000000000E+00 0.  1.
         11    1    3    3    0    0  0.21510692031E+02 -0.23980068453E+02 -0.23012796651E+02  0.39589674975E+02  0.51100000000E-03 0. -1.
        -11    1    3    3    0    0  0.28322267544E+01 -0.10914666938E+01  0.15954409493E+01  0.34290290194E+01  0.51100000000E-03 0.  1.
        -12    1    3    3    0    0 -0.57989337770E+01 -0.46965104939E+01  0.84664838558E+00  0.75101036783E+01  0.00000000000E+00 0.  1.
</event>
<event>
 7    1  0.2702714E-011  0.5052886E+02  0.7816164E-02  0.1300439E+00
        -11   -1    0    0    0    0  0.00000000000E+00  0.00000000000E+00  0.45593999997E+02  0.45594000000E+02  0.51100000000E-03 0. -1.
         11   -1    0    0    0    0 -0.00000000000E+00 -0.00000000000E+00 -0.45593999997E+02  0.45594000000E+02  0.51100000000E-03 0.  1.
    9900012    2    1    2    0    0  0.84356531268E+00  0.36705785056E+02  0.17468234512E+02  0.50528862331E+02  0.30000007541E+02 0.  0.
        -12    1    1    2    0    0 -0.84356531268E+00 -0.36705785056E+02 -0.17468234512E+02  0.40659137669E+02  0.00000000000E+00 0.  1.
         11    1    3    3    0    0  0.68304208738E+01  0.36136826159E+01  0.89299124780E+01  0.11809178146E+02  0.51100000000E-03 0. -1.
        -11    1    3    3    0    0 -0.68329466922E+01  0.44358067575E+01  0.56323768032E+01  0.99039997376E+01  0.51100000000E-03 0.  1.
        -12    1    3    3    0    0  0.84609113101E+00  0.28656295683E+02  0.29059452307E+01  0.28815684447E+02  0.00000000000E+00 0.  1.
</event>
<event>
 7    1  0.2702714E-011  0.5052885E+02  0.7816164E-02  0.1300439E+00
        -11   -1    0    0    0    0  0.00000000000E+00  0.00000000000E+00  0.45593999997E+02  0.45594000000E+02  0.51100000000E-03 0.  1.
         11   -1    0    0    0    0 -0.00000000000E+00 -0.00000000000E+00 -0.45593999997E+02  0.45594000000E+02  0.51100000000E-03 0. -1.
    9900012    2    1    2    0    0  0.88930659992E+01 -0.38995301257E+02 -0.73106909189E+01  0.50528851648E+02  0.29999975070E+02 0.  0.
        -12    1    1    2    0    0 -0.88930659992E+01  0.38995301257E+02  0.73106909189E+01  0.40659148352E+02  0.00000000000E+00 0.  1.
         11    1    3    3    0    0  0.12083916089E+02 -0.10095929171E+02  0.37710562588E+01  0.16191654624E+02  0.51100000000E-03 0. -1.
        -11    1    3    3    0    0  0.49892021932E+00 -0.17562891431E+02  0.68925422142E+00  0.17583490793E+02  0.51100000000E-03 0.  1.
         12    1    3    3    0    0 -0.36897703094E+01 -0.11336480654E+02 -0.11771001399E+02  0.16753706232E+02  0.00000000000E+00 0. -1.
</event>
<event>
 7    1  0.2702714E-011  0.5052886E+02  0.7816164E-02  0.1300439E+00
        -11   -1    0    0    0    0  0.00000000000E+00  0.00000000000E+00  0.45593999997E+02  0.45594000000E+02  0.51100000000E-03 0.  1.
         11   -1    0    0    0    0 -0.00000000000E+00 -0.00000000000E+00 -0.45593999997E+02  0.45594000000E+02  0.51100000000E-03 0. -1.
    9900012    2    1    2    0    0  0.26487363841E+02  0.22050801356E+02 -0.21571911689E+02  0.50528860097E+02  0.30000000752E+02 0.  0.
        -12    1    1    2    0    0 -0.26487363841E+02 -0.22050801356E+02  0.21571911689E+02  0.40659139903E+02  0.00000000000E+00 0.  1.
         11    1    3    3    0    0  0.71079777646E+01  0.57507050941E+01 -0.88588225405E+01  0.12730777433E+02  0.51100000000E-03 0. -1.
        -11    1    3    3    0    0  0.11777075901E+02  0.22278632308E+02 -0.56594550433E+01  0.25827628732E+02  0.51100000000E-03 0.  1.
         12    1    3    3    0    0  0.76023101753E+01 -0.59785360455E+01 -0.70536341054E+01  0.11970453932E+02  0.00000000000E+00 0. -1.
</event>
<event>
 7    1  0.2702714E-011  0.5052886E+02  0.7816164E-02  0.1300439E+00
        -11   -1    0    0    0    0  0.00000000000E+00  0.00000000000E+00  0.45593999997E+02  0.45594000000E+02  0.51100000000E-03 0.  1.
         11   -1    0    0    0    0 -0.00000000000E+00 -0.00000000000E+00 -0.45593999997E+02  0.45594000000E+02  0.51100000000E-03 0. -1.
    9900012    2    1    2    0    0  0.37912973182E+01  0.38284330478E+02 -0.13156815880E+02  0.50528859581E+02  0.29999999184E+02 0.  0.
        -12    1    1    2    0    0 -0.37912973182E+01 -0.38284330478E+02  0.13156815880E+02  0.40659140419E+02  0.00000000000E+00 0.  1.
         11    1    3    3    0    0 -0.25877393805E+01 -0.30325108064E+01  0.24711022210E+01  0.46902945899E+01  0.51100000000E-03 0. -1.
        -11    1    3    3    0    0 -0.87893635848E+00  0.93992090084E+01  0.28183621353E+00  0.94444211585E+01  0.51100000000E-03 0.  1.
         12    1    3    3    0    0  0.72579730571E+01  0.31917632276E+02 -0.15909754315E+02  0.36394143833E+02  0.00000000000E+00 0. -1.
</event>
<event>
 7    1  0.2702714E-011  0.5052888E+02  0.7816164E-02  0.1300439E+00
        -11   -1    0    0    0    0  0.00000000000E+00  0.00000000000E+00  0.45593999997E+02  0.45594000000E+02  0.51100000000E-03 0.  1.
         11   -1    0    0    0    0 -0.00000000000E+00 -0.00000000000E+00 -0.45593999997E+02  0.45594000000E+02  0.51100000000E-03 0. -1.
    9900012    2    1    2    0    0  0.17369287942E+02 -0.63124939457E+00 -0.36756952298E+02  0.50528878248E+02  0.30000055923E+02 0.  0.
        -12    1    1    2    0    0 -0.17369287942E+02  0.63124939457E+00  0.36756952298E+02  0.40659121752E+02  0.00000000000E+00 0.  1.
         11    1    3    3    0    0  0.12720898966E+02  0.30118860436E+01 -0.11838755441E+02  0.17636577295E+02  0.51100000000E-03 0. -1.
        -11    1    3    3    0    0  0.10605364467E+02  0.37935774403E+01 -0.93448892228E+01  0.14635297746E+02  0.51100000000E-03 0.  1.
        -12    1    3    3    0    0 -0.59569754905E+01 -0.74367128785E+01 -0.15573307634E+02  0.18257003207E+02  0.00000000000E+00 0.  1.
</event>
<event>
 7    1  0.2702714E-011  0.5052889E+02  0.7816164E-02  0.1300439E+00
        -11   -1    0    0    0    0  0.00000000000E+00  0.00000000000E+00  0.45593999997E+02  0.45594000000E+02  0.51100000000E-03 0.  1.
         11   -1    0    0    0    0 -0.00000000000E+00 -0.00000000000E+00 -0.45593999997E+02  0.45594000000E+02  0.51100000000E-03 0. -1.
    9900012    2    1    2    0    0 -0.28188674309E+02  0.23765823364E+02 -0.17139066574E+02  0.50528888813E+02  0.30000088036E+02 0.  0.
        -12    1    1    2    0    0  0.28188674309E+02 -0.23765823364E+02  0.17139066574E+02  0.40659111187E+02  0.00000000000E+00 0.  1.
         11    1    3    3    0    0  0.22133920702E+01  0.27692296078E+01 -0.48916047482E+01  0.60411533957E+01  0.51100000000E-03 0. -1.
        -11    1    3    3    0    0  0.23726560811E+01  0.61950680010E+01 -0.33951031764E+01  0.74521869445E+01  0.51100000000E-03 0.  1.
        -12    1    3    3    0    0 -0.32774722460E+02  0.14801525755E+02 -0.88523586496E+01  0.37035548473E+02  0.00000000000E+00 0.  1.
</event>
<event>
 7    1  0.2702714E-011  0.5052887E+02  0.7816164E-02  0.1300439E+00
        -11   -1    0    0    0    0  0.00000000000E+00  0.00000000000E+00  0.45593999997E+02  0.45594000000E+02  0.51100000000E-03 0.  1.
         11   -1    0    0    0    0 -0.00000000000E+00 -0.00000000000E+00 -0.45593999997E+02  0.45594000000E+02  0.51100000000E-03 0. -1.
    9900012    2    1    2    0    0 -0.55265157710E+01  0.36868987940E+02 -0.16226524062E+02  0.50528871487E+02  0.30000035372E+02 0.  0.
        -12    1    1    2    0    0  0.55265157710E+01 -0.36868987940E+02  0.16226524062E+02  0.40659128513E+02  0.00000000000E+00 0.  1.
         11    1    3    3    0    0 -0.71844709230E+01  0.18312351350E+02 -0.52009714125E+01  0.20347209595E+02  0.51100000000E-03 0. -1.
        -11    1    3    3    0    0  0.65405307083E+01  0.17199153239E+02 -0.39510090860E+00  0.18405040589E+02  0.51100000000E-03 0.  1.
        -12    1    3    3    0    0 -0.48825755564E+01  0.13574833516E+01 -0.10630451741E+02  0.11776621304E+02  0.00000000000E+00 0.  1.
</event>
<event>
 7    1  0.2702714E-011  0.5052885E+02  0.7816164E-02  0.1300439E+00
        -11   -1    0    0    0    0  0.00000000000E+00  0.00000000000E+00  0.45593999997E+02  0.45594000000E+02  0.51100000000E-03 0. -1.
         11   -1    0    0    0    0 -0.00000000000E+00 -0.00000000000E+00 -0.45593999997E+02  0.45594000000E+02  0.51100000000E-03 0.  1.
    9900012    2    1    2    0    0  0.24527788301E+02  0.32391441067E+02 -0.15325123228E+01  0.50528850386E+02  0.29999971234E+02 0.  0.
        -12    1    1    2    0    0 -0.24527788301E+02 -0.32391441067E+02  0.15325123228E+01  0.40659149614E+02  0.00000000000E+00 0.  1.
         11    1    3    3    0    0  0.13526507187E+02  0.24641816265E+02  0.31215142166E+00  0.28111971548E+02  0.51100000000E-03 0. -1.
        -11    1    3    3    0    0  0.41685055450E+01  0.10704119174E+02 -0.69169293605E+01  0.13408896965E+02  0.51100000000E-03 0.  1.
         12    1    3    3    0    0  0.68327755682E+01 -0.29544943725E+01  0.50722656160E+01  0.90079818740E+01  0.00000000000E+00 0. -1.
</event>
<event>
 7    1  0.2702714E-011  0.5052886E+02  0.7816164E-02  0.1300439E+00
        -11   -1    0    0    0    0  0.00000000000E+00  0.00000000000E+00  0.45593999997E+02  0.45594000000E+02  0.51100000000E-03 0.  1.
         11   -1    0    0    0    0 -0.00000000000E+00 -0.00000000000E+00 -0.45593999997E+02  0.45594000000E+02  0.51100000000E-03 0. -1.
    9900012    2    1    2    0    0  0.73485487620E+01 -0.27816461975E+02 -0.28729930325E+02  0.50528860533E+02  0.30000002075E+02 0.  0.
        -12    1    1    2    0    0 -0.73485487620E+01  0.27816461975E+02  0.28729930325E+02  0.40659139467E+02  0.00000000000E+00 0.  1.
         11    1    3    3    0    0 -0.17995598427E+01 -0.55589900880E+01 -0.98870434332E+00  0.59260714614E+01  0.51100000000E-03 0. -1.
        -11    1    3    3    0    0  0.13084446826E+02 -0.16901573255E+02 -0.64925022077E+01  0.22338722264E+02  0.51100000000E-03 0.  1.
         12    1    3    3    0    0 -0.39363382210E+01 -0.53558986325E+01 -0.21248723774E+02  0.22264066807E+02  0.00000000000E+00 0. -1.
</event>
<event>
 7    1  0.2702714E-011  0.5052887E+02  0.7816164E-02  0.1300439E+00
        -11   -1    0    0    0    0  0.00000000000E+00  0.00000000000E+00  0.45593999997E+02  0.45594000000E+02  0.51100000000E-03 0.  1.
         11   -1    0    0    0    0 -0.00000000000E+00 -0.00000000000E+00 -0.45593999997E+02  0.45594000000E+02  0.51100000000E-03 0. -1.
    9900012    2    1    2    0    0 -0.25197155715E+02 -0.11775795878E+02 -0.29658034974E+02  0.50528867407E+02  0.30000022971E+02 0.  0.
        -12    1    1    2    0    0  0.25197155715E+02  0.11775795878E+02  0.29658034974E+02  0.40659132593E+02  0.00000000000E+00 0.  1.
         11    1    3    3    0    0  0.28070429060E+01  0.30869276067E+01 -0.23738064156E+01  0.48003717653E+01  0.51100000000E-03 0.  1.
        -11    1    3    3    0    0 -0.24273776746E+02 -0.10825697541E+02 -0.11400002776E+02  0.28920097308E+02  0.51100000000E-03 0. -1.
         12    1    3    3    0    0 -0.37304218747E+01 -0.40370259438E+01 -0.15884225783E+02  0.16808398334E+02  0.00000000000E+00 0. -1.
</event>
<event>
 7    1  0.2702714E-011  0.5052886E+02  0.7816164E-02  0.1300439E+00
        -11   -1    0    0    0    0  0.00000000000E+00  0.00000000000E+00  0.45593999997E+02  0.45594000000E+02  0.51100000000E-03 0.  1.
         11   -1    0    0    0    0 -0.00000000000E+00 -0.00000000000E+00 -0.45593999997E+02  0.45594000000E+02  0.51100000000E-03 0. -1.
    9900012    2    1    2    0    0  0.14964831410E+02 -0.35010462467E+02 -0.14264883956E+02  0.50528861106E+02  0.30000003819E+02 0.  0.
        -12    1    1    2    0    0 -0.14964831410E+02  0.35010462467E+02  0.14264883956E+02  0.40659138894E+02  0.00000000000E+00 0.  1.
         11    1    3    3    0    0  0.15273287219E+02 -0.28478170993E+02 -0.38349603642E+01  0.32542071951E+02  0.51100000000E-03 0. -1.
        -11    1    3    3    0    0  0.42857435482E+01 -0.82590420313E+01 -0.88219832353E+01  0.12822120008E+02  0.51100000000E-03 0.  1.
        -12    1    3    3    0    0 -0.45941993568E+01  0.17267505572E+01 -0.16079403560E+01  0.51646691477E+01  0.00000000000E+00 0.  1.
</event>
<event>
 7    1  0.2702714E-011  0.5052887E+02  0.7816164E-02  0.1300439E+00
        -11   -1    0    0    0    0  0.00000000000E+00  0.00000000000E+00  0.45593999997E+02  0.45594000000E+02  0.51100000000E-03 0.  1.
         11   -1    0    0    0    0 -0.00000000000E+00 -0.00000000000E+00 -0.45593999997E+02  0.45594000000E+02  0.51100000000E-03 0. -1.
    9900012    2    1    2    0    0 -0.17271104908E+02  0.27255973341E+02 -0.24738342711E+02  0.50528871288E+02  0.30000034768E+02 0.  0.
        -12    1    1    2    0    0  0.17271104908E+02 -0.27255973341E+02  0.24738342711E+02  0.40659128712E+02  0.00000000000E+00 0.  1.
         11    1    3    3    0    0 -0.14751073497E+02  0.14927179454E+02 -0.18732549608E+02  0.28130468728E+02  0.51100000000E-03 0. -1.
        -11    1    3    3    0    0  0.39234756622E+01  0.12695069018E+02 -0.81616542646E+01  0.15593942389E+02  0.51100000000E-03 0.  1.
        -12    1    3    3    0    0 -0.64435070734E+01 -0.36627513063E+00  0.21558611618E+01  0.68044601714E+01  0.00000000000E+00 0.  1.
</event>
<event>
 7    1  0.2702714E-011  0.5052886E+02  0.7816164E-02  0.1300439E+00
        -11   -1    0    0    0    0  0.00000000000E+00  0.00000000000E+00  0.45593999997E+02  0.45594000000E+02  0.51100000000E-03 0. -1.
         11   -1    0    0    0    0 -0.00000000000E+00 -0.00000000000E+00 -0.45593999997E+02  0.45594000000E+02  0.51100000000E-03 0.  1.
    9900012    2    1    2    0    0  0.49565302803E+01 -0.27037718726E+02  0.29959308867E+02  0.50528860633E+02  0.30000002380E+02 0.  0.
        -12    1    1    2    0    0 -0.49565302803E+01  0.27037718726E+02 -0.29959308867E+02  0.40659139367E+02  0.00000000000E+00 0.  1.
         11    1    3    3    0    0 -0.42041623822E+01 -0.17838454868E+01  0.66387598611E+01  0.80579289406E+01  0.51100000000E-03 0. -1.
        -11    1    3    3    0    0  0.43996228832E+01  0.85778628233E+00 -0.27563959998E+01  0.52621476594E+01  0.51100000000E-03 0.  1.
         12    1    3    3    0    0  0.47610697793E+01 -0.26111659521E+02  0.26076945005E+02  0.37208784033E+02  0.00000000000E+00 0. -1.
</event>
<event>
 7    1  0.2702714E-011  0.5052887E+02  0.7816164E-02  0.1300439E+00
        -11   -1    0    0    0    0  0.00000000000E+00  0.00000000000E+00  0.45593999997E+02  0.45594000000E+02  0.51100000000E-03 0. -1.
         11   -1    0    0    0    0 -0.00000000000E+00 -0.00000000000E+00 -0.45593999997E+02  0.45594000000E+02  0.51100000000E-03 0.  1.
    9900012    2    1    2    0    0  0.65544095910E+01  0.90734617039E+01  0.39088069461E+02  0.50528866136E+02  0.30000019108E+02 0.  0.
        -12    1    1    2    0    0 -0.65544095910E+01 -0.90734617039E+01 -0.39088069461E+02  0.40659133864E+02  0.00000000000E+00 0.  1.
         11    1    3    3    0    0  0.50352507534E+01  0.37454648410E+01  0.26855734886E+02  0.27579208718E+02  0.51100000000E-03 0. -1.
        -11    1    3    3    0    0 -0.30002757109E+01  0.96908536202E+01  0.11484436485E+01  0.10209467239E+02  0.51100000000E-03 0.  1.
         12    1    3    3    0    0  0.45194345485E+01 -0.43628567573E+01  0.11083890927E+02  0.12740190179E+02  0.00000000000E+00 0. -1.
</event>
<event>
 7    1  0.2848036E-011  0.5052885E+02  0.7816164E-02  0.1300439E+00
        -11   -1    0    0    0    0  0.00000000000E+00  0.00000000000E+00  0.45593999997E+02  0.45594000000E+02  0.51100000000E-03 0. -1.
         11   -1    0    0    0    0 -0.00000000000E+00 -0.00000000000E+00 -0.45593999997E+02  0.45594000000E+02  0.51100000000E-03 0.  1.
    9900012    2    1    2    0    0  0.33247958346E+02 -0.10077543243E+02  0.21123034212E+02  0.50528853596E+02  0.29999980990E+02 0.  0.
        -12    1    1    2    0    0 -0.33247958346E+02  0.10077543243E+02 -0.21123034212E+02  0.40659146404E+02  0.00000000000E+00 0.  1.
         11    1    3    3    0    0  0.11372579820E+02  0.15136889182E+01  0.16743675297E+02  0.20297228594E+02  0.51100000000E-03 0. -1.
        -11    1    3    3    0    0 -0.18293322429E+01 -0.39812212844E+01  0.29745845614E+01  0.52957278012E+01  0.51100000000E-03 0.  1.
         12    1    3    3    0    0  0.23704710769E+02 -0.76100108766E+01  0.14047743539E+01  0.24935897200E+02  0.00000000000E+00 0. -1.
</event>
<event>
 7    1  0.2702714E-011  0.5052886E+02  0.7816164E-02  0.1300439E+00
        -11   -1    0    0    0    0  0.00000000000E+00  0.00000000000E+00  0.45593999997E+02  0.45594000000E+02  0.51100000000E-03 0.  1.
         11   -1    0    0    0    0 -0.00000000000E+00 -0.00000000000E+00 -0.45593999997E+02  0.45594000000E+02  0.51100000000E-03 0. -1.
    9900012    2    1    2    0    0  0.23626136136E+02  0.32114184819E+00 -0.33088797743E+02  0.50528856171E+02  0.29999988818E+02 0.  0.
        -12    1    1    2    0    0 -0.23626136136E+02 -0.32114184819E+00  0.33088797743E+02  0.40659143829E+02  0.00000000000E+00 0.  1.
         11    1    3    3    0    0  0.21113359231E+02  0.56672941129E+01 -0.19782620397E+02  0.29482948133E+02  0.51100000000E-03 0.  1.
        -11    1    3    3    0    0 -0.33967196334E+01  0.24369774718E+01 -0.98157394887E+01  0.10668894293E+02  0.51100000000E-03 0. -1.
        -12    1    3    3    0    0  0.59094965385E+01 -0.77831297365E+01 -0.34904378579E+01  0.10377013745E+02  0.00000000000E+00 0.  1.
</event>
<event>
 7    1  0.2702714E-011  0.5052886E+02  0.7816164E-02  0.1300439E+00
        -11   -1    0    0    0    0  0.00000000000E+00  0.00000000000E+00  0.45593999997E+02  0.45594000000E+02  0.51100000000E-03 0.  1.
         11   -1    0    0    0    0 -0.00000000000E+00 -0.00000000000E+00 -0.45593999997E+02  0.45594000000E+02  0.51100000000E-03 0. -1.
    9900012    2    1    2    0    0 -0.40028807499E+02 -0.13268364538E+01 -0.70071381900E+01  0.50528856989E+02  0.29999991304E+02 0.  0.
        -12    1    1    2    0    0  0.40028807499E+02  0.13268364538E+01  0.70071381900E+01  0.40659143011E+02  0.00000000000E+00 0.  1.
         11    1    3    3    0    0  0.16486716327E+01 -0.16169604023E+01 -0.29444057752E+01  0.37419519941E+01  0.51100000000E-03 0. -1.
        -11    1    3    3    0    0 -0.93316067095E+01 -0.72214249249E+01  0.42741589447E+01  0.12549752853E+02  0.51100000000E-03 0.  1.
         12    1    3    3    0    0 -0.32345872422E+02  0.75115488735E+01 -0.83368913594E+01  0.34237152142E+02  0.00000000000E+00 0. -1.
</event>
<event>
 7    1  0.2702714E-011  0.5052877E+02  0.7816164E-02  0.1300439E+00
        -11   -1    0    0    0    0  0.00000000000E+00  0.00000000000E+00  0.45593999997E+02  0.45594000000E+02  0.51100000000E-03 0. -1.
         11   -1    0    0    0    0 -0.00000000000E+00 -0.00000000000E+00 -0.45593999997E+02  0.45594000000E+02  0.51100000000E-03 0.  1.
    9900012    2    1    2    0    0 -0.10959342449E+02  0.36119117907E+02  0.15115393637E+02  0.50528769928E+02  0.29999726671E+02 0.  0.
        -12    1    1    2    0    0  0.10959342449E+02 -0.36119117907E+02 -0.15115393637E+02  0.40659230072E+02  0.00000000000E+00 0.  1.
         11    1    3    3    0    0 -0.26055102764E+00  0.11174942390E+02  0.67962944526E+01  0.13081928100E+02  0.51100000000E-03 0. -1.
        -11    1    3    3    0    0  0.76564948357E+01  0.39476010144E+01  0.16264060671E+01  0.87664510433E+01  0.51100000000E-03 0.  1.
         12    1    3    3    0    0 -0.18355286257E+02  0.20996574502E+02  0.66926931175E+01  0.28680390784E+02  0.00000000000E+00 0. -1.
</event>
<event>
 7    1  0.2702714E-011  0.5052886E+02  0.7816164E-02  0.1300439E+00
        -11   -1    0    0    0    0  0.00000000000E+00  0.00000000000E+00  0.45593999997E+02  0.45594000000E+02  0.51100000000E-03 0. -1.
         11   -1    0    0    0    0 -0.00000000000E+00 -0.00000000000E+00 -0.45593999997E+02  0.45594000000E+02  0.51100000000E-03 0.  1.
    9900012    2    1    2    0    0  0.35195007600E+02 -0.15905818117E+02 -0.12707562538E+02  0.50528858893E+02  0.29999997090E+02 0.  0.
        -12    1    1    2    0    0 -0.35195007600E+02  0.15905818117E+02  0.12707562538E+02  0.40659141107E+02  0.00000000000E+00 0.  1.
         11    1    3    3    0    0  0.16420605765E+02 -0.73815086859E+01 -0.26904900717E+00  0.18005425621E+02  0.51100000000E-03 0. -1.
        -11    1    3    3    0    0  0.15525651405E+01 -0.12283790418E+02 -0.42889600114E+01  0.13103325677E+02  0.51100000000E-03 0.  1.
        -12    1    3    3    0    0  0.17221836695E+02  0.37594809869E+01 -0.81495535192E+01  0.19420107595E+02  0.00000000000E+00 0.  1.
</event>
<event>
 7    1  0.2702714E-011  0.5052887E+02  0.7816164E-02  0.1300439E+00
        -11   -1    0    0    0    0  0.00000000000E+00  0.00000000000E+00  0.45593999997E+02  0.45594000000E+02  0.51100000000E-03 0.  1.
         11   -1    0    0    0    0 -0.00000000000E+00 -0.00000000000E+00 -0.45593999997E+02  0.45594000000E+02  0.51100000000E-03 0. -1.
    9900012    2    1    2    0    0 -0.32777274834E+02 -0.46742450193E+01 -0.23600138808E+02  0.50528869860E+02  0.30000030426E+02 0.  0.
        -12    1    1    2    0    0  0.32777274834E+02  0.46742450193E+01  0.23600138808E+02  0.40659130140E+02  0.00000000000E+00 0.  1.
         11    1    3    3    0    0 -0.68269924572E+00 -0.35807152418E+01  0.24625543022E+01  0.43990651115E+01  0.51100000000E-03 0. -1.
        -11    1    3    3    0    0 -0.17799076242E+02 -0.74994771122E+01 -0.51292876472E+01  0.19983965173E+02  0.51100000000E-03 0.  1.
         12    1    3    3    0    0 -0.14295499346E+02  0.64059473346E+01 -0.20933405463E+02  0.26145839575E+02  0.00000000000E+00 0. -1.
</event>
<event>
 7    1  0.2702714E-011  0.5052886E+02  0.7816164E-02  0.1300439E+00
        -11   -1    0    0    0    0  0.00000000000E+00  0.00000000000E+00  0.45593999997E+02  0.45594000000E+02  0.51100000000E-03 0. -1.
         11   -1    0    0    0    0 -0.00000000000E+00 -0.00000000000E+00 -0.45593999997E+02  0.45594000000E+02  0.51100000000E-03 0.  1.
    9900012    2    1    2    0    0 -0.34166850835E+02 -0.82468716758E+01 -0.20439692400E+02  0.50528860636E+02  0.30000002389E+02 0.  0.
        -12    1    1    2    0    0  0.34166850835E+02  0.82468716758E+01  0.20439692400E+02  0.40659139364E+02  0.00000000000E+00 0.  1.
         11    1    3    3    0    0 -0.92084184388E+01  0.66833636000E+00  0.18502446886E+01  0.94162120464E+01  0.51100000000E-03 0. -1.
        -11    1    3    3    0    0 -0.10791215302E+02  0.35927030508E+01  0.64820093899E+00  0.11392015082E+02  0.51100000000E-03 0.  1.
        -12    1    3    3    0    0 -0.14167217094E+02 -0.12507911087E+02 -0.22938138027E+02  0.29720633507E+02  0.00000000000E+00 0.  1.
</event>
<event>
 7    1  0.2702714E-011  0.5052886E+02  0.7816164E-02  0.1300439E+00
        -11   -1    0    0    0    0  0.00000000000E+00  0.00000000000E+00  0.45593999997E+02  0.45594000000E+02  0.51100000000E-03 0.  1.
         11   -1    0    0    0    0 -0.00000000000E+00 -0.00000000000E+00 -0.45593999997E+02  0.45594000000E+02  0.51100000000E-03 0. -1.
    9900012    2    1    2    0    0 -0.26395006625E+01  0.18940161540E+02 -0.35881316580E+02  0.50528861268E+02  0.30000004310E+02 0.  0.
        -12    1    1    2    0    0  0.26395006625E+01 -0.18940161540E+02  0.35881316580E+02  0.40659138732E+02  0.00000000000E+00 0.  1.
         11    1    3    3    0    0 -0.40271381349E+01  0.13287557246E+02 -0.14769046497E+02  0.20270711725E+02  0.51100000000E-03 0. -1.
        -11    1    3    3    0    0  0.35503484061E+00  0.29538639383E+00 -0.24054910974E+02  0.24059344237E+02  0.51100000000E-03 0.  1.
        -12    1    3    3    0    0  0.10326026318E+01  0.53572178996E+01  0.29426408909E+01  0.61988053068E+01  0.00000000000E+00 0.  1.
</event>
<event>
 7    1  0.2702714E-011  0.5052886E+02  0.7816164E-02  0.1300439E+00
        -11   -1    0    0    0    0  0.00000000000E+00  0.00000000000E+00  0.45593999997E+02  0.45594000000E+02  0.51100000000E-03 0.  1.
         11   -1    0    0    0    0 -0.00000000000E+00 -0.00000000000E+00 -0.45593999997E+02  0.45594000000E+02  0.51100000000E-03 0. -1.
    9900012    2    1    2    0    0  0.74770556218E+01 -0.39671330351E+02  0.48419951342E+01  0.50528859214E+02  0.29999998067E+02 0.  0.
        -12    1    1    2    0    0 -0.74770556218E+01  0.39671330351E+02 -0.48419951342E+01  0.40659140786E+02  0.00000000000E+00 0.  1.
         11    1    3    3    0    0  0.54978102551E+01 -0.78129213709E+01  0.27119829986E+01  0.99308866671E+01  0.51100000000E-03 0. -1.
        -11    1    3    3    0    0  0.86680867616E+01 -0.28139360195E+02  0.84935732141E+01  0.30644740274E+02  0.51100000000E-03 0.  1.
         12    1    3    3    0    0 -0.66888413948E+01 -0.37190487855E+01 -0.63635610784E+01  0.99532322726E+01  0.00000000000E+00 0. -1.
</event>
<event>
 7    1  0.2702714E-011  0.5052886E+02  0.7816164E-02  0.1300439E+00
        -11   -1    0    0    0    0  0.00000000000E+00  0.00000000000E+00  0.45593999997E+02  0.45594000000E+02  0.51100000000E-03 0. -1.
         11   -1    0    0    0    0 -0.00000000000E+00 -0.00000000000E+00 -0.45593999997E+02  0.45594000000E+02  0.51100000000E-03 0.  1.
    9900012    2    1    2    0    0  0.23650968826E+02 -0.28982219780E+02  0.15931979604E+02  0.50528863709E+02  0.30000011730E+02 0.  0.
        -12    1    1    2    0    0 -0.23650968826E+02  0.28982219780E+02 -0.15931979604E+02  0.40659136291E+02  0.00000000000E+00 0.  1.
         11    1    3    3    0    0  0.85927678970E+00  0.17742196230E+00  0.38843205290E+01  0.39821829927E+01  0.51100000000E-03 0. -1.
        -11    1    3    3    0    0  0.27093967270E+02 -0.18860666274E+02  0.51116225479E+01  0.33405635454E+02  0.51100000000E-03 0.  1.
         12    1    3    3    0    0 -0.43022752333E+01 -0.10298975469E+02  0.69360365274E+01  0.13141045263E+02  0.00000000000E+00 0. -1.
</event>
<event>
 7    1  0.2702714E-011  0.5052887E+02  0.7816164E-02  0.1300439E+00
        -11   -1    0    0    0    0  0.00000000000E+00  0.00000000000E+00  0.45593999997E+02  0.45594000000E+02  0.51100000000E-03 0.  1.
         11   -1    0    0    0    0 -0.00000000000E+00 -0.00000000000E+00 -0.45593999997E+02  0.45594000000E+02  0.51100000000E-03 0. -1.
    9900012    2    1    2    0    0  0.16487658310E+02  0.15865712492E+02 -0.33609538649E+02  0.50528870673E+02  0.30000032896E+02 0.  0.
        -12    1    1    2    0    0 -0.16487658310E+02 -0.15865712492E+02  0.33609538649E+02  0.40659129327E+02  0.00000000000E+00 0.  1.
         11    1    3    3    0    0  0.12024040940E+02 -0.52779041043E+01 -0.17521804446E+02  0.21896288808E+02  0.51100000000E-03 0.  1.
        -11    1    3    3    0    0  0.59286995592E+01  0.63894619095E+01 -0.74965817863E+01  0.11496670853E+02  0.51100000000E-03 0. -1.
        -12    1    3    3    0    0 -0.14650821891E+01  0.14754154687E+02 -0.85911524175E+01  0.17135911012E+02  0.00000000000E+00 0.  1.
</event>
<event>
 7    1  0.2702714E-011  0.5052889E+02  0.7816164E-02  0.1300439E+00
        -11   -1    0    0    0    0  0.00000000000E+00  0.00000000000E+00  0.45593999997E+02  0.45594000000E+02  0.51100000000E-03 0.  1.
         11   -1    0    0    0    0 -0.00000000000E+00 -0.00000000000E+00 -0.45593999997E+02  0.45594000000E+02  0.51100000000E-03 0. -1.
    9900012    2    1    2    0    0  0.29189543516E+02  0.17488077553E+02 -0.22255358731E+02  0.50528889097E+02  0.30000088899E+02 0.  0.
        -12    1    1    2    0    0 -0.29189543516E+02 -0.17488077553E+02  0.22255358731E+02  0.40659110903E+02  0.00000000000E+00 0.  1.
         11    1    3    3    0    0  0.26131687149E+02  0.16364635110E+02 -0.10268016627E+02  0.32497669474E+02  0.51100000000E-03 0. -1.
        -11    1    3    3    0    0 -0.14142313092E+01  0.42170184255E+01  0.43673656322E+00  0.44692318897E+01  0.51100000000E-03 0.  1.
         12    1    3    3    0    0  0.44720876755E+01 -0.30935759820E+01 -0.12424078667E+02  0.13561987733E+02  0.00000000000E+00 0. -1.
</event>
<event>
 7    1  0.2702714E-011  0.5052887E+02  0.7816164E-02  0.1300439E+00
        -11   -1    0    0    0    0  0.00000000000E+00  0.00000000000E+00  0.45593999997E+02  0.45594000000E+02  0.51100000000E-03 0. -1.
         11   -1    0    0    0    0 -0.00000000000E+00 -0.00000000000E+00 -0.45593999997E+02  0.45594000000E+02  0.51100000000E-03 0.  1.
    9900012    2    1    2    0    0  0.15120743956E+02  0.18649533532E+01  0.37696816319E+02  0.50528869299E+02  0.30000028720E+02 0.  0.
        -12    1    1    2    0    0 -0.15120743956E+02 -0.18649533532E+01 -0.37696816319E+02  0.40659130701E+02  0.00000000000E+00 0.  1.
         11    1    3    3    0    0  0.79530158234E+01 -0.19530266708E+01 -0.11716881480E+01  0.82727037443E+01  0.51100000000E-03 0. -1.
        -11    1    3    3    0    0 -0.28376327070E+01 -0.21638316978E+01  0.34301179479E+01  0.49497511446E+01  0.51100000000E-03 0.  1.
         12    1    3    3    0    0  0.10005360839E+02  0.59818117217E+01  0.35438386520E+02  0.37306414410E+02  0.00000000000E+00 0. -1.
</event>
<event>
 7    1  0.2702714E-011  0.5052887E+02  0.7816164E-02  0.1300439E+00
        -11   -1    0    0    0    0  0.00000000000E+00  0.00000000000E+00  0.45593999997E+02  0.45594000000E+02  0.51100000000E-03 0.  1.
         11   -1    0    0    0    0 -0.00000000000E+00 -0.00000000000E+00 -0.45593999997E+02  0.45594000000E+02  0.51100000000E-03 0. -1.
    9900012    2    1    2    0    0 -0.15399259915E+02 -0.23383454241E+02 -0.29482899461E+02  0.50528874348E+02  0.30000044068E+02 0.  0.
        -12    1    1    2    0    0  0.15399259915E+02  0.23383454241E+02  0.29482899461E+02  0.40659125652E+02  0.00000000000E+00 0.  1.
         11    1    3    3    0    0  0.35267213149E+01 -0.17168838128E+00 -0.15197344511E+00  0.35341669913E+01  0.51100000000E-03 0. -1.
        -11    1    3    3    0    0 -0.71313572554E+01  0.29229912684E+01 -0.89788501967E+01  0.11832999847E+02  0.51100000000E-03 0.  1.
         12    1    3    3    0    0 -0.11794623974E+02 -0.26134757128E+02 -0.20352075819E+02  0.35161707510E+02  0.00000000000E+00 0. -1.
</event>
<event>
 7    1  0.2702714E-011  0.5052886E+02  0.7816164E-02  0.1300439E+00
        -11   -1    0    0    0    0  0.00000000000E+00  0.00000000000E+00  0.45593999997E+02  0.45594000000E+02  0.51100000000E-03 0. -1.
         11   -1    0    0    0    0 -0.00000000000E+00 -0.00000000000E+00 -0.45593999997E+02  0.45594000000E+02  0.51100000000E-03 0.  1.
    9900012    2    1    2    0    0  0.38081839170E+02 -0.91562700007E+01 -0.10913382485E+02  0.50528859918E+02  0.30000000208E+02 0.  0.
        -12    1    1    2    0    0 -0.38081839170E+02  0.91562700007E+01  0.10913382485E+02  0.40659140082E+02  0.00000000000E+00 0.  1.
         11    1    3    3    0    0  0.12617335248E+02  0.35604634161E+01  0.38694102217E+01  0.13669176428E+02  0.51100000000E-03 0. -1.
        -11    1    3    3    0    0 -0.24477320874E+01 -0.29105502112E+01 -0.35860451075E+01  0.52270847207E+01  0.51100000000E-03 0.  1.
        -12    1    3    3    0    0  0.27912236010E+02 -0.98061832056E+01 -0.11196747599E+02  0.31632598770E+02  0.00000000000E+00 0.  1.
</event>
<event>
 7    1  0.2702714E-011  0.5052886E+02  0.7816164E-02  0.1300439E+00
        -11   -1    0    0    0    0  0.00000000000E+00  0.00000000000E+00  0.45593999997E+02  0.45594000000E+02  0.51100000000E-03 0. -1.
         11   -1    0    0    0    0 -0.00000000000E+00 -0.00000000000E+00 -0.45593999997E+02  0.45594000000E+02  0.51100000000E-03 0.  1.
    9900012    2    1    2    0    0  0.15377654697E+02 -0.36637852878E+02 -0.86232997488E+01  0.50528858026E+02  0.29999994456E+02 0.  0.
        -12    1    1    2    0    0 -0.15377654697E+02  0.36637852878E+02  0.86232997488E+01  0.40659141974E+02  0.00000000000E+00 0.  1.
         11    1    3    3    0    0  0.45755928918E+01 -0.20603446535E+02  0.77988043084E+01  0.22500209074E+02  0.51100000000E-03 0. -1.
        -11    1    3    3    0    0  0.40059930568E+01  0.83233822002E+00 -0.53623692977E+01  0.67450553763E+01  0.51100000000E-03 0.  1.
        -12    1    3    3    0    0  0.67960687482E+01 -0.16866744563E+02 -0.11059734760E+02  0.21283593576E+02  0.00000000000E+00 0.  1.
</event>
<event>
 7    1  0.2702714E-011  0.5052888E+02  0.7816164E-02  0.1300439E+00
        -11   -1    0    0    0    0  0.00000000000E+00  0.00000000000E+00  0.45593999997E+02  0.45594000000E+02  0.51100000000E-03 0.  1.
         11   -1    0    0    0    0 -0.00000000000E+00 -0.00000000000E+00 -0.45593999997E+02  0.45594000000E+02  0.51100000000E-03 0. -1.
    9900012    2    1    2    0    0 -0.28017918611E+02  0.27291852378E+02 -0.11104722531E+02  0.50528882548E+02  0.30000068993E+02 0.  0.
        -12    1    1    2    0    0  0.28017918611E+02 -0.27291852378E+02  0.11104722531E+02  0.40659117452E+02  0.00000000000E+00 0.  1.
         11    1    3    3    0    0  0.25522597991E+01  0.10757464845E+01  0.27578220031E+01  0.39085602263E+01  0.51100000000E-03 0.  1.
        -11    1    3    3    0    0 -0.14832056735E+02  0.12854795204E+02  0.31377734725E+01  0.19876651864E+02  0.51100000000E-03 0. -1.
         12    1    3    3    0    0 -0.15738121675E+02  0.13361310690E+02 -0.17000318006E+02  0.26743670457E+02  0.00000000000E+00 0. -1.
</event>
<event>
 7    1  0.2702714E-011  0.5052882E+02  0.7816164E-02  0.1300439E+00
        -11   -1    0    0    0    0  0.00000000000E+00  0.00000000000E+00  0.45593999997E+02  0.45594000000E+02  0.51100000000E-03 0. -1.
         11   -1    0    0    0    0 -0.00000000000E+00 -0.00000000000E+00 -0.45593999997E+02  0.45594000000E+02  0.51100000000E-03 0.  1.
    9900012    2    1    2    0    0 -0.56686298359E+01 -0.39638020762E+02  0.70613581423E+01  0.50528821049E+02  0.29999882062E+02 0.  0.
        -12    1    1    2    0    0  0.56686298359E+01  0.39638020762E+02 -0.70613581423E+01  0.40659178951E+02  0.00000000000E+00 0.  1.
         11    1    3    3    0    0  0.23660961663E+01 -0.13284649523E+02  0.69900597091E+01  0.15196751595E+02  0.51100000000E-03 0. -1.
        -11    1    3    3    0    0 -0.72435338545E+01 -0.89659764592E+00  0.56851044185E+01  0.92516529631E+01  0.51100000000E-03 0.  1.
         12    1    3    3    0    0 -0.79119214771E+00 -0.25456773592E+02 -0.56138059852E+01  0.26080416492E+02  0.00000000000E+00 0. -1.
</event>
<event>
 7    1  0.2702714E-011  0.5052886E+02  0.7816164E-02  0.1300439E+00
        -11   -1    0    0    0    0  0.00000000000E+00  0.00000000000E+00  0.45593999997E+02  0.45594000000E+02  0.51100000000E-03 0.  1.
         11   -1    0    0    0    0 -0.00000000000E+00 -0.00000000000E+00 -0.45593999997E+02  0.45594000000E+02  0.51100000000E-03 0. -1.
    9900012    2    1    2    0    0 -0.14470838983E+02  0.22287068773E+02 -0.30774128983E+02  0.50528860436E+02  0.30000001783E+02 0.  0.
        -12    1    1    2    0    0  0.14470838983E+02 -0.22287068773E+02  0.30774128983E+02  0.40659139564E+02  0.00000000000E+00 0.  1.
         11    1    3    3    0    0 -0.10086619823E+02  0.11282548730E+02 -0.21638838585E+02  0.26405967902E+02  0.51100000000E-03 0. -1.
        -11    1    3    3    0    0  0.22495491484E+01  0.13356837185E+02 -0.10263887607E+02  0.16994497934E+02  0.51100000000E-03 0.  1.
         12    1    3    3    0    0 -0.66337683090E+01 -0.23523171419E+01  0.11285972091E+01  0.71283946000E+01  0.00000000000E+00 0. -1.
</event>
<event>
 7    1  0.2702714E-011  0.5052887E+02  0.7816164E-02  0.1300439E+00
        -11   -1    0    0    0    0  0.00000000000E+00  0.00000000000E+00  0.45593999997E+02  0.45594000000E+02  0.51100000000E-03 0.  1.
         11   -1    0    0    0    0 -0.00000000000E+00 -0.00000000000E+00 -0.45593999997E+02  0.45594000000E+02  0.51100000000E-03 0. -1.
    9900012    2    1    2    0    0  0.16387768494E+02 -0.82111892784E+01 -0.36293002025E+02  0.50528873330E+02  0.30000040974E+02 0.  0.
        -12    1    1    2    0    0 -0.16387768494E+02  0.82111892784E+01  0.36293002025E+02  0.40659126670E+02  0.00000000000E+00 0.  1.
         11    1    3    3    0    0 -0.34113810857E+01  0.24155855959E+01 -0.15749121715E+02  0.16294398109E+02  0.51100000000E-03 0. -1.
        -11    1    3    3    0    0  0.25413343570E+00 -0.71436620771E+01 -0.81039486704E+01  0.10806038867E+02  0.51100000000E-03 0.  1.
        -12    1    3    3    0    0  0.19545016144E+02 -0.34831127972E+01 -0.12439931640E+02  0.23428436354E+02  0.00000000000E+00 0.  1.
</event>
<event>
 7    1  0.2702714E-011  0.5052886E+02  0.7816164E-02  0.1300439E+00
        -11   -1    0    0    0    0  0.00000000000E+00  0.00000000000E+00  0.45593999997E+02  0.45594000000E+02  0.51100000000E-03 0.  1.
         11   -1    0    0    0    0 -0.00000000000E+00 -0.00000000000E+00 -0.45593999997E+02  0.45594000000E+02  0.51100000000E-03 0. -1.
    9900012    2    1    2    0    0 -0.28264612947E+02  0.96399763902E+01 -0.27592542132E+02  0.50528857471E+02  0.29999992769E+02 0.  0.
        -12    1    1    2    0    0  0.28264612947E+02 -0.96399763902E+01  0.27592542132E+02  0.40659142529E+02  0.00000000000E+00 0.  1.
         11    1    3    3    0    0 -0.11968708641E+02  0.11357033740E+02 -0.25760738272E+02  0.30591630203E+02  0.51100000000E-03 0. -1.
        -11    1    3    3    0    0 -0.12331654539E+02  0.32224584244E+01 -0.38081303482E+01  0.13302473415E+02  0.51100000000E-03 0.  1.
        -12    1    3    3    0    0 -0.39642497677E+01 -0.49395157736E+01  0.19763264879E+01  0.66347538527E+01  0.00000000000E+00 0.  1.
</event>
<event>
 7    1  0.2702714E-011  0.5052886E+02  0.7816164E-02  0.1300439E+00
        -11   -1    0    0    0    0  0.00000000000E+00  0.00000000000E+00  0.45593999997E+02  0.45594000000E+02  0.51100000000E-03 0.  1.
         11   -1    0    0    0    0 -0.00000000000E+00 -0.00000000000E+00 -0.45593999997E+02  0.45594000000E+02  0.51100000000E-03 0. -1.
    9900012    2    1    2    0    0  0.85147525583E+01  0.99922553712E+01 -0.38481417639E+02  0.50528859797E+02  0.29999999840E+02 0.  0.
        -12    1    1    2    0    0 -0.85147525583E+01 -0.99922553712E+01  0.38481417639E+02  0.40659140203E+02  0.00000000000E+00 0.  1.
         11    1    3    3    0    0  0.69916994093E+01  0.10511639031E-01 -0.60952659913E+01  0.92755721597E+01  0.51100000000E-03 0. -1.
        -11    1    3    3    0    0 -0.69627864015E+01 -0.24489231301E+01 -0.21349795872E+02  0.22589630431E+02  0.51100000000E-03 0.  1.
         12    1    3    3    0    0  0.84858395505E+01  0.12430666862E+02 -0.11036355775E+02  0.18663657206E+02  0.00000000000E+00 0. -1.
</event>
<event>
 7    1  0.2702714E-011  0.5052886E+02  0.7816164E-02  0.1300439E+00
        -11   -1    0    0    0    0  0.00000000000E+00  0.00000000000E+00  0.45593999997E+02  0.45594000000E+02  0.51100000000E-03 0.  1.
         11   -1    0    0    0    0 -0.00000000000E+00 -0.00000000000E+00 -0.45593999997E+02  0.45594000000E+02  0.51100000000E-03 0. -1.
    9900012    2    1    2    0    0  0.38038239986E+02 -0.96818282687E+01 -0.10607560735E+02  0.50528857798E+02  0.29999993761E+02 0.  0.
        -12    1    1    2    0    0 -0.38038239986E+02  0.96818282687E+01  0.10607560735E+02  0.40659142202E+02  0.00000000000E+00 0.  1.
         11    1    3    3    0    0  0.70000731102E+00 -0.91490023590E+01  0.19110084080E+01  0.93726307831E+01  0.51100000000E-03 0. -1.
        -11    1    3    3    0    0  0.18312379774E+02 -0.19825289065E+01 -0.15533454331E+00  0.18420038082E+02  0.51100000000E-03 0.  1.
         12    1    3    3    0    0  0.19025852901E+02  0.14497029968E+01 -0.12363234600E+02  0.22736188932E+02  0.00000000000E+00 0. -1.
</event>
<event>
 7    1  0.2702714E-011  0.5052886E+02  0.7816164E-02  0.1300439E+00
        -11   -1    0    0    0    0  0.00000000000E+00  0.00000000000E+00  0.45593999997E+02  0.45594000000E+02  0.51100000000E-03 0. -1.
         11   -1    0    0    0    0 -0.00000000000E+00 -0.00000000000E+00 -0.45593999997E+02  0.45594000000E+02  0.51100000000E-03 0.  1.
    9900012    2    1    2    0    0 -0.24533732319E+02 -0.23215990093E+02  0.22633591271E+02  0.50528859929E+02  0.30000000240E+02 0.  0.
        -12    1    1    2    0    0  0.24533732319E+02  0.23215990093E+02 -0.22633591271E+02  0.40659140071E+02  0.00000000000E+00 0.  1.
         11    1    3    3    0    0  0.64417608370E+00 -0.56636656211E+01  0.13762981388E+02  0.14896701918E+02  0.51100000000E-03 0.  1.
        -11    1    3    3    0    0 -0.21637393911E+02 -0.10693495487E+02  0.12411643721E+02  0.27139944015E+02  0.51100000000E-03 0. -1.
        -12    1    3    3    0    0 -0.35405144918E+01 -0.68588289848E+01 -0.35410338384E+01  0.84922139961E+01  0.00000000000E+00 0.  1.
</event>
<event>
 7    1  0.2702714E-011  0.5052886E+02  0.7816164E-02  0.1300439E+00
        -11   -1    0    0    0    0  0.00000000000E+00  0.00000000000E+00  0.45593999997E+02  0.45594000000E+02  0.51100000000E-03 0.  1.
         11   -1    0    0    0    0 -0.00000000000E+00 -0.00000000000E+00 -0.45593999997E+02  0.45594000000E+02  0.51100000000E-03 0. -1.
    9900012    2    1    2    0    0  0.31856950823E+02  0.21505279513E+02 -0.13259847127E+02  0.50528857012E+02  0.29999991375E+02 0.  0.
        -12    1    1    2    0    0 -0.31856950823E+02 -0.21505279513E+02  0.13259847127E+02  0.40659142988E+02  0.00000000000E+00 0.  1.
         11    1    3    3    0    0  0.49944372168E+01  0.67118802512E+01 -0.22062735214E+01  0.86522472648E+01  0.51100000000E-03 0. -1.
        -11    1    3    3    0    0  0.23321550344E+02  0.10855898505E+01  0.87552403049E+00  0.23363213785E+02  0.51100000000E-03 0.  1.
         12    1    3    3    0    0  0.35409632627E+01  0.13707809411E+02 -0.11929097636E+02  0.18513395963E+02  0.00000000000E+00 0. -1.
</event>
<event>
 7    1  0.2702714E-011  0.5052881E+02  0.7816164E-02  0.1300439E+00
        -11   -1    0    0    0    0  0.00000000000E+00  0.00000000000E+00  0.45593999997E+02  0.45594000000E+02  0.51100000000E-03 0.  1.
         11   -1    0    0    0    0 -0.00000000000E+00 -0.00000000000E+00 -0.45593999997E+02  0.45594000000E+02  0.51100000000E-03 0. -1.
    9900012    2    1    2    0    0  0.21100389392E+01  0.39635156888E+02 -0.88188230103E+01  0.50528812046E+02  0.29999854693E+02 0.  0.
        -12    1    1    2    0    0 -0.21100389392E+01 -0.39635156888E+02  0.88188230103E+01  0.40659187954E+02  0.00000000000E+00 0.  1.
         11    1    3    3    0    0  0.20328193884E+01  0.11979380628E+02 -0.10865442443E+02  0.16300176522E+02  0.51100000000E-03 0. -1.
        -11    1    3    3    0    0  0.42148813311E+01  0.18141757242E+01  0.62176385013E+01  0.77275796332E+01  0.51100000000E-03 0.  1.
        -12    1    3    3    0    0 -0.41376617803E+01  0.25841600535E+02 -0.41710190683E+01  0.26501055890E+02  0.00000000000E+00 0.  1.
</event>
<event>
 7    1  0.2702714E-011  0.5052886E+02  0.7816164E-02  0.1300439E+00
        -11   -1    0    0    0    0  0.00000000000E+00  0.00000000000E+00  0.45593999997E+02  0.45594000000E+02  0.51100000000E-03 0. -1.
         11   -1    0    0    0    0 -0.00000000000E+00 -0.00000000000E+00 -0.45593999997E+02  0.45594000000E+02  0.51100000000E-03 0.  1.
    9900012    2    1    2    0    0 -0.18118269129E+02  0.76484384982E+01  0.35586450182E+02  0.50528859278E+02  0.29999998261E+02 0.  0.
        -12    1    1    2    0    0  0.18118269129E+02 -0.76484384982E+01 -0.35586450182E+02  0.40659140722E+02  0.00000000000E+00 0.  1.
         11    1    3    3    0    0 -0.46758734099E+01 -0.26140006274E+01  0.27520798775E+02  0.28037317220E+02  0.51100000000E-03 0. -1.
        -11    1    3    3    0    0  0.20261669220E+01 -0.46153235209E+00  0.18583991617E+00  0.20863607654E+01  0.51100000000E-03 0.  1.
         12    1    3    3    0    0 -0.15468562641E+02  0.10723971478E+02  0.78798114914E+01  0.20405181293E+02  0.00000000000E+00 0. -1.
</event>
<event>
 7    1  0.2702714E-011  0.5052887E+02  0.7816164E-02  0.1300439E+00
        -11   -1    0    0    0    0  0.00000000000E+00  0.00000000000E+00  0.45593999997E+02  0.45594000000E+02  0.51100000000E-03 0.  1.
         11   -1    0    0    0    0 -0.00000000000E+00 -0.00000000000E+00 -0.45593999997E+02  0.45594000000E+02  0.51100000000E-03 0. -1.
    9900012    2    1    2    0    0 -0.26715838278E+02  0.30405031905E+02 -0.38682294433E+01  0.50528865982E+02  0.30000018639E+02 0.  0.
        -12    1    1    2    0    0  0.26715838278E+02 -0.30405031905E+02  0.38682294433E+01  0.40659134018E+02  0.00000000000E+00 0.  1.
         11    1    3    3    0    0 -0.23218724778E+02  0.80371926237E+01  0.46375869296E-01  0.24570465941E+02  0.51100000000E-03 0. -1.
        -11    1    3    3    0    0  0.50094219515E+00 -0.49068194119E+00  0.19086424418E+01  0.20333784896E+01  0.51100000000E-03 0.  1.
         12    1    3    3    0    0 -0.39980556955E+01  0.22858521223E+02 -0.58232477544E+01  0.23925021552E+02  0.00000000000E+00 0. -1.
</event>
<event>
 7    1  0.2702714E-011  0.5052884E+02  0.7816164E-02  0.1300439E+00
        -11   -1    0    0    0    0  0.00000000000E+00  0.00000000000E+00  0.45593999997E+02  0.45594000000E+02  0.51100000000E-03 0.  1.
         11   -1    0    0    0    0 -0.00000000000E+00 -0.00000000000E+00 -0.45593999997E+02  0.45594000000E+02  0.51100000000E-03 0. -1.
    9900012    2    1    2    0    0  0.20772322352E+02  0.14746597276E+02 -0.31689367011E+02  0.50528837580E+02  0.29999932309E+02 0.  0.
        -12    1    1    2    0    0 -0.20772322352E+02 -0.14746597276E+02  0.31689367011E+02  0.40659162420E+02  0.00000000000E+00 0.  1.
         11    1    3    3    0    0  0.11219504362E+02  0.60516822066E+01 -0.10989772959E+02  0.16830782680E+02  0.51100000000E-03 0. -1.
        -11    1    3    3    0    0  0.38323840005E+01 -0.43271264278E+01 -0.18404640981E+02  0.19290982353E+02  0.51100000000E-03 0.  1.
         12    1    3    3    0    0  0.57204339900E+01  0.13022041498E+02 -0.22949530705E+01  0.14407072548E+02  0.00000000000E+00 0. -1.
</event>
<event>
 7    1  0.2702714E-011  0.5052885E+02  0.7816164E-02  0.1300439E+00
        -11   -1    0    0    0    0  0.00000000000E+00  0.00000000000E+00  0.45593999997E+02  0.45594000000E+02  0.51100000000E-03 0.  1.
         11   -1    0    0    0    0 -0.00000000000E+00 -0.00000000000E+00 -0.45593999997E+02  0.45594000000E+02  0.51100000000E-03 0. -1.
    9900012    2    1    2    0    0 -0.18685925605E+02 -0.23420162399E+02 -0.27486333481E+02  0.50528851574E+02  0.29999974843E+02 0.  0.
        -12    1    1    2    0    0  0.18685925605E+02  0.23420162399E+02  0.27486333481E+02  0.40659148426E+02  0.00000000000E+00 0.  1.
         11    1    3    3    0    0  0.51833762103E+01 -0.52991190723E+01 -0.76079178727E+01  0.10622074491E+02  0.51100000000E-03 0. -1.
        -11    1    3    3    0    0 -0.60002525094E+01 -0.39684485952E+01 -0.14942145197E+02  0.16583706394E+02  0.51100000000E-03 0.  1.
         12    1    3    3    0    0 -0.17869049306E+02 -0.14152594731E+02 -0.49362704117E+01  0.23323070688E+02  0.00000000000E+00 0. -1.
</event>
<event>
 7    1  0.2702714E-011  0.5052884E+02  0.7816164E-02  0.1300439E+00
        -11   -1    0    0    0    0  0.00000000000E+00  0.00000000000E+00  0.45593999997E+02  0.45594000000E+02  0.51100000000E-03 0. -1.
         11   -1    0    0    0    0 -0.00000000000E+00 -0.00000000000E+00 -0.45593999997E+02  0.45594000000E+02  0.51100000000E-03 0.  1.
    9900012    2    1    2    0    0  0.29196633940E+02  0.28238380463E+02  0.18213588606E+01  0.50528844664E+02  0.29999953839E+02 0.  0.
        -12    1    1    2    0    0 -0.29196633940E+02 -0.28238380463E+02 -0.18213588606E+01  0.40659155336E+02  0.00000000000E+00 0.  1.
         11    1    3    3    0    0  0.10271146007E+02  0.18166228545E+02 -0.17930756345E+00  0.20869605921E+02  0.51100000000E-03 0. -1.
        -11    1    3    3    0    0  0.20886072351E+02  0.90206664264E+01 -0.41431595080E+01  0.23125012692E+02  0.51100000000E-03 0.  1.
         12    1    3    3    0    0 -0.19605844182E+01  0.10514854916E+01  0.61438259321E+01  0.65342260508E+01  0.00000000000E+00 0. -1.
</event>
<event>
 7    1  0.2702714E-011  0.5052886E+02  0.7816164E-02  0.1300439E+00
        -11   -1    0    0    0    0  0.00000000000E+00  0.00000000000E+00  0.45593999997E+02  0.45594000000E+02  0.51100000000E-03 0.  1.
         11   -1    0    0    0    0 -0.00000000000E+00 -0.00000000000E+00 -0.45593999997E+02  0.45594000000E+02  0.51100000000E-03 0. -1.
    9900012    2    1    2    0    0  0.27307193304E+02 -0.29638322567E+02 -0.53900442511E+01  0.50528861448E+02  0.30000004859E+02 0.  0.
        -12    1    1    2    0    0 -0.27307193304E+02  0.29638322567E+02  0.53900442511E+01  0.40659138552E+02  0.00000000000E+00 0.  1.
         11    1    3    3    0    0  0.21046913429E+02 -0.10569257878E+02 -0.42001018111E+01  0.23923265505E+02  0.51100000000E-03 0. -1.
        -11    1    3    3    0    0  0.10785516467E+02 -0.16859489940E+02  0.27623739519E+01  0.20203971802E+02  0.51100000000E-03 0.  1.
        -12    1    3    3    0    0 -0.45252365910E+01 -0.22095747496E+01 -0.39523163919E+01  0.64016241408E+01  0.00000000000E+00 0.  1.
</event>
<event>
 7    1  0.2702714E-011  0.5052886E+02  0.7816164E-02  0.1300439E+00
        -11   -1    0    0    0    0  0.00000000000E+00  0.00000000000E+00  0.45593999997E+02  0.45594000000E+02  0.51100000000E-03 0.  1.
         11   -1    0    0    0    0 -0.00000000000E+00 -0.00000000000E+00 -0.45593999997E+02  0.45594000000E+02  0.51100000000E-03 0. -1.
    9900012    2    1    2    0    0 -0.22057332263E+02  0.32027138930E+02  0.11870225012E+02  0.50528858636E+02  0.29999996311E+02 0.  0.
        -12    1    1    2    0    0  0.22057332263E+02 -0.32027138930E+02 -0.11870225012E+02  0.40659141364E+02  0.00000000000E+00 0.  1.
         11    1    3    3    0    0 -0.31601018115E+00  0.19077667941E+02  0.21822607562E+01  0.19204674919E+02  0.51100000000E-03 0. -1.
        -11    1    3    3    0    0  0.75196709137E+00 -0.17066175413E+01 -0.13443844997E+01  0.22989927975E+01  0.51100000000E-03 0.  1.
         12    1    3    3    0    0 -0.22493289173E+02  0.14656088531E+02  0.11032348755E+02  0.29025190920E+02  0.00000000000E+00 0. -1.
</event>
<event>
 7    1  0.2702714E-011  0.5052886E+02  0.7816164E-02  0.1300439E+00
        -11   -1    0    0    0    0  0.00000000000E+00  0.00000000000E+00  0.45593999997E+02  0.45594000000E+02  0.51100000000E-03 0.  1.
         11   -1    0    0    0    0 -0.00000000000E+00 -0.00000000000E+00 -0.45593999997E+02  0.45594000000E+02  0.51100000000E-03 0. -1.
    9900012    2    1    2    0    0 -0.39788746173E+02  0.80839008335E+01  0.21614435408E+01  0.50528860647E+02  0.30000002423E+02 0.  0.
        -12    1    1    2    0    0  0.39788746173E+02 -0.80839008335E+01 -0.21614435408E+01  0.40659139353E+02  0.00000000000E+00 0.  1.
         11    1    3    3    0    0 -0.13082737443E+02 -0.40313832209E+01  0.12557873532E+02  0.18577143419E+02  0.51100000000E-03 0.  1.
        -11    1    3    3    0    0 -0.17407022487E+02  0.61080187925E+01 -0.31347790329E+01  0.18712005912E+02  0.51100000000E-03 0. -1.
        -12    1    3    3    0    0 -0.92989862436E+01  0.60072652619E+01 -0.72616509587E+01  0.13239711316E+02  0.00000000000E+00 0.  1.
</event>
<event>
 7    1  0.2702714E-011  0.5052886E+02  0.7816164E-02  0.1300439E+00
        -11   -1    0    0    0    0  0.00000000000E+00  0.00000000000E+00  0.45593999997E+02  0.45594000000E+02  0.51100000000E-03 0.  1.
         11   -1    0    0    0    0 -0.00000000000E+00 -0.00000000000E+00 -0.45593999997E+02  0.45594000000E+02  0.51100000000E-03 0. -1.
    9900012    2    1    2    0    0  0.26072575070E+01  0.34055687022E+01 -0.40432289923E+02  0.50528858859E+02  0.29999996989E+02 0.  0.
        -12    1    1    2    0    0 -0.26072575070E+01 -0.34055687022E+01  0.40432289923E+02  0.40659141141E+02  0.00000000000E+00 0.  1.
         11    1    3    3    0    0 -0.73446592597E+01  0.36544280984E+01 -0.30929616275E+02  0.31999062917E+02  0.51100000000E-03 0. -1.
        -11    1    3    3    0    0 -0.12381322592E+01 -0.24771379789E+01 -0.59775643385E+01  0.65879025296E+01  0.51100000000E-03 0.  1.
        -12    1    3    3    0    0  0.11190049026E+02  0.22282785828E+01 -0.35251093091E+01  0.11941893413E+02  0.00000000000E+00 0.  1.
</event>
<event>
 7    1  0.2702714E-011  0.5052887E+02  0.7816164E-02  0.1300439E+00
        -11   -1    0    0    0    0  0.00000000000E+00  0.00000000000E+00  0.45593999997E+02  0.45594000000E+02  0.51100000000E-03 0.  1.
         11   -1    0    0    0    0 -0.00000000000E+00 -0.00000000000E+00 -0.45593999997E+02  0.45594000000E+02  0.51100000000E-03 0. -1.
    9900012    2    1    2    0    0 -0.29791957234E+02 -0.25386354446E+02 -0.11006243608E+02  0.50528866878E+02  0.30000021361E+02 0.  0.
        -12    1    1    2    0    0  0.29791957234E+02  0.25386354446E+02  0.11006243608E+02  0.40659133122E+02  0.00000000000E+00 0.  1.
         11    1    3    3    0    0 -0.29189714223E+01 -0.17690675961E+01 -0.14574895270E+01  0.37113704081E+01  0.51100000000E-03 0. -1.
        -11    1    3    3    0    0  0.10572994192E+01 -0.13622022783E+02 -0.10351883792E+02  0.17141729349E+02  0.51100000000E-03 0.  1.
        -12    1    3    3    0    0 -0.27930285231E+02 -0.99952640677E+01  0.80312971189E+00  0.29675767121E+02  0.00000000000E+00 0.  1.
</event>
<event>
 7    1  0.2702714E-011  0.5052886E+02  0.7816164E-02  0.1300439E+00
        -11   -1    0    0    0    0  0.00000000000E+00  0.00000000000E+00  0.45593999997E+02  0.45594000000E+02  0.51100000000E-03 0.  1.
         11   -1    0    0    0    0 -0.00000000000E+00 -0.00000000000E+00 -0.45593999997E+02  0.45594000000E+02  0.51100000000E-03 0. -1.
    9900012    2    1    2    0    0  0.49737252915E+01 -0.21964696975E+02 -0.33852319237E+02  0.50528863582E+02  0.30000011345E+02 0.  0.
        -12    1    1    2    0    0 -0.49737252915E+01  0.21964696975E+02  0.33852319237E+02  0.40659136418E+02  0.00000000000E+00 0.  1.
         11    1    3    3    0    0  0.16236110572E+01 -0.16575852407E+02 -0.33044617377E+02  0.37004617735E+02  0.51100000000E-03 0. -1.
        -11    1    3    3    0    0 -0.33538415893E+01  0.33025085576E+00 -0.29239550742E+01  0.44617073605E+01  0.51100000000E-03 0.  1.
         12    1    3    3    0    0  0.67039558236E+01 -0.57190954243E+01  0.21162532141E+01  0.90625384868E+01  0.00000000000E+00 0. -1.
</event>
<event>
 7    1  0.2702714E-011  0.5052886E+02  0.7816164E-02  0.1300439E+00
        -11   -1    0    0    0    0  0.00000000000E+00  0.00000000000E+00  0.45593999997E+02  0.45594000000E+02  0.51100000000E-03 0. -1.
         11   -1    0    0    0    0 -0.00000000000E+00 -0.00000000000E+00 -0.45593999997E+02  0.45594000000E+02  0.51100000000E-03 0.  1.
    9900012    2    1    2    0    0 -0.64233147791E+01 -0.33737462273E+02  0.21764431330E+02  0.50528858291E+02  0.29999995262E+02 0.  0.
        -12    1    1    2    0    0  0.64233147791E+01  0.33737462273E+02 -0.21764431330E+02  0.40659141709E+02  0.00000000000E+00 0.  1.
         11    1    3    3    0    0  0.69824880686E+01  0.33654544368E+00  0.83869826330E+01  0.10918327730E+02  0.51100000000E-03 0.  1.
        -11    1    3    3    0    0 -0.28972181450E+01 -0.15942391301E+02  0.74327308440E+01  0.17826923499E+02  0.51100000000E-03 0. -1.
        -12    1    3    3    0    0 -0.10508584703E+02 -0.18131616416E+02  0.59447178528E+01  0.21783607062E+02  0.00000000000E+00 0.  1.
</event>
<event>
 7    1  0.2702714E-011  0.5052886E+02  0.7816164E-02  0.1300439E+00
        -11   -1    0    0    0    0  0.00000000000E+00  0.00000000000E+00  0.45593999997E+02  0.45594000000E+02  0.51100000000E-03 0. -1.
         11   -1    0    0    0    0 -0.00000000000E+00 -0.00000000000E+00 -0.45593999997E+02  0.45594000000E+02  0.51100000000E-03 0.  1.
    9900012    2    1    2    0    0 -0.34523975926E+02 -0.17521356139E+02  0.12420260001E+02  0.50528859660E+02  0.29999999421E+02 0.  0.
        -12    1    1    2    0    0  0.34523975926E+02  0.17521356139E+02 -0.12420260001E+02  0.40659140340E+02  0.00000000000E+00 0.  1.
         11    1    3    3    0    0 -0.17446244612E+02 -0.21557742336E+02  0.31411395676E+01  0.27910114004E+02  0.51100000000E-03 0.  1.
        -11    1    3    3    0    0 -0.41714596796E+01 -0.94237922426E+00  0.75509773029E+01  0.86779267657E+01  0.51100000000E-03 0. -1.
        -12    1    3    3    0    0 -0.12906271635E+02  0.49787654211E+01  0.17281431306E+01  0.13940818890E+02  0.00000000000E+00 0.  1.
</event>
<event>
 7    1  0.2702714E-011  0.5052880E+02  0.7816164E-02  0.1300439E+00
        -11   -1    0    0    0    0  0.00000000000E+00  0.00000000000E+00  0.45593999997E+02  0.45594000000E+02  0.51100000000E-03 0.  1.
         11   -1    0    0    0    0 -0.00000000000E+00 -0.00000000000E+00 -0.45593999997E+02  0.45594000000E+02  0.51100000000E-03 0. -1.
    9900012    2    1    2    0    0 -0.68162130974E+01 -0.10138463434E+01 -0.40070958898E+02  0.50528801872E+02  0.29999823770E+02 0.  0.
        -12    1    1    2    0    0  0.68162130974E+01  0.10138463434E+01  0.40070958898E+02  0.40659198128E+02  0.00000000000E+00 0.  1.
         11    1    3    3    0    0 -0.61121732875E+01 -0.14025218650E+01 -0.30998915528E+02  0.31626863488E+02  0.51100000000E-03 0. -1.
        -11    1    3    3    0    0 -0.87385075642E+00  0.64283663206E+01 -0.10816689503E+02  0.12613020287E+02  0.51100000000E-03 0.  1.
        -12    1    3    3    0    0  0.16981094656E+00 -0.60396907990E+01  0.17446461331E+01  0.62889180973E+01  0.00000000000E+00 0.  1.
</event>
<event>
 7    1  0.2702714E-011  0.5052886E+02  0.7816164E-02  0.1300439E+00
        -11   -1    0    0    0    0  0.00000000000E+00  0.00000000000E+00  0.45593999997E+02  0.45594000000E+02  0.51100000000E-03 0. -1.
         11   -1    0    0    0    0 -0.00000000000E+00 -0.00000000000E+00 -0.45593999997E+02  0.45594000000E+02  0.51100000000E-03 0.  1.
    9900012    2    1    2    0    0  0.25661309841E+02  0.16302588201E+02  0.26997932663E+02  0.50528861140E+02  0.30000003920E+02 0.  0.
        -12    1    1    2    0    0 -0.25661309841E+02 -0.16302588201E+02 -0.26997932663E+02  0.40659138860E+02  0.00000000000E+00 0.  1.
         11    1    3    3    0    0  0.98871229992E-01  0.75697502689E+01  0.57558925991E+01  0.95100575460E+01  0.51100000000E-03 0. -1.
        -11    1    3    3    0    0  0.80197962804E+01  0.11965884793E+02  0.16123144839E+01  0.14494795256E+02  0.51100000000E-03 0.  1.
         12    1    3    3    0    0  0.17542642330E+02 -0.32330468611E+01  0.19629725580E+02  0.26524008338E+02  0.00000000000E+00 0. -1.
</event>
<event>
 7    1  0.2702714E-011  0.5052886E+02  0.7816164E-02  0.1300439E+00
        -11   -1    0    0    0    0  0.00000000000E+00  0.00000000000E+00  0.45593999997E+02  0.45594000000E+02  0.51100000000E-03 0.  1.
         11   -1    0    0    0    0 -0.00000000000E+00 -0.00000000000E+00 -0.45593999997E+02  0.45594000000E+02  0.51100000000E-03 0. -1.
    9900012    2    1    2    0    0 -0.36969508579E+02 -0.13186199878E+02 -0.10608748700E+02  0.50528856124E+02  0.29999988673E+02 0.  0.
        -12    1    1    2    0    0  0.36969508579E+02  0.13186199878E+02  0.10608748700E+02  0.40659143876E+02  0.00000000000E+00 0.  1.
         11    1    3    3    0    0 -0.22569158146E+02 -0.22048645647E+01 -0.10116269647E+02  0.24830772018E+02  0.51100000000E-03 0. -1.
        -11    1    3    3    0    0 -0.17552444020E+02 -0.54916936523E+01 -0.34479553023E+01  0.18711904935E+02  0.51100000000E-03 0.  1.
        -12    1    3    3    0    0  0.31520935872E+01 -0.54896416610E+01  0.29554762499E+01  0.69861791712E+01  0.00000000000E+00 0.  1.
</event>
<event>
 7    1  0.2702714E-011  0.5052886E+02  0.7816164E-02  0.1300439E+00
        -11   -1    0    0    0    0  0.00000000000E+00  0.00000000000E+00  0.45593999997E+02  0.45594000000E+02  0.51100000000E-03 0.  1.
         11   -1    0    0    0    0 -0.00000000000E+00 -0.00000000000E+00 -0.45593999997E+02  0.45594000000E+02  0.51100000000E-03 0. -1.
    9900012    2    1    2    0    0 -0.53490670039E+01  0.13738380511E+01 -0.40282328588E+02  0.50528856560E+02  0.29999989998E+02 0.  0.
        -12    1    1    2    0    0  0.53490670039E+01 -0.13738380511E+01  0.40282328588E+02  0.40659143440E+02  0.00000000000E+00 0.  1.
         11    1    3    3    0    0  0.39250894912E+00 -0.36304908704E+01 -0.20870837402E+01  0.42060011929E+01  0.51100000000E-03 0. -1.
        -11    1    3    3    0    0 -0.14259252359E+02 -0.28471653095E+01 -0.19400600913E+02  0.24244915842E+02  0.51100000000E-03 0.  1.
         12    1    3    3    0    0  0.85176764056E+01  0.78514942310E+01 -0.18794643935E+02  0.22077939525E+02  0.00000000000E+00 0. -1.
</event>
<event>
 7    1  0.2702714E-011  0.5052886E+02  0.7816164E-02  0.1300439E+00
        -11   -1    0    0    0    0  0.00000000000E+00  0.00000000000E+00  0.45593999997E+02  0.45594000000E+02  0.51100000000E-03 0. -1.
         11   -1    0    0    0    0 -0.00000000000E+00 -0.00000000000E+00 -0.45593999997E+02  0.45594000000E+02  0.51100000000E-03 0.  1.
    9900012    2    1    2    0    0 -0.17187511241E+02  0.53170266202E+00  0.36843890261E+02  0.50528862036E+02  0.30000006646E+02 0.  0.
        -12    1    1    2    0    0  0.17187511241E+02 -0.53170266202E+00 -0.36843890261E+02  0.40659137964E+02  0.00000000000E+00 0.  1.
         11    1    3    3    0    0 -0.11830704753E+02 -0.34177080041E+01  0.97002448501E+00  0.12352621209E+02  0.51100000000E-03 0.  1.
        -11    1    3    3    0    0  0.31938400869E+00  0.64278221282E+01  0.13413412758E+02  0.14877450908E+02  0.51100000000E-03 0. -1.
        -12    1    3    3    0    0 -0.56761904963E+01 -0.24784114620E+01  0.22460453019E+02  0.23298789920E+02  0.00000000000E+00 0.  1.
</event>
<event>
 7    1  0.2702714E-011  0.5052886E+02  0.7816164E-02  0.1300439E+00
        -11   -1    0    0    0    0  0.00000000000E+00  0.00000000000E+00  0.45593999997E+02  0.45594000000E+02  0.51100000000E-03 0. -1.
         11   -1    0    0    0    0 -0.00000000000E+00 -0.00000000000E+00 -0.45593999997E+02  0.45594000000E+02  0.51100000000E-03 0.  1.
    9900012    2    1    2    0    0 -0.30069245268E+02 -0.11053687432E+01  0.27345644638E+02  0.50528860416E+02  0.30000001721E+02 0.  0.
        -12    1    1    2    0    0  0.30069245268E+02  0.11053687432E+01 -0.27345644638E+02  0.40659139584E+02  0.00000000000E+00 0.  1.
         11    1    3    3    0    0  0.36947713335E+01 -0.38759986332E+01  0.41435375180E+00  0.53708835310E+01  0.51100000000E-03 0.  1.
        -11    1    3    3    0    0 -0.54299221097E+00  0.22314679802E+01  0.45519842056E+01  0.50985145246E+01  0.51100000000E-03 0. -1.
         12    1    3    3    0    0 -0.33221024390E+02  0.53916190970E+00  0.22379306680E+02  0.40059462361E+02  0.00000000000E+00 0. -1.
</event>
<event>
 7    1  0.2702714E-011  0.5052886E+02  0.7816164E-02  0.1300439E+00
        -11   -1    0    0    0    0  0.00000000000E+00  0.00000000000E+00  0.45593999997E+02  0.45594000000E+02  0.51100000000E-03 0.  1.
         11   -1    0    0    0    0 -0.00000000000E+00 -0.00000000000E+00 -0.45593999997E+02  0.45594000000E+02  0.51100000000E-03 0. -1.
    9900012    2    1    2    0    0 -0.10730640993E+02 -0.31691099031E+02 -0.23101799542E+02  0.50528861347E+02  0.30000004551E+02 0.  0.
        -12    1    1    2    0    0  0.10730640993E+02  0.31691099031E+02  0.23101799542E+02  0.40659138653E+02  0.00000000000E+00 0.  1.
         11    1    3    3    0    0 -0.22214301020E+01 -0.23115669472E+02 -0.54025674816E+01  0.23842329217E+02  0.51100000000E-03 0. -1.
        -11    1    3    3    0    0  0.18474572842E+01  0.41752286794E+00  0.19533009588E+01  0.27208102946E+01  0.51100000000E-03 0.  1.
         12    1    3    3    0    0 -0.10356668175E+02 -0.89929524269E+01 -0.19652533019E+02  0.23965721836E+02  0.00000000000E+00 0. -1.
</event>
<event>
 7    1  0.2702714E-011  0.5052886E+02  0.7816164E-02  0.1300439E+00
        -11   -1    0    0    0    0  0.00000000000E+00  0.00000000000E+00  0.45593999997E+02  0.45594000000E+02  0.51100000000E-03 0.  1.
         11   -1    0    0    0    0 -0.00000000000E+00 -0.00000000000E+00 -0.45593999997E+02  0.45594000000E+02  0.51100000000E-03 0. -1.
    9900012    2    1    2    0    0  0.10486183017E+02 -0.31419027883E+02 -0.23580712335E+02  0.50528863983E+02  0.30000012564E+02 0.  0.
        -12    1    1    2    0    0 -0.10486183017E+02  0.31419027883E+02  0.23580712335E+02  0.40659136017E+02  0.00000000000E+00 0.  1.
         11    1    3    3    0    0 -0.25909584708E+01 -0.17678095893E+02 -0.13729732306E+02  0.22532946759E+02  0.51100000000E-03 0.  1.
        -11    1    3    3    0    0  0.76868681432E+01 -0.17838576710E+02 -0.76463893663E+01  0.20875105544E+02  0.51100000000E-03 0. -1.
        -12    1    3    3    0    0  0.53902733450E+01  0.40976447201E+01 -0.22045906630E+01  0.71208116796E+01  0.00000000000E+00 0.  1.
</event>
<event>
 7    1  0.2702714E-011  0.5052886E+02  0.7816164E-02  0.1300439E+00
        -11   -1    0    0    0    0  0.00000000000E+00  0.00000000000E+00  0.45593999997E+02  0.45594000000E+02  0.51100000000E-03 0.  1.
         11   -1    0    0    0    0 -0.00000000000E+00 -0.00000000000E+00 -0.45593999997E+02  0.45594000000E+02  0.51100000000E-03 0. -1.
    9900012    2    1    2    0    0 -0.57637408198E+01  0.90431569801E+01 -0.39219459874E+02  0.50528862906E+02  0.30000009290E+02 0.  0.
        -12    1    1    2    0    0  0.57637408198E+01 -0.90431569801E+01  0.39219459874E+02  0.40659137094E+02  0.00000000000E+00 0.  1.
         11    1    3    3    0    0  0.93050593387E-01 -0.97677002954E-01  0.20355983748E+01  0.20400637771E+01  0.51100000000E-03 0.  1.
        -11    1    3    3    0    0  0.17666673978E+01  0.10011725910E+02 -0.39267936044E+02  0.40562625295E+02  0.51100000000E-03 0. -1.
         12    1    3    3    0    0 -0.76234588110E+01 -0.87089192737E+00 -0.19871222043E+01  0.79261738340E+01  0.00000000000E+00 0. -1.
</event>
<event>
 7    1  0.2702714E-011  0.5052891E+02  0.7816164E-02  0.1300439E+00
        -11   -1    0    0    0    0  0.00000000000E+00  0.00000000000E+00  0.45593999997E+02  0.45594000000E+02  0.51100000000E-03 0.  1.
         11   -1    0    0    0    0 -0.00000000000E+00 -0.00000000000E+00 -0.45593999997E+02  0.45594000000E+02  0.51100000000E-03 0. -1.
    9900012    2    1    2    0    0  0.13555332360E+02  0.27554638662E+02 -0.26648756827E+02  0.50528912607E+02  0.30000160360E+02 0.  0.
        -12    1    1    2    0    0 -0.13555332360E+02 -0.27554638662E+02  0.26648756827E+02  0.40659087393E+02  0.00000000000E+00 0.  1.
         11    1    3    3    0    0  0.34675066185E+01  0.87349283974E+00 -0.10155041248E+02  0.10766218227E+02  0.51100000000E-03 0. -1.
        -11    1    3    3    0    0 -0.92581873383E+00 -0.16977538360E+01  0.30330062098E+01  0.35970314630E+01  0.51100000000E-03 0.  1.
         12    1    3    3    0    0  0.11013644475E+02  0.28378899658E+02 -0.19526721789E+02  0.36165662918E+02  0.00000000000E+00 0. -1.
</event>
<event>
 7    1  0.2702714E-011  0.5052886E+02  0.7816164E-02  0.1300439E+00
        -11   -1    0    0    0    0  0.00000000000E+00  0.00000000000E+00  0.45593999997E+02  0.45594000000E+02  0.51100000000E-03 0. -1.
         11   -1    0    0    0    0 -0.00000000000E+00 -0.00000000000E+00 -0.45593999997E+02  0.45594000000E+02  0.51100000000E-03 0.  1.
    9900012    2    1    2    0    0 -0.30157019415E+00  0.40346045062E+02  0.50270339617E+01  0.50528863669E+02  0.30000011609E+02 0.  0.
        -12    1    1    2    0    0  0.30157019415E+00 -0.40346045062E+02 -0.50270339617E+01  0.40659136331E+02  0.00000000000E+00 0.  1.
         11    1    3    3    0    0 -0.29137576314E+01  0.26443137160E+01  0.16417092230E+01  0.42635182651E+01  0.51100000000E-03 0. -1.
        -11    1    3    3    0    0 -0.99701393090E+01  0.69693778023E+01  0.46751246453E+01  0.13031987397E+02  0.51100000000E-03 0.  1.
         12    1    3    3    0    0  0.12582326746E+02  0.30732353543E+02 -0.12897999066E+01  0.33233358008E+02  0.00000000000E+00 0. -1.
</event>
<event>
 7    1  0.2702714E-011  0.5052885E+02  0.7816164E-02  0.1300439E+00
        -11   -1    0    0    0    0  0.00000000000E+00  0.00000000000E+00  0.45593999997E+02  0.45594000000E+02  0.51100000000E-03 0.  1.
         11   -1    0    0    0    0 -0.00000000000E+00 -0.00000000000E+00 -0.45593999997E+02  0.45594000000E+02  0.51100000000E-03 0. -1.
    9900012    2    1    2    0    0 -0.35026948400E+02  0.35914539592E+01 -0.20331759557E+02  0.50528854627E+02  0.29999984126E+02 0.  0.
        -12    1    1    2    0    0  0.35026948400E+02 -0.35914539592E+01  0.20331759557E+02  0.40659145373E+02  0.00000000000E+00 0.  1.
         11    1    3    3    0    0 -0.14196786109E+02  0.10322856298E+02 -0.63525945445E+01  0.18667232138E+02  0.51100000000E-03 0. -1.
        -11    1    3    3    0    0  0.20803796155E+01  0.21131371703E+01 -0.48033250406E+01  0.56449322185E+01  0.51100000000E-03 0.  1.
        -12    1    3    3    0    0 -0.22910541907E+02 -0.88445395094E+01 -0.91758399717E+01  0.26216690271E+02  0.00000000000E+00 0.  1.
</event>
<event>
 7    1  0.2702714E-011  0.5052887E+02  0.7816164E-02  0.1300439E+00
        -11   -1    0    0    0    0  0.00000000000E+00  0.00000000000E+00  0.45593999997E+02  0.45594000000E+02  0.51100000000E-03 0.  1.
         11   -1    0    0    0    0 -0.00000000000E+00 -0.00000000000E+00 -0.45593999997E+02  0.45594000000E+02  0.51100000000E-03 0. -1.
    9900012    2    1    2    0    0 -0.35321421801E+02  0.18349233352E+02 -0.82986516592E+01  0.50528870373E+02  0.30000031986E+02 0.  0.
        -12    1    1    2    0    0  0.35321421801E+02 -0.18349233352E+02  0.82986516592E+01  0.40659129627E+02  0.00000000000E+00 0.  1.
         11    1    3    3    0    0 -0.93883541922E+01  0.42629407108E+01 -0.96950855521E+01  0.14153040029E+02  0.51100000000E-03 0. -1.
        -11    1    3    3    0    0 -0.15930503685E+02  0.19328929736E+02  0.13174418014E+01  0.25082346891E+02  0.51100000000E-03 0.  1.
         12    1    3    3    0    0 -0.10002563924E+02 -0.52426370944E+01  0.78992091569E-01  0.11293483453E+02  0.00000000000E+00 0. -1.
</event>
<event>
 7    1  0.2702714E-011  0.5052886E+02  0.7816164E-02  0.1300439E+00
        -11   -1    0    0    0    0  0.00000000000E+00  0.00000000000E+00  0.45593999997E+02  0.45594000000E+02  0.51100000000E-03 0. -1.
         11   -1    0    0    0    0 -0.00000000000E+00 -0.00000000000E+00 -0.45593999997E+02  0.45594000000E+02  0.51100000000E-03 0.  1.
    9900012    2    1    2    0    0 -0.31849929162E+02  0.18493004311E+02 -0.17226621622E+02  0.50528859716E+02  0.29999999594E+02 0.  0.
        -12    1    1    2    0    0  0.31849929162E+02 -0.18493004311E+02  0.17226621622E+02  0.40659140284E+02  0.00000000000E+00 0.  1.
         11    1    3    3    0    0 -0.28856409073E+02  0.15000910445E+02 -0.27726796057E+01  0.32640579211E+02  0.51100000000E-03 0. -1.
        -11    1    3    3    0    0 -0.40579144349E+01  0.63232645799E+01 -0.10425967877E+02  0.12851114774E+02  0.51100000000E-03 0.  1.
        -12    1    3    3    0    0  0.10643943453E+01 -0.28311707145E+01 -0.40279741399E+01  0.50371657317E+01  0.00000000000E+00 0.  1.
</event>
<event>
 7    1  0.2702714E-011  0.5052885E+02  0.7816164E-02  0.1300439E+00
        -11   -1    0    0    0    0  0.00000000000E+00  0.00000000000E+00  0.45593999997E+02  0.45594000000E+02  0.51100000000E-03 0.  1.
         11   -1    0    0    0    0 -0.00000000000E+00 -0.00000000000E+00 -0.45593999997E+02  0.45594000000E+02  0.51100000000E-03 0. -1.
    9900012    2    1    2    0    0 -0.34539629776E+02  0.20880003782E+02 -0.49199133795E+01  0.50528854281E+02  0.29999983072E+02 0.  0.
        -12    1    1    2    0    0  0.34539629776E+02 -0.20880003782E+02  0.49199133795E+01  0.40659145719E+02  0.00000000000E+00 0.  1.
         11    1    3    3    0    0 -0.12437792511E+02  0.46701488927E+01 -0.32587907646E+01  0.13679498921E+02  0.51100000000E-03 0. -1.
        -11    1    3    3    0    0 -0.37300078177E+01  0.13664781471E+02 -0.91327645739E+01  0.16853682090E+02  0.51100000000E-03 0.  1.
         12    1    3    3    0    0 -0.18371829447E+02  0.25450734176E+01  0.74716419589E+01  0.19995673269E+02  0.00000000000E+00 0. -1.
</event>
<event>
 7    1  0.2702714E-011  0.5052898E+02  0.7816164E-02  0.1300438E+00
        -11   -1    0    0    0    0  0.00000000000E+00  0.00000000000E+00  0.45593999997E+02  0.45594000000E+02  0.51100000000E-03 0.  1.
         11   -1    0    0    0    0 -0.00000000000E+00 -0.00000000000E+00 -0.45593999997E+02  0.45594000000E+02  0.51100000000E-03 0. -1.
    9900012    2    1    2    0    0  0.17264444081E+02 -0.35486377700E+01 -0.36640164931E+02  0.50528984448E+02  0.30000378726E+02 0.  0.
        -12    1    1    2    0    0 -0.17264444081E+02  0.35486377700E+01  0.36640164931E+02  0.40659015552E+02  0.00000000000E+00 0.  1.
         11    1    3    3    0    0  0.13811428388E+02 -0.17876291778E+01 -0.20149666495E+02  0.24494085660E+02  0.51100000000E-03 0. -1.
        -11    1    3    3    0    0  0.32672164854E+01  0.78849803322E+01 -0.22372518139E+01  0.88234298513E+01  0.51100000000E-03 0.  1.
         12    1    3    3    0    0  0.18579920757E+00 -0.96459889244E+01 -0.14253246622E+02  0.17211468936E+02  0.00000000000E+00 0. -1.
</event>
<event>
 7    1  0.2702714E-011  0.5052886E+02  0.7816164E-02  0.1300439E+00
        -11   -1    0    0    0    0  0.00000000000E+00  0.00000000000E+00  0.45593999997E+02  0.45594000000E+02  0.51100000000E-03 0. -1.
         11   -1    0    0    0    0 -0.00000000000E+00 -0.00000000000E+00 -0.45593999997E+02  0.45594000000E+02  0.51100000000E-03 0.  1.
    9900012    2    1    2    0    0 -0.54946042941E+01  0.37016887003E+01  0.40115742911E+02  0.50528855827E+02  0.29999987771E+02 0.  0.
        -12    1    1    2    0    0  0.54946042941E+01 -0.37016887003E+01 -0.40115742911E+02  0.40659144173E+02  0.00000000000E+00 0.  1.
         11    1    3    3    0    0  0.55586565934E+01 -0.37513759289E+01  0.17916707427E+02  0.19130600873E+02  0.51100000000E-03 0. -1.
        -11    1    3    3    0    0 -0.73249834812E+01 -0.36610172257E+00  0.21489675993E+02  0.22706730016E+02  0.51100000000E-03 0.  1.
        -12    1    3    3    0    0 -0.37282774064E+01  0.78191663518E+01  0.70935949110E+00  0.86915249378E+01  0.00000000000E+00 0.  1.
</event>
<event>
 7    1  0.2702714E-011  0.5052888E+02  0.7816164E-02  0.1300439E+00
        -11   -1    0    0    0    0  0.00000000000E+00  0.00000000000E+00  0.45593999997E+02  0.45594000000E+02  0.51100000000E-03 0.  1.
         11   -1    0    0    0    0 -0.00000000000E+00 -0.00000000000E+00 -0.45593999997E+02  0.45594000000E+02  0.51100000000E-03 0. -1.
    9900012    2    1    2    0    0  0.10643534789E+02  0.31209445192E+02 -0.23787598328E+02  0.50528878807E+02  0.30000057621E+02 0.  0.
        -12    1    1    2    0    0 -0.10643534789E+02 -0.31209445192E+02  0.23787598328E+02  0.40659121193E+02  0.00000000000E+00 0.  1.
         11    1    3    3    0    0 -0.31552905590E+01 -0.18821336403E+01 -0.36045069185E+01  0.51469171295E+01  0.51100000000E-03 0.  1.
        -11    1    3    3    0    0 -0.34007171372E+01  0.92987309424E+01 -0.26532878434E+00  0.99046289083E+01  0.51100000000E-03 0. -1.
        -12    1    3    3    0    0  0.17199542485E+02  0.23792847890E+02 -0.19917762625E+02  0.35477332769E+02  0.00000000000E+00 0.  1.
</event>
<event>
 7    1  0.2702714E-011  0.5052886E+02  0.7816164E-02  0.1300439E+00
        -11   -1    0    0    0    0  0.00000000000E+00  0.00000000000E+00  0.45593999997E+02  0.45594000000E+02  0.51100000000E-03 0. -1.
         11   -1    0    0    0    0 -0.00000000000E+00 -0.00000000000E+00 -0.45593999997E+02  0.45594000000E+02  0.51100000000E-03 0.  1.
    9900012    2    1    2    0    0  0.39425322596E+02  0.87130160146E+01  0.47846382088E+01  0.50528862372E+02  0.30000007665E+02 0.  0.
        -12    1    1    2    0    0 -0.39425322596E+02 -0.87130160146E+01 -0.47846382088E+01  0.40659137628E+02  0.00000000000E+00 0.  1.
         11    1    3    3    0    0  0.25330523793E+02  0.11069377308E+02  0.41007606355E+01  0.27946069270E+02  0.51100000000E-03 0. -1.
        -11    1    3    3    0    0  0.14020783868E+02 -0.78393268308E+01  0.34670670030E+01  0.16433440884E+02  0.51100000000E-03 0.  1.
        -12    1    3    3    0    0  0.74014935767E-01  0.54829655373E+01 -0.27831894298E+01  0.61493522176E+01  0.00000000000E+00 0.  1.
</event>
<event>
 7    1  0.2702714E-011  0.5052873E+02  0.7816164E-02  0.1300439E+00
        -11   -1    0    0    0    0  0.00000000000E+00  0.00000000000E+00  0.45593999997E+02  0.45594000000E+02  0.51100000000E-03 0.  1.
         11   -1    0    0    0    0 -0.00000000000E+00 -0.00000000000E+00 -0.45593999997E+02  0.45594000000E+02  0.51100000000E-03 0. -1.
    9900012    2    1    2    0    0 -0.73941097422E+01 -0.31054272164E+02 -0.25182054879E+02  0.50528725948E+02  0.29999592990E+02 0.  0.
        -12    1    1    2    0    0  0.73941097422E+01  0.31054272164E+02  0.25182054879E+02  0.40659274052E+02  0.00000000000E+00 0.  1.
         11    1    3    3    0    0  0.26705513495E+01 -0.52183391583E+00  0.26481903557E+01  0.37969813757E+01  0.51100000000E-03 0. -1.
        -11    1    3    3    0    0 -0.39586094163E+01 -0.21563423395E+02 -0.66101770265E+01  0.22898608202E+02  0.51100000000E-03 0.  1.
         12    1    3    3    0    0 -0.61060516754E+01 -0.89690148532E+01 -0.21220068208E+02  0.23833136371E+02  0.00000000000E+00 0. -1.
</event>
<event>
 7    1  0.2702714E-011  0.5052886E+02  0.7816164E-02  0.1300439E+00
        -11   -1    0    0    0    0  0.00000000000E+00  0.00000000000E+00  0.45593999997E+02  0.45594000000E+02  0.51100000000E-03 0.  1.
         11   -1    0    0    0    0 -0.00000000000E+00 -0.00000000000E+00 -0.45593999997E+02  0.45594000000E+02  0.51100000000E-03 0. -1.
    9900012    2    1    2    0    0  0.20403158686E+02 -0.31090496194E+01 -0.35031560981E+02  0.50528864019E+02  0.30000012673E+02 0.  0.
        -12    1    1    2    0    0 -0.20403158686E+02  0.31090496194E+01  0.35031560981E+02  0.40659135981E+02  0.00000000000E+00 0.  1.
         11    1    3    3    0    0  0.11231509198E+02  0.41629767551E+00 -0.15990160995E+02  0.19544957189E+02  0.51100000000E-03 0. -1.
        -11    1    3    3    0    0  0.53000534546E+01 -0.21309385198E+01  0.43834084058E+01  0.72003982606E+01  0.51100000000E-03 0.  1.
         12    1    3    3    0    0  0.38715960338E+01 -0.13944087751E+01 -0.23424808392E+02  0.23783508569E+02  0.00000000000E+00 0. -1.
</event>
<event>
 7    1  0.2702714E-011  0.5052886E+02  0.7816164E-02  0.1300439E+00
        -11   -1    0    0    0    0  0.00000000000E+00  0.00000000000E+00  0.45593999997E+02  0.45594000000E+02  0.51100000000E-03 0.  1.
         11   -1    0    0    0    0 -0.00000000000E+00 -0.00000000000E+00 -0.45593999997E+02  0.45594000000E+02  0.51100000000E-03 0. -1.
    9900012    2    1    2    0    0 -0.28874647760E+02 -0.21069868633E+02 -0.19377340460E+02  0.50528856247E+02  0.29999989048E+02 0.  0.
        -12    1    1    2    0    0  0.28874647760E+02  0.21069868633E+02  0.19377340460E+02  0.40659143753E+02  0.00000000000E+00 0.  1.
         11    1    3    3    0    0 -0.14652288916E+02  0.11179727693E+01 -0.75679531441E+01  0.16529166605E+02  0.51100000000E-03 0. -1.
        -11    1    3    3    0    0  0.34802072911E+01 -0.18508721186E+00 -0.27864760631E+00  0.34962472474E+01  0.51100000000E-03 0.  1.
         12    1    3    3    0    0 -0.17702566135E+02 -0.22002754190E+02 -0.11530739709E+02  0.30503442395E+02  0.00000000000E+00 0. -1.
</event>
<event>
 7    1  0.2702714E-011  0.5052887E+02  0.7816164E-02  0.1300439E+00
        -11   -1    0    0    0    0  0.00000000000E+00  0.00000000000E+00  0.45593999997E+02  0.45594000000E+02  0.51100000000E-03 0.  1.
         11   -1    0    0    0    0 -0.00000000000E+00 -0.00000000000E+00 -0.45593999997E+02  0.45594000000E+02  0.51100000000E-03 0. -1.
    9900012    2    1    2    0    0  0.16852566204E+02 -0.31453771905E+02 -0.19488874317E+02  0.50528868469E+02  0.30000026199E+02 0.  0.
        -12    1    1    2    0    0 -0.16852566204E+02  0.31453771905E+02  0.19488874317E+02  0.40659131531E+02  0.00000000000E+00 0.  1.
         11    1    3    3    0    0  0.13803111459E+02 -0.79797328144E+01 -0.69933227835E+01  0.17410013944E+02  0.51100000000E-03 0.  1.
        -11    1    3    3    0    0  0.58884705348E+01 -0.81516613306E+01  0.36328111863E+01  0.10692099189E+02  0.51100000000E-03 0. -1.
         12    1    3    3    0    0 -0.28390157894E+01 -0.15322377760E+02 -0.16128362720E+02  0.22426755336E+02  0.00000000000E+00 0. -1.
</event>
<event>
 7    1  0.2702714E-011  0.5052886E+02  0.7816164E-02  0.1300439E+00
        -11   -1    0    0    0    0  0.00000000000E+00  0.00000000000E+00  0.45593999997E+02  0.45594000000E+02  0.51100000000E-03 0.  1.
         11   -1    0    0    0    0 -0.00000000000E+00 -0.00000000000E+00 -0.45593999997E+02  0.45594000000E+02  0.51100000000E-03 0. -1.
    9900012    2    1    2    0    0 -0.46514785493E+01  0.66168249390E+01 -0.39846544003E+02  0.50528859651E+02  0.29999999395E+02 0.  0.
        -12    1    1    2    0    0  0.46514785493E+01 -0.66168249390E+01  0.39846544003E+02  0.40659140349E+02  0.00000000000E+00 0.  1.
         11    1    3    3    0    0 -0.94743670770E+01 -0.21506991601E+01 -0.14695955645E+02  0.17617044331E+02  0.51100000000E-03 0. -1.
        -11    1    3    3    0    0 -0.27181799826E+01  0.92437463153E+01 -0.39649643985E+01  0.10419035047E+02  0.51100000000E-03 0.  1.
         12    1    3    3    0    0  0.75410685104E+01 -0.47622221619E+00 -0.21185623959E+02  0.22492780273E+02  0.00000000000E+00 0. -1.
</event>
<event>
 7    1  0.2702714E-011  0.5052886E+02  0.7816164E-02  0.1300439E+00
        -11   -1    0    0    0    0  0.00000000000E+00  0.00000000000E+00  0.45593999997E+02  0.45594000000E+02  0.51100000000E-03 0.  1.
         11   -1    0    0    0    0 -0.00000000000E+00 -0.00000000000E+00 -0.45593999997E+02  0.45594000000E+02  0.51100000000E-03 0. -1.
    9900012    2    1    2    0    0  0.16896301392E+02  0.29547665590E+02 -0.22239965843E+02  0.50528860520E+02  0.30000002036E+02 0.  0.
        -12    1    1    2    0    0 -0.16896301392E+02 -0.29547665590E+02  0.22239965843E+02  0.40659139480E+02  0.00000000000E+00 0.  1.
         11    1    3    3    0    0  0.10616983198E+01  0.17343351468E+01 -0.73113808675E+00  0.21609453687E+01  0.51100000000E-03 0. -1.
        -11    1    3    3    0    0  0.64894144288E+00  0.25464593723E+02 -0.20966988788E+02  0.32992139633E+02  0.51100000000E-03 0.  1.
         12    1    3    3    0    0  0.15185661630E+02  0.23487367199E+01 -0.54183896841E+00  0.15375775518E+02  0.00000000000E+00 0. -1.
</event>
<event>
 7    1  0.2702714E-011  0.5052886E+02  0.7816164E-02  0.1300439E+00
        -11   -1    0    0    0    0  0.00000000000E+00  0.00000000000E+00  0.45593999997E+02  0.45594000000E+02  0.51100000000E-03 0. -1.
         11   -1    0    0    0    0 -0.00000000000E+00 -0.00000000000E+00 -0.45593999997E+02  0.45594000000E+02  0.51100000000E-03 0.  1.
    9900012    2    1    2    0    0 -0.30710918514E+02 -0.24047081321E+00  0.26644829955E+02  0.50528864427E+02  0.30000013911E+02 0.  0.
        -12    1    1    2    0    0  0.30710918514E+02  0.24047081321E+00 -0.26644829955E+02  0.40659135573E+02  0.00000000000E+00 0.  1.
         11    1    3    3    0    0 -0.12099307149E+01 -0.23411991635E+00  0.78800907055E+01  0.79758745137E+01  0.51100000000E-03 0. -1.
        -11    1    3    3    0    0 -0.25933160486E+02  0.66074626891E+00  0.24554483815E+02  0.35719575503E+02  0.51100000000E-03 0.  1.
        -12    1    3    3    0    0 -0.35678273132E+01 -0.66709716577E+00 -0.57897445652E+01  0.68334144098E+01  0.00000000000E+00 0.  1.
</event>
<event>
 7    1  0.2702714E-011  0.5052885E+02  0.7816164E-02  0.1300439E+00
        -11   -1    0    0    0    0  0.00000000000E+00  0.00000000000E+00  0.45593999997E+02  0.45594000000E+02  0.51100000000E-03 0.  1.
         11   -1    0    0    0    0 -0.00000000000E+00 -0.00000000000E+00 -0.45593999997E+02  0.45594000000E+02  0.51100000000E-03 0. -1.
    9900012    2    1    2    0    0 -0.61533892692E+01  0.48677880128E+01 -0.39894948131E+02  0.50528850402E+02  0.29999971283E+02 0.  0.
        -12    1    1    2    0    0  0.61533892692E+01 -0.48677880128E+01  0.39894948131E+02  0.40659149598E+02  0.00000000000E+00 0.  1.
         11    1    3    3    0    0 -0.27655284993E+01  0.29686743241E+01 -0.29125717455E+01  0.49944218441E+01  0.51100000000E-03 0. -1.
        -11    1    3    3    0    0 -0.10782093170E+02 -0.18026490210E+01 -0.41764342119E+01  0.11702379229E+02  0.51100000000E-03 0.  1.
         12    1    3    3    0    0  0.73942324004E+01  0.37017627098E+01 -0.32805942174E+02  0.33832049330E+02  0.00000000000E+00 0. -1.
</event>
<event>
 7    1  0.3004095E-011  0.5052880E+02  0.7816164E-02  0.1300439E+00
        -11   -1    0    0    0    0  0.00000000000E+00  0.00000000000E+00  0.45593999997E+02  0.45594000000E+02  0.51100000000E-03 0.  1.
         11   -1    0    0    0    0 -0.00000000000E+00 -0.00000000000E+00 -0.45593999997E+02  0.45594000000E+02  0.51100000000E-03 0. -1.
    9900012    2    1    2    0    0 -0.22847887854E+02 -0.32378035442E+02 -0.90998560399E+01  0.50528800076E+02  0.29999818312E+02 0.  0.
        -12    1    1    2    0    0  0.22847887854E+02  0.32378035442E+02  0.90998560399E+01  0.40659199924E+02  0.00000000000E+00 0.  1.
         11    1    3    3    0    0 -0.58864724856E+01 -0.15982055293E+02 -0.58414935090E+01  0.18005546267E+02  0.51100000000E-03 0. -1.
        -11    1    3    3    0    0 -0.19093631677E+02 -0.15361400850E+02 -0.91612791423E+01  0.26162347802E+02  0.51100000000E-03 0.  1.
        -12    1    3    3    0    0  0.21322163091E+01 -0.10345792994E+01  0.59029166115E+01  0.63609060076E+01  0.00000000000E+00 0.  1.
</event>
<event>
 7    1  0.2702714E-011  0.5052886E+02  0.7816164E-02  0.1300439E+00
        -11   -1    0    0    0    0  0.00000000000E+00  0.00000000000E+00  0.45593999997E+02  0.45594000000E+02  0.51100000000E-03 0.  1.
         11   -1    0    0    0    0 -0.00000000000E+00 -0.00000000000E+00 -0.45593999997E+02  0.45594000000E+02  0.51100000000E-03 0. -1.
    9900012    2    1    2    0    0  0.34445626065E+02  0.13938716859E+02 -0.16503836913E+02  0.50528860615E+02  0.30000002326E+02 0.  0.
        -12    1    1    2    0    0 -0.34445626065E+02 -0.13938716859E+02  0.16503836913E+02  0.40659139385E+02  0.00000000000E+00 0.  1.
         11    1    3    3    0    0  0.86580434901E+01  0.12580888566E+01  0.12476430414E+01  0.88374836955E+01  0.51100000000E-03 0. -1.
        -11    1    3    3    0    0 -0.24053339979E+00  0.83144526292E+01  0.22033404823E+01  0.86048061212E+01  0.51100000000E-03 0.  1.
        -12    1    3    3    0    0  0.26028115974E+02  0.43661753730E+01 -0.19954820436E+02  0.33086570799E+02  0.00000000000E+00 0.  1.
</event>
<event>
 7    1  0.2702714E-011  0.5052885E+02  0.7816164E-02  0.1300439E+00
        -11   -1    0    0    0    0  0.00000000000E+00  0.00000000000E+00  0.45593999997E+02  0.45594000000E+02  0.51100000000E-03 0. -1.
         11   -1    0    0    0    0 -0.00000000000E+00 -0.00000000000E+00 -0.45593999997E+02  0.45594000000E+02  0.51100000000E-03 0.  1.
    9900012    2    1    2    0    0  0.18538793683E+02  0.25032418438E+02  0.26131539415E+02  0.50528853474E+02  0.29999980618E+02 0.  0.
        -12    1    1    2    0    0 -0.18538793683E+02 -0.25032418438E+02 -0.26131539415E+02  0.40659146526E+02  0.00000000000E+00 0.  1.
         11    1    3    3    0    0  0.32135661394E+01  0.49135121969E+01  0.22155410551E+02  0.22920118376E+02  0.51100000000E-03 0. -1.
        -11    1    3    3    0    0  0.72885296167E+01  0.22783195386E+01 -0.26424836863E-01  0.76363670961E+01  0.51100000000E-03 0.  1.
        -12    1    3    3    0    0  0.80366979268E+01  0.17840586702E+02  0.40025537008E+01  0.19972368001E+02  0.00000000000E+00 0.  1.
</event>
<event>
 7    1  0.2702714E-011  0.5052884E+02  0.7816164E-02  0.1300439E+00
        -11   -1    0    0    0    0  0.00000000000E+00  0.00000000000E+00  0.45593999997E+02  0.45594000000E+02  0.51100000000E-03 0.  1.
         11   -1    0    0    0    0 -0.00000000000E+00 -0.00000000000E+00 -0.45593999997E+02  0.45594000000E+02  0.51100000000E-03 0. -1.
    9900012    2    1    2    0    0 -0.36994642752E+02  0.36368459193E+01 -0.16472307280E+02  0.50528841773E+02  0.29999945053E+02 0.  0.
        -12    1    1    2    0    0  0.36994642752E+02 -0.36368459193E+01  0.16472307280E+02  0.40659158227E+02  0.00000000000E+00 0.  1.
         11    1    3    3    0    0 -0.15215747344E+01  0.50060514409E+01 -0.38357627543E+01  0.64875894498E+01  0.51100000000E-03 0. -1.
        -11    1    3    3    0    0 -0.79790604239E+01 -0.79504553393E+01  0.31042066203E+01  0.11683802650E+02  0.51100000000E-03 0.  1.
         12    1    3    3    0    0 -0.27494007594E+02  0.65812498178E+01 -0.15740751146E+02  0.32357449674E+02  0.00000000000E+00 0. -1.
</event>
<event>
 7    1  0.2702714E-011  0.5052886E+02  0.7816164E-02  0.1300439E+00
        -11   -1    0    0    0    0  0.00000000000E+00  0.00000000000E+00  0.45593999997E+02  0.45594000000E+02  0.51100000000E-03 0.  1.
         11   -1    0    0    0    0 -0.00000000000E+00 -0.00000000000E+00 -0.45593999997E+02  0.45594000000E+02  0.51100000000E-03 0. -1.
    9900012    2    1    2    0    0 -0.39893662704E+02  0.48465389706E+01 -0.61783539219E+01  0.50528864235E+02  0.30000013330E+02 0.  0.
        -12    1    1    2    0    0  0.39893662704E+02 -0.48465389706E+01  0.61783539219E+01  0.40659135765E+02  0.00000000000E+00 0.  1.
         11    1    3    3    0    0 -0.20622958062E+02  0.56934894591E+01 -0.10800956168E+02  0.23966286234E+02  0.51100000000E-03 0. -1.
        -11    1    3    3    0    0 -0.12025655182E+02  0.49013914014E+01 -0.43317487764E+01  0.13689560547E+02  0.51100000000E-03 0.  1.
        -12    1    3    3    0    0 -0.72450494598E+01 -0.57483418900E+01  0.89543510224E+01  0.12873017455E+02  0.00000000000E+00 0.  1.
</event>
<event>
 7    1  0.2702714E-011  0.5052887E+02  0.7816164E-02  0.1300439E+00
        -11   -1    0    0    0    0  0.00000000000E+00  0.00000000000E+00  0.45593999997E+02  0.45594000000E+02  0.51100000000E-03 0.  1.
         11   -1    0    0    0    0 -0.00000000000E+00 -0.00000000000E+00 -0.45593999997E+02  0.45594000000E+02  0.51100000000E-03 0. -1.
    9900012    2    1    2    0    0 -0.27123380732E+02 -0.20064495044E+02 -0.22691471923E+02  0.50528872590E+02  0.30000038724E+02 0.  0.
        -12    1    1    2    0    0  0.27123380732E+02  0.20064495044E+02  0.22691471923E+02  0.40659127410E+02  0.00000000000E+00 0.  1.
         11    1    3    3    0    0  0.23289655513E+01 -0.37525346807E+01 -0.94358375351E+01  0.10418283319E+02  0.51100000000E-03 0. -1.
        -11    1    3    3    0    0 -0.26954321928E+01 -0.64454148773E+01  0.26318720878E+01  0.74656197729E+01  0.51100000000E-03 0.  1.
         12    1    3    3    0    0 -0.26756914091E+02 -0.98665454859E+01 -0.15887506476E+02  0.32644969498E+02  0.00000000000E+00 0. -1.
</event>
<event>
 7    1  0.2702714E-011  0.5052886E+02  0.7816164E-02  0.1300439E+00
        -11   -1    0    0    0    0  0.00000000000E+00  0.00000000000E+00  0.45593999997E+02  0.45594000000E+02  0.51100000000E-03 0.  1.
         11   -1    0    0    0    0 -0.00000000000E+00 -0.00000000000E+00 -0.45593999997E+02  0.45594000000E+02  0.51100000000E-03 0. -1.
    9900012    2    1    2    0    0  0.22101487557E+02 -0.95792684002E+01 -0.32755571656E+02  0.50528860685E+02  0.30000002537E+02 0.  0.
        -12    1    1    2    0    0 -0.22101487557E+02  0.95792684002E+01  0.32755571656E+02  0.40659139315E+02  0.00000000000E+00 0.  1.
         11    1    3    3    0    0  0.26020548274E+01 -0.90483331719E+01 -0.23117634893E+01  0.96947033584E+01  0.51100000000E-03 0. -1.
        -11    1    3    3    0    0  0.82479486652E+01  0.17768302472E+00  0.12700377135E+00  0.82508398760E+01  0.51100000000E-03 0.  1.
        -12    1    3    3    0    0  0.11251484065E+02 -0.70861825297E+00 -0.30570811938E+02  0.32583317450E+02  0.00000000000E+00 0.  1.
</event>
<event>
 7    1  0.2702714E-011  0.5052886E+02  0.7816164E-02  0.1300439E+00
        -11   -1    0    0    0    0  0.00000000000E+00  0.00000000000E+00  0.45593999997E+02  0.45594000000E+02  0.51100000000E-03 0.  1.
         11   -1    0    0    0    0 -0.00000000000E+00 -0.00000000000E+00 -0.45593999997E+02  0.45594000000E+02  0.51100000000E-03 0. -1.
    9900012    2    1    2    0    0 -0.13771646703E+02  0.26216284296E+02 -0.27860612497E+02  0.50528861495E+02  0.30000005001E+02 0.  0.
        -12    1    1    2    0    0  0.13771646703E+02 -0.26216284296E+02  0.27860612497E+02  0.40659138505E+02  0.00000000000E+00 0.  1.
         11    1    3    3    0    0 -0.28120010304E+00  0.94621760744E+01 -0.16266649895E+02  0.18820620304E+02  0.51100000000E-03 0. -1.
        -11    1    3    3    0    0  0.99641220721E+00  0.14639693498E+02 -0.39669727694E+01  0.15200340003E+02  0.51100000000E-03 0.  1.
        -12    1    3    3    0    0 -0.14486858807E+02  0.21144147243E+01 -0.76269898336E+01  0.16507901189E+02  0.00000000000E+00 0.  1.
</event>
<event>
 7    1  0.2702714E-011  0.5052893E+02  0.7816164E-02  0.1300439E+00
        -11   -1    0    0    0    0  0.00000000000E+00  0.00000000000E+00  0.45593999997E+02  0.45594000000E+02  0.51100000000E-03 0.  1.
         11   -1    0    0    0    0 -0.00000000000E+00 -0.00000000000E+00 -0.45593999997E+02  0.45594000000E+02  0.51100000000E-03 0. -1.
    9900012    2    1    2    0    0  0.17087065476E+02 -0.33689404817E+02 -0.15040495759E+02  0.50528925784E+02  0.30000200411E+02 0.  0.
        -12    1    1    2    0    0 -0.17087065476E+02  0.33689404817E+02  0.15040495759E+02  0.40659074216E+02  0.00000000000E+00 0.  1.
         11    1    3    3    0    0 -0.14042868902E+01 -0.60309923180E+01 -0.74070728389E+01  0.96545128469E+01  0.51100000000E-03 0. -1.
        -11    1    3    3    0    0  0.23923597816E+01 -0.21436648706E+02  0.96591999942E+00  0.21591347683E+02  0.51100000000E-03 0.  1.
        -12    1    3    3    0    0  0.16098992584E+02 -0.62217637923E+01 -0.85993429197E+01  0.19283065253E+02  0.00000000000E+00 0.  1.
</event>
<event>
 7    1  0.2702714E-011  0.5052887E+02  0.7816164E-02  0.1300439E+00
        -11   -1    0    0    0    0  0.00000000000E+00  0.00000000000E+00  0.45593999997E+02  0.45594000000E+02  0.51100000000E-03 0. -1.
         11   -1    0    0    0    0 -0.00000000000E+00 -0.00000000000E+00 -0.45593999997E+02  0.45594000000E+02  0.51100000000E-03 0.  1.
    9900012    2    1    2    0    0 -0.20013929028E+02  0.33407622800E+02  0.11684960320E+02  0.50528869242E+02  0.30000028548E+02 0.  0.
        -12    1    1    2    0    0  0.20013929028E+02 -0.33407622800E+02 -0.11684960320E+02  0.40659130758E+02  0.00000000000E+00 0.  1.
         11    1    3    3    0    0 -0.11159589205E+02  0.21902739648E+02 -0.51232299621E+01  0.25110036257E+02  0.51100000000E-03 0. -1.
        -11    1    3    3    0    0  0.24810341939E+01  0.59283749359E+01  0.53023803976E+01  0.83316503884E+01  0.51100000000E-03 0.  1.
        -12    1    3    3    0    0 -0.11335374017E+02  0.55765082168E+01  0.11505809885E+02  0.17087182597E+02  0.00000000000E+00 0.  1.
</event>
<event>
 7    1  0.2702714E-011  0.5052890E+02  0.7816164E-02  0.1300439E+00
        -11   -1    0    0    0    0  0.00000000000E+00  0.00000000000E+00  0.45593999997E+02  0.45594000000E+02  0.51100000000E-03 0.  1.
         11   -1    0    0    0    0 -0.00000000000E+00 -0.00000000000E+00 -0.45593999997E+02  0.45594000000E+02  0.51100000000E-03 0. -1.
    9900012    2    1    2    0    0 -0.16371798932E+02 -0.24055895868E+01 -0.37139464792E+02  0.50528898847E+02  0.30000118534E+02 0.  0.
        -12    1    1    2    0    0  0.16371798932E+02  0.24055895868E+01  0.37139464792E+02  0.40659101153E+02  0.00000000000E+00 0.  1.
         11    1    3    3    0    0  0.22756090571E+01 -0.42284576542E+01 -0.27082023934E+02  0.27504440938E+02  0.51100000000E-03 0. -1.
        -11    1    3    3    0    0 -0.10443333089E+01  0.25347320415E+01 -0.62970252573E-02  0.27414482479E+01  0.51100000000E-03 0.  1.
        -12    1    3    3    0    0 -0.17603074681E+02 -0.71186397418E+00 -0.10051143834E+02  0.20283009661E+02  0.00000000000E+00 0.  1.
</event>
<event>
 7    1  0.2702714E-011  0.5052886E+02  0.7816164E-02  0.1300439E+00
        -11   -1    0    0    0    0  0.00000000000E+00  0.00000000000E+00  0.45593999997E+02  0.45594000000E+02  0.51100000000E-03 0. -1.
         11   -1    0    0    0    0 -0.00000000000E+00 -0.00000000000E+00 -0.45593999997E+02  0.45594000000E+02  0.51100000000E-03 0.  1.
    9900012    2    1    2    0    0  0.23395161161E+02 -0.16127289888E+02  0.29081658310E+02  0.50528857179E+02  0.29999991881E+02 0.  0.
        -12    1    1    2    0    0 -0.23395161161E+02  0.16127289888E+02 -0.29081658310E+02  0.40659142821E+02  0.00000000000E+00 0.  1.
         11    1    3    3    0    0  0.36476772624E+00 -0.13908580616E+02  0.11446944776E+02  0.18017053456E+02  0.51100000000E-03 0. -1.
        -11    1    3    3    0    0  0.16167460438E+02 -0.68252067036E+01  0.66547809997E+01  0.18768493119E+02  0.51100000000E-03 0.  1.
        -12    1    3    3    0    0  0.68629329975E+01  0.46064974319E+01  0.10979932534E+02  0.13743310604E+02  0.00000000000E+00 0.  1.
</event>
<event>
 7    1  0.2702714E-011  0.5052886E+02  0.7816164E-02  0.1300439E+00
        -11   -1    0    0    0    0  0.00000000000E+00  0.00000000000E+00  0.45593999997E+02  0.45594000000E+02  0.51100000000E-03 0.  1.
         11   -1    0    0    0    0 -0.00000000000E+00 -0.00000000000E+00 -0.45593999997E+02  0.45594000000E+02  0.51100000000E-03 0. -1.
    9900012    2    1    2    0    0 -0.10063205023E+02 -0.76603161574E+01 -0.38642166052E+02  0.50528861591E+02  0.30000005291E+02 0.  0.
        -12    1    1    2    0    0  0.10063205023E+02  0.76603161574E+01  0.38642166052E+02  0.40659138409E+02  0.00000000000E+00 0.  1.
         11    1    3    3    0    0 -0.86552741671E+01 -0.29387192675E+01 -0.17207446605E+02  0.19484508225E+02  0.51100000000E-03 0. -1.
        -11    1    3    3    0    0 -0.49033683895E+01  0.77816288952E+01 -0.65399098638E+01  0.11285707382E+02  0.51100000000E-03 0.  1.
         12    1    3    3    0    0  0.34954375334E+01 -0.12503225785E+02 -0.14894809584E+02  0.19758645984E+02  0.00000000000E+00 0. -1.
</event>
<event>
 7    1  0.2702714E-011  0.5052888E+02  0.7816164E-02  0.1300439E+00
        -11   -1    0    0    0    0  0.00000000000E+00  0.00000000000E+00  0.45593999997E+02  0.45594000000E+02  0.51100000000E-03 0.  1.
         11   -1    0    0    0    0 -0.00000000000E+00 -0.00000000000E+00 -0.45593999997E+02  0.45594000000E+02  0.51100000000E-03 0. -1.
    9900012    2    1    2    0    0 -0.21174213022E+02  0.45172908940E+01 -0.34415271983E+02  0.50528878516E+02  0.30000056739E+02 0.  0.
        -12    1    1    2    0    0  0.21174213022E+02 -0.45172908940E+01  0.34415271983E+02  0.40659121484E+02  0.00000000000E+00 0.  1.
         11    1    3    3    0    0 -0.15100241569E+02  0.25143504646E+01 -0.13751055092E+01  0.15369781037E+02  0.51100000000E-03 0. -1.
        -11    1    3    3    0    0 -0.11051705762E+00  0.46234109481E+01 -0.75848938257E+01  0.88836229897E+01  0.51100000000E-03 0.  1.
        -12    1    3    3    0    0 -0.59634543959E+01 -0.26204705188E+01 -0.25455272648E+02  0.26275474490E+02  0.00000000000E+00 0.  1.
</event>
<event>
 7    1  0.2702714E-011  0.5052886E+02  0.7816164E-02  0.1300439E+00
        -11   -1    0    0    0    0  0.00000000000E+00  0.00000000000E+00  0.45593999997E+02  0.45594000000E+02  0.51100000000E-03 0.  1.
         11   -1    0    0    0    0 -0.00000000000E+00 -0.00000000000E+00 -0.45593999997E+02  0.45594000000E+02  0.51100000000E-03 0. -1.
    9900012    2    1    2    0    0 -0.29315011042E+02  0.13430175200E+02 -0.24767441337E+02  0.50528860453E+02  0.30000001833E+02 0.  0.
        -12    1    1    2    0    0  0.29315011042E+02 -0.13430175200E+02  0.24767441337E+02  0.40659139547E+02  0.00000000000E+00 0.  1.
         11    1    3    3    0    0 -0.31188911013E+01  0.38742756127E+01 -0.17503385644E+02  0.18196318377E+02  0.51100000000E-03 0.  1.
        -11    1    3    3    0    0 -0.21998734509E+02  0.70952078910E+01 -0.11557991911E+02  0.25843248098E+02  0.51100000000E-03 0. -1.
        -12    1    3    3    0    0 -0.41973854324E+01  0.24606916963E+01  0.42939362170E+01  0.64892939776E+01  0.00000000000E+00 0.  1.
</event>
<event>
 7    1  0.2702714E-011  0.5052887E+02  0.7816164E-02  0.1300439E+00
        -11   -1    0    0    0    0  0.00000000000E+00  0.00000000000E+00  0.45593999997E+02  0.45594000000E+02  0.51100000000E-03 0. -1.
         11   -1    0    0    0    0 -0.00000000000E+00 -0.00000000000E+00 -0.45593999997E+02  0.45594000000E+02  0.51100000000E-03 0.  1.
    9900012    2    1    2    0    0 -0.34700660068E+02 -0.87205303906E+01  0.19312734123E+02  0.50528866233E+02  0.30000019401E+02 0.  0.
        -12    1    1    2    0    0  0.34700660068E+02  0.87205303906E+01 -0.19312734123E+02  0.40659133767E+02  0.00000000000E+00 0.  1.
         11    1    3    3    0    0 -0.77643375547E+01 -0.90932179199E+01  0.33853847264E+01  0.12427082514E+02  0.51100000000E-03 0. -1.
        -11    1    3    3    0    0 -0.19787908578E+02 -0.17263757090E+01 -0.70654878514E+00  0.19875636101E+02  0.51100000000E-03 0.  1.
         12    1    3    3    0    0 -0.71484139347E+01  0.20990632383E+01  0.16633898181E+02  0.18226147617E+02  0.00000000000E+00 0. -1.
</event>
<event>
 7    1  0.2702714E-011  0.5052887E+02  0.7816164E-02  0.1300439E+00
        -11   -1    0    0    0    0  0.00000000000E+00  0.00000000000E+00  0.45593999997E+02  0.45594000000E+02  0.51100000000E-03 0. -1.
         11   -1    0    0    0    0 -0.00000000000E+00 -0.00000000000E+00 -0.45593999997E+02  0.45594000000E+02  0.51100000000E-03 0.  1.
    9900012    2    1    2    0    0  0.37982931693E+02  0.12810470230E+02  0.68083766004E+01  0.50528865240E+02  0.30000016384E+02 0.  0.
        -12    1    1    2    0    0 -0.37982931693E+02 -0.12810470230E+02 -0.68083766004E+01  0.40659134760E+02  0.00000000000E+00 0.  1.
         11    1    3    3    0    0  0.13099572630E+02  0.12421987567E+02 -0.69396171848E+01  0.19340704877E+02  0.51100000000E-03 0. -1.
        -11    1    3    3    0    0  0.35008457923E+01 -0.46796577719E+01  0.15136425307E+01  0.60370714834E+01  0.51100000000E-03 0.  1.
         12    1    3    3    0    0  0.21382513270E+02  0.50681404348E+01  0.12234351255E+02  0.25151088880E+02  0.00000000000E+00 0. -1.
</event>
<event>
 7    1  0.2702714E-011  0.5052888E+02  0.7816164E-02  0.1300439E+00
        -11   -1    0    0    0    0  0.00000000000E+00  0.00000000000E+00  0.45593999997E+02  0.45594000000E+02  0.51100000000E-03 0.  1.
         11   -1    0    0    0    0 -0.00000000000E+00 -0.00000000000E+00 -0.45593999997E+02  0.45594000000E+02  0.51100000000E-03 0. -1.
    9900012    2    1    2    0    0 -0.33793128348E+01 -0.32642194903E+02 -0.24004820719E+02  0.50528879731E+02  0.30000060430E+02 0.  0.
        -12    1    1    2    0    0  0.33793128348E+01  0.32642194903E+02  0.24004820719E+02  0.40659120269E+02  0.00000000000E+00 0.  1.
         11    1    3    3    0    0  0.70934510962E+01 -0.12576398671E+02 -0.82298007471E+01  0.16619641169E+02  0.51100000000E-03 0. -1.
        -11    1    3    3    0    0 -0.14458383980E+01  0.70616733440E+00 -0.10541786620E+02  0.10663882331E+02  0.51100000000E-03 0.  1.
         12    1    3    3    0    0 -0.90269255330E+01 -0.20771963566E+02 -0.52332333523E+01  0.23245356231E+02  0.00000000000E+00 0. -1.
</event>
<event>
 7    1  0.2702714E-011  0.5052886E+02  0.7816164E-02  0.1300439E+00
        -11   -1    0    0    0    0  0.00000000000E+00  0.00000000000E+00  0.45593999997E+02  0.45594000000E+02  0.51100000000E-03 0. -1.
         11   -1    0    0    0    0 -0.00000000000E+00 -0.00000000000E+00 -0.45593999997E+02  0.45594000000E+02  0.51100000000E-03 0.  1.
    9900012    2    1    2    0    0 -0.29711581541E+01 -0.40088303988E+02  0.61045871965E+01  0.50528857335E+02  0.29999992357E+02 0.  0.
        -12    1    1    2    0    0  0.29711581541E+01  0.40088303988E+02 -0.61045871965E+01  0.40659142665E+02  0.00000000000E+00 0.  1.
         11    1    3    3    0    0 -0.67995733597E+01 -0.32298810675E+02  0.29747527689E+01  0.33140557075E+02  0.51100000000E-03 0. -1.
        -11    1    3    3    0    0  0.27440356516E+01 -0.96477390764E+01 -0.33386174639E+01  0.10571422221E+02  0.51100000000E-03 0.  1.
        -12    1    3    3    0    0  0.10843795540E+01  0.18582457642E+01  0.64684518914E+01  0.68168780398E+01  0.00000000000E+00 0.  1.
</event>
<event>
 7    1  0.2702714E-011  0.5052887E+02  0.7816164E-02  0.1300439E+00
        -11   -1    0    0    0    0  0.00000000000E+00  0.00000000000E+00  0.45593999997E+02  0.45594000000E+02  0.51100000000E-03 0.  1.
         11   -1    0    0    0    0 -0.00000000000E+00 -0.00000000000E+00 -0.45593999997E+02  0.45594000000E+02  0.51100000000E-03 0. -1.
    9900012    2    1    2    0    0 -0.29569120252E+02  0.64635951033E+01 -0.27148743410E+02  0.50528865689E+02  0.30000017748E+02 0.  0.
        -12    1    1    2    0    0  0.29569120252E+02 -0.64635951033E+01  0.27148743410E+02  0.40659134311E+02  0.00000000000E+00 0.  1.
         11    1    3    3    0    0  0.16738550276E+01  0.29290524389E+00 -0.10223427601E+02  0.10363689319E+02  0.51100000000E-03 0. -1.
        -11    1    3    3    0    0 -0.54972870862E+01 -0.31317697820E+01  0.22803345576E+01  0.67251820222E+01  0.51100000000E-03 0.  1.
         12    1    3    3    0    0 -0.25745688194E+02  0.93024596414E+01 -0.19205650367E+02  0.33439994348E+02  0.00000000000E+00 0. -1.
</event>
<event>
 7    1  0.2702714E-011  0.5052888E+02  0.7816164E-02  0.1300439E+00
        -11   -1    0    0    0    0  0.00000000000E+00  0.00000000000E+00  0.45593999997E+02  0.45594000000E+02  0.51100000000E-03 0.  1.
         11   -1    0    0    0    0 -0.00000000000E+00 -0.00000000000E+00 -0.45593999997E+02  0.45594000000E+02  0.51100000000E-03 0. -1.
    9900012    2    1    2    0    0  0.48992531005E+01  0.26852938305E+02 -0.30134384503E+02  0.50528879179E+02  0.30000058752E+02 0.  0.
        -12    1    1    2    0    0 -0.48992531005E+01 -0.26852938305E+02  0.30134384503E+02  0.40659120821E+02  0.00000000000E+00 0.  1.
         11    1    3    3    0    0 -0.33379010153E+01  0.14036085401E+02 -0.13583854811E+02  0.19816013433E+02  0.51100000000E-03 0. -1.
        -11    1    3    3    0    0  0.10201456018E+02  0.11861725578E+02 -0.17393773539E+01  0.15741527004E+02  0.51100000000E-03 0.  1.
         12    1    3    3    0    0 -0.19643019017E+01  0.95512732609E+00 -0.14811152338E+02  0.14971338742E+02  0.00000000000E+00 0. -1.
</event>
<event>
 7    1  0.2702714E-011  0.5052886E+02  0.7816164E-02  0.1300439E+00
        -11   -1    0    0    0    0  0.00000000000E+00  0.00000000000E+00  0.45593999997E+02  0.45594000000E+02  0.51100000000E-03 0.  1.
         11   -1    0    0    0    0 -0.00000000000E+00 -0.00000000000E+00 -0.45593999997E+02  0.45594000000E+02  0.51100000000E-03 0. -1.
    9900012    2    1    2    0    0 -0.13679371249E+02  0.32101276044E+01 -0.38154106028E+02  0.50528856824E+02  0.29999990803E+02 0.  0.
        -12    1    1    2    0    0  0.13679371249E+02 -0.32101276044E+01  0.38154106028E+02  0.40659143176E+02  0.00000000000E+00 0.  1.
         11    1    3    3    0    0  0.23103259383E+01  0.50006123462E+01 -0.56615868460E+01  0.78991958866E+01  0.51100000000E-03 0. -1.
        -11    1    3    3    0    0 -0.34885370320E+00  0.67106689116E+01 -0.19402496443E+02  0.20533183987E+02  0.51100000000E-03 0.  1.
        -12    1    3    3    0    0 -0.15640843485E+02 -0.85011536534E+01 -0.13090022739E+02  0.22096476951E+02  0.00000000000E+00 0.  1.
</event>
<event>
 7    1  0.2702714E-011  0.5052886E+02  0.7816164E-02  0.1300439E+00
        -11   -1    0    0    0    0  0.00000000000E+00  0.00000000000E+00  0.45593999997E+02  0.45594000000E+02  0.51100000000E-03 0. -1.
         11   -1    0    0    0    0 -0.00000000000E+00 -0.00000000000E+00 -0.45593999997E+02  0.45594000000E+02  0.51100000000E-03 0.  1.
    9900012    2    1    2    0    0 -0.21677889373E+02 -0.13817204361E+02  0.31501099803E+02  0.50528864338E+02  0.30000013641E+02 0.  0.
        -12    1    1    2    0    0  0.21677889373E+02  0.13817204361E+02 -0.31501099803E+02  0.40659135662E+02  0.00000000000E+00 0.  1.
         11    1    3    3    0    0 -0.80388293384E+01 -0.75373051067E+01  0.44788821954E+01  0.11895130575E+02  0.51100000000E-03 0. -1.
        -11    1    3    3    0    0 -0.19082562228E+02 -0.47626866574E+00  0.15287377579E+02  0.24455570460E+02  0.51100000000E-03 0.  1.
        -12    1    3    3    0    0  0.54435021939E+01 -0.58036305887E+01  0.11734840029E+02  0.14178163303E+02  0.00000000000E+00 0.  1.
</event>
<event>
 7    1  0.2702714E-011  0.5052887E+02  0.7816164E-02  0.1300439E+00
        -11   -1    0    0    0    0  0.00000000000E+00  0.00000000000E+00  0.45593999997E+02  0.45594000000E+02  0.51100000000E-03 0. -1.
         11   -1    0    0    0    0 -0.00000000000E+00 -0.00000000000E+00 -0.45593999997E+02  0.45594000000E+02  0.51100000000E-03 0.  1.
    9900012    2    1    2    0    0  0.18370271052E+02  0.29572804644E+02  0.21003513043E+02  0.50528865808E+02  0.30000018111E+02 0.  0.
        -12    1    1    2    0    0 -0.18370271052E+02 -0.29572804644E+02 -0.21003513043E+02  0.40659134192E+02  0.00000000000E+00 0.  1.
         11    1    3    3    0    0 -0.30094447486E+01  0.31625621302E-01  0.38708151539E+01  0.49031589911E+01  0.51100000000E-03 0. -1.
        -11    1    3    3    0    0 -0.47590417179E+00 -0.27328736547E+01 -0.54390017477E+00  0.28268199190E+01  0.51100000000E-03 0.  1.
        -12    1    3    3    0    0  0.21855619973E+02  0.32274052678E+02  0.17676598064E+02  0.42798886898E+02  0.00000000000E+00 0.  1.
</event>
<event>
 7    1  0.2702714E-011  0.5052885E+02  0.7816164E-02  0.1300439E+00
        -11   -1    0    0    0    0  0.00000000000E+00  0.00000000000E+00  0.45593999997E+02  0.45594000000E+02  0.51100000000E-03 0.  1.
         11   -1    0    0    0    0 -0.00000000000E+00 -0.00000000000E+00 -0.45593999997E+02  0.45594000000E+02  0.51100000000E-03 0. -1.
    9900012    2    1    2    0    0  0.26375482639E+02 -0.25486355991E+02 -0.17548390033E+02  0.50528850736E+02  0.29999972298E+02 0.  0.
        -12    1    1    2    0    0 -0.26375482639E+02  0.25486355991E+02  0.17548390033E+02  0.40659149264E+02  0.00000000000E+00 0.  1.
         11    1    3    3    0    0  0.10365128258E+02  0.27542403164E+01 -0.70212978881E+01  0.12818749854E+02  0.51100000000E-03 0. -1.
        -11    1    3    3    0    0  0.79638481584E+01 -0.88666130762E+01  0.35627247801E+01  0.12439160464E+02  0.51100000000E-03 0.  1.
         12    1    3    3    0    0  0.80465062217E+01 -0.19373983231E+02 -0.14089816925E+02  0.25270940418E+02  0.00000000000E+00 0. -1.
</event>
<event>
 7    1  0.2702714E-011  0.5052886E+02  0.7816164E-02  0.1300439E+00
        -11   -1    0    0    0    0  0.00000000000E+00  0.00000000000E+00  0.45593999997E+02  0.45594000000E+02  0.51100000000E-03 0. -1.
         11   -1    0    0    0    0 -0.00000000000E+00 -0.00000000000E+00 -0.45593999997E+02  0.45594000000E+02  0.51100000000E-03 0.  1.
    9900012    2    1    2    0    0  0.47082173821E+01 -0.37102767409E+02  0.15949384453E+02  0.50528861731E+02  0.30000005718E+02 0.  0.
        -12    1    1    2    0    0 -0.47082173821E+01  0.37102767409E+02 -0.15949384453E+02  0.40659138269E+02  0.00000000000E+00 0.  1.
         11    1    3    3    0    0 -0.47423767061E+00 -0.17908853965E+02  0.30504649946E+01  0.18172982381E+02  0.51100000000E-03 0. -1.
        -11    1    3    3    0    0  0.72484184110E+01 -0.13273262538E+02 -0.28632746331E+01  0.15392121678E+02  0.51100000000E-03 0.  1.
         12    1    3    3    0    0 -0.20659633583E+01 -0.59206509062E+01  0.15762194092E+02  0.16963757671E+02  0.00000000000E+00 0. -1.
</event>
<event>
 7    1  0.2702714E-011  0.5052887E+02  0.7816164E-02  0.1300439E+00
        -11   -1    0    0    0    0  0.00000000000E+00  0.00000000000E+00  0.45593999997E+02  0.45594000000E+02  0.51100000000E-03 0.  1.
         11   -1    0    0    0    0 -0.00000000000E+00 -0.00000000000E+00 -0.45593999997E+02  0.45594000000E+02  0.51100000000E-03 0. -1.
    9900012    2    1    2    0    0  0.34210925212E+02 -0.17481684483E+02 -0.13310467530E+02  0.50528865207E+02  0.30000016285E+02 0.  0.
        -12    1    1    2    0    0 -0.34210925212E+02  0.17481684483E+02  0.13310467530E+02  0.40659134793E+02  0.00000000000E+00 0.  1.
         11    1    3    3    0    0  0.13392562114E+01 -0.12516249216E+01 -0.28383139913E+01  0.33787865749E+01  0.51100000000E-03 0. -1.
        -11    1    3    3    0    0  0.10267089669E+02 -0.51565350455E+01 -0.17573813233E+02  0.20996235276E+02  0.51100000000E-03 0.  1.
         12    1    3    3    0    0  0.22604579331E+02 -0.11073524516E+02  0.71016596937E+01  0.26153843357E+02  0.00000000000E+00 0. -1.
</event>
<event>
 7    1  0.2702714E-011  0.5052886E+02  0.7816164E-02  0.1300439E+00
        -11   -1    0    0    0    0  0.00000000000E+00  0.00000000000E+00  0.45593999997E+02  0.45594000000E+02  0.51100000000E-03 0. -1.
         11   -1    0    0    0    0 -0.00000000000E+00 -0.00000000000E+00 -0.45593999997E+02  0.45594000000E+02  0.51100000000E-03 0.  1.
    9900012    2    1    2    0    0 -0.76333240675E+01  0.21518775022E+02  0.33642832609E+02  0.50528862027E+02  0.30000006617E+02 0.  0.
        -12    1    1    2    0    0  0.76333240675E+01 -0.21518775022E+02 -0.33642832609E+02  0.40659137973E+02  0.00000000000E+00 0.  1.
         11    1    3    3    0    0 -0.59716762305E+00  0.54739957700E+01 -0.17674604539E+01  0.57831786742E+01  0.51100000000E-03 0. -1.
        -11    1    3    3    0    0 -0.12006046568E+02  0.90794895417E+01  0.10357154618E+02  0.18271642963E+02  0.51100000000E-03 0.  1.
         12    1    3    3    0    0  0.49698901239E+01  0.69652897104E+01  0.25053138445E+02  0.26474040389E+02  0.00000000000E+00 0. -1.
</event>
<event>
 7    1  0.2702714E-011  0.5052886E+02  0.7816164E-02  0.1300439E+00
        -11   -1    0    0    0    0  0.00000000000E+00  0.00000000000E+00  0.45593999997E+02  0.45594000000E+02  0.51100000000E-03 0.  1.
         11   -1    0    0    0    0 -0.00000000000E+00 -0.00000000000E+00 -0.45593999997E+02  0.45594000000E+02  0.51100000000E-03 0. -1.
    9900012    2    1    2    0    0  0.21612911336E+02 -0.14784128080E+02 -0.31104296103E+02  0.50528860615E+02  0.30000002324E+02 0.  0.
        -12    1    1    2    0    0 -0.21612911336E+02  0.14784128080E+02  0.31104296103E+02  0.40659139385E+02  0.00000000000E+00 0.  1.
         11    1    3    3    0    0  0.24891551701E+01  0.64745310692E+01 -0.15504926093E+02  0.16985822896E+02  0.51100000000E-03 0.  1.
        -11    1    3    3    0    0  0.27228133359E+01 -0.83579888223E+01 -0.38564926795E+01  0.95990742087E+01  0.51100000000E-03 0. -1.
        -12    1    3    3    0    0  0.16400942830E+02 -0.12900670327E+02 -0.11742877330E+02  0.23943963510E+02  0.00000000000E+00 0.  1.
</event>
<event>
 7    1  0.3925220E-011  0.5052885E+02  0.7816164E-02  0.1300439E+00
        -11   -1    0    0    0    0  0.00000000000E+00  0.00000000000E+00  0.45593999997E+02  0.45594000000E+02  0.51100000000E-03 0. -1.
         11   -1    0    0    0    0 -0.00000000000E+00 -0.00000000000E+00 -0.45593999997E+02  0.45594000000E+02  0.51100000000E-03 0.  1.
    9900012    2    1    2    0    0  0.11403087497E+02 -0.84014452409E+01  0.38112353721E+02  0.50528853517E+02  0.29999980750E+02 0.  0.
        -12    1    1    2    0    0 -0.11403087497E+02  0.84014452409E+01 -0.38112353721E+02  0.40659146483E+02  0.00000000000E+00 0.  1.
         11    1    3    3    0    0  0.55867474752E+01 -0.12129311176E+02  0.18613715303E+02  0.22908564656E+02  0.51100000000E-03 0. -1.
        -11    1    3    3    0    0  0.10743738765E+02 -0.16456243822E+01  0.63564335587E+01  0.12591276747E+02  0.51100000000E-03 0.  1.
        -12    1    3    3    0    0 -0.49273987440E+01  0.53734903171E+01  0.13142204859E+02  0.15029012114E+02  0.00000000000E+00 0.  1.
</event>
<event>
 7    1  0.2702714E-011  0.5052887E+02  0.7816164E-02  0.1300439E+00
        -11   -1    0    0    0    0  0.00000000000E+00  0.00000000000E+00  0.45593999997E+02  0.45594000000E+02  0.51100000000E-03 0.  1.
         11   -1    0    0    0    0 -0.00000000000E+00 -0.00000000000E+00 -0.45593999997E+02  0.45594000000E+02  0.51100000000E-03 0. -1.
    9900012    2    1    2    0    0 -0.64550526320E+01  0.39141247721E+02 -0.89140494162E+01  0.50528865053E+02  0.30000015816E+02 0.  0.
        -12    1    1    2    0    0  0.64550526320E+01 -0.39141247721E+02  0.89140494162E+01  0.40659134947E+02  0.00000000000E+00 0.  1.
         11    1    3    3    0    0 -0.86184321056E+01  0.33884532383E+02 -0.52819254943E+01  0.35360113743E+02  0.51100000000E-03 0. -1.
        -11    1    3    3    0    0  0.37268116378E+01  0.93876956457E+01 -0.13291100849E+01  0.10187467222E+02  0.51100000000E-03 0.  1.
        -12    1    3    3    0    0 -0.15634321643E+01 -0.41309803074E+01 -0.23030138371E+01  0.49812840880E+01  0.00000000000E+00 0.  1.
</event>
<event>
 7    1  0.3276332E-011  0.5052886E+02  0.7816164E-02  0.1300439E+00
        -11   -1    0    0    0    0  0.00000000000E+00  0.00000000000E+00  0.45593999997E+02  0.45594000000E+02  0.51100000000E-03 0.  1.
         11   -1    0    0    0    0 -0.00000000000E+00 -0.00000000000E+00 -0.45593999997E+02  0.45594000000E+02  0.51100000000E-03 0. -1.
    9900012    2    1    2    0    0  0.47352022056E+01 -0.27278903156E+02 -0.29775918879E+02  0.50528855365E+02  0.29999986368E+02 0.  0.
        -12    1    1    2    0    0 -0.47352022056E+01  0.27278903156E+02  0.29775918879E+02  0.40659144635E+02  0.00000000000E+00 0.  1.
         11    1    3    3    0    0  0.18765329833E+01 -0.15683874159E+02 -0.24473224563E+02  0.29128062164E+02  0.51100000000E-03 0. -1.
        -11    1    3    3    0    0  0.77887772185E+01 -0.10604416204E+02 -0.82904380102E+01  0.15551529065E+02  0.51100000000E-03 0.  1.
        -12    1    3    3    0    0 -0.49301079961E+01 -0.99061279340E+00  0.29877436940E+01  0.58492641367E+01  0.00000000000E+00 0.  1.
</event>
<event>
 7    1  0.2702714E-011  0.5052885E+02  0.7816164E-02  0.1300439E+00
        -11   -1    0    0    0    0  0.00000000000E+00  0.00000000000E+00  0.45593999997E+02  0.45594000000E+02  0.51100000000E-03 0.  1.
         11   -1    0    0    0    0 -0.00000000000E+00 -0.00000000000E+00 -0.45593999997E+02  0.45594000000E+02  0.51100000000E-03 0. -1.
    9900012    2    1    2    0    0  0.23777252239E+02 -0.22924582848E+02  0.23712273337E+02  0.50528854293E+02  0.29999983109E+02 0.  0.
        -12    1    1    2    0    0 -0.23777252239E+02  0.22924582848E+02 -0.23712273337E+02  0.40659145707E+02  0.00000000000E+00 0.  1.
         11    1    3    3    0    0 -0.36665870467E+01 -0.11893207628E+02  0.10302125092E+01  0.12488137825E+02  0.51100000000E-03 0. -1.
        -11    1    3    3    0    0  0.46759027260E+01 -0.38521012681E+01  0.79230685093E+01  0.99738540869E+01  0.51100000000E-03 0.  1.
        -12    1    3    3    0    0  0.22767936560E+02 -0.71792739518E+01  0.14758992319E+02  0.28066862381E+02  0.00000000000E+00 0.  1.
</event>
<event>
 7    1  0.2702714E-011  0.5052887E+02  0.7816164E-02  0.1300439E+00
        -11   -1    0    0    0    0  0.00000000000E+00  0.00000000000E+00  0.45593999997E+02  0.45594000000E+02  0.51100000000E-03 0.  1.
         11   -1    0    0    0    0 -0.00000000000E+00 -0.00000000000E+00 -0.45593999997E+02  0.45594000000E+02  0.51100000000E-03 0. -1.
    9900012    2    1    2    0    0 -0.18595470966E+02  0.18910004281E+01 -0.36108137551E+02  0.50528867932E+02  0.30000024567E+02 0.  0.
        -12    1    1    2    0    0  0.18595470966E+02 -0.18910004281E+01  0.36108137551E+02  0.40659132068E+02  0.00000000000E+00 0.  1.
         11    1    3    3    0    0 -0.12073718355E+01 -0.10796716902E+02 -0.21411101057E+02  0.24009624973E+02  0.51100000000E-03 0. -1.
        -11    1    3    3    0    0 -0.79974789859E+01  0.40758365965E+01 -0.84533592925E+01  0.12330101284E+02  0.51100000000E-03 0.  1.
        -12    1    3    3    0    0 -0.93906201450E+01  0.86118807334E+01 -0.62436772021E+01  0.14189141675E+02  0.00000000000E+00 0.  1.
</event>
<event>
 7    1  0.2702714E-011  0.5052886E+02  0.7816164E-02  0.1300439E+00
        -11   -1    0    0    0    0  0.00000000000E+00  0.00000000000E+00  0.45593999997E+02  0.45594000000E+02  0.51100000000E-03 0.  1.
         11   -1    0    0    0    0 -0.00000000000E+00 -0.00000000000E+00 -0.45593999997E+02  0.45594000000E+02  0.51100000000E-03 0. -1.
    9900012    2    1    2    0    0  0.39005562855E+02  0.89685747609E+01 -0.71621762440E+01  0.50528855452E+02  0.29999986631E+02 0.  0.
        -12    1    1    2    0    0 -0.39005562855E+02 -0.89685747609E+01  0.71621762440E+01  0.40659144548E+02  0.00000000000E+00 0.  1.
         11    1    3    3    0    0  0.24771035531E+02  0.14584540218E+02  0.74760286800E+00  0.28755380800E+02  0.51100000000E-03 0. -1.
        -11    1    3    3    0    0  0.15255513498E+02 -0.52372706424E+01 -0.25811175891E+01  0.16334682860E+02  0.51100000000E-03 0.  1.
        -12    1    3    3    0    0 -0.10209861742E+01 -0.37869481437E+00 -0.53286615229E+01  0.54387917919E+01  0.00000000000E+00 0.  1.
</event>
<event>
 7    1  0.2702714E-011  0.5052889E+02  0.7816164E-02  0.1300439E+00
        -11   -1    0    0    0    0  0.00000000000E+00  0.00000000000E+00  0.45593999997E+02  0.45594000000E+02  0.51100000000E-03 0.  1.
         11   -1    0    0    0    0 -0.00000000000E+00 -0.00000000000E+00 -0.45593999997E+02  0.45594000000E+02  0.51100000000E-03 0. -1.
    9900012    2    1    2    0    0  0.12017484201E+02 -0.27933694582E+02 -0.26989847579E+02  0.50528891650E+02  0.30000096658E+02 0.  0.
        -12    1    1    2    0    0 -0.12017484201E+02  0.27933694582E+02  0.26989847579E+02  0.40659108350E+02  0.00000000000E+00 0.  1.
         11    1    3    3    0    0  0.15507341816E+02 -0.18727274213E+02 -0.10844564579E+02  0.26623167182E+02  0.51100000000E-03 0. -1.
        -11    1    3    3    0    0 -0.15090674551E+01  0.39959086267E+01 -0.36004696558E+01  0.55864078208E+01  0.51100000000E-03 0.  1.
        -12    1    3    3    0    0 -0.19807901599E+01 -0.13202328996E+02 -0.12544813344E+02  0.18319316647E+02  0.00000000000E+00 0.  1.
</event>
<event>
 7    1  0.2702714E-011  0.5052886E+02  0.7816164E-02  0.1300439E+00
        -11   -1    0    0    0    0  0.00000000000E+00  0.00000000000E+00  0.45593999997E+02  0.45594000000E+02  0.51100000000E-03 0.  1.
         11   -1    0    0    0    0 -0.00000000000E+00 -0.00000000000E+00 -0.45593999997E+02  0.45594000000E+02  0.51100000000E-03 0. -1.
    9900012    2    1    2    0    0  0.35093235155E+02 -0.16362901972E+02  0.12405073509E+02  0.50528861257E+02  0.30000004277E+02 0.  0.
        -12    1    1    2    0    0 -0.35093235155E+02  0.16362901972E+02 -0.12405073509E+02  0.40659138743E+02  0.00000000000E+00 0.  1.
         11    1    3    3    0    0  0.20966649711E+02 -0.12723238570E+02  0.14082621780E+02  0.28280760886E+02  0.51100000000E-03 0. -1.
        -11    1    3    3    0    0  0.10083288429E+02 -0.77544582299E+01 -0.68959168143E+01  0.14469208581E+02  0.51100000000E-03 0.  1.
        -12    1    3    3    0    0  0.40432970143E+01  0.41147948286E+01  0.52183685436E+01  0.77788917902E+01  0.00000000000E+00 0.  1.
</event>
<event>
 7    1  0.2702714E-011  0.5052886E+02  0.7816164E-02  0.1300439E+00
        -11   -1    0    0    0    0  0.00000000000E+00  0.00000000000E+00  0.45593999997E+02  0.45594000000E+02  0.51100000000E-03 0.  1.
         11   -1    0    0    0    0 -0.00000000000E+00 -0.00000000000E+00 -0.45593999997E+02  0.45594000000E+02  0.51100000000E-03 0. -1.
    9900012    2    1    2    0    0  0.36550093227E+02 -0.39424863744E+01  0.17369887699E+02  0.50528861883E+02  0.30000006180E+02 0.  0.
        -12    1    1    2    0    0 -0.36550093227E+02  0.39424863744E+01 -0.17369887699E+02  0.40659138117E+02  0.00000000000E+00 0.  1.
         11    1    3    3    0    0  0.21414533214E+02  0.74932911787E+01  0.30584578179E+01  0.22892920520E+02  0.51100000000E-03 0. -1.
        -11    1    3    3    0    0 -0.17683748607E+01  0.65841035946E+00 -0.68318722082E+00  0.20068380327E+01  0.51100000000E-03 0.  1.
        -12    1    3    3    0    0  0.16903934874E+02 -0.12094187913E+02  0.14994617102E+02  0.25629103330E+02  0.00000000000E+00 0.  1.
</event>
<event>
 7    1  0.2702714E-011  0.5052886E+02  0.7816164E-02  0.1300439E+00
        -11   -1    0    0    0    0  0.00000000000E+00  0.00000000000E+00  0.45593999997E+02  0.45594000000E+02  0.51100000000E-03 0. -1.
         11   -1    0    0    0    0 -0.00000000000E+00 -0.00000000000E+00 -0.45593999997E+02  0.45594000000E+02  0.51100000000E-03 0.  1.
    9900012    2    1    2    0    0  0.24625266228E+02 -0.31786002792E+02 -0.60342531449E+01  0.50528856854E+02  0.29999990895E+02 0.  0.
        -12    1    1    2    0    0 -0.24625266228E+02  0.31786002792E+02  0.60342531449E+01  0.40659143146E+02  0.00000000000E+00 0.  1.
         11    1    3    3    0    0 -0.16134034305E+01 -0.18899936643E+01  0.36560027500E+01  0.44205772304E+01  0.51100000000E-03 0. -1.
        -11    1    3    3    0    0  0.75256200110E+01  0.50574949777E+00 -0.70286377493E+01  0.10309824828E+02  0.51100000000E-03 0.  1.
         12    1    3    3    0    0  0.18713049648E+02 -0.30401758626E+02 -0.26616181457E+01  0.35798454796E+02  0.00000000000E+00 0. -1.
</event>
<event>
 7    1  0.2702714E-011  0.5052886E+02  0.7816164E-02  0.1300439E+00
        -11   -1    0    0    0    0  0.00000000000E+00  0.00000000000E+00  0.45593999997E+02  0.45594000000E+02  0.51100000000E-03 0.  1.
         11   -1    0    0    0    0 -0.00000000000E+00 -0.00000000000E+00 -0.45593999997E+02  0.45594000000E+02  0.51100000000E-03 0. -1.
    9900012    2    1    2    0    0  0.42895412267E+01  0.24065466030E+02 -0.32490285370E+02  0.50528862496E+02  0.30000008042E+02 0.  0.
        -12    1    1    2    0    0 -0.42895412267E+01 -0.24065466030E+02  0.32490285370E+02  0.40659137504E+02  0.00000000000E+00 0.  1.
         11    1    3    3    0    0  0.43057152797E+01  0.11497926786E+02 -0.19531358161E+02  0.23069795325E+02  0.51100000000E-03 0. -1.
        -11    1    3    3    0    0 -0.21640791560E-01 -0.26582788816E+01 -0.11903479621E+02  0.12196710306E+02  0.51100000000E-03 0.  1.
        -12    1    3    3    0    0  0.54667385404E-02  0.15225818125E+02 -0.10554475881E+01  0.15262356865E+02  0.00000000000E+00 0.  1.
</event>
<event>
 7    1  0.2702714E-011  0.5052891E+02  0.7816164E-02  0.1300439E+00
        -11   -1    0    0    0    0  0.00000000000E+00  0.00000000000E+00  0.45593999997E+02  0.45594000000E+02  0.51100000000E-03 0.  1.
         11   -1    0    0    0    0 -0.00000000000E+00 -0.00000000000E+00 -0.45593999997E+02  0.45594000000E+02  0.51100000000E-03 0. -1.
    9900012    2    1    2    0    0 -0.17366383656E+02 -0.34882106401E+02 -0.11610733140E+02  0.50528908123E+02  0.30000146730E+02 0.  0.
        -12    1    1    2    0    0  0.17366383656E+02  0.34882106401E+02  0.11610733140E+02  0.40659091877E+02  0.00000000000E+00 0.  1.
         11    1    3    3    0    0 -0.24711079886E+01 -0.11103723306E+02  0.78996971383E+01  0.13849341540E+02  0.51100000000E-03 0.  1.
        -11    1    3    3    0    0 -0.19050608105E+00 -0.17923499580E+01 -0.73501267921E+01  0.75679042713E+01  0.51100000000E-03 0. -1.
        -12    1    3    3    0    0 -0.14704769586E+02 -0.21986033137E+02 -0.12160303486E+02  0.29111662311E+02  0.00000000000E+00 0.  1.
</event>
<event>
 7    1  0.2702714E-011  0.5052886E+02  0.7816164E-02  0.1300439E+00
        -11   -1    0    0    0    0  0.00000000000E+00  0.00000000000E+00  0.45593999997E+02  0.45594000000E+02  0.51100000000E-03 0. -1.
         11   -1    0    0    0    0 -0.00000000000E+00 -0.00000000000E+00 -0.45593999997E+02  0.45594000000E+02  0.51100000000E-03 0.  1.
    9900012    2    1    2    0    0 -0.39501689780E+02  0.82915291960E+01  0.49023369699E+01  0.50528857613E+02  0.29999993199E+02 0.  0.
        -12    1    1    2    0    0  0.39501689780E+02 -0.82915291960E+01 -0.49023369699E+01  0.40659142387E+02  0.00000000000E+00 0.  1.
         11    1    3    3    0    0 -0.39299549792E+01 -0.42423824768E+00  0.91111260559E+01  0.99316233566E+01  0.51100000000E-03 0. -1.
        -11    1    3    3    0    0 -0.66665087537E+01 -0.81319561988E+00  0.54681249077E+01  0.86604859186E+01  0.51100000000E-03 0.  1.
         12    1    3    3    0    0 -0.28905226047E+02  0.95289630636E+01 -0.96769139937E+01  0.31936748337E+02  0.00000000000E+00 0. -1.
</event>
<event>
 7    1  0.2702714E-011  0.5052886E+02  0.7816164E-02  0.1300439E+00
        -11   -1    0    0    0    0  0.00000000000E+00  0.00000000000E+00  0.45593999997E+02  0.45594000000E+02  0.51100000000E-03 0.  1.
         11   -1    0    0    0    0 -0.00000000000E+00 -0.00000000000E+00 -0.45593999997E+02  0.45594000000E+02  0.51100000000E-03 0. -1.
    9900012    2    1    2    0    0  0.20998069450E+02 -0.34714805534E+02 -0.26700492375E+01  0.50528858263E+02  0.29999995176E+02 0.  0.
        -12    1    1    2    0    0 -0.20998069450E+02  0.34714805534E+02  0.26700492375E+01  0.40659141737E+02  0.00000000000E+00 0.  1.
         11    1    3    3    0    0  0.45336402314E+01 -0.13561868542E+02  0.65306960638E+01  0.15720310539E+02  0.51100000000E-03 0. -1.
        -11    1    3    3    0    0  0.23575883213E+01  0.33967701819E+01  0.16971842694E+01  0.44695307435E+01  0.51100000000E-03 0.  1.
         12    1    3    3    0    0  0.14106840897E+02 -0.24549707173E+02 -0.10897929571E+02  0.30339016980E+02  0.00000000000E+00 0. -1.
</event>
<event>
 7    1  0.2702714E-011  0.5052886E+02  0.7816164E-02  0.1300439E+00
        -11   -1    0    0    0    0  0.00000000000E+00  0.00000000000E+00  0.45593999997E+02  0.45594000000E+02  0.51100000000E-03 0.  1.
         11   -1    0    0    0    0 -0.00000000000E+00 -0.00000000000E+00 -0.45593999997E+02  0.45594000000E+02  0.51100000000E-03 0. -1.
    9900012    2    1    2    0    0  0.34600765528E+02  0.21352443188E+02  0.16067843785E+00  0.50528860526E+02  0.30000002056E+02 0.  0.
        -12    1    1    2    0    0 -0.34600765528E+02 -0.21352443188E+02 -0.16067843785E+00  0.40659139474E+02  0.00000000000E+00 0.  1.
         11    1    3    3    0    0  0.16671868568E+01 -0.23893647122E+01  0.37262379537E+01  0.47300555274E+01  0.51100000000E-03 0. -1.
        -11    1    3    3    0    0  0.80220707958E+01  0.69352660256E+01 -0.10537893928E+02  0.14949874360E+02  0.51100000000E-03 0.  1.
         12    1    3    3    0    0  0.24911507875E+02  0.16806541874E+02  0.69723344120E+01  0.30848930638E+02  0.00000000000E+00 0. -1.
</event>
<event>
 7    1  0.2702714E-011  0.5052888E+02  0.7816164E-02  0.1300439E+00
        -11   -1    0    0    0    0  0.00000000000E+00  0.00000000000E+00  0.45593999997E+02  0.45594000000E+02  0.51100000000E-03 0.  1.
         11   -1    0    0    0    0 -0.00000000000E+00 -0.00000000000E+00 -0.45593999997E+02  0.45594000000E+02  0.51100000000E-03 0. -1.
    9900012    2    1    2    0    0 -0.10977416685E+02 -0.38583142920E+02  0.66333819182E+01  0.50528876174E+02  0.30000049618E+02 0.  0.
        -12    1    1    2    0    0  0.10977416685E+02  0.38583142920E+02 -0.66333819182E+01  0.40659123826E+02  0.00000000000E+00 0.  1.
         11    1    3    3    0    0 -0.95996943119E+01 -0.26935636200E+02 -0.29441561246E+01  0.28746316006E+02  0.51100000000E-03 0. -1.
        -11    1    3    3    0    0 -0.79837485836E+01 -0.57220253207E+01  0.18074504858E+01  0.99874267324E+01  0.51100000000E-03 0.  1.
         12    1    3    3    0    0  0.66060262108E+01 -0.59254813987E+01  0.77700875571E+01  0.11795133435E+02  0.00000000000E+00 0. -1.
</event>
<event>
 7    1  0.2702714E-011  0.5052887E+02  0.7816164E-02  0.1300439E+00
        -11   -1    0    0    0    0  0.00000000000E+00  0.00000000000E+00  0.45593999997E+02  0.45594000000E+02  0.51100000000E-03 0. -1.
         11   -1    0    0    0    0 -0.00000000000E+00 -0.00000000000E+00 -0.45593999997E+02  0.45594000000E+02  0.51100000000E-03 0.  1.
    9900012    2    1    2    0    0 -0.30639227232E+02 -0.13259313423E+02  0.23207612219E+02  0.50528869380E+02  0.30000028969E+02 0.  0.
        -12    1    1    2    0    0  0.30639227232E+02  0.13259313423E+02 -0.23207612219E+02  0.40659130620E+02  0.00000000000E+00 0.  1.
         11    1    3    3    0    0 -0.14249366236E+02 -0.28214210620E+01 -0.33228855642E+01  0.14901222221E+02  0.51100000000E-03 0. -1.
        -11    1    3    3    0    0 -0.12891280818E+01 -0.59810683117E+01  0.19216707917E+01  0.64130997383E+01  0.51100000000E-03 0.  1.
        -12    1    3    3    0    0 -0.15100732914E+02 -0.44568240495E+01  0.24608826991E+02  0.29214547422E+02  0.00000000000E+00 0.  1.
</event>
<event>
 7    1  0.2702714E-011  0.5052886E+02  0.7816164E-02  0.1300439E+00
        -11   -1    0    0    0    0  0.00000000000E+00  0.00000000000E+00  0.45593999997E+02  0.45594000000E+02  0.51100000000E-03 0.  1.
         11   -1    0    0    0    0 -0.00000000000E+00 -0.00000000000E+00 -0.45593999997E+02  0.45594000000E+02  0.51100000000E-03 0. -1.
    9900012    2    1    2    0    0 -0.22089134265E+02  0.16965058378E+02 -0.29621323885E+02  0.50528857276E+02  0.29999992177E+02 0.  0.
        -12    1    1    2    0    0  0.22089134265E+02 -0.16965058378E+02  0.29621323885E+02  0.40659142724E+02  0.00000000000E+00 0.  1.
         11    1    3    3    0    0 -0.83692950051E+01 -0.18938668811E+01 -0.10329853606E+02  0.13428987543E+02  0.51100000000E-03 0. -1.
        -11    1    3    3    0    0 -0.17697662138E+02  0.11043347940E+02 -0.19167427609E+02  0.28329367453E+02  0.51100000000E-03 0.  1.
        -12    1    3    3    0    0  0.39778228779E+01  0.78155773190E+01 -0.12404267017E+00  0.87705022810E+01  0.00000000000E+00 0.  1.
</event>
<event>
 7    1  0.2702714E-011  0.5052886E+02  0.7816164E-02  0.1300439E+00
        -11   -1    0    0    0    0  0.00000000000E+00  0.00000000000E+00  0.45593999997E+02  0.45594000000E+02  0.51100000000E-03 0.  1.
         11   -1    0    0    0    0 -0.00000000000E+00 -0.00000000000E+00 -0.45593999997E+02  0.45594000000E+02  0.51100000000E-03 0. -1.
    9900012    2    1    2    0    0 -0.35352483960E+02  0.55032633727E+01 -0.19315323556E+02  0.50528858912E+02  0.29999997150E+02 0.  0.
        -12    1    1    2    0    0  0.35352483960E+02 -0.55032633727E+01  0.19315323556E+02  0.40659141088E+02  0.00000000000E+00 0.  1.
         11    1    3    3    0    0 -0.29079581924E+02  0.31132524210E+00 -0.44835005495E+00  0.29084704336E+02  0.51100000000E-03 0. -1.
        -11    1    3    3    0    0 -0.54987744613E+01  0.25413145490E+01 -0.69862741118E+01  0.92467738395E+01  0.51100000000E-03 0.  1.
        -12    1    3    3    0    0 -0.77412757535E+00  0.26506235817E+01 -0.11880699389E+02  0.12197380737E+02  0.00000000000E+00 0.  1.
</event>
<event>
 7    1  0.2702714E-011  0.5052887E+02  0.7816164E-02  0.1300439E+00
        -11   -1    0    0    0    0  0.00000000000E+00  0.00000000000E+00  0.45593999997E+02  0.45594000000E+02  0.51100000000E-03 0.  1.
         11   -1    0    0    0    0 -0.00000000000E+00 -0.00000000000E+00 -0.45593999997E+02  0.45594000000E+02  0.51100000000E-03 0. -1.
    9900012    2    1    2    0    0 -0.13545900285E+02  0.24614383565E+02 -0.29390574044E+02  0.50528866519E+02  0.30000020270E+02 0.  0.
        -12    1    1    2    0    0  0.13545900285E+02 -0.24614383565E+02  0.29390574044E+02  0.40659133481E+02  0.00000000000E+00 0.  1.
         11    1    3    3    0    0 -0.99947075835E+01  0.15706885395E+02 -0.22367380531E+02  0.29101548766E+02  0.51100000000E-03 0. -1.
        -11    1    3    3    0    0  0.43092670296E+01  0.22451184995E+01 -0.96406844767E+01  0.10795977809E+02  0.51100000000E-03 0.  1.
         12    1    3    3    0    0 -0.78604597311E+01  0.66623796703E+01  0.26174909636E+01  0.10631339944E+02  0.00000000000E+00 0. -1.
</event>
<event>
 7    1  0.2702714E-011  0.5052886E+02  0.7816164E-02  0.1300439E+00
        -11   -1    0    0    0    0  0.00000000000E+00  0.00000000000E+00  0.45593999997E+02  0.45594000000E+02  0.51100000000E-03 0. -1.
         11   -1    0    0    0    0 -0.00000000000E+00 -0.00000000000E+00 -0.45593999997E+02  0.45594000000E+02  0.51100000000E-03 0.  1.
    9900012    2    1    2    0    0  0.36170325687E+02  0.66198877120E+01 -0.17350812450E+02  0.50528855072E+02  0.29999985477E+02 0.  0.
        -12    1    1    2    0    0 -0.36170325687E+02 -0.66198877120E+01  0.17350812450E+02  0.40659144928E+02  0.00000000000E+00 0.  1.
         11    1    3    3    0    0 -0.33965981033E+01  0.23425130029E+01 -0.10115442980E+01  0.42482311580E+01  0.51100000000E-03 0. -1.
        -11    1    3    3    0    0  0.88966218867E+01  0.33618360505E+01  0.30455085104E+01  0.99863379160E+01  0.51100000000E-03 0.  1.
         12    1    3    3    0    0  0.30670301903E+02  0.91553865855E+00 -0.19384776662E+02  0.36294285998E+02  0.00000000000E+00 0. -1.
</event>
<event>
 7    1  0.2702714E-011  0.5052887E+02  0.7816164E-02  0.1300439E+00
        -11   -1    0    0    0    0  0.00000000000E+00  0.00000000000E+00  0.45593999997E+02  0.45594000000E+02  0.51100000000E-03 0.  1.
         11   -1    0    0    0    0 -0.00000000000E+00 -0.00000000000E+00 -0.45593999997E+02  0.45594000000E+02  0.51100000000E-03 0. -1.
    9900012    2    1    2    0    0 -0.38880297256E+02 -0.10886355811E+02 -0.47932174345E+01  0.50528865836E+02  0.30000018195E+02 0.  0.
        -12    1    1    2    0    0  0.38880297256E+02  0.10886355811E+02  0.47932174345E+01  0.40659134164E+02  0.00000000000E+00 0.  1.
         11    1    3    3    0    0 -0.22455194860E+02 -0.66913014793E+01  0.47445245028E+01  0.23906480392E+02  0.51100000000E-03 0. -1.
        -11    1    3    3    0    0 -0.97991366778E+01 -0.11365998656E+02 -0.46977265640E+01  0.15725064076E+02  0.51100000000E-03 0.  1.
         12    1    3    3    0    0 -0.66259657182E+01  0.71709443236E+01 -0.48400153733E+01  0.10897321368E+02  0.00000000000E+00 0. -1.
</event>
<event>
 7    1  0.2702714E-011  0.5052886E+02  0.7816164E-02  0.1300439E+00
        -11   -1    0    0    0    0  0.00000000000E+00  0.00000000000E+00  0.45593999997E+02  0.45594000000E+02  0.51100000000E-03 0. -1.
         11   -1    0    0    0    0 -0.00000000000E+00 -0.00000000000E+00 -0.45593999997E+02  0.45594000000E+02  0.51100000000E-03 0.  1.
    9900012    2    1    2    0    0 -0.88656876838E+01  0.37148956093E+02  0.13947059085E+02  0.50528858174E+02  0.29999994906E+02 0.  0.
        -12    1    1    2    0    0  0.88656876838E+01 -0.37148956093E+02 -0.13947059085E+02  0.40659141826E+02  0.00000000000E+00 0.  1.
         11    1    3    3    0    0  0.55664105523E+01  0.15679956210E+02  0.12313467620E+02  0.20699455023E+02  0.51100000000E-03 0. -1.
        -11    1    3    3    0    0  0.29355344510E+01  0.15776445505E+01  0.70651404248E+00  0.34066827257E+01  0.51100000000E-03 0.  1.
        -12    1    3    3    0    0 -0.17367632687E+02  0.19891355332E+02  0.92707742248E+00  0.26422720425E+02  0.00000000000E+00 0.  1.
</event>
<event>
 7    1  0.2737329E-011  0.5052889E+02  0.7816164E-02  0.1300439E+00
        -11   -1    0    0    0    0  0.00000000000E+00  0.00000000000E+00  0.45593999997E+02  0.45594000000E+02  0.51100000000E-03 0.  1.
         11   -1    0    0    0    0 -0.00000000000E+00 -0.00000000000E+00 -0.45593999997E+02  0.45594000000E+02  0.51100000000E-03 0. -1.
    9900012    2    1    2    0    0  0.27194875844E+02  0.20715322167E+02 -0.22010847201E+02  0.50528889838E+02  0.30000091151E+02 0.  0.
        -12    1    1    2    0    0 -0.27194875844E+02 -0.20715322167E+02  0.22010847201E+02  0.40659110162E+02  0.00000000000E+00 0.  1.
         11    1    3    3    0    0  0.15972285234E+02  0.99672439211E+01 -0.63496928534E+01  0.19869032351E+02  0.51100000000E-03 0. -1.
        -11    1    3    3    0    0  0.11140728257E+02 -0.37806419983E+01 -0.59453558329E+01  0.13181666672E+02  0.51100000000E-03 0.  1.
        -12    1    3    3    0    0  0.81862353809E-01  0.14528720244E+02 -0.97157985143E+01  0.17478190815E+02  0.00000000000E+00 0.  1.
</event>
<event>
 7    1  0.2702714E-011  0.5052886E+02  0.7816164E-02  0.1300439E+00
        -11   -1    0    0    0    0  0.00000000000E+00  0.00000000000E+00  0.45593999997E+02  0.45594000000E+02  0.51100000000E-03 0.  1.
         11   -1    0    0    0    0 -0.00000000000E+00 -0.00000000000E+00 -0.45593999997E+02  0.45594000000E+02  0.51100000000E-03 0. -1.
    9900012    2    1    2    0    0  0.22206511183E+02  0.86128820557E+01 -0.32952305867E+02  0.50528864026E+02  0.30000012693E+02 0.  0.
        -12    1    1    2    0    0 -0.22206511183E+02 -0.86128820557E+01  0.32952305867E+02  0.40659135974E+02  0.00000000000E+00 0.  1.
         11    1    3    3    0    0  0.28911285928E+01 -0.39910095086E+01 -0.55759292976E+01  0.74416240990E+01  0.51100000000E-03 0. -1.
        -11    1    3    3    0    0 -0.27722040516E+01  0.35253954219E+01  0.22638715048E+01  0.50238075835E+01  0.51100000000E-03 0.  1.
        -12    1    3    3    0    0  0.22087586642E+02  0.90784961424E+01 -0.29640248074E+02  0.38063432343E+02  0.00000000000E+00 0.  1.
</event>
<event>
 7    1  0.2702714E-011  0.5052886E+02  0.7816164E-02  0.1300439E+00
        -11   -1    0    0    0    0  0.00000000000E+00  0.00000000000E+00  0.45593999997E+02  0.45594000000E+02  0.51100000000E-03 0. -1.
         11   -1    0    0    0    0 -0.00000000000E+00 -0.00000000000E+00 -0.45593999997E+02  0.45594000000E+02  0.51100000000E-03 0.  1.
    9900012    2    1    2    0    0  0.25963952811E+02  0.27200580144E+01  0.31171144826E+02  0.50528857966E+02  0.29999994273E+02 0.  0.
        -12    1    1    2    0    0 -0.25963952811E+02 -0.27200580144E+01 -0.31171144826E+02  0.40659142034E+02  0.00000000000E+00 0.  1.
         11    1    3    3    0    0  0.10656956383E+01  0.67284281292E+01  0.59683577055E+00  0.68383964116E+01  0.51100000000E-03 0.  1.
        -11    1    3    3    0    0  0.82402202607E+01  0.36400606017E+01  0.21344947772E+02  0.23168039770E+02  0.51100000000E-03 0. -1.
        -12    1    3    3    0    0  0.16658036912E+02 -0.76484307165E+01  0.92293612840E+01  0.20522421785E+02  0.00000000000E+00 0.  1.
</event>
<event>
 7    1  0.2702714E-011  0.5052887E+02  0.7816164E-02  0.1300439E+00
        -11   -1    0    0    0    0  0.00000000000E+00  0.00000000000E+00  0.45593999997E+02  0.45594000000E+02  0.51100000000E-03 0.  1.
         11   -1    0    0    0    0 -0.00000000000E+00 -0.00000000000E+00 -0.45593999997E+02  0.45594000000E+02  0.51100000000E-03 0. -1.
    9900012    2    1    2    0    0 -0.13726439646E+02  0.18088525371E+02 -0.33727664250E+02  0.50528865341E+02  0.30000016690E+02 0.  0.
        -12    1    1    2    0    0  0.13726439646E+02 -0.18088525371E+02  0.33727664250E+02  0.40659134659E+02  0.00000000000E+00 0.  1.
         11    1    3    3    0    0 -0.68807335371E+01 -0.18596849646E+01  0.38265513899E+00  0.71378811556E+01  0.51100000000E-03 0. -1.
        -11    1    3    3    0    0 -0.85108214327E-01  0.12192465401E+00  0.18062160925E+01  0.18123260919E+01  0.51100000000E-03 0.  1.
         12    1    3    3    0    0 -0.67605978948E+01  0.19826285681E+02 -0.35916535482E+02  0.41578658093E+02  0.00000000000E+00 0. -1.
</event>
<event>
 7    1  0.2702714E-011  0.5052888E+02  0.7816164E-02  0.1300439E+00
        -11   -1    0    0    0    0  0.00000000000E+00  0.00000000000E+00  0.45593999997E+02  0.45594000000E+02  0.51100000000E-03 0.  1.
         11   -1    0    0    0    0 -0.00000000000E+00 -0.00000000000E+00 -0.45593999997E+02  0.45594000000E+02  0.51100000000E-03 0. -1.
    9900012    2    1    2    0    0 -0.27413952601E+02 -0.27167904962E+02 -0.12788451297E+02  0.50528876254E+02  0.30000049860E+02 0.  0.
        -12    1    1    2    0    0  0.27413952601E+02  0.27167904962E+02  0.12788451297E+02  0.40659123746E+02  0.00000000000E+00 0.  1.
         11    1    3    3    0    0  0.29257283328E+01  0.37167194676E+01 -0.20707517401E+01  0.51635165255E+01  0.51100000000E-03 0. -1.
        -11    1    3    3    0    0 -0.45336060036E+01 -0.39285435558E+01  0.13430743854E+01  0.61474292946E+01  0.51100000000E-03 0.  1.
         12    1    3    3    0    0 -0.25806074930E+02 -0.26956080874E+02 -0.12060773942E+02  0.39217930433E+02  0.00000000000E+00 0. -1.
</event>
<event>
 7    1  0.2702714E-011  0.5052887E+02  0.7816164E-02  0.1300439E+00
        -11   -1    0    0    0    0  0.00000000000E+00  0.00000000000E+00  0.45593999997E+02  0.45594000000E+02  0.51100000000E-03 0.  1.
         11   -1    0    0    0    0 -0.00000000000E+00 -0.00000000000E+00 -0.45593999997E+02  0.45594000000E+02  0.51100000000E-03 0. -1.
    9900012    2    1    2    0    0 -0.29692054014E+02  0.26761982156E+02  0.74392936354E+01  0.50528870026E+02  0.30000030930E+02 0.  0.
        -12    1    1    2    0    0  0.29692054014E+02 -0.26761982156E+02 -0.74392936354E+01  0.40659129974E+02  0.00000000000E+00 0.  1.
         11    1    3    3    0    0 -0.92566644425E+01 -0.15823110907E+01 -0.24268612887E+01  0.96994433327E+01  0.51100000000E-03 0. -1.
        -11    1    3    3    0    0  0.22728964305E+01  0.56208501847E+01 -0.22903539736E+01  0.64811832692E+01  0.51100000000E-03 0.  1.
         12    1    3    3    0    0 -0.22708286002E+02  0.22723443062E+02  0.12156508898E+02  0.34348243424E+02  0.00000000000E+00 0. -1.
</event>
<event>
 7    1  0.2702714E-011  0.5052887E+02  0.7816164E-02  0.1300439E+00
        -11   -1    0    0    0    0  0.00000000000E+00  0.00000000000E+00  0.45593999997E+02  0.45594000000E+02  0.51100000000E-03 0.  1.
         11   -1    0    0    0    0 -0.00000000000E+00 -0.00000000000E+00 -0.45593999997E+02  0.45594000000E+02  0.51100000000E-03 0. -1.
    9900012    2    1    2    0    0 -0.29676977494E+02  0.16141743528E+02  0.22624890340E+02  0.50528873839E+02  0.30000042520E+02 0.  0.
        -12    1    1    2    0    0  0.29676977494E+02 -0.16141743528E+02 -0.22624890340E+02  0.40659126161E+02  0.00000000000E+00 0.  1.
         11    1    3    3    0    0 -0.57340417516E+01 -0.28315099448E+01 -0.70602389997E+00  0.64339065415E+01  0.51100000000E-03 0. -1.
        -11    1    3    3    0    0 -0.70595895281E+01 -0.44174478918E+01  0.32165285891E+01  0.89273572017E+01  0.51100000000E-03 0.  1.
        -12    1    3    3    0    0 -0.16883346214E+02  0.23390701365E+02  0.20114385651E+02  0.35167610096E+02  0.00000000000E+00 0.  1.
</event>
<event>
 7    1  0.2702714E-011  0.5052886E+02  0.7816164E-02  0.1300439E+00
        -11   -1    0    0    0    0  0.00000000000E+00  0.00000000000E+00  0.45593999997E+02  0.45594000000E+02  0.51100000000E-03 0.  1.
         11   -1    0    0    0    0 -0.00000000000E+00 -0.00000000000E+00 -0.45593999997E+02  0.45594000000E+02  0.51100000000E-03 0. -1.
    9900012    2    1    2    0    0 -0.16667458527E+02  0.36500211439E+02 -0.65647717087E+01  0.50528857899E+02  0.29999994069E+02 0.  0.
        -12    1    1    2    0    0  0.16667458527E+02 -0.36500211439E+02  0.65647717087E+01  0.40659142101E+02  0.00000000000E+00 0.  1.
         11    1    3    3    0    0 -0.28473555891E+01  0.13898642864E+02 -0.75386607803E+01  0.16065836857E+02  0.51100000000E-03 0. -1.
        -11    1    3    3    0    0  0.26573926449E+01  0.33357550996E+01  0.71910865972E+01  0.83606653122E+01  0.51100000000E-03 0.  1.
         12    1    3    3    0    0 -0.16477495582E+02  0.19265813476E+02 -0.62171975256E+01  0.26102355729E+02  0.00000000000E+00 0. -1.
</event>
<event>
 7    1  0.2702714E-011  0.5052886E+02  0.7816164E-02  0.1300439E+00
        -11   -1    0    0    0    0  0.00000000000E+00  0.00000000000E+00  0.45593999997E+02  0.45594000000E+02  0.51100000000E-03 0. -1.
         11   -1    0    0    0    0 -0.00000000000E+00 -0.00000000000E+00 -0.45593999997E+02  0.45594000000E+02  0.51100000000E-03 0.  1.
    9900012    2    1    2    0    0  0.80393490105E+01  0.26824048920E+02  0.29478886365E+02  0.50528862352E+02  0.30000007604E+02 0.  0.
        -12    1    1    2    0    0 -0.80393490105E+01 -0.26824048920E+02 -0.29478886365E+02  0.40659137648E+02  0.00000000000E+00 0.  1.
         11    1    3    3    0    0  0.14826149795E+01 -0.21496620751E+01  0.65171946001E+01  0.70208987980E+01  0.51100000000E-03 0.  1.
        -11    1    3    3    0    0  0.13871334776E+02  0.16039690465E+02  0.87286463043E+01  0.22931961653E+02  0.51100000000E-03 0. -1.
         12    1    3    3    0    0 -0.73146007448E+01  0.12934020530E+02  0.14233045461E+02  0.20576001901E+02  0.00000000000E+00 0. -1.
</event>
<event>
 7    1  0.2702714E-011  0.5052884E+02  0.7816164E-02  0.1300439E+00
        -11   -1    0    0    0    0  0.00000000000E+00  0.00000000000E+00  0.45593999997E+02  0.45594000000E+02  0.51100000000E-03 0.  1.
         11   -1    0    0    0    0 -0.00000000000E+00 -0.00000000000E+00 -0.45593999997E+02  0.45594000000E+02  0.51100000000E-03 0. -1.
    9900012    2    1    2    0    0 -0.29661158558E+02  0.24964168579E+02 -0.12254510581E+02  0.50528842736E+02  0.29999947981E+02 0.  0.
        -12    1    1    2    0    0  0.29661158558E+02 -0.24964168579E+02  0.12254510581E+02  0.40659157264E+02  0.00000000000E+00 0.  1.
         11    1    3    3    0    0 -0.78494597363E+01 -0.48020451592E+01 -0.59022957551E+01  0.10932097297E+02  0.51100000000E-03 0.  1.
        -11    1    3    3    0    0 -0.46558129969E+01  0.56926764423E+01 -0.68231526522E+01  0.10031877796E+02  0.51100000000E-03 0. -1.
         12    1    3    3    0    0 -0.17155885824E+02  0.24073537296E+02  0.47093782628E+00  0.29564867644E+02  0.00000000000E+00 0. -1.
</event>
<event>
 7    1  0.2702714E-011  0.5052886E+02  0.7816164E-02  0.1300439E+00
        -11   -1    0    0    0    0  0.00000000000E+00  0.00000000000E+00  0.45593999997E+02  0.45594000000E+02  0.51100000000E-03 0.  1.
         11   -1    0    0    0    0 -0.00000000000E+00 -0.00000000000E+00 -0.45593999997E+02  0.45594000000E+02  0.51100000000E-03 0. -1.
    9900012    2    1    2    0    0  0.24993208302E+02  0.24716990443E+02 -0.20434662578E+02  0.50528861882E+02  0.30000006178E+02 0.  0.
        -12    1    1    2    0    0 -0.24993208302E+02 -0.24716990443E+02  0.20434662578E+02  0.40659138118E+02  0.00000000000E+00 0.  1.
         11    1    3    3    0    0  0.86136222501E+01  0.88549129066E+01 -0.16119872293E+02  0.20308969788E+02  0.51100000000E-03 0. -1.
        -11    1    3    3    0    0  0.31430578141E+01  0.92149283705E-01 -0.86289488989E+01  0.91840112845E+01  0.51100000000E-03 0.  1.
        -12    1    3    3    0    0  0.13236528237E+02  0.15769928253E+02  0.43141586141E+01  0.21035880810E+02  0.00000000000E+00 0.  1.
</event>
<event>
 7    1  0.2702714E-011  0.5052886E+02  0.7816164E-02  0.1300439E+00
        -11   -1    0    0    0    0  0.00000000000E+00  0.00000000000E+00  0.45593999997E+02  0.45594000000E+02  0.51100000000E-03 0.  1.
         11   -1    0    0    0    0 -0.00000000000E+00 -0.00000000000E+00 -0.45593999997E+02  0.45594000000E+02  0.51100000000E-03 0. -1.
    9900012    2    1    2    0    0 -0.25396707606E+02 -0.10575429229E+02 -0.29938823812E+02  0.50528860414E+02  0.30000001716E+02 0.  0.
        -12    1    1    2    0    0  0.25396707606E+02  0.10575429229E+02  0.29938823812E+02  0.40659139586E+02  0.00000000000E+00 0.  1.
         11    1    3    3    0    0 -0.22531431520E+01 -0.56497190114E+01 -0.67805801520E+01  0.91089102768E+01  0.51100000000E-03 0. -1.
        -11    1    3    3    0    0 -0.65422458296E+01 -0.13660653215E+02 -0.13646141581E+02  0.20387045079E+02  0.51100000000E-03 0.  1.
        -12    1    3    3    0    0 -0.16601318625E+02  0.87349429973E+01 -0.95121020789E+01  0.21032905059E+02  0.00000000000E+00 0.  1.
</event>
<event>
 7    1  0.2702714E-011  0.5052886E+02  0.7816164E-02  0.1300439E+00
        -11   -1    0    0    0    0  0.00000000000E+00  0.00000000000E+00  0.45593999997E+02  0.45594000000E+02  0.51100000000E-03 0.  1.
         11   -1    0    0    0    0 -0.00000000000E+00 -0.00000000000E+00 -0.45593999997E+02  0.45594000000E+02  0.51100000000E-03 0. -1.
    9900012    2    1    2    0    0  0.14000829633E+02 -0.81482961204E+01 -0.37292733128E+02  0.50528857065E+02  0.29999991533E+02 0.  0.
        -12    1    1    2    0    0 -0.14000829633E+02  0.81482961204E+01  0.37292733128E+02  0.40659142935E+02  0.00000000000E+00 0.  1.
         11    1    3    3    0    0  0.47016123376E+00  0.43633728496E+01 -0.12213434673E+02  0.12977983703E+02  0.51100000000E-03 0. -1.
        -11    1    3    3    0    0  0.15713572748E+02 -0.10965594874E+02 -0.27781455381E+02  0.33748628162E+02  0.51100000000E-03 0.  1.
        -12    1    3    3    0    0 -0.21829043491E+01 -0.15460740957E+01  0.27021569262E+01  0.38022451999E+01  0.00000000000E+00 0.  1.
</event>
<event>
 7    1  0.2702714E-011  0.5052886E+02  0.7816164E-02  0.1300439E+00
        -11   -1    0    0    0    0  0.00000000000E+00  0.00000000000E+00  0.45593999997E+02  0.45594000000E+02  0.51100000000E-03 0.  1.
         11   -1    0    0    0    0 -0.00000000000E+00 -0.00000000000E+00 -0.45593999997E+02  0.45594000000E+02  0.51100000000E-03 0. -1.
    9900012    2    1    2    0    0 -0.22047144032E+02 -0.18382037764E+02 -0.28795653282E+02  0.50528861787E+02  0.30000005886E+02 0.  0.
        -12    1    1    2    0    0  0.22047144032E+02  0.18382037764E+02  0.28795653282E+02  0.40659138213E+02  0.00000000000E+00 0.  1.
         11    1    3    3    0    0 -0.15241123417E+02 -0.90513378515E+01 -0.11006055211E+00  0.17726552781E+02  0.51100000000E-03 0.  1.
        -11    1    3    3    0    0 -0.37409818270E+01 -0.77350165126E+01 -0.77107930895E+01  0.11544771795E+02  0.51100000000E-03 0. -1.
        -12    1    3    3    0    0 -0.30650387882E+01 -0.15956833999E+01 -0.20974799640E+02  0.21257537210E+02  0.00000000000E+00 0.  1.
</event>
<event>
 7    1  0.2702714E-011  0.5052886E+02  0.7816164E-02  0.1300439E+00
        -11   -1    0    0    0    0  0.00000000000E+00  0.00000000000E+00  0.45593999997E+02  0.45594000000E+02  0.51100000000E-03 0.  1.
         11   -1    0    0    0    0 -0.00000000000E+00 -0.00000000000E+00 -0.45593999997E+02  0.45594000000E+02  0.51100000000E-03 0. -1.
    9900012    2    1    2    0    0  0.12570698267E+02 -0.33880633798E+02 -0.18634534698E+02  0.50528859762E+02  0.29999999731E+02 0.  0.
        -12    1    1    2    0    0 -0.12570698267E+02  0.33880633798E+02  0.18634534698E+02  0.40659140238E+02  0.00000000000E+00 0.  1.
         11    1    3    3    0    0 -0.91199750611E+00 -0.14971135050E+02 -0.89701807268E+01  0.17476577659E+02  0.51100000000E-03 0. -1.
        -11    1    3    3    0    0  0.13238407422E+02 -0.23415541039E+02 -0.69347169504E+01  0.27778288152E+02  0.51100000000E-03 0.  1.
         12    1    3    3    0    0  0.24428835129E+00  0.45060422907E+01 -0.27296370212E+01  0.52739939506E+01  0.00000000000E+00 0. -1.
</event>
<event>
 7    1  0.2702714E-011  0.5052886E+02  0.7816164E-02  0.1300439E+00
        -11   -1    0    0    0    0  0.00000000000E+00  0.00000000000E+00  0.45593999997E+02  0.45594000000E+02  0.51100000000E-03 0.  1.
         11   -1    0    0    0    0 -0.00000000000E+00 -0.00000000000E+00 -0.45593999997E+02  0.45594000000E+02  0.51100000000E-03 0. -1.
    9900012    2    1    2    0    0 -0.19952204876E+01 -0.43566561514E+01 -0.40375792691E+02  0.50528855973E+02  0.29999988216E+02 0.  0.
        -12    1    1    2    0    0  0.19952204876E+01  0.43566561514E+01  0.40375792691E+02  0.40659144027E+02  0.00000000000E+00 0.  1.
         11    1    3    3    0    0  0.56893376770E+01 -0.81948710654E+01 -0.33955463890E+02  0.35390648528E+02  0.51100000000E-03 0. -1.
        -11    1    3    3    0    0 -0.14688917982E+01 -0.36242769897E+01 -0.10904821005E+01  0.40598249082E+01  0.51100000000E-03 0.  1.
        -12    1    3    3    0    0 -0.62156663663E+01  0.74624919037E+01 -0.53298467004E+01  0.11078382537E+02  0.00000000000E+00 0.  1.
</event>
<event>
 7    1  0.2808673E-011  0.5052886E+02  0.7816164E-02  0.1300439E+00
        -11   -1    0    0    0    0  0.00000000000E+00  0.00000000000E+00  0.45593999997E+02  0.45594000000E+02  0.51100000000E-03 0.  1.
         11   -1    0    0    0    0 -0.00000000000E+00 -0.00000000000E+00 -0.45593999997E+02  0.45594000000E+02  0.51100000000E-03 0. -1.
    9900012    2    1    2    0    0  0.15182382689E+02  0.18189840466E+02 -0.33042256285E+02  0.50528859076E+02  0.29999997647E+02 0.  0.
        -12    1    1    2    0    0 -0.15182382689E+02 -0.18189840466E+02  0.33042256285E+02  0.40659140924E+02  0.00000000000E+00 0.  1.
         11    1    3    3    0    0  0.80855343369E+01  0.17911510240E+02 -0.21061958178E+02  0.28806321305E+02  0.51100000000E-03 0.  1.
        -11    1    3    3    0    0 -0.29103318961E+01  0.10486457333E+01 -0.11240629329E+02  0.11658534968E+02  0.51100000000E-03 0. -1.
        -12    1    3    3    0    0  0.10007180248E+02 -0.77031550825E+00 -0.73966877791E+00  0.10064002802E+02  0.00000000000E+00 0.  1.
</event>
<event>
 7    1  0.2702714E-011  0.5052886E+02  0.7816164E-02  0.1300439E+00
        -11   -1    0    0    0    0  0.00000000000E+00  0.00000000000E+00  0.45593999997E+02  0.45594000000E+02  0.51100000000E-03 0. -1.
         11   -1    0    0    0    0 -0.00000000000E+00 -0.00000000000E+00 -0.45593999997E+02  0.45594000000E+02  0.51100000000E-03 0.  1.
    9900012    2    1    2    0    0 -0.30751612091E+02  0.21047537439E+02  0.16263607749E+02  0.50528863075E+02  0.30000009803E+02 0.  0.
        -12    1    1    2    0    0  0.30751612091E+02 -0.21047537439E+02 -0.16263607749E+02  0.40659136925E+02  0.00000000000E+00 0.  1.
         11    1    3    3    0    0 -0.12984793235E+02  0.78548126300E+01  0.18444187670E+02  0.23884953336E+02  0.51100000000E-03 0. -1.
        -11    1    3    3    0    0  0.21179045220E+01  0.42190316186E+01 -0.14161666416E-01  0.47207995273E+01  0.51100000000E-03 0.  1.
        -12    1    3    3    0    0 -0.19884723378E+02  0.89736931904E+01 -0.21664182538E+01  0.21923110212E+02  0.00000000000E+00 0.  1.
</event>
<event>
 7    1  0.2702714E-011  0.5052884E+02  0.7816164E-02  0.1300439E+00
        -11   -1    0    0    0    0  0.00000000000E+00  0.00000000000E+00  0.45593999997E+02  0.45594000000E+02  0.51100000000E-03 0.  1.
         11   -1    0    0    0    0 -0.00000000000E+00 -0.00000000000E+00 -0.45593999997E+02  0.45594000000E+02  0.51100000000E-03 0. -1.
    9900012    2    1    2    0    0 -0.29245989571E+02 -0.21304401133E+02 -0.18546204756E+02  0.50528842059E+02  0.29999945922E+02 0.  0.
        -12    1    1    2    0    0  0.29245989571E+02  0.21304401133E+02  0.18546204756E+02  0.40659157941E+02  0.00000000000E+00 0.  1.
         11    1    3    3    0    0 -0.18013794742E+02 -0.75576006712E+01 -0.89537410726E+01  0.21489150946E+02  0.51100000000E-03 0. -1.
        -11    1    3    3    0    0 -0.12467218240E+02  0.89363527664E-01 -0.85333591305E+01  0.15108200912E+02  0.51100000000E-03 0.  1.
         12    1    3    3    0    0  0.12350234114E+01 -0.13836163989E+02 -0.10591045532E+01  0.13931490201E+02  0.00000000000E+00 0. -1.
</event>
<event>
 7    1  0.2702714E-011  0.5052882E+02  0.7816164E-02  0.1300439E+00
        -11   -1    0    0    0    0  0.00000000000E+00  0.00000000000E+00  0.45593999997E+02  0.45594000000E+02  0.51100000000E-03 0. -1.
         11   -1    0    0    0    0 -0.00000000000E+00 -0.00000000000E+00 -0.45593999997E+02  0.45594000000E+02  0.51100000000E-03 0.  1.
    9900012    2    1    2    0    0  0.82285385275E+01  0.21430440708E+02  0.33558849371E+02  0.50528818917E+02  0.29999875579E+02 0.  0.
        -12    1    1    2    0    0 -0.82285385275E+01 -0.21430440708E+02 -0.33558849371E+02  0.40659181083E+02  0.00000000000E+00 0.  1.
         11    1    3    3    0    0 -0.32645833870E+01  0.14069961436E+02  0.23593766490E+02  0.27663823615E+02  0.51100000000E-03 0. -1.
        -11    1    3    3    0    0  0.76174136810E+01  0.10927797406E+02  0.11258262194E+02  0.17441049717E+02  0.51100000000E-03 0.  1.
         12    1    3    3    0    0  0.38757082334E+01 -0.35673181339E+01 -0.12931793130E+01  0.54239455855E+01  0.00000000000E+00 0. -1.
</event>
<event>
 7    1  0.2702714E-011  0.5052886E+02  0.7816164E-02  0.1300439E+00
        -11   -1    0    0    0    0  0.00000000000E+00  0.00000000000E+00  0.45593999997E+02  0.45594000000E+02  0.51100000000E-03 0.  1.
         11   -1    0    0    0    0 -0.00000000000E+00 -0.00000000000E+00 -0.45593999997E+02  0.45594000000E+02  0.51100000000E-03 0. -1.
    9900012    2    1    2    0    0 -0.81728148967E+01 -0.28835912215E+02 -0.27474730875E+02  0.50528861135E+02  0.30000003906E+02 0.  0.
        -12    1    1    2    0    0  0.81728148967E+01  0.28835912215E+02  0.27474730875E+02  0.40659138865E+02  0.00000000000E+00 0.  1.
         11    1    3    3    0    0 -0.36980288768E+01 -0.17211202151E+02 -0.96203737780E+01  0.20061218531E+02  0.51100000000E-03 0. -1.
        -11    1    3    3    0    0 -0.10734219825E+02 -0.16366323880E+01 -0.14681752018E+02  0.18260774447E+02  0.51100000000E-03 0.  1.
         12    1    3    3    0    0  0.62594338055E+01 -0.99880776763E+01 -0.31726050790E+01  0.12206868158E+02  0.00000000000E+00 0. -1.
</event>
<event>
 7    1  0.2702714E-011  0.5052885E+02  0.7816164E-02  0.1300439E+00
        -11   -1    0    0    0    0  0.00000000000E+00  0.00000000000E+00  0.45593999997E+02  0.45594000000E+02  0.51100000000E-03 0.  1.
         11   -1    0    0    0    0 -0.00000000000E+00 -0.00000000000E+00 -0.45593999997E+02  0.45594000000E+02  0.51100000000E-03 0. -1.
    9900012    2    1    2    0    0  0.92596793860E+01  0.39065289557E+02 -0.64286955216E+01  0.50528848058E+02  0.29999964157E+02 0.  0.
        -12    1    1    2    0    0 -0.92596793860E+01 -0.39065289557E+02  0.64286955216E+01  0.40659151942E+02  0.00000000000E+00 0.  1.
         11    1    3    3    0    0 -0.50857109723E-01  0.29481205842E+02  0.23707190031E+01  0.29576416166E+02  0.51100000000E-03 0. -1.
        -11    1    3    3    0    0 -0.27219562556E+00  0.11234242010E+01  0.32106446842E+01  0.34123909424E+01  0.51100000000E-03 0.  1.
        -12    1    3    3    0    0  0.95827321212E+01  0.84606595144E+01 -0.12010059209E+02  0.17540040950E+02  0.00000000000E+00 0.  1.
</event>
<event>
 7    1  0.2702714E-011  0.5052891E+02  0.7816164E-02  0.1300439E+00
        -11   -1    0    0    0    0  0.00000000000E+00  0.00000000000E+00  0.45593999997E+02  0.45594000000E+02  0.51100000000E-03 0.  1.
         11   -1    0    0    0    0 -0.00000000000E+00 -0.00000000000E+00 -0.45593999997E+02  0.45594000000E+02  0.51100000000E-03 0. -1.
    9900012    2    1    2    0    0 -0.16078872121E+02  0.18951514590E+02 -0.32178749134E+02  0.50528905940E+02  0.30000140095E+02 0.  0.
        -12    1    1    2    0    0  0.16078872121E+02 -0.18951514590E+02  0.32178749134E+02  0.40659094060E+02  0.00000000000E+00 0.  1.
         11    1    3    3    0    0 -0.12918051546E+02  0.10894866874E+02 -0.32677655337E+02  0.36788630561E+02  0.51100000000E-03 0. -1.
        -11    1    3    3    0    0 -0.67166313934E+01  0.69009667294E+01 -0.10625483412E+01  0.96884203208E+01  0.51100000000E-03 0.  1.
        -12    1    3    3    0    0  0.35558108192E+01  0.11556809864E+01  0.15614545437E+01  0.40518550586E+01  0.00000000000E+00 0.  1.
</event>
<event>
 7    1  0.2702714E-011  0.5052884E+02  0.7816164E-02  0.1300439E+00
        -11   -1    0    0    0    0  0.00000000000E+00  0.00000000000E+00  0.45593999997E+02  0.45594000000E+02  0.51100000000E-03 0. -1.
         11   -1    0    0    0    0 -0.00000000000E+00 -0.00000000000E+00 -0.45593999997E+02  0.45594000000E+02  0.51100000000E-03 0.  1.
    9900012    2    1    2    0    0 -0.20869712165E+02  0.55177562808E+01  0.34455427434E+02  0.50528843592E+02  0.29999950581E+02 0.  0.
        -12    1    1    2    0    0  0.20869712165E+02 -0.55177562808E+01 -0.34455427434E+02  0.40659156408E+02  0.00000000000E+00 0.  1.
         11    1    3    3    0    0 -0.56188475309E+01 -0.48614096542E+01  0.40383844238E+01  0.84565536963E+01  0.51100000000E-03 0. -1.
        -11    1    3    3    0    0  0.11183577601E+01  0.64084183580E+01 -0.84632070930E+00  0.65600921438E+01  0.51100000000E-03 0.  1.
         12    1    3    3    0    0 -0.16369222394E+02  0.39707475770E+01  0.31263363719E+02  0.35512197751E+02  0.00000000000E+00 0. -1.
</event>
<event>
 7    1  0.2702714E-011  0.5052886E+02  0.7816164E-02  0.1300439E+00
        -11   -1    0    0    0    0  0.00000000000E+00  0.00000000000E+00  0.45593999997E+02  0.45594000000E+02  0.51100000000E-03 0.  1.
         11   -1    0    0    0    0 -0.00000000000E+00 -0.00000000000E+00 -0.45593999997E+02  0.45594000000E+02  0.51100000000E-03 0. -1.
    9900012    2    1    2    0    0  0.31459534568E+02  0.25478755872E+02 -0.37810106083E+01  0.50528863791E+02  0.30000011978E+02 0.  0.
        -12    1    1    2    0    0 -0.31459534568E+02 -0.25478755872E+02  0.37810106083E+01  0.40659136209E+02  0.00000000000E+00 0.  1.
         11    1    3    3    0    0  0.15287907271E+02  0.91173292358E+00 -0.45120156854E+01  0.15965890249E+02  0.51100000000E-03 0. -1.
        -11    1    3    3    0    0 -0.37138531955E+01  0.55370185286E+01 -0.18474621297E+01  0.69184099565E+01  0.51100000000E-03 0.  1.
         12    1    3    3    0    0  0.19885480493E+02  0.19030004420E+02  0.25784672068E+01  0.27644563585E+02  0.00000000000E+00 0. -1.
</event>
<event>
 7    1  0.2702714E-011  0.5052886E+02  0.7816164E-02  0.1300439E+00
        -11   -1    0    0    0    0  0.00000000000E+00  0.00000000000E+00  0.45593999997E+02  0.45594000000E+02  0.51100000000E-03 0.  1.
         11   -1    0    0    0    0 -0.00000000000E+00 -0.00000000000E+00 -0.45593999997E+02  0.45594000000E+02  0.51100000000E-03 0. -1.
    9900012    2    1    2    0    0  0.11338573524E+01 -0.37242184756E+02 -0.16275748381E+02  0.50528856585E+02  0.29999990076E+02 0.  0.
        -12    1    1    2    0    0 -0.11338573524E+01  0.37242184756E+02  0.16275748381E+02  0.40659143415E+02  0.00000000000E+00 0.  1.
         11    1    3    3    0    0 -0.11220585868E+01  0.15396771074E+01 -0.56899982653E+01  0.60004751135E+01  0.51100000000E-03 0. -1.
        -11    1    3    3    0    0 -0.54812746149E+01 -0.17858810579E+02  0.22099391081E+01  0.18811308244E+02  0.51100000000E-03 0.  1.
        -12    1    3    3    0    0  0.77371905540E+01 -0.20923051284E+02 -0.12795689224E+02  0.25717073228E+02  0.00000000000E+00 0.  1.
</event>
<event>
 7    1  0.2702714E-011  0.5052886E+02  0.7816164E-02  0.1300439E+00
        -11   -1    0    0    0    0  0.00000000000E+00  0.00000000000E+00  0.45593999997E+02  0.45594000000E+02  0.51100000000E-03 0.  1.
         11   -1    0    0    0    0 -0.00000000000E+00 -0.00000000000E+00 -0.45593999997E+02  0.45594000000E+02  0.51100000000E-03 0. -1.
    9900012    2    1    2    0    0 -0.10752160152E+02  0.36115295654E+02 -0.15272275382E+02  0.50528856828E+02  0.29999990815E+02 0.  0.
        -12    1    1    2    0    0  0.10752160152E+02 -0.36115295654E+02  0.15272275382E+02  0.40659143172E+02  0.00000000000E+00 0.  1.
         11    1    3    3    0    0  0.46303747435E+00  0.22539822254E+02 -0.13759043159E+02  0.26411536491E+02  0.51100000000E-03 0. -1.
        -11    1    3    3    0    0 -0.79118866124E+01  0.17016292798E+02  0.86874872853E+00  0.18785816324E+02  0.51100000000E-03 0.  1.
         12    1    3    3    0    0 -0.33033110139E+01 -0.34408193975E+01 -0.23819809522E+01  0.53315040127E+01  0.00000000000E+00 0. -1.
</event>
<event>
 7    1  0.3112055E-011  0.5052887E+02  0.7816164E-02  0.1300439E+00
        -11   -1    0    0    0    0  0.00000000000E+00  0.00000000000E+00  0.45593999997E+02  0.45594000000E+02  0.51100000000E-03 0.  1.
         11   -1    0    0    0    0 -0.00000000000E+00 -0.00000000000E+00 -0.45593999997E+02  0.45594000000E+02  0.51100000000E-03 0. -1.
    9900012    2    1    2    0    0 -0.71773258925E+01  0.33871296705E+02 -0.21316328200E+02  0.50528873160E+02  0.30000040458E+02 0.  0.
        -12    1    1    2    0    0  0.71773258925E+01 -0.33871296705E+02  0.21316328200E+02  0.40659126840E+02  0.00000000000E+00 0.  1.
         11    1    3    3    0    0 -0.22584455704E+01  0.24026578701E+02 -0.10607521937E+02  0.26360891153E+02  0.51100000000E-03 0. -1.
        -11    1    3    3    0    0 -0.95704953268E+01  0.73160084303E+01 -0.13573435270E+02  0.18148181877E+02  0.51100000000E-03 0.  1.
        -12    1    3    3    0    0  0.46516150047E+01  0.25287095731E+01  0.28646290069E+01  0.60198001299E+01  0.00000000000E+00 0.  1.
</event>
<event>
 7    1  0.2702714E-011  0.5052887E+02  0.7816164E-02  0.1300439E+00
        -11   -1    0    0    0    0  0.00000000000E+00  0.00000000000E+00  0.45593999997E+02  0.45594000000E+02  0.51100000000E-03 0. -1.
         11   -1    0    0    0    0 -0.00000000000E+00 -0.00000000000E+00 -0.45593999997E+02  0.45594000000E+02  0.51100000000E-03 0.  1.
    9900012    2    1    2    0    0 -0.33770928880E+02 -0.17409862836E+02  0.14477071167E+02  0.50528873706E+02  0.30000042118E+02 0.  0.
        -12    1    1    2    0    0  0.33770928880E+02  0.17409862836E+02 -0.14477071167E+02  0.40659126294E+02  0.00000000000E+00 0.  1.
         11    1    3    3    0    0 -0.39576120963E+00  0.52122295449E+01  0.36885108456E+01  0.63975836284E+01  0.51100000000E-03 0. -1.
        -11    1    3    3    0    0 -0.24710380474E+01 -0.68510933003E+01  0.52925074785E+01  0.90030075037E+01  0.51100000000E-03 0.  1.
         12    1    3    3    0    0 -0.30904129623E+02 -0.15770999081E+02  0.54960528429E+01  0.35128282574E+02  0.00000000000E+00 0. -1.
</event>
<event>
 7    1  0.2923778E-011  0.5052885E+02  0.7816164E-02  0.1300439E+00
        -11   -1    0    0    0    0  0.00000000000E+00  0.00000000000E+00  0.45593999997E+02  0.45594000000E+02  0.51100000000E-03 0. -1.
         11   -1    0    0    0    0 -0.00000000000E+00 -0.00000000000E+00 -0.45593999997E+02  0.45594000000E+02  0.51100000000E-03 0.  1.
    9900012    2    1    2    0    0  0.14812707800E+02 -0.29299052399E+02  0.23985737088E+02  0.50528851368E+02  0.29999974217E+02 0.  0.
        -12    1    1    2    0    0 -0.14812707800E+02  0.29299052399E+02 -0.23985737088E+02  0.40659148632E+02  0.00000000000E+00 0.  1.
         11    1    3    3    0    0  0.13438076124E+02 -0.70320128181E+01  0.19035363886E+02  0.24338779196E+02  0.51100000000E-03 0. -1.
        -11    1    3    3    0    0  0.68608325367E+01 -0.13455454424E+02  0.46596580819E+01  0.15806096626E+02  0.51100000000E-03 0.  1.
        -12    1    3    3    0    0 -0.54862008606E+01 -0.88115851567E+01  0.29071511975E+00  0.10383975546E+02  0.00000000000E+00 0.  1.
</event>
<event>
 7    1  0.2702714E-011  0.5052886E+02  0.7816164E-02  0.1300439E+00
        -11   -1    0    0    0    0  0.00000000000E+00  0.00000000000E+00  0.45593999997E+02  0.45594000000E+02  0.51100000000E-03 0. -1.
         11   -1    0    0    0    0 -0.00000000000E+00 -0.00000000000E+00 -0.45593999997E+02  0.45594000000E+02  0.51100000000E-03 0.  1.
    9900012    2    1    2    0    0  0.79275095186E+01  0.39495944349E+02  0.55127845965E+01  0.50528858086E+02  0.29999994639E+02 0.  0.
        -12    1    1    2    0    0 -0.79275095186E+01 -0.39495944349E+02 -0.55127845965E+01  0.40659141914E+02  0.00000000000E+00 0.  1.
         11    1    3    3    0    0 -0.86140513038E+01  0.20127672789E+02  0.20189437941E+01  0.21986387290E+02  0.51100000000E-03 0. -1.
        -11    1    3    3    0    0  0.41892248913E+01  0.65681711707E+01  0.69284619551E+01  0.10425644490E+02  0.51100000000E-03 0.  1.
        -12    1    3    3    0    0  0.12352335931E+02  0.12800100389E+02 -0.34346211526E+01  0.18116826306E+02  0.00000000000E+00 0.  1.
</event>
<event>
 7    1  0.2702714E-011  0.5052886E+02  0.7816164E-02  0.1300439E+00
        -11   -1    0    0    0    0  0.00000000000E+00  0.00000000000E+00  0.45593999997E+02  0.45594000000E+02  0.51100000000E-03 0. -1.
         11   -1    0    0    0    0 -0.00000000000E+00 -0.00000000000E+00 -0.45593999997E+02  0.45594000000E+02  0.51100000000E-03 0.  1.
    9900012    2    1    2    0    0  0.20111426318E+02 -0.17672382786E+02  0.30600376701E+02  0.50528860362E+02  0.30000001556E+02 0.  0.
        -12    1    1    2    0    0 -0.20111426318E+02  0.17672382786E+02 -0.30600376701E+02  0.40659139638E+02  0.00000000000E+00 0.  1.
         11    1    3    3    0    0 -0.49269662746E+01 -0.38115808273E+01  0.67865121042E+01  0.92119428937E+01  0.51100000000E-03 0. -1.
        -11    1    3    3    0    0 -0.26514152953E+01 -0.23941907232E+01  0.11868238190E+01  0.37643994642E+01  0.51100000000E-03 0.  1.
         12    1    3    3    0    0  0.27689807888E+02 -0.11466611236E+02  0.22627040778E+02  0.37552518004E+02  0.00000000000E+00 0. -1.
</event>
<event>
 7    1  0.2702714E-011  0.5052887E+02  0.7816164E-02  0.1300439E+00
        -11   -1    0    0    0    0  0.00000000000E+00  0.00000000000E+00  0.45593999997E+02  0.45594000000E+02  0.51100000000E-03 0.  1.
         11   -1    0    0    0    0 -0.00000000000E+00 -0.00000000000E+00 -0.45593999997E+02  0.45594000000E+02  0.51100000000E-03 0. -1.
    9900012    2    1    2    0    0  0.29408268114E+02  0.93919191293E+01 -0.26459599297E+02  0.50528870972E+02  0.30000033805E+02 0.  0.
        -12    1    1    2    0    0 -0.29408268114E+02 -0.93919191293E+01  0.26459599297E+02  0.40659129028E+02  0.00000000000E+00 0.  1.
         11    1    3    3    0    0  0.47088948257E+01 -0.23388268886E+00 -0.11858042899E+02  0.12760939356E+02  0.51100000000E-03 0. -1.
        -11    1    3    3    0    0  0.17641799836E+01  0.10374912823E+02 -0.96798935379E+01  0.14298653303E+02  0.51100000000E-03 0.  1.
        -12    1    3    3    0    0  0.22935193305E+02 -0.74911100504E+00 -0.49216628601E+01  0.23469278313E+02  0.00000000000E+00 0.  1.
</event>
<event>
 7    1  0.2702714E-011  0.5052887E+02  0.7816164E-02  0.1300439E+00
        -11   -1    0    0    0    0  0.00000000000E+00  0.00000000000E+00  0.45593999997E+02  0.45594000000E+02  0.51100000000E-03 0.  1.
         11   -1    0    0    0    0 -0.00000000000E+00 -0.00000000000E+00 -0.45593999997E+02  0.45594000000E+02  0.51100000000E-03 0. -1.
    9900012    2    1    2    0    0  0.15719689596E+02 -0.14257894979E+02 -0.34680955983E+02  0.50528869192E+02  0.30000028395E+02 0.  0.
        -12    1    1    2    0    0 -0.15719689596E+02  0.14257894979E+02  0.34680955983E+02  0.40659130808E+02  0.00000000000E+00 0.  1.
         11    1    3    3    0    0  0.67696140515E+01 -0.10017743513E+02 -0.14466124245E+01  0.12176844717E+02  0.51100000000E-03 0. -1.
        -11    1    3    3    0    0 -0.11681083025E+01  0.45400110907E+01 -0.38801876623E+01  0.60853951610E+01  0.51100000000E-03 0.  1.
         12    1    3    3    0    0  0.10118183847E+02 -0.87801625567E+01 -0.29354155896E+02  0.32266629313E+02  0.00000000000E+00 0. -1.
</event>
<event>
 7    1  0.2702714E-011  0.5052886E+02  0.7816164E-02  0.1300439E+00
        -11   -1    0    0    0    0  0.00000000000E+00  0.00000000000E+00  0.45593999997E+02  0.45594000000E+02  0.51100000000E-03 0.  1.
         11   -1    0    0    0    0 -0.00000000000E+00 -0.00000000000E+00 -0.45593999997E+02  0.45594000000E+02  0.51100000000E-03 0. -1.
    9900012    2    1    2    0    0 -0.36817671068E+02  0.48566866977E+01  0.16554064416E+02  0.50528863792E+02  0.30000011982E+02 0.  0.
        -12    1    1    2    0    0  0.36817671068E+02 -0.48566866977E+01 -0.16554064416E+02  0.40659136208E+02  0.00000000000E+00 0.  1.
         11    1    3    3    0    0 -0.83351947153E+01  0.32811807798E+01  0.35900680148E+01  0.96503993111E+01  0.51100000000E-03 0. -1.
        -11    1    3    3    0    0 -0.25628838832E+02  0.90271583879E+00  0.20474808718E+02  0.32815698501E+02  0.51100000000E-03 0.  1.
         12    1    3    3    0    0 -0.28536375198E+01  0.67279007916E+00 -0.75108123172E+01  0.80627659800E+01  0.00000000000E+00 0. -1.
</event>
<event>
 7    1  0.2702714E-011  0.5052887E+02  0.7816164E-02  0.1300439E+00
        -11   -1    0    0    0    0  0.00000000000E+00  0.00000000000E+00  0.45593999997E+02  0.45594000000E+02  0.51100000000E-03 0.  1.
         11   -1    0    0    0    0 -0.00000000000E+00 -0.00000000000E+00 -0.45593999997E+02  0.45594000000E+02  0.51100000000E-03 0. -1.
    9900012    2    1    2    0    0 -0.13546054797E+02  0.11145868673E+02 -0.36680228861E+02  0.50528865991E+02  0.30000018667E+02 0.  0.
        -12    1    1    2    0    0  0.13546054797E+02 -0.11145868673E+02  0.36680228861E+02  0.40659134009E+02  0.00000000000E+00 0.  1.
         11    1    3    3    0    0 -0.63194955148E+01 -0.33791286413E+00 -0.24017285973E+02  0.24837073790E+02  0.51100000000E-03 0. -1.
        -11    1    3    3    0    0 -0.90645580619E+01  0.13031891877E+01  0.23105768005E+00  0.91606715272E+01  0.51100000000E-03 0.  1.
        -12    1    3    3    0    0  0.18379987798E+01  0.10180592349E+02 -0.12894000568E+02  0.16531120674E+02  0.00000000000E+00 0.  1.
</event>
<event>
 7    1  0.2702714E-011  0.5052886E+02  0.7816164E-02  0.1300439E+00
        -11   -1    0    0    0    0  0.00000000000E+00  0.00000000000E+00  0.45593999997E+02  0.45594000000E+02  0.51100000000E-03 0.  1.
         11   -1    0    0    0    0 -0.00000000000E+00 -0.00000000000E+00 -0.45593999997E+02  0.45594000000E+02  0.51100000000E-03 0. -1.
    9900012    2    1    2    0    0 -0.12729441292E+02  0.37651717643E+02 -0.85717803347E+01  0.50528856684E+02  0.29999990378E+02 0.  0.
        -12    1    1    2    0    0  0.12729441292E+02 -0.37651717643E+02  0.85717803347E+01  0.40659143316E+02  0.00000000000E+00 0.  1.
         11    1    3    3    0    0 -0.52562210634E+01  0.77324759458E+01 -0.47944306805E+01  0.10507407384E+02  0.51100000000E-03 0. -1.
        -11    1    3    3    0    0  0.71852592712E+01  0.20510101608E+02 -0.57812076255E+01  0.22488098644E+02  0.51100000000E-03 0.  1.
         12    1    3    3    0    0 -0.14658479500E+02  0.94091400887E+01  0.20038579713E+01  0.17533350656E+02  0.00000000000E+00 0. -1.
</event>
<event>
 7    1  0.2702714E-011  0.5052886E+02  0.7816164E-02  0.1300439E+00
        -11   -1    0    0    0    0  0.00000000000E+00  0.00000000000E+00  0.45593999997E+02  0.45594000000E+02  0.51100000000E-03 0.  1.
         11   -1    0    0    0    0 -0.00000000000E+00 -0.00000000000E+00 -0.45593999997E+02  0.45594000000E+02  0.51100000000E-03 0. -1.
    9900012    2    1    2    0    0  0.11228564619E+02 -0.36805094830E+02 -0.13132792338E+02  0.50528857074E+02  0.29999991562E+02 0.  0.
        -12    1    1    2    0    0 -0.11228564619E+02  0.36805094830E+02  0.13132792338E+02  0.40659142926E+02  0.00000000000E+00 0.  1.
         11    1    3    3    0    0  0.12336672789E+02 -0.31042343399E+01 -0.81933439542E+01  0.15131445792E+02  0.51100000000E-03 0. -1.
        -11    1    3    3    0    0 -0.38584263487E+01 -0.11570378597E+02 -0.47691681361E+01  0.13096032977E+02  0.51100000000E-03 0.  1.
        -12    1    3    3    0    0  0.27503181784E+01 -0.22130481894E+02 -0.17028024729E+00  0.22301378305E+02  0.00000000000E+00 0.  1.
</event>
<event>
 7    1  0.2702714E-011  0.5052885E+02  0.7816164E-02  0.1300439E+00
        -11   -1    0    0    0    0  0.00000000000E+00  0.00000000000E+00  0.45593999997E+02  0.45594000000E+02  0.51100000000E-03 0.  1.
         11   -1    0    0    0    0 -0.00000000000E+00 -0.00000000000E+00 -0.45593999997E+02  0.45594000000E+02  0.51100000000E-03 0. -1.
    9900012    2    1    2    0    0  0.17017543317E+02 -0.36471577531E+02 -0.57787017703E+01  0.50528854137E+02  0.29999982636E+02 0.  0.
        -12    1    1    2    0    0 -0.17017543317E+02  0.36471577531E+02  0.57787017703E+01  0.40659145863E+02  0.00000000000E+00 0.  1.
         11    1    3    3    0    0  0.12507206313E+02 -0.30691779496E+02 -0.14467433387E+02  0.36162441392E+02  0.51100000000E-03 0. -1.
        -11    1    3    3    0    0  0.10301330522E+01 -0.67220413159E+01  0.25808983744E+01  0.72737920123E+01  0.51100000000E-03 0.  1.
        -12    1    3    3    0    0  0.34802039520E+01  0.94224328095E+00  0.61078332422E+01  0.70926207330E+01  0.00000000000E+00 0.  1.
</event>
<event>
 7    1  0.2702714E-011  0.5052888E+02  0.7816164E-02  0.1300439E+00
        -11   -1    0    0    0    0  0.00000000000E+00  0.00000000000E+00  0.45593999997E+02  0.45594000000E+02  0.51100000000E-03 0.  1.
         11   -1    0    0    0    0 -0.00000000000E+00 -0.00000000000E+00 -0.45593999997E+02  0.45594000000E+02  0.51100000000E-03 0. -1.
    9900012    2    1    2    0    0 -0.16131539397E+02  0.57480026818E-01 -0.37322037740E+02  0.50528875952E+02  0.30000048944E+02 0.  0.
        -12    1    1    2    0    0  0.16131539397E+02 -0.57480026818E-01  0.37322037740E+02  0.40659124048E+02  0.00000000000E+00 0.  1.
         11    1    3    3    0    0 -0.70513896131E+01  0.52942313087E+01 -0.89857668333E+01  0.12589479198E+02  0.51100000000E-03 0. -1.
        -11    1    3    3    0    0  0.49862742182E+01  0.52035831147E+01 -0.50515088309E+01  0.88010198011E+01  0.51100000000E-03 0.  1.
        -12    1    3    3    0    0 -0.14066424002E+02 -0.10440334397E+02 -0.23284762076E+02  0.29138376953E+02  0.00000000000E+00 0.  1.
</event>
<event>
 7    1  0.2702714E-011  0.5052886E+02  0.7816164E-02  0.1300439E+00
        -11   -1    0    0    0    0  0.00000000000E+00  0.00000000000E+00  0.45593999997E+02  0.45594000000E+02  0.51100000000E-03 0.  1.
         11   -1    0    0    0    0 -0.00000000000E+00 -0.00000000000E+00 -0.45593999997E+02  0.45594000000E+02  0.51100000000E-03 0. -1.
    9900012    2    1    2    0    0  0.35126712673E+01 -0.80169836731E+01 -0.39705852304E+02  0.50528860882E+02  0.30000003137E+02 0.  0.
        -12    1    1    2    0    0 -0.35126712673E+01  0.80169836731E+01  0.39705852304E+02  0.40659139118E+02  0.00000000000E+00 0.  1.
         11    1    3    3    0    0  0.72577619535E+01  0.52902981708E+01 -0.23397845036E+02  0.25062352561E+02  0.51100000000E-03 0. -1.
        -11    1    3    3    0    0 -0.27287306670E+01 -0.11910835650E+02 -0.18807420234E+02  0.22428397916E+02  0.51100000000E-03 0.  1.
        -12    1    3    3    0    0 -0.10163600193E+01 -0.13964461939E+01  0.24994129660E+01  0.30381104055E+01  0.00000000000E+00 0.  1.
</event>
<event>
 7    1  0.2702714E-011  0.5052886E+02  0.7816164E-02  0.1300439E+00
        -11   -1    0    0    0    0  0.00000000000E+00  0.00000000000E+00  0.45593999997E+02  0.45594000000E+02  0.51100000000E-03 0. -1.
         11   -1    0    0    0    0 -0.00000000000E+00 -0.00000000000E+00 -0.45593999997E+02  0.45594000000E+02  0.51100000000E-03 0.  1.
    9900012    2    1    2    0    0  0.10229687697E+02  0.11260058180E+02  0.37705841222E+02  0.50528857328E+02  0.29999992334E+02 0.  0.
        -12    1    1    2    0    0 -0.10229687697E+02 -0.11260058180E+02 -0.37705841222E+02  0.40659142672E+02  0.00000000000E+00 0.  1.
         11    1    3    3    0    0  0.63297915931E+01  0.19051121302E+01 -0.26881524092E+01  0.71359566617E+01  0.51100000000E-03 0.  1.
        -11    1    3    3    0    0 -0.29003218355E+01 -0.13138440994E+01  0.73710549224E+01  0.80293526512E+01  0.51100000000E-03 0. -1.
        -12    1    3    3    0    0  0.68002179396E+01  0.10668790149E+02  0.33022938708E+02  0.35363548015E+02  0.00000000000E+00 0.  1.
</event>
<event>
 7    1  0.2702714E-011  0.5052891E+02  0.7816164E-02  0.1300439E+00
        -11   -1    0    0    0    0  0.00000000000E+00  0.00000000000E+00  0.45593999997E+02  0.45594000000E+02  0.51100000000E-03 0.  1.
         11   -1    0    0    0    0 -0.00000000000E+00 -0.00000000000E+00 -0.45593999997E+02  0.45594000000E+02  0.51100000000E-03 0. -1.
    9900012    2    1    2    0    0  0.10529788692E+02  0.21976566154E+02 -0.32547135125E+02  0.50528906125E+02  0.30000140658E+02 0.  0.
        -12    1    1    2    0    0 -0.10529788692E+02 -0.21976566154E+02  0.32547135125E+02  0.40659093875E+02  0.00000000000E+00 0.  1.
         11    1    3    3    0    0 -0.11523652235E+01  0.14351043674E+02 -0.11829254087E+02  0.18633616199E+02  0.51100000000E-03 0. -1.
        -11    1    3    3    0    0  0.83890305957E+01  0.13516801150E+01 -0.22945053331E+02  0.24467904408E+02  0.51100000000E-03 0.  1.
         12    1    3    3    0    0  0.32931233202E+01  0.62738423646E+01  0.22271722926E+01  0.74273855184E+01  0.00000000000E+00 0. -1.
</event>
<event>
 7    1  0.2702714E-011  0.5052887E+02  0.7816164E-02  0.1300439E+00
        -11   -1    0    0    0    0  0.00000000000E+00  0.00000000000E+00  0.45593999997E+02  0.45594000000E+02  0.51100000000E-03 0. -1.
         11   -1    0    0    0    0 -0.00000000000E+00 -0.00000000000E+00 -0.45593999997E+02  0.45594000000E+02  0.51100000000E-03 0.  1.
    9900012    2    1    2    0    0  0.21276315465E+02 -0.21853972971E+02  0.26886564120E+02  0.50528867390E+02  0.30000022919E+02 0.  0.
        -12    1    1    2    0    0 -0.21276315465E+02  0.21853972971E+02 -0.26886564120E+02  0.40659132610E+02  0.00000000000E+00 0.  1.
         11    1    3    3    0    0  0.16191005102E+02 -0.15460929310E+02  0.88769965313E+01  0.24082982560E+02  0.51100000000E-03 0. -1.
        -11    1    3    3    0    0 -0.75749380449E+00 -0.94823245526E+01  0.28851667983E+01  0.99404458401E+01  0.51100000000E-03 0.  1.
         12    1    3    3    0    0  0.58428041683E+01  0.30892808914E+01  0.15124400790E+02  0.16505438990E+02  0.00000000000E+00 0. -1.
</event>
<event>
 7    1  0.2702714E-011  0.5052885E+02  0.7816164E-02  0.1300439E+00
        -11   -1    0    0    0    0  0.00000000000E+00  0.00000000000E+00  0.45593999997E+02  0.45594000000E+02  0.51100000000E-03 0. -1.
         11   -1    0    0    0    0 -0.00000000000E+00 -0.00000000000E+00 -0.45593999997E+02  0.45594000000E+02  0.51100000000E-03 0.  1.
    9900012    2    1    2    0    0 -0.29323828480E+02 -0.13909056005E+02  0.24491169816E+02  0.50528853986E+02  0.29999982176E+02 0.  0.
        -12    1    1    2    0    0  0.29323828480E+02  0.13909056005E+02 -0.24491169816E+02  0.40659146014E+02  0.00000000000E+00 0.  1.
         11    1    3    3    0    0  0.40245285189E+01  0.22901559899E+00  0.11938711650E+01  0.42041178104E+01  0.51100000000E-03 0. -1.
        -11    1    3    3    0    0 -0.23255182029E+02 -0.15591934336E+02  0.22813307523E+02  0.36115909347E+02  0.51100000000E-03 0.  1.
        -12    1    3    3    0    0 -0.10093174970E+02  0.14538627322E+01  0.48399112779E+00  0.10208826829E+02  0.00000000000E+00 0.  1.
</event>
<event>
 7    1  0.2702714E-011  0.5052885E+02  0.7816164E-02  0.1300439E+00
        -11   -1    0    0    0    0  0.00000000000E+00  0.00000000000E+00  0.45593999997E+02  0.45594000000E+02  0.51100000000E-03 0. -1.
         11   -1    0    0    0    0 -0.00000000000E+00 -0.00000000000E+00 -0.45593999997E+02  0.45594000000E+02  0.51100000000E-03 0.  1.
    9900012    2    1    2    0    0  0.29798785355E+02  0.71986529046E+01  0.26709138360E+02  0.50528852392E+02  0.29999977330E+02 0.  0.
        -12    1    1    2    0    0 -0.29798785355E+02 -0.71986529046E+01 -0.26709138360E+02  0.40659147608E+02  0.00000000000E+00 0.  1.
         11    1    3    3    0    0  0.73558366365E+01 -0.20953548286E+01  0.21859898878E+02  0.23159318291E+02  0.51100000000E-03 0. -1.
        -11    1    3    3    0    0  0.98768062873E+01  0.95754315172E+01  0.54238812066E+01  0.14787111915E+02  0.51100000000E-03 0.  1.
        -12    1    3    3    0    0  0.12566142432E+02 -0.28142378394E+00 -0.57464172500E+00  0.12582422186E+02  0.00000000000E+00 0.  1.
</event>
<event>
 7    1  0.2702714E-011  0.5052887E+02  0.7816164E-02  0.1300439E+00
        -11   -1    0    0    0    0  0.00000000000E+00  0.00000000000E+00  0.45593999997E+02  0.45594000000E+02  0.51100000000E-03 0. -1.
         11   -1    0    0    0    0 -0.00000000000E+00 -0.00000000000E+00 -0.45593999997E+02  0.45594000000E+02  0.51100000000E-03 0.  1.
    9900012    2    1    2    0    0  0.18581041026E+01 -0.23997703175E+02 -0.32769233160E+02  0.50528868794E+02  0.30000027186E+02 0.  0.
        -12    1    1    2    0    0 -0.18581041026E+01  0.23997703175E+02  0.32769233160E+02  0.40659131206E+02  0.00000000000E+00 0.  1.
         11    1    3    3    0    0  0.12464740862E+02 -0.89121439949E+01 -0.18891454668E+02  0.24324537715E+02  0.51100000000E-03 0. -1.
        -11    1    3    3    0    0 -0.18425654084E+01 -0.44067624899E+01  0.19821631163E+01  0.51714189356E+01  0.51100000000E-03 0.  1.
        -12    1    3    3    0    0 -0.87640713507E+01 -0.10678796691E+02 -0.15859941608E+02  0.21032912143E+02  0.00000000000E+00 0.  1.
</event>
<event>
 7    1  0.2702714E-011  0.5052887E+02  0.7816164E-02  0.1300439E+00
        -11   -1    0    0    0    0  0.00000000000E+00  0.00000000000E+00  0.45593999997E+02  0.45594000000E+02  0.51100000000E-03 0.  1.
         11   -1    0    0    0    0 -0.00000000000E+00 -0.00000000000E+00 -0.45593999997E+02  0.45594000000E+02  0.51100000000E-03 0. -1.
    9900012    2    1    2    0    0  0.38090222982E+02 -0.10740207780E+02 -0.93245870126E+01  0.50528867288E+02  0.30000022609E+02 0.  0.
        -12    1    1    2    0    0 -0.38090222982E+02  0.10740207780E+02  0.93245870126E+01  0.40659132712E+02  0.00000000000E+00 0.  1.
         11    1    3    3    0    0  0.32346545366E+02 -0.35616742576E+01 -0.72394484778E+01  0.33337578423E+02  0.51100000000E-03 0. -1.
        -11    1    3    3    0    0  0.12269254080E+01  0.39286118642E+01 -0.31078778000E+01  0.51573483320E+01  0.51100000000E-03 0.  1.
        -12    1    3    3    0    0  0.45167522081E+01 -0.11107145386E+02  0.10227392652E+01  0.12033940533E+02  0.00000000000E+00 0.  1.
</event>
<event>
 7    1  0.2702714E-011  0.5052885E+02  0.7816164E-02  0.1300439E+00
        -11   -1    0    0    0    0  0.00000000000E+00  0.00000000000E+00  0.45593999997E+02  0.45594000000E+02  0.51100000000E-03 0.  1.
         11   -1    0    0    0    0 -0.00000000000E+00 -0.00000000000E+00 -0.45593999997E+02  0.45594000000E+02  0.51100000000E-03 0. -1.
    9900012    2    1    2    0    0  0.27617099810E+02 -0.26978817999E+02 -0.12751679093E+02  0.50528854138E+02  0.29999982639E+02 0.  0.
        -12    1    1    2    0    0 -0.27617099810E+02  0.26978817999E+02  0.12751679093E+02  0.40659145862E+02  0.00000000000E+00 0.  1.
         11    1    3    3    0    0  0.73115024974E+01 -0.10705667533E+02 -0.29185918993E+01  0.13288625400E+02  0.51100000000E-03 0. -1.
        -11    1    3    3    0    0 -0.25975187748E+01 -0.12232862947E+02 -0.51065996037E+01  0.13508049431E+02  0.51100000000E-03 0.  1.
        -12    1    3    3    0    0  0.22903116087E+02 -0.40402875193E+01 -0.47264875903E+01  0.23732179307E+02  0.00000000000E+00 0.  1.
</event>
<event>
 7    1  0.2702714E-011  0.5052886E+02  0.7816164E-02  0.1300439E+00
        -11   -1    0    0    0    0  0.00000000000E+00  0.00000000000E+00  0.45593999997E+02  0.45594000000E+02  0.51100000000E-03 0.  1.
         11   -1    0    0    0    0 -0.00000000000E+00 -0.00000000000E+00 -0.45593999997E+02  0.45594000000E+02  0.51100000000E-03 0. -1.
    9900012    2    1    2    0    0 -0.27548833445E+02  0.27770367193E+02 -0.11092083344E+02  0.50528857964E+02  0.29999994268E+02 0.  0.
        -12    1    1    2    0    0  0.27548833445E+02 -0.27770367193E+02  0.11092083344E+02  0.40659142036E+02  0.00000000000E+00 0.  1.
         11    1    3    3    0    0 -0.33054548575E+01  0.74133158691E+00 -0.28216198508E+01  0.44087575551E+01  0.51100000000E-03 0. -1.
        -11    1    3    3    0    0 -0.10175027129E+02  0.98204231001E+01  0.10022889403E+02  0.17332922407E+02  0.51100000000E-03 0.  1.
        -12    1    3    3    0    0 -0.14068351458E+02  0.17208612506E+02 -0.18293352896E+02  0.28787178002E+02  0.00000000000E+00 0.  1.
</event>
<event>
 7    1  0.2702714E-011  0.5052887E+02  0.7816164E-02  0.1300439E+00
        -11   -1    0    0    0    0  0.00000000000E+00  0.00000000000E+00  0.45593999997E+02  0.45594000000E+02  0.51100000000E-03 0.  1.
         11   -1    0    0    0    0 -0.00000000000E+00 -0.00000000000E+00 -0.45593999997E+02  0.45594000000E+02  0.51100000000E-03 0. -1.
    9900012    2    1    2    0    0  0.18999354267E+02  0.26652332281E+01 -0.35848099394E+02  0.50528866206E+02  0.30000019321E+02 0.  0.
        -12    1    1    2    0    0 -0.18999354267E+02 -0.26652332281E+01  0.35848099394E+02  0.40659133794E+02  0.00000000000E+00 0.  1.
         11    1    3    3    0    0 -0.40297198489E+01  0.11585273475E+01 -0.19774893587E+02  0.20214530524E+02  0.51100000000E-03 0.  1.
        -11    1    3    3    0    0  0.13226172945E+02 -0.10675519519E+01 -0.15146593402E+02  0.20136797409E+02  0.51100000000E-03 0. -1.
        -12    1    3    3    0    0  0.98029011705E+01  0.25742578326E+01 -0.92661240430E+00  0.10177538273E+02  0.00000000000E+00 0.  1.
</event>
<event>
 7    1  0.2702714E-011  0.5052887E+02  0.7816164E-02  0.1300439E+00
        -11   -1    0    0    0    0  0.00000000000E+00  0.00000000000E+00  0.45593999997E+02  0.45594000000E+02  0.51100000000E-03 0. -1.
         11   -1    0    0    0    0 -0.00000000000E+00 -0.00000000000E+00 -0.45593999997E+02  0.45594000000E+02  0.51100000000E-03 0.  1.
    9900012    2    1    2    0    0 -0.36561970814E+02  0.15843592308E+02 -0.80850464859E+01  0.50528866909E+02  0.30000021457E+02 0.  0.
        -12    1    1    2    0    0  0.36561970814E+02 -0.15843592308E+02  0.80850464859E+01  0.40659133091E+02  0.00000000000E+00 0.  1.
         11    1    3    3    0    0 -0.11669242118E+02  0.70905761962E+01  0.43700913926E+01  0.14336846984E+02  0.51100000000E-03 0. -1.
        -11    1    3    3    0    0 -0.28330585036E+02  0.10011786974E+02 -0.12466128244E+02  0.32530943432E+02  0.51100000000E-03 0.  1.
         12    1    3    3    0    0  0.34378563403E+01 -0.12587708630E+01  0.10990365559E-01  0.36610764933E+01  0.00000000000E+00 0. -1.
</event>
<event>
 7    1  0.2702714E-011  0.5052887E+02  0.7816164E-02  0.1300439E+00
        -11   -1    0    0    0    0  0.00000000000E+00  0.00000000000E+00  0.45593999997E+02  0.45594000000E+02  0.51100000000E-03 0.  1.
         11   -1    0    0    0    0 -0.00000000000E+00 -0.00000000000E+00 -0.45593999997E+02  0.45594000000E+02  0.51100000000E-03 0. -1.
    9900012    2    1    2    0    0  0.40477930468E+02  0.13587406849E+01 -0.35854843864E+01  0.50528871510E+02  0.30000035443E+02 0.  0.
        -12    1    1    2    0    0 -0.40477930468E+02 -0.13587406849E+01  0.35854843864E+01  0.40659128490E+02  0.00000000000E+00 0.  1.
         11    1    3    3    0    0  0.32159391859E+01  0.41625957189E+01  0.59630724024E+01  0.79515847920E+01  0.51100000000E-03 0.  1.
        -11    1    3    3    0    0  0.13952095260E+02  0.75353128822E+01 -0.19941265975E+01  0.15981816027E+02  0.51100000000E-03 0. -1.
         12    1    3    3    0    0  0.23309896022E+02 -0.10339167916E+02 -0.75544301914E+01  0.26595470691E+02  0.00000000000E+00 0. -1.
</event>
<event>
 7    1  0.2702714E-011  0.5052882E+02  0.7816164E-02  0.1300439E+00
        -11   -1    0    0    0    0  0.00000000000E+00  0.00000000000E+00  0.45593999997E+02  0.45594000000E+02  0.51100000000E-03 0.  1.
         11   -1    0    0    0    0 -0.00000000000E+00 -0.00000000000E+00 -0.45593999997E+02  0.45594000000E+02  0.51100000000E-03 0. -1.
    9900012    2    1    2    0    0 -0.39128996291E+02  0.10574806536E+02 -0.32037184061E+01  0.50528822738E+02  0.29999887195E+02 0.  0.
        -12    1    1    2    0    0  0.39128996291E+02 -0.10574806536E+02  0.32037184061E+01  0.40659177262E+02  0.00000000000E+00 0.  1.
         11    1    3    3    0    0 -0.26978853470E+01  0.34814529341E+01 -0.41398551318E+01  0.60446257660E+01  0.51100000000E-03 0. -1.
        -11    1    3    3    0    0  0.16809420288E+01 -0.30003983403E+01  0.35867266884E+01  0.49691613883E+01  0.51100000000E-03 0.  1.
         12    1    3    3    0    0 -0.38112052972E+02  0.10093751942E+02 -0.26505899627E+01  0.39515035584E+02  0.00000000000E+00 0. -1.
</event>
<event>
 7    1  0.2702714E-011  0.5052887E+02  0.7816164E-02  0.1300439E+00
        -11   -1    0    0    0    0  0.00000000000E+00  0.00000000000E+00  0.45593999997E+02  0.45594000000E+02  0.51100000000E-03 0.  1.
         11   -1    0    0    0    0 -0.00000000000E+00 -0.00000000000E+00 -0.45593999997E+02  0.45594000000E+02  0.51100000000E-03 0. -1.
    9900012    2    1    2    0    0  0.36181607721E+02 -0.14107913409E+02 -0.12042549365E+02  0.50528868760E+02  0.30000027082E+02 0.  0.
        -12    1    1    2    0    0 -0.36181607721E+02  0.14107913409E+02  0.12042549365E+02  0.40659131240E+02  0.00000000000E+00 0.  1.
         11    1    3    3    0    0  0.29440198532E+02 -0.14004831374E+02 -0.10021883232E+02  0.34107165452E+02  0.51100000000E-03 0. -1.
        -11    1    3    3    0    0  0.70369267790E+01  0.31532793532E+00  0.54669564299E+01  0.89165791124E+01  0.51100000000E-03 0.  1.
         12    1    3    3    0    0 -0.29551759026E+00 -0.41840997074E+00 -0.74876225625E+01  0.75051241954E+01  0.00000000000E+00 0. -1.
</event>
<event>
 7    1  0.2702714E-011  0.5052886E+02  0.7816164E-02  0.1300439E+00
        -11   -1    0    0    0    0  0.00000000000E+00  0.00000000000E+00  0.45593999997E+02  0.45594000000E+02  0.51100000000E-03 0. -1.
         11   -1    0    0    0    0 -0.00000000000E+00 -0.00000000000E+00 -0.45593999997E+02  0.45594000000E+02  0.51100000000E-03 0.  1.
    9900012    2    1    2    0    0  0.27362159248E+02  0.23127700590E+02  0.19224650408E+02  0.50528862323E+02  0.30000007518E+02 0.  0.
        -12    1    1    2    0    0 -0.27362159248E+02 -0.23127700590E+02 -0.19224650408E+02  0.40659137677E+02  0.00000000000E+00 0.  1.
         11    1    3    3    0    0  0.19649850354E+02  0.13312404458E+02  0.74541784245E+01  0.24877731159E+02  0.51100000000E-03 0. -1.
        -11    1    3    3    0    0  0.11697594426E+02  0.11383951683E+02  0.40425889986E+01  0.16815784173E+02  0.51100000000E-03 0.  1.
        -12    1    3    3    0    0 -0.39852855329E+01 -0.15686555507E+01  0.77278829854E+01  0.88353469910E+01  0.00000000000E+00 0.  1.
</event>
<event>
 7    1  0.2702714E-011  0.5052883E+02  0.7816164E-02  0.1300439E+00
        -11   -1    0    0    0    0  0.00000000000E+00  0.00000000000E+00  0.45593999997E+02  0.45594000000E+02  0.51100000000E-03 0.  1.
         11   -1    0    0    0    0 -0.00000000000E+00 -0.00000000000E+00 -0.45593999997E+02  0.45594000000E+02  0.51100000000E-03 0. -1.
    9900012    2    1    2    0    0  0.80773523630E+00  0.39578448275E+02 -0.92769463111E+01  0.50528834528E+02  0.29999923030E+02 0.  0.
        -12    1    1    2    0    0 -0.80773523630E+00 -0.39578448275E+02  0.92769463111E+01  0.40659165472E+02  0.00000000000E+00 0.  1.
         11    1    3    3    0    0  0.14102876978E+01  0.50668348732E+01 -0.34466300936E+01  0.62881623935E+01  0.51100000000E-03 0. -1.
        -11    1    3    3    0    0 -0.10151589516E+02  0.42458788045E+01  0.27948044392E+01  0.11353113610E+02  0.51100000000E-03 0.  1.
        -12    1    3    3    0    0  0.95490370543E+01  0.30265734597E+02 -0.86251206567E+01  0.32887558525E+02  0.00000000000E+00 0.  1.
</event>
<event>
 7    1  0.2702714E-011  0.5052886E+02  0.7816164E-02  0.1300439E+00
        -11   -1    0    0    0    0  0.00000000000E+00  0.00000000000E+00  0.45593999997E+02  0.45594000000E+02  0.51100000000E-03 0. -1.
         11   -1    0    0    0    0 -0.00000000000E+00 -0.00000000000E+00 -0.45593999997E+02  0.45594000000E+02  0.51100000000E-03 0.  1.
    9900012    2    1    2    0    0  0.15628107811E+02  0.26074623761E+02  0.27000779155E+02  0.50528857940E+02  0.29999994196E+02 0.  0.
        -12    1    1    2    0    0 -0.15628107811E+02 -0.26074623761E+02 -0.27000779155E+02  0.40659142060E+02  0.00000000000E+00 0.  1.
         11    1    3    3    0    0  0.57892054032E+01  0.58216090682E+01  0.14017607743E+02  0.16244979484E+02  0.51100000000E-03 0. -1.
        -11    1    3    3    0    0  0.43426860940E+01  0.24014340158E+02  0.12943068759E+02  0.27623730467E+02  0.51100000000E-03 0.  1.
        -12    1    3    3    0    0  0.54962163134E+01 -0.37613254649E+01  0.40102653083E-01  0.66601479893E+01  0.00000000000E+00 0.  1.
</event>
<event>
 7    1  0.2702714E-011  0.5052887E+02  0.7816164E-02  0.1300439E+00
        -11   -1    0    0    0    0  0.00000000000E+00  0.00000000000E+00  0.45593999997E+02  0.45594000000E+02  0.51100000000E-03 0.  1.
         11   -1    0    0    0    0 -0.00000000000E+00 -0.00000000000E+00 -0.45593999997E+02  0.45594000000E+02  0.51100000000E-03 0. -1.
    9900012    2    1    2    0    0  0.39003579694E+02 -0.17136051240E+01 -0.11355574393E+02  0.50528871366E+02  0.30000035005E+02 0.  0.
        -12    1    1    2    0    0 -0.39003579694E+02  0.17136051240E+01  0.11355574393E+02  0.40659128634E+02  0.00000000000E+00 0.  1.
         11    1    3    3    0    0  0.65293134459E+01  0.62865210239E+01  0.12546462049E+01  0.91502140969E+01  0.51100000000E-03 0. -1.
        -11    1    3    3    0    0  0.10587509674E+02  0.15766717600E+00 -0.14488754783E+02  0.17945590976E+02  0.51100000000E-03 0.  1.
        -12    1    3    3    0    0  0.21886756574E+02 -0.81577933239E+01  0.18785341853E+01  0.23433066294E+02  0.00000000000E+00 0.  1.
</event>
<event>
 7    1  0.2702714E-011  0.5052886E+02  0.7816164E-02  0.1300439E+00
        -11   -1    0    0    0    0  0.00000000000E+00  0.00000000000E+00  0.45593999997E+02  0.45594000000E+02  0.51100000000E-03 0. -1.
         11   -1    0    0    0    0 -0.00000000000E+00 -0.00000000000E+00 -0.45593999997E+02  0.45594000000E+02  0.51100000000E-03 0.  1.
    9900012    2    1    2    0    0 -0.25720073613E+02 -0.23636846092E+02 -0.20807279490E+02  0.50528861302E+02  0.30000004415E+02 0.  0.
        -12    1    1    2    0    0  0.25720073613E+02  0.23636846092E+02  0.20807279490E+02  0.40659138698E+02  0.00000000000E+00 0.  1.
         11    1    3    3    0    0  0.68751687923E+00 -0.35752132186E+01 -0.65536990064E+01  0.74970527506E+01  0.51100000000E-03 0. -1.
        -11    1    3    3    0    0 -0.18137786154E+02 -0.49978229796E+01 -0.17324205054E+02  0.25575097304E+02  0.51100000000E-03 0.  1.
         12    1    3    3    0    0 -0.82698043386E+01 -0.15063809894E+02  0.30706245707E+01  0.17456711248E+02  0.00000000000E+00 0. -1.
</event>
<event>
 7    1  0.2702714E-011  0.5052886E+02  0.7816164E-02  0.1300439E+00
        -11   -1    0    0    0    0  0.00000000000E+00  0.00000000000E+00  0.45593999997E+02  0.45594000000E+02  0.51100000000E-03 0.  1.
         11   -1    0    0    0    0 -0.00000000000E+00 -0.00000000000E+00 -0.45593999997E+02  0.45594000000E+02  0.51100000000E-03 0. -1.
    9900012    2    1    2    0    0 -0.20073649414E+02 -0.15382752460E+02 -0.31836851314E+02  0.50528861105E+02  0.30000003816E+02 0.  0.
        -12    1    1    2    0    0  0.20073649414E+02  0.15382752460E+02  0.31836851314E+02  0.40659138895E+02  0.00000000000E+00 0.  1.
         11    1    3    3    0    0 -0.15616172630E+01 -0.12039551414E+02 -0.47677750686E+01  0.13043048957E+02  0.51100000000E-03 0. -1.
        -11    1    3    3    0    0 -0.68822690166E+01 -0.40788059928E+00 -0.24186352212E+02  0.25149783835E+02  0.51100000000E-03 0.  1.
         12    1    3    3    0    0 -0.11629763134E+02 -0.29353204472E+01 -0.28827240344E+01  0.12336028313E+02  0.00000000000E+00 0. -1.
</event>
<event>
 7    1  0.2702714E-011  0.5052886E+02  0.7816164E-02  0.1300439E+00
        -11   -1    0    0    0    0  0.00000000000E+00  0.00000000000E+00  0.45593999997E+02  0.45594000000E+02  0.51100000000E-03 0. -1.
         11   -1    0    0    0    0 -0.00000000000E+00 -0.00000000000E+00 -0.45593999997E+02  0.45594000000E+02  0.51100000000E-03 0.  1.
    9900012    2    1    2    0    0  0.18068909701E+02 -0.31462032322E+02  0.18352683534E+02  0.50528856275E+02  0.29999989133E+02 0.  0.
        -12    1    1    2    0    0 -0.18068909701E+02  0.31462032322E+02 -0.18352683534E+02  0.40659143725E+02  0.00000000000E+00 0.  1.
         11    1    3    3    0    0  0.95652609284E+01 -0.20861445823E+02  0.16972702857E+02  0.28544119902E+02  0.51100000000E-03 0. -1.
        -11    1    3    3    0    0 -0.49684877944E+01 -0.11299971526E+01 -0.13992441993E+01  0.52839993488E+01  0.51100000000E-03 0.  1.
         12    1    3    3    0    0  0.13472136567E+02 -0.94705893464E+01  0.27792248764E+01  0.16700737024E+02  0.00000000000E+00 0. -1.
</event>
<event>
 7    1  0.2702714E-011  0.5052884E+02  0.7816164E-02  0.1300439E+00
        -11   -1    0    0    0    0  0.00000000000E+00  0.00000000000E+00  0.45593999997E+02  0.45594000000E+02  0.51100000000E-03 0. -1.
         11   -1    0    0    0    0 -0.00000000000E+00 -0.00000000000E+00 -0.45593999997E+02  0.45594000000E+02  0.51100000000E-03 0.  1.
    9900012    2    1    2    0    0 -0.16526746869E+02  0.23027394956E+02  0.29150860430E+02  0.50528844274E+02  0.29999952655E+02 0.  0.
        -12    1    1    2    0    0  0.16526746869E+02 -0.23027394956E+02 -0.29150860430E+02  0.40659155726E+02  0.00000000000E+00 0.  1.
         11    1    3    3    0    0 -0.11518587606E+02 -0.96849666499E+00  0.32150303760E+01  0.11998010952E+02  0.51100000000E-03 0. -1.
        -11    1    3    3    0    0 -0.17418367375E+01  0.13242257910E+02  0.40982783635E+01  0.13970943976E+02  0.51100000000E-03 0.  1.
         12    1    3    3    0    0 -0.32663225259E+01  0.10753633711E+02  0.21837551690E+02  0.24559889346E+02  0.00000000000E+00 0. -1.
</event>
<event>
 7    1  0.2702714E-011  0.5052886E+02  0.7816164E-02  0.1300439E+00
        -11   -1    0    0    0    0  0.00000000000E+00  0.00000000000E+00  0.45593999997E+02  0.45594000000E+02  0.51100000000E-03 0.  1.
         11   -1    0    0    0    0 -0.00000000000E+00 -0.00000000000E+00 -0.45593999997E+02  0.45594000000E+02  0.51100000000E-03 0. -1.
    9900012    2    1    2    0    0 -0.68425082824E+01  0.14098452354E+02 -0.37517717781E+02  0.50528862947E+02  0.30000009414E+02 0.  0.
        -12    1    1    2    0    0  0.68425082824E+01 -0.14098452354E+02  0.37517717781E+02  0.40659137053E+02  0.00000000000E+00 0.  1.
         11    1    3    3    0    0 -0.11606641363E+02  0.55190914099E+01 -0.11032670443E+02  0.16937954749E+02  0.51100000000E-03 0. -1.
        -11    1    3    3    0    0 -0.82103770316E+00  0.14863599385E+01  0.26175960416E+01  0.31201246890E+01  0.51100000000E-03 0.  1.
         12    1    3    3    0    0  0.55851707838E+01  0.70930010052E+01 -0.29102643380E+02  0.30470783509E+02  0.00000000000E+00 0. -1.
</event>
<event>
 7    1  0.2702714E-011  0.5052886E+02  0.7816164E-02  0.1300439E+00
        -11   -1    0    0    0    0  0.00000000000E+00  0.00000000000E+00  0.45593999997E+02  0.45594000000E+02  0.51100000000E-03 0.  1.
         11   -1    0    0    0    0 -0.00000000000E+00 -0.00000000000E+00 -0.45593999997E+02  0.45594000000E+02  0.51100000000E-03 0. -1.
    9900012    2    1    2    0    0 -0.11934678786E+02  0.14389014823E+01 -0.38841456936E+02  0.50528858690E+02  0.29999996473E+02 0.  0.
        -12    1    1    2    0    0  0.11934678786E+02 -0.14389014823E+01  0.38841456936E+02  0.40659141310E+02  0.00000000000E+00 0.  1.
         11    1    3    3    0    0 -0.11151822761E+01 -0.67168875220E+01 -0.15432650897E+02  0.16867925879E+02  0.51100000000E-03 0. -1.
        -11    1    3    3    0    0 -0.52254021865E+01  0.47674797883E+01  0.20587790849E+01  0.73669710956E+01  0.51100000000E-03 0.  1.
         12    1    3    3    0    0 -0.55940943236E+01  0.33883092160E+01 -0.25467585124E+02  0.26293961715E+02  0.00000000000E+00 0. -1.
</event>
<event>
 7    1  0.2702714E-011  0.5052887E+02  0.7816164E-02  0.1300439E+00
        -11   -1    0    0    0    0  0.00000000000E+00  0.00000000000E+00  0.45593999997E+02  0.45594000000E+02  0.51100000000E-03 0. -1.
         11   -1    0    0    0    0 -0.00000000000E+00 -0.00000000000E+00 -0.45593999997E+02  0.45594000000E+02  0.51100000000E-03 0.  1.
    9900012    2    1    2    0    0 -0.13694569544E+02 -0.31733459775E+02  0.21415204961E+02  0.50528871778E+02  0.30000036256E+02 0.  0.
        -12    1    1    2    0    0  0.13694569544E+02  0.31733459775E+02 -0.21415204961E+02  0.40659128222E+02  0.00000000000E+00 0.  1.
         11    1    3    3    0    0 -0.19099918343E+00 -0.40414249395E+00  0.83933413172E+01  0.84052359022E+01  0.51100000000E-03 0.  1.
        -11    1    3    3    0    0 -0.86473074194E+01 -0.68587773158E+01  0.13159747295E+02  0.17175497111E+02  0.51100000000E-03 0. -1.
        -12    1    3    3    0    0 -0.48562629415E+01 -0.24470539965E+02 -0.13788365175E+00  0.24948138765E+02  0.00000000000E+00 0.  1.
</event>
<event>
 7    1  0.2702714E-011  0.5052884E+02  0.7816164E-02  0.1300439E+00
        -11   -1    0    0    0    0  0.00000000000E+00  0.00000000000E+00  0.45593999997E+02  0.45594000000E+02  0.51100000000E-03 0. -1.
         11   -1    0    0    0    0 -0.00000000000E+00 -0.00000000000E+00 -0.45593999997E+02  0.45594000000E+02  0.51100000000E-03 0.  1.
    9900012    2    1    2    0    0  0.29080992425E+02 -0.10180596638E+02  0.26529582927E+02  0.50528838196E+02  0.29999934180E+02 0.  0.
        -12    1    1    2    0    0 -0.29080992425E+02  0.10180596638E+02 -0.26529582927E+02  0.40659161804E+02  0.00000000000E+00 0.  1.
         11    1    3    3    0    0  0.14116339402E+02  0.73648644623E-01  0.19744082086E+02  0.24271490270E+02  0.51100000000E-03 0. -1.
        -11    1    3    3    0    0  0.17868323080E+02 -0.39825825655E+01  0.36453093712E+01  0.18666178351E+02  0.51100000000E-03 0.  1.
         12    1    3    3    0    0 -0.29036700574E+01 -0.62716627171E+01  0.31401914695E+01  0.75911695742E+01  0.00000000000E+00 0. -1.
</event>
<event>
 7    1  0.2702714E-011  0.5052886E+02  0.7816164E-02  0.1300439E+00
        -11   -1    0    0    0    0  0.00000000000E+00  0.00000000000E+00  0.45593999997E+02  0.45594000000E+02  0.51100000000E-03 0.  1.
         11   -1    0    0    0    0 -0.00000000000E+00 -0.00000000000E+00 -0.45593999997E+02  0.45594000000E+02  0.51100000000E-03 0. -1.
    9900012    2    1    2    0    0  0.35565498209E+02  0.96163649549E+01 -0.17198454025E+02  0.50528856396E+02  0.29999989500E+02 0.  0.
        -12    1    1    2    0    0 -0.35565498209E+02 -0.96163649549E+01  0.17198454025E+02  0.40659143604E+02  0.00000000000E+00 0.  1.
         11    1    3    3    0    0  0.29282555225E+01 -0.27049665992E+01 -0.28933252037E+01  0.49257340269E+01  0.51100000000E-03 0. -1.
        -11    1    3    3    0    0  0.89040033442E+01  0.12028606676E+02 -0.15873933682E+02  0.21816288065E+02  0.51100000000E-03 0.  1.
         12    1    3    3    0    0  0.23733239342E+02  0.29272487836E+00  0.15688048606E+01  0.23786834304E+02  0.00000000000E+00 0. -1.
</event>
<event>
 7    1  0.2702714E-011  0.5052885E+02  0.7816164E-02  0.1300439E+00
        -11   -1    0    0    0    0  0.00000000000E+00  0.00000000000E+00  0.45593999997E+02  0.45594000000E+02  0.51100000000E-03 0. -1.
         11   -1    0    0    0    0 -0.00000000000E+00 -0.00000000000E+00 -0.45593999997E+02  0.45594000000E+02  0.51100000000E-03 0.  1.
    9900012    2    1    2    0    0 -0.15767482624E+01 -0.32499419933E+02  0.24381709849E+02  0.50528853351E+02  0.29999980247E+02 0.  0.
        -12    1    1    2    0    0  0.15767482624E+01  0.32499419933E+02 -0.24381709849E+02  0.40659146649E+02  0.00000000000E+00 0.  1.
         11    1    3    3    0    0  0.76480288022E+01 -0.65283975666E+01  0.55691653284E+01  0.11494691038E+02  0.51100000000E-03 0. -1.
        -11    1    3    3    0    0 -0.56400781671E-02 -0.98980906347E+01  0.17933978113E+02  0.20484135355E+02  0.51100000000E-03 0.  1.
         12    1    3    3    0    0 -0.92191369864E+01 -0.16072931731E+02  0.87856640749E+00  0.18550026958E+02  0.00000000000E+00 0. -1.
</event>
<event>
 7    1  0.2702714E-011  0.5052894E+02  0.7816164E-02  0.1300438E+00
        -11   -1    0    0    0    0  0.00000000000E+00  0.00000000000E+00  0.45593999997E+02  0.45594000000E+02  0.51100000000E-03 0.  1.
         11   -1    0    0    0    0 -0.00000000000E+00 -0.00000000000E+00 -0.45593999997E+02  0.45594000000E+02  0.51100000000E-03 0. -1.
    9900012    2    1    2    0    0 -0.27614691103E+02  0.33252972388E+01 -0.29656872539E+02  0.50528943749E+02  0.30000255019E+02 0.  0.
        -12    1    1    2    0    0  0.27614691103E+02 -0.33252972388E+01  0.29656872539E+02  0.40659056251E+02  0.00000000000E+00 0.  1.
         11    1    3    3    0    0 -0.14133037252E+02  0.13005853375E+02 -0.16529069897E+02  0.25339793131E+02  0.51100000000E-03 0. -1.
        -11    1    3    3    0    0 -0.11766247273E+02 -0.45431944056E+01 -0.14870826824E+02  0.19499402067E+02  0.51100000000E-03 0.  1.
        -12    1    3    3    0    0 -0.17154065781E+01 -0.51373617304E+01  0.17430241823E+01  0.56897485513E+01  0.00000000000E+00 0.  1.
</event>
<event>
 7    1  0.2702714E-011  0.5052888E+02  0.7816164E-02  0.1300439E+00
        -11   -1    0    0    0    0  0.00000000000E+00  0.00000000000E+00  0.45593999997E+02  0.45594000000E+02  0.51100000000E-03 0.  1.
         11   -1    0    0    0    0 -0.00000000000E+00 -0.00000000000E+00 -0.45593999997E+02  0.45594000000E+02  0.51100000000E-03 0. -1.
    9900012    2    1    2    0    0 -0.29136495220E+02 -0.82129224226E+01 -0.27143635296E+02  0.50528875741E+02  0.30000048302E+02 0.  0.
        -12    1    1    2    0    0  0.29136495220E+02  0.82129224226E+01  0.27143635296E+02  0.40659124259E+02  0.00000000000E+00 0.  1.
         11    1    3    3    0    0 -0.98090191452E+01 -0.72816823537E+00 -0.15492240172E+02  0.18350928897E+02  0.51100000000E-03 0. -1.
        -11    1    3    3    0    0 -0.99411490864E+01  0.63417368569E+01 -0.98596505360E+01  0.15370646716E+02  0.51100000000E-03 0.  1.
        -12    1    3    3    0    0 -0.93863269881E+01 -0.13826491044E+02 -0.17917445883E+01  0.16807300128E+02  0.00000000000E+00 0.  1.
</event>
<event>
 7    1  0.2702714E-011  0.5052886E+02  0.7816164E-02  0.1300439E+00
        -11   -1    0    0    0    0  0.00000000000E+00  0.00000000000E+00  0.45593999997E+02  0.45594000000E+02  0.51100000000E-03 0.  1.
         11   -1    0    0    0    0 -0.00000000000E+00 -0.00000000000E+00 -0.45593999997E+02  0.45594000000E+02  0.51100000000E-03 0. -1.
    9900012    2    1    2    0    0  0.15310587941E+02  0.36969392164E+02 -0.72121827769E+01  0.50528860308E+02  0.30000001393E+02 0.  0.
        -12    1    1    2    0    0 -0.15310587941E+02 -0.36969392164E+02  0.72121827769E+01  0.40659139692E+02  0.00000000000E+00 0.  1.
         11    1    3    3    0    0  0.13281811020E+02  0.15948172469E+02 -0.11333614113E+02  0.23647442107E+02  0.51100000000E-03 0. -1.
        -11    1    3    3    0    0  0.83254485954E+01  0.17426315621E+02  0.29756352607E+01  0.19540828434E+02  0.51100000000E-03 0.  1.
        -12    1    3    3    0    0 -0.62966716745E+01  0.35949040735E+01  0.11457960755E+01  0.73405897666E+01  0.00000000000E+00 0.  1.
</event>
<event>
 7    1  0.2702714E-011  0.5052887E+02  0.7816164E-02  0.1300439E+00
        -11   -1    0    0    0    0  0.00000000000E+00  0.00000000000E+00  0.45593999997E+02  0.45594000000E+02  0.51100000000E-03 0.  1.
         11   -1    0    0    0    0 -0.00000000000E+00 -0.00000000000E+00 -0.45593999997E+02  0.45594000000E+02  0.51100000000E-03 0. -1.
    9900012    2    1    2    0    0 -0.38441641468E+02 -0.12768371417E+02  0.35176654450E+01  0.50528867230E+02  0.30000022433E+02 0.  0.
        -12    1    1    2    0    0  0.38441641468E+02  0.12768371417E+02 -0.35176654450E+01  0.40659132770E+02  0.00000000000E+00 0.  1.
         11    1    3    3    0    0 -0.19650680555E+02 -0.93601036313E+01 -0.66387831561E+01  0.22755971268E+02  0.51100000000E-03 0. -1.
        -11    1    3    3    0    0 -0.14214257217E+02 -0.10244277026E+02  0.57502702319E+01  0.18440605414E+02  0.51100000000E-03 0.  1.
        -12    1    3    3    0    0 -0.45767036956E+01  0.68360092412E+01  0.44061783692E+01  0.93322905486E+01  0.00000000000E+00 0.  1.
</event>
<event>
 7    1  0.2702714E-011  0.5052886E+02  0.7816164E-02  0.1300439E+00
        -11   -1    0    0    0    0  0.00000000000E+00  0.00000000000E+00  0.45593999997E+02  0.45594000000E+02  0.51100000000E-03 0. -1.
         11   -1    0    0    0    0 -0.00000000000E+00 -0.00000000000E+00 -0.45593999997E+02  0.45594000000E+02  0.51100000000E-03 0.  1.
    9900012    2    1    2    0    0 -0.10648758508E+02  0.35769054962E+02  0.16135179429E+02  0.50528863686E+02  0.30000011659E+02 0.  0.
        -12    1    1    2    0    0  0.10648758508E+02 -0.35769054962E+02 -0.16135179429E+02  0.40659136314E+02  0.00000000000E+00 0.  1.
         11    1    3    3    0    0  0.72873450938E+01  0.12728202320E+02  0.87079944079E+01  0.17057013211E+02  0.51100000000E-03 0. -1.
        -11    1    3    3    0    0 -0.11992699516E+02  0.23132002583E+02  0.85494033537E+01  0.27422740256E+02  0.51100000000E-03 0.  1.
        -12    1    3    3    0    0 -0.59434040863E+01 -0.91149941630E-01 -0.11222183329E+01  0.60491102181E+01  0.00000000000E+00 0.  1.
</event>
<event>
 7    1  0.2702714E-011  0.5052887E+02  0.7816164E-02  0.1300439E+00
        -11   -1    0    0    0    0  0.00000000000E+00  0.00000000000E+00  0.45593999997E+02  0.45594000000E+02  0.51100000000E-03 0.  1.
         11   -1    0    0    0    0 -0.00000000000E+00 -0.00000000000E+00 -0.45593999997E+02  0.45594000000E+02  0.51100000000E-03 0. -1.
    9900012    2    1    2    0    0  0.10691916020E+02 -0.10705006551E+02 -0.37739247541E+02  0.50528867712E+02  0.30000023897E+02 0.  0.
        -12    1    1    2    0    0 -0.10691916020E+02  0.10705006551E+02  0.37739247541E+02  0.40659132288E+02  0.00000000000E+00 0.  1.
         11    1    3    3    0    0  0.42857054433E+01  0.39967565081E+00 -0.23864229950E+02  0.24249298611E+02  0.51100000000E-03 0. -1.
        -11    1    3    3    0    0  0.91066257403E+01 -0.13083683127E+02 -0.15777684186E+02  0.22428747515E+02  0.51100000000E-03 0.  1.
         12    1    3    3    0    0 -0.27004151635E+01  0.19790009246E+01  0.19026665950E+01  0.38508215859E+01  0.00000000000E+00 0. -1.
</event>
<event>
 7    1  0.2702714E-011  0.5052886E+02  0.7816164E-02  0.1300439E+00
        -11   -1    0    0    0    0  0.00000000000E+00  0.00000000000E+00  0.45593999997E+02  0.45594000000E+02  0.51100000000E-03 0.  1.
         11   -1    0    0    0    0 -0.00000000000E+00 -0.00000000000E+00 -0.45593999997E+02  0.45594000000E+02  0.51100000000E-03 0. -1.
    9900012    2    1    2    0    0  0.40438696204E+02  0.37727838755E+01 -0.19088542116E+01  0.50528858675E+02  0.29999996429E+02 0.  0.
        -12    1    1    2    0    0 -0.40438696204E+02 -0.37727838755E+01  0.19088542116E+01  0.40659141325E+02  0.00000000000E+00 0.  1.
         11    1    3    3    0    0  0.49523261906E+01 -0.48221878875E+01 -0.20057039154E+00  0.69151471035E+01  0.51100000000E-03 0.  1.
        -11    1    3    3    0    0  0.15308433229E+02  0.11528446531E+01 -0.12270863094E+02  0.19653276064E+02  0.51100000000E-03 0. -1.
        -12    1    3    3    0    0  0.20177936784E+02  0.74421271098E+01  0.10562579274E+02  0.23960435507E+02  0.00000000000E+00 0.  1.
</event>
<event>
 7    1  0.2702714E-011  0.5052886E+02  0.7816164E-02  0.1300439E+00
        -11   -1    0    0    0    0  0.00000000000E+00  0.00000000000E+00  0.45593999997E+02  0.45594000000E+02  0.51100000000E-03 0.  1.
         11   -1    0    0    0    0 -0.00000000000E+00 -0.00000000000E+00 -0.45593999997E+02  0.45594000000E+02  0.51100000000E-03 0. -1.
    9900012    2    1    2    0    0 -0.12137128989E+02 -0.38220234690E+02 -0.67134037667E+01  0.50528855518E+02  0.29999986832E+02 0.  0.
        -12    1    1    2    0    0  0.12137128989E+02  0.38220234690E+02  0.67134037667E+01  0.40659144482E+02  0.00000000000E+00 0.  1.
         11    1    3    3    0    0 -0.29513878095E+01 -0.29303627176E+02 -0.78990744774E+01  0.30492763626E+02  0.51100000000E-03 0. -1.
        -11    1    3    3    0    0  0.29450251876E+01  0.10238668401E+01 -0.24160374315E+01  0.39444535481E+01  0.51100000000E-03 0.  1.
         12    1    3    3    0    0 -0.12130766367E+02 -0.99404743543E+01  0.36017081423E+01  0.16091638344E+02  0.00000000000E+00 0. -1.
</event>
<event>
 7    1  0.2702714E-011  0.5052886E+02  0.7816164E-02  0.1300439E+00
        -11   -1    0    0    0    0  0.00000000000E+00  0.00000000000E+00  0.45593999997E+02  0.45594000000E+02  0.51100000000E-03 0. -1.
         11   -1    0    0    0    0 -0.00000000000E+00 -0.00000000000E+00 -0.45593999997E+02  0.45594000000E+02  0.51100000000E-03 0.  1.
    9900012    2    1    2    0    0  0.87642331536E+01 -0.24634112836E+01  0.39626827268E+02  0.50528860594E+02  0.30000002261E+02 0.  0.
        -12    1    1    2    0    0 -0.87642331536E+01  0.24634112836E+01 -0.39626827268E+02  0.40659139406E+02  0.00000000000E+00 0.  1.
         11    1    3    3    0    0  0.23710658616E+01  0.48788410953E+01  0.60179763130E+01  0.81019184714E+01  0.51100000000E-03 0. -1.
        -11    1    3    3    0    0 -0.29918545045E+00 -0.13140138525E+01  0.33390033304E+02  0.33417218146E+02  0.51100000000E-03 0.  1.
        -12    1    3    3    0    0  0.66923527425E+01 -0.60282385264E+01  0.21881765080E+00  0.90097239761E+01  0.00000000000E+00 0.  1.
</event>
<event>
 7    1  0.2702714E-011  0.5052887E+02  0.7816164E-02  0.1300439E+00
        -11   -1    0    0    0    0  0.00000000000E+00  0.00000000000E+00  0.45593999997E+02  0.45594000000E+02  0.51100000000E-03 0.  1.
         11   -1    0    0    0    0 -0.00000000000E+00 -0.00000000000E+00 -0.45593999997E+02  0.45594000000E+02  0.51100000000E-03 0. -1.
    9900012    2    1    2    0    0 -0.17408269915E+02  0.36717679393E+02 -0.13890294589E+01  0.50528865181E+02  0.30000016204E+02 0.  0.
        -12    1    1    2    0    0  0.17408269915E+02 -0.36717679393E+02  0.13890294589E+01  0.40659134819E+02  0.00000000000E+00 0.  1.
         11    1    3    3    0    0  0.24136570872E+01  0.10261189431E+02  0.41660992619E+00  0.10549469805E+02  0.51100000000E-03 0.  1.
        -11    1    3    3    0    0 -0.42883590877E+01  0.16823872591E+02 -0.99037669852E+01  0.19987929192E+02  0.51100000000E-03 0. -1.
         12    1    3    3    0    0 -0.15533567914E+02  0.96326173711E+01  0.80981276002E+01  0.19991466184E+02  0.00000000000E+00 0. -1.
</event>
<event>
 7    1  0.2702714E-011  0.5052886E+02  0.7816164E-02  0.1300439E+00
        -11   -1    0    0    0    0  0.00000000000E+00  0.00000000000E+00  0.45593999997E+02  0.45594000000E+02  0.51100000000E-03 0.  1.
         11   -1    0    0    0    0 -0.00000000000E+00 -0.00000000000E+00 -0.45593999997E+02  0.45594000000E+02  0.51100000000E-03 0. -1.
    9900012    2    1    2    0    0  0.73269552656E+01  0.34397794847E+02 -0.20402773462E+02  0.50528859223E+02  0.29999998095E+02 0.  0.
        -12    1    1    2    0    0 -0.73269552656E+01 -0.34397794847E+02  0.20402773462E+02  0.40659140777E+02  0.00000000000E+00 0.  1.
         11    1    3    3    0    0  0.38098616080E+01  0.41991142123E+01 -0.56408536125E+00  0.56978766392E+01  0.51100000000E-03 0. -1.
        -11    1    3    3    0    0  0.11585649473E+02  0.46560197790E+01 -0.10951459243E+02  0.16608439231E+02  0.51100000000E-03 0.  1.
        -12    1    3    3    0    0 -0.80685558152E+01  0.25542660855E+02 -0.88872288572E+01  0.28222543352E+02  0.00000000000E+00 0.  1.
</event>
<event>
 7    1  0.2702714E-011  0.5052887E+02  0.7816164E-02  0.1300439E+00
        -11   -1    0    0    0    0  0.00000000000E+00  0.00000000000E+00  0.45593999997E+02  0.45594000000E+02  0.51100000000E-03 0.  1.
         11   -1    0    0    0    0 -0.00000000000E+00 -0.00000000000E+00 -0.45593999997E+02  0.45594000000E+02  0.51100000000E-03 0. -1.
    9900012    2    1    2    0    0 -0.33904580147E+02  0.20050728968E+02 -0.10080303137E+02  0.50528870664E+02  0.30000032870E+02 0.  0.
        -12    1    1    2    0    0  0.33904580147E+02 -0.20050728968E+02  0.10080303137E+02  0.40659129336E+02  0.00000000000E+00 0.  1.
         11    1    3    3    0    0 -0.20695052316E+02  0.21615280828E+02 -0.82848348666E+01  0.31050668989E+02  0.51100000000E-03 0. -1.
        -11    1    3    3    0    0  0.41146540671E+00 -0.45533218414E+01 -0.30203520200E+01  0.54794680543E+01  0.51100000000E-03 0.  1.
        -12    1    3    3    0    0 -0.13620993237E+02  0.29887699807E+01  0.12248837498E+01  0.13998733620E+02  0.00000000000E+00 0.  1.
</event>
<event>
 7    1  0.2702714E-011  0.5052887E+02  0.7816164E-02  0.1300439E+00
        -11   -1    0    0    0    0  0.00000000000E+00  0.00000000000E+00  0.45593999997E+02  0.45594000000E+02  0.51100000000E-03 0. -1.
         11   -1    0    0    0    0 -0.00000000000E+00 -0.00000000000E+00 -0.45593999997E+02  0.45594000000E+02  0.51100000000E-03 0.  1.
    9900012    2    1    2    0    0  0.94354947813E+01  0.20038441834E+02  0.34096879411E+02  0.50528869433E+02  0.30000029129E+02 0.  0.
        -12    1    1    2    0    0 -0.94354947813E+01 -0.20038441834E+02 -0.34096879411E+02  0.40659130567E+02  0.00000000000E+00 0.  1.
         11    1    3    3    0    0  0.14135898879E+02  0.13656169768E+02  0.21255219848E+02  0.28949939221E+02  0.51100000000E-03 0. -1.
        -11    1    3    3    0    0  0.14213794659E+01  0.65030686929E+01 -0.72360958021E+00  0.66958071281E+01  0.51100000000E-03 0.  1.
         12    1    3    3    0    0 -0.61217835632E+01 -0.12079662694E+00  0.13565269143E+02  0.14883123084E+02  0.00000000000E+00 0. -1.
</event>
<event>
 7    1  0.2702714E-011  0.5052878E+02  0.7816164E-02  0.1300439E+00
        -11   -1    0    0    0    0  0.00000000000E+00  0.00000000000E+00  0.45593999997E+02  0.45594000000E+02  0.51100000000E-03 0.  1.
         11   -1    0    0    0    0 -0.00000000000E+00 -0.00000000000E+00 -0.45593999997E+02  0.45594000000E+02  0.51100000000E-03 0. -1.
    9900012    2    1    2    0    0 -0.87003189456E+01  0.23231568504E+02 -0.32214445019E+02  0.50528784651E+02  0.29999771423E+02 0.  0.
        -12    1    1    2    0    0  0.87003189456E+01 -0.23231568504E+02  0.32214445019E+02  0.40659215349E+02  0.00000000000E+00 0.  1.
         11    1    3    3    0    0 -0.68098792797E+00  0.12047614837E+02 -0.81619833050E+01  0.14568003966E+02  0.51100000000E-03 0. -1.
        -11    1    3    3    0    0 -0.10991435480E+02  0.65227712951E+01 -0.16510690729E+01  0.12887367017E+02  0.51100000000E-03 0.  1.
        -12    1    3    3    0    0  0.29721044623E+01  0.46611823728E+01 -0.22401392641E+02  0.23073413668E+02  0.00000000000E+00 0.  1.
</event>
<event>
 7    1  0.2702714E-011  0.5052885E+02  0.7816164E-02  0.1300439E+00
        -11   -1    0    0    0    0  0.00000000000E+00  0.00000000000E+00  0.45593999997E+02  0.45594000000E+02  0.51100000000E-03 0.  1.
         11   -1    0    0    0    0 -0.00000000000E+00 -0.00000000000E+00 -0.45593999997E+02  0.45594000000E+02  0.51100000000E-03 0. -1.
    9900012    2    1    2    0    0 -0.40236911768E+02 -0.17204550414E+01  0.55854672100E+01  0.50528850007E+02  0.29999970081E+02 0.  0.
        -12    1    1    2    0    0  0.40236911768E+02  0.17204550414E+01 -0.55854672100E+01  0.40659149993E+02  0.00000000000E+00 0.  1.
         11    1    3    3    0    0 -0.73737157691E+01  0.32378345716E+01 -0.86070162639E+01  0.11787111019E+02  0.51100000000E-03 0. -1.
        -11    1    3    3    0    0 -0.25549107502E+01 -0.15001775443E+01  0.67063547122E+01  0.73316638898E+01  0.51100000000E-03 0.  1.
         12    1    3    3    0    0 -0.30308285249E+02 -0.34581120687E+01  0.74861287616E+01  0.31410075098E+02  0.00000000000E+00 0. -1.
</event>
<event>
 7    1  0.2702714E-011  0.5052886E+02  0.7816164E-02  0.1300439E+00
        -11   -1    0    0    0    0  0.00000000000E+00  0.00000000000E+00  0.45593999997E+02  0.45594000000E+02  0.51100000000E-03 0.  1.
         11   -1    0    0    0    0 -0.00000000000E+00 -0.00000000000E+00 -0.45593999997E+02  0.45594000000E+02  0.51100000000E-03 0. -1.
    9900012    2    1    2    0    0  0.17449957334E+02  0.26347519506E+02 -0.25582670079E+02  0.50528858304E+02  0.29999995299E+02 0.  0.
        -12    1    1    2    0    0 -0.17449957334E+02 -0.26347519506E+02  0.25582670079E+02  0.40659141696E+02  0.00000000000E+00 0.  1.
         11    1    3    3    0    0  0.37231170252E+01  0.74390895018E+01 -0.94538249864E+01  0.12592714566E+02  0.51100000000E-03 0. -1.
        -11    1    3    3    0    0 -0.70444838315E+01  0.78080185611E+01 -0.72199633161E+01  0.12756087835E+02  0.51100000000E-03 0.  1.
        -12    1    3    3    0    0  0.20771324140E+02  0.11100411443E+02 -0.89088817768E+01  0.25180055903E+02  0.00000000000E+00 0.  1.
</event>
<event>
 7    1  0.2702714E-011  0.5052887E+02  0.7816164E-02  0.1300439E+00
        -11   -1    0    0    0    0  0.00000000000E+00  0.00000000000E+00  0.45593999997E+02  0.45594000000E+02  0.51100000000E-03 0. -1.
         11   -1    0    0    0    0 -0.00000000000E+00 -0.00000000000E+00 -0.45593999997E+02  0.45594000000E+02  0.51100000000E-03 0.  1.
    9900012    2    1    2    0    0 -0.20940234565E+02  0.34467121077E+02 -0.51661724379E+01  0.50528865766E+02  0.30000017983E+02 0.  0.
        -12    1    1    2    0    0  0.20940234565E+02 -0.34467121077E+02  0.51661724379E+01  0.40659134234E+02  0.00000000000E+00 0.  1.
         11    1    3    3    0    0  0.27286041555E-01  0.95728341511E+01  0.99709711110E+00  0.96246610913E+01  0.51100000000E-03 0. -1.
        -11    1    3    3    0    0 -0.12371588323E+02  0.40656814263E+01  0.70242303410E+01  0.14796140552E+02  0.51100000000E-03 0.  1.
         12    1    3    3    0    0 -0.85959322838E+01  0.20828605500E+02 -0.13187499890E+02  0.26108064123E+02  0.00000000000E+00 0. -1.
</event>
<event>
 7    1  0.2702714E-011  0.5052885E+02  0.7816164E-02  0.1300439E+00
        -11   -1    0    0    0    0  0.00000000000E+00  0.00000000000E+00  0.45593999997E+02  0.45594000000E+02  0.51100000000E-03 0. -1.
         11   -1    0    0    0    0 -0.00000000000E+00 -0.00000000000E+00 -0.45593999997E+02  0.45594000000E+02  0.51100000000E-03 0.  1.
    9900012    2    1    2    0    0  0.31817886841E+02 -0.10275859615E+02  0.23134284867E+02  0.50528851581E+02  0.29999974864E+02 0.  0.
        -12    1    1    2    0    0 -0.31817886841E+02  0.10275859615E+02 -0.23134284867E+02  0.40659148419E+02  0.00000000000E+00 0.  1.
         11    1    3    3    0    0  0.21367645019E+02 -0.39101815422E+01  0.20687708435E+02  0.29997450790E+02  0.51100000000E-03 0. -1.
        -11    1    3    3    0    0 -0.30735409393E+01 -0.11719730735E+01  0.48361940683E+01  0.58488416048E+01  0.51100000000E-03 0.  1.
         12    1    3    3    0    0  0.13523782762E+02 -0.51937049994E+01 -0.23896176355E+01  0.14682559186E+02  0.00000000000E+00 0. -1.
</event>
<event>
 7    1  0.2702714E-011  0.5052886E+02  0.7816164E-02  0.1300439E+00
        -11   -1    0    0    0    0  0.00000000000E+00  0.00000000000E+00  0.45593999997E+02  0.45594000000E+02  0.51100000000E-03 0.  1.
         11   -1    0    0    0    0 -0.00000000000E+00 -0.00000000000E+00 -0.45593999997E+02  0.45594000000E+02  0.51100000000E-03 0. -1.
    9900012    2    1    2    0    0 -0.34387264345E+01  0.19230847822E+02 -0.35658311699E+02  0.50528861536E+02  0.30000005125E+02 0.  0.
        -12    1    1    2    0    0  0.34387264345E+01 -0.19230847822E+02  0.35658311699E+02  0.40659138464E+02  0.00000000000E+00 0.  1.
         11    1    3    3    0    0 -0.69947392115E+01  0.23155031710E+01 -0.19725685413E+02  0.21056842043E+02  0.51100000000E-03 0. -1.
        -11    1    3    3    0    0 -0.54272538273E+01  0.57209401827E+01  0.18752386046E+00  0.78879278736E+01  0.51100000000E-03 0.  1.
        -12    1    3    3    0    0  0.89832666043E+01  0.11194404468E+02 -0.16120150146E+02  0.21584091619E+02  0.00000000000E+00 0.  1.
</event>
<event>
 7    1  0.2702714E-011  0.5052886E+02  0.7816164E-02  0.1300439E+00
        -11   -1    0    0    0    0  0.00000000000E+00  0.00000000000E+00  0.45593999997E+02  0.45594000000E+02  0.51100000000E-03 0. -1.
         11   -1    0    0    0    0 -0.00000000000E+00 -0.00000000000E+00 -0.45593999997E+02  0.45594000000E+02  0.51100000000E-03 0.  1.
    9900012    2    1    2    0    0  0.26345741557E+02  0.30054694824E+02  0.74687918588E+01  0.50528860425E+02  0.30000001748E+02 0.  0.
        -12    1    1    2    0    0 -0.26345741557E+02 -0.30054694824E+02 -0.74687918588E+01  0.40659139575E+02  0.00000000000E+00 0.  1.
         11    1    3    3    0    0  0.80214626513E+01  0.55240080543E+01  0.11737063959E+02  0.15251793294E+02  0.51100000000E-03 0. -1.
        -11    1    3    3    0    0  0.18522506828E+02  0.14621858152E+02  0.17818354088E+01  0.23665522025E+02  0.51100000000E-03 0.  1.
        -12    1    3    3    0    0 -0.19822792220E+00  0.99088286177E+01 -0.60501075089E+01  0.11611545106E+02  0.00000000000E+00 0.  1.
</event>
<event>
 7    1  0.2702714E-011  0.5052887E+02  0.7816164E-02  0.1300439E+00
        -11   -1    0    0    0    0  0.00000000000E+00  0.00000000000E+00  0.45593999997E+02  0.45594000000E+02  0.51100000000E-03 0. -1.
         11   -1    0    0    0    0 -0.00000000000E+00 -0.00000000000E+00 -0.45593999997E+02  0.45594000000E+02  0.51100000000E-03 0.  1.
    9900012    2    1    2    0    0 -0.87270473968E+01  0.39643655049E+02 -0.23203138376E+01  0.50528873125E+02  0.30000040351E+02 0.  0.
        -12    1    1    2    0    0  0.87270473968E+01 -0.39643655049E+02  0.23203138376E+01  0.40659126875E+02  0.00000000000E+00 0.  1.
         11    1    3    3    0    0 -0.24342558992E+01  0.22608780154E+02 -0.49370135205E+01  0.23269220971E+02  0.51100000000E-03 0. -1.
        -11    1    3    3    0    0 -0.12481305222E+02  0.16683976104E+02  0.10304337858E+01  0.20861443688E+02  0.51100000000E-03 0.  1.
        -12    1    3    3    0    0  0.61885137247E+01  0.35089879159E+00  0.15862658972E+01  0.63982084664E+01  0.00000000000E+00 0.  1.
</event>
<event>
 7    1  0.2702714E-011  0.5052885E+02  0.7816164E-02  0.1300439E+00
        -11   -1    0    0    0    0  0.00000000000E+00  0.00000000000E+00  0.45593999997E+02  0.45594000000E+02  0.51100000000E-03 0.  1.
         11   -1    0    0    0    0 -0.00000000000E+00 -0.00000000000E+00 -0.45593999997E+02  0.45594000000E+02  0.51100000000E-03 0. -1.
    9900012    2    1    2    0    0  0.22238208115E+02  0.21106235799E+02 -0.26704962735E+02  0.50528854357E+02  0.29999983302E+02 0.  0.
        -12    1    1    2    0    0 -0.22238208115E+02 -0.21106235799E+02  0.26704962735E+02  0.40659145643E+02  0.00000000000E+00 0.  1.
         11    1    3    3    0    0  0.64337254928E+01  0.99708351448E+01 -0.81905983878E+01  0.14418608789E+02  0.51100000000E-03 0. -1.
        -11    1    3    3    0    0 -0.35448511484E+01 -0.14012091721E+01 -0.11340995018E+02  0.11964427486E+02  0.51100000000E-03 0.  1.
         12    1    3    3    0    0  0.19349333771E+02  0.12536609826E+02 -0.71733693295E+01  0.24145818082E+02  0.00000000000E+00 0. -1.
</event>
<event>
 7    1  0.2702714E-011  0.5052885E+02  0.7816164E-02  0.1300439E+00
        -11   -1    0    0    0    0  0.00000000000E+00  0.00000000000E+00  0.45593999997E+02  0.45594000000E+02  0.51100000000E-03 0.  1.
         11   -1    0    0    0    0 -0.00000000000E+00 -0.00000000000E+00 -0.45593999997E+02  0.45594000000E+02  0.51100000000E-03 0. -1.
    9900012    2    1    2    0    0  0.24462210509E+02 -0.66721792475E+01 -0.31784405719E+02  0.50528853848E+02  0.29999981756E+02 0.  0.
        -12    1    1    2    0    0 -0.24462210509E+02  0.66721792475E+01  0.31784405719E+02  0.40659146152E+02  0.00000000000E+00 0.  1.
         11    1    3    3    0    0  0.16841344889E+02 -0.53413543136E+01 -0.12874473531E+02  0.21861222119E+02  0.51100000000E-03 0. -1.
        -11    1    3    3    0    0  0.10793009242E+02  0.68373324239E+01 -0.10845643154E+02  0.16759061395E+02  0.51100000000E-03 0.  1.
        -12    1    3    3    0    0 -0.31721436214E+01 -0.81681573578E+01 -0.80642890337E+01  0.11908570334E+02  0.00000000000E+00 0.  1.
</event>
<event>
 7    1  0.2702714E-011  0.5052885E+02  0.7816164E-02  0.1300439E+00
        -11   -1    0    0    0    0  0.00000000000E+00  0.00000000000E+00  0.45593999997E+02  0.45594000000E+02  0.51100000000E-03 0.  1.
         11   -1    0    0    0    0 -0.00000000000E+00 -0.00000000000E+00 -0.45593999997E+02  0.45594000000E+02  0.51100000000E-03 0. -1.
    9900012    2    1    2    0    0  0.90705318992E+01  0.39005980190E+02 -0.70302999097E+01  0.50528853965E+02  0.29999982111E+02 0.  0.
        -12    1    1    2    0    0 -0.90705318992E+01 -0.39005980190E+02  0.70302999097E+01  0.40659146035E+02  0.00000000000E+00 0.  1.
         11    1    3    3    0    0 -0.68568669220E+01  0.89076829561E+00  0.16850666989E+00  0.69165372045E+01  0.51100000000E-03 0. -1.
        -11    1    3    3    0    0 -0.58903864560E+00  0.11440886386E+02 -0.37270296133E+01  0.12047057642E+02  0.51100000000E-03 0.  1.
         12    1    3    3    0    0  0.16516437467E+02  0.26674325508E+02 -0.34717769663E+01  0.31565259118E+02  0.00000000000E+00 0. -1.
</event>
<event>
 7    1  0.2702714E-011  0.5052886E+02  0.7816164E-02  0.1300439E+00
        -11   -1    0    0    0    0  0.00000000000E+00  0.00000000000E+00  0.45593999997E+02  0.45594000000E+02  0.51100000000E-03 0. -1.
         11   -1    0    0    0    0 -0.00000000000E+00 -0.00000000000E+00 -0.45593999997E+02  0.45594000000E+02  0.51100000000E-03 0.  1.
    9900012    2    1    2    0    0 -0.38821523238E+02 -0.49386966409E+01  0.11030164886E+02  0.50528856767E+02  0.29999990629E+02 0.  0.
        -12    1    1    2    0    0  0.38821523238E+02  0.49386966409E+01 -0.11030164886E+02  0.40659143233E+02  0.00000000000E+00 0.  1.
         11    1    3    3    0    0 -0.66271571257E+01 -0.82413103410E+01  0.84487255540E+01  0.13535855032E+02  0.51100000000E-03 0. -1.
        -11    1    3    3    0    0 -0.17950144884E+02  0.28961364945E+01  0.10185765203E+02  0.20840948179E+02  0.51100000000E-03 0.  1.
        -12    1    3    3    0    0 -0.14244221228E+02  0.40647720559E+00 -0.76043258712E+01  0.16152053556E+02  0.00000000000E+00 0.  1.
</event>
<event>
 7    1  0.2702714E-011  0.5052886E+02  0.7816164E-02  0.1300439E+00
        -11   -1    0    0    0    0  0.00000000000E+00  0.00000000000E+00  0.45593999997E+02  0.45594000000E+02  0.51100000000E-03 0. -1.
         11   -1    0    0    0    0 -0.00000000000E+00 -0.00000000000E+00 -0.45593999997E+02  0.45594000000E+02  0.51100000000E-03 0.  1.
    9900012    2    1    2    0    0  0.18572139656E+02  0.39551088846E+01  0.35952720946E+02  0.50528863251E+02  0.30000010339E+02 0.  0.
        -12    1    1    2    0    0 -0.18572139656E+02 -0.39551088846E+01 -0.35952720946E+02  0.40659136749E+02  0.00000000000E+00 0.  1.
         11    1    3    3    0    0  0.87996768256E+01 -0.85154736852E+00  0.36079958422E+02  0.37147312758E+02  0.51100000000E-03 0. -1.
        -11    1    3    3    0    0  0.17747769459E+01 -0.21363005231E+01 -0.26294900120E+00  0.27897590525E+01  0.51100000000E-03 0.  1.
        -12    1    3    3    0    0  0.79976858848E+01  0.69429567762E+01  0.13571152558E+00  0.10591791441E+02  0.00000000000E+00 0.  1.
</event>
<event>
 7    1  0.2702714E-011  0.5052887E+02  0.7816164E-02  0.1300439E+00
        -11   -1    0    0    0    0  0.00000000000E+00  0.00000000000E+00  0.45593999997E+02  0.45594000000E+02  0.51100000000E-03 0. -1.
         11   -1    0    0    0    0 -0.00000000000E+00 -0.00000000000E+00 -0.45593999997E+02  0.45594000000E+02  0.51100000000E-03 0.  1.
    9900012    2    1    2    0    0 -0.26792938471E+02 -0.29239444973E+02 -0.89642630925E+01  0.50528871787E+02  0.30000036284E+02 0.  0.
        -12    1    1    2    0    0  0.26792938471E+02  0.29239444973E+02  0.89642630925E+01  0.40659128213E+02  0.00000000000E+00 0.  1.
         11    1    3    3    0    0 -0.11040880989E+02 -0.21974268826E+02 -0.42370070075E+01  0.24954393844E+02  0.51100000000E-03 0. -1.
        -11    1    3    3    0    0  0.36712188624E+01  0.10330122310E+01  0.41380146976E+00  0.38361691989E+01  0.51100000000E-03 0.  1.
         12    1    3    3    0    0 -0.19423276344E+02 -0.82981883778E+01 -0.51410575547E+01  0.21738308745E+02  0.00000000000E+00 0. -1.
</event>
<event>
 7    1  0.2702714E-011  0.5052886E+02  0.7816164E-02  0.1300439E+00
        -11   -1    0    0    0    0  0.00000000000E+00  0.00000000000E+00  0.45593999997E+02  0.45594000000E+02  0.51100000000E-03 0. -1.
         11   -1    0    0    0    0 -0.00000000000E+00 -0.00000000000E+00 -0.45593999997E+02  0.45594000000E+02  0.51100000000E-03 0.  1.
    9900012    2    1    2    0    0  0.34285886437E+01 -0.39827634805E+02  0.74276537997E+01  0.50528858897E+02  0.29999997103E+02 0.  0.
        -12    1    1    2    0    0 -0.34285886437E+01  0.39827634805E+02 -0.74276537997E+01  0.40659141103E+02  0.00000000000E+00 0.  1.
         11    1    3    3    0    0  0.85070368953E+01 -0.71798874310E+01  0.10172137023E+02  0.15079550130E+02  0.51100000000E-03 0. -1.
        -11    1    3    3    0    0 -0.49484578739E+01 -0.15526766668E+02  0.44265616530E+01  0.16886745299E+02  0.51100000000E-03 0.  1.
        -12    1    3    3    0    0 -0.12999037766E+00 -0.17120980707E+02 -0.71710448762E+01  0.18562563467E+02  0.00000000000E+00 0.  1.
</event>
<event>
 7    1  0.2702714E-011  0.5052889E+02  0.7816164E-02  0.1300439E+00
        -11   -1    0    0    0    0  0.00000000000E+00  0.00000000000E+00  0.45593999997E+02  0.45594000000E+02  0.51100000000E-03 0.  1.
         11   -1    0    0    0    0 -0.00000000000E+00 -0.00000000000E+00 -0.45593999997E+02  0.45594000000E+02  0.51100000000E-03 0. -1.
    9900012    2    1    2    0    0 -0.15637907715E+02 -0.32539272925E+01 -0.37390255717E+02  0.50528887576E+02  0.30000084277E+02 0.  0.
        -12    1    1    2    0    0  0.15637907715E+02  0.32539272925E+01  0.37390255717E+02  0.40659112424E+02  0.00000000000E+00 0.  1.
         11    1    3    3    0    0 -0.68930375276E+01 -0.89908921995E+01 -0.52099602583E+01  0.12469715115E+02  0.51100000000E-03 0.  1.
        -11    1    3    3    0    0 -0.12375641881E+02  0.57691855777E+01 -0.14137810527E+02  0.19654966318E+02  0.51100000000E-03 0. -1.
         12    1    3    3    0    0  0.36307716940E+01 -0.32220670667E-01 -0.18042484932E+02  0.18404206144E+02  0.00000000000E+00 0. -1.
</event>
<event>
 7    1  0.2702714E-011  0.5052888E+02  0.7816164E-02  0.1300439E+00
        -11   -1    0    0    0    0  0.00000000000E+00  0.00000000000E+00  0.45593999997E+02  0.45594000000E+02  0.51100000000E-03 0.  1.
         11   -1    0    0    0    0 -0.00000000000E+00 -0.00000000000E+00 -0.45593999997E+02  0.45594000000E+02  0.51100000000E-03 0. -1.
    9900012    2    1    2    0    0  0.32418249299E+02  0.92367145741E+01 -0.22735536298E+02  0.50528875630E+02  0.30000047966E+02 0.  0.
        -12    1    1    2    0    0 -0.32418249299E+02 -0.92367145741E+01  0.22735536298E+02  0.40659124370E+02  0.00000000000E+00 0.  1.
         11    1    3    3    0    0  0.18662119977E+02  0.15177857087E+02 -0.75485782418E+01  0.25211566820E+02  0.51100000000E-03 0. -1.
        -11    1    3    3    0    0 -0.10787470137E+01  0.62167564312E+00  0.15640233026E+01  0.19990860104E+01  0.51100000000E-03 0.  1.
         12    1    3    3    0    0  0.14834876335E+02 -0.65628181558E+01 -0.16750981359E+02  0.23318222800E+02  0.00000000000E+00 0. -1.
</event>
<event>
 7    1  0.2702714E-011  0.5052886E+02  0.7816164E-02  0.1300439E+00
        -11   -1    0    0    0    0  0.00000000000E+00  0.00000000000E+00  0.45593999997E+02  0.45594000000E+02  0.51100000000E-03 0. -1.
         11   -1    0    0    0    0 -0.00000000000E+00 -0.00000000000E+00 -0.45593999997E+02  0.45594000000E+02  0.51100000000E-03 0.  1.
    9900012    2    1    2    0    0  0.37910865843E+02  0.49365007984E+01  0.13840628898E+02  0.50528858378E+02  0.29999995527E+02 0.  0.
        -12    1    1    2    0    0 -0.37910865843E+02 -0.49365007984E+01 -0.13840628898E+02  0.40659141622E+02  0.00000000000E+00 0.  1.
         11    1    3    3    0    0 -0.87912214490E-01  0.66498296295E+00 -0.35029608773E+01  0.35666042768E+01  0.51100000000E-03 0. -1.
        -11    1    3    3    0    0  0.35122756522E+02  0.28284199108E+01  0.67323237712E+01  0.35873836824E+02  0.51100000000E-03 0.  1.
         12    1    3    3    0    0  0.28760215358E+01  0.14430979246E+01  0.10611266004E+02  0.11088417277E+02  0.00000000000E+00 0. -1.
</event>
<event>
 7    1  0.2702714E-011  0.5052886E+02  0.7816164E-02  0.1300439E+00
        -11   -1    0    0    0    0  0.00000000000E+00  0.00000000000E+00  0.45593999997E+02  0.45594000000E+02  0.51100000000E-03 0.  1.
         11   -1    0    0    0    0 -0.00000000000E+00 -0.00000000000E+00 -0.45593999997E+02  0.45594000000E+02  0.51100000000E-03 0. -1.
    9900012    2    1    2    0    0 -0.31525413759E+02 -0.16055004965E+02 -0.20038725725E+02  0.50528862949E+02  0.30000009418E+02 0.  0.
        -12    1    1    2    0    0  0.31525413759E+02  0.16055004965E+02  0.20038725725E+02  0.40659137051E+02  0.00000000000E+00 0.  1.
         11    1    3    3    0    0 -0.20495282423E+02 -0.77762565910E+01 -0.22959486807E+01  0.22040829131E+02  0.51100000000E-03 0. -1.
        -11    1    3    3    0    0 -0.14870490856E+02 -0.10159907676E+02 -0.14188970857E+02  0.22927758646E+02  0.51100000000E-03 0.  1.
         12    1    3    3    0    0  0.38403595202E+01  0.18811593027E+01 -0.35538061874E+01  0.55602751717E+01  0.00000000000E+00 0. -1.
</event>
<event>
 7    1  0.2702714E-011  0.5052886E+02  0.7816164E-02  0.1300439E+00
        -11   -1    0    0    0    0  0.00000000000E+00  0.00000000000E+00  0.45593999997E+02  0.45594000000E+02  0.51100000000E-03 0. -1.
         11   -1    0    0    0    0 -0.00000000000E+00 -0.00000000000E+00 -0.45593999997E+02  0.45594000000E+02  0.51100000000E-03 0.  1.
    9900012    2    1    2    0    0 -0.24423447365E+02 -0.32005033109E+02  0.56867295816E+01  0.50528858115E+02  0.29999994725E+02 0.  0.
        -12    1    1    2    0    0  0.24423447365E+02  0.32005033109E+02 -0.56867295816E+01  0.40659141885E+02  0.00000000000E+00 0.  1.
         11    1    3    3    0    0 -0.91857721487E+00 -0.15528597543E+02  0.10322284943E+02  0.18668976739E+02  0.51100000000E-03 0. -1.
        -11    1    3    3    0    0 -0.35153192658E+01 -0.98199229005E+01 -0.20955802054E+01  0.10638600095E+02  0.51100000000E-03 0.  1.
         12    1    3    3    0    0 -0.19989550884E+02 -0.66565126656E+01 -0.25399751563E+01  0.21221281281E+02  0.00000000000E+00 0. -1.
</event>
<event>
 7    1  0.2702714E-011  0.5052886E+02  0.7816164E-02  0.1300439E+00
        -11   -1    0    0    0    0  0.00000000000E+00  0.00000000000E+00  0.45593999997E+02  0.45594000000E+02  0.51100000000E-03 0. -1.
         11   -1    0    0    0    0 -0.00000000000E+00 -0.00000000000E+00 -0.45593999997E+02  0.45594000000E+02  0.51100000000E-03 0.  1.
    9900012    2    1    2    0    0  0.27072390130E+02 -0.83010493634E+01  0.29177795850E+02  0.50528862054E+02  0.30000006698E+02 0.  0.
        -12    1    1    2    0    0 -0.27072390130E+02  0.83010493634E+01 -0.29177795850E+02  0.40659137946E+02  0.00000000000E+00 0.  1.
         11    1    3    3    0    0  0.50512783889E+00 -0.24869820348E+00  0.10730671122E+02  0.10745431956E+02  0.51100000000E-03 0. -1.
        -11    1    3    3    0    0  0.78228938504E+01  0.75076491664E+01  0.47699110340E+01  0.11845442826E+02  0.51100000000E-03 0.  1.
        -12    1    3    3    0    0  0.18744368440E+02 -0.15560000326E+02  0.13677213694E+02  0.27937987272E+02  0.00000000000E+00 0.  1.
</event>
<event>
 7    1  0.2702714E-011  0.5052887E+02  0.7816164E-02  0.1300439E+00
        -11   -1    0    0    0    0  0.00000000000E+00  0.00000000000E+00  0.45593999997E+02  0.45594000000E+02  0.51100000000E-03 0.  1.
         11   -1    0    0    0    0 -0.00000000000E+00 -0.00000000000E+00 -0.45593999997E+02  0.45594000000E+02  0.51100000000E-03 0. -1.
    9900012    2    1    2    0    0  0.17134623180E+01 -0.22972318991E+02 -0.33503752169E+02  0.50528870615E+02  0.30000032722E+02 0.  0.
        -12    1    1    2    0    0 -0.17134623180E+01  0.22972318991E+02  0.33503752169E+02  0.40659129385E+02  0.00000000000E+00 0.  1.
         11    1    3    3    0    0 -0.21993968020E+01 -0.21425793757E+02 -0.65114984744E+01  0.22501146572E+02  0.51100000000E-03 0. -1.
        -11    1    3    3    0    0  0.18683610836E+01 -0.38930105080E+01 -0.18051091519E+02  0.18560393564E+02  0.51100000000E-03 0.  1.
        -12    1    3    3    0    0  0.20444980364E+01  0.23464852737E+01 -0.89411621747E+01  0.94673304788E+01  0.00000000000E+00 0.  1.
</event>
<event>
 7    1  0.2702714E-011  0.5052886E+02  0.7816164E-02  0.1300439E+00
        -11   -1    0    0    0    0  0.00000000000E+00  0.00000000000E+00  0.45593999997E+02  0.45594000000E+02  0.51100000000E-03 0.  1.
         11   -1    0    0    0    0 -0.00000000000E+00 -0.00000000000E+00 -0.45593999997E+02  0.45594000000E+02  0.51100000000E-03 0. -1.
    9900012    2    1    2    0    0 -0.14229145303E+02 -0.17405761889E+02 -0.33878263648E+02  0.50528857476E+02  0.29999992785E+02 0.  0.
        -12    1    1    2    0    0  0.14229145303E+02  0.17405761889E+02  0.33878263648E+02  0.40659142524E+02  0.00000000000E+00 0.  1.
         11    1    3    3    0    0 -0.53176445328E+00  0.23384780725E+01 -0.12954428539E+02  0.13174538784E+02  0.51100000000E-03 0. -1.
        -11    1    3    3    0    0 -0.13283066674E+02 -0.26333744773E+01 -0.67453319926E+01  0.15128583059E+02  0.51100000000E-03 0.  1.
        -12    1    3    3    0    0 -0.41431417518E+00 -0.17110865484E+02 -0.14178503116E+02  0.22225735634E+02  0.00000000000E+00 0.  1.
</event>
<event>
 7    1  0.2702714E-011  0.5052884E+02  0.7816164E-02  0.1300439E+00
        -11   -1    0    0    0    0  0.00000000000E+00  0.00000000000E+00  0.45593999997E+02  0.45594000000E+02  0.51100000000E-03 0.  1.
         11   -1    0    0    0    0 -0.00000000000E+00 -0.00000000000E+00 -0.45593999997E+02  0.45594000000E+02  0.51100000000E-03 0. -1.
    9900012    2    1    2    0    0  0.39781558660E+02 -0.30438976828E+01 -0.78312995971E+01  0.50528843886E+02  0.29999951475E+02 0.  0.
        -12    1    1    2    0    0 -0.39781558660E+02  0.30438976828E+01  0.78312995971E+01  0.40659156114E+02  0.00000000000E+00 0.  1.
         11    1    3    3    0    0  0.30219550290E+02 -0.27465939124E+01  0.39710220408E+01  0.30602843236E+02  0.51100000000E-03 0. -1.
        -11    1    3    3    0    0  0.34454532271E+01 -0.16258087611E+01  0.23326651889E+01  0.44671835884E+01  0.51100000000E-03 0.  1.
        -12    1    3    3    0    0  0.61165551433E+01  0.13285049908E+01 -0.14134986827E+02  0.15458817061E+02  0.00000000000E+00 0.  1.
</event>
<event>
 7    1  0.2702714E-011  0.5052886E+02  0.7816164E-02  0.1300439E+00
        -11   -1    0    0    0    0  0.00000000000E+00  0.00000000000E+00  0.45593999997E+02  0.45594000000E+02  0.51100000000E-03 0.  1.
         11   -1    0    0    0    0 -0.00000000000E+00 -0.00000000000E+00 -0.45593999997E+02  0.45594000000E+02  0.51100000000E-03 0. -1.
    9900012    2    1    2    0    0 -0.13721854542E+02  0.35431273892E+02 -0.14474157742E+02  0.50528859526E+02  0.29999999016E+02 0.  0.
        -12    1    1    2    0    0  0.13721854542E+02 -0.35431273892E+02  0.14474157742E+02  0.40659140474E+02  0.00000000000E+00 0.  1.
         11    1    3    3    0    0  0.39747444187E+01  0.42969385816E+01 -0.38989910944E+01  0.70330936424E+01  0.51100000000E-03 0. -1.
        -11    1    3    3    0    0 -0.92658534527E+01  0.32106641297E+02 -0.10433834961E+02  0.35007961492E+02  0.51100000000E-03 0.  1.
        -12    1    3    3    0    0 -0.84307455078E+01 -0.97230598606E+00 -0.14133168703E+00  0.84878043918E+01  0.00000000000E+00 0.  1.
</event>
<event>
 7    1  0.2702714E-011  0.5052885E+02  0.7816164E-02  0.1300439E+00
        -11   -1    0    0    0    0  0.00000000000E+00  0.00000000000E+00  0.45593999997E+02  0.45594000000E+02  0.51100000000E-03 0.  1.
         11   -1    0    0    0    0 -0.00000000000E+00 -0.00000000000E+00 -0.45593999997E+02  0.45594000000E+02  0.51100000000E-03 0. -1.
    9900012    2    1    2    0    0 -0.30060573565E+02  0.84936632728E+00 -0.27364333113E+02  0.50528853022E+02  0.29999979246E+02 0.  0.
        -12    1    1    2    0    0  0.30060573565E+02 -0.84936632728E+00  0.27364333113E+02  0.40659146978E+02  0.00000000000E+00 0.  1.
         11    1    3    3    0    0 -0.17959015843E+02  0.96812669992E+01 -0.53247309749E+01  0.21085680946E+02  0.51100000000E-03 0. -1.
        -11    1    3    3    0    0  0.13799958634E+01 -0.98583668695E+00  0.72724452152E+00  0.18453041515E+01  0.51100000000E-03 0.  1.
        -12    1    3    3    0    0 -0.13481553586E+02 -0.78460639850E+01 -0.22766846660E+02  0.27597867924E+02  0.00000000000E+00 0.  1.
</event>
<event>
 7    1  0.2702714E-011  0.5052885E+02  0.7816164E-02  0.1300439E+00
        -11   -1    0    0    0    0  0.00000000000E+00  0.00000000000E+00  0.45593999997E+02  0.45594000000E+02  0.51100000000E-03 0.  1.
         11   -1    0    0    0    0 -0.00000000000E+00 -0.00000000000E+00 -0.45593999997E+02  0.45594000000E+02  0.51100000000E-03 0. -1.
    9900012    2    1    2    0    0 -0.88200984754E+01 -0.56066540629E+01 -0.39292970946E+02  0.50528852534E+02  0.29999977764E+02 0.  0.
        -12    1    1    2    0    0  0.88200984754E+01  0.56066540629E+01  0.39292970946E+02  0.40659147466E+02  0.00000000000E+00 0.  1.
         11    1    3    3    0    0 -0.63545170294E+01 -0.12919318164E+02 -0.29635480603E+02  0.32947691563E+02  0.51100000000E-03 0. -1.
        -11    1    3    3    0    0 -0.32558276409E+01 -0.22195872554E+01  0.67000521252E-01  0.39409986733E+01  0.51100000000E-03 0.  1.
         12    1    3    3    0    0  0.79024619486E+00  0.95322513561E+01 -0.97244908636E+01  0.13640162298E+02  0.00000000000E+00 0. -1.
</event>
<event>
 7    1  0.2702714E-011  0.5052885E+02  0.7816164E-02  0.1300439E+00
        -11   -1    0    0    0    0  0.00000000000E+00  0.00000000000E+00  0.45593999997E+02  0.45594000000E+02  0.51100000000E-03 0.  1.
         11   -1    0    0    0    0 -0.00000000000E+00 -0.00000000000E+00 -0.45593999997E+02  0.45594000000E+02  0.51100000000E-03 0. -1.
    9900012    2    1    2    0    0 -0.23786090038E+02 -0.19385080245E+02 -0.26675966840E+02  0.50528848234E+02  0.29999964693E+02 0.  0.
        -12    1    1    2    0    0  0.23786090038E+02  0.19385080245E+02  0.26675966840E+02  0.40659151766E+02  0.00000000000E+00 0.  1.
         11    1    3    3    0    0 -0.12685699511E+02  0.18040368665E+01 -0.64720813983E+01  0.14355116126E+02  0.51100000000E-03 0. -1.
        -11    1    3    3    0    0 -0.33045046798E+01 -0.71290138195E+01 -0.18385785209E+02  0.19994491422E+02  0.51100000000E-03 0.  1.
        -12    1    3    3    0    0 -0.77958858479E+01 -0.14060103292E+02 -0.18181002335E+01  0.16179240687E+02  0.00000000000E+00 0.  1.
</event>
<event>
 7    1  0.4305668E-011  0.5052885E+02  0.7816164E-02  0.1300439E+00
        -11   -1    0    0    0    0  0.00000000000E+00  0.00000000000E+00  0.45593999997E+02  0.45594000000E+02  0.51100000000E-03 0. -1.
         11   -1    0    0    0    0 -0.00000000000E+00 -0.00000000000E+00 -0.45593999997E+02  0.45594000000E+02  0.51100000000E-03 0.  1.
    9900012    2    1    2    0    0  0.28603921520E+02  0.14871790070E+02  0.24775236079E+02  0.50528846185E+02  0.29999958463E+02 0.  0.
        -12    1    1    2    0    0 -0.28603921520E+02 -0.14871790070E+02 -0.24775236079E+02  0.40659153815E+02  0.00000000000E+00 0.  1.
         11    1    3    3    0    0  0.42603223118E+01 -0.69279406867E+00  0.10666879192E+02  0.11507068340E+02  0.51100000000E-03 0. -1.
        -11    1    3    3    0    0 -0.40729623144E+01  0.36998051555E+01  0.31227688139E+01  0.63268685405E+01  0.51100000000E-03 0.  1.
         12    1    3    3    0    0  0.28416561523E+02  0.11864778983E+02  0.10985588073E+02  0.32694909304E+02  0.00000000000E+00 0. -1.
</event>
<event>
 7    1  0.2702714E-011  0.5052887E+02  0.7816164E-02  0.1300439E+00
        -11   -1    0    0    0    0  0.00000000000E+00  0.00000000000E+00  0.45593999997E+02  0.45594000000E+02  0.51100000000E-03 0.  1.
         11   -1    0    0    0    0 -0.00000000000E+00 -0.00000000000E+00 -0.45593999997E+02  0.45594000000E+02  0.51100000000E-03 0. -1.
    9900012    2    1    2    0    0  0.25961459493E+02 -0.28663621304E+02 -0.12552456651E+02  0.50528871465E+02  0.30000035305E+02 0.  0.
        -12    1    1    2    0    0 -0.25961459493E+02  0.28663621304E+02  0.12552456651E+02  0.40659128535E+02  0.00000000000E+00 0.  1.
         11    1    3    3    0    0  0.14832845827E+02 -0.11231436409E+02 -0.91320288974E+01  0.20725646701E+02  0.51100000000E-03 0. -1.
        -11    1    3    3    0    0  0.13968960897E+02 -0.10359807770E+02  0.53389273330E+01  0.18192350890E+02  0.51100000000E-03 0.  1.
        -12    1    3    3    0    0 -0.28403472311E+01 -0.70723771250E+01 -0.87593550863E+01  0.11610873874E+02  0.00000000000E+00 0.  1.
</event>
<event>
 7    1  0.2702714E-011  0.5052886E+02  0.7816164E-02  0.1300439E+00
        -11   -1    0    0    0    0  0.00000000000E+00  0.00000000000E+00  0.45593999997E+02  0.45594000000E+02  0.51100000000E-03 0.  1.
         11   -1    0    0    0    0 -0.00000000000E+00 -0.00000000000E+00 -0.45593999997E+02  0.45594000000E+02  0.51100000000E-03 0. -1.
    9900012    2    1    2    0    0  0.29116982307E+02  0.22403992244E+02 -0.17419189221E+02  0.50528859819E+02  0.29999999907E+02 0.  0.
        -12    1    1    2    0    0 -0.29116982307E+02 -0.22403992244E+02  0.17419189221E+02  0.40659140181E+02  0.00000000000E+00 0.  1.
         11    1    3    3    0    0  0.12476919730E+02  0.89310374794E+01  0.18122585052E+01  0.15450606382E+02  0.51100000000E-03 0. -1.
        -11    1    3    3    0    0 -0.26936682762E+01  0.16562845735E+01  0.22296678580E+01  0.38691790329E+01  0.51100000000E-03 0.  1.
         12    1    3    3    0    0  0.19333730853E+02  0.11816670191E+02 -0.21461115584E+02  0.31209074405E+02  0.00000000000E+00 0. -1.
</event>
<event>
 7    1  0.2702714E-011  0.5052886E+02  0.7816164E-02  0.1300439E+00
        -11   -1    0    0    0    0  0.00000000000E+00  0.00000000000E+00  0.45593999997E+02  0.45594000000E+02  0.51100000000E-03 0. -1.
         11   -1    0    0    0    0 -0.00000000000E+00 -0.00000000000E+00 -0.45593999997E+02  0.45594000000E+02  0.51100000000E-03 0.  1.
    9900012    2    1    2    0    0 -0.78409263411E+01 -0.35190778628E+02  0.18796142113E+02  0.50528856075E+02  0.29999988526E+02 0.  0.
        -12    1    1    2    0    0  0.78409263411E+01  0.35190778628E+02 -0.18796142113E+02  0.40659143925E+02  0.00000000000E+00 0.  1.
         11    1    3    3    0    0 -0.41081819160E+01  0.55661538389E+00 -0.29170033345E+01  0.50691111701E+01  0.51100000000E-03 0. -1.
        -11    1    3    3    0    0  0.46837400162E+01 -0.46351795599E+01  0.81781247486E+01  0.10502572768E+02  0.51100000000E-03 0.  1.
         12    1    3    3    0    0 -0.84164844413E+01 -0.31112214452E+02  0.13535020699E+02  0.34957172137E+02  0.00000000000E+00 0. -1.
</event>
<event>
 7    1  0.2702714E-011  0.5052885E+02  0.7816164E-02  0.1300439E+00
        -11   -1    0    0    0    0  0.00000000000E+00  0.00000000000E+00  0.45593999997E+02  0.45594000000E+02  0.51100000000E-03 0. -1.
         11   -1    0    0    0    0 -0.00000000000E+00 -0.00000000000E+00 -0.45593999997E+02  0.45594000000E+02  0.51100000000E-03 0.  1.
    9900012    2    1    2    0    0 -0.26991751216E+01  0.86762019154E+00  0.40560180394E+02  0.50528849188E+02  0.29999967593E+02 0.  0.
        -12    1    1    2    0    0  0.26991751216E+01 -0.86762019154E+00 -0.40560180394E+02  0.40659150812E+02  0.00000000000E+00 0.  1.
         11    1    3    3    0    0 -0.16667480197E+01 -0.13304603891E+02  0.22044413156E+02  0.25802067462E+02  0.51100000000E-03 0. -1.
        -11    1    3    3    0    0  0.31923394219E+01  0.27644519095E+01  0.46848396597E+01  0.63072139842E+01  0.51100000000E-03 0.  1.
        -12    1    3    3    0    0 -0.42247665237E+01  0.11407772173E+02  0.13830927579E+02  0.18419567742E+02  0.00000000000E+00 0.  1.
</event>
<event>
 7    1  0.2702714E-011  0.5052886E+02  0.7816164E-02  0.1300439E+00
        -11   -1    0    0    0    0  0.00000000000E+00  0.00000000000E+00  0.45593999997E+02  0.45594000000E+02  0.51100000000E-03 0. -1.
         11   -1    0    0    0    0 -0.00000000000E+00 -0.00000000000E+00 -0.45593999997E+02  0.45594000000E+02  0.51100000000E-03 0.  1.
    9900012    2    1    2    0    0 -0.18345779647E+00 -0.40268236753E+02  0.56214624161E+01  0.50528863417E+02  0.30000010843E+02 0.  0.
        -12    1    1    2    0    0  0.18345779647E+00  0.40268236753E+02 -0.56214624161E+01  0.40659136583E+02  0.00000000000E+00 0.  1.
         11    1    3    3    0    0 -0.72337237055E+01 -0.17714937226E+02  0.62399135449E+01  0.20126655979E+02  0.51100000000E-03 0. -1.
        -11    1    3    3    0    0  0.30176472052E+01 -0.20727086381E+02  0.65770890893E+01  0.21953961047E+02  0.51100000000E-03 0.  1.
        -12    1    3    3    0    0  0.40326187038E+01 -0.18262131458E+01 -0.71955402180E+01  0.84482463916E+01  0.00000000000E+00 0.  1.
</event>
<event>
 7    1  0.2702714E-011  0.5052887E+02  0.7816164E-02  0.1300439E+00
        -11   -1    0    0    0    0  0.00000000000E+00  0.00000000000E+00  0.45593999997E+02  0.45594000000E+02  0.51100000000E-03 0. -1.
         11   -1    0    0    0    0 -0.00000000000E+00 -0.00000000000E+00 -0.45593999997E+02  0.45594000000E+02  0.51100000000E-03 0.  1.
    9900012    2    1    2    0    0  0.16914021465E+02 -0.29662428627E+02  0.22073092320E+02  0.50528865740E+02  0.30000017903E+02 0.  0.
        -12    1    1    2    0    0 -0.16914021465E+02  0.29662428627E+02 -0.22073092320E+02  0.40659134260E+02  0.00000000000E+00 0.  1.
         11    1    3    3    0    0 -0.15033225768E+01 -0.14422488437E+02  0.10473618270E+02  0.17887560801E+02  0.51100000000E-03 0. -1.
        -11    1    3    3    0    0  0.11091389054E+02 -0.28607944920E+01  0.13967085486E+02  0.18063292433E+02  0.51100000000E-03 0.  1.
         12    1    3    3    0    0  0.73259549881E+01 -0.12379145699E+02 -0.23676114359E+01  0.14578012506E+02  0.00000000000E+00 0. -1.
</event>
<event>
 7    1  0.2702714E-011  0.5052887E+02  0.7816164E-02  0.1300439E+00
        -11   -1    0    0    0    0  0.00000000000E+00  0.00000000000E+00  0.45593999997E+02  0.45594000000E+02  0.51100000000E-03 0. -1.
         11   -1    0    0    0    0 -0.00000000000E+00 -0.00000000000E+00 -0.45593999997E+02  0.45594000000E+02  0.51100000000E-03 0.  1.
    9900012    2    1    2    0    0  0.39185095213E+02  0.92586325970E+01 -0.56542973438E+01  0.50528867657E+02  0.30000023730E+02 0.  0.
        -12    1    1    2    0    0 -0.39185095213E+02 -0.92586325970E+01  0.56542973438E+01  0.40659132343E+02  0.00000000000E+00 0.  1.
         11    1    3    3    0    0  0.84216761106E+01  0.41009295293E+01  0.62293574586E+01  0.11249317585E+02  0.51100000000E-03 0. -1.
        -11    1    3    3    0    0  0.26527644426E+02  0.10641553858E+02 -0.41275203270E+01  0.28878971790E+02  0.51100000000E-03 0.  1.
        -12    1    3    3    0    0  0.42357746765E+01 -0.54838507905E+01 -0.77561344754E+01  0.10400578282E+02  0.00000000000E+00 0.  1.
</event>
<event>
 7    1  0.2702714E-011  0.5052886E+02  0.7816164E-02  0.1300439E+00
        -11   -1    0    0    0    0  0.00000000000E+00  0.00000000000E+00  0.45593999997E+02  0.45594000000E+02  0.51100000000E-03 0.  1.
         11   -1    0    0    0    0 -0.00000000000E+00 -0.00000000000E+00 -0.45593999997E+02  0.45594000000E+02  0.51100000000E-03 0. -1.
    9900012    2    1    2    0    0  0.31284319141E+02  0.23925880265E+02 -0.10099958823E+02  0.50528861559E+02  0.30000005194E+02 0.  0.
        -12    1    1    2    0    0 -0.31284319141E+02 -0.23925880265E+02  0.10099958823E+02  0.40659138441E+02  0.00000000000E+00 0.  1.
         11    1    3    3    0    0  0.25830951921E+02  0.11707131018E+02 -0.17882123024E+02  0.33527083349E+02  0.51100000000E-03 0. -1.
        -11    1    3    3    0    0  0.37301569920E+00  0.23791362724E+01  0.50517306731E+01  0.55963750025E+01  0.51100000000E-03 0.  1.
        -12    1    3    3    0    0  0.50803515208E+01  0.98396129744E+01  0.27304335279E+01  0.11405403207E+02  0.00000000000E+00 0.  1.
</event>
<event>
 7    1  0.2702714E-011  0.5052887E+02  0.7816164E-02  0.1300439E+00
        -11   -1    0    0    0    0  0.00000000000E+00  0.00000000000E+00  0.45593999997E+02  0.45594000000E+02  0.51100000000E-03 0.  1.
         11   -1    0    0    0    0 -0.00000000000E+00 -0.00000000000E+00 -0.45593999997E+02  0.45594000000E+02  0.51100000000E-03 0. -1.
    9900012    2    1    2    0    0 -0.10476506328E+02 -0.26727886983E+02 -0.28792847270E+02  0.50528865955E+02  0.30000018557E+02 0.  0.
        -12    1    1    2    0    0  0.10476506328E+02  0.26727886983E+02  0.28792847270E+02  0.40659134045E+02  0.00000000000E+00 0.  1.
         11    1    3    3    0    0 -0.23854618549E+01 -0.13847274211E+01 -0.14731086607E+02  0.14987088148E+02  0.51100000000E-03 0. -1.
        -11    1    3    3    0    0  0.37049862763E+01  0.85033435148E-01  0.83407776055E+00  0.37986629180E+01  0.51100000000E-03 0.  1.
        -12    1    3    3    0    0 -0.11796030749E+02 -0.25428192997E+02 -0.14895838424E+02  0.31743114889E+02  0.00000000000E+00 0.  1.
</event>
<event>
 7    1  0.2702714E-011  0.5052887E+02  0.7816164E-02  0.1300439E+00
        -11   -1    0    0    0    0  0.00000000000E+00  0.00000000000E+00  0.45593999997E+02  0.45594000000E+02  0.51100000000E-03 0.  1.
         11   -1    0    0    0    0 -0.00000000000E+00 -0.00000000000E+00 -0.45593999997E+02  0.45594000000E+02  0.51100000000E-03 0. -1.
    9900012    2    1    2    0    0  0.53144828152E+01  0.79246729102E+01 -0.39523675342E+02  0.50528867190E+02  0.30000022309E+02 0.  0.
        -12    1    1    2    0    0 -0.53144828152E+01 -0.79246729102E+01  0.39523675342E+02  0.40659132810E+02  0.00000000000E+00 0.  1.
         11    1    3    3    0    0 -0.12134862222E+01  0.87092838951E+01 -0.18084582686E+02  0.20109110024E+02  0.51100000000E-03 0. -1.
        -11    1    3    3    0    0 -0.56001487469E+01 -0.71622804321E+00  0.16048694290E+00  0.56480443445E+01  0.51100000000E-03 0.  1.
         12    1    3    3    0    0  0.12128117784E+02 -0.68382941722E-01 -0.21599579599E+02  0.24771712821E+02  0.00000000000E+00 0. -1.
</event>
<event>
 7    1  0.2702714E-011  0.5052886E+02  0.7816164E-02  0.1300439E+00
        -11   -1    0    0    0    0  0.00000000000E+00  0.00000000000E+00  0.45593999997E+02  0.45594000000E+02  0.51100000000E-03 0.  1.
         11   -1    0    0    0    0 -0.00000000000E+00 -0.00000000000E+00 -0.45593999997E+02  0.45594000000E+02  0.51100000000E-03 0. -1.
    9900012    2    1    2    0    0 -0.16220965919E+02 -0.13587032817E+02 -0.34719424865E+02  0.50528860080E+02  0.30000000699E+02 0.  0.
        -12    1    1    2    0    0  0.16220965919E+02  0.13587032817E+02  0.34719424865E+02  0.40659139920E+02  0.00000000000E+00 0.  1.
         11    1    3    3    0    0 -0.89559657228E+01  0.15236007568E+01 -0.10791127904E+02  0.14105995994E+02  0.51100000000E-03 0. -1.
        -11    1    3    3    0    0 -0.13710409180E+02 -0.98895124438E+01 -0.85359656838E+01  0.18937805751E+02  0.51100000000E-03 0.  1.
         12    1    3    3    0    0  0.64454089837E+01 -0.52211211297E+01 -0.15392331277E+02  0.17485058335E+02  0.00000000000E+00 0. -1.
</event>
<event>
 7    1  0.2702714E-011  0.5052886E+02  0.7816164E-02  0.1300439E+00
        -11   -1    0    0    0    0  0.00000000000E+00  0.00000000000E+00  0.45593999997E+02  0.45594000000E+02  0.51100000000E-03 0.  1.
         11   -1    0    0    0    0 -0.00000000000E+00 -0.00000000000E+00 -0.45593999997E+02  0.45594000000E+02  0.51100000000E-03 0. -1.
    9900012    2    1    2    0    0  0.23634339157E+02 -0.33066244339E+02  0.10987845225E+01  0.50528857984E+02  0.29999994329E+02 0.  0.
        -12    1    1    2    0    0 -0.23634339157E+02  0.33066244339E+02 -0.10987845225E+01  0.40659142016E+02  0.00000000000E+00 0.  1.
         11    1    3    3    0    0  0.18040863675E+02 -0.23582896377E+02 -0.44014355363E+00  0.29695445615E+02  0.51100000000E-03 0. -1.
        -11    1    3    3    0    0  0.23000958884E+01 -0.12990626033E+02  0.57955350604E+01  0.14409546583E+02  0.51100000000E-03 0.  1.
        -12    1    3    3    0    0  0.32933795928E+01  0.35072780717E+01 -0.42566069843E+01  0.64238657857E+01  0.00000000000E+00 0.  1.
</event>
<event>
 7    1  0.2702714E-011  0.5052888E+02  0.7816164E-02  0.1300439E+00
        -11   -1    0    0    0    0  0.00000000000E+00  0.00000000000E+00  0.45593999997E+02  0.45594000000E+02  0.51100000000E-03 0.  1.
         11   -1    0    0    0    0 -0.00000000000E+00 -0.00000000000E+00 -0.45593999997E+02  0.45594000000E+02  0.51100000000E-03 0. -1.
    9900012    2    1    2    0    0 -0.29398155099E+02  0.26999315663E+02 -0.77426889049E+01  0.50528882929E+02  0.30000070151E+02 0.  0.
        -12    1    1    2    0    0  0.29398155099E+02 -0.26999315663E+02  0.77426889049E+01  0.40659117071E+02  0.00000000000E+00 0.  1.
         11    1    3    3    0    0 -0.80527847108E+01  0.20709200883E+02 -0.53023416064E+01  0.22843668041E+02  0.51100000000E-03 0.  1.
        -11    1    3    3    0    0 -0.11363267705E+02  0.85834398013E+01 -0.76810236696E+01  0.16180155025E+02  0.51100000000E-03 0. -1.
        -12    1    3    3    0    0 -0.99821026829E+01 -0.22933250207E+01  0.52406763712E+01  0.11505059863E+02  0.00000000000E+00 0.  1.
</event>
<event>
 7    1  0.2702714E-011  0.5052885E+02  0.7816164E-02  0.1300439E+00
        -11   -1    0    0    0    0  0.00000000000E+00  0.00000000000E+00  0.45593999997E+02  0.45594000000E+02  0.51100000000E-03 0.  1.
         11   -1    0    0    0    0 -0.00000000000E+00 -0.00000000000E+00 -0.45593999997E+02  0.45594000000E+02  0.51100000000E-03 0. -1.
    9900012    2    1    2    0    0 -0.20950224862E+02 -0.33339113981E+02 -0.10136964610E+02  0.50528849808E+02  0.29999969477E+02 0.  0.
        -12    1    1    2    0    0  0.20950224862E+02  0.33339113981E+02  0.10136964610E+02  0.40659150192E+02  0.00000000000E+00 0.  1.
         11    1    3    3    0    0 -0.73439263707E+01 -0.21629469850E+02 -0.35576387472E+00  0.22844994829E+02  0.51100000000E-03 0. -1.
        -11    1    3    3    0    0  0.23434839973E+01 -0.93371613197E+00  0.34880004150E+01  0.43046358983E+01  0.51100000000E-03 0.  1.
         12    1    3    3    0    0 -0.15949782488E+02 -0.10775928000E+02 -0.13269201150E+02  0.23379219081E+02  0.00000000000E+00 0. -1.
</event>
<event>
 7    1  0.2702714E-011  0.5052886E+02  0.7816164E-02  0.1300439E+00
        -11   -1    0    0    0    0  0.00000000000E+00  0.00000000000E+00  0.45593999997E+02  0.45594000000E+02  0.51100000000E-03 0.  1.
         11   -1    0    0    0    0 -0.00000000000E+00 -0.00000000000E+00 -0.45593999997E+02  0.45594000000E+02  0.51100000000E-03 0. -1.
    9900012    2    1    2    0    0  0.34999768474E+02  0.84866862264E+01 -0.18872145754E+02  0.50528861769E+02  0.30000005834E+02 0.  0.
        -12    1    1    2    0    0 -0.34999768474E+02 -0.84866862264E+01  0.18872145754E+02  0.40659138231E+02  0.00000000000E+00 0.  1.
         11    1    3    3    0    0  0.21146353781E+02  0.11403211319E+02 -0.11775372868E+02  0.26755577233E+02  0.51100000000E-03 0. -1.
        -11    1    3    3    0    0  0.72958312327E+01 -0.10888939529E+01 -0.12878720921E+02  0.14841707996E+02  0.51100000000E-03 0.  1.
         12    1    3    3    0    0  0.65575834596E+01 -0.18276311401E+01  0.57819480348E+01  0.89315765400E+01  0.00000000000E+00 0. -1.
</event>
<event>
 7    1  0.2702714E-011  0.5052886E+02  0.7816164E-02  0.1300439E+00
        -11   -1    0    0    0    0  0.00000000000E+00  0.00000000000E+00  0.45593999997E+02  0.45594000000E+02  0.51100000000E-03 0.  1.
         11   -1    0    0    0    0 -0.00000000000E+00 -0.00000000000E+00 -0.45593999997E+02  0.45594000000E+02  0.51100000000E-03 0. -1.
    9900012    2    1    2    0    0 -0.35552388598E+02 -0.25275015180E+01 -0.19565409294E+02  0.50528857858E+02  0.29999993944E+02 0.  0.
        -12    1    1    2    0    0  0.35552388598E+02  0.25275015180E+01  0.19565409294E+02  0.40659142142E+02  0.00000000000E+00 0.  1.
         11    1    3    3    0    0 -0.69043958570E+01 -0.17759482825E+01  0.20684302840E+01  0.74231447887E+01  0.51100000000E-03 0. -1.
        -11    1    3    3    0    0 -0.10304069973E+01  0.81380535275E+01 -0.58676718734E+01  0.10085595038E+02  0.51100000000E-03 0.  1.
         12    1    3    3    0    0 -0.27617585743E+02 -0.88896067629E+01 -0.15766167705E+02  0.33020118031E+02  0.00000000000E+00 0. -1.
</event>
<event>
 7    1  0.2702714E-011  0.5052886E+02  0.7816164E-02  0.1300439E+00
        -11   -1    0    0    0    0  0.00000000000E+00  0.00000000000E+00  0.45593999997E+02  0.45594000000E+02  0.51100000000E-03 0. -1.
         11   -1    0    0    0    0 -0.00000000000E+00 -0.00000000000E+00 -0.45593999997E+02  0.45594000000E+02  0.51100000000E-03 0.  1.
    9900012    2    1    2    0    0 -0.21343785047E+02  0.30061486262E+02  0.17143955611E+02  0.50528864121E+02  0.30000012982E+02 0.  0.
        -12    1    1    2    0    0  0.21343785047E+02 -0.30061486262E+02 -0.17143955611E+02  0.40659135879E+02  0.00000000000E+00 0.  1.
         11    1    3    3    0    0 -0.77608871684E+01  0.25293326776E+01  0.48038768128E+01  0.94713318033E+01  0.51100000000E-03 0. -1.
        -11    1    3    3    0    0 -0.17992977946E+02  0.14768090409E+02  0.14437268659E+02  0.27391211662E+02  0.51100000000E-03 0.  1.
        -12    1    3    3    0    0  0.44100800675E+01  0.12764063176E+02 -0.20971898611E+01  0.13666320656E+02  0.00000000000E+00 0.  1.
</event>
<event>
 7    1  0.2702714E-011  0.5052886E+02  0.7816164E-02  0.1300439E+00
        -11   -1    0    0    0    0  0.00000000000E+00  0.00000000000E+00  0.45593999997E+02  0.45594000000E+02  0.51100000000E-03 0.  1.
         11   -1    0    0    0    0 -0.00000000000E+00 -0.00000000000E+00 -0.45593999997E+02  0.45594000000E+02  0.51100000000E-03 0. -1.
    9900012    2    1    2    0    0  0.38695869789E+02 -0.62599844311E+01 -0.10798496407E+02  0.50528864883E+02  0.30000015298E+02 0.  0.
        -12    1    1    2    0    0 -0.38695869789E+02  0.62599844311E+01  0.10798496407E+02  0.40659135117E+02  0.00000000000E+00 0.  1.
         11    1    3    3    0    0  0.20925719689E+02 -0.47336415968E+01 -0.13886554184E+02  0.25556398311E+02  0.51100000000E-03 0. -1.
        -11    1    3    3    0    0  0.21339314798E+01  0.30667471539E+01 -0.54242302454E+01  0.65864159968E+01  0.51100000000E-03 0.  1.
        -12    1    3    3    0    0  0.15636218620E+02 -0.45930899882E+01  0.85122880222E+01  0.18386050575E+02  0.00000000000E+00 0.  1.
</event>
<event>
 7    1  0.2702714E-011  0.5052885E+02  0.7816164E-02  0.1300439E+00
        -11   -1    0    0    0    0  0.00000000000E+00  0.00000000000E+00  0.45593999997E+02  0.45594000000E+02  0.51100000000E-03 0.  1.
         11   -1    0    0    0    0 -0.00000000000E+00 -0.00000000000E+00 -0.45593999997E+02  0.45594000000E+02  0.51100000000E-03 0. -1.
    9900012    2    1    2    0    0  0.66927690562E+01  0.23264446343E+02 -0.32667087266E+02  0.50528853283E+02  0.29999980040E+02 0.  0.
        -12    1    1    2    0    0 -0.66927690562E+01 -0.23264446343E+02  0.32667087266E+02  0.40659146717E+02  0.00000000000E+00 0.  1.
         11    1    3    3    0    0  0.48135467529E+01  0.12599044775E+02 -0.25046266271E+02  0.28446820841E+02  0.51100000000E-03 0. -1.
        -11    1    3    3    0    0  0.47565846625E+01  0.14581161319E+02 -0.35498020839E+01  0.15742822433E+02  0.51100000000E-03 0.  1.
        -12    1    3    3    0    0 -0.28773623592E+01 -0.39157597503E+01 -0.40710189104E+01  0.63392100090E+01  0.00000000000E+00 0.  1.
</event>
<event>
 7    1  0.2702714E-011  0.5052886E+02  0.7816164E-02  0.1300439E+00
        -11   -1    0    0    0    0  0.00000000000E+00  0.00000000000E+00  0.45593999997E+02  0.45594000000E+02  0.51100000000E-03 0. -1.
         11   -1    0    0    0    0 -0.00000000000E+00 -0.00000000000E+00 -0.45593999997E+02  0.45594000000E+02  0.51100000000E-03 0.  1.
    9900012    2    1    2    0    0  0.33114906537E+02 -0.14990949156E+00  0.23591230119E+02  0.50528860236E+02  0.30000001174E+02 0.  0.
        -12    1    1    2    0    0 -0.33114906537E+02  0.14990949156E+00 -0.23591230119E+02  0.40659139764E+02  0.00000000000E+00 0.  1.
         11    1    3    3    0    0  0.11766770364E+02 -0.12837124273E+02  0.15347967398E+02  0.23212254262E+02  0.51100000000E-03 0. -1.
        -11    1    3    3    0    0  0.74090907077E+01  0.43085844920E+00  0.32032291741E+01  0.80833743895E+01  0.51100000000E-03 0.  1.
        -12    1    3    3    0    0  0.13939045466E+02  0.12256356333E+02  0.50400335466E+01  0.19233231585E+02  0.00000000000E+00 0.  1.
</event>
<event>
 7    1  0.2702714E-011  0.5052885E+02  0.7816164E-02  0.1300439E+00
        -11   -1    0    0    0    0  0.00000000000E+00  0.00000000000E+00  0.45593999997E+02  0.45594000000E+02  0.51100000000E-03 0.  1.
         11   -1    0    0    0    0 -0.00000000000E+00 -0.00000000000E+00 -0.45593999997E+02  0.45594000000E+02  0.51100000000E-03 0. -1.
    9900012    2    1    2    0    0 -0.49757617945E+01 -0.15216609037E+02 -0.37374631169E+02  0.50528850340E+02  0.29999971094E+02 0.  0.
        -12    1    1    2    0    0  0.49757617945E+01  0.15216609037E+02  0.37374631169E+02  0.40659149660E+02  0.00000000000E+00 0.  1.
         11    1    3    3    0    0  0.93561652551E+01 -0.34300292263E+01 -0.59145950812E+01  0.11588156195E+02  0.51100000000E-03 0. -1.
        -11    1    3    3    0    0 -0.32821762663E+01 -0.33602261137E+01 -0.16603112722E+00  0.47001454418E+01  0.51100000000E-03 0.  1.
         12    1    3    3    0    0 -0.11049750783E+02 -0.84263536974E+01 -0.31294004961E+02  0.34240548703E+02  0.00000000000E+00 0. -1.
</event>
<event>
 7    1  0.2702714E-011  0.5052886E+02  0.7816164E-02  0.1300439E+00
        -11   -1    0    0    0    0  0.00000000000E+00  0.00000000000E+00  0.45593999997E+02  0.45594000000E+02  0.51100000000E-03 0.  1.
         11   -1    0    0    0    0 -0.00000000000E+00 -0.00000000000E+00 -0.45593999997E+02  0.45594000000E+02  0.51100000000E-03 0. -1.
    9900012    2    1    2    0    0 -0.34988972761E+02 -0.24055422394E+01 -0.20570635238E+02  0.50528857333E+02  0.29999992348E+02 0.  0.
        -12    1    1    2    0    0  0.34988972761E+02  0.24055422394E+01  0.20570635238E+02  0.40659142667E+02  0.00000000000E+00 0.  1.
         11    1    3    3    0    0 -0.58691330402E+01 -0.85840117505E+01 -0.13880554462E+01  0.10490885499E+02  0.51100000000E-03 0. -1.
        -11    1    3    3    0    0  0.17293867106E+01  0.32431058724E+01 -0.43127738121E+01  0.56664391208E+01  0.51100000000E-03 0.  1.
         12    1    3    3    0    0 -0.30849226432E+02  0.29353636387E+01 -0.14869805980E+02  0.34371532712E+02  0.00000000000E+00 0. -1.
</event>
<event>
 7    1  0.2702714E-011  0.5052886E+02  0.7816164E-02  0.1300439E+00
        -11   -1    0    0    0    0  0.00000000000E+00  0.00000000000E+00  0.45593999997E+02  0.45594000000E+02  0.51100000000E-03 0.  1.
         11   -1    0    0    0    0 -0.00000000000E+00 -0.00000000000E+00 -0.45593999997E+02  0.45594000000E+02  0.51100000000E-03 0. -1.
    9900012    2    1    2    0    0 -0.35350637451E+02 -0.39177126966E+01 -0.19701504358E+02  0.50528864311E+02  0.30000013560E+02 0.  0.
        -12    1    1    2    0    0  0.35350637451E+02  0.39177126966E+01  0.19701504358E+02  0.40659135689E+02  0.00000000000E+00 0.  1.
         11    1    3    3    0    0 -0.40173035239E+01  0.47575283659E+01 -0.30292311453E+01  0.69245249186E+01  0.51100000000E-03 0. -1.
        -11    1    3    3    0    0  0.16317393356E+01 -0.55159162472E+01  0.13405340920E+01  0.59063471976E+01  0.51100000000E-03 0.  1.
        -12    1    3    3    0    0 -0.32965073263E+02 -0.31593248153E+01 -0.18012807305E+02  0.37697992195E+02  0.00000000000E+00 0.  1.
</event>
<event>
 7    1  0.2702714E-011  0.5052885E+02  0.7816164E-02  0.1300439E+00
        -11   -1    0    0    0    0  0.00000000000E+00  0.00000000000E+00  0.45593999997E+02  0.45594000000E+02  0.51100000000E-03 0.  1.
         11   -1    0    0    0    0 -0.00000000000E+00 -0.00000000000E+00 -0.45593999997E+02  0.45594000000E+02  0.51100000000E-03 0. -1.
    9900012    2    1    2    0    0  0.17880613575E+02 -0.46407721174E+01 -0.36220345394E+02  0.50528849392E+02  0.29999968212E+02 0.  0.
        -12    1    1    2    0    0 -0.17880613575E+02  0.46407721174E+01  0.36220345394E+02  0.40659150608E+02  0.00000000000E+00 0.  1.
         11    1    3    3    0    0  0.35827090910E+01 -0.58517285516E+01 -0.16388108749E+02  0.17766503317E+02  0.51100000000E-03 0. -1.
        -11    1    3    3    0    0 -0.17062456829E+01 -0.71342374901E+01 -0.25299524933E+01  0.77594638201E+01  0.51100000000E-03 0.  1.
         12    1    3    3    0    0  0.16004150167E+02  0.83451939243E+01 -0.17302284152E+02  0.25002882256E+02  0.00000000000E+00 0. -1.
</event>
<event>
 7    1  0.2702714E-011  0.5052889E+02  0.7816164E-02  0.1300439E+00
        -11   -1    0    0    0    0  0.00000000000E+00  0.00000000000E+00  0.45593999997E+02  0.45594000000E+02  0.51100000000E-03 0.  1.
         11   -1    0    0    0    0 -0.00000000000E+00 -0.00000000000E+00 -0.45593999997E+02  0.45594000000E+02  0.51100000000E-03 0. -1.
    9900012    2    1    2    0    0  0.18656540298E+02 -0.27144871357E+02 -0.23838044008E+02  0.50528894267E+02  0.30000104614E+02 0.  0.
        -12    1    1    2    0    0 -0.18656540298E+02  0.27144871357E+02  0.23838044008E+02  0.40659105733E+02  0.00000000000E+00 0.  1.
         11    1    3    3    0    0 -0.21002877592E+01 -0.13045810163E+02 -0.12217146205E+02  0.17996194963E+02  0.51100000000E-03 0. -1.
        -11    1    3    3    0    0  0.10903902816E+02 -0.16926721786E+02 -0.75790192792E+01  0.21513961526E+02  0.51100000000E-03 0.  1.
        -12    1    3    3    0    0  0.98529252410E+01  0.28276605921E+01 -0.40418785238E+01  0.11018737778E+02  0.00000000000E+00 0.  1.
</event>
<event>
 7    1  0.2702714E-011  0.5052886E+02  0.7816164E-02  0.1300439E+00
        -11   -1    0    0    0    0  0.00000000000E+00  0.00000000000E+00  0.45593999997E+02  0.45594000000E+02  0.51100000000E-03 0.  1.
         11   -1    0    0    0    0 -0.00000000000E+00 -0.00000000000E+00 -0.45593999997E+02  0.45594000000E+02  0.51100000000E-03 0. -1.
    9900012    2    1    2    0    0 -0.94782846536E+01  0.96832448240E+01 -0.38334871333E+02  0.50528862399E+02  0.30000007749E+02 0.  0.
        -12    1    1    2    0    0  0.94782846536E+01 -0.96832448240E+01  0.38334871333E+02  0.40659137601E+02  0.00000000000E+00 0.  1.
         11    1    3    3    0    0  0.58288181078E+00  0.45398183889E+01 -0.15915641916E+02  0.16560717378E+02  0.51100000000E-03 0. -1.
        -11    1    3    3    0    0  0.38083556907E+01  0.50964583805E+01  0.12979514233E+01  0.64932379634E+01  0.51100000000E-03 0.  1.
         12    1    3    3    0    0 -0.13869522155E+02  0.46968054665E-01 -0.23717180840E+02  0.27474907057E+02  0.00000000000E+00 0. -1.
</event>
<event>
 7    1  0.2702714E-011  0.5052887E+02  0.7816164E-02  0.1300439E+00
        -11   -1    0    0    0    0  0.00000000000E+00  0.00000000000E+00  0.45593999997E+02  0.45594000000E+02  0.51100000000E-03 0.  1.
         11   -1    0    0    0    0 -0.00000000000E+00 -0.00000000000E+00 -0.45593999997E+02  0.45594000000E+02  0.51100000000E-03 0. -1.
    9900012    2    1    2    0    0  0.33390131265E+01 -0.38394651942E+02  0.12956342601E+02  0.50528866709E+02  0.30000020849E+02 0.  0.
        -12    1    1    2    0    0 -0.33390131265E+01  0.38394651942E+02 -0.12956342601E+02  0.40659133291E+02  0.00000000000E+00 0.  1.
         11    1    3    3    0    0  0.11773225621E+02 -0.11982631818E+02  0.10895978610E+02  0.20022853366E+02  0.51100000000E-03 0.  1.
        -11    1    3    3    0    0  0.30429039605E+01 -0.34392911847E+01  0.14606020822E+01  0.48188532940E+01  0.51100000000E-03 0. -1.
         12    1    3    3    0    0 -0.11477116455E+02 -0.22972728939E+02  0.59976190901E+00  0.25687160049E+02  0.00000000000E+00 0. -1.
</event>
<event>
 7    1  0.2702714E-011  0.5052887E+02  0.7816164E-02  0.1300439E+00
        -11   -1    0    0    0    0  0.00000000000E+00  0.00000000000E+00  0.45593999997E+02  0.45594000000E+02  0.51100000000E-03 0. -1.
         11   -1    0    0    0    0 -0.00000000000E+00 -0.00000000000E+00 -0.45593999997E+02  0.45594000000E+02  0.51100000000E-03 0.  1.
    9900012    2    1    2    0    0 -0.34136193853E+02 -0.22069918575E+02  0.89677186225E+00  0.50528865277E+02  0.30000016496E+02 0.  0.
        -12    1    1    2    0    0  0.34136193853E+02  0.22069918575E+02 -0.89677186225E+00  0.40659134723E+02  0.00000000000E+00 0.  1.
         11    1    3    3    0    0 -0.25277162483E+02 -0.23249882130E+02  0.33959039653E+01  0.34511217398E+02  0.51100000000E-03 0. -1.
        -11    1    3    3    0    0 -0.40827250868E+01 -0.44124592073E+01 -0.54298681792E+01  0.81007350959E+01  0.51100000000E-03 0.  1.
         12    1    3    3    0    0 -0.47763062830E+01  0.55924227632E+01  0.29307360762E+01  0.79169127834E+01  0.00000000000E+00 0. -1.
</event>
<event>
 7    1  0.2702714E-011  0.5052886E+02  0.7816164E-02  0.1300439E+00
        -11   -1    0    0    0    0  0.00000000000E+00  0.00000000000E+00  0.45593999997E+02  0.45594000000E+02  0.51100000000E-03 0. -1.
         11   -1    0    0    0    0 -0.00000000000E+00 -0.00000000000E+00 -0.45593999997E+02  0.45594000000E+02  0.51100000000E-03 0.  1.
    9900012    2    1    2    0    0 -0.77103187855E+01  0.39250817198E+02 -0.72862870029E+01  0.50528860256E+02  0.30000001233E+02 0.  0.
        -12    1    1    2    0    0  0.77103187855E+01 -0.39250817198E+02  0.72862870029E+01  0.40659139744E+02  0.00000000000E+00 0.  1.
         11    1    3    3    0    0 -0.62494578820E+00  0.76818619924E+01 -0.41490052813E+01  0.87530455267E+01  0.51100000000E-03 0. -1.
        -11    1    3    3    0    0  0.48720727749E+01  0.28444159685E+02 -0.49650223616E+01  0.29282396770E+02  0.51100000000E-03 0.  1.
        -12    1    3    3    0    0 -0.11957445772E+02  0.31247955208E+01  0.18277406400E+01  0.12493417959E+02  0.00000000000E+00 0.  1.
</event>
<event>
 7    1  0.2702714E-011  0.5052886E+02  0.7816164E-02  0.1300439E+00
        -11   -1    0    0    0    0  0.00000000000E+00  0.00000000000E+00  0.45593999997E+02  0.45594000000E+02  0.51100000000E-03 0.  1.
         11   -1    0    0    0    0 -0.00000000000E+00 -0.00000000000E+00 -0.45593999997E+02  0.45594000000E+02  0.51100000000E-03 0. -1.
    9900012    2    1    2    0    0 -0.14303656600E+02 -0.37134605538E+02  0.83422123746E+01  0.50528855544E+02  0.29999986911E+02 0.  0.
        -12    1    1    2    0    0  0.14303656600E+02  0.37134605538E+02 -0.83422123746E+01  0.40659144456E+02  0.00000000000E+00 0.  1.
         11    1    3    3    0    0 -0.41914395596E+01 -0.10933802980E+02  0.41356109120E+01  0.12418514044E+02  0.51100000000E-03 0. -1.
        -11    1    3    3    0    0 -0.71196156383E+01 -0.27305798644E+00  0.90982512663E+01  0.11556022839E+02  0.51100000000E-03 0.  1.
        -12    1    3    3    0    0 -0.29926014024E+01 -0.25927744571E+02 -0.48916498037E+01  0.26554318660E+02  0.00000000000E+00 0.  1.
</event>
<event>
 7    1  0.2702714E-011  0.5052886E+02  0.7816164E-02  0.1300439E+00
        -11   -1    0    0    0    0  0.00000000000E+00  0.00000000000E+00  0.45593999997E+02  0.45594000000E+02  0.51100000000E-03 0.  1.
         11   -1    0    0    0    0 -0.00000000000E+00 -0.00000000000E+00 -0.45593999997E+02  0.45594000000E+02  0.51100000000E-03 0. -1.
    9900012    2    1    2    0    0 -0.21216753853E+02  0.10958836316E+02 -0.32907736418E+02  0.50528857687E+02  0.29999993427E+02 0.  0.
        -12    1    1    2    0    0  0.21216753853E+02 -0.10958836316E+02  0.32907736418E+02  0.40659142313E+02  0.00000000000E+00 0.  1.
         11    1    3    3    0    0  0.39479862885E+01 -0.19068655380E+01 -0.32587959974E+01  0.54628274299E+01  0.51100000000E-03 0. -1.
        -11    1    3    3    0    0 -0.17754392636E+02  0.22129958714E+01 -0.75094756138E+01  0.19403814904E+02  0.51100000000E-03 0.  1.
        -12    1    3    3    0    0 -0.74103475057E+01  0.10652705983E+02 -0.22139464806E+02  0.25662215353E+02  0.00000000000E+00 0.  1.
</event>
<event>
 7    1  0.2702714E-011  0.5052886E+02  0.7816164E-02  0.1300439E+00
        -11   -1    0    0    0    0  0.00000000000E+00  0.00000000000E+00  0.45593999997E+02  0.45594000000E+02  0.51100000000E-03 0.  1.
         11   -1    0    0    0    0 -0.00000000000E+00 -0.00000000000E+00 -0.45593999997E+02  0.45594000000E+02  0.51100000000E-03 0. -1.
    9900012    2    1    2    0    0 -0.18096345771E+02 -0.33617143264E+02 -0.13984833634E+02  0.50528860520E+02  0.30000002036E+02 0.  0.
        -12    1    1    2    0    0  0.18096345771E+02  0.33617143264E+02  0.13984833634E+02  0.40659139480E+02  0.00000000000E+00 0.  1.
         11    1    3    3    0    0 -0.17329785107E+02 -0.85173478104E+01 -0.11806463723E+02  0.22633144975E+02  0.51100000000E-03 0. -1.
        -11    1    3    3    0    0  0.30685818155E+00  0.13048209903E+01  0.22909725827E+00  0.13598549831E+01  0.51100000000E-03 0.  1.
        -12    1    3    3    0    0 -0.10734188456E+01 -0.26404616444E+02 -0.24074671694E+01  0.26535860561E+02  0.00000000000E+00 0.  1.
</event>
<event>
 7    1  0.2702714E-011  0.5052886E+02  0.7816164E-02  0.1300439E+00
        -11   -1    0    0    0    0  0.00000000000E+00  0.00000000000E+00  0.45593999997E+02  0.45594000000E+02  0.51100000000E-03 0. -1.
         11   -1    0    0    0    0 -0.00000000000E+00 -0.00000000000E+00 -0.45593999997E+02  0.45594000000E+02  0.51100000000E-03 0.  1.
    9900012    2    1    2    0    0  0.36687121663E+02 -0.16806976233E+02  0.49745872452E+01  0.50528857556E+02  0.29999993028E+02 0.  0.
        -12    1    1    2    0    0 -0.36687121663E+02  0.16806976233E+02 -0.49745872452E+01  0.40659142444E+02  0.00000000000E+00 0.  1.
         11    1    3    3    0    0  0.75875333382E+01 -0.53579791823E+01  0.31843717141E+01  0.98193088632E+01  0.51100000000E-03 0. -1.
        -11    1    3    3    0    0  0.31124623198E+02 -0.36563363372E+01 -0.27622612480E+01  0.31460150223E+02  0.51100000000E-03 0.  1.
        -12    1    3    3    0    0 -0.20250348728E+01 -0.77926607133E+01  0.45524767791E+01  0.92493984698E+01  0.00000000000E+00 0.  1.
</event>
<event>
 7    1  0.2702714E-011  0.5052887E+02  0.7816164E-02  0.1300439E+00
        -11   -1    0    0    0    0  0.00000000000E+00  0.00000000000E+00  0.45593999997E+02  0.45594000000E+02  0.51100000000E-03 0.  1.
         11   -1    0    0    0    0 -0.00000000000E+00 -0.00000000000E+00 -0.45593999997E+02  0.45594000000E+02  0.51100000000E-03 0. -1.
    9900012    2    1    2    0    0 -0.14047768164E+02  0.94747940540E+01 -0.36960161261E+02  0.50528867776E+02  0.30000024092E+02 0.  0.
        -12    1    1    2    0    0  0.14047768164E+02 -0.94747940540E+01  0.36960161261E+02  0.40659132224E+02  0.00000000000E+00 0.  1.
         11    1    3    3    0    0 -0.29516237469E+01  0.79456965922E+01 -0.77137212288E+01  0.11460701224E+02  0.51100000000E-03 0.  1.
        -11    1    3    3    0    0 -0.15116705420E+02  0.69901748146E+01 -0.27357955889E+02  0.32028660250E+02  0.51100000000E-03 0. -1.
        -12    1    3    3    0    0  0.40205610027E+01 -0.54610773528E+01 -0.18884841432E+01  0.70395063029E+01  0.00000000000E+00 0.  1.
</event>
<event>
 7    1  0.2702714E-011  0.5052885E+02  0.7816164E-02  0.1300439E+00
        -11   -1    0    0    0    0  0.00000000000E+00  0.00000000000E+00  0.45593999997E+02  0.45594000000E+02  0.51100000000E-03 0. -1.
         11   -1    0    0    0    0 -0.00000000000E+00 -0.00000000000E+00 -0.45593999997E+02  0.45594000000E+02  0.51100000000E-03 0.  1.
    9900012    2    1    2    0    0  0.39940293881E+02 -0.10007861569E+01 -0.75457141486E+01  0.50528850350E+02  0.29999971125E+02 0.  0.
        -12    1    1    2    0    0 -0.39940293881E+02  0.10007861569E+01  0.75457141486E+01  0.40659149650E+02  0.00000000000E+00 0.  1.
         11    1    3    3    0    0  0.22912400104E+02 -0.91280167750E+01 -0.11074891989E+02  0.27036124012E+02  0.51100000000E-03 0. -1.
        -11    1    3    3    0    0  0.10853687764E+02 -0.22800566818E+01  0.23283668727E+01  0.11332364674E+02  0.51100000000E-03 0.  1.
        -12    1    3    3    0    0  0.61742060135E+01  0.10407287300E+02  0.12008109672E+01  0.12160361665E+02  0.00000000000E+00 0.  1.
</event>
<event>
 7    1  0.4332099E-011  0.5052888E+02  0.7816164E-02  0.1300439E+00
        -11   -1    0    0    0    0  0.00000000000E+00  0.00000000000E+00  0.45593999997E+02  0.45594000000E+02  0.51100000000E-03 0. -1.
         11   -1    0    0    0    0 -0.00000000000E+00 -0.00000000000E+00 -0.45593999997E+02  0.45594000000E+02  0.51100000000E-03 0.  1.
    9900012    2    1    2    0    0 -0.14885483410E+02  0.34873945118E+02 -0.14676307980E+02  0.50528884412E+02  0.30000074660E+02 0.  0.
        -12    1    1    2    0    0  0.14885483410E+02 -0.34873945118E+02  0.14676307980E+02  0.40659115588E+02  0.00000000000E+00 0.  1.
         11    1    3    3    0    0 -0.47036096694E+00  0.17954964463E+02 -0.25907095686E+01  0.18147004288E+02  0.51100000000E-03 0. -1.
        -11    1    3    3    0    0 -0.18574014705E+01  0.97784637232E+01 -0.14648839806E+02  0.17710358577E+02  0.51100000000E-03 0.  1.
        -12    1    3    3    0    0 -0.12557720972E+02  0.71405169320E+01  0.25632413940E+01  0.14671521547E+02  0.00000000000E+00 0.  1.
</event>
<event>
 7    1  0.2702714E-011  0.5052886E+02  0.7816164E-02  0.1300439E+00
        -11   -1    0    0    0    0  0.00000000000E+00  0.00000000000E+00  0.45593999997E+02  0.45594000000E+02  0.51100000000E-03 0. -1.
         11   -1    0    0    0    0 -0.00000000000E+00 -0.00000000000E+00 -0.45593999997E+02  0.45594000000E+02  0.51100000000E-03 0.  1.
    9900012    2    1    2    0    0 -0.10111156291E+02 -0.19739630748E+02  0.34077518378E+02  0.50528858809E+02  0.29999996835E+02 0.  0.
        -12    1    1    2    0    0  0.10111156291E+02  0.19739630748E+02 -0.34077518378E+02  0.40659141191E+02  0.00000000000E+00 0.  1.
         11    1    3    3    0    0 -0.25924527336E+01 -0.51945846575E+01  0.59434465158E+00  0.58359032519E+01  0.51100000000E-03 0.  1.
        -11    1    3    3    0    0 -0.10851732076E+02 -0.14748094776E+02  0.36081717141E+02  0.40461793098E+02  0.51100000000E-03 0. -1.
         12    1    3    3    0    0  0.33330285186E+01  0.20304868555E+00 -0.25985434147E+01  0.42311624588E+01  0.00000000000E+00 0. -1.
</event>
<event>
 7    1  0.2702714E-011  0.5052886E+02  0.7816164E-02  0.1300439E+00
        -11   -1    0    0    0    0  0.00000000000E+00  0.00000000000E+00  0.45593999997E+02  0.45594000000E+02  0.51100000000E-03 0.  1.
         11   -1    0    0    0    0 -0.00000000000E+00 -0.00000000000E+00 -0.45593999997E+02  0.45594000000E+02  0.51100000000E-03 0. -1.
    9900012    2    1    2    0    0  0.33006033061E+02 -0.15198382949E+02 -0.18242164398E+02  0.50528860503E+02  0.30000001986E+02 0.  0.
        -12    1    1    2    0    0 -0.33006033061E+02  0.15198382949E+02  0.18242164398E+02  0.40659139497E+02  0.00000000000E+00 0.  1.
         11    1    3    3    0    0  0.12958938845E+02  0.17952222337E+01  0.26534484477E+00  0.13085386009E+02  0.51100000000E-03 0. -1.
        -11    1    3    3    0    0 -0.21203675991E+01 -0.16349148797E+01  0.21813323234E+01  0.34535657494E+01  0.51100000000E-03 0.  1.
        -12    1    3    3    0    0  0.22167461814E+02 -0.15358690303E+02 -0.20688841566E+02  0.33989908745E+02  0.00000000000E+00 0.  1.
</event>
<event>
 7    1  0.2702714E-011  0.5052886E+02  0.7816164E-02  0.1300439E+00
        -11   -1    0    0    0    0  0.00000000000E+00  0.00000000000E+00  0.45593999997E+02  0.45594000000E+02  0.51100000000E-03 0.  1.
         11   -1    0    0    0    0 -0.00000000000E+00 -0.00000000000E+00 -0.45593999997E+02  0.45594000000E+02  0.51100000000E-03 0. -1.
    9900012    2    1    2    0    0 -0.30930513930E+02  0.14387583749E+02 -0.22123880531E+02  0.50528863907E+02  0.30000012330E+02 0.  0.
        -12    1    1    2    0    0  0.30930513930E+02 -0.14387583749E+02  0.22123880531E+02  0.40659136093E+02  0.00000000000E+00 0.  1.
         11    1    3    3    0    0 -0.26963853105E+01 -0.51320770944E+01  0.57772427607E+00  0.58260170482E+01  0.51100000000E-03 0.  1.
        -11    1    3    3    0    0 -0.16064071793E+02  0.20634246618E+02 -0.17206991673E+02  0.31303467839E+02  0.51100000000E-03 0. -1.
         12    1    3    3    0    0 -0.12170056827E+02 -0.11145857740E+01 -0.54946131341E+01  0.13399379020E+02  0.00000000000E+00 0. -1.
</event>
<event>
 7    1  0.2702714E-011  0.5052886E+02  0.7816164E-02  0.1300439E+00
        -11   -1    0    0    0    0  0.00000000000E+00  0.00000000000E+00  0.45593999997E+02  0.45594000000E+02  0.51100000000E-03 0.  1.
         11   -1    0    0    0    0 -0.00000000000E+00 -0.00000000000E+00 -0.45593999997E+02  0.45594000000E+02  0.51100000000E-03 0. -1.
    9900012    2    1    2    0    0 -0.14949330847E+01  0.79694099909E+01 -0.39842432591E+02  0.50528858896E+02  0.29999997100E+02 0.  0.
        -12    1    1    2    0    0  0.14949330847E+01 -0.79694099909E+01  0.39842432591E+02  0.40659141104E+02  0.00000000000E+00 0.  1.
         11    1    3    3    0    0 -0.90091817707E+01  0.61827048365E+00 -0.71770204059E+01  0.11535043855E+02  0.51100000000E-03 0. -1.
        -11    1    3    3    0    0  0.68044484410E+00  0.48810200322E+01  0.58119186527E+00  0.49623730196E+01  0.51100000000E-03 0.  1.
        -12    1    3    3    0    0  0.68338038418E+01  0.24701194750E+01 -0.33246604051E+02  0.34031442021E+02  0.00000000000E+00 0.  1.
</event>
<event>
 7    1  0.2702714E-011  0.5052884E+02  0.7816164E-02  0.1300439E+00
        -11   -1    0    0    0    0  0.00000000000E+00  0.00000000000E+00  0.45593999997E+02  0.45594000000E+02  0.51100000000E-03 0.  1.
         11   -1    0    0    0    0 -0.00000000000E+00 -0.00000000000E+00 -0.45593999997E+02  0.45594000000E+02  0.51100000000E-03 0. -1.
    9900012    2    1    2    0    0  0.21418419761E+02  0.33968297896E+02 -0.63697038540E+01  0.50528842432E+02  0.29999947056E+02 0.  0.
        -12    1    1    2    0    0 -0.21418419761E+02 -0.33968297896E+02  0.63697038540E+01  0.40659157568E+02  0.00000000000E+00 0.  1.
         11    1    3    3    0    0  0.11907387169E+02  0.10376753285E+02  0.53464220670E+00  0.15803440147E+02  0.51100000000E-03 0. -1.
        -11    1    3    3    0    0  0.12935167452E+02  0.26231332040E+02 -0.78860981574E+01  0.30291779116E+02  0.51100000000E-03 0.  1.
        -12    1    3    3    0    0 -0.34241348602E+01 -0.26397874302E+01  0.98175209669E+00  0.44336231681E+01  0.00000000000E+00 0.  1.
</event>
<event>
 7    1  0.4532141E-011  0.5052884E+02  0.7816164E-02  0.1300439E+00
        -11   -1    0    0    0    0  0.00000000000E+00  0.00000000000E+00  0.45593999997E+02  0.45594000000E+02  0.51100000000E-03 0.  1.
         11   -1    0    0    0    0 -0.00000000000E+00 -0.00000000000E+00 -0.45593999997E+02  0.45594000000E+02  0.51100000000E-03 0. -1.
    9900012    2    1    2    0    0  0.32615466932E+02 -0.78686792503E+01  0.22966982509E+02  0.50528842582E+02  0.29999947514E+02 0.  0.
        -12    1    1    2    0    0 -0.32615466932E+02  0.78686792503E+01 -0.22966982509E+02  0.40659157418E+02  0.00000000000E+00 0.  1.
         11    1    3    3    0    0  0.15809461758E+02 -0.65121510874E+01  0.14742009160E+02  0.22575961269E+02  0.51100000000E-03 0. -1.
        -11    1    3    3    0    0  0.17458506445E+02  0.47501258946E+01  0.11041757735E+02  0.21196309996E+02  0.51100000000E-03 0.  1.
        -12    1    3    3    0    0 -0.65250127127E+00 -0.61066540576E+01 -0.28167843866E+01  0.67565713175E+01  0.00000000000E+00 0.  1.
</event>
<event>
 7    1  0.2702714E-011  0.5052881E+02  0.7816164E-02  0.1300439E+00
        -11   -1    0    0    0    0  0.00000000000E+00  0.00000000000E+00  0.45593999997E+02  0.45594000000E+02  0.51100000000E-03 0.  1.
         11   -1    0    0    0    0 -0.00000000000E+00 -0.00000000000E+00 -0.45593999997E+02  0.45594000000E+02  0.51100000000E-03 0. -1.
    9900012    2    1    2    0    0  0.39742052655E+02 -0.64875378503E+01  0.56258764545E+01  0.50528814292E+02  0.29999861521E+02 0.  0.
        -12    1    1    2    0    0 -0.39742052655E+02  0.64875378503E+01 -0.56258764545E+01  0.40659185708E+02  0.00000000000E+00 0.  1.
         11    1    3    3    0    0  0.31976029268E+02 -0.12315636951E+02  0.11249777461E+02  0.36065202820E+02  0.51100000000E-03 0. -1.
        -11    1    3    3    0    0  0.74023525199E+01  0.23772243488E+00 -0.16297528500E+01  0.75833653083E+01  0.51100000000E-03 0.  1.
        -12    1    3    3    0    0  0.36367086718E+00  0.55903766663E+01 -0.39941481569E+01  0.68802461635E+01  0.00000000000E+00 0.  1.
</event>
<event>
 7    1  0.2702714E-011  0.5052888E+02  0.7816164E-02  0.1300439E+00
        -11   -1    0    0    0    0  0.00000000000E+00  0.00000000000E+00  0.45593999997E+02  0.45594000000E+02  0.51100000000E-03 0. -1.
         11   -1    0    0    0    0 -0.00000000000E+00 -0.00000000000E+00 -0.45593999997E+02  0.45594000000E+02  0.51100000000E-03 0.  1.
    9900012    2    1    2    0    0 -0.18104990570E+02 -0.30933306788E+02 -0.19196458964E+02  0.50528878156E+02  0.30000055643E+02 0.  0.
        -12    1    1    2    0    0  0.18104990570E+02  0.30933306788E+02  0.19196458964E+02  0.40659121844E+02  0.00000000000E+00 0.  1.
         11    1    3    3    0    0 -0.28128157422E+01  0.22714055896E+01 -0.11813188482E+01  0.38035155099E+01  0.51100000000E-03 0.  1.
        -11    1    3    3    0    0 -0.45601019081E+01 -0.30857505496E+02 -0.88644528529E+01  0.32427745828E+02  0.51100000000E-03 0. -1.
         12    1    3    3    0    0 -0.10732072920E+02 -0.23472068814E+01 -0.91506872627E+01  0.14297616818E+02  0.00000000000E+00 0. -1.
</event>
<event>
 7    1  0.2702714E-011  0.5052885E+02  0.7816164E-02  0.1300439E+00
        -11   -1    0    0    0    0  0.00000000000E+00  0.00000000000E+00  0.45593999997E+02  0.45594000000E+02  0.51100000000E-03 0.  1.
         11   -1    0    0    0    0 -0.00000000000E+00 -0.00000000000E+00 -0.45593999997E+02  0.45594000000E+02  0.51100000000E-03 0. -1.
    9900012    2    1    2    0    0 -0.10097807848E+02  0.37633414811E+02  0.11615787828E+02  0.50528853912E+02  0.29999981952E+02 0.  0.
        -12    1    1    2    0    0  0.10097807848E+02 -0.37633414811E+02 -0.11615787828E+02  0.40659146088E+02  0.00000000000E+00 0.  1.
         11    1    3    3    0    0  0.62210144298E+00 -0.35381143751E+01 -0.19451020456E+01  0.40851787924E+01  0.51100000000E-03 0. -1.
        -11    1    3    3    0    0 -0.54202314456E+00  0.13269712769E+00 -0.14676541658E+01  0.15701613384E+01  0.51100000000E-03 0.  1.
         12    1    3    3    0    0 -0.10177886146E+02  0.41038832059E+02  0.15028544040E+02  0.44873513782E+02  0.00000000000E+00 0. -1.
</event>
<event>
 7    1  0.3893626E-011  0.5052886E+02  0.7816164E-02  0.1300439E+00
        -11   -1    0    0    0    0  0.00000000000E+00  0.00000000000E+00  0.45593999997E+02  0.45594000000E+02  0.51100000000E-03 0. -1.
         11   -1    0    0    0    0 -0.00000000000E+00 -0.00000000000E+00 -0.45593999997E+02  0.45594000000E+02  0.51100000000E-03 0.  1.
    9900012    2    1    2    0    0  0.15171188603E+02  0.26794736994E+02  0.26552638170E+02  0.50528862183E+02  0.30000007092E+02 0.  0.
        -12    1    1    2    0    0 -0.15171188603E+02 -0.26794736994E+02 -0.26552638170E+02  0.40659137817E+02  0.00000000000E+00 0.  1.
         11    1    3    3    0    0  0.66789008255E+01  0.57424599972E+01  0.11123099965E+02  0.14188266848E+02  0.51100000000E-03 0. -1.
        -11    1    3    3    0    0  0.67082599689E+01 -0.37358858542E+01  0.14102353243E+01  0.78068148983E+01  0.51100000000E-03 0.  1.
        -12    1    3    3    0    0  0.17840278086E+01  0.24788162851E+02  0.14019302881E+02  0.28533780437E+02  0.00000000000E+00 0.  1.
</event>
<event>
 7    1  0.2702714E-011  0.5052886E+02  0.7816164E-02  0.1300439E+00
        -11   -1    0    0    0    0  0.00000000000E+00  0.00000000000E+00  0.45593999997E+02  0.45594000000E+02  0.51100000000E-03 0.  1.
         11   -1    0    0    0    0 -0.00000000000E+00 -0.00000000000E+00 -0.45593999997E+02  0.45594000000E+02  0.51100000000E-03 0. -1.
    9900012    2    1    2    0    0  0.23330820842E+02  0.33248463047E+02 -0.18379814174E+01  0.50528859922E+02  0.30000000220E+02 0.  0.
        -12    1    1    2    0    0 -0.23330820842E+02 -0.33248463047E+02  0.18379814174E+01  0.40659140078E+02  0.00000000000E+00 0.  1.
         11    1    3    3    0    0  0.22501685251E+02  0.19639547514E+02  0.30361921738E+01  0.30020928181E+02  0.51100000000E-03 0. -1.
        -11    1    3    3    0    0  0.26580466282E+01  0.14754784556E+02  0.20023088528E+00  0.14993631043E+02  0.51100000000E-03 0.  1.
        -12    1    3    3    0    0 -0.18289110369E+01 -0.11458690231E+01 -0.50744044765E+01  0.55143006982E+01  0.00000000000E+00 0.  1.
</event>
<event>
 7    1  0.2702714E-011  0.5052886E+02  0.7816164E-02  0.1300439E+00
        -11   -1    0    0    0    0  0.00000000000E+00  0.00000000000E+00  0.45593999997E+02  0.45594000000E+02  0.51100000000E-03 0.  1.
         11   -1    0    0    0    0 -0.00000000000E+00 -0.00000000000E+00 -0.45593999997E+02  0.45594000000E+02  0.51100000000E-03 0. -1.
    9900012    2    1    2    0    0 -0.15900462583E+02 -0.99149337915E+01 -0.36083726715E+02  0.50528856427E+02  0.29999989595E+02 0.  0.
        -12    1    1    2    0    0  0.15900462583E+02  0.99149337915E+01  0.36083726715E+02  0.40659143573E+02  0.00000000000E+00 0.  1.
         11    1    3    3    0    0 -0.14861792663E+02 -0.63497003987E+01 -0.23862558892E+02  0.28820362480E+02  0.51100000000E-03 0. -1.
        -11    1    3    3    0    0 -0.68696909811E+01 -0.78027101955E+01 -0.51135168846E+01  0.11585464849E+02  0.51100000000E-03 0.  1.
         12    1    3    3    0    0  0.58310210610E+01  0.42374768028E+01 -0.71076509384E+01  0.10123029099E+02  0.00000000000E+00 0. -1.
</event>
<event>
 7    1  0.2702714E-011  0.5052886E+02  0.7816164E-02  0.1300439E+00
        -11   -1    0    0    0    0  0.00000000000E+00  0.00000000000E+00  0.45593999997E+02  0.45594000000E+02  0.51100000000E-03 0.  1.
         11   -1    0    0    0    0 -0.00000000000E+00 -0.00000000000E+00 -0.45593999997E+02  0.45594000000E+02  0.51100000000E-03 0. -1.
    9900012    2    1    2    0    0 -0.38741661215E+02 -0.92992617626E+01 -0.81100793686E+01  0.50528856251E+02  0.29999989061E+02 0.  0.
        -12    1    1    2    0    0  0.38741661215E+02  0.92992617626E+01  0.81100793686E+01  0.40659143749E+02  0.00000000000E+00 0.  1.
         11    1    3    3    0    0 -0.33786486716E+02 -0.17473844371E+00 -0.15731566482E+02  0.37269818921E+02  0.51100000000E-03 0.  1.
        -11    1    3    3    0    0 -0.45245452283E+01 -0.73720542761E+01  0.47516911734E+01  0.98690051698E+01  0.51100000000E-03 0. -1.
        -12    1    3    3    0    0 -0.43062927049E+00 -0.17524690428E+01  0.28697959400E+01  0.33900321609E+01  0.00000000000E+00 0.  1.
</event>
<event>
 7    1  0.2702714E-011  0.5052886E+02  0.7816164E-02  0.1300439E+00
        -11   -1    0    0    0    0  0.00000000000E+00  0.00000000000E+00  0.45593999997E+02  0.45594000000E+02  0.51100000000E-03 0.  1.
         11   -1    0    0    0    0 -0.00000000000E+00 -0.00000000000E+00 -0.45593999997E+02  0.45594000000E+02  0.51100000000E-03 0. -1.
    9900012    2    1    2    0    0  0.77125375296E+01 -0.10386259464E+02 -0.38546182211E+02  0.50528858546E+02  0.29999996035E+02 0.  0.
        -12    1    1    2    0    0 -0.77125375296E+01  0.10386259464E+02  0.38546182211E+02  0.40659141454E+02  0.00000000000E+00 0.  1.
         11    1    3    3    0    0  0.11411197033E+02  0.91164476321E+00 -0.11714102550E+02  0.16378849554E+02  0.51100000000E-03 0. -1.
        -11    1    3    3    0    0  0.27727890214E+01 -0.12272208566E+02 -0.99393536842E+01  0.16033908256E+02  0.51100000000E-03 0.  1.
         12    1    3    3    0    0 -0.64714485248E+01  0.97430433851E+00 -0.16892725976E+02  0.18116100735E+02  0.00000000000E+00 0. -1.
</event>
<event>
 7    1  0.2702714E-011  0.5052886E+02  0.7816164E-02  0.1300439E+00
        -11   -1    0    0    0    0  0.00000000000E+00  0.00000000000E+00  0.45593999997E+02  0.45594000000E+02  0.51100000000E-03 0.  1.
         11   -1    0    0    0    0 -0.00000000000E+00 -0.00000000000E+00 -0.45593999997E+02  0.45594000000E+02  0.51100000000E-03 0. -1.
    9900012    2    1    2    0    0  0.54620540055E+01 -0.43777534999E+01 -0.40052054326E+02  0.50528858157E+02  0.29999994853E+02 0.  0.
        -12    1    1    2    0    0 -0.54620540055E+01  0.43777534999E+01  0.40052054326E+02  0.40659141843E+02  0.00000000000E+00 0.  1.
         11    1    3    3    0    0 -0.34951959045E+01  0.41181805836E+01 -0.14084510953E+02  0.15084735820E+02  0.51100000000E-03 0. -1.
        -11    1    3    3    0    0  0.60062364161E+01  0.57243148249E+01 -0.42615259309E+01  0.93275537855E+01  0.51100000000E-03 0.  1.
        -12    1    3    3    0    0  0.29510134939E+01 -0.14220248908E+02 -0.21706017443E+02  0.26116568551E+02  0.00000000000E+00 0.  1.
</event>
<event>
 7    1  0.2702714E-011  0.5052888E+02  0.7816164E-02  0.1300439E+00
        -11   -1    0    0    0    0  0.00000000000E+00  0.00000000000E+00  0.45593999997E+02  0.45594000000E+02  0.51100000000E-03 0.  1.
         11   -1    0    0    0    0 -0.00000000000E+00 -0.00000000000E+00 -0.45593999997E+02  0.45594000000E+02  0.51100000000E-03 0. -1.
    9900012    2    1    2    0    0  0.29468465312E+01 -0.38662431299E+02  0.12235054468E+02  0.50528879790E+02  0.30000060609E+02 0.  0.
        -12    1    1    2    0    0 -0.29468465312E+01  0.38662431299E+02 -0.12235054468E+02  0.40659120210E+02  0.00000000000E+00 0.  1.
         11    1    3    3    0    0 -0.23517673379E+01 -0.22938064971E+02  0.12562330029E+01  0.23092504322E+02  0.51100000000E-03 0. -1.
        -11    1    3    3    0    0 -0.54654772995E+01  0.14470961938E+00  0.48412542633E+01  0.73027478450E+01  0.51100000000E-03 0.  1.
        -12    1    3    3    0    0  0.10764091169E+02 -0.15869075947E+02  0.61375672015E+01  0.20133627623E+02  0.00000000000E+00 0.  1.
</event>
<event>
 7    1  0.2702714E-011  0.5052886E+02  0.7816164E-02  0.1300439E+00
        -11   -1    0    0    0    0  0.00000000000E+00  0.00000000000E+00  0.45593999997E+02  0.45594000000E+02  0.51100000000E-03 0. -1.
         11   -1    0    0    0    0 -0.00000000000E+00 -0.00000000000E+00 -0.45593999997E+02  0.45594000000E+02  0.51100000000E-03 0.  1.
    9900012    2    1    2    0    0 -0.12595450619E+02 -0.14670219058E+02  0.35767377792E+02  0.50528855670E+02  0.29999987296E+02 0.  0.
        -12    1    1    2    0    0  0.12595450619E+02  0.14670219058E+02 -0.35767377792E+02  0.40659144330E+02  0.00000000000E+00 0.  1.
         11    1    3    3    0    0  0.70408822094E+01 -0.10563640190E+02  0.95900950482E+01  0.15910199233E+02  0.51100000000E-03 0.  1.
        -11    1    3    3    0    0 -0.47407008889E+01 -0.59035727179E+01  0.74461125724E+01  0.10619369494E+02  0.51100000000E-03 0. -1.
        -12    1    3    3    0    0 -0.14895631939E+02  0.17969938502E+01  0.18731170172E+02  0.23999286943E+02  0.00000000000E+00 0.  1.
</event>
<event>
 7    1  0.2702714E-011  0.5052888E+02  0.7816164E-02  0.1300439E+00
        -11   -1    0    0    0    0  0.00000000000E+00  0.00000000000E+00  0.45593999997E+02  0.45594000000E+02  0.51100000000E-03 0.  1.
         11   -1    0    0    0    0 -0.00000000000E+00 -0.00000000000E+00 -0.45593999997E+02  0.45594000000E+02  0.51100000000E-03 0. -1.
    9900012    2    1    2    0    0  0.45379097015E+01  0.14271156693E+01 -0.40379880601E+02  0.50528879978E+02  0.30000061181E+02 0.  0.
        -12    1    1    2    0    0 -0.45379097015E+01 -0.14271156693E+01  0.40379880601E+02  0.40659120022E+02  0.00000000000E+00 0.  1.
         11    1    3    3    0    0  0.25773400977E+01  0.10657873227E+02 -0.16132573858E+02  0.19506226781E+02  0.51100000000E-03 0. -1.
        -11    1    3    3    0    0  0.79519076528E+01 -0.28138691757E+01 -0.48472495625E+01  0.97286444913E+01  0.51100000000E-03 0.  1.
        -12    1    3    3    0    0 -0.59913380490E+01 -0.64168883822E+01 -0.19400057181E+02  0.21294008706E+02  0.00000000000E+00 0.  1.
</event>
<event>
 7    1  0.2752118E-011  0.5052886E+02  0.7816164E-02  0.1300439E+00
        -11   -1    0    0    0    0  0.00000000000E+00  0.00000000000E+00  0.45593999997E+02  0.45594000000E+02  0.51100000000E-03 0. -1.
         11   -1    0    0    0    0 -0.00000000000E+00 -0.00000000000E+00 -0.45593999997E+02  0.45594000000E+02  0.51100000000E-03 0.  1.
    9900012    2    1    2    0    0 -0.11965043053E+02 -0.39835108456E+01  0.38654040010E+02  0.50528862983E+02  0.30000009522E+02 0.  0.
        -12    1    1    2    0    0  0.11965043053E+02  0.39835108456E+01 -0.38654040010E+02  0.40659137017E+02  0.00000000000E+00 0.  1.
         11    1    3    3    0    0 -0.56133162596E+01 -0.38659751505E+01  0.17638638374E+02  0.18909697175E+02  0.51100000000E-03 0. -1.
        -11    1    3    3    0    0 -0.14252308165E+02  0.25532653508E+01  0.91924254734E+01  0.17150747457E+02  0.51100000000E-03 0.  1.
        -12    1    3    3    0    0  0.79005813718E+01 -0.26708010459E+01  0.11822976163E+02  0.14468418351E+02  0.00000000000E+00 0.  1.
</event>
<event>
 7    1  0.2702714E-011  0.5052887E+02  0.7816164E-02  0.1300439E+00
        -11   -1    0    0    0    0  0.00000000000E+00  0.00000000000E+00  0.45593999997E+02  0.45594000000E+02  0.51100000000E-03 0.  1.
         11   -1    0    0    0    0 -0.00000000000E+00 -0.00000000000E+00 -0.45593999997E+02  0.45594000000E+02  0.51100000000E-03 0. -1.
    9900012    2    1    2    0    0  0.86948970713E+01 -0.34827808353E+02 -0.19094170419E+02  0.50528870475E+02  0.30000032296E+02 0.  0.
        -12    1    1    2    0    0 -0.86948970713E+01  0.34827808353E+02  0.19094170419E+02  0.40659129525E+02  0.00000000000E+00 0.  1.
         11    1    3    3    0    0  0.60435383971E+01 -0.29910757110E+02 -0.86357592478E+01  0.31713626177E+02  0.51100000000E-03 0. -1.
        -11    1    3    3    0    0  0.22570503388E+01 -0.90529801650E+01 -0.11218842765E+02  0.14591544104E+02  0.51100000000E-03 0.  1.
        -12    1    3    3    0    0  0.39430833541E+00  0.41359289221E+01  0.76043159437E+00  0.42237001932E+01  0.00000000000E+00 0.  1.
</event>
<event>
 7    1  0.2702714E-011  0.5052886E+02  0.7816164E-02  0.1300439E+00
        -11   -1    0    0    0    0  0.00000000000E+00  0.00000000000E+00  0.45593999997E+02  0.45594000000E+02  0.51100000000E-03 0.  1.
         11   -1    0    0    0    0 -0.00000000000E+00 -0.00000000000E+00 -0.45593999997E+02  0.45594000000E+02  0.51100000000E-03 0. -1.
    9900012    2    1    2    0    0  0.27247105520E+02 -0.27280841419E+02 -0.12904146529E+02  0.50528855083E+02  0.29999985510E+02 0.  0.
        -12    1    1    2    0    0 -0.27247105520E+02  0.27280841419E+02  0.12904146529E+02  0.40659144917E+02  0.00000000000E+00 0.  1.
         11    1    3    3    0    0  0.14208978472E+02 -0.26740445142E+02 -0.60826160072E+01  0.30885995101E+02  0.51100000000E-03 0.  1.
        -11    1    3    3    0    0  0.13556309348E+02 -0.18389906830E+01 -0.10682435026E+01  0.13722119163E+02  0.51100000000E-03 0. -1.
        -12    1    3    3    0    0 -0.51818230025E+00  0.12985944056E+01 -0.57532870193E+01  0.59207408196E+01  0.00000000000E+00 0.  1.
</event>
<event>
 7    1  0.2702714E-011  0.5052886E+02  0.7816164E-02  0.1300439E+00
        -11   -1    0    0    0    0  0.00000000000E+00  0.00000000000E+00  0.45593999997E+02  0.45594000000E+02  0.51100000000E-03 0.  1.
         11   -1    0    0    0    0 -0.00000000000E+00 -0.00000000000E+00 -0.45593999997E+02  0.45594000000E+02  0.51100000000E-03 0. -1.
    9900012    2    1    2    0    0 -0.45026385443E+01  0.32739226347E+02 -0.23686177075E+02  0.50528859821E+02  0.29999999911E+02 0.  0.
        -12    1    1    2    0    0  0.45026385443E+01 -0.32739226347E+02  0.23686177075E+02  0.40659140179E+02  0.00000000000E+00 0.  1.
         11    1    3    3    0    0 -0.71930731382E+01 -0.14077058248E+01 -0.49625445706E+01  0.88514849453E+01  0.51100000000E-03 0. -1.
        -11    1    3    3    0    0 -0.15091869511E+01  0.55557710204E+01  0.20242206280E+01  0.61025983234E+01  0.51100000000E-03 0.  1.
        -12    1    3    3    0    0  0.41996215450E+01  0.28591161152E+02 -0.20747853132E+02  0.35574776552E+02  0.00000000000E+00 0.  1.
</event>
<event>
 7    1  0.2702714E-011  0.5052885E+02  0.7816164E-02  0.1300439E+00
        -11   -1    0    0    0    0  0.00000000000E+00  0.00000000000E+00  0.45593999997E+02  0.45594000000E+02  0.51100000000E-03 0.  1.
         11   -1    0    0    0    0 -0.00000000000E+00 -0.00000000000E+00 -0.45593999997E+02  0.45594000000E+02  0.51100000000E-03 0. -1.
    9900012    2    1    2    0    0 -0.39806552811E+02  0.10875351384E+01  0.82110731306E+01  0.50528854641E+02  0.29999984166E+02 0.  0.
        -12    1    1    2    0    0  0.39806552811E+02 -0.10875351384E+01 -0.82110731306E+01  0.40659145359E+02  0.00000000000E+00 0.  1.
         11    1    3    3    0    0 -0.50440934443E+01  0.63967206261E+01 -0.16626867848E+01  0.83141710981E+01  0.51100000000E-03 0. -1.
        -11    1    3    3    0    0 -0.17002630023E+02 -0.12144898759E+02  0.26479801675E+00  0.20896365996E+02  0.51100000000E-03 0.  1.
         12    1    3    3    0    0 -0.17759829344E+02  0.68357132714E+01  0.96089618987E+01  0.21318317547E+02  0.00000000000E+00 0. -1.
</event>
<event>
 7    1  0.2702714E-011  0.5052886E+02  0.7816164E-02  0.1300439E+00
        -11   -1    0    0    0    0  0.00000000000E+00  0.00000000000E+00  0.45593999997E+02  0.45594000000E+02  0.51100000000E-03 0. -1.
         11   -1    0    0    0    0 -0.00000000000E+00 -0.00000000000E+00 -0.45593999997E+02  0.45594000000E+02  0.51100000000E-03 0.  1.
    9900012    2    1    2    0    0  0.14336832423E+02 -0.36164717311E+02  0.11820924668E+02  0.50528858320E+02  0.29999995350E+02 0.  0.
        -12    1    1    2    0    0 -0.14336832423E+02  0.36164717311E+02 -0.11820924668E+02  0.40659141680E+02  0.00000000000E+00 0.  1.
         11    1    3    3    0    0  0.43127189227E+01 -0.24346923134E+00 -0.15819450826E+01  0.46001491583E+01  0.51100000000E-03 0. -1.
        -11    1    3    3    0    0 -0.31840686470E+01 -0.21255425251E+02 -0.96784743918E+00  0.21514370190E+02  0.51100000000E-03 0.  1.
         12    1    3    3    0    0  0.13208182148E+02 -0.14665822829E+02  0.14370717189E+02  0.24414338972E+02  0.00000000000E+00 0. -1.
</event>
<event>
 7    1  0.2702714E-011  0.5052886E+02  0.7816164E-02  0.1300439E+00
        -11   -1    0    0    0    0  0.00000000000E+00  0.00000000000E+00  0.45593999997E+02  0.45594000000E+02  0.51100000000E-03 0.  1.
         11   -1    0    0    0    0 -0.00000000000E+00 -0.00000000000E+00 -0.45593999997E+02  0.45594000000E+02  0.51100000000E-03 0. -1.
    9900012    2    1    2    0    0  0.24553658470E+02 -0.31289504295E+02 -0.84410046312E+01  0.50528858562E+02  0.29999996085E+02 0.  0.
        -12    1    1    2    0    0 -0.24553658470E+02  0.31289504295E+02  0.84410046312E+01  0.40659141438E+02  0.00000000000E+00 0.  1.
         11    1    3    3    0    0  0.55173253754E+01 -0.75847296932E+01 -0.69518732353E+01  0.11674653980E+02  0.51100000000E-03 0. -1.
        -11    1    3    3    0    0  0.15333460683E+02 -0.98082677140E+00 -0.34494241047E+01  0.15747239904E+02  0.51100000000E-03 0.  1.
         12    1    3    3    0    0  0.37028724112E+01 -0.22723947831E+02  0.19602927088E+01  0.23106964678E+02  0.00000000000E+00 0. -1.
</event>
<event>
 7    1  0.2702714E-011  0.5052885E+02  0.7816164E-02  0.1300439E+00
        -11   -1    0    0    0    0  0.00000000000E+00  0.00000000000E+00  0.45593999997E+02  0.45594000000E+02  0.51100000000E-03 0.  1.
         11   -1    0    0    0    0 -0.00000000000E+00 -0.00000000000E+00 -0.45593999997E+02  0.45594000000E+02  0.51100000000E-03 0. -1.
    9900012    2    1    2    0    0 -0.24727932800E+02  0.18181815106E+02 -0.26666777872E+02  0.50528854618E+02  0.29999984098E+02 0.  0.
        -12    1    1    2    0    0  0.24727932800E+02 -0.18181815106E+02  0.26666777872E+02  0.40659145382E+02  0.00000000000E+00 0.  1.
         11    1    3    3    0    0 -0.11259754555E+02  0.16663727911E+02 -0.16514982489E+02  0.26023192491E+02  0.51100000000E-03 0. -1.
        -11    1    3    3    0    0 -0.12083701637E+02  0.78732008469E+01 -0.28034080193E+01  0.14692250801E+02  0.51100000000E-03 0.  1.
         12    1    3    3    0    0 -0.13844766082E+01 -0.63551136522E+01 -0.73483873639E+01  0.98134113264E+01  0.00000000000E+00 0. -1.
</event>
<event>
 7    1  0.2702714E-011  0.5052886E+02  0.7816164E-02  0.1300439E+00
        -11   -1    0    0    0    0  0.00000000000E+00  0.00000000000E+00  0.45593999997E+02  0.45594000000E+02  0.51100000000E-03 0. -1.
         11   -1    0    0    0    0 -0.00000000000E+00 -0.00000000000E+00 -0.45593999997E+02  0.45594000000E+02  0.51100000000E-03 0.  1.
    9900012    2    1    2    0    0  0.36270269587E+02 -0.74955517035E+01 -0.16776466623E+02  0.50528861008E+02  0.30000003520E+02 0.  0.
        -12    1    1    2    0    0 -0.36270269587E+02  0.74955517035E+01  0.16776466623E+02  0.40659138992E+02  0.00000000000E+00 0.  1.
         11    1    3    3    0    0  0.10560516318E+02 -0.16460008287E+01  0.16315595585E+01  0.10811836592E+02  0.51100000000E-03 0. -1.
        -11    1    3    3    0    0  0.28894666689E+02 -0.93288671221E+01 -0.14799012561E+02  0.33777807772E+02  0.51100000000E-03 0.  1.
         12    1    3    3    0    0 -0.31849134198E+01  0.34793162473E+01 -0.36090136201E+01  0.59392166445E+01  0.00000000000E+00 0. -1.
</event>
<event>
 7    1  0.2702714E-011  0.5052886E+02  0.7816164E-02  0.1300439E+00
        -11   -1    0    0    0    0  0.00000000000E+00  0.00000000000E+00  0.45593999997E+02  0.45594000000E+02  0.51100000000E-03 0.  1.
         11   -1    0    0    0    0 -0.00000000000E+00 -0.00000000000E+00 -0.45593999997E+02  0.45594000000E+02  0.51100000000E-03 0. -1.
    9900012    2    1    2    0    0 -0.14580858809E+02 -0.36927737978E+02 -0.87696478042E+01  0.50528855907E+02  0.29999988014E+02 0.  0.
        -12    1    1    2    0    0  0.14580858809E+02  0.36927737978E+02  0.87696478042E+01  0.40659144093E+02  0.00000000000E+00 0.  1.
         11    1    3    3    0    0 -0.14898340184E+02 -0.16500167945E+02 -0.12264177849E+01  0.22264774495E+02  0.51100000000E-03 0.  1.
        -11    1    3    3    0    0 -0.39345935196E+01 -0.64032247648E+01 -0.10890418725E+02  0.13231913460E+02  0.51100000000E-03 0. -1.
         12    1    3    3    0    0  0.42520748949E+01 -0.14024345268E+02  0.33471887053E+01  0.15032167952E+02  0.00000000000E+00 0. -1.
</event>
<event>
 7    1  0.2702714E-011  0.5052890E+02  0.7816164E-02  0.1300439E+00
        -11   -1    0    0    0    0  0.00000000000E+00  0.00000000000E+00  0.45593999997E+02  0.45594000000E+02  0.51100000000E-03 0. -1.
         11   -1    0    0    0    0 -0.00000000000E+00 -0.00000000000E+00 -0.45593999997E+02  0.45594000000E+02  0.51100000000E-03 0.  1.
    9900012    2    1    2    0    0 -0.22279517549E+02  0.22895000863E+02 -0.25151633606E+02  0.50528897208E+02  0.30000113555E+02 0.  0.
        -12    1    1    2    0    0  0.22279517549E+02 -0.22895000863E+02  0.25151633606E+02  0.40659102792E+02  0.00000000000E+00 0.  1.
         11    1    3    3    0    0  0.75402363414E+00  0.14747486412E+02 -0.98487147647E+01  0.17749763094E+02  0.51100000000E-03 0. -1.
        -11    1    3    3    0    0 -0.53991493392E+01 -0.24982144149E+01  0.15692319162E+01  0.61525911548E+01  0.51100000000E-03 0.  1.
         12    1    3    3    0    0 -0.17634391844E+02  0.10645728866E+02 -0.16872150757E+02  0.26626542960E+02  0.00000000000E+00 0. -1.
</event>
<event>
 7    1  0.2702714E-011  0.5052884E+02  0.7816164E-02  0.1300439E+00
        -11   -1    0    0    0    0  0.00000000000E+00  0.00000000000E+00  0.45593999997E+02  0.45594000000E+02  0.51100000000E-03 0.  1.
         11   -1    0    0    0    0 -0.00000000000E+00 -0.00000000000E+00 -0.45593999997E+02  0.45594000000E+02  0.51100000000E-03 0. -1.
    9900012    2    1    2    0    0  0.14481790894E+02 -0.19836306621E+02 -0.32403179021E+02  0.50528839426E+02  0.29999937921E+02 0.  0.
        -12    1    1    2    0    0 -0.14481790894E+02  0.19836306621E+02  0.32403179021E+02  0.40659160574E+02  0.00000000000E+00 0.  1.
         11    1    3    3    0    0  0.15769738837E+02 -0.11639234420E+02 -0.25925078376E+02  0.32500248151E+02  0.51100000000E-03 0. -1.
        -11    1    3    3    0    0  0.40517219501E+01 -0.10048939349E+02 -0.59268042291E+01  0.12350086697E+02  0.51100000000E-03 0.  1.
         12    1    3    3    0    0 -0.53396698935E+01  0.18518671470E+01 -0.55129641655E+00  0.56785045779E+01  0.00000000000E+00 0. -1.
</event>
<event>
 7    1  0.2702714E-011  0.5052886E+02  0.7816164E-02  0.1300439E+00
        -11   -1    0    0    0    0  0.00000000000E+00  0.00000000000E+00  0.45593999997E+02  0.45594000000E+02  0.51100000000E-03 0. -1.
         11   -1    0    0    0    0 -0.00000000000E+00 -0.00000000000E+00 -0.45593999997E+02  0.45594000000E+02  0.51100000000E-03 0.  1.
    9900012    2    1    2    0    0 -0.34779158982E+02  0.93953758191E+00  0.21040265140E+02  0.50528863419E+02  0.30000010849E+02 0.  0.
        -12    1    1    2    0    0  0.34779158982E+02 -0.93953758191E+00 -0.21040265140E+02  0.40659136581E+02  0.00000000000E+00 0.  1.
         11    1    3    3    0    0 -0.10533248604E+02  0.37345828554E+01 -0.36199825564E+01  0.11747370311E+02  0.51100000000E-03 0. -1.
        -11    1    3    3    0    0  0.25089523106E+01  0.50764794433E+00  0.55764914845E+00  0.26198322401E+01  0.51100000000E-03 0.  1.
         12    1    3    3    0    0 -0.26754862689E+02 -0.33026932178E+01  0.24102598548E+02  0.36161660868E+02  0.00000000000E+00 0. -1.
</event>
<event>
 7    1  0.2702714E-011  0.5052889E+02  0.7816164E-02  0.1300439E+00
        -11   -1    0    0    0    0  0.00000000000E+00  0.00000000000E+00  0.45593999997E+02  0.45594000000E+02  0.51100000000E-03 0.  1.
         11   -1    0    0    0    0 -0.00000000000E+00 -0.00000000000E+00 -0.45593999997E+02  0.45594000000E+02  0.51100000000E-03 0. -1.
    9900012    2    1    2    0    0  0.68681583752E+01  0.13146512535E+01 -0.40053259411E+02  0.50528886670E+02  0.30000081521E+02 0.  0.
        -12    1    1    2    0    0 -0.68681583752E+01 -0.13146512535E+01  0.40053259411E+02  0.40659113330E+02  0.00000000000E+00 0.  1.
         11    1    3    3    0    0  0.39044293327E+00  0.78641584971E+01 -0.60896852085E+01  0.99539791415E+01  0.51100000000E-03 0. -1.
        -11    1    3    3    0    0 -0.51962828986E+01 -0.78453504394E+01 -0.91670993928E+01  0.13137221587E+02  0.51100000000E-03 0.  1.
         12    1    3    3    0    0  0.11673998341E+02  0.12958431959E+01 -0.24796474810E+02  0.27437685941E+02  0.00000000000E+00 0. -1.
</event>
<event>
 7    1  0.2702714E-011  0.5052884E+02  0.7816164E-02  0.1300439E+00
        -11   -1    0    0    0    0  0.00000000000E+00  0.00000000000E+00  0.45593999997E+02  0.45594000000E+02  0.51100000000E-03 0.  1.
         11   -1    0    0    0    0 -0.00000000000E+00 -0.00000000000E+00 -0.45593999997E+02  0.45594000000E+02  0.51100000000E-03 0. -1.
    9900012    2    1    2    0    0  0.39310053875E+01 -0.30075035108E+02 -0.27077790710E+02  0.50528840025E+02  0.29999939741E+02 0.  0.
        -12    1    1    2    0    0 -0.39310053875E+01  0.30075035108E+02  0.27077790710E+02  0.40659159975E+02  0.00000000000E+00 0.  1.
         11    1    3    3    0    0 -0.59193629030E+01 -0.99601739809E+01 -0.14653367044E+02  0.18680607294E+02  0.51100000000E-03 0. -1.
        -11    1    3    3    0    0  0.74328200106E+01 -0.20607206723E+02 -0.16264161837E+02  0.27284184847E+02  0.51100000000E-03 0.  1.
        -12    1    3    3    0    0  0.24175482799E+01  0.49234559546E+00  0.38397381707E+01  0.45640478844E+01  0.00000000000E+00 0.  1.
</event>
<event>
 7    1  0.2702714E-011  0.5052886E+02  0.7816164E-02  0.1300439E+00
        -11   -1    0    0    0    0  0.00000000000E+00  0.00000000000E+00  0.45593999997E+02  0.45594000000E+02  0.51100000000E-03 0. -1.
         11   -1    0    0    0    0 -0.00000000000E+00 -0.00000000000E+00 -0.45593999997E+02  0.45594000000E+02  0.51100000000E-03 0.  1.
    9900012    2    1    2    0    0 -0.28220419026E+02  0.28121565851E+02 -0.81210270359E+01  0.50528860855E+02  0.30000003054E+02 0.  0.
        -12    1    1    2    0    0  0.28220419026E+02 -0.28121565851E+02  0.81210270359E+01  0.40659139145E+02  0.00000000000E+00 0.  1.
         11    1    3    3    0    0 -0.11916040709E+02  0.25497127431E+01 -0.81372012730E+01  0.14652887295E+02  0.51100000000E-03 0. -1.
        -11    1    3    3    0    0 -0.61711869269E+01  0.14374452069E+02 -0.92351435978E+01  0.18165800227E+02  0.51100000000E-03 0.  1.
        -12    1    3    3    0    0 -0.10133191389E+02  0.11197401040E+02  0.92513178350E+01  0.17710173332E+02  0.00000000000E+00 0.  1.
</event>
<event>
 7    1  0.2702714E-011  0.5052886E+02  0.7816164E-02  0.1300439E+00
        -11   -1    0    0    0    0  0.00000000000E+00  0.00000000000E+00  0.45593999997E+02  0.45594000000E+02  0.51100000000E-03 0.  1.
         11   -1    0    0    0    0 -0.00000000000E+00 -0.00000000000E+00 -0.45593999997E+02  0.45594000000E+02  0.51100000000E-03 0. -1.
    9900012    2    1    2    0    0 -0.18913224323E+02  0.35131696501E+02  0.78243066526E+01  0.50528856773E+02  0.29999990649E+02 0.  0.
        -12    1    1    2    0    0  0.18913224323E+02 -0.35131696501E+02 -0.78243066526E+01  0.40659143227E+02  0.00000000000E+00 0.  1.
         11    1    3    3    0    0 -0.23356394455E+01  0.15509609963E+01  0.39621466199E+01  0.48537920979E+01  0.51100000000E-03 0. -1.
        -11    1    3    3    0    0  0.39630300101E+01  0.10243484846E+02  0.89550821383E+01  0.14171382608E+02  0.51100000000E-03 0.  1.
         12    1    3    3    0    0 -0.20540614887E+02  0.23337250659E+02 -0.50929221056E+01  0.31503682068E+02  0.00000000000E+00 0. -1.
</event>
<event>
 7    1  0.2702714E-011  0.5052886E+02  0.7816164E-02  0.1300439E+00
        -11   -1    0    0    0    0  0.00000000000E+00  0.00000000000E+00  0.45593999997E+02  0.45594000000E+02  0.51100000000E-03 0.  1.
         11   -1    0    0    0    0 -0.00000000000E+00 -0.00000000000E+00 -0.45593999997E+02  0.45594000000E+02  0.51100000000E-03 0. -1.
    9900012    2    1    2    0    0  0.34351284349E+02  0.12391775684E+02 -0.17877318154E+02  0.50528863937E+02  0.30000012423E+02 0.  0.
        -12    1    1    2    0    0 -0.34351284349E+02 -0.12391775684E+02  0.17877318154E+02  0.40659136063E+02  0.00000000000E+00 0.  1.
         11    1    3    3    0    0  0.30116056001E+02  0.30820626964E+01 -0.22501753748E+01  0.30356864611E+02  0.51100000000E-03 0. -1.
        -11    1    3    3    0    0 -0.71726941529E+00 -0.97444972258E+00 -0.76181333399E+00  0.14298207905E+01  0.51100000000E-03 0.  1.
        -12    1    3    3    0    0  0.49524977628E+01  0.10284162710E+02 -0.14865329445E+02  0.18742178535E+02  0.00000000000E+00 0.  1.
</event>
<event>
 7    1  0.2702714E-011  0.5052885E+02  0.7816164E-02  0.1300439E+00
        -11   -1    0    0    0    0  0.00000000000E+00  0.00000000000E+00  0.45593999997E+02  0.45594000000E+02  0.51100000000E-03 0.  1.
         11   -1    0    0    0    0 -0.00000000000E+00 -0.00000000000E+00 -0.45593999997E+02  0.45594000000E+02  0.51100000000E-03 0. -1.
    9900012    2    1    2    0    0 -0.31514547172E+02  0.12757427198E+02 -0.22299053422E+02  0.50528850775E+02  0.29999972417E+02 0.  0.
        -12    1    1    2    0    0  0.31514547172E+02 -0.12757427198E+02  0.22299053422E+02  0.40659149225E+02  0.00000000000E+00 0.  1.
         11    1    3    3    0    0 -0.44390382726E+01 -0.27318752028E+00  0.14776459957E+01  0.46864837732E+01  0.51100000000E-03 0. -1.
        -11    1    3    3    0    0 -0.17703344083E+01  0.99513539637E+01  0.11697112884E+01  0.10175055498E+02  0.51100000000E-03 0.  1.
         12    1    3    3    0    0 -0.25305174491E+02  0.30792607542E+01 -0.24946410706E+02  0.35667311504E+02  0.00000000000E+00 0. -1.
</event>
<event>
 7    1  0.2702714E-011  0.5052886E+02  0.7816164E-02  0.1300439E+00
        -11   -1    0    0    0    0  0.00000000000E+00  0.00000000000E+00  0.45593999997E+02  0.45594000000E+02  0.51100000000E-03 0.  1.
         11   -1    0    0    0    0 -0.00000000000E+00 -0.00000000000E+00 -0.45593999997E+02  0.45594000000E+02  0.51100000000E-03 0. -1.
    9900012    2    1    2    0    0  0.18825577032E+02 -0.22071003776E+01 -0.35970707582E+02  0.50528862692E+02  0.30000008639E+02 0.  0.
        -12    1    1    2    0    0 -0.18825577032E+02  0.22071003776E+01  0.35970707582E+02  0.40659137308E+02  0.00000000000E+00 0.  1.
         11    1    3    3    0    0  0.28221906013E+01 -0.53450985213E+00  0.26940239805E+01  0.39380485066E+01  0.51100000000E-03 0.  1.
        -11    1    3    3    0    0 -0.21590173674E+01  0.59250394363E+01 -0.91722975837E+01  0.11130969928E+02  0.51100000000E-03 0. -1.
         12    1    3    3    0    0  0.18162403798E+02 -0.75976299617E+01 -0.29492433979E+02  0.35459844257E+02  0.00000000000E+00 0. -1.
</event>
<event>
 7    1  0.2702714E-011  0.5052886E+02  0.7816164E-02  0.1300439E+00
        -11   -1    0    0    0    0  0.00000000000E+00  0.00000000000E+00  0.45593999997E+02  0.45594000000E+02  0.51100000000E-03 0. -1.
         11   -1    0    0    0    0 -0.00000000000E+00 -0.00000000000E+00 -0.45593999997E+02  0.45594000000E+02  0.51100000000E-03 0.  1.
    9900012    2    1    2    0    0 -0.33267945601E+02  0.92812246090E+01  0.21453861878E+02  0.50528861738E+02  0.30000005737E+02 0.  0.
        -12    1    1    2    0    0  0.33267945601E+02 -0.92812246090E+01 -0.21453861878E+02  0.40659138262E+02  0.00000000000E+00 0.  1.
         11    1    3    3    0    0 -0.24901197543E+02 -0.24013128497E+01  0.34641102817E+01  0.25255415316E+02  0.51100000000E-03 0. -1.
        -11    1    3    3    0    0  0.12005904625E+01 -0.80369373116E+00  0.38875995282E+01  0.41473812732E+01  0.51100000000E-03 0.  1.
        -12    1    3    3    0    0 -0.95673385206E+01  0.12486231190E+02  0.14102152068E+02  0.21126065148E+02  0.00000000000E+00 0.  1.
</event>
<event>
 7    1  0.2702714E-011  0.5052886E+02  0.7816164E-02  0.1300439E+00
        -11   -1    0    0    0    0  0.00000000000E+00  0.00000000000E+00  0.45593999997E+02  0.45594000000E+02  0.51100000000E-03 0. -1.
         11   -1    0    0    0    0 -0.00000000000E+00 -0.00000000000E+00 -0.45593999997E+02  0.45594000000E+02  0.51100000000E-03 0.  1.
    9900012    2    1    2    0    0 -0.28878443218E+00  0.20115952462E+02  0.35333143325E+02  0.50528856414E+02  0.29999989556E+02 0.  0.
        -12    1    1    2    0    0  0.28878443218E+00 -0.20115952462E+02 -0.35333143325E+02  0.40659143586E+02  0.00000000000E+00 0.  1.
         11    1    3    3    0    0  0.78664057417E+01  0.96104807530E+01  0.16308421301E+02  0.20498933757E+02  0.51100000000E-03 0. -1.
        -11    1    3    3    0    0 -0.31257889121E+00  0.86451108215E+01 -0.74247853989E+00  0.86825642135E+01  0.51100000000E-03 0.  1.
        -12    1    3    3    0    0 -0.78426112827E+01  0.18603608876E+01  0.19767200564E+02  0.21347358444E+02  0.00000000000E+00 0.  1.
</event>
<event>
 7    1  0.4550706E-011  0.5052886E+02  0.7816164E-02  0.1300439E+00
        -11   -1    0    0    0    0  0.00000000000E+00  0.00000000000E+00  0.45593999997E+02  0.45594000000E+02  0.51100000000E-03 0. -1.
         11   -1    0    0    0    0 -0.00000000000E+00 -0.00000000000E+00 -0.45593999997E+02  0.45594000000E+02  0.51100000000E-03 0.  1.
    9900012    2    1    2    0    0 -0.20459001599E+02 -0.12191412311E+02  0.32953975338E+02  0.50528858701E+02  0.29999996509E+02 0.  0.
        -12    1    1    2    0    0  0.20459001599E+02  0.12191412311E+02 -0.32953975338E+02  0.40659141299E+02  0.00000000000E+00 0.  1.
         11    1    3    3    0    0 -0.21382520816E+02 -0.56385017142E+01  0.27234207309E+02  0.35081433067E+02  0.51100000000E-03 0. -1.
        -11    1    3    3    0    0 -0.17183905637E+01  0.27545149607E+01 -0.12966626478E+01  0.34959337925E+01  0.51100000000E-03 0.  1.
        -12    1    3    3    0    0  0.26419097809E+01 -0.93074255575E+01  0.70164306767E+01  0.11951491842E+02  0.00000000000E+00 0.  1.
</event>
<event>
 7    1  0.2702714E-011  0.5052887E+02  0.7816164E-02  0.1300439E+00
        -11   -1    0    0    0    0  0.00000000000E+00  0.00000000000E+00  0.45593999997E+02  0.45594000000E+02  0.51100000000E-03 0.  1.
         11   -1    0    0    0    0 -0.00000000000E+00 -0.00000000000E+00 -0.45593999997E+02  0.45594000000E+02  0.51100000000E-03 0. -1.
    9900012    2    1    2    0    0 -0.46844969328E+01  0.22686290094E+02 -0.33414856139E+02  0.50528869653E+02  0.30000029798E+02 0.  0.
        -12    1    1    2    0    0  0.46844969328E+01 -0.22686290094E+02  0.33414856139E+02  0.40659130347E+02  0.00000000000E+00 0.  1.
         11    1    3    3    0    0  0.29012200287E+01  0.66990786935E+01 -0.15081020030E+02  0.16755055905E+02  0.51100000000E-03 0. -1.
        -11    1    3    3    0    0 -0.57637160532E+00  0.11231631134E+02  0.22910058556E+01  0.11477388651E+02  0.51100000000E-03 0.  1.
         12    1    3    3    0    0 -0.70093453562E+01  0.47555802666E+01 -0.20624841965E+02  0.22296425097E+02  0.00000000000E+00 0. -1.
</event>
<event>
 7    1  0.2702714E-011  0.5052873E+02  0.7816164E-02  0.1300439E+00
        -11   -1    0    0    0    0  0.00000000000E+00  0.00000000000E+00  0.45593999997E+02  0.45594000000E+02  0.51100000000E-03 0.  1.
         11   -1    0    0    0    0 -0.00000000000E+00 -0.00000000000E+00 -0.45593999997E+02  0.45594000000E+02  0.51100000000E-03 0. -1.
    9900012    2    1    2    0    0  0.33125275549E+02 -0.23201498641E+02 -0.41931751626E+01  0.50528731225E+02  0.29999609029E+02 0.  0.
        -12    1    1    2    0    0 -0.33125275549E+02  0.23201498641E+02  0.41931751626E+01  0.40659268775E+02  0.00000000000E+00 0.  1.
         11    1    3    3    0    0 -0.62387317033E+00 -0.31838188440E+01 -0.62507052782E+00  0.33040329281E+01  0.51100000000E-03 0. -1.
        -11    1    3    3    0    0  0.25290284205E+02 -0.90284819105E+01 -0.13607490428E+02  0.30104414241E+02  0.51100000000E-03 0.  1.
         12    1    3    3    0    0  0.84588645144E+01 -0.10989197886E+02  0.10039385793E+02  0.17120284056E+02  0.00000000000E+00 0. -1.
</event>
<event>
 7    1  0.2702714E-011  0.5052886E+02  0.7816164E-02  0.1300439E+00
        -11   -1    0    0    0    0  0.00000000000E+00  0.00000000000E+00  0.45593999997E+02  0.45594000000E+02  0.51100000000E-03 0. -1.
         11   -1    0    0    0    0 -0.00000000000E+00 -0.00000000000E+00 -0.45593999997E+02  0.45594000000E+02  0.51100000000E-03 0.  1.
    9900012    2    1    2    0    0  0.19054272255E+02 -0.15442816639E+01  0.35884752695E+02  0.50528861138E+02  0.30000003915E+02 0.  0.
        -12    1    1    2    0    0 -0.19054272255E+02  0.15442816639E+01 -0.35884752695E+02  0.40659138862E+02  0.00000000000E+00 0.  1.
         11    1    3    3    0    0  0.44255343772E+01 -0.87394501934E+01  0.10052121314E+02  0.14035971195E+02  0.51100000000E-03 0. -1.
        -11    1    3    3    0    0  0.14006736864E+02 -0.10820290997E+00  0.57983598214E+01  0.15159860234E+02  0.51100000000E-03 0.  1.
        -12    1    3    3    0    0  0.62200101415E+00  0.73033714394E+01  0.20034271559E+02  0.21333029709E+02  0.00000000000E+00 0.  1.
</event>
<event>
 7    1  0.2702714E-011  0.5052886E+02  0.7816164E-02  0.1300439E+00
        -11   -1    0    0    0    0  0.00000000000E+00  0.00000000000E+00  0.45593999997E+02  0.45594000000E+02  0.51100000000E-03 0.  1.
         11   -1    0    0    0    0 -0.00000000000E+00 -0.00000000000E+00 -0.45593999997E+02  0.45594000000E+02  0.51100000000E-03 0. -1.
    9900012    2    1    2    0    0  0.38278950601E+02  0.80867943370E+01 -0.11067575936E+02  0.50528861558E+02  0.30000005192E+02 0.  0.
        -12    1    1    2    0    0 -0.38278950601E+02 -0.80867943370E+01  0.11067575936E+02  0.40659138442E+02  0.00000000000E+00 0.  1.
         11    1    3    3    0    0  0.28344886749E+02  0.18214204365E+02 -0.10771851639E+02  0.35372625481E+02  0.51100000000E-03 0. -1.
        -11    1    3    3    0    0  0.27974236725E+01 -0.56905021391E+00  0.12713999936E+01  0.31250368885E+01  0.51100000000E-03 0.  1.
         12    1    3    3    0    0  0.71366401792E+01 -0.95583598137E+01 -0.15671242912E+01  0.12031199189E+02  0.00000000000E+00 0. -1.
</event>
<event>
 7    1  0.2702714E-011  0.5052885E+02  0.7816164E-02  0.1300439E+00
        -11   -1    0    0    0    0  0.00000000000E+00  0.00000000000E+00  0.45593999997E+02  0.45594000000E+02  0.51100000000E-03 0.  1.
         11   -1    0    0    0    0 -0.00000000000E+00 -0.00000000000E+00 -0.45593999997E+02  0.45594000000E+02  0.51100000000E-03 0. -1.
    9900012    2    1    2    0    0  0.21308796320E+02 -0.15652382016E+02 -0.30888577604E+02  0.50528854782E+02  0.29999984597E+02 0.  0.
        -12    1    1    2    0    0 -0.21308796320E+02  0.15652382016E+02  0.30888577604E+02  0.40659145218E+02  0.00000000000E+00 0.  1.
         11    1    3    3    0    0 -0.33147769941E+01  0.27440286039E+00 -0.20450174119E-01  0.33261782756E+01  0.51100000000E-03 0.  1.
        -11    1    3    3    0    0  0.12926259707E+02 -0.18259967837E+02 -0.13488836331E+02  0.26123998952E+02  0.51100000000E-03 0. -1.
         12    1    3    3    0    0  0.11697313607E+02  0.23331829601E+01 -0.17379291099E+02  0.21078677555E+02  0.00000000000E+00 0. -1.
</event>
<event>
 7    1  0.2702714E-011  0.5052885E+02  0.7816164E-02  0.1300439E+00
        -11   -1    0    0    0    0  0.00000000000E+00  0.00000000000E+00  0.45593999997E+02  0.45594000000E+02  0.51100000000E-03 0.  1.
         11   -1    0    0    0    0 -0.00000000000E+00 -0.00000000000E+00 -0.45593999997E+02  0.45594000000E+02  0.51100000000E-03 0. -1.
    9900012    2    1    2    0    0 -0.23017455675E+02 -0.34317761301E+01 -0.33340452973E+02  0.50528853949E+02  0.29999982063E+02 0.  0.
        -12    1    1    2    0    0  0.23017455675E+02  0.34317761301E+01  0.33340452973E+02  0.40659146051E+02  0.00000000000E+00 0.  1.
         11    1    3    3    0    0 -0.23988423734E+02 -0.49565204955E+01 -0.25717997490E+02  0.35516573087E+02  0.51100000000E-03 0. -1.
        -11    1    3    3    0    0 -0.30484415244E+01 -0.10566428898E+01  0.23253128951E+01  0.39770051855E+01  0.51100000000E-03 0.  1.
         12    1    3    3    0    0  0.40194095833E+01  0.25813872553E+01 -0.99477683776E+01  0.11035275676E+02  0.00000000000E+00 0. -1.
</event>
<event>
 7    1  0.2702714E-011  0.5052891E+02  0.7816164E-02  0.1300439E+00
        -11   -1    0    0    0    0  0.00000000000E+00  0.00000000000E+00  0.45593999997E+02  0.45594000000E+02  0.51100000000E-03 0.  1.
         11   -1    0    0    0    0 -0.00000000000E+00 -0.00000000000E+00 -0.45593999997E+02  0.45594000000E+02  0.51100000000E-03 0. -1.
    9900012    2    1    2    0    0 -0.22533849964E+02  0.33023549317E+02 -0.74049163635E+01  0.50528905199E+02  0.30000137842E+02 0.  0.
        -12    1    1    2    0    0  0.22533849964E+02 -0.33023549317E+02  0.74049163635E+01  0.40659094801E+02  0.00000000000E+00 0.  1.
         11    1    3    3    0    0 -0.61186031694E+01  0.15265148412E+02 -0.73863240990E+01  0.18028306763E+02  0.51100000000E-03 0. -1.
        -11    1    3    3    0    0  0.42423060770E+01 -0.11255065730E+01 -0.97521565399E+00  0.44961062854E+01  0.51100000000E-03 0.  1.
         12    1    3    3    0    0 -0.20657552872E+02  0.18883907478E+02  0.95662338950E+00  0.28004492150E+02  0.00000000000E+00 0. -1.
</event>
<event>
 7    1  0.2702714E-011  0.5052886E+02  0.7816164E-02  0.1300439E+00
        -11   -1    0    0    0    0  0.00000000000E+00  0.00000000000E+00  0.45593999997E+02  0.45594000000E+02  0.51100000000E-03 0.  1.
         11   -1    0    0    0    0 -0.00000000000E+00 -0.00000000000E+00 -0.45593999997E+02  0.45594000000E+02  0.51100000000E-03 0. -1.
    9900012    2    1    2    0    0 -0.70372736117E+01 -0.39851374222E+02 -0.39383313527E+01  0.50528859562E+02  0.29999999126E+02 0.  0.
        -12    1    1    2    0    0  0.70372736117E+01  0.39851374222E+02  0.39383313527E+01  0.40659140438E+02  0.00000000000E+00 0.  1.
         11    1    3    3    0    0 -0.13786361452E+02 -0.13505594686E+02 -0.89776476973E+01  0.21285276797E+02  0.51100000000E-03 0. -1.
        -11    1    3    3    0    0  0.16160576739E+01 -0.11940703888E+00 -0.91973657821E+00  0.18632809988E+01  0.51100000000E-03 0.  1.
        -12    1    3    3    0    0  0.51330301664E+01 -0.26226372498E+02  0.59590529229E+01  0.27380301766E+02  0.00000000000E+00 0.  1.
</event>
<event>
 7    1  0.2702714E-011  0.5052889E+02  0.7816164E-02  0.1300439E+00
        -11   -1    0    0    0    0  0.00000000000E+00  0.00000000000E+00  0.45593999997E+02  0.45594000000E+02  0.51100000000E-03 0. -1.
         11   -1    0    0    0    0 -0.00000000000E+00 -0.00000000000E+00 -0.45593999997E+02  0.45594000000E+02  0.51100000000E-03 0.  1.
    9900012    2    1    2    0    0  0.35775394927E+02  0.17794495390E+02  0.75259842662E+01  0.50528888013E+02  0.30000085605E+02 0.  0.
        -12    1    1    2    0    0 -0.35775394927E+02 -0.17794495390E+02 -0.75259842662E+01  0.40659111987E+02  0.00000000000E+00 0.  1.
         11    1    3    3    0    0  0.16158200287E+01 -0.34415095678E+01 -0.19319575401E+01  0.42646597365E+01  0.51100000000E-03 0.  1.
        -11    1    3    3    0    0  0.16127985092E+02  0.95501892705E+01 -0.61277633429E+01  0.19719723681E+02  0.51100000000E-03 0. -1.
         12    1    3    3    0    0  0.18031589807E+02  0.11685815687E+02  0.15585705149E+02  0.26544504596E+02  0.00000000000E+00 0. -1.
</event>
<event>
 7    1  0.2702714E-011  0.5052887E+02  0.7816164E-02  0.1300439E+00
        -11   -1    0    0    0    0  0.00000000000E+00  0.00000000000E+00  0.45593999997E+02  0.45594000000E+02  0.51100000000E-03 0.  1.
         11   -1    0    0    0    0 -0.00000000000E+00 -0.00000000000E+00 -0.45593999997E+02  0.45594000000E+02  0.51100000000E-03 0. -1.
    9900012    2    1    2    0    0  0.11608830848E+02  0.38952812608E+02 -0.10385421028E+01  0.50528866543E+02  0.30000020346E+02 0.  0.
        -12    1    1    2    0    0 -0.11608830848E+02 -0.38952812608E+02  0.10385421028E+01  0.40659133457E+02  0.00000000000E+00 0.  1.
         11    1    3    3    0    0 -0.58462663052E+01  0.11630324829E+02  0.21368135683E+01  0.13191256871E+02  0.51100000000E-03 0. -1.
        -11    1    3    3    0    0  0.67513950838E+01  0.23967594042E+02  0.20071759400E+01  0.24981105965E+02  0.51100000000E-03 0.  1.
        -12    1    3    3    0    0  0.10703702069E+02  0.33548937369E+01 -0.51825316111E+01  0.12356503707E+02  0.00000000000E+00 0.  1.
</event>
<event>
 7    1  0.2702714E-011  0.5052885E+02  0.7816164E-02  0.1300439E+00
        -11   -1    0    0    0    0  0.00000000000E+00  0.00000000000E+00  0.45593999997E+02  0.45594000000E+02  0.51100000000E-03 0.  1.
         11   -1    0    0    0    0 -0.00000000000E+00 -0.00000000000E+00 -0.45593999997E+02  0.45594000000E+02  0.51100000000E-03 0. -1.
    9900012    2    1    2    0    0 -0.20428876788E+02 -0.14559135628E+02 -0.31997800998E+02  0.50528847208E+02  0.29999961574E+02 0.  0.
        -12    1    1    2    0    0  0.20428876788E+02  0.14559135628E+02  0.31997800998E+02  0.40659152792E+02  0.00000000000E+00 0.  1.
         11    1    3    3    0    0 -0.11746898871E+02 -0.14834927146E+02 -0.93775247731E+01  0.21118775240E+02  0.51100000000E-03 0. -1.
        -11    1    3    3    0    0  0.41856503273E+01 -0.33438993998E+01 -0.53517233186E+01  0.75724681972E+01  0.51100000000E-03 0.  1.
         12    1    3    3    0    0 -0.12867628245E+02  0.36196909181E+01 -0.17268552906E+02  0.21837603771E+02  0.00000000000E+00 0. -1.
</event>
<event>
 7    1  0.2702714E-011  0.5052887E+02  0.7816164E-02  0.1300439E+00
        -11   -1    0    0    0    0  0.00000000000E+00  0.00000000000E+00  0.45593999997E+02  0.45594000000E+02  0.51100000000E-03 0. -1.
         11   -1    0    0    0    0 -0.00000000000E+00 -0.00000000000E+00 -0.45593999997E+02  0.45594000000E+02  0.51100000000E-03 0.  1.
    9900012    2    1    2    0    0 -0.20526626869E+02 -0.16869462000E+01  0.35056764118E+02  0.50528869310E+02  0.30000028754E+02 0.  0.
        -12    1    1    2    0    0  0.20526626869E+02  0.16869462000E+01 -0.35056764118E+02  0.40659130690E+02  0.00000000000E+00 0.  1.
         11    1    3    3    0    0 -0.13230832427E+02 -0.54754277260E+01  0.98183572263E+01  0.17361894320E+02  0.51100000000E-03 0. -1.
        -11    1    3    3    0    0  0.29713924412E+01 -0.15796446573E+01 -0.17527571762E+01  0.37942862652E+01  0.51100000000E-03 0.  1.
         12    1    3    3    0    0 -0.10267186883E+02  0.53681261832E+01  0.26991164067E+02  0.29372688725E+02  0.00000000000E+00 0. -1.
</event>
<event>
 7    1  0.2702714E-011  0.5052886E+02  0.7816164E-02  0.1300439E+00
        -11   -1    0    0    0    0  0.00000000000E+00  0.00000000000E+00  0.45593999997E+02  0.45594000000E+02  0.51100000000E-03 0.  1.
         11   -1    0    0    0    0 -0.00000000000E+00 -0.00000000000E+00 -0.45593999997E+02  0.45594000000E+02  0.51100000000E-03 0. -1.
    9900012    2    1    2    0    0  0.22456971284E+02  0.15761739690E+02 -0.30006960180E+02  0.50528860110E+02  0.30000000792E+02 0.  0.
        -12    1    1    2    0    0 -0.22456971284E+02 -0.15761739690E+02  0.30006960180E+02  0.40659139890E+02  0.00000000000E+00 0.  1.
         11    1    3    3    0    0  0.25062891408E+01 -0.55834090450E+01 -0.62281855789E+01  0.87319091663E+01  0.51100000000E-03 0. -1.
        -11    1    3    3    0    0  0.12421257678E+02  0.76119527463E+01 -0.16141517045E+01  0.14657249159E+02  0.51100000000E-03 0.  1.
         12    1    3    3    0    0  0.75294244649E+01  0.13733195989E+02 -0.22164622897E+02  0.27139701785E+02  0.00000000000E+00 0. -1.
</event>
<event>
 7    1  0.2702714E-011  0.5052886E+02  0.7816164E-02  0.1300439E+00
        -11   -1    0    0    0    0  0.00000000000E+00  0.00000000000E+00  0.45593999997E+02  0.45594000000E+02  0.51100000000E-03 0.  1.
         11   -1    0    0    0    0 -0.00000000000E+00 -0.00000000000E+00 -0.45593999997E+02  0.45594000000E+02  0.51100000000E-03 0. -1.
    9900012    2    1    2    0    0 -0.80203429074E+01  0.12914899452E+02 -0.37710016112E+02  0.50528857813E+02  0.29999993808E+02 0.  0.
        -12    1    1    2    0    0  0.80203429074E+01 -0.12914899452E+02  0.37710016112E+02  0.40659142187E+02  0.00000000000E+00 0.  1.
         11    1    3    3    0    0 -0.12940911312E+02  0.56218138587E+01 -0.26533149614E+02  0.30051289579E+02  0.51100000000E-03 0. -1.
        -11    1    3    3    0    0 -0.17518436139E+01 -0.24982882226E+01  0.12589332076E+01  0.33008049281E+01  0.51100000000E-03 0.  1.
        -12    1    3    3    0    0  0.66724120185E+01  0.97913738163E+01 -0.12435799706E+02  0.17176763306E+02  0.00000000000E+00 0.  1.
</event>
<event>
 7    1  0.2702714E-011  0.5052888E+02  0.7816164E-02  0.1300439E+00
        -11   -1    0    0    0    0  0.00000000000E+00  0.00000000000E+00  0.45593999997E+02  0.45594000000E+02  0.51100000000E-03 0.  1.
         11   -1    0    0    0    0 -0.00000000000E+00 -0.00000000000E+00 -0.45593999997E+02  0.45594000000E+02  0.51100000000E-03 0. -1.
    9900012    2    1    2    0    0  0.36808776154E+02  0.70115005187E+01 -0.15783428484E+02  0.50528883480E+02  0.30000071825E+02 0.  0.
        -12    1    1    2    0    0 -0.36808776154E+02 -0.70115005187E+01  0.15783428484E+02  0.40659116520E+02  0.00000000000E+00 0.  1.
         11    1    3    3    0    0  0.34669410798E+02  0.15333982412E+01 -0.12963088956E+02  0.37045391492E+02  0.51100000000E-03 0. -1.
        -11    1    3    3    0    0  0.62185369440E+01  0.64411168906E+01 -0.24121336744E+01  0.92723555608E+01  0.51100000000E-03 0.  1.
        -12    1    3    3    0    0 -0.40791715878E+01 -0.96301461311E+00 -0.40820585339E+00  0.42111364269E+01  0.00000000000E+00 0.  1.
</event>
<event>
 7    1  0.2702714E-011  0.5052886E+02  0.7816164E-02  0.1300439E+00
        -11   -1    0    0    0    0  0.00000000000E+00  0.00000000000E+00  0.45593999997E+02  0.45594000000E+02  0.51100000000E-03 0.  1.
         11   -1    0    0    0    0 -0.00000000000E+00 -0.00000000000E+00 -0.45593999997E+02  0.45594000000E+02  0.51100000000E-03 0. -1.
    9900012    2    1    2    0    0 -0.35267415687E+01 -0.81998484586E+01 -0.39667239685E+02  0.50528864187E+02  0.30000013184E+02 0.  0.
        -12    1    1    2    0    0  0.35267415687E+01  0.81998484586E+01  0.39667239685E+02  0.40659135813E+02  0.00000000000E+00 0.  1.
         11    1    3    3    0    0 -0.47425745476E+01 -0.10281798296E+02 -0.17804357888E+02  0.21099823449E+02  0.51100000000E-03 0. -1.
        -11    1    3    3    0    0 -0.74604769455E+01  0.87651028105E+00 -0.18637656176E+02  0.20094507074E+02  0.51100000000E-03 0.  1.
        -12    1    3    3    0    0  0.86763099244E+01  0.12054395564E+01 -0.32252256206E+01  0.93345336644E+01  0.00000000000E+00 0.  1.
</event>
<event>
 7    1  0.2702714E-011  0.5052885E+02  0.7816164E-02  0.1300439E+00
        -11   -1    0    0    0    0  0.00000000000E+00  0.00000000000E+00  0.45593999997E+02  0.45594000000E+02  0.51100000000E-03 0.  1.
         11   -1    0    0    0    0 -0.00000000000E+00 -0.00000000000E+00 -0.45593999997E+02  0.45594000000E+02  0.51100000000E-03 0. -1.
    9900012    2    1    2    0    0 -0.12128749071E+02  0.26641100154E+02 -0.28218990201E+02  0.50528853681E+02  0.29999981249E+02 0.  0.
        -12    1    1    2    0    0  0.12128749071E+02 -0.26641100154E+02  0.28218990201E+02  0.40659146319E+02  0.00000000000E+00 0.  1.
         11    1    3    3    0    0  0.28659023662E+01  0.11290596425E+02  0.20704979242E+01  0.11831226730E+02  0.51100000000E-03 0. -1.
        -11    1    3    3    0    0 -0.69271993269E+00 -0.10182836354E+01  0.20554287761E+00  0.12486034611E+01  0.51100000000E-03 0.  1.
         12    1    3    3    0    0 -0.14301931505E+02  0.16368787364E+02 -0.30495031002E+02  0.37449023490E+02  0.00000000000E+00 0. -1.
</event>
<event>
 7    1  0.2702714E-011  0.5052886E+02  0.7816164E-02  0.1300439E+00
        -11   -1    0    0    0    0  0.00000000000E+00  0.00000000000E+00  0.45593999997E+02  0.45594000000E+02  0.51100000000E-03 0.  1.
         11   -1    0    0    0    0 -0.00000000000E+00 -0.00000000000E+00 -0.45593999997E+02  0.45594000000E+02  0.51100000000E-03 0. -1.
    9900012    2    1    2    0    0 -0.15321426170E+01  0.40477728890E+02 -0.35173518336E+01  0.50528858825E+02  0.29999996886E+02 0.  0.
        -12    1    1    2    0    0  0.15321426170E+01 -0.40477728890E+02  0.35173518336E+01  0.40659141175E+02  0.00000000000E+00 0.  1.
         11    1    3    3    0    0  0.10108403219E+02  0.30025287576E+02 -0.44522642891E+01  0.31992504860E+02  0.51100000000E-03 0. -1.
        -11    1    3    3    0    0 -0.27522954728E+01 -0.17489794037E+01  0.10950880894E+01  0.34399531260E+01  0.51100000000E-03 0.  1.
        -12    1    3    3    0    0 -0.88882503635E+01  0.12201420718E+02 -0.16017563385E+00  0.15096400839E+02  0.00000000000E+00 0.  1.
</event>
<event>
 7    1  0.2702714E-011  0.5052887E+02  0.7816164E-02  0.1300439E+00
        -11   -1    0    0    0    0  0.00000000000E+00  0.00000000000E+00  0.45593999997E+02  0.45594000000E+02  0.51100000000E-03 0. -1.
         11   -1    0    0    0    0 -0.00000000000E+00 -0.00000000000E+00 -0.45593999997E+02  0.45594000000E+02  0.51100000000E-03 0.  1.
    9900012    2    1    2    0    0  0.13897477842E+02  0.28513461439E+02  0.25436334401E+02  0.50528874562E+02  0.30000044719E+02 0.  0.
        -12    1    1    2    0    0 -0.13897477842E+02 -0.28513461439E+02 -0.25436334401E+02  0.40659125438E+02  0.00000000000E+00 0.  1.
         11    1    3    3    0    0 -0.23453931184E+01  0.77843939602E+01  0.77389719846E+01  0.11224497577E+02  0.51100000000E-03 0. -1.
        -11    1    3    3    0    0  0.14769030128E+02  0.11645699526E+02 -0.60606327387E+00  0.18817913841E+02  0.51100000000E-03 0.  1.
        -12    1    3    3    0    0  0.14738408324E+01  0.90833679531E+01  0.18303425691E+02  0.20486463145E+02  0.00000000000E+00 0.  1.
</event>
<event>
 7    1  0.2702714E-011  0.5052877E+02  0.7816164E-02  0.1300439E+00
        -11   -1    0    0    0    0  0.00000000000E+00  0.00000000000E+00  0.45593999997E+02  0.45594000000E+02  0.51100000000E-03 0.  1.
         11   -1    0    0    0    0 -0.00000000000E+00 -0.00000000000E+00 -0.45593999997E+02  0.45594000000E+02  0.51100000000E-03 0. -1.
    9900012    2    1    2    0    0 -0.24373617003E+02  0.20554820346E+02 -0.25230908634E+02  0.50528774777E+02  0.29999741412E+02 0.  0.
        -12    1    1    2    0    0  0.24373617003E+02 -0.20554820346E+02  0.25230908634E+02  0.40659225223E+02  0.00000000000E+00 0.  1.
         11    1    3    3    0    0 -0.99009711221E+01 -0.48117843425E+00 -0.15926359163E+02  0.18759255803E+02  0.51100000000E-03 0. -1.
        -11    1    3    3    0    0 -0.17753679962E+01  0.10774758275E+02 -0.10821735746E+02  0.15373916619E+02  0.51100000000E-03 0.  1.
        -12    1    3    3    0    0 -0.12697277884E+02  0.10261240505E+02  0.15171862751E+01  0.16395602355E+02  0.00000000000E+00 0.  1.
</event>
<event>
 7    1  0.2702714E-011  0.5052886E+02  0.7816164E-02  0.1300439E+00
        -11   -1    0    0    0    0  0.00000000000E+00  0.00000000000E+00  0.45593999997E+02  0.45594000000E+02  0.51100000000E-03 0.  1.
         11   -1    0    0    0    0 -0.00000000000E+00 -0.00000000000E+00 -0.45593999997E+02  0.45594000000E+02  0.51100000000E-03 0. -1.
    9900012    2    1    2    0    0  0.11507599827E+02  0.22137620610E+02 -0.32103992345E+02  0.50528862963E+02  0.30000009463E+02 0.  0.
        -12    1    1    2    0    0 -0.11507599827E+02 -0.22137620610E+02  0.32103992345E+02  0.40659137037E+02  0.00000000000E+00 0.  1.
         11    1    3    3    0    0  0.62569515765E+01 -0.40140314321E+01 -0.11553786848E+02  0.13738700163E+02  0.51100000000E-03 0. -1.
        -11    1    3    3    0    0 -0.26304279597E+01  0.48449747249E+01  0.85261631171E+00  0.55785200701E+01  0.51100000000E-03 0.  1.
        -12    1    3    3    0    0  0.78810762101E+01  0.21306677318E+02 -0.21402821808E+02  0.31211642730E+02  0.00000000000E+00 0.  1.
</event>
<event>
 7    1  0.2702714E-011  0.5052897E+02  0.7816164E-02  0.1300438E+00
        -11   -1    0    0    0    0  0.00000000000E+00  0.00000000000E+00  0.45593999997E+02  0.45594000000E+02  0.51100000000E-03 0.  1.
         11   -1    0    0    0    0 -0.00000000000E+00 -0.00000000000E+00 -0.45593999997E+02  0.45594000000E+02  0.51100000000E-03 0. -1.
    9900012    2    1    2    0    0  0.16310643823E+02  0.12816788622E+02 -0.34969264089E+02  0.50528971440E+02  0.30000339188E+02 0.  0.
        -12    1    1    2    0    0 -0.16310643823E+02 -0.12816788622E+02  0.34969264089E+02  0.40659028560E+02  0.00000000000E+00 0.  1.
         11    1    3    3    0    0  0.13147646157E+00 -0.63384108818E+00 -0.88943411062E+01  0.89178665924E+01  0.51100000000E-03 0. -1.
        -11    1    3    3    0    0  0.74454590503E+01  0.43553608370E+01 -0.27593605118E+02  0.28910397302E+02  0.51100000000E-03 0.  1.
        -12    1    3    3    0    0  0.87337083113E+01  0.90952688728E+01  0.15186821356E+01  0.12700707546E+02  0.00000000000E+00 0.  1.
</event>
<event>
 7    1  0.2702714E-011  0.5052885E+02  0.7816164E-02  0.1300439E+00
        -11   -1    0    0    0    0  0.00000000000E+00  0.00000000000E+00  0.45593999997E+02  0.45594000000E+02  0.51100000000E-03 0. -1.
         11   -1    0    0    0    0 -0.00000000000E+00 -0.00000000000E+00 -0.45593999997E+02  0.45594000000E+02  0.51100000000E-03 0.  1.
    9900012    2    1    2    0    0  0.22324975663E+02 -0.30558815796E+02 -0.14863413524E+02  0.50528845769E+02  0.29999957199E+02 0.  0.
        -12    1    1    2    0    0 -0.22324975663E+02  0.30558815796E+02  0.14863413524E+02  0.40659154231E+02  0.00000000000E+00 0.  1.
         11    1    3    3    0    0  0.19664419502E+02 -0.22371269846E+02 -0.91916724368E+01  0.31171300123E+02  0.51100000000E-03 0. -1.
        -11    1    3    3    0    0  0.85269588127E+01 -0.77363784497E+00 -0.49167836802E+01  0.98733127231E+01  0.51100000000E-03 0.  1.
         12    1    3    3    0    0 -0.58664026517E+01 -0.74139081046E+01 -0.75495740726E+00  0.94842329232E+01  0.00000000000E+00 0. -1.
</event>
<event>
 7    1  0.2702714E-011  0.5052886E+02  0.7816164E-02  0.1300439E+00
        -11   -1    0    0    0    0  0.00000000000E+00  0.00000000000E+00  0.45593999997E+02  0.45594000000E+02  0.51100000000E-03 0. -1.
         11   -1    0    0    0    0 -0.00000000000E+00 -0.00000000000E+00 -0.45593999997E+02  0.45594000000E+02  0.51100000000E-03 0.  1.
    9900012    2    1    2    0    0 -0.29044423411E+02 -0.21574386471E+02  0.18550823927E+02  0.50528858946E+02  0.29999997252E+02 0.  0.
        -12    1    1    2    0    0  0.29044423411E+02  0.21574386471E+02 -0.18550823927E+02  0.40659141054E+02  0.00000000000E+00 0.  1.
         11    1    3    3    0    0 -0.21657760066E+02 -0.51969991724E+01  0.12965862442E+02  0.25771708531E+02  0.51100000000E-03 0. -1.
        -11    1    3    3    0    0 -0.46463044327E+01  0.12660571698E+01 -0.21807689985E+01  0.52864732407E+01  0.51100000000E-03 0.  1.
         12    1    3    3    0    0 -0.27403589122E+01 -0.17643444469E+02  0.77657304831E+01  0.19470677174E+02  0.00000000000E+00 0. -1.
</event>
<event>
 7    1  0.2702714E-011  0.5052886E+02  0.7816164E-02  0.1300439E+00
        -11   -1    0    0    0    0  0.00000000000E+00  0.00000000000E+00  0.45593999997E+02  0.45594000000E+02  0.51100000000E-03 0.  1.
         11   -1    0    0    0    0 -0.00000000000E+00 -0.00000000000E+00 -0.45593999997E+02  0.45594000000E+02  0.51100000000E-03 0. -1.
    9900012    2    1    2    0    0 -0.31741846780E+02  0.24429165851E+02 -0.69883037884E+01  0.50528863622E+02  0.30000011465E+02 0.  0.
        -12    1    1    2    0    0  0.31741846780E+02 -0.24429165851E+02  0.69883037884E+01  0.40659136378E+02  0.00000000000E+00 0.  1.
         11    1    3    3    0    0 -0.84482050115E+01 -0.46977394625E+01 -0.38152459792E+00  0.96740108153E+01  0.51100000000E-03 0. -1.
        -11    1    3    3    0    0 -0.14955662166E+02  0.13905912901E+02 -0.10654445314E+02  0.23033962960E+02  0.51100000000E-03 0.  1.
        -12    1    3    3    0    0 -0.83379796027E+01  0.15220992412E+02  0.40476661238E+01  0.17820889846E+02  0.00000000000E+00 0.  1.
</event>
<event>
 7    1  0.2702714E-011  0.5052886E+02  0.7816164E-02  0.1300439E+00
        -11   -1    0    0    0    0  0.00000000000E+00  0.00000000000E+00  0.45593999997E+02  0.45594000000E+02  0.51100000000E-03 0.  1.
         11   -1    0    0    0    0 -0.00000000000E+00 -0.00000000000E+00 -0.45593999997E+02  0.45594000000E+02  0.51100000000E-03 0. -1.
    9900012    2    1    2    0    0  0.14549675906E+02  0.10614295243E+02 -0.36452833044E+02  0.50528863641E+02  0.30000011523E+02 0.  0.
        -12    1    1    2    0    0 -0.14549675906E+02 -0.10614295243E+02  0.36452833044E+02  0.40659136359E+02  0.00000000000E+00 0.  1.
         11    1    3    3    0    0  0.28633714597E+01  0.36788911936E+01 -0.31754938905E+01  0.56406469700E+01  0.51100000000E-03 0. -1.
        -11    1    3    3    0    0  0.78098435320E+01  0.73157449396E+01 -0.37586149727E+02  0.39079821284E+02  0.51100000000E-03 0.  1.
        -12    1    3    3    0    0  0.38764609145E+01 -0.38034088989E+00  0.43088105734E+01  0.58083953870E+01  0.00000000000E+00 0.  1.
</event>
<event>
 7    1  0.2702714E-011  0.5052886E+02  0.7816164E-02  0.1300439E+00
        -11   -1    0    0    0    0  0.00000000000E+00  0.00000000000E+00  0.45593999997E+02  0.45594000000E+02  0.51100000000E-03 0. -1.
         11   -1    0    0    0    0 -0.00000000000E+00 -0.00000000000E+00 -0.45593999997E+02  0.45594000000E+02  0.51100000000E-03 0.  1.
    9900012    2    1    2    0    0 -0.38522748095E+01  0.39594500287E+02  0.84024550414E+01  0.50528859270E+02  0.29999998236E+02 0.  0.
        -12    1    1    2    0    0  0.38522748095E+01 -0.39594500287E+02 -0.84024550414E+01  0.40659140730E+02  0.00000000000E+00 0.  1.
         11    1    3    3    0    0  0.14472655422E+01  0.15868375492E+02 -0.51607285847E+01  0.16749120517E+02  0.51100000000E-03 0. -1.
        -11    1    3    3    0    0 -0.98267470123E+01  0.21723789668E+02  0.57437007922E+01  0.24525050325E+02  0.51100000000E-03 0.  1.
        -12    1    3    3    0    0  0.45272066606E+01  0.20023351273E+01  0.78194828340E+01  0.92546884281E+01  0.00000000000E+00 0.  1.
</event>
<event>
 7    1  0.2702714E-011  0.5052886E+02  0.7816164E-02  0.1300439E+00
        -11   -1    0    0    0    0  0.00000000000E+00  0.00000000000E+00  0.45593999997E+02  0.45594000000E+02  0.51100000000E-03 0. -1.
         11   -1    0    0    0    0 -0.00000000000E+00 -0.00000000000E+00 -0.45593999997E+02  0.45594000000E+02  0.51100000000E-03 0.  1.
    9900012    2    1    2    0    0 -0.18502413499E+02 -0.15189516186E+01 -0.36173461985E+02  0.50528857470E+02  0.29999992765E+02 0.  0.
        -12    1    1    2    0    0  0.18502413499E+02  0.15189516186E+01  0.36173461985E+02  0.40659142530E+02  0.00000000000E+00 0.  1.
         11    1    3    3    0    0 -0.21581486662E+01 -0.16033786821E+00  0.47455180327E+00  0.22155165476E+01  0.51100000000E-03 0. -1.
        -11    1    3    3    0    0 -0.27230509813E+01  0.29504344837E+01 -0.33428209812E+02  0.33668461233E+02  0.51100000000E-03 0.  1.
        -12    1    3    3    0    0 -0.13621213851E+02 -0.43090482341E+01 -0.32198039761E+01  0.14644879689E+02  0.00000000000E+00 0.  1.
</event>
<event>
 7    1  0.2702714E-011  0.5052886E+02  0.7816164E-02  0.1300439E+00
        -11   -1    0    0    0    0  0.00000000000E+00  0.00000000000E+00  0.45593999997E+02  0.45594000000E+02  0.51100000000E-03 0. -1.
         11   -1    0    0    0    0 -0.00000000000E+00 -0.00000000000E+00 -0.45593999997E+02  0.45594000000E+02  0.51100000000E-03 0.  1.
    9900012    2    1    2    0    0 -0.14658225963E+02  0.36270699634E+02  0.11078748706E+02  0.50528856954E+02  0.29999991198E+02 0.  0.
        -12    1    1    2    0    0  0.14658225963E+02 -0.36270699634E+02 -0.11078748706E+02  0.40659143046E+02  0.00000000000E+00 0.  1.
         11    1    3    3    0    0 -0.11527505430E+02  0.99428693733E+01 -0.36321911320E+01  0.15650458315E+02  0.51100000000E-03 0. -1.
        -11    1    3    3    0    0 -0.12586167691E+01 -0.12420593042E+01 -0.19329172252E+01  0.26197321900E+01  0.51100000000E-03 0.  1.
        -12    1    3    3    0    0 -0.18721037647E+01  0.27569889565E+02  0.16643857064E+02  0.32258666449E+02  0.00000000000E+00 0.  1.
</event>
<event>
 7    1  0.2702714E-011  0.5052887E+02  0.7816164E-02  0.1300439E+00
        -11   -1    0    0    0    0  0.00000000000E+00  0.00000000000E+00  0.45593999997E+02  0.45594000000E+02  0.51100000000E-03 0. -1.
         11   -1    0    0    0    0 -0.00000000000E+00 -0.00000000000E+00 -0.45593999997E+02  0.45594000000E+02  0.51100000000E-03 0.  1.
    9900012    2    1    2    0    0 -0.39892273203E+02  0.70825979553E+01 -0.34071251250E+01  0.50528866258E+02  0.30000019477E+02 0.  0.
        -12    1    1    2    0    0  0.39892273203E+02 -0.70825979553E+01  0.34071251250E+01  0.40659133742E+02  0.00000000000E+00 0.  1.
         11    1    3    3    0    0 -0.24757499991E+02  0.62075457056E+01 -0.12446099309E+02  0.28396704347E+02  0.51100000000E-03 0. -1.
        -11    1    3    3    0    0  0.44488206400E+00  0.37403285323E+01 -0.23880831515E+00  0.37742558542E+01  0.51100000000E-03 0.  1.
         12    1    3    3    0    0 -0.15579655275E+02 -0.28652762826E+01  0.92777824992E+01  0.18357906056E+02  0.00000000000E+00 0. -1.
</event>
<event>
 7    1  0.2702714E-011  0.5052884E+02  0.7816164E-02  0.1300439E+00
        -11   -1    0    0    0    0  0.00000000000E+00  0.00000000000E+00  0.45593999997E+02  0.45594000000E+02  0.51100000000E-03 0.  1.
         11   -1    0    0    0    0 -0.00000000000E+00 -0.00000000000E+00 -0.45593999997E+02  0.45594000000E+02  0.51100000000E-03 0. -1.
    9900012    2    1    2    0    0  0.29522331933E+02 -0.24080270778E+02 -0.14203500631E+02  0.50528844159E+02  0.29999952306E+02 0.  0.
        -12    1    1    2    0    0 -0.29522331933E+02  0.24080270778E+02  0.14203500631E+02  0.40659155841E+02  0.00000000000E+00 0.  1.
         11    1    3    3    0    0 -0.40716863533E+01 -0.40783467758E+01 -0.42008535838E+00  0.57782362493E+01  0.51100000000E-03 0. -1.
        -11    1    3    3    0    0  0.96867858869E+01 -0.14334153429E+02 -0.17394735176E+01  0.17387568655E+02  0.51100000000E-03 0.  1.
        -12    1    3    3    0    0  0.23907232400E+02 -0.56677705730E+01 -0.12043941755E+02  0.27363039255E+02  0.00000000000E+00 0.  1.
</event>
<event>
 7    1  0.2702714E-011  0.5052885E+02  0.7816164E-02  0.1300439E+00
        -11   -1    0    0    0    0  0.00000000000E+00  0.00000000000E+00  0.45593999997E+02  0.45594000000E+02  0.51100000000E-03 0.  1.
         11   -1    0    0    0    0 -0.00000000000E+00 -0.00000000000E+00 -0.45593999997E+02  0.45594000000E+02  0.51100000000E-03 0. -1.
    9900012    2    1    2    0    0  0.46735939037E+01 -0.20705179083E+02 -0.34678808935E+02  0.50528847156E+02  0.29999961415E+02 0.  0.
        -12    1    1    2    0    0 -0.46735939037E+01  0.20705179083E+02  0.34678808935E+02  0.40659152844E+02  0.00000000000E+00 0.  1.
         11    1    3    3    0    0 -0.20722739531E+01 -0.20458458700E+02 -0.24371758888E+02  0.31887701129E+02  0.51100000000E-03 0. -1.
        -11    1    3    3    0    0  0.80262423926E+01 -0.33385490387E+01 -0.12057616912E+02  0.14864474511E+02  0.51100000000E-03 0.  1.
        -12    1    3    3    0    0 -0.12803745358E+01  0.30918286556E+01  0.17505668657E+01  0.37766715159E+01  0.00000000000E+00 0.  1.
</event>
<event>
 7    1  0.2702714E-011  0.5052886E+02  0.7816164E-02  0.1300439E+00
        -11   -1    0    0    0    0  0.00000000000E+00  0.00000000000E+00  0.45593999997E+02  0.45594000000E+02  0.51100000000E-03 0. -1.
         11   -1    0    0    0    0 -0.00000000000E+00 -0.00000000000E+00 -0.45593999997E+02  0.45594000000E+02  0.51100000000E-03 0.  1.
    9900012    2    1    2    0    0  0.28495898228E+02 -0.92822457216E+00  0.28987712920E+02  0.50528864286E+02  0.30000013484E+02 0.  0.
        -12    1    1    2    0    0 -0.28495898228E+02  0.92822457216E+00 -0.28987712920E+02  0.40659135714E+02  0.00000000000E+00 0.  1.
         11    1    3    3    0    0  0.14145663392E+02  0.85102168747E-01  0.24963108632E+02  0.28692574441E+02  0.51100000000E-03 0. -1.
        -11    1    3    3    0    0  0.66140464571E+01 -0.81232384558E+01  0.43049816758E+01  0.11325435137E+02  0.51100000000E-03 0.  1.
         12    1    3    3    0    0  0.77361883788E+01  0.71099117149E+01 -0.28037738804E+00  0.10510854709E+02  0.00000000000E+00 0. -1.
</event>
<event>
 7    1  0.2702714E-011  0.5052886E+02  0.7816164E-02  0.1300439E+00
        -11   -1    0    0    0    0  0.00000000000E+00  0.00000000000E+00  0.45593999997E+02  0.45594000000E+02  0.51100000000E-03 0. -1.
         11   -1    0    0    0    0 -0.00000000000E+00 -0.00000000000E+00 -0.45593999997E+02  0.45594000000E+02  0.51100000000E-03 0.  1.
    9900012    2    1    2    0    0 -0.22256990777E+02  0.24095033255E+02  0.24025425581E+02  0.50528863999E+02  0.30000012612E+02 0.  0.
        -12    1    1    2    0    0  0.22256990777E+02 -0.24095033255E+02 -0.24025425581E+02  0.40659136001E+02  0.00000000000E+00 0.  1.
         11    1    3    3    0    0 -0.54644485547E+01  0.64260044304E+01  0.40069156255E+01  0.93385814789E+01  0.51100000000E-03 0. -1.
        -11    1    3    3    0    0 -0.11479036403E+02  0.13967338158E+02 -0.20465307808E+01  0.18194589868E+02  0.51100000000E-03 0.  1.
         12    1    3    3    0    0 -0.53135058187E+01  0.37016906672E+01  0.22065040736E+02  0.22995692652E+02  0.00000000000E+00 0. -1.
</event>
<event>
 7    1  0.2702714E-011  0.5052886E+02  0.7816164E-02  0.1300439E+00
        -11   -1    0    0    0    0  0.00000000000E+00  0.00000000000E+00  0.45593999997E+02  0.45594000000E+02  0.51100000000E-03 0.  1.
         11   -1    0    0    0    0 -0.00000000000E+00 -0.00000000000E+00 -0.45593999997E+02  0.45594000000E+02  0.51100000000E-03 0. -1.
    9900012    2    1    2    0    0 -0.35614481900E+02  0.52038853251E+01 -0.18912789664E+02  0.50528863802E+02  0.30000012014E+02 0.  0.
        -12    1    1    2    0    0  0.35614481900E+02 -0.52038853251E+01  0.18912789664E+02  0.40659136198E+02  0.00000000000E+00 0.  1.
         11    1    3    3    0    0 -0.20248893142E+02  0.57762265327E+01 -0.47523334150E+01  0.21586272017E+02  0.51100000000E-03 0. -1.
        -11    1    3    3    0    0  0.83657375454E+00 -0.43161297748E+01  0.27821415224E+01  0.52028015138E+01  0.51100000000E-03 0.  1.
         12    1    3    3    0    0 -0.16202162512E+02  0.37437885672E+01 -0.16942597771E+02  0.23739790272E+02  0.00000000000E+00 0. -1.
</event>
<event>
 7    1  0.2702714E-011  0.5052888E+02  0.7816164E-02  0.1300439E+00
        -11   -1    0    0    0    0  0.00000000000E+00  0.00000000000E+00  0.45593999997E+02  0.45594000000E+02  0.51100000000E-03 0. -1.
         11   -1    0    0    0    0 -0.00000000000E+00 -0.00000000000E+00 -0.45593999997E+02  0.45594000000E+02  0.51100000000E-03 0.  1.
    9900012    2    1    2    0    0 -0.23227841631E+02  0.19191112510E+02  0.27300786946E+02  0.50528875635E+02  0.30000047980E+02 0.  0.
        -12    1    1    2    0    0  0.23227841631E+02 -0.19191112510E+02 -0.27300786946E+02  0.40659124365E+02  0.00000000000E+00 0.  1.
         11    1    3    3    0    0 -0.39172810418E+01  0.20281449580E+01  0.70448529299E+01  0.83119441647E+01  0.51100000000E-03 0. -1.
        -11    1    3    3    0    0 -0.32786255401E+01 -0.62864830250E+01 -0.38974427290E+00  0.71007855280E+01  0.51100000000E-03 0.  1.
        -12    1    3    3    0    0 -0.16031935050E+02  0.23449450577E+02  0.20645678289E+02  0.35116145942E+02  0.00000000000E+00 0.  1.
</event>
<event>
 7    1  0.2702714E-011  0.5052886E+02  0.7816164E-02  0.1300439E+00
        -11   -1    0    0    0    0  0.00000000000E+00  0.00000000000E+00  0.45593999997E+02  0.45594000000E+02  0.51100000000E-03 0.  1.
         11   -1    0    0    0    0 -0.00000000000E+00 -0.00000000000E+00 -0.45593999997E+02  0.45594000000E+02  0.51100000000E-03 0. -1.
    9900012    2    1    2    0    0  0.21787711368E+02  0.32916987658E+02 -0.97433768296E+01  0.50528857914E+02  0.29999994116E+02 0.  0.
        -12    1    1    2    0    0 -0.21787711368E+02 -0.32916987658E+02  0.97433768296E+01  0.40659142086E+02  0.00000000000E+00 0.  1.
         11    1    3    3    0    0  0.43964457183E+01  0.12765466287E+02 -0.25308246941E+01  0.13736482023E+02  0.51100000000E-03 0. -1.
        -11    1    3    3    0    0 -0.34938650571E+01  0.57044591323E+01  0.52505996096E+01  0.85039251849E+01  0.51100000000E-03 0.  1.
        -12    1    3    3    0    0  0.20885130706E+02  0.14447062239E+02 -0.12463151745E+02  0.28288450706E+02  0.00000000000E+00 0.  1.
</event>
<event>
 7    1  0.2702714E-011  0.5052886E+02  0.7816164E-02  0.1300439E+00
        -11   -1    0    0    0    0  0.00000000000E+00  0.00000000000E+00  0.45593999997E+02  0.45594000000E+02  0.51100000000E-03 0.  1.
         11   -1    0    0    0    0 -0.00000000000E+00 -0.00000000000E+00 -0.45593999997E+02  0.45594000000E+02  0.51100000000E-03 0. -1.
    9900012    2    1    2    0    0 -0.26349348916E+02 -0.27490841908E+02 -0.14252405235E+02  0.50528860411E+02  0.30000001704E+02 0.  0.
        -12    1    1    2    0    0  0.26349348916E+02  0.27490841908E+02  0.14252405235E+02  0.40659139589E+02  0.00000000000E+00 0.  1.
         11    1    3    3    0    0 -0.56831450800E+01 -0.11237515823E+02 -0.92526825557E+01  0.15626645021E+02  0.51100000000E-03 0. -1.
        -11    1    3    3    0    0 -0.96684538162E+00 -0.14282228254E+02  0.60098067008E+00  0.14327526371E+02  0.51100000000E-03 0.  1.
        -12    1    3    3    0    0 -0.19699358455E+02 -0.19710978310E+01 -0.56007033497E+01  0.20574689018E+02  0.00000000000E+00 0.  1.
</event>
<event>
 7    1  0.2702714E-011  0.5052888E+02  0.7816164E-02  0.1300439E+00
        -11   -1    0    0    0    0  0.00000000000E+00  0.00000000000E+00  0.45593999997E+02  0.45594000000E+02  0.51100000000E-03 0.  1.
         11   -1    0    0    0    0 -0.00000000000E+00 -0.00000000000E+00 -0.45593999997E+02  0.45594000000E+02  0.51100000000E-03 0. -1.
    9900012    2    1    2    0    0 -0.45528595889E+01 -0.25585762346E+02 -0.31269863968E+02  0.50528878540E+02  0.30000056811E+02 0.  0.
        -12    1    1    2    0    0  0.45528595889E+01  0.25585762346E+02  0.31269863968E+02  0.40659121460E+02  0.00000000000E+00 0.  1.
         11    1    3    3    0    0  0.39630491680E+01 -0.31392957169E+01 -0.76537873632E+01  0.91728620162E+01  0.51100000000E-03 0. -1.
        -11    1    3    3    0    0  0.26200218438E+01 -0.22468302432E+02 -0.13705199693E+02  0.26448471176E+02  0.51100000000E-03 0.  1.
        -12    1    3    3    0    0 -0.11135930601E+02  0.21835803187E-01 -0.99108769120E+01  0.14907545348E+02  0.00000000000E+00 0.  1.
</event>
<event>
 7    1  0.2702714E-011  0.5052886E+02  0.7816164E-02  0.1300439E+00
        -11   -1    0    0    0    0  0.00000000000E+00  0.00000000000E+00  0.45593999997E+02  0.45594000000E+02  0.51100000000E-03 0.  1.
         11   -1    0    0    0    0 -0.00000000000E+00 -0.00000000000E+00 -0.45593999997E+02  0.45594000000E+02  0.51100000000E-03 0. -1.
    9900012    2    1    2    0    0 -0.12922718308E+02  0.24148229182E+02 -0.30050494666E+02  0.50528857722E+02  0.29999993533E+02 0.  0.
        -12    1    1    2    0    0  0.12922718308E+02 -0.24148229182E+02  0.30050494666E+02  0.40659142278E+02  0.00000000000E+00 0.  1.
         11    1    3    3    0    0 -0.13064285124E+02  0.27641361569E+01 -0.11799055163E+02  0.17819475231E+02  0.51100000000E-03 0. -1.
        -11    1    3    3    0    0  0.42319801099E+01  0.13799139337E+00 -0.73488470172E+01  0.84814061345E+01  0.51100000000E-03 0.  1.
         12    1    3    3    0    0 -0.40904132944E+01  0.21246101632E+02 -0.10902592486E+02  0.24227976357E+02  0.00000000000E+00 0. -1.
</event>
<event>
 7    1  0.2702714E-011  0.5052887E+02  0.7816164E-02  0.1300439E+00
        -11   -1    0    0    0    0  0.00000000000E+00  0.00000000000E+00  0.45593999997E+02  0.45594000000E+02  0.51100000000E-03 0.  1.
         11   -1    0    0    0    0 -0.00000000000E+00 -0.00000000000E+00 -0.45593999997E+02  0.45594000000E+02  0.51100000000E-03 0. -1.
    9900012    2    1    2    0    0 -0.49411664012E+01  0.40175777926E+02 -0.38284418747E+01  0.50528865423E+02  0.30000016941E+02 0.  0.
        -12    1    1    2    0    0  0.49411664012E+01 -0.40175777926E+02  0.38284418747E+01  0.40659134577E+02  0.00000000000E+00 0.  1.
         11    1    3    3    0    0  0.42840208646E+01  0.36047707172E+02 -0.61598666032E+01  0.36820293100E+02  0.51100000000E-03 0. -1.
        -11    1    3    3    0    0 -0.76940867543E+01  0.63564209550E+01 -0.23203786465E+00  0.99828302686E+01  0.51100000000E-03 0.  1.
        -12    1    3    3    0    0 -0.15311005115E+01 -0.22283502010E+01  0.25634625932E+01  0.37257420552E+01  0.00000000000E+00 0.  1.
</event>
<event>
 7    1  0.2702714E-011  0.5052886E+02  0.7816164E-02  0.1300439E+00
        -11   -1    0    0    0    0  0.00000000000E+00  0.00000000000E+00  0.45593999997E+02  0.45594000000E+02  0.51100000000E-03 0.  1.
         11   -1    0    0    0    0 -0.00000000000E+00 -0.00000000000E+00 -0.45593999997E+02  0.45594000000E+02  0.51100000000E-03 0. -1.
    9900012    2    1    2    0    0 -0.24045166042E+02  0.24620839441E+01 -0.32694553082E+02  0.50528859963E+02  0.30000000342E+02 0.  0.
        -12    1    1    2    0    0  0.24045166042E+02 -0.24620839441E+01  0.32694553082E+02  0.40659140037E+02  0.00000000000E+00 0.  1.
         11    1    3    3    0    0 -0.15391133165E+02 -0.91966676004E+01 -0.19984217935E+02  0.26848363857E+02  0.51100000000E-03 0. -1.
        -11    1    3    3    0    0 -0.10633754931E+01  0.26148687422E+01 -0.11465477477E+02  0.11807856707E+02  0.51100000000E-03 0.  1.
        -12    1    3    3    0    0 -0.75906573839E+01  0.90438828023E+01 -0.12448576695E+01  0.11872639398E+02  0.00000000000E+00 0.  1.
</event>
<event>
 7    1  0.2702714E-011  0.5052885E+02  0.7816164E-02  0.1300439E+00
        -11   -1    0    0    0    0  0.00000000000E+00  0.00000000000E+00  0.45593999997E+02  0.45594000000E+02  0.51100000000E-03 0. -1.
         11   -1    0    0    0    0 -0.00000000000E+00 -0.00000000000E+00 -0.45593999997E+02  0.45594000000E+02  0.51100000000E-03 0.  1.
    9900012    2    1    2    0    0  0.17703298208E+02 -0.23251362716E+02  0.28268949588E+02  0.50528854087E+02  0.29999982481E+02 0.  0.
        -12    1    1    2    0    0 -0.17703298208E+02  0.23251362716E+02 -0.28268949588E+02  0.40659145913E+02  0.00000000000E+00 0.  1.
         11    1    3    3    0    0  0.92147553183E+01 -0.10885809108E+02  0.42922956701E+01  0.14894171944E+02  0.51100000000E-03 0. -1.
        -11    1    3    3    0    0  0.10803637711E+02  0.21947919560E+01  0.66107890426E+01  0.12854502384E+02  0.51100000000E-03 0.  1.
        -12    1    3    3    0    0 -0.23150948206E+01 -0.14560345563E+02  0.17365864876E+02  0.22780179759E+02  0.00000000000E+00 0.  1.
</event>
<event>
 7    1  0.2702714E-011  0.5052886E+02  0.7816164E-02  0.1300439E+00
        -11   -1    0    0    0    0  0.00000000000E+00  0.00000000000E+00  0.45593999997E+02  0.45594000000E+02  0.51100000000E-03 0.  1.
         11   -1    0    0    0    0 -0.00000000000E+00 -0.00000000000E+00 -0.45593999997E+02  0.45594000000E+02  0.51100000000E-03 0. -1.
    9900012    2    1    2    0    0 -0.15723587530E+02  0.61070374614E+01 -0.36995110655E+02  0.50528864203E+02  0.30000013231E+02 0.  0.
        -12    1    1    2    0    0  0.15723587530E+02 -0.61070374614E+01  0.36995110655E+02  0.40659135797E+02  0.00000000000E+00 0.  1.
         11    1    3    3    0    0 -0.88607155970E+01 -0.51022454424E+01 -0.65187793168E+01  0.12125991650E+02  0.51100000000E-03 0. -1.
        -11    1    3    3    0    0 -0.21389895971E+01 -0.52130649415E+01 -0.40751255461E+01  0.69539895786E+01  0.51100000000E-03 0.  1.
         12    1    3    3    0    0 -0.47238823364E+01  0.16422347845E+02 -0.26401205792E+02  0.31448882975E+02  0.00000000000E+00 0. -1.
</event>
<event>
 7    1  0.3538799E-011  0.5052885E+02  0.7816164E-02  0.1300439E+00
        -11   -1    0    0    0    0  0.00000000000E+00  0.00000000000E+00  0.45593999997E+02  0.45594000000E+02  0.51100000000E-03 0. -1.
         11   -1    0    0    0    0 -0.00000000000E+00 -0.00000000000E+00 -0.45593999997E+02  0.45594000000E+02  0.51100000000E-03 0.  1.
    9900012    2    1    2    0    0  0.30039349420E+02  0.23554385350E+02  0.13999819566E+02  0.50528849361E+02  0.29999968118E+02 0.  0.
        -12    1    1    2    0    0 -0.30039349420E+02 -0.23554385350E+02 -0.13999819566E+02  0.40659150639E+02  0.00000000000E+00 0.  1.
         11    1    3    3    0    0  0.21357858401E+02  0.10337931601E+02  0.59007443959E+01  0.24450965828E+02  0.51100000000E-03 0. -1.
        -11    1    3    3    0    0  0.10915007778E+02  0.16458499692E+02  0.35563386221E+01  0.20066568007E+02  0.51100000000E-03 0.  1.
        -12    1    3    3    0    0 -0.22335167585E+01 -0.32420459435E+01  0.45427365480E+01  0.60113155262E+01  0.00000000000E+00 0.  1.
</event>
<event>
 7    1  0.2702714E-011  0.5052887E+02  0.7816164E-02  0.1300439E+00
        -11   -1    0    0    0    0  0.00000000000E+00  0.00000000000E+00  0.45593999997E+02  0.45594000000E+02  0.51100000000E-03 0. -1.
         11   -1    0    0    0    0 -0.00000000000E+00 -0.00000000000E+00 -0.45593999997E+02  0.45594000000E+02  0.51100000000E-03 0.  1.
    9900012    2    1    2    0    0 -0.32776945088E+02 -0.22951255992E+02 -0.72164135787E+01  0.50528869342E+02  0.30000028853E+02 0.  0.
        -12    1    1    2    0    0  0.32776945088E+02  0.22951255992E+02  0.72164135787E+01  0.40659130658E+02  0.00000000000E+00 0.  1.
         11    1    3    3    0    0 -0.30870354609E+01 -0.88844052198E+01 -0.92939971545E+00  0.94512553737E+01  0.51100000000E-03 0. -1.
        -11    1    3    3    0    0 -0.27787634563E+02 -0.18433067571E+02 -0.10246142357E+02  0.34884295151E+02  0.51100000000E-03 0.  1.
        -12    1    3    3    0    0 -0.19022750637E+01  0.43662167989E+01  0.39591284935E+01  0.61933188180E+01  0.00000000000E+00 0.  1.
</event>
<event>
 7    1  0.2702714E-011  0.5052887E+02  0.7816164E-02  0.1300439E+00
        -11   -1    0    0    0    0  0.00000000000E+00  0.00000000000E+00  0.45593999997E+02  0.45594000000E+02  0.51100000000E-03 0.  1.
         11   -1    0    0    0    0 -0.00000000000E+00 -0.00000000000E+00 -0.45593999997E+02  0.45594000000E+02  0.51100000000E-03 0. -1.
    9900012    2    1    2    0    0 -0.73557038830E+01 -0.53659395477E+01 -0.39626576001E+02  0.50528865572E+02  0.30000017394E+02 0.  0.
        -12    1    1    2    0    0  0.73557038830E+01  0.53659395477E+01  0.39626576001E+02  0.40659134428E+02  0.00000000000E+00 0.  1.
         11    1    3    3    0    0  0.29417341281E+00  0.77918182457E+01 -0.13905586374E+02  0.15942531237E+02  0.51100000000E-03 0. -1.
        -11    1    3    3    0    0 -0.80290327144E+01  0.61571871714E+00 -0.43332455126E+01  0.91444788151E+01  0.51100000000E-03 0.  1.
         12    1    3    3    0    0  0.37915541855E+00 -0.13773476511E+02 -0.21387744114E+02  0.25441855520E+02  0.00000000000E+00 0. -1.
</event>
<event>
 7    1  0.2702714E-011  0.5052872E+02  0.7816164E-02  0.1300439E+00
        -11   -1    0    0    0    0  0.00000000000E+00  0.00000000000E+00  0.45593999997E+02  0.45594000000E+02  0.51100000000E-03 0.  1.
         11   -1    0    0    0    0 -0.00000000000E+00 -0.00000000000E+00 -0.45593999997E+02  0.45594000000E+02  0.51100000000E-03 0. -1.
    9900012    2    1    2    0    0 -0.18813583082E+02  0.22119288216E+00 -0.36044103403E+02  0.50528717852E+02  0.29999568379E+02 0.  0.
        -12    1    1    2    0    0  0.18813583082E+02 -0.22119288216E+00  0.36044103403E+02  0.40659282148E+02  0.00000000000E+00 0.  1.
         11    1    3    3    0    0 -0.85964669737E+01  0.10772665611E+01 -0.18040780624E+02  0.20013233459E+02  0.51100000000E-03 0. -1.
        -11    1    3    3    0    0 -0.83300301563E+01 -0.71972585116E+01  0.34167303306E+00  0.11013930870E+02  0.51100000000E-03 0.  1.
         12    1    3    3    0    0 -0.18870859520E+01  0.63411848326E+01 -0.18344995812E+02  0.19501553523E+02  0.00000000000E+00 0. -1.
</event>
<event>
 7    1  0.2702714E-011  0.5052882E+02  0.7816164E-02  0.1300439E+00
        -11   -1    0    0    0    0  0.00000000000E+00  0.00000000000E+00  0.45593999997E+02  0.45594000000E+02  0.51100000000E-03 0. -1.
         11   -1    0    0    0    0 -0.00000000000E+00 -0.00000000000E+00 -0.45593999997E+02  0.45594000000E+02  0.51100000000E-03 0.  1.
    9900012    2    1    2    0    0  0.19764225555E+02  0.34156203326E+02 -0.97927481363E+01  0.50528822027E+02  0.29999885032E+02 0.  0.
        -12    1    1    2    0    0 -0.19764225555E+02 -0.34156203326E+02  0.97927481363E+01  0.40659177973E+02  0.00000000000E+00 0.  1.
         11    1    3    3    0    0  0.16722971726E+02  0.20040091984E+02 -0.30472899616E+01  0.26278299915E+02  0.51100000000E-03 0. -1.
        -11    1    3    3    0    0  0.49926751967E+01 -0.22698485644E+01  0.16616237497E+01  0.57306205486E+01  0.51100000000E-03 0.  1.
         12    1    3    3    0    0 -0.19514213675E+01  0.16385959907E+02 -0.84070819245E+01  0.18519901563E+02  0.00000000000E+00 0. -1.
</event>
<event>
 7    1  0.2702714E-011  0.5052886E+02  0.7816164E-02  0.1300439E+00
        -11   -1    0    0    0    0  0.00000000000E+00  0.00000000000E+00  0.45593999997E+02  0.45594000000E+02  0.51100000000E-03 0. -1.
         11   -1    0    0    0    0 -0.00000000000E+00 -0.00000000000E+00 -0.45593999997E+02  0.45594000000E+02  0.51100000000E-03 0.  1.
    9900012    2    1    2    0    0 -0.24276394898E+02 -0.13481138018E+02  0.29699855014E+02  0.50528858108E+02  0.29999994707E+02 0.  0.
        -12    1    1    2    0    0  0.24276394898E+02  0.13481138018E+02 -0.29699855014E+02  0.40659141892E+02  0.00000000000E+00 0.  1.
         11    1    3    3    0    0 -0.14431863389E+02 -0.90065681364E+01  0.51434168936E+01  0.17772216746E+02  0.51100000000E-03 0. -1.
        -11    1    3    3    0    0 -0.82764214266E+01  0.65269696830E+01  0.11155284797E+02  0.15347340618E+02  0.51100000000E-03 0.  1.
         12    1    3    3    0    0 -0.15681100826E+01 -0.11001539564E+02  0.13401153323E+02  0.17409300745E+02  0.00000000000E+00 0. -1.
</event>
<event>
 7    1  0.2702714E-011  0.5052885E+02  0.7816164E-02  0.1300439E+00
        -11   -1    0    0    0    0  0.00000000000E+00  0.00000000000E+00  0.45593999997E+02  0.45594000000E+02  0.51100000000E-03 0.  1.
         11   -1    0    0    0    0 -0.00000000000E+00 -0.00000000000E+00 -0.45593999997E+02  0.45594000000E+02  0.51100000000E-03 0. -1.
    9900012    2    1    2    0    0 -0.84747013272E+01  0.64180733801E+01 -0.39244795863E+02  0.50528853048E+02  0.29999979325E+02 0.  0.
        -12    1    1    2    0    0  0.84747013272E+01 -0.64180733801E+01  0.39244795863E+02  0.40659146952E+02  0.00000000000E+00 0.  1.
         11    1    3    3    0    0  0.26672762003E+01  0.32583860590E+01 -0.17980566482E+01  0.45786952300E+01  0.51100000000E-03 0.  1.
        -11    1    3    3    0    0 -0.18208956555E+02  0.23008955153E+01 -0.32353254991E+02  0.37196684365E+02  0.51100000000E-03 0. -1.
         12    1    3    3    0    0  0.70669790279E+01  0.85879180582E+00 -0.50934842245E+01  0.87534734530E+01  0.00000000000E+00 0. -1.
</event>
<event>
 7    1  0.2702714E-011  0.5052887E+02  0.7816164E-02  0.1300439E+00
        -11   -1    0    0    0    0  0.00000000000E+00  0.00000000000E+00  0.45593999997E+02  0.45594000000E+02  0.51100000000E-03 0. -1.
         11   -1    0    0    0    0 -0.00000000000E+00 -0.00000000000E+00 -0.45593999997E+02  0.45594000000E+02  0.51100000000E-03 0.  1.
    9900012    2    1    2    0    0 -0.87146021799E+01 -0.20264568588E+02 -0.34155060795E+02  0.50528865613E+02  0.30000017518E+02 0.  0.
        -12    1    1    2    0    0  0.87146021799E+01  0.20264568588E+02  0.34155060795E+02  0.40659134387E+02  0.00000000000E+00 0.  1.
         11    1    3    3    0    0  0.14842811608E+01 -0.10340845190E+02 -0.62746375417E+01  0.12186354925E+02  0.51100000000E-03 0. -1.
        -11    1    3    3    0    0  0.26444680594E+01 -0.83517420755E+01 -0.22829139612E+02  0.24452288700E+02  0.51100000000E-03 0.  1.
        -12    1    3    3    0    0 -0.12843351400E+02 -0.15719813218E+01 -0.50512836410E+01  0.13890221988E+02  0.00000000000E+00 0.  1.
</event>
<event>
 7    1  0.2702714E-011  0.5052887E+02  0.7816164E-02  0.1300439E+00
        -11   -1    0    0    0    0  0.00000000000E+00  0.00000000000E+00  0.45593999997E+02  0.45594000000E+02  0.51100000000E-03 0. -1.
         11   -1    0    0    0    0 -0.00000000000E+00 -0.00000000000E+00 -0.45593999997E+02  0.45594000000E+02  0.51100000000E-03 0.  1.
    9900012    2    1    2    0    0  0.27685131718E+02  0.61709213063E+01  0.29131053271E+02  0.50528867537E+02  0.30000023365E+02 0.  0.
        -12    1    1    2    0    0 -0.27685131718E+02 -0.61709213063E+01 -0.29131053271E+02  0.40659132463E+02  0.00000000000E+00 0.  1.
         11    1    3    3    0    0  0.93215446873E+01  0.65846758479E+01  0.14871908941E+02  0.18746275022E+02  0.51100000000E-03 0. -1.
        -11    1    3    3    0    0  0.10815221990E+02 -0.90024649436E+01  0.76086904210E+00  0.14092278869E+02  0.51100000000E-03 0.  1.
         12    1    3    3    0    0  0.75483650401E+01  0.85887104020E+01  0.13498275287E+02  0.17690313646E+02  0.00000000000E+00 0. -1.
</event>
<event>
 7    1  0.2702714E-011  0.5052886E+02  0.7816164E-02  0.1300439E+00
        -11   -1    0    0    0    0  0.00000000000E+00  0.00000000000E+00  0.45593999997E+02  0.45594000000E+02  0.51100000000E-03 0. -1.
         11   -1    0    0    0    0 -0.00000000000E+00 -0.00000000000E+00 -0.45593999997E+02  0.45594000000E+02  0.51100000000E-03 0.  1.
    9900012    2    1    2    0    0  0.15111895114E+02 -0.36282405356E+02  0.10410716260E+02  0.50528864183E+02  0.30000013171E+02 0.  0.
        -12    1    1    2    0    0 -0.15111895114E+02  0.36282405356E+02 -0.10410716260E+02  0.40659135817E+02  0.00000000000E+00 0.  1.
         11    1    3    3    0    0  0.34998120257E+01  0.20261931394E+01 -0.16705142762E+01  0.43754726672E+01  0.51100000000E-03 0.  1.
        -11    1    3    3    0    0  0.14233052701E+02 -0.13566525217E+02  0.54617075873E+01  0.20407367437E+02  0.51100000000E-03 0. -1.
        -12    1    3    3    0    0 -0.26209696132E+01 -0.24742073278E+02  0.66195229486E+01  0.25746024079E+02  0.00000000000E+00 0.  1.
</event>
<event>
 7    1  0.2702714E-011  0.5052887E+02  0.7816164E-02  0.1300439E+00
        -11   -1    0    0    0    0  0.00000000000E+00  0.00000000000E+00  0.45593999997E+02  0.45594000000E+02  0.51100000000E-03 0. -1.
         11   -1    0    0    0    0 -0.00000000000E+00 -0.00000000000E+00 -0.45593999997E+02  0.45594000000E+02  0.51100000000E-03 0.  1.
    9900012    2    1    2    0    0 -0.14961593277E+02  0.21541744626E+02  0.31068772041E+02  0.50528872721E+02  0.30000039123E+02 0.  0.
        -12    1    1    2    0    0  0.14961593277E+02 -0.21541744626E+02 -0.31068772041E+02  0.40659127279E+02  0.00000000000E+00 0.  1.
         11    1    3    3    0    0  0.30825375001E+01  0.13953950007E+02  0.78417766522E+01  0.16300558873E+02  0.51100000000E-03 0. -1.
        -11    1    3    3    0    0 -0.16457979696E+02  0.10691625103E+02  0.13302037634E+02  0.23709073127E+02  0.51100000000E-03 0.  1.
        -12    1    3    3    0    0 -0.15861510808E+01 -0.31038304844E+01  0.99249577548E+01  0.10519240722E+02  0.00000000000E+00 0.  1.
</event>
<event>
 7    1  0.2702714E-011  0.5052886E+02  0.7816164E-02  0.1300439E+00
        -11   -1    0    0    0    0  0.00000000000E+00  0.00000000000E+00  0.45593999997E+02  0.45594000000E+02  0.51100000000E-03 0.  1.
         11   -1    0    0    0    0 -0.00000000000E+00 -0.00000000000E+00 -0.45593999997E+02  0.45594000000E+02  0.51100000000E-03 0. -1.
    9900012    2    1    2    0    0 -0.24667656242E+02 -0.74479195465E+00 -0.32312809337E+02  0.50528860476E+02  0.30000001904E+02 0.  0.
        -12    1    1    2    0    0  0.24667656242E+02  0.74479195465E+00  0.32312809337E+02  0.40659139524E+02  0.00000000000E+00 0.  1.
         11    1    3    3    0    0 -0.50771089724E+01 -0.85591435134E+01 -0.15848059009E+02  0.18713549845E+02  0.51100000000E-03 0. -1.
        -11    1    3    3    0    0 -0.20742636113E+01  0.84308813700E+01 -0.15891501569E+01  0.88265354861E+01  0.51100000000E-03 0.  1.
         12    1    3    3    0    0 -0.17516283659E+02 -0.61652981126E+00 -0.14875600172E+02  0.22988775145E+02  0.00000000000E+00 0. -1.
</event>
<event>
 7    1  0.2702714E-011  0.5052886E+02  0.7816164E-02  0.1300439E+00
        -11   -1    0    0    0    0  0.00000000000E+00  0.00000000000E+00  0.45593999997E+02  0.45594000000E+02  0.51100000000E-03 0.  1.
         11   -1    0    0    0    0 -0.00000000000E+00 -0.00000000000E+00 -0.45593999997E+02  0.45594000000E+02  0.51100000000E-03 0. -1.
    9900012    2    1    2    0    0  0.23969811206E+02  0.12639767952E+01 -0.32817927506E+02  0.50528857702E+02  0.29999993471E+02 0.  0.
        -12    1    1    2    0    0 -0.23969811206E+02 -0.12639767952E+01  0.32817927506E+02  0.40659142298E+02  0.00000000000E+00 0.  1.
         11    1    3    3    0    0  0.12163146373E+02  0.45150677717E+01 -0.14704735362E+02  0.19610130265E+02  0.51100000000E-03 0. -1.
        -11    1    3    3    0    0  0.75928716210E+01  0.80057327757E+01 -0.26753150516E+01  0.11353447389E+02  0.51100000000E-03 0.  1.
        -12    1    3    3    0    0  0.42137932122E+01 -0.11256823752E+02 -0.15437877093E+02  0.19565280048E+02  0.00000000000E+00 0.  1.
</event>
<event>
 7    1  0.2702714E-011  0.5052888E+02  0.7816164E-02  0.1300439E+00
        -11   -1    0    0    0    0  0.00000000000E+00  0.00000000000E+00  0.45593999997E+02  0.45594000000E+02  0.51100000000E-03 0. -1.
         11   -1    0    0    0    0 -0.00000000000E+00 -0.00000000000E+00 -0.45593999997E+02  0.45594000000E+02  0.51100000000E-03 0.  1.
    9900012    2    1    2    0    0  0.21374028456E+02 -0.31069263069E+02  0.15199212377E+02  0.50528877322E+02  0.30000053106E+02 0.  0.
        -12    1    1    2    0    0 -0.21374028456E+02  0.31069263069E+02 -0.15199212377E+02  0.40659122678E+02  0.00000000000E+00 0.  1.
         11    1    3    3    0    0  0.21781118704E+01 -0.70881198307E+00  0.84825084306E+01  0.87863266093E+01  0.51100000000E-03 0. -1.
        -11    1    3    3    0    0  0.16804572199E+02 -0.19352036281E+02  0.13111394058E+02  0.28788949432E+02  0.51100000000E-03 0.  1.
        -12    1    3    3    0    0  0.23913443869E+01 -0.11008414805E+02 -0.63946901117E+01  0.12953601280E+02  0.00000000000E+00 0.  1.
</event>
<event>
 7    1  0.2702714E-011  0.5052885E+02  0.7816164E-02  0.1300439E+00
        -11   -1    0    0    0    0  0.00000000000E+00  0.00000000000E+00  0.45593999997E+02  0.45594000000E+02  0.51100000000E-03 0.  1.
         11   -1    0    0    0    0 -0.00000000000E+00 -0.00000000000E+00 -0.45593999997E+02  0.45594000000E+02  0.51100000000E-03 0. -1.
    9900012    2    1    2    0    0 -0.28567858806E+02  0.20702659538E+02 -0.20209996713E+02  0.50528848068E+02  0.29999964187E+02 0.  0.
        -12    1    1    2    0    0  0.28567858806E+02 -0.20702659538E+02  0.20209996713E+02  0.40659151932E+02  0.00000000000E+00 0.  1.
         11    1    3    3    0    0 -0.12773614357E+02  0.23218826652E+01 -0.13265613619E+02  0.18561596585E+02  0.51100000000E-03 0. -1.
        -11    1    3    3    0    0 -0.84592119876E+01  0.11786829935E+02 -0.13746185762E+02  0.19986126454E+02  0.51100000000E-03 0.  1.
         12    1    3    3    0    0 -0.73350324613E+01  0.65939469374E+01  0.68018026675E+01  0.11981125029E+02  0.00000000000E+00 0. -1.
</event>
<event>
 7    1  0.2702714E-011  0.5052883E+02  0.7816164E-02  0.1300439E+00
        -11   -1    0    0    0    0  0.00000000000E+00  0.00000000000E+00  0.45593999997E+02  0.45594000000E+02  0.51100000000E-03 0.  1.
         11   -1    0    0    0    0 -0.00000000000E+00 -0.00000000000E+00 -0.45593999997E+02  0.45594000000E+02  0.51100000000E-03 0. -1.
    9900012    2    1    2    0    0 -0.39381090911E+02 -0.98519362305E+01 -0.22884525247E+01  0.50528831492E+02  0.29999913803E+02 0.  0.
        -12    1    1    2    0    0  0.39381090911E+02  0.98519362305E+01  0.22884525247E+01  0.40659168508E+02  0.00000000000E+00 0.  1.
         11    1    3    3    0    0 -0.26080778983E+02 -0.71800630945E+01  0.80018813456E+01  0.28209757953E+02  0.51100000000E-03 0.  1.
        -11    1    3    3    0    0 -0.14985344842E+02 -0.11494734587E+01 -0.38854015084E+01  0.15523472369E+02  0.51100000000E-03 0. -1.
        -12    1    3    3    0    0  0.16850329147E+01 -0.15223996772E+01 -0.64049323620E+01  0.67956011700E+01  0.00000000000E+00 0.  1.
</event>
<event>
 7    1  0.2702714E-011  0.5052886E+02  0.7816164E-02  0.1300439E+00
        -11   -1    0    0    0    0  0.00000000000E+00  0.00000000000E+00  0.45593999997E+02  0.45594000000E+02  0.51100000000E-03 0. -1.
         11   -1    0    0    0    0 -0.00000000000E+00 -0.00000000000E+00 -0.45593999997E+02  0.45594000000E+02  0.51100000000E-03 0.  1.
    9900012    2    1    2    0    0 -0.14690940290E+02  0.36738479378E+02  0.93608686395E+01  0.50528862585E+02  0.30000008314E+02 0.  0.
        -12    1    1    2    0    0  0.14690940290E+02 -0.36738479378E+02 -0.93608686395E+01  0.40659137415E+02  0.00000000000E+00 0.  1.
         11    1    3    3    0    0 -0.11470830976E+02  0.11089570139E+02  0.42343854922E+01  0.16507227202E+02  0.51100000000E-03 0. -1.
        -11    1    3    3    0    0 -0.95308875631E+00  0.90432824448E+01  0.12708469258E+02  0.15626724759E+02  0.51100000000E-03 0.  1.
         12    1    3    3    0    0 -0.22670205577E+01  0.16605626795E+02 -0.75819861112E+01  0.18394910623E+02  0.00000000000E+00 0. -1.
</event>
<event>
 7    1  0.2702714E-011  0.5052885E+02  0.7816164E-02  0.1300439E+00
        -11   -1    0    0    0    0  0.00000000000E+00  0.00000000000E+00  0.45593999997E+02  0.45594000000E+02  0.51100000000E-03 0.  1.
         11   -1    0    0    0    0 -0.00000000000E+00 -0.00000000000E+00 -0.45593999997E+02  0.45594000000E+02  0.51100000000E-03 0. -1.
    9900012    2    1    2    0    0 -0.82381582477E+01 -0.23389400203E+02 -0.32221656667E+02  0.50528850335E+02  0.29999971077E+02 0.  0.
        -12    1    1    2    0    0  0.82381582477E+01  0.23389400203E+02  0.32221656667E+02  0.40659149665E+02  0.00000000000E+00 0.  1.
         11    1    3    3    0    0 -0.57335644515E-01 -0.44958890750E+01  0.33255196209E+01  0.55924401616E+01  0.51100000000E-03 0. -1.
        -11    1    3    3    0    0 -0.21802567750E+01 -0.58872921950E+01  0.34921815702E+00  0.62877406575E+01  0.51100000000E-03 0.  1.
         12    1    3    3    0    0 -0.60005658282E+01 -0.13006218933E+02 -0.35896394445E+02  0.38648669515E+02  0.00000000000E+00 0. -1.
</event>
<event>
 7    1  0.2702714E-011  0.5052886E+02  0.7816164E-02  0.1300439E+00
        -11   -1    0    0    0    0  0.00000000000E+00  0.00000000000E+00  0.45593999997E+02  0.45594000000E+02  0.51100000000E-03 0. -1.
         11   -1    0    0    0    0 -0.00000000000E+00 -0.00000000000E+00 -0.45593999997E+02  0.45594000000E+02  0.51100000000E-03 0.  1.
    9900012    2    1    2    0    0  0.22791359253E+02 -0.33170844380E+02  0.57805215753E+01  0.50528863226E+02  0.30000010262E+02 0.  0.
        -12    1    1    2    0    0 -0.22791359253E+02  0.33170844380E+02 -0.57805215753E+01  0.40659136774E+02  0.00000000000E+00 0.  1.
         11    1    3    3    0    0  0.41151973103E+01 -0.16141623192E+02  0.13359717360E+01  0.16711423306E+02  0.51100000000E-03 0. -1.
        -11    1    3    3    0    0  0.57651372736E+01 -0.17290284924E+02 -0.36342740606E+01  0.18584905401E+02  0.51100000000E-03 0.  1.
         12    1    3    3    0    0  0.12911024669E+02  0.26106373540E+00  0.80788238999E+01  0.15232534520E+02  0.00000000000E+00 0. -1.
</event>
<event>
 7    1  0.2702714E-011  0.5052888E+02  0.7816164E-02  0.1300439E+00
        -11   -1    0    0    0    0  0.00000000000E+00  0.00000000000E+00  0.45593999997E+02  0.45594000000E+02  0.51100000000E-03 0.  1.
         11   -1    0    0    0    0 -0.00000000000E+00 -0.00000000000E+00 -0.45593999997E+02  0.45594000000E+02  0.51100000000E-03 0. -1.
    9900012    2    1    2    0    0  0.56987389340E+01  0.19951134746E+02 -0.34966274290E+02  0.50528883668E+02  0.30000072399E+02 0.  0.
        -12    1    1    2    0    0 -0.56987389340E+01 -0.19951134746E+02  0.34966274290E+02  0.40659116332E+02  0.00000000000E+00 0.  1.
         11    1    3    3    0    0  0.41437523537E+01  0.14672929910E+02 -0.92723856367E+01  0.17844962633E+02  0.51100000000E-03 0. -1.
        -11    1    3    3    0    0 -0.72480090606E+01 -0.44143518686E+00 -0.33503829204E+01  0.79970973697E+01  0.51100000000E-03 0.  1.
         12    1    3    3    0    0  0.88029956408E+01  0.57196400231E+01 -0.22343505733E+02  0.24686823666E+02  0.00000000000E+00 0. -1.
</event>
<event>
 7    1  0.2702714E-011  0.5052886E+02  0.7816164E-02  0.1300439E+00
        -11   -1    0    0    0    0  0.00000000000E+00  0.00000000000E+00  0.45593999997E+02  0.45594000000E+02  0.51100000000E-03 0.  1.
         11   -1    0    0    0    0 -0.00000000000E+00 -0.00000000000E+00 -0.45593999997E+02  0.45594000000E+02  0.51100000000E-03 0. -1.
    9900012    2    1    2    0    0  0.11043489311E+02 -0.67294128059E-01 -0.39130587465E+02  0.50528855149E+02  0.29999985711E+02 0.  0.
        -12    1    1    2    0    0 -0.11043489311E+02  0.67294128059E-01  0.39130587465E+02  0.40659144851E+02  0.00000000000E+00 0.  1.
         11    1    3    3    0    0  0.12966991319E+02  0.16058030539E+01 -0.23588226757E+02  0.26965272279E+02  0.51100000000E-03 0. -1.
        -11    1    3    3    0    0  0.37718510134E+01 -0.67465157032E+01 -0.13679341925E+02  0.15711993189E+02  0.51100000000E-03 0.  1.
        -12    1    3    3    0    0 -0.56953530212E+01  0.50734185212E+01 -0.18630187828E+01  0.78515896806E+01  0.00000000000E+00 0.  1.
</event>
<event>
 7    1  0.2702714E-011  0.5052887E+02  0.7816164E-02  0.1300439E+00
        -11   -1    0    0    0    0  0.00000000000E+00  0.00000000000E+00  0.45593999997E+02  0.45594000000E+02  0.51100000000E-03 0.  1.
         11   -1    0    0    0    0 -0.00000000000E+00 -0.00000000000E+00 -0.45593999997E+02  0.45594000000E+02  0.51100000000E-03 0. -1.
    9900012    2    1    2    0    0  0.22776006052E+02  0.31031393124E+02 -0.13094710670E+02  0.50528865006E+02  0.30000015672E+02 0.  0.
        -12    1    1    2    0    0 -0.22776006052E+02 -0.31031393124E+02  0.13094710670E+02  0.40659134994E+02  0.00000000000E+00 0.  1.
         11    1    3    3    0    0  0.69256366516E+01  0.20120881090E+02  0.71339400901E+00  0.21291388638E+02  0.51100000000E-03 0. -1.
        -11    1    3    3    0    0  0.77550860620E+01  0.13803753376E+02 -0.42737238488E+01  0.16399685451E+02  0.51100000000E-03 0.  1.
        -12    1    3    3    0    0  0.80952833386E+01 -0.28932413422E+01 -0.95343808307E+01  0.12837790917E+02  0.00000000000E+00 0.  1.
</event>
<event>
 7    1  0.2702714E-011  0.5052886E+02  0.7816164E-02  0.1300439E+00
        -11   -1    0    0    0    0  0.00000000000E+00  0.00000000000E+00  0.45593999997E+02  0.45594000000E+02  0.51100000000E-03 0.  1.
         11   -1    0    0    0    0 -0.00000000000E+00 -0.00000000000E+00 -0.45593999997E+02  0.45594000000E+02  0.51100000000E-03 0. -1.
    9900012    2    1    2    0    0  0.30479858934E+01  0.21182615489E+02 -0.34571264923E+02  0.50528858649E+02  0.29999996351E+02 0.  0.
        -12    1    1    2    0    0 -0.30479858934E+01 -0.21182615489E+02  0.34571264923E+02  0.40659141351E+02  0.00000000000E+00 0.  1.
         11    1    3    3    0    0 -0.18726413716E+01  0.52930953734E+00 -0.27328080160E+02  0.27397279423E+02  0.51100000000E-03 0. -1.
        -11    1    3    3    0    0 -0.10207382088E+01  0.17426202874E+01  0.23028531258E-01  0.20196936726E+01  0.51100000000E-03 0.  1.
         12    1    3    3    0    0  0.59413654738E+01  0.18910685664E+02 -0.72662132946E+01  0.21111885554E+02  0.00000000000E+00 0. -1.
</event>
<event>
 7    1  0.2702714E-011  0.5052886E+02  0.7816164E-02  0.1300439E+00
        -11   -1    0    0    0    0  0.00000000000E+00  0.00000000000E+00  0.45593999997E+02  0.45594000000E+02  0.51100000000E-03 0.  1.
         11   -1    0    0    0    0 -0.00000000000E+00 -0.00000000000E+00 -0.45593999997E+02  0.45594000000E+02  0.51100000000E-03 0. -1.
    9900012    2    1    2    0    0 -0.11319643951E+01 -0.21032095198E+02 -0.34778373992E+02  0.50528859953E+02  0.30000000314E+02 0.  0.
        -12    1    1    2    0    0  0.11319643951E+01  0.21032095198E+02  0.34778373992E+02  0.40659140047E+02  0.00000000000E+00 0.  1.
         11    1    3    3    0    0  0.10199926121E+02 -0.87120274902E+01 -0.21452848188E+02  0.25301434969E+02  0.51100000000E-03 0.  1.
        -11    1    3    3    0    0 -0.35059599739E+01 -0.23902310372E+01 -0.11742509973E+02  0.12485651784E+02  0.51100000000E-03 0. -1.
        -12    1    3    3    0    0 -0.78259305417E+01 -0.99298366709E+01 -0.15830158308E+01  0.12741773200E+02  0.00000000000E+00 0.  1.
</event>
<event>
 7    1  0.2702714E-011  0.5052883E+02  0.7816164E-02  0.1300439E+00
        -11   -1    0    0    0    0  0.00000000000E+00  0.00000000000E+00  0.45593999997E+02  0.45594000000E+02  0.51100000000E-03 0.  1.
         11   -1    0    0    0    0 -0.00000000000E+00 -0.00000000000E+00 -0.45593999997E+02  0.45594000000E+02  0.51100000000E-03 0. -1.
    9900012    2    1    2    0    0  0.19579203137E+01  0.22729544028E+02 -0.33655644036E+02  0.50528831303E+02  0.29999913229E+02 0.  0.
        -12    1    1    2    0    0 -0.19579203137E+01 -0.22729544028E+02  0.33655644036E+02  0.40659168697E+02  0.00000000000E+00 0.  1.
         11    1    3    3    0    0  0.72402060511E+01 -0.14403604984E+01 -0.13391872331E+02  0.15291745055E+02  0.51100000000E-03 0. -1.
        -11    1    3    3    0    0  0.41158253304E+01  0.13481827700E+02 -0.13349372003E+02  0.19414052370E+02  0.51100000000E-03 0.  1.
        -12    1    3    3    0    0 -0.93981110678E+01  0.10688076826E+02 -0.69143997014E+01  0.15823033878E+02  0.00000000000E+00 0.  1.
</event>
<event>
 7    1  0.2702714E-011  0.5052887E+02  0.7816164E-02  0.1300439E+00
        -11   -1    0    0    0    0  0.00000000000E+00  0.00000000000E+00  0.45593999997E+02  0.45594000000E+02  0.51100000000E-03 0.  1.
         11   -1    0    0    0    0 -0.00000000000E+00 -0.00000000000E+00 -0.45593999997E+02  0.45594000000E+02  0.51100000000E-03 0. -1.
    9900012    2    1    2    0    0  0.26827098616E+02 -0.30318812896E+02 -0.37737862250E+01  0.50528866979E+02  0.30000021668E+02 0.  0.
        -12    1    1    2    0    0 -0.26827098616E+02  0.30318812896E+02  0.37737862250E+01  0.40659133021E+02  0.00000000000E+00 0.  1.
         11    1    3    3    0    0 -0.16218076957E+01 -0.80551491630E+01 -0.85573431830E+01  0.11863549673E+02  0.51100000000E-03 0. -1.
        -11    1    3    3    0    0  0.15067445779E+02 -0.44687547147E+01 -0.71205961255E+00  0.15732282739E+02  0.51100000000E-03 0.  1.
        -12    1    3    3    0    0  0.13381460532E+02 -0.17794909018E+02  0.54956165706E+01  0.22933034567E+02  0.00000000000E+00 0.  1.
</event>
<event>
 7    1  0.2702714E-011  0.5052885E+02  0.7816164E-02  0.1300439E+00
        -11   -1    0    0    0    0  0.00000000000E+00  0.00000000000E+00  0.45593999997E+02  0.45594000000E+02  0.51100000000E-03 0.  1.
         11   -1    0    0    0    0 -0.00000000000E+00 -0.00000000000E+00 -0.45593999997E+02  0.45594000000E+02  0.51100000000E-03 0. -1.
    9900012    2    1    2    0    0  0.82345124026E+01 -0.14519125449E+02 -0.37074977562E+02  0.50528853925E+02  0.29999981990E+02 0.  0.
        -12    1    1    2    0    0 -0.82345124026E+01  0.14519125449E+02  0.37074977562E+02  0.40659146075E+02  0.00000000000E+00 0.  1.
         11    1    3    3    0    0  0.99516039673E+01 -0.37236031816E+01 -0.13507589262E+02  0.17185884036E+02  0.51100000000E-03 0. -1.
        -11    1    3    3    0    0  0.20538793029E+01 -0.92070208746E+01 -0.10495525582E-01  0.94333326027E+01  0.51100000000E-03 0.  1.
        -12    1    3    3    0    0 -0.37709708676E+01 -0.15885013931E+01 -0.23556892774E+02  0.23909637286E+02  0.00000000000E+00 0.  1.
</event>
<event>
 7    1  0.2702714E-011  0.5052886E+02  0.7816164E-02  0.1300439E+00
        -11   -1    0    0    0    0  0.00000000000E+00  0.00000000000E+00  0.45593999997E+02  0.45594000000E+02  0.51100000000E-03 0.  1.
         11   -1    0    0    0    0 -0.00000000000E+00 -0.00000000000E+00 -0.45593999997E+02  0.45594000000E+02  0.51100000000E-03 0. -1.
    9900012    2    1    2    0    0 -0.20007286635E+02  0.17889355134E+02 -0.30542516381E+02  0.50528857701E+02  0.29999993468E+02 0.  0.
        -12    1    1    2    0    0  0.20007286635E+02 -0.17889355134E+02  0.30542516381E+02  0.40659142299E+02  0.00000000000E+00 0.  1.
         11    1    3    3    0    0 -0.22939588527E+01  0.18358422212E+02 -0.20031057664E+02  0.27267878259E+02  0.51100000000E-03 0. -1.
        -11    1    3    3    0    0  0.87447525428E+00 -0.15859699626E+01 -0.22525512457E+01  0.28903278479E+01  0.51100000000E-03 0.  1.
        -12    1    3    3    0    0 -0.18587803036E+02  0.11169028852E+01 -0.82589074709E+01  0.20370651595E+02  0.00000000000E+00 0.  1.
</event>
<event>
 7    1  0.2702714E-011  0.5052886E+02  0.7816164E-02  0.1300439E+00
        -11   -1    0    0    0    0  0.00000000000E+00  0.00000000000E+00  0.45593999997E+02  0.45594000000E+02  0.51100000000E-03 0.  1.
         11   -1    0    0    0    0 -0.00000000000E+00 -0.00000000000E+00 -0.45593999997E+02  0.45594000000E+02  0.51100000000E-03 0. -1.
    9900012    2    1    2    0    0  0.10334032794E+02 -0.12070376137E+02 -0.37425656774E+02  0.50528855902E+02  0.29999987999E+02 0.  0.
        -12    1    1    2    0    0 -0.10334032794E+02  0.12070376137E+02  0.37425656774E+02  0.40659144098E+02  0.00000000000E+00 0.  1.
         11    1    3    3    0    0  0.98429389789E+01 -0.15011375778E+02 -0.90148917267E+01  0.20087138263E+02  0.51100000000E-03 0. -1.
        -11    1    3    3    0    0  0.47049433267E+01 -0.32532708513E+00 -0.74806168936E+01  0.88431871398E+01  0.51100000000E-03 0.  1.
         12    1    3    3    0    0 -0.42138495116E+01  0.32663267265E+01 -0.20930148153E+02  0.21598530499E+02  0.00000000000E+00 0. -1.
</event>
<event>
 7    1  0.2702714E-011  0.5052892E+02  0.7816164E-02  0.1300439E+00
        -11   -1    0    0    0    0  0.00000000000E+00  0.00000000000E+00  0.45593999997E+02  0.45594000000E+02  0.51100000000E-03 0.  1.
         11   -1    0    0    0    0 -0.00000000000E+00 -0.00000000000E+00 -0.45593999997E+02  0.45594000000E+02  0.51100000000E-03 0. -1.
    9900012    2    1    2    0    0 -0.50102370220E+01  0.37809747228E+02 -0.14088347135E+02  0.50528917553E+02  0.30000175393E+02 0.  0.
        -12    1    1    2    0    0  0.50102370220E+01 -0.37809747228E+02  0.14088347135E+02  0.40659082447E+02  0.00000000000E+00 0.  1.
         11    1    3    3    0    0  0.14905813888E+01  0.17632429969E+01  0.25086837595E+01  0.34094505729E+01  0.51100000000E-03 0. -1.
        -11    1    3    3    0    0 -0.62916364828E+00  0.71440573168E+01 -0.16097052859E+02  0.17622386695E+02  0.51100000000E-03 0.  1.
         12    1    3    3    0    0 -0.58716547625E+01  0.28902446914E+02 -0.49997803533E+00  0.29497080285E+02  0.00000000000E+00 0. -1.
</event>
<event>
 7    1  0.2702714E-011  0.5052886E+02  0.7816164E-02  0.1300439E+00
        -11   -1    0    0    0    0  0.00000000000E+00  0.00000000000E+00  0.45593999997E+02  0.45594000000E+02  0.51100000000E-03 0. -1.
         11   -1    0    0    0    0 -0.00000000000E+00 -0.00000000000E+00 -0.45593999997E+02  0.45594000000E+02  0.51100000000E-03 0.  1.
    9900012    2    1    2    0    0 -0.19608741215E+02 -0.21054302720E+02  0.28729419959E+02  0.50528856302E+02  0.29999989215E+02 0.  0.
        -12    1    1    2    0    0  0.19608741215E+02  0.21054302720E+02 -0.28729419959E+02  0.40659143698E+02  0.00000000000E+00 0.  1.
         11    1    3    3    0    0  0.14136066109E+01 -0.15286915312E+02  0.12073876431E+02  0.19531168827E+02  0.51100000000E-03 0. -1.
        -11    1    3    3    0    0 -0.45595363775E+01  0.12554299532E-01  0.12150007055E+02  0.12977372665E+02  0.51100000000E-03 0.  1.
         12    1    3    3    0    0 -0.16462811448E+02 -0.57799417075E+01  0.45055364730E+01  0.18020314810E+02  0.00000000000E+00 0. -1.
</event>
<event>
 7    1  0.2702714E-011  0.5052891E+02  0.7816164E-02  0.1300439E+00
        -11   -1    0    0    0    0  0.00000000000E+00  0.00000000000E+00  0.45593999997E+02  0.45594000000E+02  0.51100000000E-03 0. -1.
         11   -1    0    0    0    0 -0.00000000000E+00 -0.00000000000E+00 -0.45593999997E+02  0.45594000000E+02  0.51100000000E-03 0.  1.
    9900012    2    1    2    0    0  0.34743265969E+02  0.12067285013E+02  0.17333435819E+02  0.50528906366E+02  0.30000141391E+02 0.  0.
        -12    1    1    2    0    0 -0.34743265969E+02 -0.12067285013E+02 -0.17333435819E+02  0.40659093634E+02  0.00000000000E+00 0.  1.
         11    1    3    3    0    0  0.24386270661E+02  0.98844195938E+00  0.17496458748E+02  0.30029873180E+02  0.51100000000E-03 0. -1.
        -11    1    3    3    0    0  0.19948200330E+01  0.67969532108E+01  0.59832633542E+01  0.92723956204E+01  0.51100000000E-03 0.  1.
         12    1    3    3    0    0  0.83621752757E+01  0.42818898429E+01 -0.61462862826E+01  0.11226637566E+02  0.00000000000E+00 0. -1.
</event>
<event>
 7    1  0.2702714E-011  0.5052886E+02  0.7816164E-02  0.1300439E+00
        -11   -1    0    0    0    0  0.00000000000E+00  0.00000000000E+00  0.45593999997E+02  0.45594000000E+02  0.51100000000E-03 0.  1.
         11   -1    0    0    0    0 -0.00000000000E+00 -0.00000000000E+00 -0.45593999997E+02  0.45594000000E+02  0.51100000000E-03 0. -1.
    9900012    2    1    2    0    0  0.28387782021E+02 -0.27633315812E+02 -0.91487281680E+01  0.50528861569E+02  0.30000005226E+02 0.  0.
        -12    1    1    2    0    0 -0.28387782021E+02  0.27633315812E+02  0.91487281680E+01  0.40659138431E+02  0.00000000000E+00 0.  1.
         11    1    3    3    0    0  0.16464140940E+02 -0.15935752106E+02  0.77747622977E+00  0.22926417113E+02  0.51100000000E-03 0. -1.
        -11    1    3    3    0    0  0.16544423557E+02 -0.48517702317E+01 -0.48596939837E+01  0.17912963213E+02  0.51100000000E-03 0.  1.
         12    1    3    3    0    0 -0.46207824761E+01 -0.68457934743E+01 -0.50665104141E+01  0.96894812430E+01  0.00000000000E+00 0. -1.
</event>
<event>
 7    1  0.2702714E-011  0.5052887E+02  0.7816164E-02  0.1300439E+00
        -11   -1    0    0    0    0  0.00000000000E+00  0.00000000000E+00  0.45593999997E+02  0.45594000000E+02  0.51100000000E-03 0.  1.
         11   -1    0    0    0    0 -0.00000000000E+00 -0.00000000000E+00 -0.45593999997E+02  0.45594000000E+02  0.51100000000E-03 0. -1.
    9900012    2    1    2    0    0 -0.28523446108E+02  0.14814695533E+00 -0.28975090287E+02  0.50528870858E+02  0.30000033461E+02 0.  0.
        -12    1    1    2    0    0  0.28523446108E+02 -0.14814695533E+00  0.28975090287E+02  0.40659129142E+02  0.00000000000E+00 0.  1.
         11    1    3    3    0    0 -0.99910208045E+00 -0.20536815764E+01 -0.33422984083E+00  0.23081427235E+01  0.51100000000E-03 0.  1.
        -11    1    3    3    0    0 -0.12641348015E+02 -0.60859296585E+01  0.96561990060E+00  0.14063237234E+02  0.51100000000E-03 0. -1.
         12    1    3    3    0    0 -0.14882996013E+02  0.82877581902E+01 -0.29606480347E+02  0.34157490901E+02  0.00000000000E+00 0. -1.
</event>
<event>
 7    1  0.2702714E-011  0.5052886E+02  0.7816164E-02  0.1300439E+00
        -11   -1    0    0    0    0  0.00000000000E+00  0.00000000000E+00  0.45593999997E+02  0.45594000000E+02  0.51100000000E-03 0.  1.
         11   -1    0    0    0    0 -0.00000000000E+00 -0.00000000000E+00 -0.45593999997E+02  0.45594000000E+02  0.51100000000E-03 0. -1.
    9900012    2    1    2    0    0 -0.16993376281E+02  0.14140170809E+02 -0.34123986505E+02  0.50528859294E+02  0.29999998311E+02 0.  0.
        -12    1    1    2    0    0  0.16993376281E+02 -0.14140170809E+02  0.34123986505E+02  0.40659140706E+02  0.00000000000E+00 0.  1.
         11    1    3    3    0    0 -0.21189563228E+02  0.61264397190E+01 -0.30907324284E+02  0.37970956639E+02  0.51100000000E-03 0. -1.
        -11    1    3    3    0    0 -0.18387043741E+00  0.65010630766E+01  0.63183546403E+00  0.65342823461E+01  0.51100000000E-03 0.  1.
        -12    1    3    3    0    0  0.43800573839E+01  0.15126680137E+01 -0.38484976847E+01  0.60236203097E+01  0.00000000000E+00 0.  1.
</event>
<event>
 7    1  0.2702714E-011  0.5052886E+02  0.7816164E-02  0.1300439E+00
        -11   -1    0    0    0    0  0.00000000000E+00  0.00000000000E+00  0.45593999997E+02  0.45594000000E+02  0.51100000000E-03 0.  1.
         11   -1    0    0    0    0 -0.00000000000E+00 -0.00000000000E+00 -0.45593999997E+02  0.45594000000E+02  0.51100000000E-03 0. -1.
    9900012    2    1    2    0    0 -0.13525692763E+02  0.35681866106E+02 -0.14036585463E+02  0.50528860007E+02  0.30000000476E+02 0.  0.
        -12    1    1    2    0    0  0.13525692763E+02 -0.35681866106E+02  0.14036585463E+02  0.40659139993E+02  0.00000000000E+00 0.  1.
         11    1    3    3    0    0 -0.11279049872E+02  0.26985691969E+02 -0.88348305441E+01  0.30553212074E+02  0.51100000000E-03 0. -1.
        -11    1    3    3    0    0 -0.97173828002E+01  0.54450252070E+01 -0.30231586289E+01  0.11541893967E+02  0.51100000000E-03 0.  1.
        -12    1    3    3    0    0  0.74707399091E+01  0.32511489305E+01 -0.21785962898E+01  0.84337539655E+01  0.00000000000E+00 0.  1.
</event>
<event>
 7    1  0.2702714E-011  0.5052886E+02  0.7816164E-02  0.1300439E+00
        -11   -1    0    0    0    0  0.00000000000E+00  0.00000000000E+00  0.45593999997E+02  0.45594000000E+02  0.51100000000E-03 0. -1.
         11   -1    0    0    0    0 -0.00000000000E+00 -0.00000000000E+00 -0.45593999997E+02  0.45594000000E+02  0.51100000000E-03 0.  1.
    9900012    2    1    2    0    0 -0.26516562833E+02 -0.29179923484E+02 -0.99282072809E+01  0.50528864017E+02  0.30000012667E+02 0.  0.
        -12    1    1    2    0    0  0.26516562833E+02  0.29179923484E+02  0.99282072809E+01  0.40659135983E+02  0.00000000000E+00 0.  1.
         11    1    3    3    0    0 -0.16354154603E+02 -0.20241881501E+02  0.49233140263E+01  0.26484545696E+02  0.51100000000E-03 0. -1.
        -11    1    3    3    0    0  0.26067815663E+01 -0.10871127487E+00 -0.72538653831E-01  0.26100556303E+01  0.51100000000E-03 0.  1.
        -12    1    3    3    0    0 -0.12769189797E+02 -0.88293307087E+01 -0.14778982653E+02  0.21434262691E+02  0.00000000000E+00 0.  1.
</event>
<event>
 7    1  0.2702714E-011  0.5052886E+02  0.7816164E-02  0.1300439E+00
        -11   -1    0    0    0    0  0.00000000000E+00  0.00000000000E+00  0.45593999997E+02  0.45594000000E+02  0.51100000000E-03 0. -1.
         11   -1    0    0    0    0 -0.00000000000E+00 -0.00000000000E+00 -0.45593999997E+02  0.45594000000E+02  0.51100000000E-03 0.  1.
    9900012    2    1    2    0    0  0.17995034927E+02 -0.69703277612E+01  0.35787697513E+02  0.50528855340E+02  0.29999986293E+02 0.  0.
        -12    1    1    2    0    0 -0.17995034927E+02  0.69703277612E+01 -0.35787697513E+02  0.40659144660E+02  0.00000000000E+00 0.  1.
         11    1    3    3    0    0  0.13177366480E+02 -0.10627648599E+01  0.10758950841E+02  0.17044866674E+02  0.51100000000E-03 0. -1.
        -11    1    3    3    0    0  0.46019409121E+00 -0.10318151681E+02  0.32315421612E+01  0.10822148479E+02  0.51100000000E-03 0.  1.
         12    1    3    3    0    0  0.43574743564E+01  0.44105887793E+01  0.21797204511E+02  0.22661840187E+02  0.00000000000E+00 0. -1.
</event>
<event>
 7    1  0.2702714E-011  0.5052882E+02  0.7816164E-02  0.1300439E+00
        -11   -1    0    0    0    0  0.00000000000E+00  0.00000000000E+00  0.45593999997E+02  0.45594000000E+02  0.51100000000E-03 0. -1.
         11   -1    0    0    0    0 -0.00000000000E+00 -0.00000000000E+00 -0.45593999997E+02  0.45594000000E+02  0.51100000000E-03 0.  1.
    9900012    2    1    2    0    0 -0.10411707871E+02 -0.31088938762E+02  0.24046689205E+02  0.50528818554E+02  0.29999874477E+02 0.  0.
        -12    1    1    2    0    0  0.10411707871E+02  0.31088938762E+02 -0.24046689205E+02  0.40659181446E+02  0.00000000000E+00 0.  1.
         11    1    3    3    0    0 -0.43348999428E+01  0.29136815639E+00  0.66332512932E+01  0.79294562169E+01  0.51100000000E-03 0.  1.
        -11    1    3    3    0    0  0.68074356460E+01 -0.47791911699E+01  0.46521734638E-01  0.83176927597E+01  0.51100000000E-03 0. -1.
         12    1    3    3    0    0 -0.12884243574E+02 -0.26601115748E+02  0.17366916177E+02  0.34281669578E+02  0.00000000000E+00 0. -1.
</event>
<event>
 7    1  0.2702714E-011  0.5052888E+02  0.7816164E-02  0.1300439E+00
        -11   -1    0    0    0    0  0.00000000000E+00  0.00000000000E+00  0.45593999997E+02  0.45594000000E+02  0.51100000000E-03 0.  1.
         11   -1    0    0    0    0 -0.00000000000E+00 -0.00000000000E+00 -0.45593999997E+02  0.45594000000E+02  0.51100000000E-03 0. -1.
    9900012    2    1    2    0    0 -0.38158470992E+02  0.45431844582E+01 -0.13283635333E+02  0.50528875549E+02  0.30000047718E+02 0.  0.
        -12    1    1    2    0    0  0.38158470992E+02 -0.45431844582E+01  0.13283635333E+02  0.40659124451E+02  0.00000000000E+00 0.  1.
         11    1    3    3    0    0 -0.23620631774E+02  0.21115125957E+00 -0.12165941008E+02  0.26570452596E+02  0.51100000000E-03 0. -1.
        -11    1    3    3    0    0 -0.12486312529E+01 -0.28890212775E+01 -0.70434292898E+01  0.77146237996E+01  0.51100000000E-03 0.  1.
        -12    1    3    3    0    0 -0.13289207965E+02  0.72210544761E+01  0.59257349643E+01  0.16243799154E+02  0.00000000000E+00 0.  1.
</event>
<event>
 7    1  0.2702714E-011  0.5052887E+02  0.7816164E-02  0.1300439E+00
        -11   -1    0    0    0    0  0.00000000000E+00  0.00000000000E+00  0.45593999997E+02  0.45594000000E+02  0.51100000000E-03 0.  1.
         11   -1    0    0    0    0 -0.00000000000E+00 -0.00000000000E+00 -0.45593999997E+02  0.45594000000E+02  0.51100000000E-03 0. -1.
    9900012    2    1    2    0    0 -0.11636256596E+02 -0.22959139153E+02 -0.31474445516E+02  0.50528865002E+02  0.30000015661E+02 0.  0.
        -12    1    1    2    0    0  0.11636256596E+02  0.22959139153E+02  0.31474445516E+02  0.40659134998E+02  0.00000000000E+00 0.  1.
         11    1    3    3    0    0 -0.46338383083E+01 -0.22629317096E+02 -0.85288318626E+01  0.24623148111E+02  0.51100000000E-03 0. -1.
        -11    1    3    3    0    0 -0.27127409041E+01 -0.34537302816E+01 -0.31329004067E+01  0.53946530278E+01  0.51100000000E-03 0.  1.
        -12    1    3    3    0    0 -0.42896773838E+01  0.31239082239E+01 -0.19812713246E+02  0.20511063864E+02  0.00000000000E+00 0.  1.
</event>
<event>
 7    1  0.2702714E-011  0.5052881E+02  0.7816164E-02  0.1300439E+00
        -11   -1    0    0    0    0  0.00000000000E+00  0.00000000000E+00  0.45593999997E+02  0.45594000000E+02  0.51100000000E-03 0.  1.
         11   -1    0    0    0    0 -0.00000000000E+00 -0.00000000000E+00 -0.45593999997E+02  0.45594000000E+02  0.51100000000E-03 0. -1.
    9900012    2    1    2    0    0 -0.30342607132E+02  0.16552021626E+02  0.21413235123E+02  0.50528808347E+02  0.29999843450E+02 0.  0.
        -12    1    1    2    0    0  0.30342607132E+02 -0.16552021626E+02 -0.21413235123E+02  0.40659191653E+02  0.00000000000E+00 0.  1.
         11    1    3    3    0    0 -0.32392448096E+02  0.12312706353E+02  0.23992342585E+02  0.42148617230E+02  0.51100000000E-03 0. -1.
        -11    1    3    3    0    0 -0.14079030732E+00  0.14490681108E+01 -0.42255249414E+01  0.44693043745E+01  0.51100000000E-03 0.  1.
        -12    1    3    3    0    0  0.21906312715E+01  0.27902471626E+01  0.16464174794E+01  0.39108867425E+01  0.00000000000E+00 0.  1.
</event>
<event>
 7    1  0.2702714E-011  0.5052885E+02  0.7816164E-02  0.1300439E+00
        -11   -1    0    0    0    0  0.00000000000E+00  0.00000000000E+00  0.45593999997E+02  0.45594000000E+02  0.51100000000E-03 0.  1.
         11   -1    0    0    0    0 -0.00000000000E+00 -0.00000000000E+00 -0.45593999997E+02  0.45594000000E+02  0.51100000000E-03 0. -1.
    9900012    2    1    2    0    0 -0.22705689315E+02 -0.59151416744E+01 -0.33205864215E+02  0.50528847936E+02  0.29999963786E+02 0.  0.
        -12    1    1    2    0    0  0.22705689315E+02  0.59151416744E+01  0.33205864215E+02  0.40659152064E+02  0.00000000000E+00 0.  1.
         11    1    3    3    0    0  0.53591652669E+01  0.30129550627E+01 -0.15518913799E+01  0.63408924990E+01  0.51100000000E-03 0. -1.
        -11    1    3    3    0    0 -0.14340712976E+00 -0.15964258201E+01 -0.42089886637E+00  0.16571955590E+01  0.51100000000E-03 0.  1.
        -12    1    3    3    0    0 -0.27921447453E+02 -0.73316709171E+01 -0.31233073968E+02  0.42530759878E+02  0.00000000000E+00 0.  1.
</event>
<event>
 7    1  0.2702714E-011  0.5052886E+02  0.7816164E-02  0.1300439E+00
        -11   -1    0    0    0    0  0.00000000000E+00  0.00000000000E+00  0.45593999997E+02  0.45594000000E+02  0.51100000000E-03 0. -1.
         11   -1    0    0    0    0 -0.00000000000E+00 -0.00000000000E+00 -0.45593999997E+02  0.45594000000E+02  0.51100000000E-03 0.  1.
    9900012    2    1    2    0    0  0.30518524595E+02  0.75735453108E+01  0.25776480510E+02  0.50528857369E+02  0.29999992458E+02 0.  0.
        -12    1    1    2    0    0 -0.30518524595E+02 -0.75735453108E+01 -0.25776480510E+02  0.40659142631E+02  0.00000000000E+00 0.  1.
         11    1    3    3    0    0  0.12612590617E+02  0.27590266554E+01  0.12800756249E+02  0.18181007425E+02  0.51100000000E-03 0. -1.
        -11    1    3    3    0    0  0.14503444874E+02 -0.14339128500E+01  0.18348507418E+02  0.23432322633E+02  0.51100000000E-03 0.  1.
        -12    1    3    3    0    0  0.34024891032E+01  0.62484315054E+01 -0.53727831567E+01  0.89155273105E+01  0.00000000000E+00 0.  1.
</event>
<event>
 7    1  0.2702714E-011  0.5052896E+02  0.7816164E-02  0.1300438E+00
        -11   -1    0    0    0    0  0.00000000000E+00  0.00000000000E+00  0.45593999997E+02  0.45594000000E+02  0.51100000000E-03 0.  1.
         11   -1    0    0    0    0 -0.00000000000E+00 -0.00000000000E+00 -0.45593999997E+02  0.45594000000E+02  0.51100000000E-03 0. -1.
    9900012    2    1    2    0    0  0.33699173026E+02 -0.22481959153E+02 -0.34763657928E+01  0.50528955875E+02  0.30000291877E+02 0.  0.
        -12    1    1    2    0    0 -0.33699173026E+02  0.22481959153E+02  0.34763657928E+01  0.40659044125E+02  0.00000000000E+00 0.  1.
         11    1    3    3    0    0  0.92756265659E+01 -0.11414124320E+00 -0.78713903477E+01  0.12165897529E+02  0.51100000000E-03 0. -1.
        -11    1    3    3    0    0  0.10377448940E+02  0.10683113488E+01  0.35747792134E+01  0.11027773226E+02  0.51100000000E-03 0.  1.
        -12    1    3    3    0    0  0.14046097520E+02 -0.23436129259E+02  0.82024534149E+00  0.27335285120E+02  0.00000000000E+00 0.  1.
</event>
<event>
 7    1  0.2702714E-011  0.5052887E+02  0.7816164E-02  0.1300439E+00
        -11   -1    0    0    0    0  0.00000000000E+00  0.00000000000E+00  0.45593999997E+02  0.45594000000E+02  0.51100000000E-03 0.  1.
         11   -1    0    0    0    0 -0.00000000000E+00 -0.00000000000E+00 -0.45593999997E+02  0.45594000000E+02  0.51100000000E-03 0. -1.
    9900012    2    1    2    0    0 -0.32591013553E+02  0.46433832251E+01 -0.23862717454E+02  0.50528874868E+02  0.30000045649E+02 0.  0.
        -12    1    1    2    0    0  0.32591013553E+02 -0.46433832251E+01  0.23862717454E+02  0.40659125132E+02  0.00000000000E+00 0.  1.
         11    1    3    3    0    0 -0.62078175861E+01  0.94036500726E+01 -0.36611869808E+01  0.11847781406E+02  0.51100000000E-03 0. -1.
        -11    1    3    3    0    0 -0.40519289453E+00 -0.53640097134E+01  0.57673848230E+00  0.54101209806E+01  0.51100000000E-03 0.  1.
         12    1    3    3    0    0 -0.25978003073E+02  0.60374286589E+00 -0.20778268956E+02  0.33270972482E+02  0.00000000000E+00 0. -1.
</event>
<event>
 7    1  0.2702714E-011  0.5052886E+02  0.7816164E-02  0.1300439E+00
        -11   -1    0    0    0    0  0.00000000000E+00  0.00000000000E+00  0.45593999997E+02  0.45594000000E+02  0.51100000000E-03 0.  1.
         11   -1    0    0    0    0 -0.00000000000E+00 -0.00000000000E+00 -0.45593999997E+02  0.45594000000E+02  0.51100000000E-03 0. -1.
    9900012    2    1    2    0    0 -0.36400080475E+02 -0.10834620057E+02 -0.14519331727E+02  0.50528857804E+02  0.29999993780E+02 0.  0.
        -12    1    1    2    0    0  0.36400080475E+02  0.10834620057E+02  0.14519331727E+02  0.40659142196E+02  0.00000000000E+00 0.  1.
         11    1    3    3    0    0 -0.29836409908E+02 -0.16197477007E+02 -0.93981600140E+01  0.35226339995E+02  0.51100000000E-03 0. -1.
        -11    1    3    3    0    0 -0.91544459117E+01  0.41299103862E+01 -0.74615236912E+00  0.10070590021E+02  0.51100000000E-03 0.  1.
        -12    1    3    3    0    0  0.25907753447E+01  0.12329465630E+01 -0.43750193439E+01  0.52319277875E+01  0.00000000000E+00 0.  1.
</event>
<event>
 7    1  0.2702714E-011  0.5052885E+02  0.7816164E-02  0.1300439E+00
        -11   -1    0    0    0    0  0.00000000000E+00  0.00000000000E+00  0.45593999997E+02  0.45594000000E+02  0.51100000000E-03 0.  1.
         11   -1    0    0    0    0 -0.00000000000E+00 -0.00000000000E+00 -0.45593999997E+02  0.45594000000E+02  0.51100000000E-03 0. -1.
    9900012    2    1    2    0    0  0.40585699596E+02  0.20321692065E+01  0.13557522699E+01  0.50528846201E+02  0.29999958513E+02 0.  0.
        -12    1    1    2    0    0 -0.40585699596E+02 -0.20321692065E+01 -0.13557522699E+01  0.40659153799E+02  0.00000000000E+00 0.  1.
         11    1    3    3    0    0  0.49736116751E+01  0.52120664190E+01  0.68836537867E+00  0.72371469936E+01  0.51100000000E-03 0. -1.
        -11    1    3    3    0    0  0.10587754547E+02 -0.53781142863E+01  0.10945020540E+02  0.16149864845E+02  0.51100000000E-03 0.  1.
        -12    1    3    3    0    0  0.25024333375E+02  0.21982170738E+01 -0.10277633649E+02  0.27141834363E+02  0.00000000000E+00 0.  1.
</event>
<event>
 7    1  0.2702714E-011  0.5052886E+02  0.7816164E-02  0.1300439E+00
        -11   -1    0    0    0    0  0.00000000000E+00  0.00000000000E+00  0.45593999997E+02  0.45594000000E+02  0.51100000000E-03 0.  1.
         11   -1    0    0    0    0 -0.00000000000E+00 -0.00000000000E+00 -0.45593999997E+02  0.45594000000E+02  0.51100000000E-03 0. -1.
    9900012    2    1    2    0    0  0.16768463342E+02 -0.36430458978E+02 -0.66937259626E+01  0.50528859928E+02  0.30000000236E+02 0.  0.
        -12    1    1    2    0    0 -0.16768463342E+02  0.36430458978E+02  0.66937259626E+01  0.40659140072E+02  0.00000000000E+00 0.  1.
         11    1    3    3    0    0  0.18719294200E+02 -0.17666201362E+02 -0.77480431637E+01  0.26880082199E+02  0.51100000000E-03 0. -1.
        -11    1    3    3    0    0 -0.33052428346E+00 -0.25478529538E+01 -0.55097867050E+01  0.60793544700E+01  0.51100000000E-03 0.  1.
        -12    1    3    3    0    0 -0.16203065746E+01 -0.16216404661E+02  0.65641039062E+01  0.17569423258E+02  0.00000000000E+00 0.  1.
</event>
<event>
 7    1  0.2702714E-011  0.5052887E+02  0.7816164E-02  0.1300439E+00
        -11   -1    0    0    0    0  0.00000000000E+00  0.00000000000E+00  0.45593999997E+02  0.45594000000E+02  0.51100000000E-03 0. -1.
         11   -1    0    0    0    0 -0.00000000000E+00 -0.00000000000E+00 -0.45593999997E+02  0.45594000000E+02  0.51100000000E-03 0.  1.
    9900012    2    1    2    0    0  0.31878434817E+02  0.13827004811E+02 -0.21112657776E+02  0.50528868347E+02  0.30000025828E+02 0.  0.
        -12    1    1    2    0    0 -0.31878434817E+02 -0.13827004811E+02  0.21112657776E+02  0.40659131653E+02  0.00000000000E+00 0.  1.
         11    1    3    3    0    0 -0.13002533023E+01  0.67110574610E+01 -0.63511197438E+01  0.93308988397E+01  0.51100000000E-03 0. -1.
        -11    1    3    3    0    0  0.15706291319E+02 -0.32389219208E+01 -0.13301509336E+02  0.20835267051E+02  0.51100000000E-03 0.  1.
        -12    1    3    3    0    0  0.17472396800E+02  0.10354869271E+02 -0.14600286966E+01  0.20362702457E+02  0.00000000000E+00 0.  1.
</event>
<event>
 7    1  0.2702714E-011  0.5052886E+02  0.7816164E-02  0.1300439E+00
        -11   -1    0    0    0    0  0.00000000000E+00  0.00000000000E+00  0.45593999997E+02  0.45594000000E+02  0.51100000000E-03 0.  1.
         11   -1    0    0    0    0 -0.00000000000E+00 -0.00000000000E+00 -0.45593999997E+02  0.45594000000E+02  0.51100000000E-03 0. -1.
    9900012    2    1    2    0    0  0.22741818902E+02  0.18993671941E+02 -0.27842693594E+02  0.50528862192E+02  0.30000007118E+02 0.  0.
        -12    1    1    2    0    0 -0.22741818902E+02 -0.18993671941E+02  0.27842693594E+02  0.40659137808E+02  0.00000000000E+00 0.  1.
         11    1    3    3    0    0 -0.37045486485E+00  0.13159415295E+02 -0.16525642301E+02  0.21128282028E+02  0.51100000000E-03 0. -1.
        -11    1    3    3    0    0  0.84756591033E+01  0.87795277334E+01 -0.49110261323E+01  0.13154280003E+02  0.51100000000E-03 0.  1.
        -12    1    3    3    0    0  0.14636614663E+02 -0.29452710879E+01 -0.64060251605E+01  0.16246300162E+02  0.00000000000E+00 0.  1.
</event>
<event>
 7    1  0.2702714E-011  0.5052886E+02  0.7816164E-02  0.1300439E+00
        -11   -1    0    0    0    0  0.00000000000E+00  0.00000000000E+00  0.45593999997E+02  0.45594000000E+02  0.51100000000E-03 0.  1.
         11   -1    0    0    0    0 -0.00000000000E+00 -0.00000000000E+00 -0.45593999997E+02  0.45594000000E+02  0.51100000000E-03 0. -1.
    9900012    2    1    2    0    0  0.50018855344E+01 -0.24479143373E+02 -0.32076756457E+02  0.50528860511E+02  0.30000002010E+02 0.  0.
        -12    1    1    2    0    0 -0.50018855344E+01  0.24479143373E+02  0.32076756457E+02  0.40659139489E+02  0.00000000000E+00 0.  1.
         11    1    3    3    0    0 -0.52866863754E+01 -0.13882530587E+02 -0.18067374829E+02  0.23390248862E+02  0.51100000000E-03 0. -1.
        -11    1    3    3    0    0 -0.14299671190E+01  0.20431679926E+01 -0.87788604459E+01  0.91262112838E+01  0.51100000000E-03 0.  1.
        -12    1    3    3    0    0  0.11718539029E+02 -0.12639780779E+02 -0.52305211818E+01  0.18012400366E+02  0.00000000000E+00 0.  1.
</event>
<event>
 7    1  0.2702714E-011  0.5052886E+02  0.7816164E-02  0.1300439E+00
        -11   -1    0    0    0    0  0.00000000000E+00  0.00000000000E+00  0.45593999997E+02  0.45594000000E+02  0.51100000000E-03 0.  1.
         11   -1    0    0    0    0 -0.00000000000E+00 -0.00000000000E+00 -0.45593999997E+02  0.45594000000E+02  0.51100000000E-03 0. -1.
    9900012    2    1    2    0    0 -0.28040923373E+02  0.25030792263E+02 -0.15502637345E+02  0.50528859458E+02  0.29999998809E+02 0.  0.
        -12    1    1    2    0    0  0.28040923373E+02 -0.25030792263E+02  0.15502637345E+02  0.40659140542E+02  0.00000000000E+00 0.  1.
         11    1    3    3    0    0 -0.12625105782E+02  0.13792613547E+02 -0.58468245117E+01  0.19591192960E+02  0.51100000000E-03 0. -1.
        -11    1    3    3    0    0 -0.21049406712E+02  0.65004626214E+01 -0.73499245706E+01  0.23224016205E+02  0.51100000000E-03 0.  1.
        -12    1    3    3    0    0  0.56335891206E+01  0.47377160945E+01 -0.23058882626E+01  0.77136502936E+01  0.00000000000E+00 0.  1.
</event>
<event>
 7    1  0.2702714E-011  0.5052887E+02  0.7816164E-02  0.1300439E+00
        -11   -1    0    0    0    0  0.00000000000E+00  0.00000000000E+00  0.45593999997E+02  0.45594000000E+02  0.51100000000E-03 0.  1.
         11   -1    0    0    0    0 -0.00000000000E+00 -0.00000000000E+00 -0.45593999997E+02  0.45594000000E+02  0.51100000000E-03 0. -1.
    9900012    2    1    2    0    0 -0.38139695315E+02 -0.96992697691E+01 -0.10220226488E+02  0.50528865452E+02  0.30000017028E+02 0.  0.
        -12    1    1    2    0    0  0.38139695315E+02  0.96992697691E+01  0.10220226488E+02  0.40659134548E+02  0.00000000000E+00 0.  1.
         11    1    3    3    0    0 -0.39613630786E+01  0.55480347964E+01 -0.15307390682E+01  0.69868626649E+01  0.51100000000E-03 0. -1.
        -11    1    3    3    0    0 -0.21749729854E+02 -0.42554823771E+01  0.41689358551E+01  0.22550829373E+02  0.51100000000E-03 0.  1.
        -12    1    3    3    0    0 -0.12428602382E+02 -0.10991822188E+02 -0.12858423275E+02  0.20991173414E+02  0.00000000000E+00 0.  1.
</event>
<event>
 7    1  0.2702714E-011  0.5052886E+02  0.7816164E-02  0.1300439E+00
        -11   -1    0    0    0    0  0.00000000000E+00  0.00000000000E+00  0.45593999997E+02  0.45594000000E+02  0.51100000000E-03 0.  1.
         11   -1    0    0    0    0 -0.00000000000E+00 -0.00000000000E+00 -0.45593999997E+02  0.45594000000E+02  0.51100000000E-03 0. -1.
    9900012    2    1    2    0    0  0.27734559361E+02  0.28825324475E+02  0.72842624979E+01  0.50528860877E+02  0.30000003122E+02 0.  0.
        -12    1    1    2    0    0 -0.27734559361E+02 -0.28825324475E+02 -0.72842624979E+01  0.40659139123E+02  0.00000000000E+00 0.  1.
         11    1    3    3    0    0 -0.32773134586E+01  0.11036042689E+02  0.34324288969E+01  0.12013184014E+02  0.51100000000E-03 0. -1.
        -11    1    3    3    0    0 -0.13623057321E+00  0.44112486810E+01  0.72171187649E+00  0.44719729414E+01  0.51100000000E-03 0.  1.
         12    1    3    3    0    0  0.31148103393E+02  0.13378033105E+02  0.31301217245E+01  0.34043703922E+02  0.00000000000E+00 0. -1.
</event>
<event>
 7    1  0.2702714E-011  0.5052887E+02  0.7816164E-02  0.1300439E+00
        -11   -1    0    0    0    0  0.00000000000E+00  0.00000000000E+00  0.45593999997E+02  0.45594000000E+02  0.51100000000E-03 0.  1.
         11   -1    0    0    0    0 -0.00000000000E+00 -0.00000000000E+00 -0.45593999997E+02  0.45594000000E+02  0.51100000000E-03 0. -1.
    9900012    2    1    2    0    0  0.46253244684E+00 -0.24222021384E+02 -0.32653406877E+02  0.50528865272E+02  0.30000016479E+02 0.  0.
        -12    1    1    2    0    0 -0.46253244684E+00  0.24222021384E+02  0.32653406877E+02  0.40659134728E+02  0.00000000000E+00 0.  1.
         11    1    3    3    0    0 -0.18980721238E+01 -0.54029241159E+01 -0.17664694078E+02  0.18569751854E+02  0.51100000000E-03 0.  1.
        -11    1    3    3    0    0 -0.91542980190E+01 -0.57692827378E+01 -0.55654985483E+01  0.12168014213E+02  0.51100000000E-03 0. -1.
         12    1    3    3    0    0  0.11514902590E+02 -0.13049814530E+02 -0.94232142510E+01  0.19791099205E+02  0.00000000000E+00 0. -1.
</event>
<event>
 7    1  0.2702714E-011  0.5052886E+02  0.7816164E-02  0.1300439E+00
        -11   -1    0    0    0    0  0.00000000000E+00  0.00000000000E+00  0.45593999997E+02  0.45594000000E+02  0.51100000000E-03 0.  1.
         11   -1    0    0    0    0 -0.00000000000E+00 -0.00000000000E+00 -0.45593999997E+02  0.45594000000E+02  0.51100000000E-03 0. -1.
    9900012    2    1    2    0    0 -0.40562857127E+02 -0.18214818749E+01  0.21218442933E+01  0.50528863293E+02  0.30000010465E+02 0.  0.
        -12    1    1    2    0    0  0.40562857127E+02  0.18214818749E+01 -0.21218442933E+01  0.40659136707E+02  0.00000000000E+00 0.  1.
         11    1    3    3    0    0 -0.72840169696E+01  0.22789524434E+01  0.43585161506E+01  0.87890381015E+01  0.51100000000E-03 0. -1.
        -11    1    3    3    0    0 -0.38990571276E+01  0.83640396032E+01 -0.33191938117E+01  0.98069797996E+01  0.51100000000E-03 0.  1.
         12    1    3    3    0    0 -0.29379783030E+02 -0.12464473922E+02  0.10825219543E+01  0.31932845392E+02  0.00000000000E+00 0. -1.
</event>
<event>
 7    1  0.2702714E-011  0.5052886E+02  0.7816164E-02  0.1300439E+00
        -11   -1    0    0    0    0  0.00000000000E+00  0.00000000000E+00  0.45593999997E+02  0.45594000000E+02  0.51100000000E-03 0.  1.
         11   -1    0    0    0    0 -0.00000000000E+00 -0.00000000000E+00 -0.45593999997E+02  0.45594000000E+02  0.51100000000E-03 0. -1.
    9900012    2    1    2    0    0  0.15643573478E+01  0.40118044253E+02 -0.64234936774E+01  0.50528856384E+02  0.29999989464E+02 0.  0.
        -12    1    1    2    0    0 -0.15643573478E+01 -0.40118044253E+02  0.64234936774E+01  0.40659143616E+02  0.00000000000E+00 0.  1.
         11    1    3    3    0    0 -0.67759732813E+01  0.56221856629E+01 -0.78065705666E+01  0.11767129209E+02  0.51100000000E-03 0. -1.
        -11    1    3    3    0    0  0.33578894726E+01  0.22863510883E+02 -0.63068042624E+01  0.23953941886E+02  0.51100000000E-03 0.  1.
        -12    1    3    3    0    0  0.49824411566E+01  0.11632347707E+02  0.76898811516E+01  0.14807785289E+02  0.00000000000E+00 0.  1.
</event>
<event>
 7    1  0.2702714E-011  0.5052886E+02  0.7816164E-02  0.1300439E+00
        -11   -1    0    0    0    0  0.00000000000E+00  0.00000000000E+00  0.45593999997E+02  0.45594000000E+02  0.51100000000E-03 0.  1.
         11   -1    0    0    0    0 -0.00000000000E+00 -0.00000000000E+00 -0.45593999997E+02  0.45594000000E+02  0.51100000000E-03 0. -1.
    9900012    2    1    2    0    0 -0.32853434458E+02 -0.39986620937E+01 -0.23618383051E+02  0.50528862378E+02  0.30000007684E+02 0.  0.
        -12    1    1    2    0    0  0.32853434458E+02  0.39986620937E+01  0.23618383051E+02  0.40659137622E+02  0.00000000000E+00 0.  1.
         11    1    3    3    0    0 -0.16851946344E+02  0.32880787883E+01 -0.42992045096E+01  0.17699794275E+02  0.51100000000E-03 0. -1.
        -11    1    3    3    0    0 -0.12396129724E+02 -0.66876788248E+01 -0.96887917982E+00  0.14118350021E+02  0.51100000000E-03 0.  1.
        -12    1    3    3    0    0 -0.36053583895E+01 -0.59906205719E+00 -0.18350299362E+02  0.18710718082E+02  0.00000000000E+00 0.  1.
</event>
<event>
 7    1  0.2702714E-011  0.5052885E+02  0.7816164E-02  0.1300439E+00
        -11   -1    0    0    0    0  0.00000000000E+00  0.00000000000E+00  0.45593999997E+02  0.45594000000E+02  0.51100000000E-03 0. -1.
         11   -1    0    0    0    0 -0.00000000000E+00 -0.00000000000E+00 -0.45593999997E+02  0.45594000000E+02  0.51100000000E-03 0.  1.
    9900012    2    1    2    0    0  0.14313212003E+02 -0.34546168277E+02  0.15964350720E+02  0.50528852513E+02  0.29999977699E+02 0.  0.
        -12    1    1    2    0    0 -0.14313212003E+02  0.34546168277E+02 -0.15964350720E+02  0.40659147487E+02  0.00000000000E+00 0.  1.
         11    1    3    3    0    0 -0.28616482255E+01 -0.14833973008E+02  0.22258503027E+01  0.15270566315E+02  0.51100000000E-03 0. -1.
        -11    1    3    3    0    0 -0.36757679807E+01 -0.46349881585E+01 -0.34459726044E+00  0.59256335535E+01  0.51100000000E-03 0.  1.
         12    1    3    3    0    0  0.20850628209E+02 -0.15077207111E+02  0.14083097678E+02  0.29332652645E+02  0.00000000000E+00 0. -1.
</event>
<event>
 7    1  0.2702714E-011  0.5052886E+02  0.7816164E-02  0.1300439E+00
        -11   -1    0    0    0    0  0.00000000000E+00  0.00000000000E+00  0.45593999997E+02  0.45594000000E+02  0.51100000000E-03 0. -1.
         11   -1    0    0    0    0 -0.00000000000E+00 -0.00000000000E+00 -0.45593999997E+02  0.45594000000E+02  0.51100000000E-03 0.  1.
    9900012    2    1    2    0    0 -0.22950088848E+02 -0.24431219088E+00 -0.33561870445E+02  0.50528863089E+02  0.30000009845E+02 0.  0.
        -12    1    1    2    0    0  0.22950088848E+02  0.24431219088E+00  0.33561870445E+02  0.40659136911E+02  0.00000000000E+00 0.  1.
         11    1    3    3    0    0 -0.70047403180E+01  0.15918419347E+01 -0.82470177372E-01  0.71838116108E+01  0.51100000000E-03 0. -1.
        -11    1    3    3    0    0  0.35352199292E+01  0.44761708834E+01 -0.25426605918E+01  0.62449186441E+01  0.51100000000E-03 0.  1.
        -12    1    3    3    0    0 -0.19480568459E+02 -0.63123250090E+01 -0.30936739676E+02  0.37100132834E+02  0.00000000000E+00 0.  1.
</event>
<event>
 7    1  0.2702714E-011  0.5052885E+02  0.7816164E-02  0.1300439E+00
        -11   -1    0    0    0    0  0.00000000000E+00  0.00000000000E+00  0.45593999997E+02  0.45594000000E+02  0.51100000000E-03 0.  1.
         11   -1    0    0    0    0 -0.00000000000E+00 -0.00000000000E+00 -0.45593999997E+02  0.45594000000E+02  0.51100000000E-03 0. -1.
    9900012    2    1    2    0    0 -0.36401919602E+02 -0.67317691864E+01 -0.16815166800E+02  0.50528852178E+02  0.29999976682E+02 0.  0.
        -12    1    1    2    0    0  0.36401919602E+02  0.67317691864E+01  0.16815166800E+02  0.40659147822E+02  0.00000000000E+00 0.  1.
         11    1    3    3    0    0 -0.30810269157E+02 -0.69501545257E+01 -0.63573774183E+01  0.32217907775E+02  0.51100000000E-03 0. -1.
        -11    1    3    3    0    0 -0.23537290437E+01 -0.61698235147E+01 -0.87252476494E+01  0.10942427035E+02  0.51100000000E-03 0.  1.
        -12    1    3    3    0    0 -0.32379214006E+01  0.63882088540E+01 -0.17325417321E+01  0.73685173687E+01  0.00000000000E+00 0.  1.
</event>
<event>
 7    1  0.2702714E-011  0.5052884E+02  0.7816164E-02  0.1300439E+00
        -11   -1    0    0    0    0  0.00000000000E+00  0.00000000000E+00  0.45593999997E+02  0.45594000000E+02  0.51100000000E-03 0.  1.
         11   -1    0    0    0    0 -0.00000000000E+00 -0.00000000000E+00 -0.45593999997E+02  0.45594000000E+02  0.51100000000E-03 0. -1.
    9900012    2    1    2    0    0 -0.39343640019E+02 -0.86205994956E+01  0.55615237887E+01  0.50528839993E+02  0.29999939643E+02 0.  0.
        -12    1    1    2    0    0  0.39343640019E+02  0.86205994956E+01 -0.55615237887E+01  0.40659160007E+02  0.00000000000E+00 0.  1.
         11    1    3    3    0    0 -0.10084138167E+02  0.41670249936E+01  0.85574859315E+01  0.13866668872E+02  0.51100000000E-03 0. -1.
        -11    1    3    3    0    0 -0.27555744389E+01  0.27347310242E+01  0.35464691791E+01  0.52582685517E+01  0.51100000000E-03 0.  1.
         12    1    3    3    0    0 -0.26503927413E+02 -0.15522355513E+02 -0.65424313218E+01  0.31403902570E+02  0.00000000000E+00 0. -1.
</event>
<event>
 7    1  0.2702714E-011  0.5052886E+02  0.7816164E-02  0.1300439E+00
        -11   -1    0    0    0    0  0.00000000000E+00  0.00000000000E+00  0.45593999997E+02  0.45594000000E+02  0.51100000000E-03 0. -1.
         11   -1    0    0    0    0 -0.00000000000E+00 -0.00000000000E+00 -0.45593999997E+02  0.45594000000E+02  0.51100000000E-03 0.  1.
    9900012    2    1    2    0    0 -0.62522717703E+01 -0.36794393034E+02  0.16132187478E+02  0.50528859160E+02  0.29999997903E+02 0.  0.
        -12    1    1    2    0    0  0.62522717703E+01  0.36794393034E+02 -0.16132187478E+02  0.40659140840E+02  0.00000000000E+00 0.  1.
         11    1    3    3    0    0  0.47094703309E+01 -0.15666908633E+01  0.64705642277E+01  0.81548655871E+01  0.51100000000E-03 0. -1.
        -11    1    3    3    0    0 -0.11577298658E+02 -0.12922180481E+02  0.10061917051E+02  0.20056389695E+02  0.51100000000E-03 0.  1.
         12    1    3    3    0    0  0.61555655642E+00 -0.22305521690E+02 -0.40029380074E+00  0.22317603878E+02  0.00000000000E+00 0. -1.
</event>
<event>
 7    1  0.2702714E-011  0.5052892E+02  0.7816164E-02  0.1300439E+00
        -11   -1    0    0    0    0  0.00000000000E+00  0.00000000000E+00  0.45593999997E+02  0.45594000000E+02  0.51100000000E-03 0.  1.
         11   -1    0    0    0    0 -0.00000000000E+00 -0.00000000000E+00 -0.45593999997E+02  0.45594000000E+02  0.51100000000E-03 0. -1.
    9900012    2    1    2    0    0  0.21109515546E+02 -0.34152700920E+02  0.64142443539E+01  0.50528915438E+02  0.30000168966E+02 0.  0.
        -12    1    1    2    0    0 -0.21109515546E+02  0.34152700920E+02 -0.64142443539E+01  0.40659084562E+02  0.00000000000E+00 0.  1.
         11    1    3    3    0    0  0.14258016655E+02 -0.15208884276E+02 -0.50895168418E+00  0.20853302663E+02  0.51100000000E-03 0. -1.
        -11    1    3    3    0    0  0.18281989815E+01 -0.20893311509E+02  0.10249143382E+02  0.23343472699E+02  0.51100000000E-03 0.  1.
        -12    1    3    3    0    0  0.50232999097E+01  0.19494948647E+01 -0.33259473444E+01  0.63321400765E+01  0.00000000000E+00 0.  1.
</event>
<event>
 7    1  0.2702714E-011  0.5052883E+02  0.7816164E-02  0.1300439E+00
        -11   -1    0    0    0    0  0.00000000000E+00  0.00000000000E+00  0.45593999997E+02  0.45594000000E+02  0.51100000000E-03 0.  1.
         11   -1    0    0    0    0 -0.00000000000E+00 -0.00000000000E+00 -0.45593999997E+02  0.45594000000E+02  0.51100000000E-03 0. -1.
    9900012    2    1    2    0    0 -0.13465282436E+02 -0.36978474347E+02 -0.10219920200E+02  0.50528829263E+02  0.29999907029E+02 0.  0.
        -12    1    1    2    0    0  0.13465282436E+02  0.36978474347E+02  0.10219920200E+02  0.40659170737E+02  0.00000000000E+00 0.  1.
         11    1    3    3    0    0 -0.16641530690E+02 -0.16589287155E+02 -0.12112193924E+02  0.26435775645E+02  0.51100000000E-03 0. -1.
        -11    1    3    3    0    0 -0.41309633062E+01 -0.11155475002E+02  0.29928120262E+01  0.12266474817E+02  0.51100000000E-03 0.  1.
        -12    1    3    3    0    0  0.73072115603E+01 -0.92337121891E+01 -0.11005383019E+01  0.11826578801E+02  0.00000000000E+00 0.  1.
</event>
<event>
 7    1  0.2702714E-011  0.5052887E+02  0.7816164E-02  0.1300439E+00
        -11   -1    0    0    0    0  0.00000000000E+00  0.00000000000E+00  0.45593999997E+02  0.45594000000E+02  0.51100000000E-03 0.  1.
         11   -1    0    0    0    0 -0.00000000000E+00 -0.00000000000E+00 -0.45593999997E+02  0.45594000000E+02  0.51100000000E-03 0. -1.
    9900012    2    1    2    0    0  0.27248409915E+02  0.18061491928E+02 -0.24175844846E+02  0.50528870551E+02  0.30000032528E+02 0.  0.
        -12    1    1    2    0    0 -0.27248409915E+02 -0.18061491928E+02  0.24175844846E+02  0.40659129449E+02  0.00000000000E+00 0.  1.
         11    1    3    3    0    0 -0.21277363834E+01  0.33080559331E+01 -0.10263030843E+02  0.10990918912E+02  0.51100000000E-03 0. -1.
        -11    1    3    3    0    0  0.27724199434E+01  0.86594435528E+01 -0.44540738219E+00  0.91033325208E+01  0.51100000000E-03 0.  1.
        -12    1    3    3    0    0  0.26603726355E+02  0.60939924416E+01 -0.13467406620E+02  0.30434619119E+02  0.00000000000E+00 0.  1.
</event>
<event>
 7    1  0.2702714E-011  0.5052886E+02  0.7816164E-02  0.1300439E+00
        -11   -1    0    0    0    0  0.00000000000E+00  0.00000000000E+00  0.45593999997E+02  0.45594000000E+02  0.51100000000E-03 0.  1.
         11   -1    0    0    0    0 -0.00000000000E+00 -0.00000000000E+00 -0.45593999997E+02  0.45594000000E+02  0.51100000000E-03 0. -1.
    9900012    2    1    2    0    0 -0.91073542798E+01  0.10795192006E+02 -0.38127232909E+02  0.50528856358E+02  0.29999989385E+02 0.  0.
        -12    1    1    2    0    0  0.91073542798E+01 -0.10795192006E+02  0.38127232909E+02  0.40659143642E+02  0.00000000000E+00 0.  1.
         11    1    3    3    0    0 -0.69027654481E+01 -0.36766943384E+01 -0.14175588676E+02  0.16189921762E+02  0.51100000000E-03 0. -1.
        -11    1    3    3    0    0 -0.42884581130E+01 -0.40832968489E+01 -0.52928637278E+01  0.79422032740E+01  0.51100000000E-03 0.  1.
        -12    1    3    3    0    0  0.20838692813E+01  0.18555183194E+02 -0.18658780505E+02  0.26396731322E+02  0.00000000000E+00 0.  1.
</event>
<event>
 7    1  0.2702714E-011  0.5052888E+02  0.7816164E-02  0.1300439E+00
        -11   -1    0    0    0    0  0.00000000000E+00  0.00000000000E+00  0.45593999997E+02  0.45594000000E+02  0.51100000000E-03 0. -1.
         11   -1    0    0    0    0 -0.00000000000E+00 -0.00000000000E+00 -0.45593999997E+02  0.45594000000E+02  0.51100000000E-03 0.  1.
    9900012    2    1    2    0    0 -0.33174816081E+02 -0.23411550950E+02  0.21200707839E+01  0.50528882449E+02  0.30000068692E+02 0.  0.
        -12    1    1    2    0    0  0.33174816081E+02  0.23411550950E+02 -0.21200707839E+01  0.40659117551E+02  0.00000000000E+00 0.  1.
         11    1    3    3    0    0  0.49899037680E+00 -0.14189018959E+02 -0.17805278175E+00  0.14198906770E+02  0.51100000000E-03 0. -1.
        -11    1    3    3    0    0 -0.16643597186E+02 -0.13903052575E+01 -0.27280730083E+01  0.16922903374E+02  0.51100000000E-03 0.  1.
        -12    1    3    3    0    0 -0.17030209272E+02 -0.78322267334E+01  0.50261965740E+01  0.19407072305E+02  0.00000000000E+00 0.  1.
</event>
<event>
 7    1  0.2702714E-011  0.5052885E+02  0.7816164E-02  0.1300439E+00
        -11   -1    0    0    0    0  0.00000000000E+00  0.00000000000E+00  0.45593999997E+02  0.45594000000E+02  0.51100000000E-03 0.  1.
         11   -1    0    0    0    0 -0.00000000000E+00 -0.00000000000E+00 -0.45593999997E+02  0.45594000000E+02  0.51100000000E-03 0. -1.
    9900012    2    1    2    0    0  0.25494937805E+02 -0.19624603982E+02 -0.24860600377E+02  0.50528851137E+02  0.29999973515E+02 0.  0.
        -12    1    1    2    0    0 -0.25494937805E+02  0.19624603982E+02  0.24860600377E+02  0.40659148863E+02  0.00000000000E+00 0.  1.
         11    1    3    3    0    0  0.19861735862E+02  0.14456643876E+01 -0.91531244660E+01  0.21917075186E+02  0.51100000000E-03 0. -1.
        -11    1    3    3    0    0 -0.30571425677E+00 -0.87260896151E+00 -0.48248930965E+01  0.49126877837E+01  0.51100000000E-03 0.  1.
         12    1    3    3    0    0  0.59389161999E+01 -0.20197659408E+02 -0.10882582815E+02  0.23699088167E+02  0.00000000000E+00 0. -1.
</event>
<event>
 7    1  0.2702714E-011  0.5052886E+02  0.7816164E-02  0.1300439E+00
        -11   -1    0    0    0    0  0.00000000000E+00  0.00000000000E+00  0.45593999997E+02  0.45594000000E+02  0.51100000000E-03 0.  1.
         11   -1    0    0    0    0 -0.00000000000E+00 -0.00000000000E+00 -0.45593999997E+02  0.45594000000E+02  0.51100000000E-03 0. -1.
    9900012    2    1    2    0    0  0.31143961630E+02 -0.10659328118E+02 -0.23866246139E+02  0.50528864167E+02  0.30000013122E+02 0.  0.
        -12    1    1    2    0    0 -0.31143961630E+02  0.10659328118E+02  0.23866246139E+02  0.40659135833E+02  0.00000000000E+00 0.  1.
         11    1    3    3    0    0  0.15237234367E+02 -0.98295925069E+00 -0.35005874947E+01  0.15665044945E+02  0.51100000000E-03 0. -1.
        -11    1    3    3    0    0  0.27205440529E+01  0.46934689794E+01  0.14360280369E+01  0.56117900699E+01  0.51100000000E-03 0.  1.
         12    1    3    3    0    0  0.13186183209E+02 -0.14369837846E+02 -0.21801686682E+02  0.29252029152E+02  0.00000000000E+00 0. -1.
</event>
<event>
 7    1  0.2702714E-011  0.5052885E+02  0.7816164E-02  0.1300439E+00
        -11   -1    0    0    0    0  0.00000000000E+00  0.00000000000E+00  0.45593999997E+02  0.45594000000E+02  0.51100000000E-03 0.  1.
         11   -1    0    0    0    0 -0.00000000000E+00 -0.00000000000E+00 -0.45593999997E+02  0.45594000000E+02  0.51100000000E-03 0. -1.
    9900012    2    1    2    0    0 -0.28037863760E+02  0.28155526819E+02 -0.86203853074E+01  0.50528849277E+02  0.29999967863E+02 0.  0.
        -12    1    1    2    0    0  0.28037863760E+02 -0.28155526819E+02  0.86203853074E+01  0.40659150723E+02  0.00000000000E+00 0.  1.
         11    1    3    3    0    0  0.18306115603E+00  0.76331169901E+01 -0.87250445712E+01  0.11594153242E+02  0.51100000000E-03 0. -1.
        -11    1    3    3    0    0 -0.41397442218E+01  0.12656501476E+02  0.22724088153E+01  0.13508825038E+02  0.51100000000E-03 0.  1.
        -12    1    3    3    0    0 -0.24081180694E+02  0.78659083525E+01 -0.21677495515E+01  0.25425870997E+02  0.00000000000E+00 0.  1.
</event>
<event>
 7    1  0.2702714E-011  0.5052891E+02  0.7816164E-02  0.1300439E+00
        -11   -1    0    0    0    0  0.00000000000E+00  0.00000000000E+00  0.45593999997E+02  0.45594000000E+02  0.51100000000E-03 0.  1.
         11   -1    0    0    0    0 -0.00000000000E+00 -0.00000000000E+00 -0.45593999997E+02  0.45594000000E+02  0.51100000000E-03 0. -1.
    9900012    2    1    2    0    0 -0.69846672168E+00 -0.17005006944E+02 -0.36925644111E+02  0.50528913562E+02  0.30000163264E+02 0.  0.
        -12    1    1    2    0    0  0.69846672168E+00  0.17005006944E+02  0.36925644111E+02  0.40659086438E+02  0.00000000000E+00 0.  1.
         11    1    3    3    0    0  0.33450418274E+01 -0.17602009888E+01  0.69596990824E+00  0.38434342355E+01  0.51100000000E-03 0. -1.
        -11    1    3    3    0    0  0.19365581160E+01  0.40810738941E+01 -0.17796409461E+02  0.18360762823E+02  0.51100000000E-03 0.  1.
        -12    1    3    3    0    0 -0.59800666651E+01 -0.19325879849E+02 -0.19825204558E+02  0.28324716504E+02  0.00000000000E+00 0.  1.
</event>
<event>
 7    1  0.2702714E-011  0.5052881E+02  0.7816164E-02  0.1300439E+00
        -11   -1    0    0    0    0  0.00000000000E+00  0.00000000000E+00  0.45593999997E+02  0.45594000000E+02  0.51100000000E-03 0.  1.
         11   -1    0    0    0    0 -0.00000000000E+00 -0.00000000000E+00 -0.45593999997E+02  0.45594000000E+02  0.51100000000E-03 0. -1.
    9900012    2    1    2    0    0  0.37559332273E+02 -0.14782597320E+02 -0.48929586689E+01  0.50528810770E+02  0.29999850815E+02 0.  0.
        -12    1    1    2    0    0 -0.37559332273E+02  0.14782597320E+02  0.48929586689E+01  0.40659189230E+02  0.00000000000E+00 0.  1.
         11    1    3    3    0    0  0.18296610148E+02 -0.16968738738E+02  0.39655651280E+01  0.25267167319E+02  0.51100000000E-03 0. -1.
        -11    1    3    3    0    0  0.80526584805E+01 -0.18048420705E+01 -0.10385192401E+02  0.13264802485E+02  0.51100000000E-03 0.  1.
        -12    1    3    3    0    0  0.11210063645E+02  0.39909834886E+01  0.15266686041E+01  0.11996840966E+02  0.00000000000E+00 0.  1.
</event>
<event>
 7    1  0.2702714E-011  0.5052885E+02  0.7816164E-02  0.1300439E+00
        -11   -1    0    0    0    0  0.00000000000E+00  0.00000000000E+00  0.45593999997E+02  0.45594000000E+02  0.51100000000E-03 0. -1.
         11   -1    0    0    0    0 -0.00000000000E+00 -0.00000000000E+00 -0.45593999997E+02  0.45594000000E+02  0.51100000000E-03 0.  1.
    9900012    2    1    2    0    0  0.36570456297E+02  0.15924557171E+02  0.78852149516E+01  0.50528850849E+02  0.29999972641E+02 0.  0.
        -12    1    1    2    0    0 -0.36570456297E+02 -0.15924557171E+02 -0.78852149516E+01  0.40659149151E+02  0.00000000000E+00 0.  1.
         11    1    3    3    0    0  0.12741063969E+02  0.34117926574E+00 -0.14732045070E+01  0.12830488928E+02  0.51100000000E-03 0. -1.
        -11    1    3    3    0    0  0.17465147727E+02 -0.35995696670E+00 -0.12581134934E+01  0.17514103002E+02  0.51100000000E-03 0.  1.
         12    1    3    3    0    0  0.63642446004E+01  0.15943334872E+02  0.10616532952E+02  0.20184258919E+02  0.00000000000E+00 0. -1.
</event>
<event>
 7    1  0.2702714E-011  0.5052885E+02  0.7816164E-02  0.1300439E+00
        -11   -1    0    0    0    0  0.00000000000E+00  0.00000000000E+00  0.45593999997E+02  0.45594000000E+02  0.51100000000E-03 0.  1.
         11   -1    0    0    0    0 -0.00000000000E+00 -0.00000000000E+00 -0.45593999997E+02  0.45594000000E+02  0.51100000000E-03 0. -1.
    9900012    2    1    2    0    0 -0.14407010749E+02  0.37156002410E+02 -0.80644759010E+01  0.50528852870E+02  0.29999978783E+02 0.  0.
        -12    1    1    2    0    0  0.14407010749E+02 -0.37156002410E+02  0.80644759010E+01  0.40659147130E+02  0.00000000000E+00 0.  1.
         11    1    3    3    0    0 -0.38535021941E+01  0.17453539519E+02 -0.13270199773E+02  0.22261485197E+02  0.51100000000E-03 0. -1.
        -11    1    3    3    0    0 -0.94302825086E+01  0.58280414057E+01 -0.37644993780E+01  0.11707593717E+02  0.51100000000E-03 0.  1.
         12    1    3    3    0    0 -0.11232260462E+01  0.13874421485E+02  0.89702232501E+01  0.16559773955E+02  0.00000000000E+00 0. -1.
</event>
<event>
 7    1  0.2702714E-011  0.5052886E+02  0.7816164E-02  0.1300439E+00
        -11   -1    0    0    0    0  0.00000000000E+00  0.00000000000E+00  0.45593999997E+02  0.45594000000E+02  0.51100000000E-03 0.  1.
         11   -1    0    0    0    0 -0.00000000000E+00 -0.00000000000E+00 -0.45593999997E+02  0.45594000000E+02  0.51100000000E-03 0. -1.
    9900012    2    1    2    0    0  0.37232369304E+02 -0.89309737578E-01 -0.16337331915E+02  0.50528859400E+02  0.29999998633E+02 0.  0.
        -12    1    1    2    0    0 -0.37232369304E+02  0.89309737578E-01  0.16337331915E+02  0.40659140600E+02  0.00000000000E+00 0.  1.
         11    1    3    3    0    0  0.12272406039E+02 -0.44758789110E+01 -0.10996216728E+02  0.17075193253E+02  0.51100000000E-03 0. -1.
        -11    1    3    3    0    0  0.74269887436E+01 -0.77123084050E+01  0.20579133622E+01  0.10902975300E+02  0.51100000000E-03 0.  1.
         12    1    3    3    0    0  0.17532974521E+02  0.12098877578E+02 -0.73990285492E+01  0.22550690847E+02  0.00000000000E+00 0. -1.
</event>
<event>
 7    1  0.2702714E-011  0.5052886E+02  0.7816164E-02  0.1300439E+00
        -11   -1    0    0    0    0  0.00000000000E+00  0.00000000000E+00  0.45593999997E+02  0.45594000000E+02  0.51100000000E-03 0.  1.
         11   -1    0    0    0    0 -0.00000000000E+00 -0.00000000000E+00 -0.45593999997E+02  0.45594000000E+02  0.51100000000E-03 0. -1.
    9900012    2    1    2    0    0  0.28646727529E+02 -0.19479239584E+02 -0.21285908890E+02  0.50528859697E+02  0.29999999536E+02 0.  0.
        -12    1    1    2    0    0 -0.28646727529E+02  0.19479239584E+02  0.21285908890E+02  0.40659140303E+02  0.00000000000E+00 0.  1.
         11    1    3    3    0    0  0.12074967699E+02 -0.25242724500E+01 -0.10350126431E+02  0.16102854211E+02  0.51100000000E-03 0. -1.
        -11    1    3    3    0    0  0.49404567847E+01 -0.11081459634E+02  0.56086194111E+01  0.13366505632E+02  0.51100000000E-03 0.  1.
         12    1    3    3    0    0  0.11631303045E+02 -0.58735075005E+01 -0.16544401870E+02  0.21059499855E+02  0.00000000000E+00 0. -1.
</event>
<event>
 7    1  0.2702714E-011  0.5052886E+02  0.7816164E-02  0.1300439E+00
        -11   -1    0    0    0    0  0.00000000000E+00  0.00000000000E+00  0.45593999997E+02  0.45594000000E+02  0.51100000000E-03 0. -1.
         11   -1    0    0    0    0 -0.00000000000E+00 -0.00000000000E+00 -0.45593999997E+02  0.45594000000E+02  0.51100000000E-03 0.  1.
    9900012    2    1    2    0    0 -0.35539486387E+02 -0.19128203458E+02  0.49216202413E+01  0.50528860732E+02  0.30000002681E+02 0.  0.
        -12    1    1    2    0    0  0.35539486387E+02  0.19128203458E+02 -0.49216202413E+01  0.40659139268E+02  0.00000000000E+00 0.  1.
         11    1    3    3    0    0 -0.12403224020E+02 -0.56679035742E+01 -0.84177943920E+01  0.16025740535E+02  0.51100000000E-03 0.  1.
        -11    1    3    3    0    0 -0.10638474611E+02 -0.15803550787E+02  0.70114114654E+01  0.20299981540E+02  0.51100000000E-03 0. -1.
        -12    1    3    3    0    0 -0.12497787756E+02  0.23432509039E+01  0.63280031679E+01  0.14203138656E+02  0.00000000000E+00 0.  1.
</event>
<event>
 7    1  0.2702714E-011  0.5052888E+02  0.7816164E-02  0.1300439E+00
        -11   -1    0    0    0    0  0.00000000000E+00  0.00000000000E+00  0.45593999997E+02  0.45594000000E+02  0.51100000000E-03 0.  1.
         11   -1    0    0    0    0 -0.00000000000E+00 -0.00000000000E+00 -0.45593999997E+02  0.45594000000E+02  0.51100000000E-03 0. -1.
    9900012    2    1    2    0    0 -0.30438705657E+02 -0.15946047842E+02 -0.21734135283E+02  0.50528881953E+02  0.30000067184E+02 0.  0.
        -12    1    1    2    0    0  0.30438705657E+02  0.15946047842E+02  0.21734135283E+02  0.40659118047E+02  0.00000000000E+00 0.  1.
         11    1    3    3    0    0 -0.21869782500E+02 -0.66475458960E+01 -0.11265228414E+02  0.25482986962E+02  0.51100000000E-03 0. -1.
        -11    1    3    3    0    0 -0.14692070705E+01 -0.92546222299E+01  0.29842225900E+01  0.98342354437E+01  0.51100000000E-03 0.  1.
         12    1    3    3    0    0 -0.70997160872E+01 -0.43879715975E-01 -0.13453129459E+02  0.15211659548E+02  0.00000000000E+00 0. -1.
</event>
<event>
 7    1  0.2702714E-011  0.5052888E+02  0.7816164E-02  0.1300439E+00
        -11   -1    0    0    0    0  0.00000000000E+00  0.00000000000E+00  0.45593999997E+02  0.45594000000E+02  0.51100000000E-03 0. -1.
         11   -1    0    0    0    0 -0.00000000000E+00 -0.00000000000E+00 -0.45593999997E+02  0.45594000000E+02  0.51100000000E-03 0.  1.
    9900012    2    1    2    0    0 -0.21821580223E+02 -0.33575288356E+02  0.70485673664E+01  0.50528884743E+02  0.30000075664E+02 0.  0.
        -12    1    1    2    0    0  0.21821580223E+02  0.33575288356E+02 -0.70485673664E+01  0.40659115257E+02  0.00000000000E+00 0.  1.
         11    1    3    3    0    0  0.23880703325E+01 -0.64529575023E+01 -0.25394010092E+01  0.73343096598E+01  0.51100000000E-03 0. -1.
        -11    1    3    3    0    0 -0.79180101405E+01  0.24303866901E+01  0.78663565619E+00  0.83198834105E+01  0.51100000000E-03 0.  1.
         12    1    3    3    0    0 -0.16291640415E+02 -0.29552717543E+02  0.88013327194E+01  0.34874691672E+02  0.00000000000E+00 0. -1.
</event>
<event>
 7    1  0.2702714E-011  0.5052885E+02  0.7816164E-02  0.1300439E+00
        -11   -1    0    0    0    0  0.00000000000E+00  0.00000000000E+00  0.45593999997E+02  0.45594000000E+02  0.51100000000E-03 0.  1.
         11   -1    0    0    0    0 -0.00000000000E+00 -0.00000000000E+00 -0.45593999997E+02  0.45594000000E+02  0.51100000000E-03 0. -1.
    9900012    2    1    2    0    0 -0.32945825754E+01  0.29882162531E+02 -0.27374591944E+02  0.50528853477E+02  0.29999980628E+02 0.  0.
        -12    1    1    2    0    0  0.32945825754E+01 -0.29882162531E+02  0.27374591944E+02  0.40659146523E+02  0.00000000000E+00 0.  1.
         11    1    3    3    0    0  0.37434076516E+01  0.69628270191E+01 -0.12184612991E+02  0.14524422706E+02  0.51100000000E-03 0. -1.
        -11    1    3    3    0    0  0.68978492460E+01  0.12769451293E+02 -0.28183954765E+01  0.14784538000E+02  0.51100000000E-03 0.  1.
         12    1    3    3    0    0 -0.13935839473E+02  0.10149884218E+02 -0.12371583477E+02  0.21219892770E+02  0.00000000000E+00 0. -1.
</event>
<event>
 7    1  0.2702714E-011  0.5052886E+02  0.7816164E-02  0.1300439E+00
        -11   -1    0    0    0    0  0.00000000000E+00  0.00000000000E+00  0.45593999997E+02  0.45594000000E+02  0.51100000000E-03 0. -1.
         11   -1    0    0    0    0 -0.00000000000E+00 -0.00000000000E+00 -0.45593999997E+02  0.45594000000E+02  0.51100000000E-03 0.  1.
    9900012    2    1    2    0    0 -0.36630716897E+01  0.40466373559E+02  0.14900984473E+01  0.50528857404E+02  0.29999992565E+02 0.  0.
        -12    1    1    2    0    0  0.36630716897E+01 -0.40466373559E+02 -0.14900984473E+01  0.40659142596E+02  0.00000000000E+00 0.  1.
         11    1    3    3    0    0 -0.23582941715E+01  0.20144518763E+01  0.16687307850E+01  0.35219640054E+01  0.51100000000E-03 0. -1.
        -11    1    3    3    0    0 -0.34923228624E+01  0.39302355460E+02 -0.67486971581E+01  0.40030193320E+02  0.51100000000E-03 0.  1.
        -12    1    3    3    0    0  0.21875453443E+01 -0.85043377643E+00  0.65700648204E+01  0.69767000785E+01  0.00000000000E+00 0.  1.
</event>
<event>
 7    1  0.2702714E-011  0.5052887E+02  0.7816164E-02  0.1300439E+00
        -11   -1    0    0    0    0  0.00000000000E+00  0.00000000000E+00  0.45593999997E+02  0.45594000000E+02  0.51100000000E-03 0.  1.
         11   -1    0    0    0    0 -0.00000000000E+00 -0.00000000000E+00 -0.45593999997E+02  0.45594000000E+02  0.51100000000E-03 0. -1.
    9900012    2    1    2    0    0 -0.37886921431E+02 -0.13816946838E+02 -0.51805643282E+01  0.50528867173E+02  0.30000022260E+02 0.  0.
        -12    1    1    2    0    0  0.37886921431E+02  0.13816946838E+02  0.51805643282E+01  0.40659132827E+02  0.00000000000E+00 0.  1.
         11    1    3    3    0    0  0.48311490931E+01 -0.22422913904E+01 -0.25218315478E+01  0.58930049089E+01  0.51100000000E-03 0. -1.
        -11    1    3    3    0    0 -0.26538879443E+01 -0.45762370645E+00  0.10550964502E+01  0.28923639913E+01  0.51100000000E-03 0.  1.
         12    1    3    3    0    0 -0.40064182580E+02 -0.11117031742E+02 -0.37138292305E+01  0.41743498273E+02  0.00000000000E+00 0. -1.
</event>
<event>
 7    1  0.2702714E-011  0.5052890E+02  0.7816164E-02  0.1300439E+00
        -11   -1    0    0    0    0  0.00000000000E+00  0.00000000000E+00  0.45593999997E+02  0.45594000000E+02  0.51100000000E-03 0.  1.
         11   -1    0    0    0    0 -0.00000000000E+00 -0.00000000000E+00 -0.45593999997E+02  0.45594000000E+02  0.51100000000E-03 0. -1.
    9900012    2    1    2    0    0 -0.26792616298E+02 -0.24416785861E+02 -0.18415726660E+02  0.50528896366E+02  0.30000110994E+02 0.  0.
        -12    1    1    2    0    0  0.26792616298E+02  0.24416785861E+02  0.18415726660E+02  0.40659103634E+02  0.00000000000E+00 0.  1.
         11    1    3    3    0    0 -0.24668541873E+02 -0.20543503675E+02 -0.12054701988E+02  0.34291228349E+02  0.51100000000E-03 0. -1.
        -11    1    3    3    0    0 -0.35917365949E+01 -0.65140822193E+01  0.16988045509E+01  0.76301884702E+01  0.51100000000E-03 0.  1.
         12    1    3    3    0    0  0.14676621693E+01  0.26408000333E+01 -0.80598292226E+01  0.86074795473E+01  0.00000000000E+00 0. -1.
</event>
<event>
 7    1  0.2702714E-011  0.5052887E+02  0.7816164E-02  0.1300439E+00
        -11   -1    0    0    0    0  0.00000000000E+00  0.00000000000E+00  0.45593999997E+02  0.45594000000E+02  0.51100000000E-03 0.  1.
         11   -1    0    0    0    0 -0.00000000000E+00 -0.00000000000E+00 -0.45593999997E+02  0.45594000000E+02  0.51100000000E-03 0. -1.
    9900012    2    1    2    0    0 -0.31198974139E+02 -0.32997952736E+01 -0.25863098632E+02  0.50528874247E+02  0.30000043761E+02 0.  0.
        -12    1    1    2    0    0  0.31198974139E+02  0.32997952736E+01  0.25863098632E+02  0.40659125753E+02  0.00000000000E+00 0.  1.
         11    1    3    3    0    0 -0.69184896636E+01 -0.11803664544E+02 -0.12300965152E+02  0.18398525480E+02  0.51100000000E-03 0. -1.
        -11    1    3    3    0    0 -0.13447606410E+02  0.18652744141E+01 -0.40806406016E-01  0.13576414557E+02  0.51100000000E-03 0.  1.
         12    1    3    3    0    0 -0.10832878066E+02  0.66385948563E+01 -0.13521327074E+02  0.18553934211E+02  0.00000000000E+00 0. -1.
</event>
<event>
 7    1  0.2702714E-011  0.5052884E+02  0.7816164E-02  0.1300439E+00
        -11   -1    0    0    0    0  0.00000000000E+00  0.00000000000E+00  0.45593999997E+02  0.45594000000E+02  0.51100000000E-03 0.  1.
         11   -1    0    0    0    0 -0.00000000000E+00 -0.00000000000E+00 -0.45593999997E+02  0.45594000000E+02  0.51100000000E-03 0. -1.
    9900012    2    1    2    0    0 -0.37977947858E+02  0.31440997878E+01 -0.14175941489E+02  0.50528841079E+02  0.29999942945E+02 0.  0.
        -12    1    1    2    0    0  0.37977947858E+02 -0.31440997878E+01  0.14175941489E+02  0.40659158921E+02  0.00000000000E+00 0.  1.
         11    1    3    3    0    0  0.35881570916E+01  0.82482430447E+00 -0.15370849023E+01  0.39897163690E+01  0.51100000000E-03 0. -1.
        -11    1    3    3    0    0 -0.21373024472E+02 -0.60671540979E+01 -0.10487055565E+02  0.24568167791E+02  0.51100000000E-03 0.  1.
         12    1    3    3    0    0 -0.20193080478E+02  0.83864295813E+01 -0.21518010223E+01  0.21970956919E+02  0.00000000000E+00 0. -1.
</event>
<event>
 7    1  0.2702714E-011  0.5052885E+02  0.7816164E-02  0.1300439E+00
        -11   -1    0    0    0    0  0.00000000000E+00  0.00000000000E+00  0.45593999997E+02  0.45594000000E+02  0.51100000000E-03 0.  1.
         11   -1    0    0    0    0 -0.00000000000E+00 -0.00000000000E+00 -0.45593999997E+02  0.45594000000E+02  0.51100000000E-03 0. -1.
    9900012    2    1    2    0    0  0.29144426748E+02  0.17549023775E+02 -0.22266585487E+02  0.50528847584E+02  0.29999962716E+02 0.  0.
        -12    1    1    2    0    0 -0.29144426748E+02 -0.17549023775E+02  0.22266585487E+02  0.40659152416E+02  0.00000000000E+00 0.  1.
         11    1    3    3    0    0  0.40458601808E+01  0.16440793318E+02 -0.13628130229E+02  0.21734640630E+02  0.51100000000E-03 0. -1.
        -11    1    3    3    0    0  0.81662237951E+01  0.16568186762E+01  0.22805664782E+01  0.86390533579E+01  0.51100000000E-03 0.  1.
        -12    1    3    3    0    0  0.16932342772E+02 -0.54858821937E+00 -0.10919021736E+02  0.20155153596E+02  0.00000000000E+00 0.  1.
</event>
<event>
 7    1  0.2702714E-011  0.5052886E+02  0.7816164E-02  0.1300439E+00
        -11   -1    0    0    0    0  0.00000000000E+00  0.00000000000E+00  0.45593999997E+02  0.45594000000E+02  0.51100000000E-03 0.  1.
         11   -1    0    0    0    0 -0.00000000000E+00 -0.00000000000E+00 -0.45593999997E+02  0.45594000000E+02  0.51100000000E-03 0. -1.
    9900012    2    1    2    0    0 -0.16483691242E+02 -0.50541674078E+01 -0.36822664664E+02  0.50528864273E+02  0.30000013443E+02 0.  0.
        -12    1    1    2    0    0  0.16483691242E+02  0.50541674078E+01  0.36822664664E+02  0.40659135727E+02  0.00000000000E+00 0.  1.
         11    1    3    3    0    0 -0.13550229026E+02 -0.82916753815E+01 -0.24955580953E+02  0.29582792435E+02  0.51100000000E-03 0. -1.
        -11    1    3    3    0    0 -0.31845006606E+01  0.24244832714E+01 -0.16119706434E+02  0.16609157094E+02  0.51100000000E-03 0.  1.
        -12    1    3    3    0    0  0.25103844434E+00  0.81302470231E+00  0.42526227233E+01  0.43369147437E+01  0.00000000000E+00 0.  1.
</event>
<event>
 7    1  0.2702714E-011  0.5052886E+02  0.7816164E-02  0.1300439E+00
        -11   -1    0    0    0    0  0.00000000000E+00  0.00000000000E+00  0.45593999997E+02  0.45594000000E+02  0.51100000000E-03 0.  1.
         11   -1    0    0    0    0 -0.00000000000E+00 -0.00000000000E+00 -0.45593999997E+02  0.45594000000E+02  0.51100000000E-03 0. -1.
    9900012    2    1    2    0    0  0.92535695507E+01 -0.17217655164E+02 -0.35652343920E+02  0.50528858029E+02  0.29999994466E+02 0.  0.
        -12    1    1    2    0    0 -0.92535695507E+01  0.17217655164E+02  0.35652343920E+02  0.40659141971E+02  0.00000000000E+00 0.  1.
         11    1    3    3    0    0 -0.35504264232E+01  0.61698760767E+00 -0.44215108636E+01  0.57040301606E+01  0.51100000000E-03 0. -1.
        -11    1    3    3    0    0  0.57207659030E+01 -0.22374044606E+02 -0.18619974368E+02  0.29665273980E+02  0.51100000000E-03 0.  1.
         12    1    3    3    0    0  0.70832300709E+01  0.45394018346E+01 -0.12610858688E+02  0.15159553889E+02  0.00000000000E+00 0. -1.
</event>
<event>
 7    1  0.2702714E-011  0.5052884E+02  0.7816164E-02  0.1300439E+00
        -11   -1    0    0    0    0  0.00000000000E+00  0.00000000000E+00  0.45593999997E+02  0.45594000000E+02  0.51100000000E-03 0.  1.
         11   -1    0    0    0    0 -0.00000000000E+00 -0.00000000000E+00 -0.45593999997E+02  0.45594000000E+02  0.51100000000E-03 0. -1.
    9900012    2    1    2    0    0  0.23906731597E+02  0.29973674787E+01 -0.32751354773E+02  0.50528840307E+02  0.29999940598E+02 0.  0.
        -12    1    1    2    0    0 -0.23906731597E+02 -0.29973674787E+01  0.32751354773E+02  0.40659159693E+02  0.00000000000E+00 0.  1.
         11    1    3    3    0    0  0.24978291982E+02  0.54571499319E+01 -0.30488050411E+02  0.39789656619E+02  0.51100000000E-03 0. -1.
        -11    1    3    3    0    0 -0.76664852785E-01  0.36575461432E+01  0.91929498939E+00  0.37720849444E+01  0.51100000000E-03 0.  1.
        -12    1    3    3    0    0 -0.99489553231E+00 -0.61173285964E+01 -0.31825993519E+01  0.69670987442E+01  0.00000000000E+00 0.  1.
</event>
<event>
 7    1  0.2702714E-011  0.5052886E+02  0.7816164E-02  0.1300439E+00
        -11   -1    0    0    0    0  0.00000000000E+00  0.00000000000E+00  0.45593999997E+02  0.45594000000E+02  0.51100000000E-03 0. -1.
         11   -1    0    0    0    0 -0.00000000000E+00 -0.00000000000E+00 -0.45593999997E+02  0.45594000000E+02  0.51100000000E-03 0.  1.
    9900012    2    1    2    0    0  0.10534512739E+02  0.47864124439E+01  0.38977945965E+02  0.50528856202E+02  0.29999988912E+02 0.  0.
        -12    1    1    2    0    0 -0.10534512739E+02 -0.47864124439E+01 -0.38977945965E+02  0.40659143798E+02  0.00000000000E+00 0.  1.
         11    1    3    3    0    0 -0.12903954228E+01  0.69462052356E+01  0.25445166772E+02  0.26407790515E+02  0.51100000000E-03 0. -1.
        -11    1    3    3    0    0  0.48561037130E+01 -0.42830620346E+01  0.15309465544E+02  0.16622457676E+02  0.51100000000E-03 0.  1.
         12    1    3    3    0    0  0.69688044489E+01  0.21232692429E+01 -0.17766863520E+01  0.74986080120E+01  0.00000000000E+00 0. -1.
</event>
<event>
 7    1  0.2702714E-011  0.5052888E+02  0.7816164E-02  0.1300439E+00
        -11   -1    0    0    0    0  0.00000000000E+00  0.00000000000E+00  0.45593999997E+02  0.45594000000E+02  0.51100000000E-03 0.  1.
         11   -1    0    0    0    0 -0.00000000000E+00 -0.00000000000E+00 -0.45593999997E+02  0.45594000000E+02  0.51100000000E-03 0. -1.
    9900012    2    1    2    0    0  0.39317091213E+02 -0.96535705727E+01 -0.37602178393E+01  0.50528876492E+02  0.30000050585E+02 0.  0.
        -12    1    1    2    0    0 -0.39317091213E+02  0.96535705727E+01  0.37602178393E+01  0.40659123508E+02  0.00000000000E+00 0.  1.
         11    1    3    3    0    0  0.12979258565E+02  0.18783827251E+01  0.72785435949E+01  0.14998889015E+02  0.51100000000E-03 0.  1.
        -11    1    3    3    0    0  0.77633446800E+01  0.45362368596E+01 -0.47883769709E+01  0.10187027032E+02  0.51100000000E-03 0. -1.
         12    1    3    3    0    0  0.18574487968E+02 -0.16068190157E+02 -0.62503844633E+01  0.25342960446E+02  0.00000000000E+00 0. -1.
</event>
<event>
 7    1  0.2702714E-011  0.5052879E+02  0.7816164E-02  0.1300439E+00
        -11   -1    0    0    0    0  0.00000000000E+00  0.00000000000E+00  0.45593999997E+02  0.45594000000E+02  0.51100000000E-03 0.  1.
         11   -1    0    0    0    0 -0.00000000000E+00 -0.00000000000E+00 -0.45593999997E+02  0.45594000000E+02  0.51100000000E-03 0. -1.
    9900012    2    1    2    0    0  0.31953711664E+02 -0.22564836969E+02  0.11088709247E+02  0.50528794040E+02  0.29999799962E+02 0.  0.
        -12    1    1    2    0    0 -0.31953711664E+02  0.22564836969E+02 -0.11088709247E+02  0.40659205960E+02  0.00000000000E+00 0.  1.
         11    1    3    3    0    0  0.14042933811E+02 -0.14702667191E+02  0.37444298823E+01  0.20673489496E+02  0.51100000000E-03 0. -1.
        -11    1    3    3    0    0  0.60694875945E+01 -0.40054999331E-01  0.13180197060E+02  0.14510612629E+02  0.51100000000E-03 0.  1.
         12    1    3    3    0    0  0.11841290259E+02 -0.78221147786E+01 -0.58359176952E+01  0.15344691914E+02  0.00000000000E+00 0. -1.
</event>
<event>
 7    1  0.2702714E-011  0.5052887E+02  0.7816164E-02  0.1300439E+00
        -11   -1    0    0    0    0  0.00000000000E+00  0.00000000000E+00  0.45593999997E+02  0.45594000000E+02  0.51100000000E-03 0.  1.
         11   -1    0    0    0    0 -0.00000000000E+00 -0.00000000000E+00 -0.45593999997E+02  0.45594000000E+02  0.51100000000E-03 0. -1.
    9900012    2    1    2    0    0 -0.19333814025E+02 -0.17637065372E+02 -0.31117552034E+02  0.50528874527E+02  0.30000044611E+02 0.  0.
        -12    1    1    2    0    0  0.19333814025E+02  0.17637065372E+02  0.31117552034E+02  0.40659125473E+02  0.00000000000E+00 0.  1.
         11    1    3    3    0    0 -0.15621865905E+02 -0.65634890266E+01 -0.79327643611E+01  0.18709645460E+02  0.51100000000E-03 0. -1.
        -11    1    3    3    0    0 -0.17120143965E+01 -0.15894921290E+02 -0.13978772667E+02  0.21236421583E+02  0.51100000000E-03 0.  1.
         12    1    3    3    0    0 -0.19999337234E+01  0.48213449440E+01 -0.92060150055E+01  0.10582807484E+02  0.00000000000E+00 0. -1.
</event>
<event>
 7    1  0.2702714E-011  0.5052887E+02  0.7816164E-02  0.1300439E+00
        -11   -1    0    0    0    0  0.00000000000E+00  0.00000000000E+00  0.45593999997E+02  0.45594000000E+02  0.51100000000E-03 0.  1.
         11   -1    0    0    0    0 -0.00000000000E+00 -0.00000000000E+00 -0.45593999997E+02  0.45594000000E+02  0.51100000000E-03 0. -1.
    9900012    2    1    2    0    0 -0.34485946498E+02 -0.21234721001E+02  0.36015281751E+01  0.50528869573E+02  0.30000029555E+02 0.  0.
        -12    1    1    2    0    0  0.34485946498E+02  0.21234721001E+02 -0.36015281751E+01  0.40659130427E+02  0.00000000000E+00 0.  1.
         11    1    3    3    0    0 -0.13694519169E+02 -0.18295691619E+02  0.60206492057E-01  0.22853354506E+02  0.51100000000E-03 0. -1.
        -11    1    3    3    0    0  0.29373176801E+01 -0.20618529265E+01  0.13321546093E+01  0.38280163020E+01  0.51100000000E-03 0.  1.
        -12    1    3    3    0    0 -0.23728745009E+02 -0.87717645620E+00  0.22091670737E+01  0.23847498766E+02  0.00000000000E+00 0.  1.
</event>
<event>
 7    1  0.2702714E-011  0.5052891E+02  0.7816164E-02  0.1300439E+00
        -11   -1    0    0    0    0  0.00000000000E+00  0.00000000000E+00  0.45593999997E+02  0.45594000000E+02  0.51100000000E-03 0.  1.
         11   -1    0    0    0    0 -0.00000000000E+00 -0.00000000000E+00 -0.45593999997E+02  0.45594000000E+02  0.51100000000E-03 0. -1.
    9900012    2    1    2    0    0 -0.17318307143E+02 -0.11971074689E+01 -0.36766897620E+02  0.50528910129E+02  0.30000152827E+02 0.  0.
        -12    1    1    2    0    0  0.17318307143E+02  0.11971074689E+01  0.36766897620E+02  0.40659089871E+02  0.00000000000E+00 0.  1.
         11    1    3    3    0    0 -0.39112809151E+01 -0.48242939919E+01 -0.21154980626E+02  0.22047792099E+02  0.51100000000E-03 0. -1.
        -11    1    3    3    0    0 -0.17511935398E+02  0.51146875219E+01 -0.15766232981E+02  0.24112279289E+02  0.51100000000E-03 0.  1.
         12    1    3    3    0    0  0.41049091704E+01 -0.14875009988E+01  0.15431598675E+00  0.43688387407E+01  0.00000000000E+00 0. -1.
</event>
<event>
 7    1  0.2702714E-011  0.5052885E+02  0.7816164E-02  0.1300439E+00
        -11   -1    0    0    0    0  0.00000000000E+00  0.00000000000E+00  0.45593999997E+02  0.45594000000E+02  0.51100000000E-03 0. -1.
         11   -1    0    0    0    0 -0.00000000000E+00 -0.00000000000E+00 -0.45593999997E+02  0.45594000000E+02  0.51100000000E-03 0.  1.
    9900012    2    1    2    0    0 -0.32128268708E+02  0.23239834567E+02  0.89917310622E+01  0.50528846192E+02  0.29999958485E+02 0.  0.
        -12    1    1    2    0    0  0.32128268708E+02 -0.23239834567E+02 -0.89917310622E+01  0.40659153808E+02  0.00000000000E+00 0.  1.
         11    1    3    3    0    0 -0.25874618789E+01  0.19947235840E+01 -0.51233563450E+01  0.60764020317E+01  0.51100000000E-03 0. -1.
        -11    1    3    3    0    0 -0.22152870711E+02  0.10776769642E+02 -0.97765633089E+00  0.24654497700E+02  0.51100000000E-03 0.  1.
         12    1    3    3    0    0 -0.73879361182E+01  0.10468341340E+02  0.15092743738E+02  0.19797946460E+02  0.00000000000E+00 0. -1.
</event>
<event>
 7    1  0.2702714E-011  0.5052886E+02  0.7816164E-02  0.1300439E+00
        -11   -1    0    0    0    0  0.00000000000E+00  0.00000000000E+00  0.45593999997E+02  0.45594000000E+02  0.51100000000E-03 0.  1.
         11   -1    0    0    0    0 -0.00000000000E+00 -0.00000000000E+00 -0.45593999997E+02  0.45594000000E+02  0.51100000000E-03 0. -1.
    9900012    2    1    2    0    0  0.36477889351E+02 -0.25813095201E+01 -0.17772620366E+02  0.50528860744E+02  0.30000002718E+02 0.  0.
        -12    1    1    2    0    0 -0.36477889351E+02  0.25813095201E+01  0.17772620366E+02  0.40659139256E+02  0.00000000000E+00 0.  1.
         11    1    3    3    0    0  0.14287417298E+02  0.11791914727E+02 -0.71368029871E+01  0.19852292138E+02  0.51100000000E-03 0. -1.
        -11    1    3    3    0    0 -0.45788401992E-01 -0.43843289133E+01 -0.13006618160E+01  0.45734186358E+01  0.51100000000E-03 0.  1.
        -12    1    3    3    0    0  0.22236260455E+02 -0.99888953338E+01 -0.93351555629E+01  0.26103149971E+02  0.00000000000E+00 0.  1.
</event>
<event>
 7    1  0.2702714E-011  0.5052884E+02  0.7816164E-02  0.1300439E+00
        -11   -1    0    0    0    0  0.00000000000E+00  0.00000000000E+00  0.45593999997E+02  0.45594000000E+02  0.51100000000E-03 0.  1.
         11   -1    0    0    0    0 -0.00000000000E+00 -0.00000000000E+00 -0.45593999997E+02  0.45594000000E+02  0.51100000000E-03 0. -1.
    9900012    2    1    2    0    0 -0.29302974702E+02  0.60887074333E+01 -0.27521452400E+02  0.50528843260E+02  0.29999949573E+02 0.  0.
        -12    1    1    2    0    0  0.29302974702E+02 -0.60887074333E+01  0.27521452400E+02  0.40659156740E+02  0.00000000000E+00 0.  1.
         11    1    3    3    0    0 -0.10455575756E+02  0.47760327627E+01 -0.57418935933E+00  0.11509094101E+02  0.51100000000E-03 0. -1.
        -11    1    3    3    0    0 -0.15334213500E+02 -0.24088563479E+00 -0.41314906951E+01  0.15882863255E+02  0.51100000000E-03 0.  1.
         12    1    3    3    0    0 -0.35131854455E+01  0.15535603054E+01 -0.22815772346E+02  0.23136885904E+02  0.00000000000E+00 0. -1.
</event>
<event>
 7    1  0.2702714E-011  0.5052886E+02  0.7816164E-02  0.1300439E+00
        -11   -1    0    0    0    0  0.00000000000E+00  0.00000000000E+00  0.45593999997E+02  0.45594000000E+02  0.51100000000E-03 0.  1.
         11   -1    0    0    0    0 -0.00000000000E+00 -0.00000000000E+00 -0.45593999997E+02  0.45594000000E+02  0.51100000000E-03 0. -1.
    9900012    2    1    2    0    0 -0.97174613634E+01  0.37326374680E+02  0.12863831741E+02  0.50528862415E+02  0.30000007796E+02 0.  0.
        -12    1    1    2    0    0  0.97174613634E+01 -0.37326374680E+02 -0.12863831741E+02  0.40659137585E+02  0.00000000000E+00 0.  1.
         11    1    3    3    0    0  0.49424612326E+01  0.93650612508E+01  0.11198449444E+01  0.10648302598E+02  0.51100000000E-03 0. -1.
        -11    1    3    3    0    0 -0.73443881957E+00 -0.11363111505E+01  0.71737548003E+01  0.73002302434E+01  0.51100000000E-03 0.  1.
         12    1    3    3    0    0 -0.13925483776E+02  0.29097624580E+02  0.45702319960E+01  0.32580329573E+02  0.00000000000E+00 0. -1.
</event>
<event>
 7    1  0.2702714E-011  0.5052886E+02  0.7816164E-02  0.1300439E+00
        -11   -1    0    0    0    0  0.00000000000E+00  0.00000000000E+00  0.45593999997E+02  0.45594000000E+02  0.51100000000E-03 0.  1.
         11   -1    0    0    0    0 -0.00000000000E+00 -0.00000000000E+00 -0.45593999997E+02  0.45594000000E+02  0.51100000000E-03 0. -1.
    9900012    2    1    2    0    0  0.17176303674E+01  0.26097151748E+02 -0.31131241191E+02  0.50528858820E+02  0.29999996868E+02 0.  0.
        -12    1    1    2    0    0 -0.17176303674E+01 -0.26097151748E+02  0.31131241191E+02  0.40659141180E+02  0.00000000000E+00 0.  1.
         11    1    3    3    0    0  0.46009987830E+01  0.24615755136E+01 -0.20575636538E+01  0.56091097565E+01  0.51100000000E-03 0. -1.
        -11    1    3    3    0    0 -0.84151586094E+01  0.18499455390E-01 -0.21591987242E+01  0.86877716385E+01  0.51100000000E-03 0.  1.
         12    1    3    3    0    0  0.55317901937E+01  0.23617076779E+02 -0.26914478813E+02  0.36231977425E+02  0.00000000000E+00 0. -1.
</event>
<event>
 7    1  0.2702714E-011  0.5052886E+02  0.7816164E-02  0.1300439E+00
        -11   -1    0    0    0    0  0.00000000000E+00  0.00000000000E+00  0.45593999997E+02  0.45594000000E+02  0.51100000000E-03 0.  1.
         11   -1    0    0    0    0 -0.00000000000E+00 -0.00000000000E+00 -0.45593999997E+02  0.45594000000E+02  0.51100000000E-03 0. -1.
    9900012    2    1    2    0    0 -0.18392958556E+02 -0.36176614290E+02  0.24732751411E+01  0.50528862824E+02  0.30000009041E+02 0.  0.
        -12    1    1    2    0    0  0.18392958556E+02  0.36176614290E+02 -0.24732751411E+01  0.40659137176E+02  0.00000000000E+00 0.  1.
         11    1    3    3    0    0 -0.77661121278E+01 -0.61291565870E+01  0.76915928290E+01  0.12531546535E+02  0.51100000000E-03 0.  1.
        -11    1    3    3    0    0  0.48011603774E+01 -0.67244358923E+01  0.30958958059E+01  0.88234772137E+01  0.51100000000E-03 0. -1.
         12    1    3    3    0    0 -0.15428006806E+02 -0.23323021811E+02 -0.83142134938E+01  0.29173839076E+02  0.00000000000E+00 0. -1.
</event>
<event>
 7    1  0.2702714E-011  0.5052885E+02  0.7816164E-02  0.1300439E+00
        -11   -1    0    0    0    0  0.00000000000E+00  0.00000000000E+00  0.45593999997E+02  0.45594000000E+02  0.51100000000E-03 0.  1.
         11   -1    0    0    0    0 -0.00000000000E+00 -0.00000000000E+00 -0.45593999997E+02  0.45594000000E+02  0.51100000000E-03 0. -1.
    9900012    2    1    2    0    0  0.26996525824E+02 -0.15627872574E+02 -0.26079178403E+02  0.50528851535E+02  0.29999974725E+02 0.  0.
        -12    1    1    2    0    0 -0.26996525824E+02  0.15627872574E+02  0.26079178403E+02  0.40659148465E+02  0.00000000000E+00 0.  1.
         11    1    3    3    0    0  0.11909166764E+02 -0.21836157265E+01 -0.71366551253E+00  0.12128715900E+02  0.51100000000E-03 0. -1.
        -11    1    3    3    0    0  0.12410755867E+02  0.20118084690E+01 -0.15120371178E+02  0.19664685589E+02  0.51100000000E-03 0.  1.
         12    1    3    3    0    0  0.26766031931E+01 -0.15456065316E+02 -0.10245141713E+02  0.18735450046E+02  0.00000000000E+00 0. -1.
</event>
<event>
 7    1  0.2702714E-011  0.5052887E+02  0.7816164E-02  0.1300439E+00
        -11   -1    0    0    0    0  0.00000000000E+00  0.00000000000E+00  0.45593999997E+02  0.45594000000E+02  0.51100000000E-03 0.  1.
         11   -1    0    0    0    0 -0.00000000000E+00 -0.00000000000E+00 -0.45593999997E+02  0.45594000000E+02  0.51100000000E-03 0. -1.
    9900012    2    1    2    0    0  0.81862527472E+01  0.20234405033E+02 -0.34303337643E+02  0.50528869973E+02  0.30000030769E+02 0.  0.
        -12    1    1    2    0    0 -0.81862527472E+01 -0.20234405033E+02  0.34303337643E+02  0.40659130027E+02  0.00000000000E+00 0.  1.
         11    1    3    3    0    0 -0.21826478078E-01  0.65866554047E+01 -0.15738852496E+02  0.17061535217E+02  0.51100000000E-03 0. -1.
        -11    1    3    3    0    0  0.11486783471E+02  0.41121481201E+01 -0.19852492267E+02  0.23301875593E+02  0.51100000000E-03 0.  1.
        -12    1    3    3    0    0 -0.32787042452E+01  0.95356015083E+01  0.12880071197E+01  0.10165459163E+02  0.00000000000E+00 0.  1.
</event>
<event>
 7    1  0.2702714E-011  0.5052887E+02  0.7816164E-02  0.1300439E+00
        -11   -1    0    0    0    0  0.00000000000E+00  0.00000000000E+00  0.45593999997E+02  0.45594000000E+02  0.51100000000E-03 0.  1.
         11   -1    0    0    0    0 -0.00000000000E+00 -0.00000000000E+00 -0.45593999997E+02  0.45594000000E+02  0.51100000000E-03 0. -1.
    9900012    2    1    2    0    0 -0.26909698318E+02  0.10781889584E+02 -0.28509369638E+02  0.50528866171E+02  0.30000019214E+02 0.  0.
        -12    1    1    2    0    0  0.26909698318E+02 -0.10781889584E+02  0.28509369638E+02  0.40659133829E+02  0.00000000000E+00 0.  1.
         11    1    3    3    0    0 -0.11595046751E+02  0.89023112916E+01 -0.10284162928E+02  0.17873451342E+02  0.51100000000E-03 0. -1.
        -11    1    3    3    0    0 -0.19731695413E+02 -0.32095036259E+01 -0.11173636806E+02  0.22901765808E+02  0.51100000000E-03 0.  1.
         12    1    3    3    0    0  0.44170438461E+01  0.50890819182E+01 -0.70515699045E+01  0.97536490211E+01  0.00000000000E+00 0. -1.
</event>
<event>
 7    1  0.2702714E-011  0.5052885E+02  0.7816164E-02  0.1300439E+00
        -11   -1    0    0    0    0  0.00000000000E+00  0.00000000000E+00  0.45593999997E+02  0.45594000000E+02  0.51100000000E-03 0. -1.
         11   -1    0    0    0    0 -0.00000000000E+00 -0.00000000000E+00 -0.45593999997E+02  0.45594000000E+02  0.51100000000E-03 0.  1.
    9900012    2    1    2    0    0 -0.14968303806E+02  0.34951599955E+02  0.14404929897E+02  0.50528850186E+02  0.29999970627E+02 0.  0.
        -12    1    1    2    0    0  0.14968303806E+02 -0.34951599955E+02 -0.14404929897E+02  0.40659149814E+02  0.00000000000E+00 0.  1.
         11    1    3    3    0    0 -0.92686626307E+00  0.60846752762E+01  0.45199742608E+01  0.76362636064E+01  0.51100000000E-03 0. -1.
        -11    1    3    3    0    0  0.23611903853E+01  0.12862754743E+02 -0.66133659761E+01  0.14654770193E+02  0.51100000000E-03 0.  1.
        -12    1    3    3    0    0 -0.16402627929E+02  0.16004169935E+02  0.16498321612E+02  0.28237816387E+02  0.00000000000E+00 0.  1.
</event>
<event>
 7    1  0.2702714E-011  0.5052886E+02  0.7816164E-02  0.1300439E+00
        -11   -1    0    0    0    0  0.00000000000E+00  0.00000000000E+00  0.45593999997E+02  0.45594000000E+02  0.51100000000E-03 0. -1.
         11   -1    0    0    0    0 -0.00000000000E+00 -0.00000000000E+00 -0.45593999997E+02  0.45594000000E+02  0.51100000000E-03 0.  1.
    9900012    2    1    2    0    0 -0.18056309032E+02  0.35724144860E+02  0.71358708562E+01  0.50528862347E+02  0.30000007589E+02 0.  0.
        -12    1    1    2    0    0  0.18056309032E+02 -0.35724144860E+02 -0.71358708562E+01  0.40659137653E+02  0.00000000000E+00 0.  1.
         11    1    3    3    0    0 -0.38181765530E-01  0.76379123934E+00  0.32610806199E+01  0.33495495183E+01  0.51100000000E-03 0. -1.
        -11    1    3    3    0    0  0.25190504336E+01  0.18140833190E+02 -0.53437323249E+01  0.19078546049E+02  0.51100000000E-03 0.  1.
         12    1    3    3    0    0 -0.20537177700E+02  0.16819520430E+02  0.92185225611E+01  0.28100766780E+02  0.00000000000E+00 0. -1.
</event>
<event>
 7    1  0.2702714E-011  0.5052886E+02  0.7816164E-02  0.1300439E+00
        -11   -1    0    0    0    0  0.00000000000E+00  0.00000000000E+00  0.45593999997E+02  0.45594000000E+02  0.51100000000E-03 0.  1.
         11   -1    0    0    0    0 -0.00000000000E+00 -0.00000000000E+00 -0.45593999997E+02  0.45594000000E+02  0.51100000000E-03 0. -1.
    9900012    2    1    2    0    0  0.28963004238E+02 -0.28428227283E+02  0.24790297948E+01  0.50528864377E+02  0.30000013760E+02 0.  0.
        -12    1    1    2    0    0 -0.28963004238E+02  0.28428227283E+02 -0.24790297948E+01  0.40659135623E+02  0.00000000000E+00 0.  1.
         11    1    3    3    0    0 -0.14856538364E+01 -0.72332422913E+01 -0.25930990580E+01  0.78263097532E+01  0.51100000000E-03 0. -1.
        -11    1    3    3    0    0  0.14419601266E+02 -0.19764473247E+02  0.91174375740E+01  0.26109135788E+02  0.51100000000E-03 0.  1.
         12    1    3    3    0    0  0.16029056808E+02 -0.14305117441E+01 -0.40453087211E+01  0.16593418836E+02  0.00000000000E+00 0. -1.
</event>
<event>
 7    1  0.2702714E-011  0.5052887E+02  0.7816164E-02  0.1300439E+00
        -11   -1    0    0    0    0  0.00000000000E+00  0.00000000000E+00  0.45593999997E+02  0.45594000000E+02  0.51100000000E-03 0. -1.
         11   -1    0    0    0    0 -0.00000000000E+00 -0.00000000000E+00 -0.45593999997E+02  0.45594000000E+02  0.51100000000E-03 0.  1.
    9900012    2    1    2    0    0  0.34073481686E+02 -0.14935015381E+02  0.16404515281E+02  0.50528868674E+02  0.30000026821E+02 0.  0.
        -12    1    1    2    0    0 -0.34073481686E+02  0.14935015381E+02 -0.16404515281E+02  0.40659131326E+02  0.00000000000E+00 0.  1.
         11    1    3    3    0    0  0.34418276968E+02 -0.10044180102E+02  0.16142665654E+02  0.39320338223E+02  0.51100000000E-03 0. -1.
        -11    1    3    3    0    0  0.41441789406E+01  0.46994590879E+00  0.57098474270E+00  0.42096427505E+01  0.51100000000E-03 0.  1.
        -12    1    3    3    0    0 -0.44889742227E+01 -0.53607811877E+01 -0.30913511569E+00  0.69988876998E+01  0.00000000000E+00 0.  1.
</event>
<event>
 7    1  0.2702714E-011  0.5052885E+02  0.7816164E-02  0.1300439E+00
        -11   -1    0    0    0    0  0.00000000000E+00  0.00000000000E+00  0.45593999997E+02  0.45594000000E+02  0.51100000000E-03 0.  1.
         11   -1    0    0    0    0 -0.00000000000E+00 -0.00000000000E+00 -0.45593999997E+02  0.45594000000E+02  0.51100000000E-03 0. -1.
    9900012    2    1    2    0    0 -0.14326299014E+00 -0.33036208482E+02 -0.23701363725E+02  0.50528852965E+02  0.29999979073E+02 0.  0.
        -12    1    1    2    0    0  0.14326299014E+00  0.33036208482E+02  0.23701363725E+02  0.40659147035E+02  0.00000000000E+00 0.  1.
         11    1    3    3    0    0  0.20980327531E+01 -0.27100609062E+02 -0.27323235430E+02  0.38540938593E+02  0.51100000000E-03 0. -1.
        -11    1    3    3    0    0  0.34207708352E+01 -0.28758232732E+01  0.32788942380E+01  0.55428494739E+01  0.51100000000E-03 0.  1.
        -12    1    3    3    0    0 -0.56620665784E+01 -0.30597761469E+01  0.34297746696E+00  0.64450648989E+01  0.00000000000E+00 0.  1.
</event>
<event>
 7    1  0.2702714E-011  0.5052886E+02  0.7816164E-02  0.1300439E+00
        -11   -1    0    0    0    0  0.00000000000E+00  0.00000000000E+00  0.45593999997E+02  0.45594000000E+02  0.51100000000E-03 0. -1.
         11   -1    0    0    0    0 -0.00000000000E+00 -0.00000000000E+00 -0.45593999997E+02  0.45594000000E+02  0.51100000000E-03 0.  1.
    9900012    2    1    2    0    0  0.72676879445E+01 -0.39542623629E+02  0.60603288782E+01  0.50528856408E+02  0.29999989537E+02 0.  0.
        -12    1    1    2    0    0 -0.72676879445E+01  0.39542623629E+02 -0.60603288782E+01  0.40659143592E+02  0.00000000000E+00 0.  1.
         11    1    3    3    0    0 -0.45023836721E+01 -0.79374999531E+01  0.40282931602E+01  0.99750944999E+01  0.51100000000E-03 0. -1.
        -11    1    3    3    0    0 -0.23251552640E+01 -0.16794906442E+01 -0.58795012376E+01  0.65418323802E+01  0.51100000000E-03 0.  1.
         12    1    3    3    0    0  0.14095226881E+02 -0.29925633032E+02  0.79115369556E+01  0.34011929528E+02  0.00000000000E+00 0. -1.
</event>
<event>
 7    1  0.2702714E-011  0.5052886E+02  0.7816164E-02  0.1300439E+00
        -11   -1    0    0    0    0  0.00000000000E+00  0.00000000000E+00  0.45593999997E+02  0.45594000000E+02  0.51100000000E-03 0.  1.
         11   -1    0    0    0    0 -0.00000000000E+00 -0.00000000000E+00 -0.45593999997E+02  0.45594000000E+02  0.51100000000E-03 0. -1.
    9900012    2    1    2    0    0  0.37325783759E+02 -0.74908937355E+01 -0.14277185861E+02  0.50528860089E+02  0.30000000726E+02 0.  0.
        -12    1    1    2    0    0 -0.37325783759E+02  0.74908937355E+01  0.14277185861E+02  0.40659139911E+02  0.00000000000E+00 0.  1.
         11    1    3    3    0    0  0.73554813015E+01 -0.82993504354E+01 -0.10945278966E+01  0.11143622140E+02  0.51100000000E-03 0. -1.
        -11    1    3    3    0    0  0.75780539117E+01 -0.56904635223E+01 -0.12975892149E+02  0.16068044483E+02  0.51100000000E-03 0.  1.
        -12    1    3    3    0    0  0.22392248546E+02  0.64989202222E+01 -0.20676581536E+00  0.23317193466E+02  0.00000000000E+00 0.  1.
</event>
<event>
 7    1  0.2702714E-011  0.5052889E+02  0.7816164E-02  0.1300439E+00
        -11   -1    0    0    0    0  0.00000000000E+00  0.00000000000E+00  0.45593999997E+02  0.45594000000E+02  0.51100000000E-03 0.  1.
         11   -1    0    0    0    0 -0.00000000000E+00 -0.00000000000E+00 -0.45593999997E+02  0.45594000000E+02  0.51100000000E-03 0. -1.
    9900012    2    1    2    0    0  0.35148069545E+02 -0.10272130570E+02 -0.17670884059E+02  0.50528885369E+02  0.30000077566E+02 0.  0.
        -12    1    1    2    0    0 -0.35148069545E+02  0.10272130570E+02  0.17670884059E+02  0.40659114631E+02  0.00000000000E+00 0.  1.
         11    1    3    3    0    0  0.54526821841E+01 -0.10009398853E+02 -0.56136988016E+01  0.12705645316E+02  0.51100000000E-03 0. -1.
        -11    1    3    3    0    0  0.29375715762E+02 -0.59953536609E+01 -0.11262964680E+02  0.32027040383E+02  0.51100000000E-03 0.  1.
        -12    1    3    3    0    0  0.31967159836E+00  0.57326219438E+01 -0.79422057770E+00  0.57961996694E+01  0.00000000000E+00 0.  1.
</event>
<event>
 7    1  0.2702714E-011  0.5052886E+02  0.7816164E-02  0.1300439E+00
        -11   -1    0    0    0    0  0.00000000000E+00  0.00000000000E+00  0.45593999997E+02  0.45594000000E+02  0.51100000000E-03 0.  1.
         11   -1    0    0    0    0 -0.00000000000E+00 -0.00000000000E+00 -0.45593999997E+02  0.45594000000E+02  0.51100000000E-03 0. -1.
    9900012    2    1    2    0    0 -0.41917934593E+01  0.20301190951E+02 -0.34977932984E+02  0.50528864713E+02  0.30000014782E+02 0.  0.
        -12    1    1    2    0    0  0.41917934593E+01 -0.20301190951E+02  0.34977932984E+02  0.40659135287E+02  0.00000000000E+00 0.  1.
         11    1    3    3    0    0 -0.55242829509E+01  0.21903058306E+02 -0.12723211788E+02  0.25925697363E+02  0.51100000000E-03 0. -1.
        -11    1    3    3    0    0  0.39105061268E+01  0.24557025272E+01 -0.55462832675E+01  0.72169101016E+01  0.51100000000E-03 0.  1.
        -12    1    3    3    0    0 -0.25780166352E+01 -0.40575698820E+01 -0.16708437928E+02  0.17386257249E+02  0.00000000000E+00 0.  1.
</event>
<event>
 7    1  0.2702714E-011  0.5052886E+02  0.7816164E-02  0.1300439E+00
        -11   -1    0    0    0    0  0.00000000000E+00  0.00000000000E+00  0.45593999997E+02  0.45594000000E+02  0.51100000000E-03 0. -1.
         11   -1    0    0    0    0 -0.00000000000E+00 -0.00000000000E+00 -0.45593999997E+02  0.45594000000E+02  0.51100000000E-03 0.  1.
    9900012    2    1    2    0    0  0.24890087013E+02  0.25680538999E+02  0.19343187568E+02  0.50528863018E+02  0.30000009630E+02 0.  0.
        -12    1    1    2    0    0 -0.24890087013E+02 -0.25680538999E+02 -0.19343187568E+02  0.40659136982E+02  0.00000000000E+00 0.  1.
         11    1    3    3    0    0  0.14196837352E+02  0.17412388178E+02  0.12004536792E+02  0.25472541230E+02  0.51100000000E-03 0. -1.
        -11    1    3    3    0    0  0.55435352292E+01 -0.92703306665E+00 -0.58909161539E+01  0.81420554246E+01  0.51100000000E-03 0.  1.
         12    1    3    3    0    0  0.51497144317E+01  0.91951838880E+01  0.13229566930E+02  0.16914266364E+02  0.00000000000E+00 0. -1.
</event>
<event>
 7    1  0.2702714E-011  0.5052885E+02  0.7816164E-02  0.1300439E+00
        -11   -1    0    0    0    0  0.00000000000E+00  0.00000000000E+00  0.45593999997E+02  0.45594000000E+02  0.51100000000E-03 0. -1.
         11   -1    0    0    0    0 -0.00000000000E+00 -0.00000000000E+00 -0.45593999997E+02  0.45594000000E+02  0.51100000000E-03 0.  1.
    9900012    2    1    2    0    0  0.39624973163E+01 -0.98196895445E+00  0.40453684244E+02  0.50528853219E+02  0.29999979845E+02 0.  0.
        -12    1    1    2    0    0 -0.39624973163E+01  0.98196895445E+00 -0.40453684244E+02  0.40659146781E+02  0.00000000000E+00 0.  1.
         11    1    3    3    0    0 -0.60092742753E+01  0.15126094026E+01  0.18984559439E+02  0.19970299494E+02  0.51100000000E-03 0. -1.
        -11    1    3    3    0    0 -0.53249073202E+01 -0.35454421552E+01  0.68667326660E+01  0.93849249231E+01  0.51100000000E-03 0.  1.
         12    1    3    3    0    0  0.15296678912E+02  0.10508637981E+01  0.14602392139E+02  0.21173628802E+02  0.00000000000E+00 0. -1.
</event>
<event>
 7    1  0.2702714E-011  0.5052887E+02  0.7816164E-02  0.1300439E+00
        -11   -1    0    0    0    0  0.00000000000E+00  0.00000000000E+00  0.45593999997E+02  0.45594000000E+02  0.51100000000E-03 0. -1.
         11   -1    0    0    0    0 -0.00000000000E+00 -0.00000000000E+00 -0.45593999997E+02  0.45594000000E+02  0.51100000000E-03 0.  1.
    9900012    2    1    2    0    0 -0.57626640747E+01 -0.28907943149E+02  0.28005127131E+02  0.50528872858E+02  0.30000039540E+02 0.  0.
        -12    1    1    2    0    0  0.57626640747E+01  0.28907943149E+02 -0.28005127131E+02  0.40659127142E+02  0.00000000000E+00 0.  1.
         11    1    3    3    0    0 -0.74655444644E+01 -0.15769177981E+02  0.31051743741E+02  0.35617581585E+02  0.51100000000E-03 0.  1.
        -11    1    3    3    0    0 -0.12648468818E+01 -0.53616369574E+01  0.10905842920E+01  0.56157246065E+01  0.51100000000E-03 0. -1.
        -12    1    3    3    0    0  0.29677272715E+01 -0.77771282104E+01 -0.41372009018E+01  0.92955666670E+01  0.00000000000E+00 0.  1.
</event>
<event>
 7    1  0.2702714E-011  0.5052888E+02  0.7816164E-02  0.1300439E+00
        -11   -1    0    0    0    0  0.00000000000E+00  0.00000000000E+00  0.45593999997E+02  0.45594000000E+02  0.51100000000E-03 0.  1.
         11   -1    0    0    0    0 -0.00000000000E+00 -0.00000000000E+00 -0.45593999997E+02  0.45594000000E+02  0.51100000000E-03 0. -1.
    9900012    2    1    2    0    0 -0.11255050824E+02 -0.36965571775E+02 -0.12650470276E+02  0.50528879696E+02  0.30000060324E+02 0.  0.
        -12    1    1    2    0    0  0.11255050824E+02  0.36965571775E+02  0.12650470276E+02  0.40659120304E+02  0.00000000000E+00 0.  1.
         11    1    3    3    0    0  0.83368443334E+00 -0.12376424225E+02 -0.73386147828E+01  0.14412708751E+02  0.51100000000E-03 0.  1.
        -11    1    3    3    0    0  0.38859759183E+01 -0.12037587116E+02 -0.89257832706E+01  0.15481405610E+02  0.51100000000E-03 0. -1.
        -12    1    3    3    0    0 -0.15974711175E+02 -0.12551560433E+02  0.36139277771E+01  0.20634765335E+02  0.00000000000E+00 0.  1.
</event>
<event>
 7    1  0.2702714E-011  0.5052886E+02  0.7816164E-02  0.1300439E+00
        -11   -1    0    0    0    0  0.00000000000E+00  0.00000000000E+00  0.45593999997E+02  0.45594000000E+02  0.51100000000E-03 0. -1.
         11   -1    0    0    0    0 -0.00000000000E+00 -0.00000000000E+00 -0.45593999997E+02  0.45594000000E+02  0.51100000000E-03 0.  1.
    9900012    2    1    2    0    0 -0.20350335833E+02  0.22964908584E+02  0.26676622887E+02  0.50528863223E+02  0.30000010253E+02 0.  0.
        -12    1    1    2    0    0  0.20350335833E+02 -0.22964908584E+02 -0.26676622887E+02  0.40659136777E+02  0.00000000000E+00 0.  1.
         11    1    3    3    0    0 -0.69283470694E+01  0.26287044797E+02  0.21190934702E+02  0.34468339547E+02  0.51100000000E-03 0. -1.
        -11    1    3    3    0    0  0.15538177222E+00 -0.11356689343E+01  0.11915842666E+01  0.16534088269E+01  0.51100000000E-03 0.  1.
        -12    1    3    3    0    0 -0.13577370536E+02 -0.21864672791E+01  0.42941039182E+01  0.14407114850E+02  0.00000000000E+00 0.  1.
</event>
<event>
 7    1  0.2702714E-011  0.5052886E+02  0.7816164E-02  0.1300439E+00
        -11   -1    0    0    0    0  0.00000000000E+00  0.00000000000E+00  0.45593999997E+02  0.45594000000E+02  0.51100000000E-03 0.  1.
         11   -1    0    0    0    0 -0.00000000000E+00 -0.00000000000E+00 -0.45593999997E+02  0.45594000000E+02  0.51100000000E-03 0. -1.
    9900012    2    1    2    0    0 -0.13241050893E+02 -0.21733959791E+02 -0.31709231980E+02  0.50528857981E+02  0.29999994319E+02 0.  0.
        -12    1    1    2    0    0  0.13241050893E+02  0.21733959791E+02  0.31709231980E+02  0.40659142019E+02  0.00000000000E+00 0.  1.
         11    1    3    3    0    0 -0.11961575246E+02 -0.21173201922E+01 -0.24246596751E+02  0.27119361745E+02  0.51100000000E-03 0. -1.
        -11    1    3    3    0    0 -0.31015712504E+01 -0.13693074480E+02 -0.94234721465E+01  0.16909224124E+02  0.51100000000E-03 0.  1.
        -12    1    3    3    0    0  0.18220956036E+01 -0.59235651191E+01  0.19608369180E+01  0.65002721118E+01  0.00000000000E+00 0.  1.
</event>
<event>
 7    1  0.2702714E-011  0.5052887E+02  0.7816164E-02  0.1300439E+00
        -11   -1    0    0    0    0  0.00000000000E+00  0.00000000000E+00  0.45593999997E+02  0.45594000000E+02  0.51100000000E-03 0. -1.
         11   -1    0    0    0    0 -0.00000000000E+00 -0.00000000000E+00 -0.45593999997E+02  0.45594000000E+02  0.51100000000E-03 0.  1.
    9900012    2    1    2    0    0 -0.37978186613E+02  0.14146230227E+02  0.32720853366E+01  0.50528867810E+02  0.30000024194E+02 0.  0.
        -12    1    1    2    0    0  0.37978186613E+02 -0.14146230227E+02 -0.32720853366E+01  0.40659132190E+02  0.00000000000E+00 0.  1.
         11    1    3    3    0    0  0.24212019260E+01  0.25153925972E+01  0.25704242410E+01  0.43354930198E+01  0.51100000000E-03 0. -1.
        -11    1    3    3    0    0 -0.10910669318E+02  0.98226253612E+01  0.65504171737E+01  0.16075902443E+02  0.51100000000E-03 0.  1.
        -12    1    3    3    0    0 -0.29488719221E+02  0.18082122686E+01 -0.58487560781E+01  0.30117472346E+02  0.00000000000E+00 0.  1.
</event>
<event>
 7    1  0.2702714E-011  0.5052887E+02  0.7816164E-02  0.1300439E+00
        -11   -1    0    0    0    0  0.00000000000E+00  0.00000000000E+00  0.45593999997E+02  0.45594000000E+02  0.51100000000E-03 0.  1.
         11   -1    0    0    0    0 -0.00000000000E+00 -0.00000000000E+00 -0.45593999997E+02  0.45594000000E+02  0.51100000000E-03 0. -1.
    9900012    2    1    2    0    0 -0.14366079433E+02 -0.30358702848E+02 -0.22915711184E+02  0.50528869463E+02  0.30000029221E+02 0.  0.
        -12    1    1    2    0    0  0.14366079433E+02  0.30358702848E+02  0.22915711184E+02  0.40659130537E+02  0.00000000000E+00 0.  1.
         11    1    3    3    0    0 -0.77037765989E+01 -0.13462516457E+02 -0.15269546903E+02  0.21765720437E+02  0.51100000000E-03 0. -1.
        -11    1    3    3    0    0 -0.31072757163E+01 -0.20257984292E+02 -0.10120367379E+01  0.20519875939E+02  0.51100000000E-03 0.  1.
         12    1    3    3    0    0 -0.35550271182E+01  0.33617979004E+01 -0.66341275429E+01  0.82432730872E+01  0.00000000000E+00 0. -1.
</event>
<event>
 7    1  0.2702714E-011  0.5052885E+02  0.7816164E-02  0.1300439E+00
        -11   -1    0    0    0    0  0.00000000000E+00  0.00000000000E+00  0.45593999997E+02  0.45594000000E+02  0.51100000000E-03 0. -1.
         11   -1    0    0    0    0 -0.00000000000E+00 -0.00000000000E+00 -0.45593999997E+02  0.45594000000E+02  0.51100000000E-03 0.  1.
    9900012    2    1    2    0    0 -0.25875086625E+01 -0.40313061182E+02 -0.46182389152E+01  0.50528853014E+02  0.29999979221E+02 0.  0.
        -12    1    1    2    0    0  0.25875086625E+01  0.40313061182E+02  0.46182389152E+01  0.40659146986E+02  0.00000000000E+00 0.  1.
         11    1    3    3    0    0 -0.13036994737E+02 -0.16252520973E+02 -0.39913818474E+01  0.21214117919E+02  0.51100000000E-03 0. -1.
        -11    1    3    3    0    0  0.11693227860E+01 -0.11783864026E+00 -0.32948893691E+01  0.34982135353E+01  0.51100000000E-03 0.  1.
         12    1    3    3    0    0  0.92801632886E+01 -0.23942701569E+02  0.26680323014E+01  0.25816521560E+02  0.00000000000E+00 0. -1.
</event>
<event>
 7    1  0.2702714E-011  0.5052886E+02  0.7816164E-02  0.1300439E+00
        -11   -1    0    0    0    0  0.00000000000E+00  0.00000000000E+00  0.45593999997E+02  0.45594000000E+02  0.51100000000E-03 0.  1.
         11   -1    0    0    0    0 -0.00000000000E+00 -0.00000000000E+00 -0.45593999997E+02  0.45594000000E+02  0.51100000000E-03 0. -1.
    9900012    2    1    2    0    0  0.11780778313E+02 -0.22191397319E+02 -0.31967497194E+02  0.50528859213E+02  0.29999998064E+02 0.  0.
        -12    1    1    2    0    0 -0.11780778313E+02  0.22191397319E+02  0.31967497194E+02  0.40659140787E+02  0.00000000000E+00 0.  1.
         11    1    3    3    0    0 -0.58253249382E+01 -0.88730236299E+01 -0.12061963589E+02  0.16067231400E+02  0.51100000000E-03 0. -1.
        -11    1    3    3    0    0  0.79738181377E+01 -0.13479665898E+02 -0.19235114140E+02  0.24804692795E+02  0.51100000000E-03 0.  1.
        -12    1    3    3    0    0  0.96322851140E+01  0.16129220864E+00 -0.67041946587E+00  0.96569350187E+01  0.00000000000E+00 0.  1.
</event>
<event>
 7    1  0.2702714E-011  0.5052886E+02  0.7816164E-02  0.1300439E+00
        -11   -1    0    0    0    0  0.00000000000E+00  0.00000000000E+00  0.45593999997E+02  0.45594000000E+02  0.51100000000E-03 0.  1.
         11   -1    0    0    0    0 -0.00000000000E+00 -0.00000000000E+00 -0.45593999997E+02  0.45594000000E+02  0.51100000000E-03 0. -1.
    9900012    2    1    2    0    0  0.38212363480E+02  0.81599840033E+01 -0.11242577869E+02  0.50528860575E+02  0.30000002204E+02 0.  0.
        -12    1    1    2    0    0 -0.38212363480E+02 -0.81599840033E+01  0.11242577869E+02  0.40659139425E+02  0.00000000000E+00 0.  1.
         11    1    3    3    0    0  0.11469316919E+02 -0.18690374811E+01  0.44183603395E+00  0.11629004732E+02  0.51100000000E-03 0. -1.
        -11    1    3    3    0    0  0.10109245352E+01  0.28365971459E+01  0.61006632483E+01  0.68034068021E+01  0.51100000000E-03 0.  1.
         12    1    3    3    0    0  0.25732122025E+02  0.71924243385E+01 -0.17785077152E+02  0.32096449041E+02  0.00000000000E+00 0. -1.
</event>
<event>
 7    1  0.2702714E-011  0.5052886E+02  0.7816164E-02  0.1300439E+00
        -11   -1    0    0    0    0  0.00000000000E+00  0.00000000000E+00  0.45593999997E+02  0.45594000000E+02  0.51100000000E-03 0. -1.
         11   -1    0    0    0    0 -0.00000000000E+00 -0.00000000000E+00 -0.45593999997E+02  0.45594000000E+02  0.51100000000E-03 0.  1.
    9900012    2    1    2    0    0  0.44303594887E+01  0.15706697308E+02  0.37240268367E+02  0.50528855720E+02  0.29999987446E+02 0.  0.
        -12    1    1    2    0    0 -0.44303594887E+01 -0.15706697308E+02 -0.37240268367E+02  0.40659144280E+02  0.00000000000E+00 0.  1.
         11    1    3    3    0    0 -0.63614978572E+01 -0.30405698001E+01  0.64033902162E+01  0.95245538593E+01  0.51100000000E-03 0. -1.
        -11    1    3    3    0    0  0.38028340756E+01  0.19606643329E+02  0.22234127048E+02  0.29887094464E+02  0.51100000000E-03 0.  1.
         12    1    3    3    0    0  0.69890232703E+01 -0.85937622138E+00  0.86027511035E+01  0.11117207397E+02  0.00000000000E+00 0. -1.
</event>
<event>
 7    1  0.2702714E-011  0.5052887E+02  0.7816164E-02  0.1300439E+00
        -11   -1    0    0    0    0  0.00000000000E+00  0.00000000000E+00  0.45593999997E+02  0.45594000000E+02  0.51100000000E-03 0.  1.
         11   -1    0    0    0    0 -0.00000000000E+00 -0.00000000000E+00 -0.45593999997E+02  0.45594000000E+02  0.51100000000E-03 0. -1.
    9900012    2    1    2    0    0  0.13168184033E+02 -0.18243436179E+02 -0.33866518353E+02  0.50528866958E+02  0.30000021606E+02 0.  0.
        -12    1    1    2    0    0 -0.13168184033E+02  0.18243436179E+02  0.33866518353E+02  0.40659133042E+02  0.00000000000E+00 0.  1.
         11    1    3    3    0    0  0.43334395873E+01 -0.18285401516E+02 -0.20359131721E+02  0.27706115786E+02  0.51100000000E-03 0. -1.
        -11    1    3    3    0    0 -0.23019699699E+01 -0.35712302664E+01  0.81235697789E+00  0.43258150074E+01  0.51100000000E-03 0.  1.
         12    1    3    3    0    0  0.11136714415E+02  0.36131956029E+01 -0.14319743610E+02  0.18496936165E+02  0.00000000000E+00 0. -1.
</event>
<event>
 7    1  0.2702714E-011  0.5052886E+02  0.7816164E-02  0.1300439E+00
        -11   -1    0    0    0    0  0.00000000000E+00  0.00000000000E+00  0.45593999997E+02  0.45594000000E+02  0.51100000000E-03 0.  1.
         11   -1    0    0    0    0 -0.00000000000E+00 -0.00000000000E+00 -0.45593999997E+02  0.45594000000E+02  0.51100000000E-03 0. -1.
    9900012    2    1    2    0    0 -0.24482980385E+02 -0.28823398147E+02 -0.14931882337E+02  0.50528859338E+02  0.29999998443E+02 0.  0.
        -12    1    1    2    0    0  0.24482980385E+02  0.28823398147E+02  0.14931882337E+02  0.40659140662E+02  0.00000000000E+00 0.  1.
         11    1    3    3    0    0 -0.13144965120E+02 -0.10166401221E+02  0.34706660871E+01  0.16976199373E+02  0.51100000000E-03 0. -1.
        -11    1    3    3    0    0 -0.46513356404E+01 -0.32553079111E+01  0.29429163313E+01  0.63947407789E+01  0.51100000000E-03 0.  1.
         12    1    3    3    0    0 -0.66866796245E+01 -0.15401689015E+02 -0.21345464755E+02  0.27157919186E+02  0.00000000000E+00 0. -1.
</event>
<event>
 7    1  0.2702714E-011  0.5052886E+02  0.7816164E-02  0.1300439E+00
        -11   -1    0    0    0    0  0.00000000000E+00  0.00000000000E+00  0.45593999997E+02  0.45594000000E+02  0.51100000000E-03 0. -1.
         11   -1    0    0    0    0 -0.00000000000E+00 -0.00000000000E+00 -0.45593999997E+02  0.45594000000E+02  0.51100000000E-03 0.  1.
    9900012    2    1    2    0    0 -0.19115442260E+02  0.22504893119E+02  0.27951660648E+02  0.50528859821E+02  0.29999999913E+02 0.  0.
        -12    1    1    2    0    0  0.19115442260E+02 -0.22504893119E+02 -0.27951660648E+02  0.40659140179E+02  0.00000000000E+00 0.  1.
         11    1    3    3    0    0 -0.12780558955E+02  0.14204840836E+01  0.79389656548E+01  0.15112499402E+02  0.51100000000E-03 0. -1.
        -11    1    3    3    0    0 -0.58378087912E+01 -0.13108127914E+01  0.80243081657E+01  0.10009383770E+02  0.51100000000E-03 0.  1.
         12    1    3    3    0    0 -0.49707451306E+00  0.22395221827E+02  0.11988386828E+02  0.25406976649E+02  0.00000000000E+00 0. -1.
</event>
<event>
 7    1  0.2702714E-011  0.5052886E+02  0.7816164E-02  0.1300439E+00
        -11   -1    0    0    0    0  0.00000000000E+00  0.00000000000E+00  0.45593999997E+02  0.45594000000E+02  0.51100000000E-03 0.  1.
         11   -1    0    0    0    0 -0.00000000000E+00 -0.00000000000E+00 -0.45593999997E+02  0.45594000000E+02  0.51100000000E-03 0. -1.
    9900012    2    1    2    0    0  0.28030517243E+02  0.28272259550E+02  0.82543831672E+01  0.50528863284E+02  0.30000010440E+02 0.  0.
        -12    1    1    2    0    0 -0.28030517243E+02 -0.28272259550E+02 -0.82543831672E+01  0.40659136716E+02  0.00000000000E+00 0.  1.
         11    1    3    3    0    0  0.82083353310E+01  0.52774193923E+01  0.20283133345E+01  0.99670446770E+01  0.51100000000E-03 0. -1.
        -11    1    3    3    0    0  0.20297906894E+02  0.18564897583E+02 -0.54698415022E+01  0.28046026686E+02  0.51100000000E-03 0.  1.
        -12    1    3    3    0    0 -0.47572498221E+00  0.44299425752E+01  0.11695911335E+02  0.12515791922E+02  0.00000000000E+00 0.  1.
</event>
<event>
 7    1  0.2702714E-011  0.5052883E+02  0.7816164E-02  0.1300439E+00
        -11   -1    0    0    0    0  0.00000000000E+00  0.00000000000E+00  0.45593999997E+02  0.45594000000E+02  0.51100000000E-03 0.  1.
         11   -1    0    0    0    0 -0.00000000000E+00 -0.00000000000E+00 -0.45593999997E+02  0.45594000000E+02  0.51100000000E-03 0. -1.
    9900012    2    1    2    0    0 -0.25020353290E+02 -0.14306801635E+02 -0.28678655620E+02  0.50528832031E+02  0.29999915441E+02 0.  0.
        -12    1    1    2    0    0  0.25020353290E+02  0.14306801635E+02  0.28678655620E+02  0.40659167969E+02  0.00000000000E+00 0.  1.
         11    1    3    3    0    0 -0.80597644803E+01  0.12655196646E+01 -0.17473601875E+02  0.19284400593E+02  0.51100000000E-03 0. -1.
        -11    1    3    3    0    0 -0.18904856870E+02 -0.66599250222E+01 -0.77795177289E+01  0.21500444436E+02  0.51100000000E-03 0.  1.
         12    1    3    3    0    0  0.19442680604E+01 -0.89123962777E+01 -0.34255360161E+01  0.97439870022E+01  0.00000000000E+00 0. -1.
</event>
<event>
 7    1  0.2702714E-011  0.5052886E+02  0.7816164E-02  0.1300439E+00
        -11   -1    0    0    0    0  0.00000000000E+00  0.00000000000E+00  0.45593999997E+02  0.45594000000E+02  0.51100000000E-03 0. -1.
         11   -1    0    0    0    0 -0.00000000000E+00 -0.00000000000E+00 -0.45593999997E+02  0.45594000000E+02  0.51100000000E-03 0.  1.
    9900012    2    1    2    0    0  0.14068823254E+00 -0.29596516503E+01  0.40551030308E+02  0.50528863387E+02  0.30000010752E+02 0.  0.
        -12    1    1    2    0    0 -0.14068823254E+00  0.29596516503E+01 -0.40551030308E+02  0.40659136613E+02  0.00000000000E+00 0.  1.
         11    1    3    3    0    0 -0.86763632163E+01  0.71304712664E+01  0.28979060236E+02  0.31079073853E+02  0.51100000000E-03 0. -1.
        -11    1    3    3    0    0  0.61368481687E+01 -0.17540640413E+01  0.25382578618E+01  0.68687989737E+01  0.51100000000E-03 0.  1.
        -12    1    3    3    0    0  0.26802032801E+01 -0.83360588754E+01  0.90337122103E+01  0.12580990561E+02  0.00000000000E+00 0.  1.
</event>
<event>
 7    1  0.2876356E-011  0.5052887E+02  0.7816164E-02  0.1300439E+00
        -11   -1    0    0    0    0  0.00000000000E+00  0.00000000000E+00  0.45593999997E+02  0.45594000000E+02  0.51100000000E-03 0. -1.
         11   -1    0    0    0    0 -0.00000000000E+00 -0.00000000000E+00 -0.45593999997E+02  0.45594000000E+02  0.51100000000E-03 0.  1.
    9900012    2    1    2    0    0  0.24356269184E+02  0.32438917668E+02  0.27665428421E+01  0.50528868341E+02  0.30000025808E+02 0.  0.
        -12    1    1    2    0    0 -0.24356269184E+02 -0.32438917668E+02 -0.27665428421E+01  0.40659131659E+02  0.00000000000E+00 0.  1.
         11    1    3    3    0    0  0.13891135334E+02  0.22918245277E+02  0.13251774074E+02  0.29896807920E+02  0.51100000000E-03 0. -1.
        -11    1    3    3    0    0  0.34419357420E+01 -0.21636264117E+01 -0.16547364737E+01  0.43893455047E+01  0.51100000000E-03 0.  1.
        -12    1    3    3    0    0  0.70231981077E+01  0.11684298802E+02 -0.88304947579E+01  0.16242714916E+02  0.00000000000E+00 0.  1.
</event>
<event>
 7    1  0.2702714E-011  0.5052885E+02  0.7816164E-02  0.1300439E+00
        -11   -1    0    0    0    0  0.00000000000E+00  0.00000000000E+00  0.45593999997E+02  0.45594000000E+02  0.51100000000E-03 0.  1.
         11   -1    0    0    0    0 -0.00000000000E+00 -0.00000000000E+00 -0.45593999997E+02  0.45594000000E+02  0.51100000000E-03 0. -1.
    9900012    2    1    2    0    0  0.22298710796E+02 -0.24049433769E+02 -0.24032443797E+02  0.50528854379E+02  0.29999983369E+02 0.  0.
        -12    1    1    2    0    0 -0.22298710796E+02  0.24049433769E+02  0.24032443797E+02  0.40659145621E+02  0.00000000000E+00 0.  1.
         11    1    3    3    0    0  0.17326687647E+02 -0.59043443727E+01 -0.21437773472E+02  0.28189599483E+02  0.51100000000E-03 0. -1.
        -11    1    3    3    0    0  0.50972886740E+01 -0.17981726111E+01  0.12456367341E+01  0.55468358277E+01  0.51100000000E-03 0.  1.
         12    1    3    3    0    0 -0.12526552536E+00 -0.16346916785E+02 -0.38403070593E+01  0.16792419068E+02  0.00000000000E+00 0. -1.
</event>
<event>
 7    1  0.2702714E-011  0.5052886E+02  0.7816164E-02  0.1300439E+00
        -11   -1    0    0    0    0  0.00000000000E+00  0.00000000000E+00  0.45593999997E+02  0.45594000000E+02  0.51100000000E-03 0.  1.
         11   -1    0    0    0    0 -0.00000000000E+00 -0.00000000000E+00 -0.45593999997E+02  0.45594000000E+02  0.51100000000E-03 0. -1.
    9900012    2    1    2    0    0  0.35585841213E+01 -0.30505813093E+02 -0.26643909208E+02  0.50528855256E+02  0.29999986037E+02 0.  0.
        -12    1    1    2    0    0 -0.35585841213E+01  0.30505813093E+02  0.26643909208E+02  0.40659144744E+02  0.00000000000E+00 0.  1.
         11    1    3    3    0    0  0.81340307668E+00 -0.14338833862E+01 -0.37612446894E+01  0.41066541132E+01  0.51100000000E-03 0.  1.
        -11    1    3    3    0    0  0.28142159664E+01 -0.17337081171E+02 -0.28448848113E+02  0.33433982028E+02  0.51100000000E-03 0. -1.
         12    1    3    3    0    0 -0.69034921788E-01 -0.11734848536E+02  0.55661835943E+01  0.12988219116E+02  0.00000000000E+00 0. -1.
</event>
<event>
 7    1  0.2702714E-011  0.5052887E+02  0.7816164E-02  0.1300439E+00
        -11   -1    0    0    0    0  0.00000000000E+00  0.00000000000E+00  0.45593999997E+02  0.45594000000E+02  0.51100000000E-03 0. -1.
         11   -1    0    0    0    0 -0.00000000000E+00 -0.00000000000E+00 -0.45593999997E+02  0.45594000000E+02  0.51100000000E-03 0.  1.
    9900012    2    1    2    0    0 -0.56613957251E+01 -0.37019036640E+02  0.15833654597E+02  0.50528867038E+02  0.30000021849E+02 0.  0.
        -12    1    1    2    0    0  0.56613957251E+01  0.37019036640E+02 -0.15833654597E+02  0.40659132962E+02  0.00000000000E+00 0.  1.
         11    1    3    3    0    0 -0.18104734046E+00 -0.18033178220E+02  0.11968778833E+02  0.21644397933E+02  0.51100000000E-03 0. -1.
        -11    1    3    3    0    0 -0.81382393316E+00  0.97242154598E+00  0.78943756914E+01  0.79955663261E+01  0.51100000000E-03 0.  1.
         12    1    3    3    0    0 -0.46665244515E+01 -0.19958279965E+02 -0.40294999278E+01  0.20888902779E+02  0.00000000000E+00 0. -1.
</event>
<event>
 7    1  0.2702714E-011  0.5052885E+02  0.7816164E-02  0.1300439E+00
        -11   -1    0    0    0    0  0.00000000000E+00  0.00000000000E+00  0.45593999997E+02  0.45594000000E+02  0.51100000000E-03 0.  1.
         11   -1    0    0    0    0 -0.00000000000E+00 -0.00000000000E+00 -0.45593999997E+02  0.45594000000E+02  0.51100000000E-03 0. -1.
    9900012    2    1    2    0    0  0.36839254041E+02 -0.11439374500E+02  0.12852089780E+02  0.50528854178E+02  0.29999982760E+02 0.  0.
        -12    1    1    2    0    0 -0.36839254041E+02  0.11439374500E+02 -0.12852089780E+02  0.40659145822E+02  0.00000000000E+00 0.  1.
         11    1    3    3    0    0  0.44601833266E+01 -0.75169911162E+01  0.10418625560E+02  0.13599490783E+02  0.51100000000E-03 0. -1.
        -11    1    3    3    0    0  0.18234998241E+00  0.34167041126E+01 -0.13757793553E+01  0.36878025442E+01  0.51100000000E-03 0.  1.
         12    1    3    3    0    0  0.32196720732E+02 -0.73390874964E+01  0.38092435758E+01  0.33241560851E+02  0.00000000000E+00 0. -1.
</event>
<event>
 7    1  0.2702714E-011  0.5052886E+02  0.7816164E-02  0.1300439E+00
        -11   -1    0    0    0    0  0.00000000000E+00  0.00000000000E+00  0.45593999997E+02  0.45594000000E+02  0.51100000000E-03 0. -1.
         11   -1    0    0    0    0 -0.00000000000E+00 -0.00000000000E+00 -0.45593999997E+02  0.45594000000E+02  0.51100000000E-03 0.  1.
    9900012    2    1    2    0    0 -0.47574886374E+01  0.31476016711E+02  0.25294113242E+02  0.50528862149E+02  0.30000006987E+02 0.  0.
        -12    1    1    2    0    0  0.47574886374E+01 -0.31476016711E+02 -0.25294113242E+02  0.40659137851E+02  0.00000000000E+00 0.  1.
         11    1    3    3    0    0 -0.87487786134E+01  0.38348441932E+01  0.10285467496E+02  0.14037022444E+02  0.51100000000E-03 0.  1.
        -11    1    3    3    0    0  0.74791166671E+01  0.10609261865E+02  0.13978538350E+02  0.19075983804E+02  0.51100000000E-03 0. -1.
        -12    1    3    3    0    0 -0.34878266911E+01  0.17031910653E+02  0.10301073968E+01  0.17415855901E+02  0.00000000000E+00 0.  1.
</event>
<event>
 7    1  0.2702714E-011  0.5052887E+02  0.7816164E-02  0.1300439E+00
        -11   -1    0    0    0    0  0.00000000000E+00  0.00000000000E+00  0.45593999997E+02  0.45594000000E+02  0.51100000000E-03 0. -1.
         11   -1    0    0    0    0 -0.00000000000E+00 -0.00000000000E+00 -0.45593999997E+02  0.45594000000E+02  0.51100000000E-03 0.  1.
    9900012    2    1    2    0    0 -0.63531734700E+01  0.38140656753E+02  0.12573474935E+02  0.50528870857E+02  0.30000033458E+02 0.  0.
        -12    1    1    2    0    0  0.63531734700E+01 -0.38140656753E+02 -0.12573474935E+02  0.40659129143E+02  0.00000000000E+00 0.  1.
         11    1    3    3    0    0  0.88194085331E+00  0.17701622067E+02  0.22444658392E+01  0.17865130020E+02  0.51100000000E-03 0. -1.
        -11    1    3    3    0    0  0.77421182409E+01  0.39631368147E+01  0.23255746471E+01  0.90030631436E+01  0.51100000000E-03 0.  1.
         12    1    3    3    0    0 -0.14977232564E+02  0.16475897871E+02  0.80034344482E+01  0.23660677693E+02  0.00000000000E+00 0. -1.
</event>
<event>
 7    1  0.2702714E-011  0.5052886E+02  0.7816164E-02  0.1300439E+00
        -11   -1    0    0    0    0  0.00000000000E+00  0.00000000000E+00  0.45593999997E+02  0.45594000000E+02  0.51100000000E-03 0. -1.
         11   -1    0    0    0    0 -0.00000000000E+00 -0.00000000000E+00 -0.45593999997E+02  0.45594000000E+02  0.51100000000E-03 0.  1.
    9900012    2    1    2    0    0 -0.35086034883E+02 -0.11451107261E+02  0.17058956363E+02  0.50528859656E+02  0.29999999411E+02 0.  0.
        -12    1    1    2    0    0  0.35086034883E+02  0.11451107261E+02 -0.17058956363E+02  0.40659140344E+02  0.00000000000E+00 0.  1.
         11    1    3    3    0    0 -0.14557191935E+01  0.37870366824E+01  0.63068849145E+01  0.74991708068E+01  0.51100000000E-03 0. -1.
        -11    1    3    3    0    0 -0.57366005247E+01 -0.59965057051E+01 -0.50006243163E+01  0.96888033350E+01  0.51100000000E-03 0.  1.
        -12    1    3    3    0    0 -0.27893715165E+02 -0.92416382380E+01  0.15752695764E+02  0.33340885514E+02  0.00000000000E+00 0.  1.
</event>
<event>
 7    1  0.2702714E-011  0.5052887E+02  0.7816164E-02  0.1300439E+00
        -11   -1    0    0    0    0  0.00000000000E+00  0.00000000000E+00  0.45593999997E+02  0.45594000000E+02  0.51100000000E-03 0.  1.
         11   -1    0    0    0    0 -0.00000000000E+00 -0.00000000000E+00 -0.45593999997E+02  0.45594000000E+02  0.51100000000E-03 0. -1.
    9900012    2    1    2    0    0  0.32806409574E+02 -0.71262327022E+01  0.22937334448E+02  0.50528868022E+02  0.30000024839E+02 0.  0.
        -12    1    1    2    0    0 -0.32806409574E+02  0.71262327022E+01 -0.22937334448E+02  0.40659131978E+02  0.00000000000E+00 0.  1.
         11    1    3    3    0    0  0.16422906105E+02 -0.21215289309E+01  0.14475954349E+02  0.21994680823E+02  0.51100000000E-03 0. -1.
        -11    1    3    3    0    0  0.23055734098E+01 -0.61964011426E+01  0.12238137210E+02  0.13909818780E+02  0.51100000000E-03 0.  1.
         12    1    3    3    0    0  0.14077930059E+02  0.11916973713E+01 -0.37767571110E+01  0.14624368419E+02  0.00000000000E+00 0. -1.
</event>
<event>
 7    1  0.2702714E-011  0.5052886E+02  0.7816164E-02  0.1300439E+00
        -11   -1    0    0    0    0  0.00000000000E+00  0.00000000000E+00  0.45593999997E+02  0.45594000000E+02  0.51100000000E-03 0.  1.
         11   -1    0    0    0    0 -0.00000000000E+00 -0.00000000000E+00 -0.45593999997E+02  0.45594000000E+02  0.51100000000E-03 0. -1.
    9900012    2    1    2    0    0 -0.40229367245E+02  0.23547432709E+01 -0.54054119852E+01  0.50528864697E+02  0.30000014734E+02 0.  0.
        -12    1    1    2    0    0  0.40229367245E+02 -0.23547432709E+01  0.54054119852E+01  0.40659135303E+02  0.00000000000E+00 0.  1.
         11    1    3    3    0    0 -0.23200109813E+02 -0.24111855330E+00 -0.55730041732E+01  0.23861299404E+02  0.51100000000E-03 0. -1.
        -11    1    3    3    0    0 -0.21402937640E+01 -0.40170309857E+01 -0.74129523034E+01  0.86988078177E+01  0.51100000000E-03 0.  1.
         12    1    3    3    0    0 -0.14888963669E+02  0.66128928098E+01  0.75805444913E+01  0.17968757476E+02  0.00000000000E+00 0. -1.
</event>
<event>
 7    1  0.2702715E-011  0.5052886E+02  0.7816164E-02  0.1300439E+00
        -11   -1    0    0    0    0  0.00000000000E+00  0.00000000000E+00  0.45593999997E+02  0.45594000000E+02  0.51100000000E-03 0. -1.
         11   -1    0    0    0    0 -0.00000000000E+00 -0.00000000000E+00 -0.45593999997E+02  0.45594000000E+02  0.51100000000E-03 0.  1.
    9900012    2    1    2    0    0  0.14656492339E+02 -0.35170326480E+02  0.14191580445E+02  0.50528860955E+02  0.30000003358E+02 0.  0.
        -12    1    1    2    0    0 -0.14656492339E+02  0.35170326480E+02 -0.14191580445E+02  0.40659139045E+02  0.00000000000E+00 0.  1.
         11    1    3    3    0    0  0.31240976043E+01 -0.45476004607E+01  0.97566002095E+01  0.11208563855E+02  0.51100000000E-03 0. -1.
        -11    1    3    3    0    0  0.83694022880E+01 -0.24029228759E+02  0.12570800734E+02  0.28380904862E+02  0.51100000000E-03 0.  1.
        -12    1    3    3    0    0  0.31629924465E+01 -0.65934972598E+01 -0.81358204986E+01  0.10939392237E+02  0.00000000000E+00 0.  1.
</event>
<event>
 7    1  0.2702714E-011  0.5052874E+02  0.7816164E-02  0.1300439E+00
        -11   -1    0    0    0    0  0.00000000000E+00  0.00000000000E+00  0.45593999997E+02  0.45594000000E+02  0.51100000000E-03 0.  1.
         11   -1    0    0    0    0 -0.00000000000E+00 -0.00000000000E+00 -0.45593999997E+02  0.45594000000E+02  0.51100000000E-03 0. -1.
    9900012    2    1    2    0    0 -0.87344935239E+01 -0.31427424946E+02 -0.24273471302E+02  0.50528735067E+02  0.29999620707E+02 0.  0.
        -12    1    1    2    0    0  0.87344935239E+01  0.31427424946E+02  0.24273471302E+02  0.40659264933E+02  0.00000000000E+00 0.  1.
         11    1    3    3    0    0 -0.31309951316E+01  0.43330581594E+01 -0.27858693093E+01  0.60282328751E+01  0.51100000000E-03 0. -1.
        -11    1    3    3    0    0 -0.43302044908E+00 -0.75464443210E+01  0.15432963922E+01  0.77147969911E+01  0.51100000000E-03 0.  1.
         12    1    3    3    0    0 -0.51704779433E+01 -0.28214038785E+02 -0.23030898385E+02  0.36785705201E+02  0.00000000000E+00 0. -1.
</event>
<event>
 7    1  0.2702714E-011  0.5052887E+02  0.7816164E-02  0.1300439E+00
        -11   -1    0    0    0    0  0.00000000000E+00  0.00000000000E+00  0.45593999997E+02  0.45594000000E+02  0.51100000000E-03 0.  1.
         11   -1    0    0    0    0 -0.00000000000E+00 -0.00000000000E+00 -0.45593999997E+02  0.45594000000E+02  0.51100000000E-03 0. -1.
    9900012    2    1    2    0    0  0.28496819427E+02  0.20609456290E+02 -0.20404573120E+02  0.50528868059E+02  0.30000024952E+02 0.  0.
        -12    1    1    2    0    0 -0.28496819427E+02 -0.20609456290E+02  0.20404573120E+02  0.40659131941E+02  0.00000000000E+00 0.  1.
         11    1    3    3    0    0  0.13985813535E+02  0.72433789553E+01 -0.39896402007E+01  0.16247669006E+02  0.51100000000E-03 0. -1.
        -11    1    3    3    0    0 -0.50825045905E+00 -0.36384124131E+01  0.27446091865E+01  0.45857652867E+01  0.51100000000E-03 0.  1.
         12    1    3    3    0    0  0.15019256350E+02  0.17004489747E+02 -0.19159542106E+02  0.29695433767E+02  0.00000000000E+00 0. -1.
</event>
<event>
 7    1  0.2702714E-011  0.5052885E+02  0.7816164E-02  0.1300439E+00
        -11   -1    0    0    0    0  0.00000000000E+00  0.00000000000E+00  0.45593999997E+02  0.45594000000E+02  0.51100000000E-03 0.  1.
         11   -1    0    0    0    0 -0.00000000000E+00 -0.00000000000E+00 -0.45593999997E+02  0.45594000000E+02  0.51100000000E-03 0. -1.
    9900012    2    1    2    0    0  0.11203117193E+02 -0.14477959476E+02 -0.36304895387E+02  0.50528848822E+02  0.29999966480E+02 0.  0.
        -12    1    1    2    0    0 -0.11203117193E+02  0.14477959476E+02  0.36304895387E+02  0.40659151178E+02  0.00000000000E+00 0.  1.
         11    1    3    3    0    0  0.16679483503E+01 -0.17405915913E+02 -0.30329871889E+02  0.35009271479E+02  0.51100000000E-03 0. -1.
        -11    1    3    3    0    0  0.70582026874E+00  0.39463806920E+01 -0.52451135319E+01  0.66017663577E+01  0.51100000000E-03 0.  1.
        -12    1    3    3    0    0  0.88293485745E+01 -0.10184242543E+01 -0.72990996659E+00  0.89178109853E+01  0.00000000000E+00 0.  1.
</event>
<event>
 7    1  0.2702714E-011  0.5052885E+02  0.7816164E-02  0.1300439E+00
        -11   -1    0    0    0    0  0.00000000000E+00  0.00000000000E+00  0.45593999997E+02  0.45594000000E+02  0.51100000000E-03 0. -1.
         11   -1    0    0    0    0 -0.00000000000E+00 -0.00000000000E+00 -0.45593999997E+02  0.45594000000E+02  0.51100000000E-03 0.  1.
    9900012    2    1    2    0    0  0.13294796016E+02 -0.38421804767E+02  0.42371161378E+00  0.50528853253E+02  0.29999979948E+02 0.  0.
        -12    1    1    2    0    0 -0.13294796016E+02  0.38421804767E+02 -0.42371161378E+00  0.40659146747E+02  0.00000000000E+00 0.  1.
         11    1    3    3    0    0  0.48019435449E+01 -0.73503459410E+00  0.11124391825E+01  0.49836190523E+01  0.51100000000E-03 0. -1.
        -11    1    3    3    0    0 -0.53724977570E+01 -0.14601433734E+01  0.34278280668E+01  0.65380238862E+01  0.51100000000E-03 0.  1.
         12    1    3    3    0    0  0.13865350228E+02 -0.36226626799E+02 -0.41165556355E+01  0.39007210315E+02  0.00000000000E+00 0. -1.
</event>
<event>
 7    1  0.2702714E-011  0.5052885E+02  0.7816164E-02  0.1300439E+00
        -11   -1    0    0    0    0  0.00000000000E+00  0.00000000000E+00  0.45593999997E+02  0.45594000000E+02  0.51100000000E-03 0.  1.
         11   -1    0    0    0    0 -0.00000000000E+00 -0.00000000000E+00 -0.45593999997E+02  0.45594000000E+02  0.51100000000E-03 0. -1.
    9900012    2    1    2    0    0 -0.36198066560E+02 -0.81283666460E+00 -0.18498794003E+02  0.50528854587E+02  0.29999984004E+02 0.  0.
        -12    1    1    2    0    0  0.36198066560E+02  0.81283666460E+00  0.18498794003E+02  0.40659145413E+02  0.00000000000E+00 0.  1.
         11    1    3    3    0    0 -0.56328711694E+01 -0.66879254492E+01 -0.96286886689E+01  0.13006507224E+02  0.51100000000E-03 0. -1.
        -11    1    3    3    0    0 -0.92941948423E+01 -0.61684674713E+01  0.91568723112E+00  0.11192431911E+02  0.51100000000E-03 0.  1.
        -12    1    3    3    0    0 -0.21271000548E+02  0.12043556256E+02 -0.97857925649E+01  0.26329915453E+02  0.00000000000E+00 0.  1.
</event>
<event>
 7    1  0.2702714E-011  0.5052880E+02  0.7816164E-02  0.1300439E+00
        -11   -1    0    0    0    0  0.00000000000E+00  0.00000000000E+00  0.45593999997E+02  0.45594000000E+02  0.51100000000E-03 0. -1.
         11   -1    0    0    0    0 -0.00000000000E+00 -0.00000000000E+00 -0.45593999997E+02  0.45594000000E+02  0.51100000000E-03 0.  1.
    9900012    2    1    2    0    0 -0.39647178433E+02 -0.20959358600E+01  0.87680382807E+01  0.50528804237E+02  0.29999830959E+02 0.  0.
        -12    1    1    2    0    0  0.39647178433E+02  0.20959358600E+01 -0.87680382807E+01  0.40659195763E+02  0.00000000000E+00 0.  1.
         11    1    3    3    0    0 -0.35580301907E+01 -0.43532704607E+01  0.47209811605E+01  0.73415397514E+01  0.51100000000E-03 0. -1.
        -11    1    3    3    0    0 -0.28048466340E+02 -0.17055027879E+01  0.12601370513E+02  0.30796424190E+02  0.51100000000E-03 0.  1.
        -12    1    3    3    0    0 -0.80406819015E+01  0.39628373887E+01 -0.85543133932E+01  0.12390840296E+02  0.00000000000E+00 0.  1.
</event>
<event>
 7    1  0.2702714E-011  0.5052887E+02  0.7816164E-02  0.1300439E+00
        -11   -1    0    0    0    0  0.00000000000E+00  0.00000000000E+00  0.45593999997E+02  0.45594000000E+02  0.51100000000E-03 0.  1.
         11   -1    0    0    0    0 -0.00000000000E+00 -0.00000000000E+00 -0.45593999997E+02  0.45594000000E+02  0.51100000000E-03 0. -1.
    9900012    2    1    2    0    0 -0.33789597380E+02 -0.36935058383E+01 -0.22311109872E+02  0.50528874331E+02  0.30000044015E+02 0.  0.
        -12    1    1    2    0    0  0.33789597380E+02  0.36935058383E+01  0.22311109872E+02  0.40659125669E+02  0.00000000000E+00 0.  1.
         11    1    3    3    0    0 -0.25811147629E+02 -0.43036355533E+01 -0.96727578001E+01  0.27898008256E+02  0.51100000000E-03 0.  1.
        -11    1    3    3    0    0 -0.12107327747E+02  0.72897755805E+00 -0.35344546805E+01  0.12633731183E+02  0.51100000000E-03 0. -1.
        -12    1    3    3    0    0  0.41288779968E+01 -0.11884784302E+00 -0.91038973919E+01  0.99971348918E+01  0.00000000000E+00 0.  1.
</event>
<event>
 7    1  0.3216240E-011  0.5052888E+02  0.7816164E-02  0.1300439E+00
        -11   -1    0    0    0    0  0.00000000000E+00  0.00000000000E+00  0.45593999997E+02  0.45594000000E+02  0.51100000000E-03 0. -1.
         11   -1    0    0    0    0 -0.00000000000E+00 -0.00000000000E+00 -0.45593999997E+02  0.45594000000E+02  0.51100000000E-03 0.  1.
    9900012    2    1    2    0    0  0.59545448062E+01 -0.33569660683E+02 -0.22153668736E+02  0.50528883425E+02  0.30000071660E+02 0.  0.
        -12    1    1    2    0    0 -0.59545448062E+01  0.33569660683E+02  0.22153668736E+02  0.40659116575E+02  0.00000000000E+00 0.  1.
         11    1    3    3    0    0  0.48752694193E+01 -0.20214354139E+02 -0.61044461030E+01  0.21671470362E+02  0.51100000000E-03 0. -1.
        -11    1    3    3    0    0  0.10220353513E+02 -0.43216253410E+01 -0.66660203122E+01  0.12944801991E+02  0.51100000000E-03 0.  1.
        -12    1    3    3    0    0 -0.91410781258E+01 -0.90336812030E+01 -0.93832023204E+01  0.15912611073E+02  0.00000000000E+00 0.  1.
</event>
<event>
 7    1  0.2702714E-011  0.5052886E+02  0.7816164E-02  0.1300439E+00
        -11   -1    0    0    0    0  0.00000000000E+00  0.00000000000E+00  0.45593999997E+02  0.45594000000E+02  0.51100000000E-03 0.  1.
         11   -1    0    0    0    0 -0.00000000000E+00 -0.00000000000E+00 -0.45593999997E+02  0.45594000000E+02  0.51100000000E-03 0. -1.
    9900012    2    1    2    0    0  0.11397120991E+02 -0.30869306407E+02 -0.23882159496E+02  0.50528856046E+02  0.29999988436E+02 0.  0.
        -12    1    1    2    0    0 -0.11397120991E+02  0.30869306407E+02  0.23882159496E+02  0.40659143954E+02  0.00000000000E+00 0.  1.
         11    1    3    3    0    0 -0.61852365943E+01 -0.15256530289E+02 -0.42134830326E+01  0.16993301848E+02  0.51100000000E-03 0. -1.
        -11    1    3    3    0    0  0.62456449293E+01 -0.13332374903E+02 -0.15135378412E+02  0.21114923184E+02  0.51100000000E-03 0.  1.
        -12    1    3    3    0    0  0.11336712656E+02 -0.22804012148E+01 -0.45332980513E+01  0.12420631013E+02  0.00000000000E+00 0.  1.
</event>
<event>
 7    1  0.2702714E-011  0.5052886E+02  0.7816164E-02  0.1300439E+00
        -11   -1    0    0    0    0  0.00000000000E+00  0.00000000000E+00  0.45593999997E+02  0.45594000000E+02  0.51100000000E-03 0. -1.
         11   -1    0    0    0    0 -0.00000000000E+00 -0.00000000000E+00 -0.45593999997E+02  0.45594000000E+02  0.51100000000E-03 0.  1.
    9900012    2    1    2    0    0  0.40077621618E+02  0.34548098327E+01  0.59173131516E+01  0.50528855144E+02  0.29999985695E+02 0.  0.
        -12    1    1    2    0    0 -0.40077621618E+02 -0.34548098327E+01 -0.59173131516E+01  0.40659144856E+02  0.00000000000E+00 0.  1.
         11    1    3    3    0    0  0.16129221835E+02  0.11143807520E+02 -0.13677214699E+01  0.19652147601E+02  0.51100000000E-03 0. -1.
        -11    1    3    3    0    0 -0.21949787779E+01 -0.18801176380E+01 -0.61505710473E+00  0.29548383494E+01  0.51100000000E-03 0.  1.
        -12    1    3    3    0    0  0.26143378561E+02 -0.58088800489E+01  0.79000917262E+01  0.27921869194E+02  0.00000000000E+00 0.  1.
</event>
<event>
 7    1  0.2702714E-011  0.5052886E+02  0.7816164E-02  0.1300439E+00
        -11   -1    0    0    0    0  0.00000000000E+00  0.00000000000E+00  0.45593999997E+02  0.45594000000E+02  0.51100000000E-03 0.  1.
         11   -1    0    0    0    0 -0.00000000000E+00 -0.00000000000E+00 -0.45593999997E+02  0.45594000000E+02  0.51100000000E-03 0. -1.
    9900012    2    1    2    0    0 -0.15319632224E+01 -0.39032923963E+01 -0.40442344759E+02  0.50528857701E+02  0.29999993468E+02 0.  0.
        -12    1    1    2    0    0  0.15319632224E+01  0.39032923963E+01  0.40442344759E+02  0.40659142299E+02  0.00000000000E+00 0.  1.
         11    1    3    3    0    0  0.27923640601E+01 -0.69911281051E+00 -0.76054554028E+01  0.81319744165E+01  0.51100000000E-03 0. -1.
        -11    1    3    3    0    0  0.32406014015E+01 -0.12255552105E+01  0.36787653672E+01  0.50533946912E+01  0.51100000000E-03 0.  1.
         12    1    3    3    0    0 -0.75649286840E+01 -0.19786243753E+01 -0.36515654724E+02  0.37343488593E+02  0.00000000000E+00 0. -1.
</event>
<event>
 7    1  0.2702714E-011  0.5052885E+02  0.7816164E-02  0.1300439E+00
        -11   -1    0    0    0    0  0.00000000000E+00  0.00000000000E+00  0.45593999997E+02  0.45594000000E+02  0.51100000000E-03 0.  1.
         11   -1    0    0    0    0 -0.00000000000E+00 -0.00000000000E+00 -0.45593999997E+02  0.45594000000E+02  0.51100000000E-03 0. -1.
    9900012    2    1    2    0    0  0.40113300936E+02 -0.66014348921E+01 -0.71450261326E+00  0.50528851355E+02  0.29999974178E+02 0.  0.
        -12    1    1    2    0    0 -0.40113300936E+02  0.66014348921E+01  0.71450261326E+00  0.40659148645E+02  0.00000000000E+00 0.  1.
         11    1    3    3    0    0  0.25262197583E+02 -0.16054034199E+01 -0.88967326038E+01  0.26831097595E+02  0.51100000000E-03 0. -1.
        -11    1    3    3    0    0  0.20870590800E+01  0.34140317727E+01 -0.27932385887E+01  0.48799191205E+01  0.51100000000E-03 0.  1.
        -12    1    3    3    0    0  0.12764044272E+02 -0.84100632449E+01  0.10975468579E+02  0.18817834639E+02  0.00000000000E+00 0.  1.
</event>
<event>
 7    1  0.2702714E-011  0.5052888E+02  0.7816164E-02  0.1300439E+00
        -11   -1    0    0    0    0  0.00000000000E+00  0.00000000000E+00  0.45593999997E+02  0.45594000000E+02  0.51100000000E-03 0. -1.
         11   -1    0    0    0    0 -0.00000000000E+00 -0.00000000000E+00 -0.45593999997E+02  0.45594000000E+02  0.51100000000E-03 0.  1.
    9900012    2    1    2    0    0 -0.29397403127E+02 -0.20186693821E+02  0.19530844213E+02  0.50528883019E+02  0.30000070424E+02 0.  0.
        -12    1    1    2    0    0  0.29397403127E+02  0.20186693821E+02 -0.19530844213E+02  0.40659116981E+02  0.00000000000E+00 0.  1.
         11    1    3    3    0    0  0.19333021436E+01 -0.47645950213E+01  0.22149993150E+01  0.55986824452E+01  0.51100000000E-03 0.  1.
        -11    1    3    3    0    0 -0.17788643756E+02 -0.20280914693E+02  0.12730818045E+02  0.29829935900E+02  0.51100000000E-03 0. -1.
         12    1    3    3    0    0 -0.13542061515E+02  0.48588158936E+01  0.45850268531E+01  0.15100264673E+02  0.00000000000E+00 0. -1.
</event>
<event>
 7    1  0.2702714E-011  0.5052884E+02  0.7816164E-02  0.1300439E+00
        -11   -1    0    0    0    0  0.00000000000E+00  0.00000000000E+00  0.45593999997E+02  0.45594000000E+02  0.51100000000E-03 0.  1.
         11   -1    0    0    0    0 -0.00000000000E+00 -0.00000000000E+00 -0.45593999997E+02  0.45594000000E+02  0.51100000000E-03 0. -1.
    9900012    2    1    2    0    0  0.25904743373E+02  0.12825306675E+02 -0.28594102927E+02  0.50528844294E+02  0.29999952716E+02 0.  0.
        -12    1    1    2    0    0 -0.25904743373E+02 -0.12825306675E+02  0.28594102927E+02  0.40659155706E+02  0.00000000000E+00 0.  1.
         11    1    3    3    0    0  0.28658893087E+01  0.13991363116E+02 -0.82544357401E+01  0.16495674373E+02  0.51100000000E-03 0. -1.
        -11    1    3    3    0    0 -0.19973114318E+01  0.77902471851E+00 -0.11811447411E+01  0.24477000691E+01  0.51100000000E-03 0.  1.
        -12    1    3    3    0    0  0.25036165496E+02 -0.19450811597E+01 -0.19158522446E+02  0.31585469852E+02  0.00000000000E+00 0.  1.
</event>
<event>
 7    1  0.2702714E-011  0.5052886E+02  0.7816164E-02  0.1300439E+00
        -11   -1    0    0    0    0  0.00000000000E+00  0.00000000000E+00  0.45593999997E+02  0.45594000000E+02  0.51100000000E-03 0.  1.
         11   -1    0    0    0    0 -0.00000000000E+00 -0.00000000000E+00 -0.45593999997E+02  0.45594000000E+02  0.51100000000E-03 0. -1.
    9900012    2    1    2    0    0  0.16065341466E+02  0.13062416611E+02 -0.34992056533E+02  0.50528856569E+02  0.29999990026E+02 0.  0.
        -12    1    1    2    0    0 -0.16065341466E+02 -0.13062416611E+02  0.34992056533E+02  0.40659143431E+02  0.00000000000E+00 0.  1.
         11    1    3    3    0    0 -0.33602130909E+00  0.52867082103E+01 -0.21942613659E+02  0.22573003532E+02  0.51100000000E-03 0. -1.
        -11    1    3    3    0    0  0.37667002426E+01 -0.47942075914E+01 -0.66436203537E+01  0.90172140272E+01  0.51100000000E-03 0.  1.
         12    1    3    3    0    0  0.12634662533E+02  0.12569915992E+02 -0.64058225206E+01  0.18938639009E+02  0.00000000000E+00 0. -1.
</event>
<event>
 7    1  0.2702714E-011  0.5052886E+02  0.7816164E-02  0.1300439E+00
        -11   -1    0    0    0    0  0.00000000000E+00  0.00000000000E+00  0.45593999997E+02  0.45594000000E+02  0.51100000000E-03 0.  1.
         11   -1    0    0    0    0 -0.00000000000E+00 -0.00000000000E+00 -0.45593999997E+02  0.45594000000E+02  0.51100000000E-03 0. -1.
    9900012    2    1    2    0    0  0.49044668615E+01 -0.37203116430E+02 -0.15653741178E+02  0.50528864739E+02  0.30000014860E+02 0.  0.
        -12    1    1    2    0    0 -0.49044668615E+01  0.37203116430E+02  0.15653741178E+02  0.40659135261E+02  0.00000000000E+00 0.  1.
         11    1    3    3    0    0 -0.52894156027E+01 -0.11013388047E+02  0.32617751370E+01  0.12645624183E+02  0.51100000000E-03 0. -1.
        -11    1    3    3    0    0  0.80440168923E+01 -0.65730901477E+01  0.22645349191E+00  0.10390524688E+02  0.51100000000E-03 0.  1.
         12    1    3    3    0    0  0.21498655718E+01 -0.19616638236E+02 -0.19141969807E+02  0.27492715867E+02  0.00000000000E+00 0. -1.
</event>
<event>
 7    1  0.2964795E-011  0.5052876E+02  0.7816164E-02  0.1300439E+00
        -11   -1    0    0    0    0  0.00000000000E+00  0.00000000000E+00  0.45593999997E+02  0.45594000000E+02  0.51100000000E-03 0. -1.
         11   -1    0    0    0    0 -0.00000000000E+00 -0.00000000000E+00 -0.45593999997E+02  0.45594000000E+02  0.51100000000E-03 0.  1.
    9900012    2    1    2    0    0  0.51355948808E+01  0.30650357370E+02  0.26217458207E+02  0.50528759273E+02  0.29999694285E+02 0.  0.
        -12    1    1    2    0    0 -0.51355948808E+01 -0.30650357370E+02 -0.26217458207E+02  0.40659240727E+02  0.00000000000E+00 0.  1.
         11    1    3    3    0    0  0.22730063434E+01  0.57476400941E+01  0.19857095902E+02  0.20796782983E+02  0.51100000000E-03 0. -1.
        -11    1    3    3    0    0 -0.40599462514E+01  0.13934138777E+02  0.81394499860E+01  0.16640133214E+02  0.51100000000E-03 0.  1.
        -12    1    3    3    0    0  0.69225347888E+01  0.10968578498E+02 -0.17790876820E+01  0.13091843077E+02  0.00000000000E+00 0.  1.
</event>
<event>
 7    1  0.2702714E-011  0.5052886E+02  0.7816164E-02  0.1300439E+00
        -11   -1    0    0    0    0  0.00000000000E+00  0.00000000000E+00  0.45593999997E+02  0.45594000000E+02  0.51100000000E-03 0. -1.
         11   -1    0    0    0    0 -0.00000000000E+00 -0.00000000000E+00 -0.45593999997E+02  0.45594000000E+02  0.51100000000E-03 0.  1.
    9900012    2    1    2    0    0 -0.34414136475E-01  0.30580660192E+02 -0.26795292305E+02  0.50528860168E+02  0.30000000968E+02 0.  0.
        -12    1    1    2    0    0  0.34414136475E-01 -0.30580660192E+02  0.26795292305E+02  0.40659139832E+02  0.00000000000E+00 0.  1.
         11    1    3    3    0    0  0.18450897581E+01  0.34832654152E+01  0.38883790062E+01  0.55368750867E+01  0.51100000000E-03 0. -1.
        -11    1    3    3    0    0 -0.53566221246E+01  0.11252432090E+02 -0.24765112401E+02  0.27724022453E+02  0.51100000000E-03 0.  1.
         12    1    3    3    0    0  0.34771182300E+01  0.15844962688E+02 -0.59185589104E+01  0.17267962628E+02  0.00000000000E+00 0. -1.
</event>
<event>
 7    1  0.2702714E-011  0.5052887E+02  0.7816164E-02  0.1300439E+00
        -11   -1    0    0    0    0  0.00000000000E+00  0.00000000000E+00  0.45593999997E+02  0.45594000000E+02  0.51100000000E-03 0.  1.
         11   -1    0    0    0    0 -0.00000000000E+00 -0.00000000000E+00 -0.45593999997E+02  0.45594000000E+02  0.51100000000E-03 0. -1.
    9900012    2    1    2    0    0 -0.27899508019E+02  0.97098593540E+01 -0.27937453008E+02  0.50528865762E+02  0.30000017970E+02 0.  0.
        -12    1    1    2    0    0  0.27899508019E+02 -0.97098593540E+01  0.27937453008E+02  0.40659134238E+02  0.00000000000E+00 0.  1.
         11    1    3    3    0    0 -0.21244236152E+01  0.39733641462E+01  0.31303150929E+01  0.54863167222E+01  0.51100000000E-03 0. -1.
        -11    1    3    3    0    0 -0.27955454868E+01 -0.53881833133E+01 -0.11020291000E+02  0.12581510560E+02  0.51100000000E-03 0.  1.
         12    1    3    3    0    0 -0.22979538917E+02  0.11124678521E+02 -0.20047477101E+02  0.32461038480E+02  0.00000000000E+00 0. -1.
</event>
<event>
 7    1  0.2702714E-011  0.5052888E+02  0.7816164E-02  0.1300439E+00
        -11   -1    0    0    0    0  0.00000000000E+00  0.00000000000E+00  0.45593999997E+02  0.45594000000E+02  0.51100000000E-03 0. -1.
         11   -1    0    0    0    0 -0.00000000000E+00 -0.00000000000E+00 -0.45593999997E+02  0.45594000000E+02  0.51100000000E-03 0.  1.
    9900012    2    1    2    0    0  0.10165893984E+02 -0.14521564779E+01  0.39340938953E+02  0.50528884950E+02  0.30000076294E+02 0.  0.
        -12    1    1    2    0    0 -0.10165893984E+02  0.14521564779E+01 -0.39340938953E+02  0.40659115050E+02  0.00000000000E+00 0.  1.
         11    1    3    3    0    0  0.54837720673E+01  0.43125076114E+01  0.49379083644E+01  0.85470706830E+01  0.51100000000E-03 0. -1.
        -11    1    3    3    0    0  0.13085635535E+01 -0.50059903293E+01 -0.19018407593E+01  0.55126469400E+01  0.51100000000E-03 0.  1.
         12    1    3    3    0    0  0.33735583633E+01 -0.75867376003E+00  0.36304871348E+02  0.36469167327E+02  0.00000000000E+00 0. -1.
</event>
<event>
 7    1  0.2702714E-011  0.5052886E+02  0.7816164E-02  0.1300439E+00
        -11   -1    0    0    0    0  0.00000000000E+00  0.00000000000E+00  0.45593999997E+02  0.45594000000E+02  0.51100000000E-03 0. -1.
         11   -1    0    0    0    0 -0.00000000000E+00 -0.00000000000E+00 -0.45593999997E+02  0.45594000000E+02  0.51100000000E-03 0.  1.
    9900012    2    1    2    0    0 -0.35106709133E+02 -0.96706582414E+01  0.18087649296E+02  0.50528859404E+02  0.29999998643E+02 0.  0.
        -12    1    1    2    0    0  0.35106709133E+02  0.96706582414E+01 -0.18087649296E+02  0.40659140596E+02  0.00000000000E+00 0.  1.
         11    1    3    3    0    0 -0.82838684457E+01  0.16936391152E+01  0.14387235384E+00  0.84564525301E+01  0.51100000000E-03 0. -1.
        -11    1    3    3    0    0 -0.19834708316E+01 -0.93369181617E+01 -0.24670775417E+01  0.98589385411E+01  0.51100000000E-03 0.  1.
         12    1    3    3    0    0 -0.24839369856E+02 -0.20273791949E+01  0.20410854484E+02  0.32213468332E+02  0.00000000000E+00 0. -1.
</event>
<event>
 7    1  0.2702714E-011  0.5052886E+02  0.7816164E-02  0.1300439E+00
        -11   -1    0    0    0    0  0.00000000000E+00  0.00000000000E+00  0.45593999997E+02  0.45594000000E+02  0.51100000000E-03 0. -1.
         11   -1    0    0    0    0 -0.00000000000E+00 -0.00000000000E+00 -0.45593999997E+02  0.45594000000E+02  0.51100000000E-03 0.  1.
    9900012    2    1    2    0    0  0.17257611227E+02  0.35783392571E+02  0.86538623871E+01  0.50528860027E+02  0.30000000537E+02 0.  0.
        -12    1    1    2    0    0 -0.17257611227E+02 -0.35783392571E+02 -0.86538623871E+01  0.40659139973E+02  0.00000000000E+00 0.  1.
         11    1    3    3    0    0  0.37450197035E+01  0.14271335162E+01  0.13162604136E+01  0.42183437970E+01  0.51100000000E-03 0. -1.
        -11    1    3    3    0    0 -0.82356282586E+01  0.77579224970E+01  0.27897823154E+01  0.11653060538E+02  0.51100000000E-03 0.  1.
        -12    1    3    3    0    0  0.21748219782E+02  0.26598336558E+02  0.45478196581E+01  0.34657455691E+02  0.00000000000E+00 0.  1.
</event>
<event>
 7    1  0.2702714E-011  0.5052886E+02  0.7816164E-02  0.1300439E+00
        -11   -1    0    0    0    0  0.00000000000E+00  0.00000000000E+00  0.45593999997E+02  0.45594000000E+02  0.51100000000E-03 0.  1.
         11   -1    0    0    0    0 -0.00000000000E+00 -0.00000000000E+00 -0.45593999997E+02  0.45594000000E+02  0.51100000000E-03 0. -1.
    9900012    2    1    2    0    0  0.35460090995E+01 -0.12063350066E+02 -0.38666099724E+02  0.50528857569E+02  0.29999993066E+02 0.  0.
        -12    1    1    2    0    0 -0.35460090995E+01  0.12063350066E+02  0.38666099724E+02  0.40659142431E+02  0.00000000000E+00 0.  1.
         11    1    3    3    0    0 -0.50331257084E+01  0.18340944241E+01 -0.12820991563E+02  0.13895109991E+02  0.51100000000E-03 0. -1.
        -11    1    3    3    0    0  0.88303818439E+01  0.19113600430E+01 -0.45642738446E+01  0.10122328621E+02  0.51100000000E-03 0.  1.
        -12    1    3    3    0    0 -0.25124703599E+00 -0.15808804534E+02 -0.21280834317E+02  0.26511418956E+02  0.00000000000E+00 0.  1.
</event>
<event>
 7    1  0.3717198E-011  0.5052886E+02  0.7816164E-02  0.1300439E+00
        -11   -1    0    0    0    0  0.00000000000E+00  0.00000000000E+00  0.45593999997E+02  0.45594000000E+02  0.51100000000E-03 0.  1.
         11   -1    0    0    0    0 -0.00000000000E+00 -0.00000000000E+00 -0.45593999997E+02  0.45594000000E+02  0.51100000000E-03 0. -1.
    9900012    2    1    2    0    0 -0.37020335530E+02  0.18629297519E+01  0.16708978684E+02  0.50528859347E+02  0.29999998471E+02 0.  0.
        -12    1    1    2    0    0  0.37020335530E+02 -0.18629297519E+01 -0.16708978684E+02  0.40659140653E+02  0.00000000000E+00 0.  1.
         11    1    3    3    0    0 -0.16089489144E+02 -0.52255566792E+01  0.90617446025E+01  0.19190969726E+02  0.51100000000E-03 0. -1.
        -11    1    3    3    0    0 -0.15722463580E+02  0.80654346906E+01  0.14371216951E+02  0.22776720016E+02  0.51100000000E-03 0.  1.
        -12    1    3    3    0    0 -0.52083828056E+01 -0.97694825947E+00 -0.67239828704E+01  0.85611696042E+01  0.00000000000E+00 0.  1.
</event>
<event>
 7    1  0.2702714E-011  0.5052882E+02  0.7816164E-02  0.1300439E+00
        -11   -1    0    0    0    0  0.00000000000E+00  0.00000000000E+00  0.45593999997E+02  0.45594000000E+02  0.51100000000E-03 0.  1.
         11   -1    0    0    0    0 -0.00000000000E+00 -0.00000000000E+00 -0.45593999997E+02  0.45594000000E+02  0.51100000000E-03 0. -1.
    9900012    2    1    2    0    0  0.23489920489E+02  0.30879685080E+02 -0.12158837740E+02  0.50528823294E+02  0.29999888885E+02 0.  0.
        -12    1    1    2    0    0 -0.23489920489E+02 -0.30879685080E+02  0.12158837740E+02  0.40659176706E+02  0.00000000000E+00 0.  1.
         11    1    3    3    0    0 -0.15985798674E+01  0.11831335553E+02 -0.71362959733E+01  0.13909086205E+02  0.51100000000E-03 0. -1.
        -11    1    3    3    0    0  0.20035145474E+00  0.46418845166E+01  0.43592299103E+01  0.63710374542E+01  0.51100000000E-03 0.  1.
         12    1    3    3    0    0  0.24888148902E+02  0.14406465010E+02 -0.93817716765E+01  0.30248699635E+02  0.00000000000E+00 0. -1.
</event>
<event>
 7    1  0.2702714E-011  0.5052886E+02  0.7816164E-02  0.1300439E+00
        -11   -1    0    0    0    0  0.00000000000E+00  0.00000000000E+00  0.45593999997E+02  0.45594000000E+02  0.51100000000E-03 0.  1.
         11   -1    0    0    0    0 -0.00000000000E+00 -0.00000000000E+00 -0.45593999997E+02  0.45594000000E+02  0.51100000000E-03 0. -1.
    9900012    2    1    2    0    0 -0.28871882761E+01 -0.27680821328E+02 -0.29641217200E+02  0.50528862249E+02  0.30000007293E+02 0.  0.
        -12    1    1    2    0    0  0.28871882761E+01  0.27680821328E+02  0.29641217200E+02  0.40659137751E+02  0.00000000000E+00 0.  1.
         11    1    3    3    0    0 -0.46218586101E+01 -0.72432271703E+01  0.27011057780E+01  0.90067690954E+01  0.51100000000E-03 0. -1.
        -11    1    3    3    0    0 -0.47911017033E+00 -0.18992720687E+02 -0.15629564973E+02  0.24601550502E+02  0.51100000000E-03 0.  1.
         12    1    3    3    0    0  0.22137805043E+01 -0.14448734711E+01 -0.16712758005E+02  0.16920542651E+02  0.00000000000E+00 0. -1.
</event>
<event>
 7    1  0.2702714E-011  0.5052886E+02  0.7816164E-02  0.1300439E+00
        -11   -1    0    0    0    0  0.00000000000E+00  0.00000000000E+00  0.45593999997E+02  0.45594000000E+02  0.51100000000E-03 0.  1.
         11   -1    0    0    0    0 -0.00000000000E+00 -0.00000000000E+00 -0.45593999997E+02  0.45594000000E+02  0.51100000000E-03 0. -1.
    9900012    2    1    2    0    0 -0.50578698797E+01  0.28895007933E+02 -0.28154257307E+02  0.50528859137E+02  0.29999997833E+02 0.  0.
        -12    1    1    2    0    0  0.50578698797E+01 -0.28895007933E+02  0.28154257307E+02  0.40659140863E+02  0.00000000000E+00 0.  1.
         11    1    3    3    0    0  0.82662030474E+01  0.78974264722E+01 -0.60162078401E+01  0.12918754380E+02  0.51100000000E-03 0. -1.
        -11    1    3    3    0    0  0.19026058021E+01  0.25415691241E+01  0.18951245538E+01  0.36974288075E+01  0.51100000000E-03 0.  1.
        -12    1    3    3    0    0 -0.15226678729E+02  0.18456012337E+02 -0.24033174021E+02  0.33912675949E+02  0.00000000000E+00 0.  1.
</event>
<event>
 7    1  0.2702714E-011  0.5052886E+02  0.7816164E-02  0.1300439E+00
        -11   -1    0    0    0    0  0.00000000000E+00  0.00000000000E+00  0.45593999997E+02  0.45594000000E+02  0.51100000000E-03 0.  1.
         11   -1    0    0    0    0 -0.00000000000E+00 -0.00000000000E+00 -0.45593999997E+02  0.45594000000E+02  0.51100000000E-03 0. -1.
    9900012    2    1    2    0    0 -0.45579339412E+01  0.18204265846E+02 -0.36069319759E+02  0.50528857305E+02  0.29999992266E+02 0.  0.
        -12    1    1    2    0    0  0.45579339412E+01 -0.18204265846E+02  0.36069319759E+02  0.40659142695E+02  0.00000000000E+00 0.  1.
         11    1    3    3    0    0 -0.14780183491E+01  0.73684464931E+01  0.17422713950E-01  0.75152408992E+01  0.51100000000E-03 0. -1.
        -11    1    3    3    0    0 -0.46676822867E+01 -0.31728824680E+01 -0.17720883344E+01  0.59156350809E+01  0.51100000000E-03 0.  1.
         12    1    3    3    0    0  0.15877666946E+01  0.14008701820E+02 -0.34314654138E+02  0.37097981325E+02  0.00000000000E+00 0. -1.
</event>
<event>
 7    1  0.2702714E-011  0.5052889E+02  0.7816164E-02  0.1300439E+00
        -11   -1    0    0    0    0  0.00000000000E+00  0.00000000000E+00  0.45593999997E+02  0.45594000000E+02  0.51100000000E-03 0.  1.
         11   -1    0    0    0    0 -0.00000000000E+00 -0.00000000000E+00 -0.45593999997E+02  0.45594000000E+02  0.51100000000E-03 0. -1.
    9900012    2    1    2    0    0 -0.76049289499E+01  0.39918968705E+02  0.13430618293E+01  0.50528894969E+02  0.30000106749E+02 0.  0.
        -12    1    1    2    0    0  0.76049289499E+01 -0.39918968705E+02 -0.13430618293E+01  0.40659105031E+02  0.00000000000E+00 0.  1.
         11    1    3    3    0    0 -0.24558032993E+01  0.16631685443E+02 -0.53158305412E+00  0.16820419475E+02  0.51100000000E-03 0. -1.
        -11    1    3    3    0    0  0.50344697218E+01  0.52989347569E+01  0.92249389904E+01  0.11769625932E+02  0.51100000000E-03 0.  1.
         12    1    3    3    0    0 -0.10183595372E+02  0.17988348505E+02 -0.73502941069E+01  0.21938849562E+02  0.00000000000E+00 0. -1.
</event>
<event>
 7    1  0.2702714E-011  0.5052886E+02  0.7816164E-02  0.1300439E+00
        -11   -1    0    0    0    0  0.00000000000E+00  0.00000000000E+00  0.45593999997E+02  0.45594000000E+02  0.51100000000E-03 0.  1.
         11   -1    0    0    0    0 -0.00000000000E+00 -0.00000000000E+00 -0.45593999997E+02  0.45594000000E+02  0.51100000000E-03 0. -1.
    9900012    2    1    2    0    0 -0.44990822380E+01  0.14278103440E+02 -0.37802904264E+02  0.50528861425E+02  0.30000004788E+02 0.  0.
        -12    1    1    2    0    0  0.44990822380E+01 -0.14278103440E+02  0.37802904264E+02  0.40659138575E+02  0.00000000000E+00 0.  1.
         11    1    3    3    0    0  0.56468055882E+01  0.80936836066E+01 -0.12628274349E+02  0.16027084606E+02  0.51100000000E-03 0. -1.
        -11    1    3    3    0    0  0.10073110187E+01 -0.19714295187E-01  0.32182974115E+01  0.33723141360E+01  0.51100000000E-03 0.  1.
        -12    1    3    3    0    0 -0.11153198845E+02  0.62041341283E+01 -0.28392927326E+02  0.31129462683E+02  0.00000000000E+00 0.  1.
</event>
<event>
 7    1  0.2702714E-011  0.5052882E+02  0.7816164E-02  0.1300439E+00
        -11   -1    0    0    0    0  0.00000000000E+00  0.00000000000E+00  0.45593999997E+02  0.45594000000E+02  0.51100000000E-03 0. -1.
         11   -1    0    0    0    0 -0.00000000000E+00 -0.00000000000E+00 -0.45593999997E+02  0.45594000000E+02  0.51100000000E-03 0.  1.
    9900012    2    1    2    0    0 -0.31574100899E+02  0.34911396600E+01  0.25378271149E+02  0.50528824526E+02  0.29999892629E+02 0.  0.
        -12    1    1    2    0    0  0.31574100899E+02 -0.34911396600E+01 -0.25378271149E+02  0.40659175474E+02  0.00000000000E+00 0.  1.
         11    1    3    3    0    0 -0.15314795957E+02  0.22388960026E+01  0.30650737861E+01  0.15778159211E+02  0.51100000000E-03 0. -1.
        -11    1    3    3    0    0  0.19599267854E+01  0.36654810311E+01 -0.17177775285E+01  0.44975353352E+01  0.51100000000E-03 0.  1.
         12    1    3    3    0    0 -0.18219231728E+02 -0.24132373738E+01  0.24030974891E+02  0.30253129980E+02  0.00000000000E+00 0. -1.
</event>
<event>
 7    1  0.2702714E-011  0.5052883E+02  0.7816164E-02  0.1300439E+00
        -11   -1    0    0    0    0  0.00000000000E+00  0.00000000000E+00  0.45593999997E+02  0.45594000000E+02  0.51100000000E-03 0.  1.
         11   -1    0    0    0    0 -0.00000000000E+00 -0.00000000000E+00 -0.45593999997E+02  0.45594000000E+02  0.51100000000E-03 0. -1.
    9900012    2    1    2    0    0  0.23783759256E+02  0.16009964714E+02  0.28830226682E+02  0.50528829509E+02  0.29999907776E+02 0.  0.
        -12    1    1    2    0    0 -0.23783759256E+02 -0.16009964714E+02 -0.28830226682E+02  0.40659170491E+02  0.00000000000E+00 0.  1.
         11    1    3    3    0    0  0.16715645246E+02  0.30344384100E+01  0.37100239519E+01  0.17389217649E+02  0.51100000000E-03 0. -1.
        -11    1    3    3    0    0  0.10882114578E+02  0.12047276703E+02  0.14317949157E+02  0.21646269009E+02  0.51100000000E-03 0.  1.
         12    1    3    3    0    0 -0.38140005683E+01  0.92824960029E+00  0.10802253573E+02  0.11493342852E+02  0.00000000000E+00 0. -1.
</event>
<event>
 7    1  0.2702714E-011  0.5052886E+02  0.7816164E-02  0.1300439E+00
        -11   -1    0    0    0    0  0.00000000000E+00  0.00000000000E+00  0.45593999997E+02  0.45594000000E+02  0.51100000000E-03 0.  1.
         11   -1    0    0    0    0 -0.00000000000E+00 -0.00000000000E+00 -0.45593999997E+02  0.45594000000E+02  0.51100000000E-03 0. -1.
    9900012    2    1    2    0    0  0.97723279003E+01 -0.38713761539E+02 -0.76754187911E+01  0.50528858608E+02  0.29999996225E+02 0.  0.
        -12    1    1    2    0    0 -0.97723279003E+01  0.38713761539E+02  0.76754187911E+01  0.40659141392E+02  0.00000000000E+00 0.  1.
         11    1    3    3    0    0  0.58641658783E+01 -0.31449327557E+01  0.15100812891E+01  0.68234440898E+01  0.51100000000E-03 0. -1.
        -11    1    3    3    0    0  0.44683496871E+01  0.18005801303E+00  0.35936356501E+01  0.57369667300E+01  0.51100000000E-03 0.  1.
         12    1    3    3    0    0 -0.56018766511E+00 -0.35748886797E+02 -0.12779135730E+02  0.37968447788E+02  0.00000000000E+00 0. -1.
</event>
<event>
 7    1  0.2702714E-011  0.5052886E+02  0.7816164E-02  0.1300439E+00
        -11   -1    0    0    0    0  0.00000000000E+00  0.00000000000E+00  0.45593999997E+02  0.45594000000E+02  0.51100000000E-03 0.  1.
         11   -1    0    0    0    0 -0.00000000000E+00 -0.00000000000E+00 -0.45593999997E+02  0.45594000000E+02  0.51100000000E-03 0. -1.
    9900012    2    1    2    0    0  0.13397442989E+02  0.35629217852E+02 -0.14291013497E+02  0.50528859451E+02  0.29999998789E+02 0.  0.
        -12    1    1    2    0    0 -0.13397442989E+02 -0.35629217852E+02  0.14291013497E+02  0.40659140549E+02  0.00000000000E+00 0.  1.
         11    1    3    3    0    0  0.89480444305E+01  0.19090876719E+02  0.38589561815E+01  0.21434099377E+02  0.51100000000E-03 0. -1.
        -11    1    3    3    0    0  0.57640322955E+01  0.16125556657E+02 -0.80876341915E+01  0.18938518234E+02  0.51100000000E-03 0.  1.
        -12    1    3    3    0    0 -0.13146337366E+01  0.41278447587E+00 -0.10062335487E+02  0.10156241841E+02  0.00000000000E+00 0.  1.
</event>
<event>
 7    1  0.2702714E-011  0.5052884E+02  0.7816164E-02  0.1300439E+00
        -11   -1    0    0    0    0  0.00000000000E+00  0.00000000000E+00  0.45593999997E+02  0.45594000000E+02  0.51100000000E-03 0.  1.
         11   -1    0    0    0    0 -0.00000000000E+00 -0.00000000000E+00 -0.45593999997E+02  0.45594000000E+02  0.51100000000E-03 0. -1.
    9900012    2    1    2    0    0  0.14168815008E+01 -0.16523804720E+02 -0.37123085630E+02  0.50528841594E+02  0.29999944509E+02 0.  0.
        -12    1    1    2    0    0 -0.14168815008E+01  0.16523804720E+02  0.37123085630E+02  0.40659158406E+02  0.00000000000E+00 0.  1.
         11    1    3    3    0    0  0.25368609742E+01  0.33983339146E+01  0.16218070651E+01  0.45403298796E+01  0.51100000000E-03 0. -1.
        -11    1    3    3    0    0 -0.31020405092E+01 -0.25698838651E+01 -0.64933523876E+00  0.40802689757E+01  0.51100000000E-03 0.  1.
         12    1    3    3    0    0  0.19820610358E+01 -0.17352254770E+02 -0.38095557456E+02  0.41908242739E+02  0.00000000000E+00 0. -1.
</event>
<event>
 7    1  0.2702714E-011  0.5052884E+02  0.7816164E-02  0.1300439E+00
        -11   -1    0    0    0    0  0.00000000000E+00  0.00000000000E+00  0.45593999997E+02  0.45594000000E+02  0.51100000000E-03 0. -1.
         11   -1    0    0    0    0 -0.00000000000E+00 -0.00000000000E+00 -0.45593999997E+02  0.45594000000E+02  0.51100000000E-03 0.  1.
    9900012    2    1    2    0    0 -0.19789217978E+02 -0.33709397906E+02  0.11190655607E+02  0.50528838323E+02  0.29999934567E+02 0.  0.
        -12    1    1    2    0    0  0.19789217978E+02  0.33709397906E+02 -0.11190655607E+02  0.40659161677E+02  0.00000000000E+00 0.  1.
         11    1    3    3    0    0 -0.18562627831E+01  0.34745711026E+01  0.18488120114E+01  0.43516045296E+01  0.51100000000E-03 0. -1.
        -11    1    3    3    0    0  0.31115171075E+01 -0.70280388389E+01 -0.15174547886E+01  0.78343817834E+01  0.51100000000E-03 0.  1.
         12    1    3    3    0    0 -0.21044472303E+02 -0.30155930169E+02  0.10859298384E+02  0.38342852010E+02  0.00000000000E+00 0. -1.
</event>
<event>
 7    1  0.2702714E-011  0.5052886E+02  0.7816164E-02  0.1300439E+00
        -11   -1    0    0    0    0  0.00000000000E+00  0.00000000000E+00  0.45593999997E+02  0.45594000000E+02  0.51100000000E-03 0. -1.
         11   -1    0    0    0    0 -0.00000000000E+00 -0.00000000000E+00 -0.45593999997E+02  0.45594000000E+02  0.51100000000E-03 0.  1.
    9900012    2    1    2    0    0 -0.12234113082E+02 -0.38527558050E+02  0.43725365521E+01  0.50528864150E+02  0.30000013070E+02 0.  0.
        -12    1    1    2    0    0  0.12234113082E+02  0.38527558050E+02 -0.43725365521E+01  0.40659135850E+02  0.00000000000E+00 0.  1.
         11    1    3    3    0    0 -0.42211937155E+01 -0.10587735284E+02 -0.72994841381E+01  0.13535179488E+02  0.51100000000E-03 0. -1.
        -11    1    3    3    0    0 -0.37141042608E+01  0.21682031784E+01 -0.29466806042E+00  0.43107429766E+01  0.51100000000E-03 0.  1.
         12    1    3    3    0    0 -0.42988151059E+01 -0.30108025944E+02  0.11966688751E+02  0.32682941685E+02  0.00000000000E+00 0. -1.
</event>
<event>
 7    1  0.2702714E-011  0.5052883E+02  0.7816164E-02  0.1300439E+00
        -11   -1    0    0    0    0  0.00000000000E+00  0.00000000000E+00  0.45593999997E+02  0.45594000000E+02  0.51100000000E-03 0. -1.
         11   -1    0    0    0    0 -0.00000000000E+00 -0.00000000000E+00 -0.45593999997E+02  0.45594000000E+02  0.51100000000E-03 0.  1.
    9900012    2    1    2    0    0 -0.38702642843E+02  0.11334222599E+02  0.51777092246E+01  0.50528833287E+02  0.29999919259E+02 0.  0.
        -12    1    1    2    0    0  0.38702642843E+02 -0.11334222599E+02 -0.51777092246E+01  0.40659166713E+02  0.00000000000E+00 0.  1.
         11    1    3    3    0    0 -0.29307941218E+01  0.44885765399E+01  0.84896603223E+01  0.10040478384E+02  0.51100000000E-03 0. -1.
        -11    1    3    3    0    0 -0.28344623927E+02  0.98927864583E+01  0.31452608457E+01  0.30185718403E+02  0.51100000000E-03 0.  1.
        -12    1    3    3    0    0 -0.74272247950E+01 -0.30471403990E+01 -0.64572119433E+01  0.10302636500E+02  0.00000000000E+00 0.  1.
</event>
<event>
 7    1  0.2702714E-011  0.5052886E+02  0.7816164E-02  0.1300439E+00
        -11   -1    0    0    0    0  0.00000000000E+00  0.00000000000E+00  0.45593999997E+02  0.45594000000E+02  0.51100000000E-03 0. -1.
         11   -1    0    0    0    0 -0.00000000000E+00 -0.00000000000E+00 -0.45593999997E+02  0.45594000000E+02  0.51100000000E-03 0.  1.
    9900012    2    1    2    0    0 -0.61093694725E+01 -0.15189502995E+02  0.37217202550E+02  0.50528861270E+02  0.30000004317E+02 0.  0.
        -12    1    1    2    0    0  0.61093694725E+01  0.15189502995E+02 -0.37217202550E+02  0.40659138730E+02  0.00000000000E+00 0.  1.
         11    1    3    3    0    0 -0.22206624403E+01 -0.47948317611E+01  0.19354063491E+00  0.52876470692E+01  0.51100000000E-03 0. -1.
        -11    1    3    3    0    0  0.72718907863E+01 -0.11742362396E+02  0.14255478575E+02  0.19848983347E+02  0.51100000000E-03 0.  1.
         12    1    3    3    0    0 -0.11160597818E+02  0.13476911616E+01  0.22768183340E+02  0.25392230854E+02  0.00000000000E+00 0. -1.
</event>
<event>
 7    1  0.2702714E-011  0.5052886E+02  0.7816164E-02  0.1300439E+00
        -11   -1    0    0    0    0  0.00000000000E+00  0.00000000000E+00  0.45593999997E+02  0.45594000000E+02  0.51100000000E-03 0. -1.
         11   -1    0    0    0    0 -0.00000000000E+00 -0.00000000000E+00 -0.45593999997E+02  0.45594000000E+02  0.51100000000E-03 0.  1.
    9900012    2    1    2    0    0 -0.29608610055E+02 -0.55956163378E+01  0.27298072322E+02  0.50528862478E+02  0.30000007987E+02 0.  0.
        -12    1    1    2    0    0  0.29608610055E+02  0.55956163378E+01 -0.27298072322E+02  0.40659137522E+02  0.00000000000E+00 0.  1.
         11    1    3    3    0    0 -0.42148742843E+01  0.77773306058E+01  0.27111912206E+01  0.92521670262E+01  0.51100000000E-03 0.  1.
        -11    1    3    3    0    0 -0.21638767628E+02 -0.56988666916E+01  0.10307256320E+02  0.24636413682E+02  0.51100000000E-03 0. -1.
        -12    1    3    3    0    0 -0.37549681433E+01 -0.76740802520E+01  0.14279624781E+02  0.16640281769E+02  0.00000000000E+00 0.  1.
</event>
<event>
 7    1  0.2702714E-011  0.5052885E+02  0.7816164E-02  0.1300439E+00
        -11   -1    0    0    0    0  0.00000000000E+00  0.00000000000E+00  0.45593999997E+02  0.45594000000E+02  0.51100000000E-03 0. -1.
         11   -1    0    0    0    0 -0.00000000000E+00 -0.00000000000E+00 -0.45593999997E+02  0.45594000000E+02  0.51100000000E-03 0.  1.
    9900012    2    1    2    0    0  0.24308141094E+02 -0.30758393810E+02  0.10779706389E+02  0.50528848717E+02  0.29999966160E+02 0.  0.
        -12    1    1    2    0    0 -0.24308141094E+02  0.30758393810E+02 -0.10779706389E+02  0.40659151283E+02  0.00000000000E+00 0.  1.
         11    1    3    3    0    0  0.21576325456E+02 -0.83710543064E+01 -0.24927235346E+01  0.23277157071E+02  0.51100000000E-03 0.  1.
        -11    1    3    3    0    0  0.51959878484E+01 -0.18091524728E+02  0.99827943393E+01  0.21306284045E+02  0.51100000000E-03 0. -1.
        -12    1    3    3    0    0 -0.24641722108E+01 -0.42958147754E+01  0.32896355846E+01  0.59454076016E+01  0.00000000000E+00 0.  1.
</event>
<event>
 7    1  0.2702714E-011  0.5052886E+02  0.7816164E-02  0.1300439E+00
        -11   -1    0    0    0    0  0.00000000000E+00  0.00000000000E+00  0.45593999997E+02  0.45594000000E+02  0.51100000000E-03 0.  1.
         11   -1    0    0    0    0 -0.00000000000E+00 -0.00000000000E+00 -0.45593999997E+02  0.45594000000E+02  0.51100000000E-03 0. -1.
    9900012    2    1    2    0    0  0.22652708698E+02  0.17694911973E+02 -0.28756054137E+02  0.50528858708E+02  0.29999996529E+02 0.  0.
        -12    1    1    2    0    0 -0.22652708698E+02 -0.17694911973E+02  0.28756054137E+02  0.40659141292E+02  0.00000000000E+00 0.  1.
         11    1    3    3    0    0  0.51930018926E+01 -0.11266812429E+01  0.17042556618E+01  0.55804271254E+01  0.51100000000E-03 0. -1.
        -11    1    3    3    0    0  0.20087229277E+01  0.73136173071E+01  0.14033980149E+01  0.77132024584E+01  0.51100000000E-03 0.  1.
         12    1    3    3    0    0  0.15450983877E+02  0.11507975909E+02 -0.31863707814E+02  0.37235229124E+02  0.00000000000E+00 0. -1.
</event>
<event>
 7    1  0.2702714E-011  0.5052887E+02  0.7816164E-02  0.1300439E+00
        -11   -1    0    0    0    0  0.00000000000E+00  0.00000000000E+00  0.45593999997E+02  0.45594000000E+02  0.51100000000E-03 0.  1.
         11   -1    0    0    0    0 -0.00000000000E+00 -0.00000000000E+00 -0.45593999997E+02  0.45594000000E+02  0.51100000000E-03 0. -1.
    9900012    2    1    2    0    0  0.39931015864E+02  0.14498463898E+01  0.75217619591E+01  0.50528868364E+02  0.30000025878E+02 0.  0.
        -12    1    1    2    0    0 -0.39931015864E+02 -0.14498463898E+01 -0.75217619591E+01  0.40659131636E+02  0.00000000000E+00 0.  1.
         11    1    3    3    0    0  0.11900014632E+02 -0.15302460170E+01  0.18134863718E+01  0.12134279303E+02  0.51100000000E-03 0. -1.
        -11    1    3    3    0    0  0.21221918684E+02  0.13078003321E+02  0.76193518497E+01  0.26066425270E+02  0.51100000000E-03 0.  1.
        -12    1    3    3    0    0  0.68090825476E+01 -0.10097910914E+02 -0.19110762623E+01  0.12328163791E+02  0.00000000000E+00 0.  1.
</event>
<event>
 7    1  0.3068303E-011  0.5052885E+02  0.7816164E-02  0.1300439E+00
        -11   -1    0    0    0    0  0.00000000000E+00  0.00000000000E+00  0.45593999997E+02  0.45594000000E+02  0.51100000000E-03 0.  1.
         11   -1    0    0    0    0 -0.00000000000E+00 -0.00000000000E+00 -0.45593999997E+02  0.45594000000E+02  0.51100000000E-03 0. -1.
    9900012    2    1    2    0    0 -0.22325689018E+02  0.20772687891E+02  0.26892845750E+02  0.50528854597E+02  0.29999984032E+02 0.  0.
        -12    1    1    2    0    0  0.22325689018E+02 -0.20772687891E+02 -0.26892845750E+02  0.40659145403E+02  0.00000000000E+00 0.  1.
         11    1    3    3    0    0 -0.71750711858E+01  0.18683547466E+02  0.13190086942E+02  0.23969459448E+02  0.51100000000E-03 0. -1.
        -11    1    3    3    0    0 -0.79009954263E+01  0.64146294363E+01 -0.33066721303E+00  0.10182462403E+02  0.51100000000E-03 0.  1.
        -12    1    3    3    0    0 -0.72496224063E+01 -0.43254890114E+01  0.14033426022E+02  0.16376932745E+02  0.00000000000E+00 0.  1.
</event>
<event>
 7    1  0.3655641E-011  0.5052890E+02  0.7816164E-02  0.1300439E+00
        -11   -1    0    0    0    0  0.00000000000E+00  0.00000000000E+00  0.45593999997E+02  0.45594000000E+02  0.51100000000E-03 0.  1.
         11   -1    0    0    0    0 -0.00000000000E+00 -0.00000000000E+00 -0.45593999997E+02  0.45594000000E+02  0.51100000000E-03 0. -1.
    9900012    2    1    2    0    0 -0.21047574689E+02 -0.27913759622E+02  0.20760160331E+02  0.50528897287E+02  0.30000113792E+02 0.  0.
        -12    1    1    2    0    0  0.21047574689E+02  0.27913759622E+02 -0.20760160331E+02  0.40659102713E+02  0.00000000000E+00 0.  1.
         11    1    3    3    0    0 -0.12622741654E+02 -0.16922107910E+02 -0.63126644658E+00  0.21120839012E+02  0.51100000000E-03 0. -1.
        -11    1    3    3    0    0 -0.11443036929E+02 -0.44741443714E+01  0.95623755461E+01  0.15569203202E+02  0.51100000000E-03 0.  1.
        -12    1    3    3    0    0  0.30182038942E+01 -0.65175073408E+01  0.11829051231E+02  0.13838855073E+02  0.00000000000E+00 0.  1.
</event>
<event>
 7    1  0.2702714E-011  0.5052887E+02  0.7816164E-02  0.1300439E+00
        -11   -1    0    0    0    0  0.00000000000E+00  0.00000000000E+00  0.45593999997E+02  0.45594000000E+02  0.51100000000E-03 0. -1.
         11   -1    0    0    0    0 -0.00000000000E+00 -0.00000000000E+00 -0.45593999997E+02  0.45594000000E+02  0.51100000000E-03 0.  1.
    9900012    2    1    2    0    0  0.32521861668E+02 -0.20232904144E+02  0.13642691301E+02  0.50528869139E+02  0.30000028234E+02 0.  0.
        -12    1    1    2    0    0 -0.32521861668E+02  0.20232904144E+02 -0.13642691301E+02  0.40659130861E+02  0.00000000000E+00 0.  1.
         11    1    3    3    0    0  0.32221699303E+02 -0.48285761712E+01  0.11940091685E+02  0.34700415610E+02  0.51100000000E-03 0. -1.
        -11    1    3    3    0    0 -0.95332700493E+00 -0.36952178215E+01 -0.49807141529E+00  0.38485766879E+01  0.51100000000E-03 0.  1.
        -12    1    3    3    0    0  0.12534893700E+01 -0.11709110151E+02  0.22006710312E+01  0.11979876841E+02  0.00000000000E+00 0.  1.
</event>
<event>
 7    1  0.2702714E-011  0.5052885E+02  0.7816164E-02  0.1300439E+00
        -11   -1    0    0    0    0  0.00000000000E+00  0.00000000000E+00  0.45593999997E+02  0.45594000000E+02  0.51100000000E-03 0.  1.
         11   -1    0    0    0    0 -0.00000000000E+00 -0.00000000000E+00 -0.45593999997E+02  0.45594000000E+02  0.51100000000E-03 0. -1.
    9900012    2    1    2    0    0 -0.28133615187E+02 -0.29020558383E+02 -0.44128179062E+01  0.50528854974E+02  0.29999985179E+02 0.  0.
        -12    1    1    2    0    0  0.28133615187E+02  0.29020558383E+02  0.44128179062E+01  0.40659145026E+02  0.00000000000E+00 0.  1.
         11    1    3    3    0    0 -0.13138811614E+02 -0.92909567440E+01  0.26470823559E+01  0.16308197114E+02  0.51100000000E-03 0. -1.
        -11    1    3    3    0    0 -0.15270316301E+02 -0.42194085032E+01 -0.95664239180E+01  0.18506821307E+02  0.51100000000E-03 0.  1.
        -12    1    3    3    0    0  0.27551272794E+00 -0.15510193136E+02  0.25065236558E+01  0.15713836553E+02  0.00000000000E+00 0.  1.
</event>
<event>
 7    1  0.2702714E-011  0.5052886E+02  0.7816164E-02  0.1300439E+00
        -11   -1    0    0    0    0  0.00000000000E+00  0.00000000000E+00  0.45593999997E+02  0.45594000000E+02  0.51100000000E-03 0. -1.
         11   -1    0    0    0    0 -0.00000000000E+00 -0.00000000000E+00 -0.45593999997E+02  0.45594000000E+02  0.51100000000E-03 0.  1.
    9900012    2    1    2    0    0 -0.47207756820E+01  0.40272598945E+02 -0.29996503250E+01  0.50528857720E+02  0.29999993526E+02 0.  0.
        -12    1    1    2    0    0  0.47207756820E+01 -0.40272598945E+02  0.29996503250E+01  0.40659142280E+02  0.00000000000E+00 0.  1.
         11    1    3    3    0    0  0.27984912336E+01  0.24420520712E+01  0.14709853663E+01  0.39948679217E+01  0.51100000000E-03 0. -1.
        -11    1    3    3    0    0  0.60951571259E+01  0.15134061392E+00 -0.19085023990E+01  0.63887577853E+01  0.51100000000E-03 0.  1.
         12    1    3    3    0    0 -0.13614424042E+02  0.37679206260E+02 -0.25621332923E+01  0.40145232013E+02  0.00000000000E+00 0. -1.
</event>
<event>
 7    1  0.2702714E-011  0.5052887E+02  0.7816164E-02  0.1300439E+00
        -11   -1    0    0    0    0  0.00000000000E+00  0.00000000000E+00  0.45593999997E+02  0.45594000000E+02  0.51100000000E-03 0.  1.
         11   -1    0    0    0    0 -0.00000000000E+00 -0.00000000000E+00 -0.45593999997E+02  0.45594000000E+02  0.51100000000E-03 0. -1.
    9900012    2    1    2    0    0  0.10000162523E+02 -0.30473907185E+02 -0.24990045347E+02  0.50528872660E+02  0.30000038937E+02 0.  0.
        -12    1    1    2    0    0 -0.10000162523E+02  0.30473907185E+02  0.24990045347E+02  0.40659127340E+02  0.00000000000E+00 0.  1.
         11    1    3    3    0    0 -0.17496567001E+01  0.62312898930E+00 -0.31016763555E+01  0.36152433917E+01  0.51100000000E-03 0. -1.
        -11    1    3    3    0    0 -0.29924602488E+01 -0.44713448953E+01 -0.14683068277E+02  0.15637782381E+02  0.51100000000E-03 0.  1.
         12    1    3    3    0    0  0.14742279472E+02 -0.26625691279E+02 -0.72053007142E+01  0.31275846887E+02  0.00000000000E+00 0. -1.
</event>
<event>
 7    1  0.2702714E-011  0.5052886E+02  0.7816164E-02  0.1300439E+00
        -11   -1    0    0    0    0  0.00000000000E+00  0.00000000000E+00  0.45593999997E+02  0.45594000000E+02  0.51100000000E-03 0.  1.
         11   -1    0    0    0    0 -0.00000000000E+00 -0.00000000000E+00 -0.45593999997E+02  0.45594000000E+02  0.51100000000E-03 0. -1.
    9900012    2    1    2    0    0 -0.15043344333E+02 -0.32265958412E+02 -0.19641066971E+02  0.50528858436E+02  0.29999995701E+02 0.  0.
        -12    1    1    2    0    0  0.15043344333E+02  0.32265958412E+02  0.19641066971E+02  0.40659141564E+02  0.00000000000E+00 0.  1.
         11    1    3    3    0    0 -0.99309640963E+00  0.11835776010E+01  0.41262483428E+00  0.15991735151E+01  0.51100000000E-03 0.  1.
        -11    1    3    3    0    0 -0.32223965491E+01 -0.33212933112E+02 -0.17972490276E+02  0.37901097245E+02  0.51100000000E-03 0. -1.
         12    1    3    3    0    0 -0.10827851374E+02 -0.23660290125E+00 -0.20812015301E+01  0.11028587676E+02  0.00000000000E+00 0. -1.
</event>
<event>
 7    1  0.2702714E-011  0.5052886E+02  0.7816164E-02  0.1300439E+00
        -11   -1    0    0    0    0  0.00000000000E+00  0.00000000000E+00  0.45593999997E+02  0.45594000000E+02  0.51100000000E-03 0. -1.
         11   -1    0    0    0    0 -0.00000000000E+00 -0.00000000000E+00 -0.45593999997E+02  0.45594000000E+02  0.51100000000E-03 0.  1.
    9900012    2    1    2    0    0  0.25721331306E+02 -0.29999197655E+02  0.95721786833E+01  0.50528863894E+02  0.30000012293E+02 0.  0.
        -12    1    1    2    0    0 -0.25721331306E+02  0.29999197655E+02 -0.95721786833E+01  0.40659136106E+02  0.00000000000E+00 0.  1.
         11    1    3    3    0    0  0.77197725580E+01 -0.21608459767E+01  0.20249422294E+01  0.82682848872E+01  0.51100000000E-03 0. -1.
        -11    1    3    3    0    0  0.48597320461E+01 -0.67259244326E+01 -0.91148358763E+01  0.12326203322E+02  0.51100000000E-03 0.  1.
        -12    1    3    3    0    0  0.13141826702E+02 -0.21112427246E+02  0.16662072330E+02  0.29934375684E+02  0.00000000000E+00 0.  1.
</event>
<event>
 7    1  0.2726966E-011  0.5052886E+02  0.7816164E-02  0.1300439E+00
        -11   -1    0    0    0    0  0.00000000000E+00  0.00000000000E+00  0.45593999997E+02  0.45594000000E+02  0.51100000000E-03 0.  1.
         11   -1    0    0    0    0 -0.00000000000E+00 -0.00000000000E+00 -0.45593999997E+02  0.45594000000E+02  0.51100000000E-03 0. -1.
    9900012    2    1    2    0    0 -0.35070171903E+02 -0.80052505265E+01 -0.18951635951E+02  0.50528862054E+02  0.30000006699E+02 0.  0.
        -12    1    1    2    0    0  0.35070171903E+02  0.80052505265E+01  0.18951635951E+02  0.40659137946E+02  0.00000000000E+00 0.  1.
         11    1    3    3    0    0 -0.30217973918E+02 -0.38819407718E+01 -0.10100125341E+02  0.32096852557E+02  0.51100000000E-03 0. -1.
        -11    1    3    3    0    0 -0.73587790998E+01 -0.82204640314E+01 -0.78093577093E+01  0.13517164156E+02  0.51100000000E-03 0.  1.
        -12    1    3    3    0    0  0.25065811153E+01  0.40971542767E+01 -0.10421529015E+01  0.49148453409E+01  0.00000000000E+00 0.  1.
</event>
<event>
 7    1  0.2702714E-011  0.5052886E+02  0.7816164E-02  0.1300439E+00
        -11   -1    0    0    0    0  0.00000000000E+00  0.00000000000E+00  0.45593999997E+02  0.45594000000E+02  0.51100000000E-03 0.  1.
         11   -1    0    0    0    0 -0.00000000000E+00 -0.00000000000E+00 -0.45593999997E+02  0.45594000000E+02  0.51100000000E-03 0. -1.
    9900012    2    1    2    0    0  0.18609167939E+02  0.19932300437E+02 -0.30159050019E+02  0.50528855517E+02  0.29999986829E+02 0.  0.
        -12    1    1    2    0    0 -0.18609167939E+02 -0.19932300437E+02  0.30159050019E+02  0.40659144483E+02  0.00000000000E+00 0.  1.
         11    1    3    3    0    0  0.35784799689E+01 -0.59287337061E+01 -0.35563379014E+01  0.77847891286E+01  0.51100000000E-03 0. -1.
        -11    1    3    3    0    0  0.68031318122E+01  0.39004580094E+01 -0.80946982331E+00  0.78836169867E+01  0.51100000000E-03 0.  1.
         12    1    3    3    0    0  0.82275561576E+01  0.21960576134E+02 -0.25793242294E+02  0.34860449402E+02  0.00000000000E+00 0. -1.
</event>
<event>
 7    1  0.2702714E-011  0.5052887E+02  0.7816164E-02  0.1300439E+00
        -11   -1    0    0    0    0  0.00000000000E+00  0.00000000000E+00  0.45593999997E+02  0.45594000000E+02  0.51100000000E-03 0.  1.
         11   -1    0    0    0    0 -0.00000000000E+00 -0.00000000000E+00 -0.45593999997E+02  0.45594000000E+02  0.51100000000E-03 0. -1.
    9900012    2    1    2    0    0 -0.26796098721E+02 -0.28381558757E+02 -0.11385138173E+02  0.50528866273E+02  0.30000019524E+02 0.  0.
        -12    1    1    2    0    0  0.26796098721E+02  0.28381558757E+02  0.11385138173E+02  0.40659133727E+02  0.00000000000E+00 0.  1.
         11    1    3    3    0    0  0.39636997376E+01 -0.32676273174E+01 -0.30630727197E+01  0.59808627005E+01  0.51100000000E-03 0. -1.
        -11    1    3    3    0    0 -0.13380301717E+02 -0.18181646667E+02 -0.11867871985E+02  0.25503943524E+02  0.51100000000E-03 0.  1.
        -12    1    3    3    0    0 -0.17379496742E+02 -0.69322847730E+01  0.35458065322E+01  0.19044060048E+02  0.00000000000E+00 0.  1.
</event>
<event>
 7    1  0.2702714E-011  0.5052885E+02  0.7816164E-02  0.1300439E+00
        -11   -1    0    0    0    0  0.00000000000E+00  0.00000000000E+00  0.45593999997E+02  0.45594000000E+02  0.51100000000E-03 0.  1.
         11   -1    0    0    0    0 -0.00000000000E+00 -0.00000000000E+00 -0.45593999997E+02  0.45594000000E+02  0.51100000000E-03 0. -1.
    9900012    2    1    2    0    0 -0.12368710766E+02  0.89054404504E+01 -0.37694488128E+02  0.50528852064E+02  0.29999976335E+02 0.  0.
        -12    1    1    2    0    0  0.12368710766E+02 -0.89054404504E+01  0.37694488128E+02  0.40659147936E+02  0.00000000000E+00 0.  1.
         11    1    3    3    0    0  0.29106011433E+01  0.43190542758E+01 -0.26066867761E+02  0.26582088405E+02  0.51100000000E-03 0. -1.
        -11    1    3    3    0    0 -0.41383960985E-01  0.21922513095E+01  0.22904936129E+01  0.31708105727E+01  0.51100000000E-03 0.  1.
        -12    1    3    3    0    0 -0.15237927948E+02  0.23941348651E+01 -0.13918113980E+02  0.20775953087E+02  0.00000000000E+00 0.  1.
</event>
<event>
 7    1  0.2702714E-011  0.5052886E+02  0.7816164E-02  0.1300439E+00
        -11   -1    0    0    0    0  0.00000000000E+00  0.00000000000E+00  0.45593999997E+02  0.45594000000E+02  0.51100000000E-03 0.  1.
         11   -1    0    0    0    0 -0.00000000000E+00 -0.00000000000E+00 -0.45593999997E+02  0.45594000000E+02  0.51100000000E-03 0. -1.
    9900012    2    1    2    0    0  0.37210336308E+02 -0.10264629492E+02 -0.12774741074E+02  0.50528858884E+02  0.29999997065E+02 0.  0.
        -12    1    1    2    0    0 -0.37210336308E+02  0.10264629492E+02  0.12774741074E+02  0.40659141116E+02  0.00000000000E+00 0.  1.
         11    1    3    3    0    0  0.26997874047E+02 -0.18236644882E+01 -0.12646017704E+02  0.29868590849E+02  0.51100000000E-03 0. -1.
        -11    1    3    3    0    0  0.60660243855E+01  0.17723587061E+01 -0.55186994530E+01  0.83901103177E+01  0.51100000000E-03 0.  1.
        -12    1    3    3    0    0  0.41464378750E+01 -0.10213323710E+02  0.53899760834E+01  0.12270157718E+02  0.00000000000E+00 0.  1.
</event>
<event>
 7    1  0.2702714E-011  0.5052886E+02  0.7816164E-02  0.1300439E+00
        -11   -1    0    0    0    0  0.00000000000E+00  0.00000000000E+00  0.45593999997E+02  0.45594000000E+02  0.51100000000E-03 0. -1.
         11   -1    0    0    0    0 -0.00000000000E+00 -0.00000000000E+00 -0.45593999997E+02  0.45594000000E+02  0.51100000000E-03 0.  1.
    9900012    2    1    2    0    0 -0.16365097758E+02 -0.33518061976E+02  0.16182971242E+02  0.50528862510E+02  0.30000008084E+02 0.  0.
        -12    1    1    2    0    0  0.16365097758E+02  0.33518061976E+02 -0.16182971242E+02  0.40659137490E+02  0.00000000000E+00 0.  1.
         11    1    3    3    0    0 -0.10360681726E+02 -0.26202691197E+02  0.52002859846E+01  0.28652534380E+02  0.51100000000E-03 0. -1.
        -11    1    3    3    0    0 -0.67749846559E+01 -0.39580266628E+01 -0.22821187105E+01  0.81715640009E+01  0.51100000000E-03 0.  1.
         12    1    3    3    0    0  0.77056862374E+00 -0.33573441158E+01  0.13264803968E+02  0.13704764129E+02  0.00000000000E+00 0. -1.
</event>
<event>
 7    1  0.2702714E-011  0.5052887E+02  0.7816164E-02  0.1300439E+00
        -11   -1    0    0    0    0  0.00000000000E+00  0.00000000000E+00  0.45593999997E+02  0.45594000000E+02  0.51100000000E-03 0. -1.
         11   -1    0    0    0    0 -0.00000000000E+00 -0.00000000000E+00 -0.45593999997E+02  0.45594000000E+02  0.51100000000E-03 0.  1.
    9900012    2    1    2    0    0 -0.21586708358E+02  0.19986421604E+02  0.28066380061E+02  0.50528871677E+02  0.30000035949E+02 0.  0.
        -12    1    1    2    0    0  0.21586708358E+02 -0.19986421604E+02 -0.28066380061E+02  0.40659128323E+02  0.00000000000E+00 0.  1.
         11    1    3    3    0    0  0.50775006038E+01  0.27252918310E+01  0.38616273740E+01  0.69368864905E+01  0.51100000000E-03 0. -1.
        -11    1    3    3    0    0  0.18692555433E+01  0.10665338270E+01  0.53139820668E+01  0.57332378599E+01  0.51100000000E-03 0.  1.
         12    1    3    3    0    0 -0.28533464505E+02  0.16194595946E+02  0.18890770620E+02  0.37858747327E+02  0.00000000000E+00 0. -1.
</event>
<event>
 7    1  0.2702714E-011  0.5052887E+02  0.7816164E-02  0.1300439E+00
        -11   -1    0    0    0    0  0.00000000000E+00  0.00000000000E+00  0.45593999997E+02  0.45594000000E+02  0.51100000000E-03 0.  1.
         11   -1    0    0    0    0 -0.00000000000E+00 -0.00000000000E+00 -0.45593999997E+02  0.45594000000E+02  0.51100000000E-03 0. -1.
    9900012    2    1    2    0    0 -0.22362194601E+02 -0.15828753747E+02 -0.30042431498E+02  0.50528869625E+02  0.30000029712E+02 0.  0.
        -12    1    1    2    0    0  0.22362194601E+02  0.15828753747E+02  0.30042431498E+02  0.40659130375E+02  0.00000000000E+00 0.  1.
         11    1    3    3    0    0 -0.14555926138E+02 -0.19941619179E+02 -0.16906587667E+02  0.29922831885E+02  0.51100000000E-03 0. -1.
        -11    1    3    3    0    0 -0.87162977308E+01 -0.18941114392E+01 -0.11009088521E+02  0.14169034357E+02  0.51100000000E-03 0.  1.
        -12    1    3    3    0    0  0.91002926746E+00  0.60069768715E+01 -0.21267553093E+01  0.64370033826E+01  0.00000000000E+00 0.  1.
</event>
<event>
 7    1  0.2702714E-011  0.5052887E+02  0.7816164E-02  0.1300439E+00
        -11   -1    0    0    0    0  0.00000000000E+00  0.00000000000E+00  0.45593999997E+02  0.45594000000E+02  0.51100000000E-03 0.  1.
         11   -1    0    0    0    0 -0.00000000000E+00 -0.00000000000E+00 -0.45593999997E+02  0.45594000000E+02  0.51100000000E-03 0. -1.
    9900012    2    1    2    0    0 -0.96502852849E+01 -0.22396258328E+00 -0.39496670650E+02  0.50528866244E+02  0.30000019437E+02 0.  0.
        -12    1    1    2    0    0  0.96502852849E+01  0.22396258328E+00  0.39496670650E+02  0.40659133756E+02  0.00000000000E+00 0.  1.
         11    1    3    3    0    0 -0.19745345164E+01  0.96488696630E+01 -0.27993369624E+02  0.29675380629E+02  0.51100000000E-03 0. -1.
        -11    1    3    3    0    0  0.22941876888E+00  0.21778399455E+01  0.31866897535E+00  0.22129550326E+01  0.51100000000E-03 0.  1.
        -12    1    3    3    0    0 -0.79051695373E+01 -0.12050672192E+02 -0.11821970002E+02  0.18640530583E+02  0.00000000000E+00 0.  1.
</event>
<event>
 7    1  0.2702714E-011  0.5052887E+02  0.7816164E-02  0.1300439E+00
        -11   -1    0    0    0    0  0.00000000000E+00  0.00000000000E+00  0.45593999997E+02  0.45594000000E+02  0.51100000000E-03 0. -1.
         11   -1    0    0    0    0 -0.00000000000E+00 -0.00000000000E+00 -0.45593999997E+02  0.45594000000E+02  0.51100000000E-03 0.  1.
    9900012    2    1    2    0    0  0.28441547144E+02  0.17993746120E+02  0.22813773657E+02  0.50528870990E+02  0.30000033862E+02 0.  0.
        -12    1    1    2    0    0 -0.28441547144E+02 -0.17993746120E+02 -0.22813773657E+02  0.40659129010E+02  0.00000000000E+00 0.  1.
         11    1    3    3    0    0 -0.36191984671E+01 -0.13824366235E+01  0.79240178087E+01  0.88204187574E+01  0.51100000000E-03 0. -1.
        -11    1    3    3    0    0  0.20060949290E+02  0.60390299738E+01  0.67817984513E+01  0.22020544042E+02  0.51100000000E-03 0.  1.
        -12    1    3    3    0    0  0.11999796321E+02  0.13337152770E+02  0.81079573971E+01  0.19687908190E+02  0.00000000000E+00 0.  1.
</event>
<event>
 7    1  0.2702714E-011  0.5052887E+02  0.7816164E-02  0.1300439E+00
        -11   -1    0    0    0    0  0.00000000000E+00  0.00000000000E+00  0.45593999997E+02  0.45594000000E+02  0.51100000000E-03 0.  1.
         11   -1    0    0    0    0 -0.00000000000E+00 -0.00000000000E+00 -0.45593999997E+02  0.45594000000E+02  0.51100000000E-03 0. -1.
    9900012    2    1    2    0    0 -0.31744464267E+02 -0.19643972235E+02 -0.16111109468E+02  0.50528874271E+02  0.30000043834E+02 0.  0.
        -12    1    1    2    0    0  0.31744464267E+02  0.19643972235E+02  0.16111109468E+02  0.40659125729E+02  0.00000000000E+00 0.  1.
         11    1    3    3    0    0 -0.18437692079E+02 -0.10255914961E+02 -0.13356078120E+02  0.24970324465E+02  0.51100000000E-03 0. -1.
        -11    1    3    3    0    0 -0.14768094232E+02 -0.47330755470E+01 -0.87680760222E+01  0.17815099460E+02  0.51100000000E-03 0.  1.
        -12    1    3    3    0    0  0.14613220443E+01 -0.46549817271E+01  0.60130446747E+01  0.77434503457E+01  0.00000000000E+00 0.  1.
</event>
<event>
 7    1  0.2702714E-011  0.5052885E+02  0.7816164E-02  0.1300439E+00
        -11   -1    0    0    0    0  0.00000000000E+00  0.00000000000E+00  0.45593999997E+02  0.45594000000E+02  0.51100000000E-03 0. -1.
         11   -1    0    0    0    0 -0.00000000000E+00 -0.00000000000E+00 -0.45593999997E+02  0.45594000000E+02  0.51100000000E-03 0.  1.
    9900012    2    1    2    0    0  0.35995508143E+02  0.17927702139E+02  0.60072756504E+01  0.50528850093E+02  0.29999970343E+02 0.  0.
        -12    1    1    2    0    0 -0.35995508143E+02 -0.17927702139E+02 -0.60072756504E+01  0.40659149907E+02  0.00000000000E+00 0.  1.
         11    1    3    3    0    0 -0.70648922639E+00 -0.38929883112E+01 -0.63959618518E+00  0.40079381930E+01  0.51100000000E-03 0. -1.
        -11    1    3    3    0    0  0.74529005517E+01  0.58958972240E+01 -0.56080844803E+01  0.11034398149E+02  0.51100000000E-03 0.  1.
         12    1    3    3    0    0  0.29249096817E+02  0.15924793226E+02  0.12254956316E+02  0.35486513751E+02  0.00000000000E+00 0. -1.
</event>
<event>
 7    1  0.2702714E-011  0.5052891E+02  0.7816164E-02  0.1300439E+00
        -11   -1    0    0    0    0  0.00000000000E+00  0.00000000000E+00  0.45593999997E+02  0.45594000000E+02  0.51100000000E-03 0.  1.
         11   -1    0    0    0    0 -0.00000000000E+00 -0.00000000000E+00 -0.45593999997E+02  0.45594000000E+02  0.51100000000E-03 0. -1.
    9900012    2    1    2    0    0  0.22502966832E+02 -0.12252761728E+02 -0.31569727711E+02  0.50528912529E+02  0.30000160123E+02 0.  0.
        -12    1    1    2    0    0 -0.22502966832E+02  0.12252761728E+02  0.31569727711E+02  0.40659087471E+02  0.00000000000E+00 0.  1.
         11    1    3    3    0    0  0.22580622826E+01 -0.60826300305E+01 -0.69926903055E+01  0.95391273883E+01  0.51100000000E-03 0. -1.
        -11    1    3    3    0    0  0.17235873677E+02 -0.10117881214E+02 -0.47392094203E+01  0.20540374093E+02  0.51100000000E-03 0.  1.
        -12    1    3    3    0    0  0.30090308720E+01  0.39477495164E+01 -0.19837827985E+02  0.20449411048E+02  0.00000000000E+00 0.  1.
</event>
<event>
 7    1  0.2702714E-011  0.5052886E+02  0.7816164E-02  0.1300439E+00
        -11   -1    0    0    0    0  0.00000000000E+00  0.00000000000E+00  0.45593999997E+02  0.45594000000E+02  0.51100000000E-03 0.  1.
         11   -1    0    0    0    0 -0.00000000000E+00 -0.00000000000E+00 -0.45593999997E+02  0.45594000000E+02  0.51100000000E-03 0. -1.
    9900012    2    1    2    0    0 -0.63944357999E+00  0.13462021487E+02 -0.38360535146E+02  0.50528861208E+02  0.30000004128E+02 0.  0.
        -12    1    1    2    0    0  0.63944357999E+00 -0.13462021487E+02  0.38360535146E+02  0.40659138792E+02  0.00000000000E+00 0.  1.
         11    1    3    3    0    0  0.70773502415E+01  0.11939192404E+02 -0.26358777502E+02  0.29789567861E+02  0.51100000000E-03 0. -1.
        -11    1    3    3    0    0  0.35102618428E+00 -0.22158497654E+01 -0.11624813440E+02  0.11839319970E+02  0.51100000000E-03 0.  1.
        -12    1    3    3    0    0 -0.80678200058E+01  0.37386788483E+01 -0.37694420380E+00  0.88999733769E+01  0.00000000000E+00 0.  1.
</event>
<event>
 7    1  0.2702714E-011  0.5052886E+02  0.7816164E-02  0.1300439E+00
        -11   -1    0    0    0    0  0.00000000000E+00  0.00000000000E+00  0.45593999997E+02  0.45594000000E+02  0.51100000000E-03 0.  1.
         11   -1    0    0    0    0 -0.00000000000E+00 -0.00000000000E+00 -0.45593999997E+02  0.45594000000E+02  0.51100000000E-03 0. -1.
    9900012    2    1    2    0    0 -0.94059081309E+01  0.18913357444E+02 -0.34741607705E+02  0.50528861993E+02  0.30000006513E+02 0.  0.
        -12    1    1    2    0    0  0.94059081309E+01 -0.18913357444E+02  0.34741607705E+02  0.40659138007E+02  0.00000000000E+00 0.  1.
         11    1    3    3    0    0  0.25744670966E+01  0.76271305202E+00 -0.22946185512E+02  0.23102749660E+02  0.51100000000E-03 0. -1.
        -11    1    3    3    0    0 -0.39193397261E+01  0.78912696368E+01 -0.11353338116E+02  0.14371208961E+02  0.51100000000E-03 0.  1.
        -12    1    3    3    0    0 -0.80610355014E+01  0.10259374755E+02 -0.44208407736E+00  0.13054903372E+02  0.00000000000E+00 0.  1.
</event>
<event>
 7    1  0.2702714E-011  0.5052886E+02  0.7816164E-02  0.1300439E+00
        -11   -1    0    0    0    0  0.00000000000E+00  0.00000000000E+00  0.45593999997E+02  0.45594000000E+02  0.51100000000E-03 0.  1.
         11   -1    0    0    0    0 -0.00000000000E+00 -0.00000000000E+00 -0.45593999997E+02  0.45594000000E+02  0.51100000000E-03 0. -1.
    9900012    2    1    2    0    0  0.32336160650E+02  0.11033574677E+02 -0.22040841290E+02  0.50528859078E+02  0.29999997653E+02 0.  0.
        -12    1    1    2    0    0 -0.32336160650E+02 -0.11033574677E+02  0.22040841290E+02  0.40659140922E+02  0.00000000000E+00 0.  1.
         11    1    3    3    0    0  0.82806038652E+01 -0.57168343373E+01 -0.85101055132E+01  0.13178485927E+02  0.51100000000E-03 0.  1.
        -11    1    3    3    0    0  0.11345787706E+02  0.10377599597E+00 -0.11745032234E+02  0.16330445510E+02  0.51100000000E-03 0. -1.
        -12    1    3    3    0    0  0.12709769079E+02  0.16646633019E+02 -0.17857035431E+01  0.21019927641E+02  0.00000000000E+00 0.  1.
</event>
<event>
 7    1  0.2702714E-011  0.5052891E+02  0.7816164E-02  0.1300439E+00
        -11   -1    0    0    0    0  0.00000000000E+00  0.00000000000E+00  0.45593999997E+02  0.45594000000E+02  0.51100000000E-03 0.  1.
         11   -1    0    0    0    0 -0.00000000000E+00 -0.00000000000E+00 -0.45593999997E+02  0.45594000000E+02  0.51100000000E-03 0. -1.
    9900012    2    1    2    0    0  0.22240699586E+01 -0.79452011916E+01 -0.39813174314E+02  0.50528910511E+02  0.30000153987E+02 0.  0.
        -12    1    1    2    0    0 -0.22240699586E+01  0.79452011916E+01  0.39813174314E+02  0.40659089489E+02  0.00000000000E+00 0.  1.
         11    1    3    3    0    0 -0.85142591111E+01 -0.15611026790E+01 -0.10080505229E+02  0.13287070246E+02  0.51100000000E-03 0. -1.
        -11    1    3    3    0    0 -0.15076621025E+01 -0.88683571054E+01 -0.73876790928E+01  0.11640386824E+02  0.51100000000E-03 0.  1.
         12    1    3    3    0    0  0.12245991172E+02  0.24842585927E+01 -0.22344989992E+02  0.25601453441E+02  0.00000000000E+00 0. -1.
</event>
<event>
 7    1  0.2702714E-011  0.5052886E+02  0.7816164E-02  0.1300439E+00
        -11   -1    0    0    0    0  0.00000000000E+00  0.00000000000E+00  0.45593999997E+02  0.45594000000E+02  0.51100000000E-03 0.  1.
         11   -1    0    0    0    0 -0.00000000000E+00 -0.00000000000E+00 -0.45593999997E+02  0.45594000000E+02  0.51100000000E-03 0. -1.
    9900012    2    1    2    0    0  0.40045975130E+02  0.38182852827E+01 -0.59081406748E+01  0.50528861386E+02  0.30000004669E+02 0.  0.
        -12    1    1    2    0    0 -0.40045975130E+02 -0.38182852827E+01  0.59081406748E+01  0.40659138614E+02  0.00000000000E+00 0.  1.
         11    1    3    3    0    0  0.36604513668E+02  0.10620167780E+02 -0.50325380408E+01  0.38444828312E+02  0.51100000000E-03 0. -1.
        -11    1    3    3    0    0  0.41283458866E+01  0.97756840935E+00 -0.32374824805E+00  0.42548434687E+01  0.51100000000E-03 0.  1.
        -12    1    3    3    0    0 -0.68688442462E+00 -0.77794509064E+01 -0.55185438593E+00  0.78291896056E+01  0.00000000000E+00 0.  1.
</event>
<event>
 7    1  0.2702714E-011  0.5052889E+02  0.7816164E-02  0.1300439E+00
        -11   -1    0    0    0    0  0.00000000000E+00  0.00000000000E+00  0.45593999997E+02  0.45594000000E+02  0.51100000000E-03 0.  1.
         11   -1    0    0    0    0 -0.00000000000E+00 -0.00000000000E+00 -0.45593999997E+02  0.45594000000E+02  0.51100000000E-03 0. -1.
    9900012    2    1    2    0    0  0.28088154004E+02 -0.27277164426E+02 -0.10962437952E+02  0.50528891053E+02  0.30000094845E+02 0.  0.
        -12    1    1    2    0    0 -0.28088154004E+02  0.27277164426E+02  0.10962437952E+02  0.40659108947E+02  0.00000000000E+00 0.  1.
         11    1    3    3    0    0  0.13041033160E+02 -0.47193308167E+01  0.59206478774E+00  0.13881324512E+02  0.51100000000E-03 0. -1.
        -11    1    3    3    0    0 -0.32920861012E+01  0.20182445024E+01 -0.27614415843E+01  0.47472836079E+01  0.51100000000E-03 0.  1.
        -12    1    3    3    0    0  0.18339206946E+02 -0.24576078112E+02 -0.87930611555E+01  0.31900282933E+02  0.00000000000E+00 0.  1.
</event>
<event>
 7    1  0.2702714E-011  0.5052881E+02  0.7816164E-02  0.1300439E+00
        -11   -1    0    0    0    0  0.00000000000E+00  0.00000000000E+00  0.45593999997E+02  0.45594000000E+02  0.51100000000E-03 0.  1.
         11   -1    0    0    0    0 -0.00000000000E+00 -0.00000000000E+00 -0.45593999997E+02  0.45594000000E+02  0.51100000000E-03 0. -1.
    9900012    2    1    2    0    0 -0.27013913397E+02  0.50404853369E+01 -0.29966841938E+02  0.50528811307E+02  0.29999852448E+02 0.  0.
        -12    1    1    2    0    0  0.27013913397E+02 -0.50404853369E+01  0.29966841938E+02  0.40659188693E+02  0.00000000000E+00 0.  1.
         11    1    3    3    0    0 -0.10420414294E+02  0.84663283137E+01 -0.17158905840E+02  0.21787422956E+02  0.51100000000E-03 0. -1.
        -11    1    3    3    0    0  0.42428463915E+01 -0.23580192729E+01 -0.27657148042E+01  0.55866966118E+01  0.51100000000E-03 0.  1.
         12    1    3    3    0    0 -0.20836345494E+02 -0.10678237039E+01 -0.10042221294E+02  0.23154691739E+02  0.00000000000E+00 0. -1.
</event>
<event>
 7    1  0.2702714E-011  0.5052886E+02  0.7816164E-02  0.1300439E+00
        -11   -1    0    0    0    0  0.00000000000E+00  0.00000000000E+00  0.45593999997E+02  0.45594000000E+02  0.51100000000E-03 0.  1.
         11   -1    0    0    0    0 -0.00000000000E+00 -0.00000000000E+00 -0.45593999997E+02  0.45594000000E+02  0.51100000000E-03 0. -1.
    9900012    2    1    2    0    0  0.11203913184E+02  0.38624964838E+02  0.59791467175E+01  0.50528858656E+02  0.29999996370E+02 0.  0.
        -12    1    1    2    0    0 -0.11203913184E+02 -0.38624964838E+02 -0.59791467175E+01  0.40659141344E+02  0.00000000000E+00 0.  1.
         11    1    3    3    0    0  0.65390651445E+01  0.36107633620E+02  0.34782489697E+01  0.36859446480E+02  0.51100000000E-03 0. -1.
        -11    1    3    3    0    0 -0.40747823942E+01  0.23365419071E+01  0.86003081387E+00  0.47752416594E+01  0.51100000000E-03 0.  1.
        -12    1    3    3    0    0  0.87396304332E+01  0.18078931107E+00  0.16408669339E+01  0.88941705166E+01  0.00000000000E+00 0.  1.
</event>
<event>
 7    1  0.2702714E-011  0.5052884E+02  0.7816164E-02  0.1300439E+00
        -11   -1    0    0    0    0  0.00000000000E+00  0.00000000000E+00  0.45593999997E+02  0.45594000000E+02  0.51100000000E-03 0. -1.
         11   -1    0    0    0    0 -0.00000000000E+00 -0.00000000000E+00 -0.45593999997E+02  0.45594000000E+02  0.51100000000E-03 0.  1.
    9900012    2    1    2    0    0  0.22145748023E+02 -0.31504377677E+02 -0.13046353659E+02  0.50528839752E+02  0.29999938909E+02 0.  0.
        -12    1    1    2    0    0 -0.22145748023E+02  0.31504377677E+02  0.13046353659E+02  0.40659160248E+02  0.00000000000E+00 0.  1.
         11    1    3    3    0    0  0.69017083483E+01 -0.23734236704E+02 -0.51644804116E+01  0.25251127267E+02  0.51100000000E-03 0. -1.
        -11    1    3    3    0    0 -0.17664109933E+01 -0.22514013991E+00  0.31690226034E+01  0.36350516367E+01  0.51100000000E-03 0.  1.
        -12    1    3    3    0    0  0.17010450668E+02 -0.75450008329E+01 -0.11050895851E+02  0.21642660848E+02  0.00000000000E+00 0.  1.
</event>
<event>
 7    1  0.2702714E-011  0.5052887E+02  0.7816164E-02  0.1300439E+00
        -11   -1    0    0    0    0  0.00000000000E+00  0.00000000000E+00  0.45593999997E+02  0.45594000000E+02  0.51100000000E-03 0. -1.
         11   -1    0    0    0    0 -0.00000000000E+00 -0.00000000000E+00 -0.45593999997E+02  0.45594000000E+02  0.51100000000E-03 0.  1.
    9900012    2    1    2    0    0  0.18175284370E+02  0.34670738540E+02 -0.10989248740E+02  0.50528872356E+02  0.30000038014E+02 0.  0.
        -12    1    1    2    0    0 -0.18175284370E+02 -0.34670738540E+02  0.10989248740E+02  0.40659127644E+02  0.00000000000E+00 0.  1.
         11    1    3    3    0    0  0.11498773233E+02  0.31731050669E+02 -0.60403910385E+01  0.34286552562E+02  0.51100000000E-03 0. -1.
        -11    1    3    3    0    0  0.74299701311E+01  0.65388986237E+01 -0.69136277207E+01  0.12073106472E+02  0.51100000000E-03 0.  1.
         12    1    3    3    0    0 -0.75345899399E+00 -0.35992107527E+01  0.19647700190E+01  0.41692133222E+01  0.00000000000E+00 0. -1.
</event>
<event>
 7    1  0.2702714E-011  0.5052887E+02  0.7816164E-02  0.1300439E+00
        -11   -1    0    0    0    0  0.00000000000E+00  0.00000000000E+00  0.45593999997E+02  0.45594000000E+02  0.51100000000E-03 0.  1.
         11   -1    0    0    0    0 -0.00000000000E+00 -0.00000000000E+00 -0.45593999997E+02  0.45594000000E+02  0.51100000000E-03 0. -1.
    9900012    2    1    2    0    0 -0.39220306741E+02 -0.58570881380E+01 -0.89792540283E+01  0.50528868858E+02  0.30000027381E+02 0.  0.
        -12    1    1    2    0    0  0.39220306741E+02  0.58570881380E+01  0.89792540283E+01  0.40659131142E+02  0.00000000000E+00 0.  1.
         11    1    3    3    0    0 -0.32556239355E+01  0.31460985744E+01 -0.71190973101E+01  0.84367393122E+01  0.51100000000E-03 0. -1.
        -11    1    3    3    0    0 -0.10217018649E+02 -0.80055956170E+01 -0.84598014437E+01  0.15493394463E+02  0.51100000000E-03 0.  1.
        -12    1    3    3    0    0 -0.25747664156E+02 -0.99759109543E+00  0.65996447255E+01  0.26598735083E+02  0.00000000000E+00 0.  1.
</event>
<event>
 7    1  0.2702714E-011  0.5052886E+02  0.7816164E-02  0.1300439E+00
        -11   -1    0    0    0    0  0.00000000000E+00  0.00000000000E+00  0.45593999997E+02  0.45594000000E+02  0.51100000000E-03 0.  1.
         11   -1    0    0    0    0 -0.00000000000E+00 -0.00000000000E+00 -0.45593999997E+02  0.45594000000E+02  0.51100000000E-03 0. -1.
    9900012    2    1    2    0    0  0.89970504964E+01  0.71995391445E+01 -0.38992116296E+02  0.50528863084E+02  0.30000009831E+02 0.  0.
        -12    1    1    2    0    0 -0.89970504964E+01 -0.71995391445E+01  0.38992116296E+02  0.40659136916E+02  0.00000000000E+00 0.  1.
         11    1    3    3    0    0 -0.41756966667E+01  0.17350351927E+01 -0.66564219940E+01  0.80470332294E+01  0.51100000000E-03 0. -1.
        -11    1    3    3    0    0  0.42118671506E+01  0.87241089323E+01 -0.10136201731E+01  0.97404993544E+01  0.51100000000E-03 0.  1.
         12    1    3    3    0    0  0.89608800124E+01 -0.32596049806E+01 -0.31322074129E+02  0.32741330500E+02  0.00000000000E+00 0. -1.
</event>
<event>
 7    1  0.2702714E-011  0.5052886E+02  0.7816164E-02  0.1300439E+00
        -11   -1    0    0    0    0  0.00000000000E+00  0.00000000000E+00  0.45593999997E+02  0.45594000000E+02  0.51100000000E-03 0. -1.
         11   -1    0    0    0    0 -0.00000000000E+00 -0.00000000000E+00 -0.45593999997E+02  0.45594000000E+02  0.51100000000E-03 0.  1.
    9900012    2    1    2    0    0  0.22751376464E+02 -0.30529988634E+02  0.14263961953E+02  0.50528856532E+02  0.29999989915E+02 0.  0.
        -12    1    1    2    0    0 -0.22751376464E+02  0.30529988634E+02 -0.14263961953E+02  0.40659143468E+02  0.00000000000E+00 0.  1.
         11    1    3    3    0    0  0.24504156596E+00 -0.10027222007E+02 -0.28736464241E+01  0.10433746718E+02  0.51100000000E-03 0. -1.
        -11    1    3    3    0    0  0.14148691140E+02 -0.44936301772E-01  0.66409281353E+01  0.15629760299E+02  0.51100000000E-03 0.  1.
         12    1    3    3    0    0  0.83576437576E+01 -0.20457830325E+02  0.10496680241E+02  0.24465349514E+02  0.00000000000E+00 0. -1.
</event>
<event>
 7    1  0.2702714E-011  0.5052889E+02  0.7816164E-02  0.1300439E+00
        -11   -1    0    0    0    0  0.00000000000E+00  0.00000000000E+00  0.45593999997E+02  0.45594000000E+02  0.51100000000E-03 0.  1.
         11   -1    0    0    0    0 -0.00000000000E+00 -0.00000000000E+00 -0.45593999997E+02  0.45594000000E+02  0.51100000000E-03 0. -1.
    9900012    2    1    2    0    0  0.91896149849E+01  0.20766109745E+02 -0.33726589767E+02  0.50528890383E+02  0.30000092809E+02 0.  0.
        -12    1    1    2    0    0 -0.91896149849E+01 -0.20766109745E+02  0.33726589767E+02  0.40659109617E+02  0.00000000000E+00 0.  1.
         11    1    3    3    0    0  0.16312799742E+01 -0.13653322941E+01 -0.29271989815E+01  0.36185219035E+01  0.51100000000E-03 0. -1.
        -11    1    3    3    0    0 -0.16884151259E+00  0.10300645185E+02  0.26168697714E+01  0.10629195940E+02  0.51100000000E-03 0.  1.
         12    1    3    3    0    0  0.77271765232E+01  0.11830796854E+02 -0.33416260557E+02  0.36281172539E+02  0.00000000000E+00 0. -1.
</event>
<event>
 7    1  0.2702714E-011  0.5052886E+02  0.7816164E-02  0.1300439E+00
        -11   -1    0    0    0    0  0.00000000000E+00  0.00000000000E+00  0.45593999997E+02  0.45594000000E+02  0.51100000000E-03 0. -1.
         11   -1    0    0    0    0 -0.00000000000E+00 -0.00000000000E+00 -0.45593999997E+02  0.45594000000E+02  0.51100000000E-03 0.  1.
    9900012    2    1    2    0    0 -0.30287950066E+02  0.20984922308E+01  0.27044439194E+02  0.50528864739E+02  0.30000014860E+02 0.  0.
        -12    1    1    2    0    0  0.30287950066E+02 -0.20984922308E+01 -0.27044439194E+02  0.40659135261E+02  0.00000000000E+00 0.  1.
         11    1    3    3    0    0 -0.23497878593E+02 -0.40334089536E+01  0.90616883883E+01  0.25505546120E+02  0.51100000000E-03 0. -1.
        -11    1    3    3    0    0  0.16189587426E+01  0.24013010641E+01 -0.16564184246E+01  0.33363148037E+01  0.51100000000E-03 0.  1.
        -12    1    3    3    0    0 -0.84090302159E+01  0.37306001202E+01  0.19639169230E+02  0.21687003815E+02  0.00000000000E+00 0.  1.
</event>
<event>
 7    1  0.2702714E-011  0.5052886E+02  0.7816164E-02  0.1300439E+00
        -11   -1    0    0    0    0  0.00000000000E+00  0.00000000000E+00  0.45593999997E+02  0.45594000000E+02  0.51100000000E-03 0.  1.
         11   -1    0    0    0    0 -0.00000000000E+00 -0.00000000000E+00 -0.45593999997E+02  0.45594000000E+02  0.51100000000E-03 0. -1.
    9900012    2    1    2    0    0  0.14548577883E+02  0.35483416033E+02 -0.13506717658E+02  0.50528863835E+02  0.30000012113E+02 0.  0.
        -12    1    1    2    0    0 -0.14548577883E+02 -0.35483416033E+02  0.13506717658E+02  0.40659136165E+02  0.00000000000E+00 0.  1.
         11    1    3    3    0    0  0.44920484147E+01  0.30158320471E+01 -0.53243683383E+01  0.75909578025E+01  0.51100000000E-03 0. -1.
        -11    1    3    3    0    0  0.12322612007E+02  0.10678524734E+02  0.53829964554E+01  0.17171322263E+02  0.51100000000E-03 0.  1.
        -12    1    3    3    0    0 -0.22660825380E+01  0.21789059252E+02 -0.13565345775E+02  0.25766583770E+02  0.00000000000E+00 0.  1.
</event>
<event>
 7    1  0.2702714E-011  0.5052888E+02  0.7816164E-02  0.1300439E+00
        -11   -1    0    0    0    0  0.00000000000E+00  0.00000000000E+00  0.45593999997E+02  0.45594000000E+02  0.51100000000E-03 0.  1.
         11   -1    0    0    0    0 -0.00000000000E+00 -0.00000000000E+00 -0.45593999997E+02  0.45594000000E+02  0.51100000000E-03 0. -1.
    9900012    2    1    2    0    0  0.78454224922E+01 -0.33343185783E+02 -0.21905380750E+02  0.50528875587E+02  0.30000047834E+02 0.  0.
        -12    1    1    2    0    0 -0.78454224922E+01  0.33343185783E+02  0.21905380750E+02  0.40659124413E+02  0.00000000000E+00 0.  1.
         11    1    3    3    0    0 -0.19182094007E+01  0.43357838191E-01  0.12250825722E+01  0.22764522347E+01  0.51100000000E-03 0. -1.
        -11    1    3    3    0    0  0.13009815141E+02 -0.25172668890E+02 -0.59778915938E+01  0.28959518940E+02  0.51100000000E-03 0.  1.
         12    1    3    3    0    0 -0.32461832477E+01 -0.82138747311E+01 -0.17152571728E+02  0.19292904412E+02  0.00000000000E+00 0. -1.
</event>
<event>
 7    1  0.2702714E-011  0.5052887E+02  0.7816164E-02  0.1300439E+00
        -11   -1    0    0    0    0  0.00000000000E+00  0.00000000000E+00  0.45593999997E+02  0.45594000000E+02  0.51100000000E-03 0.  1.
         11   -1    0    0    0    0 -0.00000000000E+00 -0.00000000000E+00 -0.45593999997E+02  0.45594000000E+02  0.51100000000E-03 0. -1.
    9900012    2    1    2    0    0  0.14133163496E+02 -0.48423240742E+01 -0.37814947636E+02  0.50528872150E+02  0.30000037387E+02 0.  0.
        -12    1    1    2    0    0 -0.14133163496E+02  0.48423240742E+01  0.37814947636E+02  0.40659127850E+02  0.00000000000E+00 0.  1.
         11    1    3    3    0    0  0.10118913563E+02 -0.90896276918E+01 -0.25505191712E+02  0.28905510683E+02  0.51100000000E-03 0. -1.
        -11    1    3    3    0    0  0.10083552739E+02 -0.41304172643E+00 -0.76537435059E+01  0.12666034471E+02  0.51100000000E-03 0.  1.
        -12    1    3    3    0    0 -0.60693028068E+01  0.46603453441E+01 -0.46560124173E+01  0.89573269962E+01  0.00000000000E+00 0.  1.
</event>
<event>
 7    1  0.2702714E-011  0.5052886E+02  0.7816164E-02  0.1300439E+00
        -11   -1    0    0    0    0  0.00000000000E+00  0.00000000000E+00  0.45593999997E+02  0.45594000000E+02  0.51100000000E-03 0. -1.
         11   -1    0    0    0    0 -0.00000000000E+00 -0.00000000000E+00 -0.45593999997E+02  0.45594000000E+02  0.51100000000E-03 0.  1.
    9900012    2    1    2    0    0  0.32269009609E+02  0.36942792720E+01  0.24458717557E+02  0.50528861482E+02  0.30000004960E+02 0.  0.
        -12    1    1    2    0    0 -0.32269009609E+02 -0.36942792720E+01 -0.24458717557E+02  0.40659138518E+02  0.00000000000E+00 0.  1.
         11    1    3    3    0    0  0.20162415108E+02  0.11650698969E+02  0.14989595957E+02  0.27693857743E+02  0.51100000000E-03 0. -1.
        -11    1    3    3    0    0  0.19680279864E+01  0.22230867831E+01 -0.26952135537E+01  0.40099158796E+01  0.51100000000E-03 0.  1.
         12    1    3    3    0    0  0.10138566515E+02 -0.10179506481E+02  0.12164335154E+02  0.18825087859E+02  0.00000000000E+00 0. -1.
</event>
<event>
 7    1  0.2702714E-011  0.5052886E+02  0.7816164E-02  0.1300439E+00
        -11   -1    0    0    0    0  0.00000000000E+00  0.00000000000E+00  0.45593999997E+02  0.45594000000E+02  0.51100000000E-03 0.  1.
         11   -1    0    0    0    0 -0.00000000000E+00 -0.00000000000E+00 -0.45593999997E+02  0.45594000000E+02  0.51100000000E-03 0. -1.
    9900012    2    1    2    0    0  0.10590680686E+02  0.25029500250E+02 -0.30241148224E+02  0.50528862699E+02  0.30000008661E+02 0.  0.
        -12    1    1    2    0    0 -0.10590680686E+02 -0.25029500250E+02  0.30241148224E+02  0.40659137301E+02  0.00000000000E+00 0.  1.
         11    1    3    3    0    0  0.18289930330E+01  0.12057189613E+02 -0.31342996912E+02  0.33631896952E+02  0.51100000000E-03 0. -1.
        -11    1    3    3    0    0 -0.95251286740E+00  0.16346823715E+01  0.48988214445E+00  0.19543418316E+01  0.51100000000E-03 0.  1.
         12    1    3    3    0    0  0.97142005205E+01  0.11337628265E+02  0.61196654450E+00  0.14942623916E+02  0.00000000000E+00 0. -1.
</event>
<event>
 7    1  0.2702714E-011  0.5052886E+02  0.7816164E-02  0.1300439E+00
        -11   -1    0    0    0    0  0.00000000000E+00  0.00000000000E+00  0.45593999997E+02  0.45594000000E+02  0.51100000000E-03 0.  1.
         11   -1    0    0    0    0 -0.00000000000E+00 -0.00000000000E+00 -0.45593999997E+02  0.45594000000E+02  0.51100000000E-03 0. -1.
    9900012    2    1    2    0    0  0.28170730598E+02  0.12956730112E+02 -0.26300168038E+02  0.50528858883E+02  0.29999997059E+02 0.  0.
        -12    1    1    2    0    0 -0.28170730598E+02 -0.12956730112E+02  0.26300168038E+02  0.40659141117E+02  0.00000000000E+00 0.  1.
         11    1    3    3    0    0  0.36416376726E+01  0.46499441780E+01 -0.12143369043E+01  0.60297694961E+01  0.51100000000E-03 0. -1.
        -11    1    3    3    0    0  0.12755540847E+02  0.17553091819E+02 -0.16325464786E+02  0.27153925231E+02  0.51100000000E-03 0.  1.
        -12    1    3    3    0    0  0.11773552077E+02 -0.92463058851E+01 -0.87603663480E+01  0.17345164156E+02  0.00000000000E+00 0.  1.
</event>
<event>
 7    1  0.3482966E-011  0.5052885E+02  0.7816164E-02  0.1300439E+00
        -11   -1    0    0    0    0  0.00000000000E+00  0.00000000000E+00  0.45593999997E+02  0.45594000000E+02  0.51100000000E-03 0. -1.
         11   -1    0    0    0    0 -0.00000000000E+00 -0.00000000000E+00 -0.45593999997E+02  0.45594000000E+02  0.51100000000E-03 0.  1.
    9900012    2    1    2    0    0  0.66667680117E+01  0.38128021744E+01  0.39927221457E+02  0.50528852574E+02  0.29999977885E+02 0.  0.
        -12    1    1    2    0    0 -0.66667680117E+01 -0.38128021744E+01 -0.39927221457E+02  0.40659147426E+02  0.00000000000E+00 0.  1.
         11    1    3    3    0    0  0.50869945780E+00  0.78149643872E+01  0.29820392019E+02  0.30831610791E+02  0.51100000000E-03 0. -1.
        -11    1    3    3    0    0  0.80427781636E+01  0.11334730489E+01  0.11474542305E+02  0.14058312954E+02  0.51100000000E-03 0.  1.
        -12    1    3    3    0    0 -0.18847096097E+01 -0.51356352618E+01 -0.13677128677E+01  0.56389288294E+01  0.00000000000E+00 0.  1.
</event>
<event>
 7    1  0.2702714E-011  0.5052885E+02  0.7816164E-02  0.1300439E+00
        -11   -1    0    0    0    0  0.00000000000E+00  0.00000000000E+00  0.45593999997E+02  0.45594000000E+02  0.51100000000E-03 0. -1.
         11   -1    0    0    0    0 -0.00000000000E+00 -0.00000000000E+00 -0.45593999997E+02  0.45594000000E+02  0.51100000000E-03 0.  1.
    9900012    2    1    2    0    0  0.39418056002E+02 -0.30562399822E+01  0.94890727217E+01  0.50528852900E+02  0.29999978874E+02 0.  0.
        -12    1    1    2    0    0 -0.39418056002E+02  0.30562399822E+01 -0.94890727217E+01  0.40659147100E+02  0.00000000000E+00 0.  1.
         11    1    3    3    0    0  0.33312838089E+02  0.10198709162E+01  0.43584397225E+01  0.33612219732E+02  0.51100000000E-03 0. -1.
        -11    1    3    3    0    0  0.38329854056E+01  0.51675851729E+01  0.88750745622E+00  0.64948736235E+01  0.51100000000E-03 0.  1.
        -12    1    3    3    0    0  0.22722325075E+01 -0.92436960713E+01  0.42431255429E+01  0.10421759544E+02  0.00000000000E+00 0.  1.
</event>
<event>
 7    1  0.2702714E-011  0.5052886E+02  0.7816164E-02  0.1300439E+00
        -11   -1    0    0    0    0  0.00000000000E+00  0.00000000000E+00  0.45593999997E+02  0.45594000000E+02  0.51100000000E-03 0. -1.
         11   -1    0    0    0    0 -0.00000000000E+00 -0.00000000000E+00 -0.45593999997E+02  0.45594000000E+02  0.51100000000E-03 0.  1.
    9900012    2    1    2    0    0 -0.27678993602E+02 -0.29768662653E+02  0.93040785545E+00  0.50528860539E+02  0.30000002093E+02 0.  0.
        -12    1    1    2    0    0  0.27678993602E+02  0.29768662653E+02 -0.93040785545E+00  0.40659139461E+02  0.00000000000E+00 0.  1.
         11    1    3    3    0    0 -0.17010992651E+02 -0.12688763109E+02  0.16439834401E+01  0.21285705580E+02  0.51100000000E-03 0. -1.
        -11    1    3    3    0    0 -0.33856772819E+01  0.47943108176E+01  0.15704086966E+01  0.60757230523E+01  0.51100000000E-03 0.  1.
         12    1    3    3    0    0 -0.72823236694E+01 -0.21874210361E+02 -0.22839842812E+01  0.23167431907E+02  0.00000000000E+00 0. -1.
</event>
<event>
 7    1  0.2702714E-011  0.5052888E+02  0.7816164E-02  0.1300439E+00
        -11   -1    0    0    0    0  0.00000000000E+00  0.00000000000E+00  0.45593999997E+02  0.45594000000E+02  0.51100000000E-03 0. -1.
         11   -1    0    0    0    0 -0.00000000000E+00 -0.00000000000E+00 -0.45593999997E+02  0.45594000000E+02  0.51100000000E-03 0.  1.
    9900012    2    1    2    0    0 -0.39914178362E+02  0.42776501051E+01  0.64593956975E+01  0.50528883955E+02  0.30000073270E+02 0.  0.
        -12    1    1    2    0    0  0.39914178362E+02 -0.42776501051E+01 -0.64593956975E+01  0.40659116045E+02  0.00000000000E+00 0.  1.
         11    1    3    3    0    0  0.30139318919E+01  0.33128169715E+01 -0.69508298717E+00  0.45322932778E+01  0.51100000000E-03 0. -1.
        -11    1    3    3    0    0 -0.80215026299E+01  0.56388753908E+01  0.41607060641E+01  0.10651426915E+02  0.51100000000E-03 0.  1.
         12    1    3    3    0    0 -0.34906607625E+02 -0.46740422572E+01  0.29937726205E+01  0.35345163762E+02  0.00000000000E+00 0. -1.
</event>
<event>
 7    1  0.2702714E-011  0.5052880E+02  0.7816164E-02  0.1300439E+00
        -11   -1    0    0    0    0  0.00000000000E+00  0.00000000000E+00  0.45593999997E+02  0.45594000000E+02  0.51100000000E-03 0. -1.
         11   -1    0    0    0    0 -0.00000000000E+00 -0.00000000000E+00 -0.45593999997E+02  0.45594000000E+02  0.51100000000E-03 0.  1.
    9900012    2    1    2    0    0 -0.39294960705E+02  0.91465821211E+01 -0.50415191091E+01  0.50528796660E+02  0.29999807927E+02 0.  0.
        -12    1    1    2    0    0  0.39294960705E+02 -0.91465821211E+01  0.50415191091E+01  0.40659203340E+02  0.00000000000E+00 0.  1.
         11    1    3    3    0    0 -0.12102231015E+02 -0.32467845176E+01  0.51029388083E+01  0.13529434208E+02  0.51100000000E-03 0. -1.
        -11    1    3    3    0    0 -0.26117000181E+02  0.72158497406E+01 -0.18448206262E+01  0.27158231705E+02  0.51100000000E-03 0.  1.
        -12    1    3    3    0    0 -0.10757295087E+01  0.51775168982E+01 -0.82996372912E+01  0.98411307466E+01  0.00000000000E+00 0.  1.
</event>
<event>
 7    1  0.2702714E-011  0.5052886E+02  0.7816164E-02  0.1300439E+00
        -11   -1    0    0    0    0  0.00000000000E+00  0.00000000000E+00  0.45593999997E+02  0.45594000000E+02  0.51100000000E-03 0. -1.
         11   -1    0    0    0    0 -0.00000000000E+00 -0.00000000000E+00 -0.45593999997E+02  0.45594000000E+02  0.51100000000E-03 0.  1.
    9900012    2    1    2    0    0  0.39532498932E+02 -0.94943994362E+01  0.45130626751E+00  0.50528858718E+02  0.29999996558E+02 0.  0.
        -12    1    1    2    0    0 -0.39532498932E+02  0.94943994362E+01 -0.45130626751E+00  0.40659141282E+02  0.00000000000E+00 0.  1.
         11    1    3    3    0    0  0.24712555807E+02 -0.95027934000E+00  0.55891943520E+00  0.24737134768E+02  0.51100000000E-03 0. -1.
        -11    1    3    3    0    0  0.22941090507E+01 -0.13942154620E+01 -0.86308526772E+01  0.90387162411E+01  0.51100000000E-03 0.  1.
         12    1    3    3    0    0  0.12525834074E+02 -0.71499046342E+01  0.85232395095E+01  0.16753007708E+02  0.00000000000E+00 0. -1.
</event>
<event>
 7    1  0.2702714E-011  0.5052887E+02  0.7816164E-02  0.1300439E+00
        -11   -1    0    0    0    0  0.00000000000E+00  0.00000000000E+00  0.45593999997E+02  0.45594000000E+02  0.51100000000E-03 0. -1.
         11   -1    0    0    0    0 -0.00000000000E+00 -0.00000000000E+00 -0.45593999997E+02  0.45594000000E+02  0.51100000000E-03 0.  1.
    9900012    2    1    2    0    0 -0.10620580792E+02  0.20759059011E+02  0.33308102463E+02  0.50528868713E+02  0.30000026939E+02 0.  0.
        -12    1    1    2    0    0  0.10620580792E+02 -0.20759059011E+02 -0.33308102463E+02  0.40659131287E+02  0.00000000000E+00 0.  1.
         11    1    3    3    0    0  0.25336966673E+01  0.11612905470E+02  0.24109283396E+02  0.26880043496E+02  0.51100000000E-03 0. -1.
        -11    1    3    3    0    0  0.23410026338E+01  0.32221468165E+01 -0.10886022848E+01  0.41288713511E+01  0.51100000000E-03 0.  1.
         12    1    3    3    0    0 -0.15495280093E+02  0.59240067245E+01  0.10287421352E+02  0.19519953865E+02  0.00000000000E+00 0. -1.
</event>
<event>
 7    1  0.2702714E-011  0.5052886E+02  0.7816164E-02  0.1300439E+00
        -11   -1    0    0    0    0  0.00000000000E+00  0.00000000000E+00  0.45593999997E+02  0.45594000000E+02  0.51100000000E-03 0. -1.
         11   -1    0    0    0    0 -0.00000000000E+00 -0.00000000000E+00 -0.45593999997E+02  0.45594000000E+02  0.51100000000E-03 0.  1.
    9900012    2    1    2    0    0 -0.31878907772E+01  0.13225838400E+02  0.38315531190E+02  0.50528863519E+02  0.30000011154E+02 0.  0.
        -12    1    1    2    0    0  0.31878907772E+01 -0.13225838400E+02 -0.38315531190E+02  0.40659136481E+02  0.00000000000E+00 0.  1.
         11    1    3    3    0    0 -0.10508157757E+02 -0.14550628349E+01  0.14957656472E+02  0.18337668191E+02  0.51100000000E-03 0. -1.
        -11    1    3    3    0    0  0.34952805401E+01 -0.18563356129E+01  0.94566386567E+01  0.10251389316E+02  0.51100000000E-03 0.  1.
        -12    1    3    3    0    0  0.38249864395E+01  0.16537236848E+02  0.13901236061E+02  0.21939806013E+02  0.00000000000E+00 0.  1.
</event>
<event>
 7    1  0.2702714E-011  0.5052887E+02  0.7816164E-02  0.1300439E+00
        -11   -1    0    0    0    0  0.00000000000E+00  0.00000000000E+00  0.45593999997E+02  0.45594000000E+02  0.51100000000E-03 0. -1.
         11   -1    0    0    0    0 -0.00000000000E+00 -0.00000000000E+00 -0.45593999997E+02  0.45594000000E+02  0.51100000000E-03 0.  1.
    9900012    2    1    2    0    0 -0.38167018492E+02  0.37035272009E+01  0.13517683488E+02  0.50528865956E+02  0.30000018561E+02 0.  0.
        -12    1    1    2    0    0  0.38167018492E+02 -0.37035272009E+01 -0.13517683488E+02  0.40659134044E+02  0.00000000000E+00 0.  1.
         11    1    3    3    0    0 -0.73019755333E+01  0.68929839118E+01  0.47108145253E+01  0.11091611589E+02  0.51100000000E-03 0. -1.
        -11    1    3    3    0    0 -0.17126483324E+02  0.22049246160E+01 -0.62392126261E+01  0.18360443842E+02  0.51100000000E-03 0.  1.
         12    1    3    3    0    0 -0.13738559635E+02 -0.53943813269E+01  0.15046081588E+02  0.21076810525E+02  0.00000000000E+00 0. -1.
</event>
<event>
 7    1  0.2702714E-011  0.5052889E+02  0.7816164E-02  0.1300439E+00
        -11   -1    0    0    0    0  0.00000000000E+00  0.00000000000E+00  0.45593999997E+02  0.45594000000E+02  0.51100000000E-03 0. -1.
         11   -1    0    0    0    0 -0.00000000000E+00 -0.00000000000E+00 -0.45593999997E+02  0.45594000000E+02  0.51100000000E-03 0.  1.
    9900012    2    1    2    0    0 -0.14780561389E+02 -0.37100096547E+02 -0.76342143351E+01  0.50528888016E+02  0.30000085614E+02 0.  0.
        -12    1    1    2    0    0  0.14780561389E+02  0.37100096547E+02  0.76342143351E+01  0.40659111984E+02  0.00000000000E+00 0.  1.
         11    1    3    3    0    0 -0.17218513062E+02 -0.21015053948E+02  0.17863409715E+01  0.27226837841E+02  0.51100000000E-03 0. -1.
        -11    1    3    3    0    0  0.23292127878E+00  0.20769251111E+01 -0.34928874683E+01  0.40703972000E+01  0.51100000000E-03 0.  1.
        -12    1    3    3    0    0  0.22050303942E+01 -0.18161967710E+02 -0.59276678383E+01  0.19231652975E+02  0.00000000000E+00 0.  1.
</event>
<event>
 7    1  0.2702714E-011  0.5052887E+02  0.7816164E-02  0.1300439E+00
        -11   -1    0    0    0    0  0.00000000000E+00  0.00000000000E+00  0.45593999997E+02  0.45594000000E+02  0.51100000000E-03 0. -1.
         11   -1    0    0    0    0 -0.00000000000E+00 -0.00000000000E+00 -0.45593999997E+02  0.45594000000E+02  0.51100000000E-03 0.  1.
    9900012    2    1    2    0    0 -0.22468325185E+02  0.33593402636E+02 -0.44522671792E+01  0.50528867934E+02  0.30000024572E+02 0.  0.
        -12    1    1    2    0    0  0.22468325185E+02 -0.33593402636E+02  0.44522671792E+01  0.40659132066E+02  0.00000000000E+00 0.  1.
         11    1    3    3    0    0 -0.17175375561E+02  0.15117696234E+02  0.83016804278E+00  0.22896013721E+02  0.51100000000E-03 0. -1.
        -11    1    3    3    0    0 -0.11124383774E+02  0.13253303430E+02 -0.83656916449E+01  0.19219437118E+02  0.51100000000E-03 0.  1.
        -12    1    3    3    0    0  0.58314341496E+01  0.52224029720E+01  0.30832564230E+01  0.84134170949E+01  0.00000000000E+00 0.  1.
</event>
<event>
 7    1  0.2702714E-011  0.5052887E+02  0.7816164E-02  0.1300439E+00
        -11   -1    0    0    0    0  0.00000000000E+00  0.00000000000E+00  0.45593999997E+02  0.45594000000E+02  0.51100000000E-03 0.  1.
         11   -1    0    0    0    0 -0.00000000000E+00 -0.00000000000E+00 -0.45593999997E+02  0.45594000000E+02  0.51100000000E-03 0. -1.
    9900012    2    1    2    0    0  0.10327978540E+02 -0.32809771108E+02 -0.21679863062E+02  0.50528872079E+02  0.30000037172E+02 0.  0.
        -12    1    1    2    0    0 -0.10327978540E+02  0.32809771108E+02  0.21679863062E+02  0.40659127921E+02  0.00000000000E+00 0.  1.
         11    1    3    3    0    0  0.23297175354E+01  0.36771422297E+01 -0.64913286156E+01  0.78157729131E+01  0.51100000000E-03 0. -1.
        -11    1    3    3    0    0 -0.20555345417E+01 -0.28702297358E+01  0.15277337580E+01  0.38467403973E+01  0.51100000000E-03 0.  1.
         12    1    3    3    0    0  0.10053795546E+02 -0.33616683602E+02 -0.16716268205E+02  0.38866358769E+02  0.00000000000E+00 0. -1.
</event>
<event>
 7    1  0.2702714E-011  0.5052886E+02  0.7816164E-02  0.1300439E+00
        -11   -1    0    0    0    0  0.00000000000E+00  0.00000000000E+00  0.45593999997E+02  0.45594000000E+02  0.51100000000E-03 0. -1.
         11   -1    0    0    0    0 -0.00000000000E+00 -0.00000000000E+00 -0.45593999997E+02  0.45594000000E+02  0.51100000000E-03 0.  1.
    9900012    2    1    2    0    0 -0.23734453651E+02 -0.32988534530E+02 -0.12640607762E+01  0.50528861418E+02  0.30000004766E+02 0.  0.
        -12    1    1    2    0    0  0.23734453651E+02  0.32988534530E+02  0.12640607762E+01  0.40659138582E+02  0.00000000000E+00 0.  1.
         11    1    3    3    0    0 -0.87847866757E+01 -0.57843667602E+01  0.47515495214E+01  0.11541602959E+02  0.51100000000E-03 0. -1.
        -11    1    3    3    0    0  0.20758689510E+01 -0.17269777559E+02  0.23908113145E+01  0.17557631612E+02  0.51100000000E-03 0.  1.
         12    1    3    3    0    0 -0.17025535926E+02 -0.99343902114E+01 -0.84064216121E+01  0.21429626846E+02  0.00000000000E+00 0. -1.
</event>
<event>
 7    1  0.2702714E-011  0.5052886E+02  0.7816164E-02  0.1300439E+00
        -11   -1    0    0    0    0  0.00000000000E+00  0.00000000000E+00  0.45593999997E+02  0.45594000000E+02  0.51100000000E-03 0.  1.
         11   -1    0    0    0    0 -0.00000000000E+00 -0.00000000000E+00 -0.45593999997E+02  0.45594000000E+02  0.51100000000E-03 0. -1.
    9900012    2    1    2    0    0 -0.97416769659E+01  0.11311413798E+02 -0.37819536169E+02  0.50528859966E+02  0.30000000354E+02 0.  0.
        -12    1    1    2    0    0  0.97416769659E+01 -0.11311413798E+02  0.37819536169E+02  0.40659140034E+02  0.00000000000E+00 0.  1.
         11    1    3    3    0    0 -0.39331807581E+01  0.28502205967E+01 -0.70171606994E+01  0.85342962726E+01  0.51100000000E-03 0. -1.
        -11    1    3    3    0    0  0.67569496712E+01  0.12906937791E+02 -0.11615415878E+02  0.18632318650E+02  0.51100000000E-03 0.  1.
         12    1    3    3    0    0 -0.12565445879E+02 -0.44457445896E+01 -0.19186959592E+02  0.23362245044E+02  0.00000000000E+00 0. -1.
</event>
<event>
 7    1  0.2702714E-011  0.5052887E+02  0.7816164E-02  0.1300439E+00
        -11   -1    0    0    0    0  0.00000000000E+00  0.00000000000E+00  0.45593999997E+02  0.45594000000E+02  0.51100000000E-03 0.  1.
         11   -1    0    0    0    0 -0.00000000000E+00 -0.00000000000E+00 -0.45593999997E+02  0.45594000000E+02  0.51100000000E-03 0. -1.
    9900012    2    1    2    0    0 -0.30649717216E+02  0.50862159602E+01 -0.26227666284E+02  0.50528865271E+02  0.30000016477E+02 0.  0.
        -12    1    1    2    0    0  0.30649717216E+02 -0.50862159602E+01  0.26227666284E+02  0.40659134729E+02  0.00000000000E+00 0.  1.
         11    1    3    3    0    0 -0.10513342320E+02  0.65049058225E+01 -0.12442668786E+01  0.12425472499E+02  0.51100000000E-03 0. -1.
        -11    1    3    3    0    0 -0.99595234408E+01 -0.83272437507E+01 -0.36625453042E+01  0.13488859626E+02  0.51100000000E-03 0.  1.
         12    1    3    3    0    0 -0.10176851455E+02  0.69085538884E+01 -0.21320854101E+02  0.24614533145E+02  0.00000000000E+00 0. -1.
</event>
<event>
 7    1  0.2702714E-011  0.5052886E+02  0.7816164E-02  0.1300439E+00
        -11   -1    0    0    0    0  0.00000000000E+00  0.00000000000E+00  0.45593999997E+02  0.45594000000E+02  0.51100000000E-03 0. -1.
         11   -1    0    0    0    0 -0.00000000000E+00 -0.00000000000E+00 -0.45593999997E+02  0.45594000000E+02  0.51100000000E-03 0.  1.
    9900012    2    1    2    0    0  0.30644662092E+02 -0.23887114853E+02 -0.11978148024E+02  0.50528860796E+02  0.30000002875E+02 0.  0.
        -12    1    1    2    0    0 -0.30644662092E+02  0.23887114853E+02  0.11978148024E+02  0.40659139204E+02  0.00000000000E+00 0.  1.
         11    1    3    3    0    0  0.13950802556E+02 -0.11493494913E+02 -0.20349910448E+02  0.27218452799E+02  0.51100000000E-03 0. -1.
        -11    1    3    3    0    0  0.43406270919E+01 -0.41331130538E+01  0.55816023196E+01  0.81901130506E+01  0.51100000000E-03 0.  1.
        -12    1    3    3    0    0  0.12353232444E+02 -0.82605068861E+01  0.27901601047E+01  0.15120294946E+02  0.00000000000E+00 0.  1.
</event>
<event>
 7    1  0.2702714E-011  0.5052879E+02  0.7816164E-02  0.1300439E+00
        -11   -1    0    0    0    0  0.00000000000E+00  0.00000000000E+00  0.45593999997E+02  0.45594000000E+02  0.51100000000E-03 0.  1.
         11   -1    0    0    0    0 -0.00000000000E+00 -0.00000000000E+00 -0.45593999997E+02  0.45594000000E+02  0.51100000000E-03 0. -1.
    9900012    2    1    2    0    0  0.12007507458E+02 -0.15427288749E+02 -0.35650948713E+02  0.50528786805E+02  0.29999777972E+02 0.  0.
        -12    1    1    2    0    0 -0.12007507458E+02  0.15427288749E+02  0.35650948713E+02  0.40659213195E+02  0.00000000000E+00 0.  1.
         11    1    3    3    0    0  0.46178100482E+01  0.56802687808E+01 -0.28369437537E+01  0.78509791228E+01  0.51100000000E-03 0. -1.
        -11    1    3    3    0    0 -0.34394313417E+01 -0.83886895787E+01 -0.18805498328E+02  0.20876938675E+02  0.51100000000E-03 0.  1.
         12    1    3    3    0    0  0.10829128751E+02 -0.12718867951E+02 -0.14008506631E+02  0.21800869008E+02  0.00000000000E+00 0. -1.
</event>
<event>
 7    1  0.2702714E-011  0.5052886E+02  0.7816164E-02  0.1300439E+00
        -11   -1    0    0    0    0  0.00000000000E+00  0.00000000000E+00  0.45593999997E+02  0.45594000000E+02  0.51100000000E-03 0. -1.
         11   -1    0    0    0    0 -0.00000000000E+00 -0.00000000000E+00 -0.45593999997E+02  0.45594000000E+02  0.51100000000E-03 0.  1.
    9900012    2    1    2    0    0  0.53418479421E+01 -0.18893894430E+02  0.35604093109E+02  0.50528855490E+02  0.29999986748E+02 0.  0.
        -12    1    1    2    0    0 -0.53418479421E+01  0.18893894430E+02 -0.35604093109E+02  0.40659144510E+02  0.00000000000E+00 0.  1.
         11    1    3    3    0    0  0.69252839092E+01 -0.20878355416E+01  0.16499346428E+02  0.18015189349E+02  0.51100000000E-03 0. -1.
        -11    1    3    3    0    0 -0.46376619461E+01 -0.56730041650E+01 -0.27263051403E+01  0.78181599217E+01  0.51100000000E-03 0.  1.
         12    1    3    3    0    0  0.30542259791E+01 -0.11133054723E+02  0.21831051821E+02  0.24695506219E+02  0.00000000000E+00 0. -1.
</event>
<event>
 7    1  0.2702714E-011  0.5052886E+02  0.7816164E-02  0.1300439E+00
        -11   -1    0    0    0    0  0.00000000000E+00  0.00000000000E+00  0.45593999997E+02  0.45594000000E+02  0.51100000000E-03 0.  1.
         11   -1    0    0    0    0 -0.00000000000E+00 -0.00000000000E+00 -0.45593999997E+02  0.45594000000E+02  0.51100000000E-03 0. -1.
    9900012    2    1    2    0    0 -0.21964213894E+02  0.77731015135E+01 -0.33321437255E+02  0.50528856135E+02  0.29999988707E+02 0.  0.
        -12    1    1    2    0    0  0.21964213894E+02 -0.77731015135E+01  0.33321437255E+02  0.40659143865E+02  0.00000000000E+00 0.  1.
         11    1    3    3    0    0 -0.54282624884E+01  0.84277893985E+00 -0.15557624638E+02  0.16498969502E+02  0.51100000000E-03 0. -1.
        -11    1    3    3    0    0 -0.18883721001E+02  0.13708583343E+01 -0.20049768176E+02  0.27576572948E+02  0.51100000000E-03 0.  1.
        -12    1    3    3    0    0  0.23477695950E+01  0.55594642393E+01  0.22859555585E+01  0.64533136848E+01  0.00000000000E+00 0.  1.
</event>
<event>
 7    1  0.2702714E-011  0.5052888E+02  0.7816164E-02  0.1300439E+00
        -11   -1    0    0    0    0  0.00000000000E+00  0.00000000000E+00  0.45593999997E+02  0.45594000000E+02  0.51100000000E-03 0. -1.
         11   -1    0    0    0    0 -0.00000000000E+00 -0.00000000000E+00 -0.45593999997E+02  0.45594000000E+02  0.51100000000E-03 0.  1.
    9900012    2    1    2    0    0  0.19502474408E+02 -0.30989683141E+02  0.17676444922E+02  0.50528884487E+02  0.30000074886E+02 0.  0.
        -12    1    1    2    0    0 -0.19502474408E+02  0.30989683141E+02 -0.17676444922E+02  0.40659115513E+02  0.00000000000E+00 0.  1.
         11    1    3    3    0    0  0.69205161796E+01 -0.28746526268E+01  0.87727561976E+01  0.11537695761E+02  0.51100000000E-03 0. -1.
        -11    1    3    3    0    0 -0.64524285091E+01 -0.69629627461E+01  0.26616577046E+01  0.98590621190E+01  0.51100000000E-03 0.  1.
        -12    1    3    3    0    0  0.19034386738E+02 -0.21152067768E+02  0.62420310197E+01  0.29132126606E+02  0.00000000000E+00 0.  1.
</event>
<event>
 7    1  0.2702714E-011  0.5052891E+02  0.7816164E-02  0.1300439E+00
        -11   -1    0    0    0    0  0.00000000000E+00  0.00000000000E+00  0.45593999997E+02  0.45594000000E+02  0.51100000000E-03 0. -1.
         11   -1    0    0    0    0 -0.00000000000E+00 -0.00000000000E+00 -0.45593999997E+02  0.45594000000E+02  0.51100000000E-03 0.  1.
    9900012    2    1    2    0    0  0.24407022516E+01  0.38938687153E+02  0.11444778032E+02  0.50528913330E+02  0.30000162557E+02 0.  0.
        -12    1    1    2    0    0 -0.24407022516E+01 -0.38938687153E+02 -0.11444778032E+02  0.40659086670E+02  0.00000000000E+00 0.  1.
         11    1    3    3    0    0  0.11497666832E+01  0.18779937089E+02  0.17264723817E+02  0.25535831477E+02  0.51100000000E-03 0. -1.
        -11    1    3    3    0    0  0.53313177079E+01  0.35137650597E+01 -0.45049148141E+01  0.78143298587E+01  0.51100000000E-03 0.  1.
        -12    1    3    3    0    0 -0.40403821395E+01  0.16644985004E+02 -0.13150309709E+01  0.17178751994E+02  0.00000000000E+00 0.  1.
</event>
<event>
 7    1  0.2702714E-011  0.5052886E+02  0.7816164E-02  0.1300439E+00
        -11   -1    0    0    0    0  0.00000000000E+00  0.00000000000E+00  0.45593999997E+02  0.45594000000E+02  0.51100000000E-03 0.  1.
         11   -1    0    0    0    0 -0.00000000000E+00 -0.00000000000E+00 -0.45593999997E+02  0.45594000000E+02  0.51100000000E-03 0. -1.
    9900012    2    1    2    0    0 -0.33700840845E+02 -0.37549219019E+01 -0.22434785621E+02  0.50528859355E+02  0.29999998495E+02 0.  0.
        -12    1    1    2    0    0  0.33700840845E+02  0.37549219019E+01  0.22434785621E+02  0.40659140645E+02  0.00000000000E+00 0.  1.
         11    1    3    3    0    0 -0.11073781414E+02 -0.46373612399E+01 -0.15462881600E+02  0.19576375091E+02  0.51100000000E-03 0. -1.
        -11    1    3    3    0    0 -0.52073750061E+00  0.70809506015E+01 -0.59785338426E+00  0.71251987969E+01  0.51100000000E-03 0.  1.
         12    1    3    3    0    0 -0.22106321931E+02 -0.61985112634E+01 -0.63740506363E+01  0.23827285467E+02  0.00000000000E+00 0. -1.
</event>
<event>
 7    1  0.2702714E-011  0.5052882E+02  0.7816164E-02  0.1300439E+00
        -11   -1    0    0    0    0  0.00000000000E+00  0.00000000000E+00  0.45593999997E+02  0.45594000000E+02  0.51100000000E-03 0.  1.
         11   -1    0    0    0    0 -0.00000000000E+00 -0.00000000000E+00 -0.45593999997E+02  0.45594000000E+02  0.51100000000E-03 0. -1.
    9900012    2    1    2    0    0  0.24144758083E+02 -0.12934644174E+02 -0.30048197930E+02  0.50528824386E+02  0.29999892203E+02 0.  0.
        -12    1    1    2    0    0 -0.24144758083E+02  0.12934644174E+02  0.30048197930E+02  0.40659175614E+02  0.00000000000E+00 0.  1.
         11    1    3    3    0    0  0.80100332522E+01 -0.14216813963E+02 -0.41745304661E+01  0.16843548819E+02  0.51100000000E-03 0. -1.
        -11    1    3    3    0    0  0.10110451624E+02 -0.56579771147E+01 -0.18819700243E+02  0.22100114357E+02  0.51100000000E-03 0.  1.
        -12    1    3    3    0    0  0.60242732072E+01  0.69401469033E+01 -0.70539672204E+01  0.11585161210E+02  0.00000000000E+00 0.  1.
</event>
<event>
 7    1  0.2702714E-011  0.5052886E+02  0.7816164E-02  0.1300439E+00
        -11   -1    0    0    0    0  0.00000000000E+00  0.00000000000E+00  0.45593999997E+02  0.45594000000E+02  0.51100000000E-03 0.  1.
         11   -1    0    0    0    0 -0.00000000000E+00 -0.00000000000E+00 -0.45593999997E+02  0.45594000000E+02  0.51100000000E-03 0. -1.
    9900012    2    1    2    0    0 -0.13027441042E+02 -0.28295048226E+02 -0.26131244175E+02  0.50528857162E+02  0.29999991828E+02 0.  0.
        -12    1    1    2    0    0  0.13027441042E+02  0.28295048226E+02  0.26131244175E+02  0.40659142838E+02  0.00000000000E+00 0.  1.
         11    1    3    3    0    0 -0.16035511397E+01 -0.83030129340E+01 -0.12833012106E+02  0.15368721483E+02  0.51100000000E-03 0. -1.
        -11    1    3    3    0    0  0.15039166214E+01  0.43133671700E+01 -0.40895448487E+01  0.61311727164E+01  0.51100000000E-03 0.  1.
         12    1    3    3    0    0 -0.12927806524E+02 -0.24305402462E+02 -0.92086872205E+01  0.29028962962E+02  0.00000000000E+00 0. -1.
</event>
<event>
 7    1  0.2702714E-011  0.5052886E+02  0.7816164E-02  0.1300439E+00
        -11   -1    0    0    0    0  0.00000000000E+00  0.00000000000E+00  0.45593999997E+02  0.45594000000E+02  0.51100000000E-03 0.  1.
         11   -1    0    0    0    0 -0.00000000000E+00 -0.00000000000E+00 -0.45593999997E+02  0.45594000000E+02  0.51100000000E-03 0. -1.
    9900012    2    1    2    0    0  0.11128831175E+02 -0.97663752202E+01 -0.37867298659E+02  0.50528864790E+02  0.30000015017E+02 0.  0.
        -12    1    1    2    0    0 -0.11128831175E+02  0.97663752202E+01  0.37867298659E+02  0.40659135210E+02  0.00000000000E+00 0.  1.
         11    1    3    3    0    0 -0.62206718059E+01 -0.38156979646E+01 -0.18019462641E+02  0.19441125039E+02  0.51100000000E-03 0. -1.
        -11    1    3    3    0    0  0.35372293519E+01 -0.89097675101E+01 -0.60154908292E+01  0.11317335320E+02  0.51100000000E-03 0.  1.
        -12    1    3    3    0    0  0.13812273629E+02  0.29590902545E+01 -0.13832345189E+02  0.19770404431E+02  0.00000000000E+00 0.  1.
</event>
<event>
 7    1  0.2702714E-011  0.5052886E+02  0.7816164E-02  0.1300439E+00
        -11   -1    0    0    0    0  0.00000000000E+00  0.00000000000E+00  0.45593999997E+02  0.45594000000E+02  0.51100000000E-03 0.  1.
         11   -1    0    0    0    0 -0.00000000000E+00 -0.00000000000E+00 -0.45593999997E+02  0.45594000000E+02  0.51100000000E-03 0. -1.
    9900012    2    1    2    0    0  0.27554574385E+02 -0.24944548794E+02 -0.16482742892E+02  0.50528857149E+02  0.29999991791E+02 0.  0.
        -12    1    1    2    0    0 -0.27554574385E+02  0.24944548794E+02  0.16482742892E+02  0.40659142851E+02  0.00000000000E+00 0.  1.
         11    1    3    3    0    0  0.77993788528E+01 -0.41473260761E+01 -0.10486171855E+02  0.13710960014E+02  0.51100000000E-03 0.  1.
        -11    1    3    3    0    0  0.20200024096E+02 -0.20116175705E+02 -0.11875830753E+02  0.30882630309E+02  0.51100000000E-03 0. -1.
         12    1    3    3    0    0 -0.44482856329E+00 -0.68104701321E+00  0.58792597163E+01  0.59352668261E+01  0.00000000000E+00 0. -1.
</event>
<event>
 7    1  0.3275223E-011  0.5052885E+02  0.7816164E-02  0.1300439E+00
        -11   -1    0    0    0    0  0.00000000000E+00  0.00000000000E+00  0.45593999997E+02  0.45594000000E+02  0.51100000000E-03 0. -1.
         11   -1    0    0    0    0 -0.00000000000E+00 -0.00000000000E+00 -0.45593999997E+02  0.45594000000E+02  0.51100000000E-03 0.  1.
    9900012    2    1    2    0    0 -0.32661948036E+02 -0.27360121775E+01  0.24059873084E+02  0.50528854596E+02  0.29999984031E+02 0.  0.
        -12    1    1    2    0    0  0.32661948036E+02  0.27360121775E+01 -0.24059873084E+02  0.40659145404E+02  0.00000000000E+00 0.  1.
         11    1    3    3    0    0 -0.44782009134E+01 -0.22603525345E+01  0.18908228735E+02  0.19562325812E+02  0.51100000000E-03 0. -1.
        -11    1    3    3    0    0 -0.14315490549E+02 -0.59042972349E+01  0.41924030533E+01  0.16042762827E+02  0.51100000000E-03 0.  1.
        -12    1    3    3    0    0 -0.13868256574E+02  0.54286375919E+01  0.95924129574E+00  0.14923765958E+02  0.00000000000E+00 0.  1.
</event>
<event>
 7    1  0.2702714E-011  0.5052886E+02  0.7816164E-02  0.1300439E+00
        -11   -1    0    0    0    0  0.00000000000E+00  0.00000000000E+00  0.45593999997E+02  0.45594000000E+02  0.51100000000E-03 0.  1.
         11   -1    0    0    0    0 -0.00000000000E+00 -0.00000000000E+00 -0.45593999997E+02  0.45594000000E+02  0.51100000000E-03 0. -1.
    9900012    2    1    2    0    0 -0.73920601560E+01  0.15228899086E+02 -0.36967599223E+02  0.50528864335E+02  0.30000013633E+02 0.  0.
        -12    1    1    2    0    0  0.73920601560E+01 -0.15228899086E+02  0.36967599223E+02  0.40659135665E+02  0.00000000000E+00 0.  1.
         11    1    3    3    0    0 -0.90498012490E+01  0.13171653968E+02 -0.17599740988E+02  0.23772720795E+02  0.51100000000E-03 0. -1.
        -11    1    3    3    0    0  0.40394370152E+01  0.94406319438E+01 -0.13825726488E+02  0.17221884220E+02  0.51100000000E-03 0.  1.
        -12    1    3    3    0    0 -0.23816959223E+01 -0.73833868257E+01 -0.55421317461E+01  0.95342593197E+01  0.00000000000E+00 0.  1.
</event>
<event>
 7    1  0.2702714E-011  0.5052887E+02  0.7816164E-02  0.1300439E+00
        -11   -1    0    0    0    0  0.00000000000E+00  0.00000000000E+00  0.45593999997E+02  0.45594000000E+02  0.51100000000E-03 0. -1.
         11   -1    0    0    0    0 -0.00000000000E+00 -0.00000000000E+00 -0.45593999997E+02  0.45594000000E+02  0.51100000000E-03 0.  1.
    9900012    2    1    2    0    0  0.38989576600E+02 -0.10621013517E+02  0.44913086256E+01  0.50528869847E+02  0.30000030387E+02 0.  0.
        -12    1    1    2    0    0 -0.38989576600E+02  0.10621013517E+02 -0.44913086256E+01  0.40659130153E+02  0.00000000000E+00 0.  1.
         11    1    3    3    0    0  0.54731675834E+01  0.32080162755E+01  0.26088636167E+01  0.68595263285E+01  0.51100000000E-03 0. -1.
        -11    1    3    3    0    0  0.35915499790E+02 -0.11142383094E+02  0.61296025442E+01  0.38100496766E+02  0.51100000000E-03 0.  1.
         12    1    3    3    0    0 -0.23990907734E+01 -0.26866466991E+01 -0.42471575353E+01  0.55688467526E+01  0.00000000000E+00 0. -1.
</event>
<event>
 7    1  0.2702714E-011  0.5052882E+02  0.7816164E-02  0.1300439E+00
        -11   -1    0    0    0    0  0.00000000000E+00  0.00000000000E+00  0.45593999997E+02  0.45594000000E+02  0.51100000000E-03 0.  1.
         11   -1    0    0    0    0 -0.00000000000E+00 -0.00000000000E+00 -0.45593999997E+02  0.45594000000E+02  0.51100000000E-03 0. -1.
    9900012    2    1    2    0    0  0.74535066722E+01 -0.38415754894E+02 -0.11038306184E+02  0.50528816669E+02  0.29999868745E+02 0.  0.
        -12    1    1    2    0    0 -0.74535066722E+01  0.38415754894E+02  0.11038306184E+02  0.40659183331E+02  0.00000000000E+00 0.  1.
         11    1    3    3    0    0 -0.82576023082E+00 -0.49960146479E+01 -0.87994874494E+01  0.10152488461E+02  0.51100000000E-03 0. -1.
        -11    1    3    3    0    0  0.11921779365E+02 -0.84514101152E+01 -0.37870305454E+01  0.15096249759E+02  0.51100000000E-03 0.  1.
         12    1    3    3    0    0 -0.36425124621E+01 -0.24968330131E+02  0.15482118111E+01  0.25280078449E+02  0.00000000000E+00 0. -1.
</event>
<event>
 7    1  0.2702714E-011  0.5052885E+02  0.7816164E-02  0.1300439E+00
        -11   -1    0    0    0    0  0.00000000000E+00  0.00000000000E+00  0.45593999997E+02  0.45594000000E+02  0.51100000000E-03 0.  1.
         11   -1    0    0    0    0 -0.00000000000E+00 -0.00000000000E+00 -0.45593999997E+02  0.45594000000E+02  0.51100000000E-03 0. -1.
    9900012    2    1    2    0    0  0.27793207010E+02 -0.14796603244E+02 -0.25724786786E+02  0.50528850001E+02  0.29999970063E+02 0.  0.
        -12    1    1    2    0    0 -0.27793207010E+02  0.14796603244E+02  0.25724786786E+02  0.40659149999E+02  0.00000000000E+00 0.  1.
         11    1    3    3    0    0  0.13885415791E+00  0.17414363194E+01  0.15189124066E+01  0.23149462395E+01  0.51100000000E-03 0. -1.
        -11    1    3    3    0    0  0.71377004932E+01 -0.13700063598E+02 -0.20250947947E+01  0.15580100131E+02  0.51100000000E-03 0.  1.
         12    1    3    3    0    0  0.20516652359E+02 -0.28379759662E+01 -0.25218604398E+02  0.32633803630E+02  0.00000000000E+00 0. -1.
</event>
<event>
 7    1  0.2702714E-011  0.5052886E+02  0.7816164E-02  0.1300439E+00
        -11   -1    0    0    0    0  0.00000000000E+00  0.00000000000E+00  0.45593999997E+02  0.45594000000E+02  0.51100000000E-03 0.  1.
         11   -1    0    0    0    0 -0.00000000000E+00 -0.00000000000E+00 -0.45593999997E+02  0.45594000000E+02  0.51100000000E-03 0. -1.
    9900012    2    1    2    0    0 -0.20053436958E+02  0.12413469380E+02 -0.33119950458E+02  0.50528859893E+02  0.30000000131E+02 0.  0.
        -12    1    1    2    0    0  0.20053436958E+02 -0.12413469380E+02  0.33119950458E+02  0.40659140107E+02  0.00000000000E+00 0.  1.
         11    1    3    3    0    0 -0.33348663329E+01 -0.46001984179E+01 -0.10428455744E+01  0.57767366303E+01  0.51100000000E-03 0. -1.
        -11    1    3    3    0    0 -0.38440762683E+01 -0.11348596714E+01 -0.17956765857E+02  0.18398648568E+02  0.51100000000E-03 0.  1.
         12    1    3    3    0    0 -0.12874494357E+02  0.18148527469E+02 -0.14120339027E+02  0.26353474694E+02  0.00000000000E+00 0. -1.
</event>
<event>
 7    1  0.2702714E-011  0.5052886E+02  0.7816164E-02  0.1300439E+00
        -11   -1    0    0    0    0  0.00000000000E+00  0.00000000000E+00  0.45593999997E+02  0.45594000000E+02  0.51100000000E-03 0.  1.
         11   -1    0    0    0    0 -0.00000000000E+00 -0.00000000000E+00 -0.45593999997E+02  0.45594000000E+02  0.51100000000E-03 0. -1.
    9900012    2    1    2    0    0 -0.18817264187E+02  0.33635015848E+02 -0.12952297063E+02  0.50528859308E+02  0.29999998352E+02 0.  0.
        -12    1    1    2    0    0  0.18817264187E+02 -0.33635015848E+02  0.12952297063E+02  0.40659140692E+02  0.00000000000E+00 0.  1.
         11    1    3    3    0    0 -0.10936931115E+02  0.11186396663E+01 -0.46545004840E+01  0.11938684682E+02  0.51100000000E-03 0. -1.
        -11    1    3    3    0    0  0.24468539941E+01  0.17886627999E+01  0.29966836402E+01  0.42622203346E+01  0.51100000000E-03 0.  1.
        -12    1    3    3    0    0 -0.10327187066E+02  0.30727713382E+02 -0.11294480220E+02  0.34327954291E+02  0.00000000000E+00 0.  1.
</event>
<event>
 7    1  0.2702714E-011  0.5052887E+02  0.7816164E-02  0.1300439E+00
        -11   -1    0    0    0    0  0.00000000000E+00  0.00000000000E+00  0.45593999997E+02  0.45594000000E+02  0.51100000000E-03 0.  1.
         11   -1    0    0    0    0 -0.00000000000E+00 -0.00000000000E+00 -0.45593999997E+02  0.45594000000E+02  0.51100000000E-03 0. -1.
    9900012    2    1    2    0    0 -0.21750797709E+02 -0.23906883070E+02 -0.24668377193E+02  0.50528867047E+02  0.30000021877E+02 0.  0.
        -12    1    1    2    0    0  0.21750797709E+02  0.23906883070E+02  0.24668377193E+02  0.40659132953E+02  0.00000000000E+00 0.  1.
         11    1    3    3    0    0 -0.19616907680E+02 -0.72006836763E+01 -0.12231800612E+02  0.24213423112E+02  0.51100000000E-03 0. -1.
        -11    1    3    3    0    0 -0.50233680626E+01 -0.51309906230E+01  0.21270485560E+01  0.74890338019E+01  0.51100000000E-03 0.  1.
         12    1    3    3    0    0  0.28894780331E+01 -0.11575208771E+02 -0.14563625137E+02  0.18826410134E+02  0.00000000000E+00 0. -1.
</event>
<event>
 7    1  0.2702714E-011  0.5052886E+02  0.7816164E-02  0.1300439E+00
        -11   -1    0    0    0    0  0.00000000000E+00  0.00000000000E+00  0.45593999997E+02  0.45594000000E+02  0.51100000000E-03 0.  1.
         11   -1    0    0    0    0 -0.00000000000E+00 -0.00000000000E+00 -0.45593999997E+02  0.45594000000E+02  0.51100000000E-03 0. -1.
    9900012    2    1    2    0    0 -0.30423348214E+02 -0.90842088495E+01 -0.25398087468E+02  0.50528858174E+02  0.29999994907E+02 0.  0.
        -12    1    1    2    0    0  0.30423348214E+02  0.90842088495E+01  0.25398087468E+02  0.40659141826E+02  0.00000000000E+00 0.  1.
         11    1    3    3    0    0 -0.52956695721E-01  0.36859216467E+01 -0.30723682523E+01  0.47987779420E+01  0.51100000000E-03 0. -1.
        -11    1    3    3    0    0  0.46917566135E+00 -0.71418910290E+01  0.14624706843E+00  0.71587793469E+01  0.51100000000E-03 0.  1.
         12    1    3    3    0    0 -0.30839567179E+02 -0.56282394672E+01 -0.22471966284E+02  0.38571300885E+02  0.00000000000E+00 0. -1.
</event>
<event>
 7    1  0.2702714E-011  0.5052886E+02  0.7816164E-02  0.1300439E+00
        -11   -1    0    0    0    0  0.00000000000E+00  0.00000000000E+00  0.45593999997E+02  0.45594000000E+02  0.51100000000E-03 0. -1.
         11   -1    0    0    0    0 -0.00000000000E+00 -0.00000000000E+00 -0.45593999997E+02  0.45594000000E+02  0.51100000000E-03 0.  1.
    9900012    2    1    2    0    0  0.33290396288E+02  0.16691118721E+02  0.16319366371E+02  0.50528860217E+02  0.30000001115E+02 0.  0.
        -12    1    1    2    0    0 -0.33290396288E+02 -0.16691118721E+02 -0.16319366371E+02  0.40659139783E+02  0.00000000000E+00 0.  1.
         11    1    3    3    0    0  0.89494875728E+01  0.73859781513E+01  0.13636669213E+02  0.17905439077E+02  0.51100000000E-03 0. -1.
        -11    1    3    3    0    0  0.11891111711E+02  0.14670881201E+02  0.49537745674E+00  0.18891233205E+02  0.51100000000E-03 0.  1.
         12    1    3    3    0    0  0.12449797004E+02 -0.53657406316E+01  0.21873197006E+01  0.13732187934E+02  0.00000000000E+00 0. -1.
</event>
<event>
 7    1  0.2702714E-011  0.5052886E+02  0.7816164E-02  0.1300439E+00
        -11   -1    0    0    0    0  0.00000000000E+00  0.00000000000E+00  0.45593999997E+02  0.45594000000E+02  0.51100000000E-03 0. -1.
         11   -1    0    0    0    0 -0.00000000000E+00 -0.00000000000E+00 -0.45593999997E+02  0.45594000000E+02  0.51100000000E-03 0.  1.
    9900012    2    1    2    0    0 -0.19580692779E+02 -0.35111432963E+02  0.60786146229E+01  0.50528858222E+02  0.29999995051E+02 0.  0.
        -12    1    1    2    0    0  0.19580692779E+02  0.35111432963E+02 -0.60786146229E+01  0.40659141778E+02  0.00000000000E+00 0.  1.
         11    1    3    3    0    0 -0.11217347246E+02 -0.10711380151E+02  0.11622454341E+02  0.19381537326E+02  0.51100000000E-03 0. -1.
        -11    1    3    3    0    0 -0.12462019914E+02 -0.11127829412E+02 -0.39300371440E+01  0.17163208324E+02  0.51100000000E-03 0.  1.
         12    1    3    3    0    0  0.40986743802E+01 -0.13272223400E+02 -0.16138025745E+01  0.13984112571E+02  0.00000000000E+00 0. -1.
</event>
<event>
 7    1  0.2702714E-011  0.5052886E+02  0.7816164E-02  0.1300439E+00
        -11   -1    0    0    0    0  0.00000000000E+00  0.00000000000E+00  0.45593999997E+02  0.45594000000E+02  0.51100000000E-03 0. -1.
         11   -1    0    0    0    0 -0.00000000000E+00 -0.00000000000E+00 -0.45593999997E+02  0.45594000000E+02  0.51100000000E-03 0.  1.
    9900012    2    1    2    0    0 -0.36122817912E+02 -0.10927369044E+01  0.18630996101E+02  0.50528855105E+02  0.29999985577E+02 0.  0.
        -12    1    1    2    0    0  0.36122817912E+02  0.10927369044E+01 -0.18630996101E+02  0.40659144895E+02  0.00000000000E+00 0.  1.
         11    1    3    3    0    0  0.13717684910E+01  0.11005547333E+01 -0.66360383392E+00  0.18797180170E+01  0.51100000000E-03 0.  1.
        -11    1    3    3    0    0 -0.17167013134E+02  0.94422135595E+01  0.23337790770E+01  0.19730896125E+02  0.51100000000E-03 0. -1.
         12    1    3    3    0    0 -0.20327573269E+02 -0.11635505197E+02  0.16960820858E+02  0.28918240963E+02  0.00000000000E+00 0. -1.
</event>
<event>
 7    1  0.2702714E-011  0.5052886E+02  0.7816164E-02  0.1300439E+00
        -11   -1    0    0    0    0  0.00000000000E+00  0.00000000000E+00  0.45593999997E+02  0.45594000000E+02  0.51100000000E-03 0.  1.
         11   -1    0    0    0    0 -0.00000000000E+00 -0.00000000000E+00 -0.45593999997E+02  0.45594000000E+02  0.51100000000E-03 0. -1.
    9900012    2    1    2    0    0 -0.22611840275E+02  0.31654615718E+02  0.11826058394E+02  0.50528859896E+02  0.30000000140E+02 0.  0.
        -12    1    1    2    0    0  0.22611840275E+02 -0.31654615718E+02 -0.11826058394E+02  0.40659140104E+02  0.00000000000E+00 0.  1.
         11    1    3    3    0    0 -0.80603784595E+01  0.16913747069E+02 -0.41877206647E+00  0.18740862070E+02  0.51100000000E-03 0. -1.
        -11    1    3    3    0    0 -0.59618329306E+01  0.12251723273E+02 -0.31494979163E+01  0.13984545486E+02  0.51100000000E-03 0.  1.
        -12    1    3    3    0    0 -0.85896288845E+01  0.24891453759E+01  0.15394328377E+02  0.17803452341E+02  0.00000000000E+00 0.  1.
</event>
<event>
 7    1  0.2702714E-011  0.5052881E+02  0.7816164E-02  0.1300439E+00
        -11   -1    0    0    0    0  0.00000000000E+00  0.00000000000E+00  0.45593999997E+02  0.45594000000E+02  0.51100000000E-03 0. -1.
         11   -1    0    0    0    0 -0.00000000000E+00 -0.00000000000E+00 -0.45593999997E+02  0.45594000000E+02  0.51100000000E-03 0.  1.
    9900012    2    1    2    0    0 -0.10085096757E+02  0.36310703589E+02  0.15264106724E+02  0.50528814988E+02  0.29999863637E+02 0.  0.
        -12    1    1    2    0    0  0.10085096757E+02 -0.36310703589E+02 -0.15264106724E+02  0.40659185012E+02  0.00000000000E+00 0.  1.
         11    1    3    3    0    0  0.40529763127E+01  0.85949282526E+01  0.94041356373E+01  0.13369262358E+02  0.51100000000E-03 0. -1.
        -11    1    3    3    0    0 -0.51404940970E+01  0.31913171419E-01  0.61927288683E+01  0.80483283425E+01  0.51100000000E-03 0.  1.
        -12    1    3    3    0    0 -0.89975789728E+01  0.27683862165E+02 -0.33275778148E+00  0.29111224287E+02  0.00000000000E+00 0.  1.
</event>
<event>
 7    1  0.2702714E-011  0.5052886E+02  0.7816164E-02  0.1300439E+00
        -11   -1    0    0    0    0  0.00000000000E+00  0.00000000000E+00  0.45593999997E+02  0.45594000000E+02  0.51100000000E-03 0.  1.
         11   -1    0    0    0    0 -0.00000000000E+00 -0.00000000000E+00 -0.45593999997E+02  0.45594000000E+02  0.51100000000E-03 0. -1.
    9900012    2    1    2    0    0  0.94303627872E+01  0.39550059008E+02  0.16269560909E+00  0.50528863515E+02  0.30000011140E+02 0.  0.
        -12    1    1    2    0    0 -0.94303627872E+01 -0.39550059008E+02 -0.16269560909E+00  0.40659136485E+02  0.00000000000E+00 0.  1.
         11    1    3    3    0    0  0.43301712160E+00 -0.19120241734E+01  0.26726268295E-01  0.19606261300E+01  0.51100000000E-03 0. -1.
        -11    1    3    3    0    0  0.14889584084E+01  0.17118841907E+02 -0.11381311939E+02  0.20610822572E+02  0.51100000000E-03 0.  1.
        -12    1    3    3    0    0  0.75083872573E+01  0.24343241275E+02  0.11517281279E+02  0.27957414813E+02  0.00000000000E+00 0.  1.
</event>
<event>
 7    1  0.2702714E-011  0.5052887E+02  0.7816164E-02  0.1300439E+00
        -11   -1    0    0    0    0  0.00000000000E+00  0.00000000000E+00  0.45593999997E+02  0.45594000000E+02  0.51100000000E-03 0. -1.
         11   -1    0    0    0    0 -0.00000000000E+00 -0.00000000000E+00 -0.45593999997E+02  0.45594000000E+02  0.51100000000E-03 0.  1.
    9900012    2    1    2    0    0  0.83821452455E+01  0.32094096222E+02  0.23513270140E+02  0.50528865185E+02  0.30000016216E+02 0.  0.
        -12    1    1    2    0    0 -0.83821452455E+01 -0.32094096222E+02 -0.23513270140E+02  0.40659134815E+02  0.00000000000E+00 0.  1.
         11    1    3    3    0    0 -0.22320686918E+01  0.18734145343E+02  0.12657789780E+02  0.22719374436E+02  0.51100000000E-03 0. -1.
        -11    1    3    3    0    0 -0.22101866085E+01 -0.28603638423E+01  0.52703439750E+01  0.63908631679E+01  0.51100000000E-03 0.  1.
         12    1    3    3    0    0  0.12824400546E+02  0.16220314722E+02  0.55851363845E+01  0.21418627582E+02  0.00000000000E+00 0. -1.
</event>
<event>
 7    1  0.2702714E-011  0.5052887E+02  0.7816164E-02  0.1300439E+00
        -11   -1    0    0    0    0  0.00000000000E+00  0.00000000000E+00  0.45593999997E+02  0.45594000000E+02  0.51100000000E-03 0.  1.
         11   -1    0    0    0    0 -0.00000000000E+00 -0.00000000000E+00 -0.45593999997E+02  0.45594000000E+02  0.51100000000E-03 0. -1.
    9900012    2    1    2    0    0 -0.22047910920E+00 -0.40458670506E+02 -0.40264022387E+01  0.50528873778E+02  0.30000042336E+02 0.  0.
        -12    1    1    2    0    0  0.22047910920E+00  0.40458670506E+02  0.40264022387E+01  0.40659126222E+02  0.00000000000E+00 0.  1.
         11    1    3    3    0    0  0.37534265700E+01 -0.30248588394E+01 -0.53403614763E+01  0.71942645888E+01  0.51100000000E-03 0. -1.
        -11    1    3    3    0    0 -0.98049501134E+01 -0.66975378791E+01 -0.12793475674E+01  0.11942813355E+02  0.51100000000E-03 0.  1.
        -12    1    3    3    0    0  0.58310444341E+01 -0.30736273787E+02  0.25933068050E+01  0.31391795834E+02  0.00000000000E+00 0.  1.
</event>
<event>
 7    1  0.2702714E-011  0.5052886E+02  0.7816164E-02  0.1300439E+00
        -11   -1    0    0    0    0  0.00000000000E+00  0.00000000000E+00  0.45593999997E+02  0.45594000000E+02  0.51100000000E-03 0.  1.
         11   -1    0    0    0    0 -0.00000000000E+00 -0.00000000000E+00 -0.45593999997E+02  0.45594000000E+02  0.51100000000E-03 0. -1.
    9900012    2    1    2    0    0  0.39074613537E+02  0.98235818002E+01 -0.54623476826E+01  0.50528862963E+02  0.30000009461E+02 0.  0.
        -12    1    1    2    0    0 -0.39074613537E+02 -0.98235818002E+01  0.54623476826E+01  0.40659137037E+02  0.00000000000E+00 0.  1.
         11    1    3    3    0    0  0.15384795441E+02 -0.18146394865E+01  0.36138000202E+01  0.15907369301E+02  0.51100000000E-03 0. -1.
        -11    1    3    3    0    0  0.91639646952E+01  0.11580992580E+02  0.37571716754E+01  0.15238568743E+02  0.51100000000E-03 0.  1.
        -12    1    3    3    0    0  0.14525853401E+02  0.57228706530E-01 -0.12833319378E+02  0.19382924919E+02  0.00000000000E+00 0.  1.
</event>
<event>
 7    1  0.2702714E-011  0.5052886E+02  0.7816164E-02  0.1300439E+00
        -11   -1    0    0    0    0  0.00000000000E+00  0.00000000000E+00  0.45593999997E+02  0.45594000000E+02  0.51100000000E-03 0. -1.
         11   -1    0    0    0    0 -0.00000000000E+00 -0.00000000000E+00 -0.45593999997E+02  0.45594000000E+02  0.51100000000E-03 0.  1.
    9900012    2    1    2    0    0 -0.10703671215E+02 -0.71331049716E+01  0.38570924622E+02  0.50528856007E+02  0.29999988319E+02 0.  0.
        -12    1    1    2    0    0  0.10703671215E+02  0.71331049716E+01 -0.38570924622E+02  0.40659143993E+02  0.00000000000E+00 0.  1.
         11    1    3    3    0    0 -0.10056234493E+02  0.79849270265E-01  0.11898809118E+02  0.15579341667E+02  0.51100000000E-03 0. -1.
        -11    1    3    3    0    0 -0.47079698880E+01 -0.12273973802E+02  0.25005196212E+02  0.28250225684E+02  0.51100000000E-03 0.  1.
        -12    1    3    3    0    0  0.40605331653E+01  0.50610195599E+01  0.16669192920E+01  0.66992886561E+01  0.00000000000E+00 0.  1.
</event>
<event>
 7    1  0.2702714E-011  0.5052886E+02  0.7816164E-02  0.1300439E+00
        -11   -1    0    0    0    0  0.00000000000E+00  0.00000000000E+00  0.45593999997E+02  0.45594000000E+02  0.51100000000E-03 0. -1.
         11   -1    0    0    0    0 -0.00000000000E+00 -0.00000000000E+00 -0.45593999997E+02  0.45594000000E+02  0.51100000000E-03 0.  1.
    9900012    2    1    2    0    0  0.23371703341E+02 -0.69484399810E+01  0.32536879046E+02  0.50528857938E+02  0.29999994187E+02 0.  0.
        -12    1    1    2    0    0 -0.23371703341E+02  0.69484399810E+01 -0.32536879046E+02  0.40659142062E+02  0.00000000000E+00 0.  1.
         11    1    3    3    0    0  0.11080688768E+02 -0.92093160275E+01  0.26771215307E+02  0.30402156742E+02  0.51100000000E-03 0. -1.
        -11    1    3    3    0    0  0.60345961370E+01  0.43307731448E+01  0.98778740978E+01  0.12358978256E+02  0.51100000000E-03 0.  1.
         12    1    3    3    0    0  0.62564184355E+01 -0.20698970983E+01 -0.41122103593E+01  0.77677229403E+01  0.00000000000E+00 0. -1.
</event>
<event>
 7    1  0.2702714E-011  0.5052886E+02  0.7816164E-02  0.1300439E+00
        -11   -1    0    0    0    0  0.00000000000E+00  0.00000000000E+00  0.45593999997E+02  0.45594000000E+02  0.51100000000E-03 0.  1.
         11   -1    0    0    0    0 -0.00000000000E+00 -0.00000000000E+00 -0.45593999997E+02  0.45594000000E+02  0.51100000000E-03 0. -1.
    9900012    2    1    2    0    0  0.14915316713E+02 -0.35821274117E+02 -0.12146405815E+02  0.50528861713E+02  0.30000005663E+02 0.  0.
        -12    1    1    2    0    0 -0.14915316713E+02  0.35821274117E+02  0.12146405815E+02  0.40659138287E+02  0.00000000000E+00 0.  1.
         11    1    3    3    0    0  0.98009464353E+00  0.43198057169E+00 -0.33400588469E+01  0.35075897831E+01  0.51100000000E-03 0. -1.
        -11    1    3    3    0    0 -0.11449595734E+01 -0.14946377612E+01 -0.89358934673E+01  0.91320899460E+01  0.51100000000E-03 0.  1.
        -12    1    3    3    0    0  0.15080181642E+02 -0.34758616928E+02  0.12954649954E+00  0.37889181984E+02  0.00000000000E+00 0.  1.
</event>
<event>
 7    1  0.2702714E-011  0.5052882E+02  0.7816164E-02  0.1300439E+00
        -11   -1    0    0    0    0  0.00000000000E+00  0.00000000000E+00  0.45593999997E+02  0.45594000000E+02  0.51100000000E-03 0. -1.
         11   -1    0    0    0    0 -0.00000000000E+00 -0.00000000000E+00 -0.45593999997E+02  0.45594000000E+02  0.51100000000E-03 0.  1.
    9900012    2    1    2    0    0 -0.34284356096E+02 -0.10269732396E+02  0.19294683002E+02  0.50528815692E+02  0.29999865778E+02 0.  0.
        -12    1    1    2    0    0  0.34284356096E+02  0.10269732396E+02 -0.19294683002E+02  0.40659184308E+02  0.00000000000E+00 0.  1.
         11    1    3    3    0    0 -0.89226349273E+01 -0.83486298804E+01  0.92112326555E+01  0.15302282255E+02  0.51100000000E-03 0. -1.
        -11    1    3    3    0    0 -0.18911930411E+02 -0.10609451187E+02  0.21131666156E+01  0.21787313734E+02  0.51100000000E-03 0.  1.
        -12    1    3    3    0    0 -0.64497907581E+01  0.86883486715E+01  0.79702837311E+01  0.13439219703E+02  0.00000000000E+00 0.  1.
</event>
<event>
 7    1  0.2702714E-011  0.5052886E+02  0.7816164E-02  0.1300439E+00
        -11   -1    0    0    0    0  0.00000000000E+00  0.00000000000E+00  0.45593999997E+02  0.45594000000E+02  0.51100000000E-03 0.  1.
         11   -1    0    0    0    0 -0.00000000000E+00 -0.00000000000E+00 -0.45593999997E+02  0.45594000000E+02  0.51100000000E-03 0. -1.
    9900012    2    1    2    0    0 -0.32049027419E+02  0.23388913322E+02 -0.88873190430E+01  0.50528857552E+02  0.29999993014E+02 0.  0.
        -12    1    1    2    0    0  0.32049027419E+02 -0.23388913322E+02  0.88873190430E+01  0.40659142448E+02  0.00000000000E+00 0.  1.
         11    1    3    3    0    0 -0.14987550342E+02  0.25071423685E+02 -0.69695041489E+01  0.30029601049E+02  0.51100000000E-03 0. -1.
        -11    1    3    3    0    0 -0.10130477360E+02  0.59468725085E+00 -0.63424042976E+01  0.11966884181E+02  0.51100000000E-03 0.  1.
         12    1    3    3    0    0 -0.69309997169E+01 -0.22771976137E+01  0.44245894035E+01  0.85323723217E+01  0.00000000000E+00 0. -1.
</event>
<event>
 7    1  0.2702714E-011  0.5052886E+02  0.7816164E-02  0.1300439E+00
        -11   -1    0    0    0    0  0.00000000000E+00  0.00000000000E+00  0.45593999997E+02  0.45594000000E+02  0.51100000000E-03 0.  1.
         11   -1    0    0    0    0 -0.00000000000E+00 -0.00000000000E+00 -0.45593999997E+02  0.45594000000E+02  0.51100000000E-03 0. -1.
    9900012    2    1    2    0    0 -0.27030804775E+02  0.29207782697E+02  0.83310917387E+01  0.50528855070E+02  0.29999985471E+02 0.  0.
        -12    1    1    2    0    0  0.27030804775E+02 -0.29207782697E+02 -0.83310917387E+01  0.40659144930E+02  0.00000000000E+00 0.  1.
         11    1    3    3    0    0 -0.15721673337E+02  0.22434123709E+02 -0.65469484694E+01  0.28165998182E+02  0.51100000000E-03 0. -1.
        -11    1    3    3    0    0  0.96332707841E+00  0.24528830755E+01  0.61633404854E+01  0.67030888881E+01  0.51100000000E-03 0.  1.
        -12    1    3    3    0    0 -0.12272458517E+02  0.43207759131E+01  0.87146997227E+01  0.15659768000E+02  0.00000000000E+00 0.  1.
</event>
<event>
 7    1  0.2702714E-011  0.5052886E+02  0.7816164E-02  0.1300439E+00
        -11   -1    0    0    0    0  0.00000000000E+00  0.00000000000E+00  0.45593999997E+02  0.45594000000E+02  0.51100000000E-03 0.  1.
         11   -1    0    0    0    0 -0.00000000000E+00 -0.00000000000E+00 -0.45593999997E+02  0.45594000000E+02  0.51100000000E-03 0. -1.
    9900012    2    1    2    0    0 -0.91365396966E+01  0.80352060779E+01 -0.38795937641E+02  0.50528859923E+02  0.30000000221E+02 0.  0.
        -12    1    1    2    0    0  0.91365396966E+01 -0.80352060779E+01  0.38795937641E+02  0.40659140077E+02  0.00000000000E+00 0.  1.
         11    1    3    3    0    0  0.71895692951E+01 -0.15298992116E+01 -0.14862163769E+02  0.16580543127E+02  0.51100000000E-03 0. -1.
        -11    1    3    3    0    0 -0.79948873464E+01  0.89424175351E+01 -0.22463396003E+02  0.25465451405E+02  0.51100000000E-03 0.  1.
        -12    1    3    3    0    0 -0.83312216453E+01  0.62268775434E+00 -0.14703778700E+01  0.84828653899E+01  0.00000000000E+00 0.  1.
</event>
<event>
 7    1  0.2702714E-011  0.5052885E+02  0.7816164E-02  0.1300439E+00
        -11   -1    0    0    0    0  0.00000000000E+00  0.00000000000E+00  0.45593999997E+02  0.45594000000E+02  0.51100000000E-03 0.  1.
         11   -1    0    0    0    0 -0.00000000000E+00 -0.00000000000E+00 -0.45593999997E+02  0.45594000000E+02  0.51100000000E-03 0. -1.
    9900012    2    1    2    0    0 -0.72189604279E+01  0.38682036123E+02 -0.10234880737E+02  0.50528854756E+02  0.29999984517E+02 0.  0.
        -12    1    1    2    0    0  0.72189604279E+01 -0.38682036123E+02  0.10234880737E+02  0.40659145244E+02  0.00000000000E+00 0.  1.
         11    1    3    3    0    0  0.38296690691E+01  0.24584958895E+02 -0.15271123473E+02  0.29194070998E+02  0.51100000000E-03 0. -1.
        -11    1    3    3    0    0  0.76333220608E-01 -0.91165799866E+00  0.22718171157E+01  0.24491019447E+01  0.51100000000E-03 0.  1.
        -12    1    3    3    0    0 -0.11124962718E+02  0.15008735226E+02  0.27644256200E+01  0.18885681813E+02  0.00000000000E+00 0.  1.
</event>
<event>
 7    1  0.2702714E-011  0.5052886E+02  0.7816164E-02  0.1300439E+00
        -11   -1    0    0    0    0  0.00000000000E+00  0.00000000000E+00  0.45593999997E+02  0.45594000000E+02  0.51100000000E-03 0.  1.
         11   -1    0    0    0    0 -0.00000000000E+00 -0.00000000000E+00 -0.45593999997E+02  0.45594000000E+02  0.51100000000E-03 0. -1.
    9900012    2    1    2    0    0 -0.24174589594E+02  0.28991824465E+02  0.15107248652E+02  0.50528860441E+02  0.30000001797E+02 0.  0.
        -12    1    1    2    0    0  0.24174589594E+02 -0.28991824465E+02 -0.15107248652E+02  0.40659139559E+02  0.00000000000E+00 0.  1.
         11    1    3    3    0    0 -0.21701115975E+01  0.78793174246E+00 -0.85428963526E+00  0.24617131877E+01  0.51100000000E-03 0. -1.
        -11    1    3    3    0    0 -0.11918429232E+02  0.29006052908E+02  0.19976831143E+02  0.37181633147E+02  0.51100000000E-03 0.  1.
        -12    1    3    3    0    0 -0.10086048765E+02 -0.80216018547E+00 -0.40152928564E+01  0.10885514107E+02  0.00000000000E+00 0.  1.
</event>
<event>
 7    1  0.2702714E-011  0.5052888E+02  0.7816164E-02  0.1300439E+00
        -11   -1    0    0    0    0  0.00000000000E+00  0.00000000000E+00  0.45593999997E+02  0.45594000000E+02  0.51100000000E-03 0.  1.
         11   -1    0    0    0    0 -0.00000000000E+00 -0.00000000000E+00 -0.45593999997E+02  0.45594000000E+02  0.51100000000E-03 0. -1.
    9900012    2    1    2    0    0  0.18260059641E+02  0.24330338888E+02 -0.26977194094E+02  0.50528878395E+02  0.30000056370E+02 0.  0.
        -12    1    1    2    0    0 -0.18260059641E+02 -0.24330338888E+02  0.26977194094E+02  0.40659121605E+02  0.00000000000E+00 0.  1.
         11    1    3    3    0    0  0.53567174745E+01  0.92906181218E+01 -0.23465928666E+00  0.10726838883E+02  0.51100000000E-03 0. -1.
        -11    1    3    3    0    0 -0.22642358286E+00 -0.49097605557E+01 -0.82250994291E+01  0.95817157771E+01  0.51100000000E-03 0.  1.
         12    1    3    3    0    0  0.13129765749E+02  0.19949481322E+02 -0.18517435378E+02  0.30220323735E+02  0.00000000000E+00 0. -1.
</event>
<event>
 7    1  0.2702714E-011  0.5052890E+02  0.7816164E-02  0.1300439E+00
        -11   -1    0    0    0    0  0.00000000000E+00  0.00000000000E+00  0.45593999997E+02  0.45594000000E+02  0.51100000000E-03 0.  1.
         11   -1    0    0    0    0 -0.00000000000E+00 -0.00000000000E+00 -0.45593999997E+02  0.45594000000E+02  0.51100000000E-03 0. -1.
    9900012    2    1    2    0    0 -0.26722013231E+02  0.29028691239E+02 -0.98199538286E+01  0.50528900165E+02  0.30000122542E+02 0.  0.
        -12    1    1    2    0    0  0.26722013231E+02 -0.29028691239E+02  0.98199538286E+01  0.40659099835E+02  0.00000000000E+00 0.  1.
         11    1    3    3    0    0 -0.21854127362E+02  0.21752861955E+02 -0.20657949027E+01  0.30904002893E+02  0.51100000000E-03 0. -1.
        -11    1    3    3    0    0  0.31186818532E+01  0.65504517163E+01  0.14696973118E+01  0.74023377820E+01  0.51100000000E-03 0.  1.
        -12    1    3    3    0    0 -0.79865677218E+01  0.72537756852E+00 -0.92238562378E+01  0.12222559490E+02  0.00000000000E+00 0.  1.
</event>
<event>
 7    1  0.2702714E-011  0.5052888E+02  0.7816164E-02  0.1300439E+00
        -11   -1    0    0    0    0  0.00000000000E+00  0.00000000000E+00  0.45593999997E+02  0.45594000000E+02  0.51100000000E-03 0.  1.
         11   -1    0    0    0    0 -0.00000000000E+00 -0.00000000000E+00 -0.45593999997E+02  0.45594000000E+02  0.51100000000E-03 0. -1.
    9900012    2    1    2    0    0  0.15597111779E+02 -0.77595598766E+01 -0.36738033562E+02  0.50528883245E+02  0.30000071110E+02 0.  0.
        -12    1    1    2    0    0 -0.15597111779E+02  0.77595598766E+01  0.36738033562E+02  0.40659116755E+02  0.00000000000E+00 0.  1.
         11    1    3    3    0    0  0.20059670562E+01  0.92120688610E+01 -0.10398831507E+02  0.14036445900E+02  0.51100000000E-03 0. -1.
        -11    1    3    3    0    0 -0.23131508606E+01 -0.17978573210E+01 -0.53487929599E+01  0.60985690321E+01  0.51100000000E-03 0.  1.
         12    1    3    3    0    0  0.15904295584E+02 -0.15173771417E+02 -0.20990409095E+02  0.30393868313E+02  0.00000000000E+00 0. -1.
</event>
<event>
 7    1  0.2702714E-011  0.5052886E+02  0.7816164E-02  0.1300439E+00
        -11   -1    0    0    0    0  0.00000000000E+00  0.00000000000E+00  0.45593999997E+02  0.45594000000E+02  0.51100000000E-03 0.  1.
         11   -1    0    0    0    0 -0.00000000000E+00 -0.00000000000E+00 -0.45593999997E+02  0.45594000000E+02  0.51100000000E-03 0. -1.
    9900012    2    1    2    0    0  0.36611717465E+02  0.87189272586E+01  0.15385979898E+02  0.50528856801E+02  0.29999990731E+02 0.  0.
        -12    1    1    2    0    0 -0.36611717465E+02 -0.87189272586E+01 -0.15385979898E+02  0.40659143199E+02  0.00000000000E+00 0.  1.
         11    1    3    3    0    0  0.99147190802E+01 -0.37658703253E+01  0.95989156496E+01  0.14304636160E+02  0.51100000000E-03 0. -1.
        -11    1    3    3    0    0 -0.85686879983E+00  0.37579061180E+00 -0.43624979389E+01  0.44617072127E+01  0.51100000000E-03 0.  1.
         12    1    3    3    0    0  0.27553867185E+02  0.12109006972E+02  0.10149562187E+02  0.31762513428E+02  0.00000000000E+00 0. -1.
</event>
<event>
 7    1  0.2702714E-011  0.5052886E+02  0.7816164E-02  0.1300439E+00
        -11   -1    0    0    0    0  0.00000000000E+00  0.00000000000E+00  0.45593999997E+02  0.45594000000E+02  0.51100000000E-03 0. -1.
         11   -1    0    0    0    0 -0.00000000000E+00 -0.00000000000E+00 -0.45593999997E+02  0.45594000000E+02  0.51100000000E-03 0.  1.
    9900012    2    1    2    0    0 -0.33689753221E+02  0.17160444161E+02  0.14956122925E+02  0.50528856762E+02  0.29999990614E+02 0.  0.
        -12    1    1    2    0    0  0.33689753221E+02 -0.17160444161E+02 -0.14956122925E+02  0.40659143238E+02  0.00000000000E+00 0.  1.
         11    1    3    3    0    0 -0.21714770175E+01  0.75719700600E+01  0.61711428702E+01  0.10006650169E+02  0.51100000000E-03 0.  1.
        -11    1    3    3    0    0 -0.20320990615E+02  0.16501390318E+02  0.38052534356E+01  0.26452192649E+02  0.51100000000E-03 0. -1.
        -12    1    3    3    0    0 -0.11197285588E+02 -0.69129162164E+01  0.49797266196E+01  0.14070013943E+02  0.00000000000E+00 0.  1.
</event>
<event>
 7    1  0.2702714E-011  0.5052886E+02  0.7816164E-02  0.1300439E+00
        -11   -1    0    0    0    0  0.00000000000E+00  0.00000000000E+00  0.45593999997E+02  0.45594000000E+02  0.51100000000E-03 0.  1.
         11   -1    0    0    0    0 -0.00000000000E+00 -0.00000000000E+00 -0.45593999997E+02  0.45594000000E+02  0.51100000000E-03 0. -1.
    9900012    2    1    2    0    0  0.42474857280E+01  0.21358380416E+02 -0.34335761005E+02  0.50528855484E+02  0.29999986728E+02 0.  0.
        -12    1    1    2    0    0 -0.42474857280E+01 -0.21358380416E+02  0.34335761005E+02  0.40659144516E+02  0.00000000000E+00 0.  1.
         11    1    3    3    0    0  0.13406060852E+01  0.10675560686E+02 -0.69406516160E+00  0.10781769212E+02  0.51100000000E-03 0. -1.
        -11    1    3    3    0    0  0.96401086025E+01  0.26351741814E+01 -0.21435680344E+02  0.23650882201E+02  0.51100000000E-03 0.  1.
         12    1    3    3    0    0 -0.67332289598E+01  0.80476455493E+01 -0.12206015500E+02  0.16096204071E+02  0.00000000000E+00 0. -1.
</event>
<event>
 7    1  0.2702714E-011  0.5052886E+02  0.7816164E-02  0.1300439E+00
        -11   -1    0    0    0    0  0.00000000000E+00  0.00000000000E+00  0.45593999997E+02  0.45594000000E+02  0.51100000000E-03 0.  1.
         11   -1    0    0    0    0 -0.00000000000E+00 -0.00000000000E+00 -0.45593999997E+02  0.45594000000E+02  0.51100000000E-03 0. -1.
    9900012    2    1    2    0    0 -0.28827015334E+02  0.28596316016E+02 -0.21021957870E+01  0.50528864128E+02  0.30000013004E+02 0.  0.
        -12    1    1    2    0    0  0.28827015334E+02 -0.28596316016E+02  0.21021957870E+01  0.40659135872E+02  0.00000000000E+00 0.  1.
         11    1    3    3    0    0 -0.90390105902E+01  0.16342800586E+02 -0.12995920689E+01  0.18721105289E+02  0.51100000000E-03 0. -1.
        -11    1    3    3    0    0 -0.23738852297E+02  0.98490421976E+01  0.29260272034E+01  0.25866935961E+02  0.51100000000E-03 0.  1.
         12    1    3    3    0    0  0.39508475531E+01  0.24044732320E+01 -0.37286309215E+01  0.59408228774E+01  0.00000000000E+00 0. -1.
</event>
<event>
 7    1  0.2702714E-011  0.5052886E+02  0.7816164E-02  0.1300439E+00
        -11   -1    0    0    0    0  0.00000000000E+00  0.00000000000E+00  0.45593999997E+02  0.45594000000E+02  0.51100000000E-03 0.  1.
         11   -1    0    0    0    0 -0.00000000000E+00 -0.00000000000E+00 -0.45593999997E+02  0.45594000000E+02  0.51100000000E-03 0. -1.
    9900012    2    1    2    0    0 -0.12832041474E+02 -0.28378138104E+02 -0.26137820877E+02  0.50528859689E+02  0.29999999511E+02 0.  0.
        -12    1    1    2    0    0  0.12832041474E+02  0.28378138104E+02  0.26137820877E+02  0.40659140311E+02  0.00000000000E+00 0.  1.
         11    1    3    3    0    0 -0.30792390389E+01 -0.25377421379E+02 -0.80749161497E+01  0.26808571390E+02  0.51100000000E-03 0. -1.
        -11    1    3    3    0    0 -0.53088680823E+01 -0.66392986558E+01 -0.14923336329E+02  0.17174700417E+02  0.51100000000E-03 0.  1.
        -12    1    3    3    0    0 -0.44439343527E+01  0.36385819305E+01 -0.31395683981E+01  0.65455878821E+01  0.00000000000E+00 0.  1.
</event>
<event>
 7    1  0.2702714E-011  0.5052886E+02  0.7816164E-02  0.1300439E+00
        -11   -1    0    0    0    0  0.00000000000E+00  0.00000000000E+00  0.45593999997E+02  0.45594000000E+02  0.51100000000E-03 0. -1.
         11   -1    0    0    0    0 -0.00000000000E+00 -0.00000000000E+00 -0.45593999997E+02  0.45594000000E+02  0.51100000000E-03 0.  1.
    9900012    2    1    2    0    0 -0.34738606535E+02 -0.12465383183E+02  0.17058998528E+02  0.50528855977E+02  0.29999988228E+02 0.  0.
        -12    1    1    2    0    0  0.34738606535E+02  0.12465383183E+02 -0.17058998528E+02  0.40659144023E+02  0.00000000000E+00 0.  1.
         11    1    3    3    0    0 -0.61324284265E+01 -0.93165071098E+01  0.21280388683E+01  0.11354846226E+02  0.51100000000E-03 0. -1.
        -11    1    3    3    0    0 -0.23503910182E+02 -0.74691689623E+01  0.21570899981E+01  0.24756318716E+02  0.51100000000E-03 0.  1.
         12    1    3    3    0    0 -0.51022679258E+01  0.43202928894E+01  0.12773869662E+02  0.14417691035E+02  0.00000000000E+00 0. -1.
</event>
<event>
 7    1  0.2702714E-011  0.5052885E+02  0.7816164E-02  0.1300439E+00
        -11   -1    0    0    0    0  0.00000000000E+00  0.00000000000E+00  0.45593999997E+02  0.45594000000E+02  0.51100000000E-03 0. -1.
         11   -1    0    0    0    0 -0.00000000000E+00 -0.00000000000E+00 -0.45593999997E+02  0.45594000000E+02  0.51100000000E-03 0.  1.
    9900012    2    1    2    0    0  0.24227484344E+02  0.29046094483E+02  0.14917110631E+02  0.50528846149E+02  0.29999958354E+02 0.  0.
        -12    1    1    2    0    0 -0.24227484344E+02 -0.29046094483E+02 -0.14917110631E+02  0.40659153851E+02  0.00000000000E+00 0.  1.
         11    1    3    3    0    0  0.88673446442E+01  0.18074737493E+01  0.90386503267E+01  0.12790385545E+02  0.51100000000E-03 0.  1.
        -11    1    3    3    0    0  0.11078242911E+02  0.43864141703E+01 -0.38696723622E+01  0.12527667769E+02  0.51100000000E-03 0. -1.
        -12    1    3    3    0    0  0.42818967887E+01  0.22852206563E+02  0.97481326662E+01  0.25210792835E+02  0.00000000000E+00 0.  1.
</event>
<event>
 7    1  0.2702714E-011  0.5052887E+02  0.7816164E-02  0.1300439E+00
        -11   -1    0    0    0    0  0.00000000000E+00  0.00000000000E+00  0.45593999997E+02  0.45594000000E+02  0.51100000000E-03 0.  1.
         11   -1    0    0    0    0 -0.00000000000E+00 -0.00000000000E+00 -0.45593999997E+02  0.45594000000E+02  0.51100000000E-03 0. -1.
    9900012    2    1    2    0    0 -0.36043967636E+01 -0.25655060620E+02 -0.31336739303E+02  0.50528867673E+02  0.30000023780E+02 0.  0.
        -12    1    1    2    0    0  0.36043967636E+01  0.25655060620E+02  0.31336739303E+02  0.40659132327E+02  0.00000000000E+00 0.  1.
         11    1    3    3    0    0  0.69574068085E+00 -0.11178779239E+02 -0.15478654121E+02  0.19105964881E+02  0.51100000000E-03 0. -1.
        -11    1    3    3    0    0 -0.13007454541E+02 -0.59742215217E+01 -0.11934067549E+02  0.18636178925E+02  0.51100000000E-03 0.  1.
        -12    1    3    3    0    0  0.87073170963E+01 -0.85020598593E+01 -0.39240176326E+01  0.12786723867E+02  0.00000000000E+00 0.  1.
</event>
<event>
 7    1  0.2702714E-011  0.5052886E+02  0.7816164E-02  0.1300439E+00
        -11   -1    0    0    0    0  0.00000000000E+00  0.00000000000E+00  0.45593999997E+02  0.45594000000E+02  0.51100000000E-03 0.  1.
         11   -1    0    0    0    0 -0.00000000000E+00 -0.00000000000E+00 -0.45593999997E+02  0.45594000000E+02  0.51100000000E-03 0. -1.
    9900012    2    1    2    0    0 -0.34204079446E+02  0.21291931153E+02  0.54681188227E+01  0.50528859497E+02  0.29999998927E+02 0.  0.
        -12    1    1    2    0    0  0.34204079446E+02 -0.21291931153E+02 -0.54681188227E+01  0.40659140503E+02  0.00000000000E+00 0.  1.
         11    1    3    3    0    0 -0.53466206344E+01  0.88694941120E+01  0.52507239645E+01  0.11611390116E+02  0.51100000000E-03 0. -1.
        -11    1    3    3    0    0 -0.14421113869E+02  0.24476875643E+01  0.11017969701E+02  0.18312710237E+02  0.51100000000E-03 0.  1.
         12    1    3    3    0    0 -0.14436344943E+02  0.99747494765E+01 -0.10800574843E+02  0.20604759144E+02  0.00000000000E+00 0. -1.
</event>
<event>
 7    1  0.2702714E-011  0.5052886E+02  0.7816164E-02  0.1300439E+00
        -11   -1    0    0    0    0  0.00000000000E+00  0.00000000000E+00  0.45593999997E+02  0.45594000000E+02  0.51100000000E-03 0. -1.
         11   -1    0    0    0    0 -0.00000000000E+00 -0.00000000000E+00 -0.45593999997E+02  0.45594000000E+02  0.51100000000E-03 0.  1.
    9900012    2    1    2    0    0  0.26969686231E+02 -0.24334053989E+02  0.18266244783E+02  0.50528857641E+02  0.29999993286E+02 0.  0.
        -12    1    1    2    0    0 -0.26969686231E+02  0.24334053989E+02 -0.18266244783E+02  0.40659142359E+02  0.00000000000E+00 0.  1.
         11    1    3    3    0    0  0.30501185598E+01 -0.16951126246E+02  0.10447748753E+02  0.20144462230E+02  0.51100000000E-03 0. -1.
        -11    1    3    3    0    0  0.75321892981E+01 -0.87292941244E+01 -0.12661563289E+01  0.11599034600E+02  0.51100000000E-03 0.  1.
        -12    1    3    3    0    0  0.16387378373E+02  0.13463663821E+01  0.90846523581E+01  0.18785360812E+02  0.00000000000E+00 0.  1.
</event>
<event>
 7    1  0.2702714E-011  0.5052885E+02  0.7816164E-02  0.1300439E+00
        -11   -1    0    0    0    0  0.00000000000E+00  0.00000000000E+00  0.45593999997E+02  0.45594000000E+02  0.51100000000E-03 0. -1.
         11   -1    0    0    0    0 -0.00000000000E+00 -0.00000000000E+00 -0.45593999997E+02  0.45594000000E+02  0.51100000000E-03 0.  1.
    9900012    2    1    2    0    0  0.38324065991E+02 -0.12931470412E+02  0.41484182649E+01  0.50528851765E+02  0.29999975425E+02 0.  0.
        -12    1    1    2    0    0 -0.38324065991E+02  0.12931470412E+02 -0.41484182649E+01  0.40659148235E+02  0.00000000000E+00 0.  1.
         11    1    3    3    0    0  0.18288516645E+02  0.51868068096E+01  0.10708766254E+02  0.21818581093E+02  0.51100000000E-03 0.  1.
        -11    1    3    3    0    0  0.59843284804E+01 -0.70462933227E+01  0.98085219032E+00  0.92964782704E+01  0.51100000000E-03 0. -1.
        -12    1    3    3    0    0  0.14051220866E+02 -0.11071983899E+02 -0.75412001799E+01  0.19413792402E+02  0.00000000000E+00 0.  1.
</event>
<event>
 7    1  0.2702714E-011  0.5052886E+02  0.7816164E-02  0.1300439E+00
        -11   -1    0    0    0    0  0.00000000000E+00  0.00000000000E+00  0.45593999997E+02  0.45594000000E+02  0.51100000000E-03 0.  1.
         11   -1    0    0    0    0 -0.00000000000E+00 -0.00000000000E+00 -0.45593999997E+02  0.45594000000E+02  0.51100000000E-03 0. -1.
    9900012    2    1    2    0    0 -0.10221241711E+02  0.33860274227E+02 -0.20054267804E+02  0.50528860683E+02  0.30000002532E+02 0.  0.
        -12    1    1    2    0    0  0.10221241711E+02 -0.33860274227E+02  0.20054267804E+02  0.40659139317E+02  0.00000000000E+00 0.  1.
         11    1    3    3    0    0 -0.35554548871E+01  0.28311143295E+02 -0.23503284008E+02  0.36967099609E+02  0.51100000000E-03 0. -1.
        -11    1    3    3    0    0  0.41847367558E+00  0.28561368013E+01 -0.25844770003E+01  0.38745527834E+01  0.51100000000E-03 0.  1.
        -12    1    3    3    0    0 -0.70842604994E+01  0.26929941311E+01  0.60334932040E+01  0.96872082901E+01  0.00000000000E+00 0.  1.
</event>
<event>
 7    1  0.2702714E-011  0.5052887E+02  0.7816164E-02  0.1300439E+00
        -11   -1    0    0    0    0  0.00000000000E+00  0.00000000000E+00  0.45593999997E+02  0.45594000000E+02  0.51100000000E-03 0. -1.
         11   -1    0    0    0    0 -0.00000000000E+00 -0.00000000000E+00 -0.45593999997E+02  0.45594000000E+02  0.51100000000E-03 0.  1.
    9900012    2    1    2    0    0 -0.36576899349E+02  0.16598048072E+02 -0.63087387799E+01  0.50528868789E+02  0.30000027172E+02 0.  0.
        -12    1    1    2    0    0  0.36576899349E+02 -0.16598048072E+02  0.63087387799E+01  0.40659131211E+02  0.00000000000E+00 0.  1.
         11    1    3    3    0    0 -0.11752297362E+02  0.30480725844E+01 -0.46511472341E+01  0.13001554162E+02  0.51100000000E-03 0.  1.
        -11    1    3    3    0    0 -0.22990313169E+01 -0.35722838407E+00 -0.96085585258E+01  0.98862305415E+01  0.51100000000E-03 0. -1.
         12    1    3    3    0    0 -0.22525570671E+02  0.13907203871E+02  0.79509669800E+01  0.27641084086E+02  0.00000000000E+00 0. -1.
</event>
<event>
 7    1  0.2702714E-011  0.5052886E+02  0.7816164E-02  0.1300439E+00
        -11   -1    0    0    0    0  0.00000000000E+00  0.00000000000E+00  0.45593999997E+02  0.45594000000E+02  0.51100000000E-03 0.  1.
         11   -1    0    0    0    0 -0.00000000000E+00 -0.00000000000E+00 -0.45593999997E+02  0.45594000000E+02  0.51100000000E-03 0. -1.
    9900012    2    1    2    0    0  0.20307972212E+02 -0.21968604478E+02 -0.27534203952E+02  0.50528859510E+02  0.29999998968E+02 0.  0.
        -12    1    1    2    0    0 -0.20307972212E+02  0.21968604478E+02  0.27534203952E+02  0.40659140490E+02  0.00000000000E+00 0.  1.
         11    1    3    3    0    0 -0.24491935986E+01 -0.62855223940E+01 -0.55739693367E+01  0.87507414244E+01  0.51100000000E-03 0. -1.
        -11    1    3    3    0    0 -0.35871492073E+01 -0.68477068849E+01 -0.41528458181E+01  0.87752411743E+01  0.51100000000E-03 0.  1.
         12    1    3    3    0    0  0.26344315018E+02 -0.88353751994E+01 -0.17807388797E+02  0.33002876912E+02  0.00000000000E+00 0. -1.
</event>
<event>
 7    1  0.2702714E-011  0.5052887E+02  0.7816164E-02  0.1300439E+00
        -11   -1    0    0    0    0  0.00000000000E+00  0.00000000000E+00  0.45593999997E+02  0.45594000000E+02  0.51100000000E-03 0. -1.
         11   -1    0    0    0    0 -0.00000000000E+00 -0.00000000000E+00 -0.45593999997E+02  0.45594000000E+02  0.51100000000E-03 0.  1.
    9900012    2    1    2    0    0 -0.20422285495E+01  0.36453212771E+02  0.17892954656E+02  0.50528865170E+02  0.30000016171E+02 0.  0.
        -12    1    1    2    0    0  0.20422285495E+01 -0.36453212771E+02 -0.17892954656E+02  0.40659134830E+02  0.00000000000E+00 0.  1.
         11    1    3    3    0    0  0.28753192324E+00  0.21039306383E+02  0.34085367154E+01  0.21315562636E+02  0.51100000000E-03 0. -1.
        -11    1    3    3    0    0  0.73731299292E+01  0.81160213776E+00  0.19755321179E+01  0.76762276147E+01  0.51100000000E-03 0.  1.
         12    1    3    3    0    0 -0.97028904019E+01  0.14602304251E+02  0.12508885823E+02  0.21537074920E+02  0.00000000000E+00 0. -1.
</event>
<event>
 7    1  0.2702714E-011  0.5052886E+02  0.7816164E-02  0.1300439E+00
        -11   -1    0    0    0    0  0.00000000000E+00  0.00000000000E+00  0.45593999997E+02  0.45594000000E+02  0.51100000000E-03 0.  1.
         11   -1    0    0    0    0 -0.00000000000E+00 -0.00000000000E+00 -0.45593999997E+02  0.45594000000E+02  0.51100000000E-03 0. -1.
    9900012    2    1    2    0    0 -0.20603396662E+02 -0.30731491109E+02 -0.16859453633E+02  0.50528859864E+02  0.30000000042E+02 0.  0.
        -12    1    1    2    0    0  0.20603396662E+02  0.30731491109E+02  0.16859453633E+02  0.40659140136E+02  0.00000000000E+00 0.  1.
         11    1    3    3    0    0  0.37541085954E+01 -0.44404295425E+01 -0.41208762969E+01  0.71268764255E+01  0.51100000000E-03 0. -1.
        -11    1    3    3    0    0 -0.80618773419E+01 -0.38004133061E+01 -0.12837510034E+02  0.15628137180E+02  0.51100000000E-03 0.  1.
        -12    1    3    3    0    0 -0.16295627916E+02 -0.22490648260E+02  0.98932697782E-01  0.27773846259E+02  0.00000000000E+00 0.  1.
</event>
<event>
 7    1  0.2702714E-011  0.5052887E+02  0.7816164E-02  0.1300439E+00
        -11   -1    0    0    0    0  0.00000000000E+00  0.00000000000E+00  0.45593999997E+02  0.45594000000E+02  0.51100000000E-03 0.  1.
         11   -1    0    0    0    0 -0.00000000000E+00 -0.00000000000E+00 -0.45593999997E+02  0.45594000000E+02  0.51100000000E-03 0. -1.
    9900012    2    1    2    0    0  0.22878351339E+01  0.29165019718E+02 -0.28237076683E+02  0.50528867393E+02  0.30000022928E+02 0.  0.
        -12    1    1    2    0    0 -0.22878351339E+01 -0.29165019718E+02  0.28237076683E+02  0.40659132607E+02  0.00000000000E+00 0.  1.
         11    1    3    3    0    0  0.79706208253E+01  0.90407974402E+01 -0.15233808390E+02  0.19425131480E+02  0.51100000000E-03 0. -1.
        -11    1    3    3    0    0  0.60707453954E+01  0.71010023541E+01 -0.12797836106E+00  0.93431559342E+01  0.51100000000E-03 0.  1.
        -12    1    3    3    0    0 -0.11753531087E+02  0.13023219923E+02 -0.12875289932E+02  0.21760579979E+02  0.00000000000E+00 0.  1.
</event>
<event>
 7    1  0.2702714E-011  0.5052885E+02  0.7816164E-02  0.1300439E+00
        -11   -1    0    0    0    0  0.00000000000E+00  0.00000000000E+00  0.45593999997E+02  0.45594000000E+02  0.51100000000E-03 0. -1.
         11   -1    0    0    0    0 -0.00000000000E+00 -0.00000000000E+00 -0.45593999997E+02  0.45594000000E+02  0.51100000000E-03 0.  1.
    9900012    2    1    2    0    0 -0.17997818893E+02  0.35306014943E+02  0.90956339325E+01  0.50528846877E+02  0.29999960566E+02 0.  0.
        -12    1    1    2    0    0  0.17997818893E+02 -0.35306014943E+02 -0.90956339325E+01  0.40659153123E+02  0.00000000000E+00 0.  1.
         11    1    3    3    0    0 -0.86003372297E+01  0.19999276857E+02  0.96831562388E+01  0.23826464074E+02  0.51100000000E-03 0. -1.
        -11    1    3    3    0    0 -0.10009953793E+02 -0.10467736573E+01  0.16031965874E+01  0.10191425298E+02  0.51100000000E-03 0.  1.
         12    1    3    3    0    0  0.61247212993E+00  0.16353511744E+02 -0.21907188938E+01  0.16510957505E+02  0.00000000000E+00 0. -1.
</event>
<event>
 7    1  0.2702714E-011  0.5052886E+02  0.7816164E-02  0.1300439E+00
        -11   -1    0    0    0    0  0.00000000000E+00  0.00000000000E+00  0.45593999997E+02  0.45594000000E+02  0.51100000000E-03 0.  1.
         11   -1    0    0    0    0 -0.00000000000E+00 -0.00000000000E+00 -0.45593999997E+02  0.45594000000E+02  0.51100000000E-03 0. -1.
    9900012    2    1    2    0    0  0.44054414904E+00 -0.31928623184E+02 -0.25170114535E+02  0.50528859290E+02  0.29999998298E+02 0.  0.
        -12    1    1    2    0    0 -0.44054414904E+00  0.31928623184E+02  0.25170114535E+02  0.40659140710E+02  0.00000000000E+00 0.  1.
         11    1    3    3    0    0 -0.77404906258E+00 -0.12072932645E+02 -0.12977880665E+02  0.17742047272E+02  0.51100000000E-03 0. -1.
        -11    1    3    3    0    0 -0.51676046312E+01 -0.21800069194E+02 -0.49589697838E+01  0.22946427523E+02  0.51100000000E-03 0.  1.
        -12    1    3    3    0    0  0.63821978429E+01  0.19443786550E+01 -0.72332640868E+01  0.98403844949E+01  0.00000000000E+00 0.  1.
</event>
<event>
 7    1  0.2702714E-011  0.5052886E+02  0.7816164E-02  0.1300439E+00
        -11   -1    0    0    0    0  0.00000000000E+00  0.00000000000E+00  0.45593999997E+02  0.45594000000E+02  0.51100000000E-03 0.  1.
         11   -1    0    0    0    0 -0.00000000000E+00 -0.00000000000E+00 -0.45593999997E+02  0.45594000000E+02  0.51100000000E-03 0. -1.
    9900012    2    1    2    0    0 -0.38601881119E+02  0.12707616670E+02  0.12555961197E+01  0.50528864877E+02  0.30000015279E+02 0.  0.
        -12    1    1    2    0    0  0.38601881119E+02 -0.12707616670E+02 -0.12555961197E+01  0.40659135123E+02  0.00000000000E+00 0.  1.
         11    1    3    3    0    0  0.45408958858E+00  0.35322408157E+01 -0.60145829165E+00  0.36117412521E+01  0.51100000000E-03 0. -1.
        -11    1    3    3    0    0 -0.22893883165E+02  0.17110499530E+02  0.36918575232E+01  0.28818898188E+02  0.51100000000E-03 0.  1.
        -12    1    3    3    0    0 -0.16162087543E+02 -0.79351236757E+01 -0.18348031118E+01  0.18098225437E+02  0.00000000000E+00 0.  1.
</event>
<event>
 7    1  0.2702714E-011  0.5052888E+02  0.7816164E-02  0.1300439E+00
        -11   -1    0    0    0    0  0.00000000000E+00  0.00000000000E+00  0.45593999997E+02  0.45594000000E+02  0.51100000000E-03 0. -1.
         11   -1    0    0    0    0 -0.00000000000E+00 -0.00000000000E+00 -0.45593999997E+02  0.45594000000E+02  0.51100000000E-03 0.  1.
    9900012    2    1    2    0    0 -0.32218347123E+02  0.39883479777E+00 -0.24798860038E+02  0.50528875320E+02  0.30000047023E+02 0.  0.
        -12    1    1    2    0    0  0.32218347123E+02 -0.39883479777E+00  0.24798860038E+02  0.40659124680E+02  0.00000000000E+00 0.  1.
         11    1    3    3    0    0 -0.10938034744E+02  0.10679897241E+02 -0.14277318478E+02  0.20917519746E+02  0.51100000000E-03 0. -1.
        -11    1    3    3    0    0 -0.13457562642E+01 -0.18719258789E+01  0.32351548560E+01  0.39725802222E+01  0.51100000000E-03 0.  1.
         12    1    3    3    0    0 -0.19934556115E+02 -0.84091365648E+01 -0.13756696416E+02  0.25638775352E+02  0.00000000000E+00 0. -1.
</event>
<event>
 7    1  0.2702714E-011  0.5052886E+02  0.7816164E-02  0.1300439E+00
        -11   -1    0    0    0    0  0.00000000000E+00  0.00000000000E+00  0.45593999997E+02  0.45594000000E+02  0.51100000000E-03 0. -1.
         11   -1    0    0    0    0 -0.00000000000E+00 -0.00000000000E+00 -0.45593999997E+02  0.45594000000E+02  0.51100000000E-03 0.  1.
    9900012    2    1    2    0    0 -0.11946014986E+01  0.84481013086E+01  0.39753848471E+02  0.50528856419E+02  0.29999989573E+02 0.  0.
        -12    1    1    2    0    0  0.11946014986E+01 -0.84481013086E+01 -0.39753848471E+02  0.40659143581E+02  0.00000000000E+00 0.  1.
         11    1    3    3    0    0 -0.11431462673E+02  0.59294715260E+01  0.18533119512E+02  0.22567974887E+02  0.51100000000E-03 0. -1.
        -11    1    3    3    0    0  0.54212093744E+01 -0.54118189565E+01  0.14840349745E+02  0.16700696881E+02  0.51100000000E-03 0.  1.
         12    1    3    3    0    0  0.48156517995E+01  0.79304487392E+01  0.63803792134E+01  0.11260184651E+02  0.00000000000E+00 0. -1.
</event>
<event>
 7    1  0.2702714E-011  0.5052886E+02  0.7816164E-02  0.1300439E+00
        -11   -1    0    0    0    0  0.00000000000E+00  0.00000000000E+00  0.45593999997E+02  0.45594000000E+02  0.51100000000E-03 0.  1.
         11   -1    0    0    0    0 -0.00000000000E+00 -0.00000000000E+00 -0.45593999997E+02  0.45594000000E+02  0.51100000000E-03 0. -1.
    9900012    2    1    2    0    0  0.24196804232E+02 -0.18146917724E+02  0.27172962999E+02  0.50528857411E+02  0.29999992588E+02 0.  0.
        -12    1    1    2    0    0 -0.24196804232E+02  0.18146917724E+02 -0.27172962999E+02  0.40659142589E+02  0.00000000000E+00 0.  1.
         11    1    3    3    0    0  0.10612191711E+02 -0.11523890244E+02  0.86522852358E+01  0.17896387885E+02  0.51100000000E-03 0. -1.
        -11    1    3    3    0    0 -0.61045969649E+01 -0.92834982161E+00  0.60269581616E+01  0.86285666503E+01  0.51100000000E-03 0.  1.
         12    1    3    3    0    0  0.19689209486E+02 -0.56946776579E+01  0.12493719602E+02  0.24003902876E+02  0.00000000000E+00 0. -1.
</event>
<event>
 7    1  0.2702714E-011  0.5052886E+02  0.7816164E-02  0.1300439E+00
        -11   -1    0    0    0    0  0.00000000000E+00  0.00000000000E+00  0.45593999997E+02  0.45594000000E+02  0.51100000000E-03 0.  1.
         11   -1    0    0    0    0 -0.00000000000E+00 -0.00000000000E+00 -0.45593999997E+02  0.45594000000E+02  0.51100000000E-03 0. -1.
    9900012    2    1    2    0    0  0.28930531185E+01 -0.18904491292E+02 -0.35880585626E+02  0.50528856229E+02  0.29999988992E+02 0.  0.
        -12    1    1    2    0    0 -0.28930531185E+01  0.18904491292E+02  0.35880585626E+02  0.40659143771E+02  0.00000000000E+00 0.  1.
         11    1    3    3    0    0 -0.67662434739E+01 -0.44621588207E+01 -0.16171235455E+02  0.18088719371E+02  0.51100000000E-03 0. -1.
        -11    1    3    3    0    0 -0.18185008778E+01 -0.99265282868E+01 -0.11514120226E+01  0.10157197408E+02  0.51100000000E-03 0.  1.
         12    1    3    3    0    0  0.11477797470E+02 -0.45158041848E+01 -0.18557938149E+02  0.22282939450E+02  0.00000000000E+00 0. -1.
</event>
<event>
 7    1  0.2702714E-011  0.5052886E+02  0.7816164E-02  0.1300439E+00
        -11   -1    0    0    0    0  0.00000000000E+00  0.00000000000E+00  0.45593999997E+02  0.45594000000E+02  0.51100000000E-03 0. -1.
         11   -1    0    0    0    0 -0.00000000000E+00 -0.00000000000E+00 -0.45593999997E+02  0.45594000000E+02  0.51100000000E-03 0.  1.
    9900012    2    1    2    0    0  0.90695549201E+01  0.14438521761E+02  0.36911216008E+02  0.50528860753E+02  0.30000002746E+02 0.  0.
        -12    1    1    2    0    0 -0.90695549201E+01 -0.14438521761E+02 -0.36911216008E+02  0.40659139247E+02  0.00000000000E+00 0.  1.
         11    1    3    3    0    0  0.28266194972E+01 -0.16984746461E+01 -0.14886686733E+01  0.36181111903E+01  0.51100000000E-03 0. -1.
        -11    1    3    3    0    0  0.58266255403E+01  0.10369555062E+01  0.30024773634E+00  0.59257903163E+01  0.51100000000E-03 0.  1.
         12    1    3    3    0    0  0.41630988259E+00  0.15100040901E+02  0.38099636945E+02  0.40984959247E+02  0.00000000000E+00 0. -1.
</event>
<event>
 7    1  0.2702714E-011  0.5052886E+02  0.7816164E-02  0.1300439E+00
        -11   -1    0    0    0    0  0.00000000000E+00  0.00000000000E+00  0.45593999997E+02  0.45594000000E+02  0.51100000000E-03 0.  1.
         11   -1    0    0    0    0 -0.00000000000E+00 -0.00000000000E+00 -0.45593999997E+02  0.45594000000E+02  0.51100000000E-03 0. -1.
    9900012    2    1    2    0    0  0.29333899631E+02 -0.27861577290E+02  0.40522072439E+01  0.50528861542E+02  0.30000005142E+02 0.  0.
        -12    1    1    2    0    0 -0.29333899631E+02  0.27861577290E+02 -0.40522072439E+01  0.40659138458E+02  0.00000000000E+00 0.  1.
         11    1    3    3    0    0  0.33636926304E+01 -0.15626878860E+02  0.42600656001E+01  0.16542730433E+02  0.51100000000E-03 0. -1.
        -11    1    3    3    0    0  0.85912390590E+01  0.26351494623E+01  0.53365866785E+01  0.10451438126E+02  0.51100000000E-03 0.  1.
         12    1    3    3    0    0  0.17378967942E+02 -0.14869847892E+02 -0.55444450347E+01  0.23534692983E+02  0.00000000000E+00 0. -1.
</event>
<event>
 7    1  0.2702714E-011  0.5052887E+02  0.7816164E-02  0.1300439E+00
        -11   -1    0    0    0    0  0.00000000000E+00  0.00000000000E+00  0.45593999997E+02  0.45594000000E+02  0.51100000000E-03 0.  1.
         11   -1    0    0    0    0 -0.00000000000E+00 -0.00000000000E+00 -0.45593999997E+02  0.45594000000E+02  0.51100000000E-03 0. -1.
    9900012    2    1    2    0    0 -0.45147023114E+00 -0.23365239297E+02 -0.33272013701E+02  0.50528866604E+02  0.30000020530E+02 0.  0.
        -12    1    1    2    0    0  0.45147023114E+00  0.23365239297E+02  0.33272013701E+02  0.40659133396E+02  0.00000000000E+00 0.  1.
         11    1    3    3    0    0  0.52197541766E+00 -0.23491752249E+02 -0.15438393425E+02  0.28115456139E+02  0.51100000000E-03 0. -1.
        -11    1    3    3    0    0  0.49272549507E+01 -0.13615558585E+01 -0.20685251968E+01  0.55145691088E+01  0.51100000000E-03 0.  1.
         12    1    3    3    0    0 -0.59007005995E+01  0.14880688105E+01 -0.15765095079E+02  0.16898841357E+02  0.00000000000E+00 0. -1.
</event>
<event>
 7    1  0.4647514E-011  0.5052885E+02  0.7816164E-02  0.1300439E+00
        -11   -1    0    0    0    0  0.00000000000E+00  0.00000000000E+00  0.45593999997E+02  0.45594000000E+02  0.51100000000E-03 0.  1.
         11   -1    0    0    0    0 -0.00000000000E+00 -0.00000000000E+00 -0.45593999997E+02  0.45594000000E+02  0.51100000000E-03 0. -1.
    9900012    2    1    2    0    0  0.36464923158E+02 -0.16344007533E+02 -0.75065894636E+01  0.50528854798E+02  0.29999984644E+02 0.  0.
        -12    1    1    2    0    0 -0.36464923158E+02  0.16344007533E+02  0.75065894636E+01  0.40659145202E+02  0.00000000000E+00 0.  1.
         11    1    3    3    0    0  0.20886862986E+02 -0.17451430241E+02 -0.85928956283E+01  0.28542097302E+02  0.51100000000E-03 0. -1.
        -11    1    3    3    0    0  0.15325453552E+02  0.10532741709E+01 -0.48005551890E+01  0.16094230129E+02  0.51100000000E-03 0.  1.
        -12    1    3    3    0    0  0.25260662002E+00  0.54148537220E-01  0.58868613538E+01  0.58925273667E+01  0.00000000000E+00 0.  1.
</event>
<event>
 7    1  0.2702714E-011  0.5052886E+02  0.7816164E-02  0.1300439E+00
        -11   -1    0    0    0    0  0.00000000000E+00  0.00000000000E+00  0.45593999997E+02  0.45594000000E+02  0.51100000000E-03 0.  1.
         11   -1    0    0    0    0 -0.00000000000E+00 -0.00000000000E+00 -0.45593999997E+02  0.45594000000E+02  0.51100000000E-03 0. -1.
    9900012    2    1    2    0    0  0.33717400338E+02  0.10996155267E+02 -0.19884334307E+02  0.50528864900E+02  0.30000015351E+02 0.  0.
        -12    1    1    2    0    0 -0.33717400338E+02 -0.10996155267E+02  0.19884334307E+02  0.40659135100E+02  0.00000000000E+00 0.  1.
         11    1    3    3    0    0  0.18934402630E+02  0.74041634794E+01 -0.15240012460E+02  0.25408487161E+02  0.51100000000E-03 0. -1.
        -11    1    3    3    0    0  0.15290487529E+02  0.99460123955E+01 -0.25922398814E+01  0.18423948526E+02  0.51100000000E-03 0.  1.
        -12    1    3    3    0    0 -0.50748982087E+00 -0.63540206080E+01 -0.20520819658E+01  0.66964292126E+01  0.00000000000E+00 0.  1.
</event>
<event>
 7    1  0.2702714E-011  0.5052886E+02  0.7816164E-02  0.1300439E+00
        -11   -1    0    0    0    0  0.00000000000E+00  0.00000000000E+00  0.45593999997E+02  0.45594000000E+02  0.51100000000E-03 0.  1.
         11   -1    0    0    0    0 -0.00000000000E+00 -0.00000000000E+00 -0.45593999997E+02  0.45594000000E+02  0.51100000000E-03 0. -1.
    9900012    2    1    2    0    0  0.26448261684E+02 -0.90833354363E+01 -0.29515218128E+02  0.50528860438E+02  0.30000001788E+02 0.  0.
        -12    1    1    2    0    0 -0.26448261684E+02  0.90833354363E+01  0.29515218128E+02  0.40659139562E+02  0.00000000000E+00 0.  1.
         11    1    3    3    0    0  0.22564752251E+02 -0.44306716525E+01 -0.26836687556E+02  0.35341288809E+02  0.51100000000E-03 0. -1.
        -11    1    3    3    0    0  0.61976595517E+01  0.64515177238E+00  0.31466346901E+01  0.69805812697E+01  0.51100000000E-03 0.  1.
        -12    1    3    3    0    0 -0.23141501183E+01 -0.52978155562E+01 -0.58251652622E+01  0.82069903600E+01  0.00000000000E+00 0.  1.
</event>
<event>
 7    1  0.2702714E-011  0.5052888E+02  0.7816164E-02  0.1300439E+00
        -11   -1    0    0    0    0  0.00000000000E+00  0.00000000000E+00  0.45593999997E+02  0.45594000000E+02  0.51100000000E-03 0. -1.
         11   -1    0    0    0    0 -0.00000000000E+00 -0.00000000000E+00 -0.45593999997E+02  0.45594000000E+02  0.51100000000E-03 0.  1.
    9900012    2    1    2    0    0 -0.10800831916E+02  0.25852715577E+02  0.29464266659E+02  0.50528881926E+02  0.30000067103E+02 0.  0.
        -12    1    1    2    0    0  0.10800831916E+02 -0.25852715577E+02 -0.29464266659E+02  0.40659118074E+02  0.00000000000E+00 0.  1.
         11    1    3    3    0    0 -0.54465971895E+01  0.66019682415E+01  0.16879019228E+02  0.18924922615E+02  0.51100000000E-03 0. -1.
        -11    1    3    3    0    0 -0.60336237207E+01 -0.29932700387E+01  0.28596148251E+01  0.73172179096E+01  0.51100000000E-03 0.  1.
         12    1    3    3    0    0  0.67938899366E+00  0.22244017374E+02  0.97256326056E+01  0.24286741402E+02  0.00000000000E+00 0. -1.
</event>
<event>
 7    1  0.2702714E-011  0.5052886E+02  0.7816164E-02  0.1300439E+00
        -11   -1    0    0    0    0  0.00000000000E+00  0.00000000000E+00  0.45593999997E+02  0.45594000000E+02  0.51100000000E-03 0.  1.
         11   -1    0    0    0    0 -0.00000000000E+00 -0.00000000000E+00 -0.45593999997E+02  0.45594000000E+02  0.51100000000E-03 0. -1.
    9900012    2    1    2    0    0  0.15137538985E+02 -0.33547896629E+02 -0.17278865141E+02  0.50528860372E+02  0.30000001586E+02 0.  0.
        -12    1    1    2    0    0 -0.15137538985E+02  0.33547896629E+02  0.17278865141E+02  0.40659139628E+02  0.00000000000E+00 0.  1.
         11    1    3    3    0    0  0.51079905251E+00 -0.14831195100E+02  0.15550214057E+00  0.14840803379E+02  0.51100000000E-03 0. -1.
        -11    1    3    3    0    0  0.69985000706E+01  0.33373952534E+01 -0.34863220939E+01  0.85012735705E+01  0.51100000000E-03 0.  1.
        -12    1    3    3    0    0  0.76282398616E+01 -0.22054096783E+02 -0.13948045188E+02  0.27186783422E+02  0.00000000000E+00 0.  1.
</event>
<event>
 7    1  0.2702714E-011  0.5052887E+02  0.7816164E-02  0.1300439E+00
        -11   -1    0    0    0    0  0.00000000000E+00  0.00000000000E+00  0.45593999997E+02  0.45594000000E+02  0.51100000000E-03 0.  1.
         11   -1    0    0    0    0 -0.00000000000E+00 -0.00000000000E+00 -0.45593999997E+02  0.45594000000E+02  0.51100000000E-03 0. -1.
    9900012    2    1    2    0    0 -0.36342489180E+02 -0.14926592206E+02 -0.10468281473E+02  0.50528873205E+02  0.30000040595E+02 0.  0.
        -12    1    1    2    0    0  0.36342489180E+02  0.14926592206E+02  0.10468281473E+02  0.40659126795E+02  0.00000000000E+00 0.  1.
         11    1    3    3    0    0  0.12285452428E+01 -0.13631607758E+01 -0.77318880568E+01  0.79466737632E+01  0.51100000000E-03 0. -1.
        -11    1    3    3    0    0 -0.14735685086E+02 -0.11000144374E+02  0.36175493762E+01  0.18741138038E+02  0.51100000000E-03 0.  1.
        -12    1    3    3    0    0 -0.22835349337E+02 -0.25632870566E+01 -0.63539427928E+01  0.23841061405E+02  0.00000000000E+00 0.  1.
</event>
<event>
 7    1  0.2702714E-011  0.5052886E+02  0.7816164E-02  0.1300439E+00
        -11   -1    0    0    0    0  0.00000000000E+00  0.00000000000E+00  0.45593999997E+02  0.45594000000E+02  0.51100000000E-03 0. -1.
         11   -1    0    0    0    0 -0.00000000000E+00 -0.00000000000E+00 -0.45593999997E+02  0.45594000000E+02  0.51100000000E-03 0.  1.
    9900012    2    1    2    0    0  0.28045877160E+02  0.24809126741E+02 -0.15846176098E+02  0.50528864590E+02  0.30000014407E+02 0.  0.
        -12    1    1    2    0    0 -0.28045877160E+02 -0.24809126741E+02  0.15846176098E+02  0.40659135410E+02  0.00000000000E+00 0.  1.
         11    1    3    3    0    0  0.96092232631E+01  0.10918187924E+02  0.64468849916E+01  0.15909315687E+02  0.51100000000E-03 0. -1.
        -11    1    3    3    0    0  0.92840742298E+01  0.12481300154E+02 -0.77522299142E+01  0.17380274933E+02  0.51100000000E-03 0.  1.
        -12    1    3    3    0    0  0.91525796675E+01  0.14096386632E+01 -0.14540831176E+02  0.17239273970E+02  0.00000000000E+00 0.  1.
</event>
<event>
 7    1  0.2702714E-011  0.5052886E+02  0.7816164E-02  0.1300439E+00
        -11   -1    0    0    0    0  0.00000000000E+00  0.00000000000E+00  0.45593999997E+02  0.45594000000E+02  0.51100000000E-03 0. -1.
         11   -1    0    0    0    0 -0.00000000000E+00 -0.00000000000E+00 -0.45593999997E+02  0.45594000000E+02  0.51100000000E-03 0.  1.
    9900012    2    1    2    0    0  0.18881343401E+02  0.29775840210E+02  0.20249930816E+02  0.50528862197E+02  0.30000007133E+02 0.  0.
        -12    1    1    2    0    0 -0.18881343401E+02 -0.29775840210E+02 -0.20249930816E+02  0.40659137803E+02  0.00000000000E+00 0.  1.
         11    1    3    3    0    0  0.93481627665E+00  0.26457529627E+01  0.41716273151E+01  0.50275605345E+01  0.51100000000E-03 0. -1.
        -11    1    3    3    0    0  0.99098089730E+01 -0.24502106852E+00 -0.39202227652E+01  0.10659854408E+02  0.51100000000E-03 0.  1.
         12    1    3    3    0    0  0.80367181512E+01  0.27375108316E+02  0.19998526267E+02  0.34841447254E+02  0.00000000000E+00 0. -1.
</event>
<event>
 7    1  0.2702714E-011  0.5052886E+02  0.7816164E-02  0.1300439E+00
        -11   -1    0    0    0    0  0.00000000000E+00  0.00000000000E+00  0.45593999997E+02  0.45594000000E+02  0.51100000000E-03 0. -1.
         11   -1    0    0    0    0 -0.00000000000E+00 -0.00000000000E+00 -0.45593999997E+02  0.45594000000E+02  0.51100000000E-03 0.  1.
    9900012    2    1    2    0    0  0.15299099905E+02 -0.31920657751E+02  0.20004360888E+02  0.50528864450E+02  0.30000013981E+02 0.  0.
        -12    1    1    2    0    0 -0.15299099905E+02  0.31920657751E+02 -0.20004360888E+02  0.40659135550E+02  0.00000000000E+00 0.  1.
         11    1    3    3    0    0 -0.34111720914E+01 -0.85790055027E+01  0.10214738667E+02  0.13768671568E+02  0.51100000000E-03 0. -1.
        -11    1    3    3    0    0 -0.22866730555E+01  0.54271571304E+00 -0.17495687848E+01  0.29299155622E+01  0.51100000000E-03 0.  1.
         12    1    3    3    0    0  0.20996945052E+02 -0.23884367961E+02  0.11539191006E+02  0.33830277319E+02  0.00000000000E+00 0. -1.
</event>
<event>
 7    1  0.3466614E-011  0.5052886E+02  0.7816164E-02  0.1300439E+00
        -11   -1    0    0    0    0  0.00000000000E+00  0.00000000000E+00  0.45593999997E+02  0.45594000000E+02  0.51100000000E-03 0. -1.
         11   -1    0    0    0    0 -0.00000000000E+00 -0.00000000000E+00 -0.45593999997E+02  0.45594000000E+02  0.51100000000E-03 0.  1.
    9900012    2    1    2    0    0 -0.31135348952E+02 -0.17731374211E+02  0.19218589906E+02  0.50528858547E+02  0.29999996038E+02 0.  0.
        -12    1    1    2    0    0  0.31135348952E+02  0.17731374211E+02 -0.19218589906E+02  0.40659141453E+02  0.00000000000E+00 0.  1.
         11    1    3    3    0    0 -0.11382828798E+02 -0.52573112241E+01  0.88642065840E+01  0.15355203398E+02  0.51100000000E-03 0. -1.
        -11    1    3    3    0    0 -0.12497245048E+02  0.59298128116E+01  0.42669016296E+01  0.14475851048E+02  0.51100000000E-03 0.  1.
        -12    1    3    3    0    0 -0.72552751051E+01 -0.18403875799E+02  0.60874816922E+01  0.20697804101E+02  0.00000000000E+00 0.  1.
</event>
<event>
 7    1  0.2702714E-011  0.5052887E+02  0.7816164E-02  0.1300439E+00
        -11   -1    0    0    0    0  0.00000000000E+00  0.00000000000E+00  0.45593999997E+02  0.45594000000E+02  0.51100000000E-03 0. -1.
         11   -1    0    0    0    0 -0.00000000000E+00 -0.00000000000E+00 -0.45593999997E+02  0.45594000000E+02  0.51100000000E-03 0.  1.
    9900012    2    1    2    0    0 -0.23047706392E+02  0.27114014116E+02  0.19667195822E+02  0.50528866673E+02  0.30000020739E+02 0.  0.
        -12    1    1    2    0    0  0.23047706392E+02 -0.27114014116E+02 -0.19667195822E+02  0.40659133327E+02  0.00000000000E+00 0.  1.
         11    1    3    3    0    0 -0.74251090781E+01  0.33298031064E+01  0.21535488085E+01  0.84176960197E+01  0.51100000000E-03 0. -1.
        -11    1    3    3    0    0  0.14964218757E+01  0.63347675321E+01 -0.55121213398E+01  0.85294806431E+01  0.51100000000E-03 0.  1.
         12    1    3    3    0    0 -0.17119019190E+02  0.17449443477E+02  0.23025768353E+02  0.33581690010E+02  0.00000000000E+00 0. -1.
</event>
<event>
 7    1  0.2702714E-011  0.5052886E+02  0.7816164E-02  0.1300439E+00
        -11   -1    0    0    0    0  0.00000000000E+00  0.00000000000E+00  0.45593999997E+02  0.45594000000E+02  0.51100000000E-03 0. -1.
         11   -1    0    0    0    0 -0.00000000000E+00 -0.00000000000E+00 -0.45593999997E+02  0.45594000000E+02  0.51100000000E-03 0.  1.
    9900012    2    1    2    0    0 -0.63022337142E+01 -0.39809331080E+02 -0.53539499990E+01  0.50528858698E+02  0.29999996500E+02 0.  0.
        -12    1    1    2    0    0  0.63022337142E+01  0.39809331080E+02  0.53539499990E+01  0.40659141302E+02  0.00000000000E+00 0.  1.
         11    1    3    3    0    0 -0.14069422444E+02 -0.23814480606E+02 -0.99268432063E+00  0.27677853184E+02  0.51100000000E-03 0. -1.
        -11    1    3    3    0    0  0.19381815645E+01 -0.11370838666E+02  0.34732886329E+01  0.12046420794E+02  0.51100000000E-03 0.  1.
         12    1    3    3    0    0  0.58290071655E+01 -0.46240118073E+01 -0.78345543112E+01  0.10804584721E+02  0.00000000000E+00 0. -1.
</event>
<event>
 7    1  0.2702714E-011  0.5052886E+02  0.7816164E-02  0.1300439E+00
        -11   -1    0    0    0    0  0.00000000000E+00  0.00000000000E+00  0.45593999997E+02  0.45594000000E+02  0.51100000000E-03 0.  1.
         11   -1    0    0    0    0 -0.00000000000E+00 -0.00000000000E+00 -0.45593999997E+02  0.45594000000E+02  0.51100000000E-03 0. -1.
    9900012    2    1    2    0    0  0.13963431213E+02  0.29386677866E+02 -0.24384658748E+02  0.50528857984E+02  0.29999994328E+02 0.  0.
        -12    1    1    2    0    0 -0.13963431213E+02 -0.29386677866E+02  0.24384658748E+02  0.40659142016E+02  0.00000000000E+00 0.  1.
         11    1    3    3    0    0  0.46851339049E+01  0.14376158493E+02 -0.12578900722E+02  0.19668582978E+02  0.51100000000E-03 0. -1.
        -11    1    3    3    0    0 -0.41473596077E+01  0.14279861782E+02 -0.43856722584E+01  0.15503198561E+02  0.51100000000E-03 0.  1.
         12    1    3    3    0    0  0.13425656915E+02  0.73065759148E+00 -0.74200857677E+01  0.15357076445E+02  0.00000000000E+00 0. -1.
</event>
<event>
 7    1  0.2702714E-011  0.5052887E+02  0.7816164E-02  0.1300439E+00
        -11   -1    0    0    0    0  0.00000000000E+00  0.00000000000E+00  0.45593999997E+02  0.45594000000E+02  0.51100000000E-03 0.  1.
         11   -1    0    0    0    0 -0.00000000000E+00 -0.00000000000E+00 -0.45593999997E+02  0.45594000000E+02  0.51100000000E-03 0. -1.
    9900012    2    1    2    0    0 -0.23120693513E+02 -0.66362616165E+00 -0.33438874378E+02  0.50528865873E+02  0.30000018309E+02 0.  0.
        -12    1    1    2    0    0  0.23120693513E+02  0.66362616165E+00  0.33438874378E+02  0.40659134127E+02  0.00000000000E+00 0.  1.
         11    1    3    3    0    0 -0.13575306142E+01  0.11041347712E+01 -0.73502590930E+01  0.75556807739E+01  0.51100000000E-03 0. -1.
        -11    1    3    3    0    0 -0.19011144246E+02  0.99401665368E+01 -0.12510018552E+02  0.24834070966E+02  0.51100000000E-03 0.  1.
        -12    1    3    3    0    0 -0.27520186536E+01 -0.11707927470E+02 -0.13578596733E+02  0.18139114134E+02  0.00000000000E+00 0.  1.
</event>
<event>
 7    1  0.2702714E-011  0.5052886E+02  0.7816164E-02  0.1300439E+00
        -11   -1    0    0    0    0  0.00000000000E+00  0.00000000000E+00  0.45593999997E+02  0.45594000000E+02  0.51100000000E-03 0.  1.
         11   -1    0    0    0    0 -0.00000000000E+00 -0.00000000000E+00 -0.45593999997E+02  0.45594000000E+02  0.51100000000E-03 0. -1.
    9900012    2    1    2    0    0 -0.20919132823E+02 -0.23313549674E+02 -0.25923619283E+02  0.50528858922E+02  0.29999997178E+02 0.  0.
        -12    1    1    2    0    0  0.20919132823E+02  0.23313549674E+02  0.25923619283E+02  0.40659141078E+02  0.00000000000E+00 0.  1.
         11    1    3    3    0    0 -0.12954226683E+01 -0.17023821787E+02 -0.14837282226E+02  0.22619318563E+02  0.51100000000E-03 0. -1.
        -11    1    3    3    0    0  0.13969973625E+01  0.16957040317E+01 -0.35855355521E+01  0.42051253549E+01  0.51100000000E-03 0.  1.
        -12    1    3    3    0    0 -0.21020707517E+02 -0.79854319189E+01 -0.75008015052E+01  0.23704415004E+02  0.00000000000E+00 0.  1.
</event>
<event>
 7    1  0.2702714E-011  0.5052886E+02  0.7816164E-02  0.1300439E+00
        -11   -1    0    0    0    0  0.00000000000E+00  0.00000000000E+00  0.45593999997E+02  0.45594000000E+02  0.51100000000E-03 0. -1.
         11   -1    0    0    0    0 -0.00000000000E+00 -0.00000000000E+00 -0.45593999997E+02  0.45594000000E+02  0.51100000000E-03 0.  1.
    9900012    2    1    2    0    0 -0.38943513698E+02  0.73793032983E+01 -0.90616763206E+01  0.50528863831E+02  0.30000012100E+02 0.  0.
        -12    1    1    2    0    0  0.38943513698E+02 -0.73793032983E+01  0.90616763206E+01  0.40659136169E+02  0.00000000000E+00 0.  1.
         11    1    3    3    0    0 -0.24340418611E+01  0.10341119662E+02 -0.42703917069E+01  0.11449871669E+02  0.51100000000E-03 0. -1.
        -11    1    3    3    0    0 -0.10572772324E+02  0.20911225853E+01 -0.65232412395E+01  0.12597975425E+02  0.51100000000E-03 0.  1.
         12    1    3    3    0    0 -0.25936699513E+02 -0.50529389491E+01  0.17319566258E+01  0.26481016737E+02  0.00000000000E+00 0. -1.
</event>
<event>
 7    1  0.2702714E-011  0.5052885E+02  0.7816164E-02  0.1300439E+00
        -11   -1    0    0    0    0  0.00000000000E+00  0.00000000000E+00  0.45593999997E+02  0.45594000000E+02  0.51100000000E-03 0.  1.
         11   -1    0    0    0    0 -0.00000000000E+00 -0.00000000000E+00 -0.45593999997E+02  0.45594000000E+02  0.51100000000E-03 0. -1.
    9900012    2    1    2    0    0 -0.24424438778E+02  0.16205508328E+02 -0.28177908660E+02  0.50528852859E+02  0.29999978750E+02 0.  0.
        -12    1    1    2    0    0  0.24424438778E+02 -0.16205508328E+02  0.28177908660E+02  0.40659147141E+02  0.00000000000E+00 0.  1.
         11    1    3    3    0    0 -0.21829941024E+01 -0.15393621873E+01 -0.17048178176E+02  0.17256172188E+02  0.51100000000E-03 0. -1.
        -11    1    3    3    0    0 -0.13267692670E+02  0.46267259628E+01 -0.10178309561E+02  0.17350396183E+02  0.51100000000E-03 0.  1.
        -12    1    3    3    0    0 -0.89737520060E+01  0.13118144553E+02 -0.95142092264E+00  0.15922284489E+02  0.00000000000E+00 0.  1.
</event>
<event>
 7    1  0.2702714E-011  0.5052893E+02  0.7816164E-02  0.1300439E+00
        -11   -1    0    0    0    0  0.00000000000E+00  0.00000000000E+00  0.45593999997E+02  0.45594000000E+02  0.51100000000E-03 0.  1.
         11   -1    0    0    0    0 -0.00000000000E+00 -0.00000000000E+00 -0.45593999997E+02  0.45594000000E+02  0.51100000000E-03 0. -1.
    9900012    2    1    2    0    0 -0.18016010201E+02  0.14466284316E+02 -0.33456096003E+02  0.50528925180E+02  0.30000198575E+02 0.  0.
        -12    1    1    2    0    0  0.18016010201E+02 -0.14466284316E+02  0.33456096003E+02  0.40659074820E+02  0.00000000000E+00 0.  1.
         11    1    3    3    0    0  0.25076628502E+01 -0.42259789336E+01 -0.80803776928E+01  0.94572604298E+01  0.51100000000E-03 0. -1.
        -11    1    3    3    0    0 -0.40893652353E+01 -0.76624386999E+00  0.11307538320E+01  0.43114547644E+01  0.51100000000E-03 0.  1.
         12    1    3    3    0    0 -0.16434307816E+02  0.19458507120E+02 -0.26506472142E+02  0.36760209985E+02  0.00000000000E+00 0. -1.
</event>
<event>
 7    1  0.2702714E-011  0.5052875E+02  0.7816164E-02  0.1300439E+00
        -11   -1    0    0    0    0  0.00000000000E+00  0.00000000000E+00  0.45593999997E+02  0.45594000000E+02  0.51100000000E-03 0. -1.
         11   -1    0    0    0    0 -0.00000000000E+00 -0.00000000000E+00 -0.45593999997E+02  0.45594000000E+02  0.51100000000E-03 0.  1.
    9900012    2    1    2    0    0 -0.11492260095E+02  0.12378672235E+02  0.36984745688E+02  0.50528745432E+02  0.29999652213E+02 0.  0.
        -12    1    1    2    0    0  0.11492260095E+02 -0.12378672235E+02 -0.36984745688E+02  0.40659254568E+02  0.00000000000E+00 0.  1.
         11    1    3    3    0    0 -0.24045110792E+01  0.11671231619E+02  0.24162360765E+02  0.26941028173E+02  0.51100000000E-03 0. -1.
        -11    1    3    3    0    0 -0.18546365304E+00 -0.10153664907E+01 -0.41870277246E+01  0.43123737437E+01  0.51100000000E-03 0.  1.
         12    1    3    3    0    0 -0.89022853627E+01  0.17228071074E+01  0.17009412647E+02  0.19275343515E+02  0.00000000000E+00 0. -1.
</event>
<event>
 7    1  0.2702714E-011  0.5052885E+02  0.7816164E-02  0.1300439E+00
        -11   -1    0    0    0    0  0.00000000000E+00  0.00000000000E+00  0.45593999997E+02  0.45594000000E+02  0.51100000000E-03 0.  1.
         11   -1    0    0    0    0 -0.00000000000E+00 -0.00000000000E+00 -0.45593999997E+02  0.45594000000E+02  0.51100000000E-03 0. -1.
    9900012    2    1    2    0    0  0.28927825449E+02 -0.14341591909E+02 -0.24711655566E+02  0.50528852635E+02  0.29999978068E+02 0.  0.
        -12    1    1    2    0    0 -0.28927825449E+02  0.14341591909E+02  0.24711655566E+02  0.40659147365E+02  0.00000000000E+00 0.  1.
         11    1    3    3    0    0  0.87997208150E+01 -0.12019558813E+02 -0.12000968565E+02  0.19129247953E+02  0.51100000000E-03 0. -1.
        -11    1    3    3    0    0  0.18042052380E+02 -0.15468069967E+01 -0.18079025135E+02  0.25588267156E+02  0.51100000000E-03 0.  1.
        -12    1    3    3    0    0  0.20860522543E+01 -0.77522609883E+00  0.53683381342E+01  0.58113375255E+01  0.00000000000E+00 0.  1.
</event>
<event>
 7    1  0.2702714E-011  0.5052886E+02  0.7816164E-02  0.1300439E+00
        -11   -1    0    0    0    0  0.00000000000E+00  0.00000000000E+00  0.45593999997E+02  0.45594000000E+02  0.51100000000E-03 0. -1.
         11   -1    0    0    0    0 -0.00000000000E+00 -0.00000000000E+00 -0.45593999997E+02  0.45594000000E+02  0.51100000000E-03 0.  1.
    9900012    2    1    2    0    0 -0.54277102969E+01 -0.99688334641E+00  0.40282899060E+02  0.50528858689E+02  0.29999996470E+02 0.  0.
        -12    1    1    2    0    0  0.54277102969E+01  0.99688334641E+00 -0.40282899060E+02  0.40659141311E+02  0.00000000000E+00 0.  1.
         11    1    3    3    0    0  0.16399122654E+01 -0.94280179767E+01  0.37272679948E+01  0.10269827758E+02  0.51100000000E-03 0. -1.
        -11    1    3    3    0    0  0.21650582834E+01  0.63936772726E+01  0.99528831758E+01  0.12026074597E+02  0.51100000000E-03 0.  1.
        -12    1    3    3    0    0 -0.92326808457E+01  0.20374573577E+01  0.26602747890E+02  0.28232956334E+02  0.00000000000E+00 0.  1.
</event>
<event>
 7    1  0.2702714E-011  0.5052885E+02  0.7816164E-02  0.1300439E+00
        -11   -1    0    0    0    0  0.00000000000E+00  0.00000000000E+00  0.45593999997E+02  0.45594000000E+02  0.51100000000E-03 0.  1.
         11   -1    0    0    0    0 -0.00000000000E+00 -0.00000000000E+00 -0.45593999997E+02  0.45594000000E+02  0.51100000000E-03 0. -1.
    9900012    2    1    2    0    0  0.12010257772E+02 -0.19761244427E+02 -0.33442683798E+02  0.50528853764E+02  0.29999981502E+02 0.  0.
        -12    1    1    2    0    0 -0.12010257772E+02  0.19761244427E+02  0.33442683798E+02  0.40659146236E+02  0.00000000000E+00 0.  1.
         11    1    3    3    0    0 -0.22549055127E+01  0.21812593722E+01 -0.24928475575E+01  0.40070912800E+01  0.51100000000E-03 0. -1.
        -11    1    3    3    0    0 -0.62150835463E+01 -0.33361940555E+01 -0.58658558995E+01  0.91741877001E+01  0.51100000000E-03 0.  1.
         12    1    3    3    0    0  0.20480246831E+02 -0.18606309743E+02 -0.25083980341E+02  0.37347574784E+02  0.00000000000E+00 0. -1.
</event>
<event>
 7    1  0.2702714E-011  0.5052887E+02  0.7816164E-02  0.1300439E+00
        -11   -1    0    0    0    0  0.00000000000E+00  0.00000000000E+00  0.45593999997E+02  0.45594000000E+02  0.51100000000E-03 0.  1.
         11   -1    0    0    0    0 -0.00000000000E+00 -0.00000000000E+00 -0.45593999997E+02  0.45594000000E+02  0.51100000000E-03 0. -1.
    9900012    2    1    2    0    0 -0.28348943989E+01 -0.32206659010E+02 -0.24654798940E+02  0.50528872838E+02  0.30000039479E+02 0.  0.
        -12    1    1    2    0    0  0.28348943989E+01  0.32206659010E+02  0.24654798940E+02  0.40659127162E+02  0.00000000000E+00 0.  1.
         11    1    3    3    0    0  0.30257136470E+01 -0.76198185274E+01 -0.12676193333E+02  0.15096438492E+02  0.51100000000E-03 0. -1.
        -11    1    3    3    0    0 -0.90247531378E+01 -0.12576963545E+02 -0.16111695089E+02  0.22343072754E+02  0.51100000000E-03 0.  1.
        -12    1    3    3    0    0  0.31641450920E+01 -0.12009876938E+02  0.41330894821E+01  0.13089361592E+02  0.00000000000E+00 0.  1.
</event>
<event>
 7    1  0.2702714E-011  0.5052886E+02  0.7816164E-02  0.1300439E+00
        -11   -1    0    0    0    0  0.00000000000E+00  0.00000000000E+00  0.45593999997E+02  0.45594000000E+02  0.51100000000E-03 0. -1.
         11   -1    0    0    0    0 -0.00000000000E+00 -0.00000000000E+00 -0.45593999997E+02  0.45594000000E+02  0.51100000000E-03 0.  1.
    9900012    2    1    2    0    0 -0.12049761591E+02 -0.24588864795E+02  0.30055893328E+02  0.50528858961E+02  0.29999997298E+02 0.  0.
        -12    1    1    2    0    0  0.12049761591E+02  0.24588864795E+02 -0.30055893328E+02  0.40659141039E+02  0.00000000000E+00 0.  1.
         11    1    3    3    0    0  0.53860451960E+01 -0.12287575051E+02  0.68453527580E+01  0.15061634643E+02  0.51100000000E-03 0. -1.
        -11    1    3    3    0    0 -0.14804928457E+02 -0.14222670426E+02  0.11970848655E+02  0.23764921175E+02  0.51100000000E-03 0.  1.
         12    1    3    3    0    0 -0.26308783304E+01  0.19213806821E+01  0.11239691915E+02  0.11702303143E+02  0.00000000000E+00 0. -1.
</event>
<event>
 7    1  0.2702714E-011  0.5052886E+02  0.7816164E-02  0.1300439E+00
        -11   -1    0    0    0    0  0.00000000000E+00  0.00000000000E+00  0.45593999997E+02  0.45594000000E+02  0.51100000000E-03 0. -1.
         11   -1    0    0    0    0 -0.00000000000E+00 -0.00000000000E+00 -0.45593999997E+02  0.45594000000E+02  0.51100000000E-03 0.  1.
    9900012    2    1    2    0    0  0.17593191047E+02  0.28145810438E+02  0.23483153419E+02  0.50528861902E+02  0.30000006237E+02 0.  0.
        -12    1    1    2    0    0 -0.17593191047E+02 -0.28145810438E+02 -0.23483153419E+02  0.40659138098E+02  0.00000000000E+00 0.  1.
         11    1    3    3    0    0  0.94494291500E+00 -0.16091842431E+01  0.51793260315E+01  0.55052528954E+01  0.51100000000E-03 0. -1.
        -11    1    3    3    0    0  0.37357344020E+01  0.23192093524E+01 -0.50896240833E+01  0.67259733209E+01  0.51100000000E-03 0.  1.
         12    1    3    3    0    0  0.12912513730E+02  0.27435785329E+02  0.23393451470E+02  0.38297635686E+02  0.00000000000E+00 0. -1.
</event>
<event>
 7    1  0.2924864E-011  0.5052886E+02  0.7816164E-02  0.1300439E+00
        -11   -1    0    0    0    0  0.00000000000E+00  0.00000000000E+00  0.45593999997E+02  0.45594000000E+02  0.51100000000E-03 0. -1.
         11   -1    0    0    0    0 -0.00000000000E+00 -0.00000000000E+00 -0.45593999997E+02  0.45594000000E+02  0.51100000000E-03 0.  1.
    9900012    2    1    2    0    0 -0.28976699430E+02 -0.54417842613E+01  0.27998271189E+02  0.50528864306E+02  0.30000013544E+02 0.  0.
        -12    1    1    2    0    0  0.28976699430E+02  0.54417842613E+01 -0.27998271189E+02  0.40659135694E+02  0.00000000000E+00 0.  1.
         11    1    3    3    0    0 -0.89858957325E+01 -0.75928435993E+01  0.16414108940E+02  0.20194567799E+02  0.51100000000E-03 0. -1.
        -11    1    3    3    0    0 -0.22696613355E+02 -0.19112467113E+01  0.75304642725E+01  0.23989518841E+02  0.51100000000E-03 0.  1.
        -12    1    3    3    0    0  0.27058096580E+01  0.40623060493E+01  0.40536979772E+01  0.63447776663E+01  0.00000000000E+00 0.  1.
</event>
<event>
 7    1  0.2702714E-011  0.5052888E+02  0.7816164E-02  0.1300439E+00
        -11   -1    0    0    0    0  0.00000000000E+00  0.00000000000E+00  0.45593999997E+02  0.45594000000E+02  0.51100000000E-03 0. -1.
         11   -1    0    0    0    0 -0.00000000000E+00 -0.00000000000E+00 -0.45593999997E+02  0.45594000000E+02  0.51100000000E-03 0.  1.
    9900012    2    1    2    0    0  0.13295775666E+02 -0.28830431103E+02  0.25400642848E+02  0.50528879680E+02  0.30000060275E+02 0.  0.
        -12    1    1    2    0    0 -0.13295775666E+02  0.28830431103E+02 -0.25400642848E+02  0.40659120320E+02  0.00000000000E+00 0.  1.
         11    1    3    3    0    0  0.77529546445E+01 -0.91597229336E+01  0.93060405500E+01  0.15185888875E+02  0.51100000000E-03 0. -1.
        -11    1    3    3    0    0  0.87942213241E+01 -0.84296438087E+01 -0.33631341175E+01  0.12637558894E+02  0.51100000000E-03 0.  1.
         12    1    3    3    0    0 -0.32514003026E+01 -0.11241064360E+02  0.19457736415E+02  0.22705431911E+02  0.00000000000E+00 0. -1.
</event>
<event>
 7    1  0.2702714E-011  0.5052886E+02  0.7816164E-02  0.1300439E+00
        -11   -1    0    0    0    0  0.00000000000E+00  0.00000000000E+00  0.45593999997E+02  0.45594000000E+02  0.51100000000E-03 0.  1.
         11   -1    0    0    0    0 -0.00000000000E+00 -0.00000000000E+00 -0.45593999997E+02  0.45594000000E+02  0.51100000000E-03 0. -1.
    9900012    2    1    2    0    0 -0.49547487721E+01  0.32724998326E+02 -0.23615478893E+02  0.50528857188E+02  0.29999991909E+02 0.  0.
        -12    1    1    2    0    0  0.49547487721E+01 -0.32724998326E+02  0.23615478893E+02  0.40659142812E+02  0.00000000000E+00 0.  1.
         11    1    3    3    0    0  0.63084086163E+01  0.10442410638E+02  0.84373740634E+00  0.12229139474E+02  0.51100000000E-03 0.  1.
        -11    1    3    3    0    0  0.17978302275E+01  0.43710835296E+01 -0.11939218691E+02  0.12840697332E+02  0.51100000000E-03 0. -1.
         12    1    3    3    0    0 -0.13060987616E+02  0.17911504159E+02 -0.12519997608E+02  0.25459020383E+02  0.00000000000E+00 0. -1.
</event>
<event>
 7    1  0.2702714E-011  0.5052886E+02  0.7816164E-02  0.1300439E+00
        -11   -1    0    0    0    0  0.00000000000E+00  0.00000000000E+00  0.45593999997E+02  0.45594000000E+02  0.51100000000E-03 0.  1.
         11   -1    0    0    0    0 -0.00000000000E+00 -0.00000000000E+00 -0.45593999997E+02  0.45594000000E+02  0.51100000000E-03 0. -1.
    9900012    2    1    2    0    0  0.13466497951E+02 -0.28274005303E+02 -0.25930668761E+02  0.50528861724E+02  0.30000005697E+02 0.  0.
        -12    1    1    2    0    0 -0.13466497951E+02  0.28274005303E+02  0.25930668761E+02  0.40659138276E+02  0.00000000000E+00 0.  1.
         11    1    3    3    0    0 -0.12319072585E+01 -0.33156548362E+00 -0.12658654675E+02  0.12722777590E+02  0.51100000000E-03 0.  1.
        -11    1    3    3    0    0  0.63246725440E+01 -0.21218879646E+02 -0.15251916869E+02  0.26886117322E+02  0.51100000000E-03 0. -1.
        -12    1    3    3    0    0  0.83737326654E+01 -0.67235601728E+01  0.19799027826E+01  0.10919966812E+02  0.00000000000E+00 0.  1.
</event>
<event>
 7    1  0.2702714E-011  0.5052887E+02  0.7816164E-02  0.1300439E+00
        -11   -1    0    0    0    0  0.00000000000E+00  0.00000000000E+00  0.45593999997E+02  0.45594000000E+02  0.51100000000E-03 0.  1.
         11   -1    0    0    0    0 -0.00000000000E+00 -0.00000000000E+00 -0.45593999997E+02  0.45594000000E+02  0.51100000000E-03 0. -1.
    9900012    2    1    2    0    0  0.37718971005E+02  0.62544153502E+01 -0.13832078635E+02  0.50528869606E+02  0.30000029653E+02 0.  0.
        -12    1    1    2    0    0 -0.37718971005E+02 -0.62544153502E+01  0.13832078635E+02  0.40659130394E+02  0.00000000000E+00 0.  1.
         11    1    3    3    0    0  0.12651567384E+02  0.68013693062E+01 -0.12747521132E+02  0.19204688932E+02  0.51100000000E-03 0. -1.
        -11    1    3    3    0    0 -0.23222280077E+01  0.23306432389E+01  0.15901832102E+01  0.36542199893E+01  0.51100000000E-03 0.  1.
         12    1    3    3    0    0  0.27389631629E+02 -0.28775971949E+01 -0.26747407136E+01  0.27669960684E+02  0.00000000000E+00 0. -1.
</event>
<event>
 7    1  0.2702714E-011  0.5052885E+02  0.7816164E-02  0.1300439E+00
        -11   -1    0    0    0    0  0.00000000000E+00  0.00000000000E+00  0.45593999997E+02  0.45594000000E+02  0.51100000000E-03 0. -1.
         11   -1    0    0    0    0 -0.00000000000E+00 -0.00000000000E+00 -0.45593999997E+02  0.45594000000E+02  0.51100000000E-03 0.  1.
    9900012    2    1    2    0    0  0.53568257271E+01 -0.11316951131E+02  0.38683292711E+02  0.50528854661E+02  0.29999984226E+02 0.  0.
        -12    1    1    2    0    0 -0.53568257271E+01  0.11316951131E+02 -0.38683292711E+02  0.40659145339E+02  0.00000000000E+00 0.  1.
         11    1    3    3    0    0 -0.32621430660E+01  0.22702162899E+01 -0.85940723677E+00  0.40662071326E+01  0.51100000000E-03 0. -1.
        -11    1    3    3    0    0  0.14371171866E+02 -0.84678472976E+01  0.26286655928E+02  0.31132351322E+02  0.51100000000E-03 0.  1.
         12    1    3    3    0    0 -0.57522030734E+01 -0.51193201234E+01  0.13256044020E+02  0.15330296206E+02  0.00000000000E+00 0. -1.
</event>
<event>
 7    1  0.2702714E-011  0.5052886E+02  0.7816164E-02  0.1300439E+00
        -11   -1    0    0    0    0  0.00000000000E+00  0.00000000000E+00  0.45593999997E+02  0.45594000000E+02  0.51100000000E-03 0. -1.
         11   -1    0    0    0    0 -0.00000000000E+00 -0.00000000000E+00 -0.45593999997E+02  0.45594000000E+02  0.51100000000E-03 0.  1.
    9900012    2    1    2    0    0 -0.50773584309E+01 -0.10838191531E+02  0.38857682686E+02  0.50528862429E+02  0.30000007838E+02 0.  0.
        -12    1    1    2    0    0  0.50773584309E+01  0.10838191531E+02 -0.38857682686E+02  0.40659137571E+02  0.00000000000E+00 0.  1.
         11    1    3    3    0    0  0.71924023389E+01 -0.43831709178E+01  0.40281802033E+01  0.93364380098E+01  0.51100000000E-03 0. -1.
        -11    1    3    3    0    0  0.43141621723E+01 -0.10165379532E+01  0.88023068121E+01  0.98552498768E+01  0.51100000000E-03 0.  1.
         12    1    3    3    0    0 -0.16583922942E+02 -0.54384826595E+01  0.26027195671E+02  0.31337174542E+02  0.00000000000E+00 0. -1.
</event>
<event>
 7    1  0.2702714E-011  0.5052886E+02  0.7816164E-02  0.1300439E+00
        -11   -1    0    0    0    0  0.00000000000E+00  0.00000000000E+00  0.45593999997E+02  0.45594000000E+02  0.51100000000E-03 0.  1.
         11   -1    0    0    0    0 -0.00000000000E+00 -0.00000000000E+00 -0.45593999997E+02  0.45594000000E+02  0.51100000000E-03 0. -1.
    9900012    2    1    2    0    0  0.25484922902E+02 -0.81399703017E+01 -0.30617401830E+02  0.50528859495E+02  0.29999998920E+02 0.  0.
        -12    1    1    2    0    0 -0.25484922902E+02  0.81399703017E+01  0.30617401830E+02  0.40659140505E+02  0.00000000000E+00 0.  1.
         11    1    3    3    0    0  0.12613767897E+02  0.28942574577E+01 -0.24815746350E+02  0.27987588927E+02  0.51100000000E-03 0. -1.
        -11    1    3    3    0    0  0.15306499370E+01  0.28658464648E+01  0.93166632359E+00  0.33799360333E+01  0.51100000000E-03 0.  1.
        -12    1    3    3    0    0  0.11340505068E+02 -0.13900074224E+02 -0.67333218030E+01  0.19161334534E+02  0.00000000000E+00 0.  1.
</event>
<event>
 7    1  0.2702714E-011  0.5052885E+02  0.7816164E-02  0.1300439E+00
        -11   -1    0    0    0    0  0.00000000000E+00  0.00000000000E+00  0.45593999997E+02  0.45594000000E+02  0.51100000000E-03 0. -1.
         11   -1    0    0    0    0 -0.00000000000E+00 -0.00000000000E+00 -0.45593999997E+02  0.45594000000E+02  0.51100000000E-03 0.  1.
    9900012    2    1    2    0    0  0.37470658841E+02  0.18941084488E+01 -0.15669339179E+02  0.50528854521E+02  0.29999983803E+02 0.  0.
        -12    1    1    2    0    0 -0.37470658841E+02 -0.18941084488E+01  0.15669339179E+02  0.40659145479E+02  0.00000000000E+00 0.  1.
         11    1    3    3    0    0  0.38824789846E+01  0.77559565361E+01 -0.75645657294E+01  0.11508742755E+02  0.51100000000E-03 0. -1.
        -11    1    3    3    0    0  0.10739133382E+00 -0.33261860879E+01 -0.39846842014E+01  0.51916043027E+01  0.51100000000E-03 0.  1.
         12    1    3    3    0    0  0.33480788522E+02 -0.25356619994E+01 -0.41200892477E+01  0.33828507464E+02  0.00000000000E+00 0. -1.
</event>
<event>
 7    1  0.2702714E-011  0.5052887E+02  0.7816164E-02  0.1300439E+00
        -11   -1    0    0    0    0  0.00000000000E+00  0.00000000000E+00  0.45593999997E+02  0.45594000000E+02  0.51100000000E-03 0.  1.
         11   -1    0    0    0    0 -0.00000000000E+00 -0.00000000000E+00 -0.45593999997E+02  0.45594000000E+02  0.51100000000E-03 0. -1.
    9900012    2    1    2    0    0  0.21798126712E+02 -0.17685436832E+02 -0.29414824975E+02  0.50528869016E+02  0.30000027860E+02 0.  0.
        -12    1    1    2    0    0 -0.21798126712E+02  0.17685436832E+02  0.29414824975E+02  0.40659130984E+02  0.00000000000E+00 0.  1.
         11    1    3    3    0    0  0.13959811654E+01 -0.16749706831E+02 -0.61651444888E+01  0.17902805623E+02  0.51100000000E-03 0. -1.
        -11    1    3    3    0    0  0.22285108625E+01 -0.32020096139E+01 -0.14684425559E+01  0.41683869821E+01  0.51100000000E-03 0.  1.
        -12    1    3    3    0    0  0.18173634685E+02  0.22662796132E+01 -0.21781237930E+02  0.28457676411E+02  0.00000000000E+00 0.  1.
</event>
<event>
 7    1  0.2702714E-011  0.5052886E+02  0.7816164E-02  0.1300439E+00
        -11   -1    0    0    0    0  0.00000000000E+00  0.00000000000E+00  0.45593999997E+02  0.45594000000E+02  0.51100000000E-03 0.  1.
         11   -1    0    0    0    0 -0.00000000000E+00 -0.00000000000E+00 -0.45593999997E+02  0.45594000000E+02  0.51100000000E-03 0. -1.
    9900012    2    1    2    0    0 -0.11936856882E+02  0.26171640583E+02 -0.28735390669E+02  0.50528855888E+02  0.29999987956E+02 0.  0.
        -12    1    1    2    0    0  0.11936856882E+02 -0.26171640583E+02  0.28735390669E+02  0.40659144112E+02  0.00000000000E+00 0.  1.
         11    1    3    3    0    0 -0.23315989753E+01  0.50172126558E+01 -0.12430589452E+02  0.13606187232E+02  0.51100000000E-03 0. -1.
        -11    1    3    3    0    0 -0.79573252810E+01 -0.30116434121E+01 -0.68409211216E+01  0.10917290127E+02  0.51100000000E-03 0.  1.
        -12    1    3    3    0    0 -0.16479326262E+01  0.24166071339E+02 -0.94638800958E+01  0.26005378528E+02  0.00000000000E+00 0.  1.
</event>
<event>
 7    1  0.2702714E-011  0.5052886E+02  0.7816164E-02  0.1300439E+00
        -11   -1    0    0    0    0  0.00000000000E+00  0.00000000000E+00  0.45593999997E+02  0.45594000000E+02  0.51100000000E-03 0.  1.
         11   -1    0    0    0    0 -0.00000000000E+00 -0.00000000000E+00 -0.45593999997E+02  0.45594000000E+02  0.51100000000E-03 0. -1.
    9900012    2    1    2    0    0 -0.89904137520E+01 -0.38456895720E+02 -0.96646544183E+01  0.50528856958E+02  0.29999991210E+02 0.  0.
        -12    1    1    2    0    0  0.89904137520E+01  0.38456895720E+02  0.96646544183E+01  0.40659143042E+02  0.00000000000E+00 0.  1.
         11    1    3    3    0    0  0.19933923624E+01 -0.31012070572E+01 -0.55991372866E+01  0.67038374784E+01  0.51100000000E-03 0. -1.
        -11    1    3    3    0    0 -0.15794388262E+01 -0.10246762497E+02  0.92445996564E+01  0.13890766420E+02  0.51100000000E-03 0.  1.
         12    1    3    3    0    0 -0.94043672883E+01 -0.25108926166E+02 -0.13310116788E+02  0.29934253060E+02  0.00000000000E+00 0. -1.
</event>
<event>
 7    1  0.2702714E-011  0.5052886E+02  0.7816164E-02  0.1300439E+00
        -11   -1    0    0    0    0  0.00000000000E+00  0.00000000000E+00  0.45593999997E+02  0.45594000000E+02  0.51100000000E-03 0.  1.
         11   -1    0    0    0    0 -0.00000000000E+00 -0.00000000000E+00 -0.45593999997E+02  0.45594000000E+02  0.51100000000E-03 0. -1.
    9900012    2    1    2    0    0  0.26820269427E+02 -0.22975083769E+02  0.20149043671E+02  0.50528864652E+02  0.30000014597E+02 0.  0.
        -12    1    1    2    0    0 -0.26820269427E+02  0.22975083769E+02 -0.20149043671E+02  0.40659135348E+02  0.00000000000E+00 0.  1.
         11    1    3    3    0    0  0.98560440036E+01 -0.20355750046E+02  0.86693301137E+01  0.24220971249E+02  0.51100000000E-03 0. -1.
        -11    1    3    3    0    0 -0.86719903889E+00 -0.25387466839E+01 -0.24865447395E+01  0.36578920024E+01  0.51100000000E-03 0.  1.
         12    1    3    3    0    0  0.17831424463E+02 -0.80587039049E-01  0.13966258297E+02  0.22650001401E+02  0.00000000000E+00 0. -1.
</event>
<event>
 7    1  0.2702714E-011  0.5052884E+02  0.7816164E-02  0.1300439E+00
        -11   -1    0    0    0    0  0.00000000000E+00  0.00000000000E+00  0.45593999997E+02  0.45594000000E+02  0.51100000000E-03 0.  1.
         11   -1    0    0    0    0 -0.00000000000E+00 -0.00000000000E+00 -0.45593999997E+02  0.45594000000E+02  0.51100000000E-03 0. -1.
    9900012    2    1    2    0    0  0.32015132815E+02 -0.12769652294E+02 -0.21566975991E+02  0.50528841102E+02  0.29999943014E+02 0.  0.
        -12    1    1    2    0    0 -0.32015132815E+02  0.12769652294E+02  0.21566975991E+02  0.40659158898E+02  0.00000000000E+00 0.  1.
         11    1    3    3    0    0  0.15776963025E+02 -0.47241482441E+01 -0.10919865171E+02  0.19760404716E+02  0.51100000000E-03 0. -1.
        -11    1    3    3    0    0  0.16059544428E+01  0.28774680676E+01  0.54880122882E+01  0.64013429286E+01  0.51100000000E-03 0.  1.
         12    1    3    3    0    0  0.14632215348E+02 -0.10922972118E+02 -0.16135123108E+02  0.24367093458E+02  0.00000000000E+00 0. -1.
</event>
<event>
 7    1  0.2702714E-011  0.5052887E+02  0.7816164E-02  0.1300439E+00
        -11   -1    0    0    0    0  0.00000000000E+00  0.00000000000E+00  0.45593999997E+02  0.45594000000E+02  0.51100000000E-03 0. -1.
         11   -1    0    0    0    0 -0.00000000000E+00 -0.00000000000E+00 -0.45593999997E+02  0.45594000000E+02  0.51100000000E-03 0.  1.
    9900012    2    1    2    0    0 -0.25989367850E+01 -0.11770101536E+02  0.38831371624E+02  0.50528865912E+02  0.30000018427E+02 0.  0.
        -12    1    1    2    0    0  0.25989367850E+01  0.11770101536E+02 -0.38831371624E+02  0.40659134088E+02  0.00000000000E+00 0.  1.
         11    1    3    3    0    0  0.63715805091E+01 -0.40523991136E+01  0.16289547580E+02  0.17954618831E+02  0.51100000000E-03 0. -1.
        -11    1    3    3    0    0  0.37819372597E+01 -0.38350088360E+00  0.16050785615E+02  0.16494782250E+02  0.51100000000E-03 0.  1.
        -12    1    3    3    0    0 -0.12752454554E+02 -0.73342015385E+01  0.64910384288E+01  0.16079464831E+02  0.00000000000E+00 0.  1.
</event>
<event>
 7    1  0.2702714E-011  0.5052887E+02  0.7816164E-02  0.1300439E+00
        -11   -1    0    0    0    0  0.00000000000E+00  0.00000000000E+00  0.45593999997E+02  0.45594000000E+02  0.51100000000E-03 0.  1.
         11   -1    0    0    0    0 -0.00000000000E+00 -0.00000000000E+00 -0.45593999997E+02  0.45594000000E+02  0.51100000000E-03 0. -1.
    9900012    2    1    2    0    0 -0.32116925088E+02 -0.15284025386E+02 -0.19699404302E+02  0.50528870164E+02  0.30000031352E+02 0.  0.
        -12    1    1    2    0    0  0.32116925088E+02  0.15284025386E+02  0.19699404302E+02  0.40659129836E+02  0.00000000000E+00 0.  1.
         11    1    3    3    0    0 -0.24795383101E+02 -0.41345165997E+01 -0.10181001383E+02  0.27121173280E+02  0.51100000000E-03 0. -1.
        -11    1    3    3    0    0 -0.61378438032E+01 -0.13358681062E+02 -0.12345745651E+01  0.14753022094E+02  0.51100000000E-03 0.  1.
         12    1    3    3    0    0 -0.11836981834E+01  0.22091722755E+01 -0.82838283545E+01  0.86546747911E+01  0.00000000000E+00 0. -1.
</event>
<event>
 7    1  0.2702714E-011  0.5052886E+02  0.7816164E-02  0.1300439E+00
        -11   -1    0    0    0    0  0.00000000000E+00  0.00000000000E+00  0.45593999997E+02  0.45594000000E+02  0.51100000000E-03 0.  1.
         11   -1    0    0    0    0 -0.00000000000E+00 -0.00000000000E+00 -0.45593999997E+02  0.45594000000E+02  0.51100000000E-03 0. -1.
    9900012    2    1    2    0    0 -0.27084852213E+02 -0.29803591285E+02  0.55966480624E+01  0.50528859055E+02  0.29999997584E+02 0.  0.
        -12    1    1    2    0    0  0.27084852213E+02  0.29803591285E+02 -0.55966480624E+01  0.40659140945E+02  0.00000000000E+00 0.  1.
         11    1    3    3    0    0  0.13397973428E+01  0.32830046632E+01  0.39969867515E+00  0.35683239526E+01  0.51100000000E-03 0. -1.
        -11    1    3    3    0    0 -0.82721088048E+01 -0.12629824014E+02  0.96256313525E+01  0.17905111502E+02  0.51100000000E-03 0.  1.
         12    1    3    3    0    0 -0.20152540751E+02 -0.20456771934E+02 -0.44286819652E+01  0.29055423601E+02  0.00000000000E+00 0. -1.
</event>
<event>
 7    1  0.2702714E-011  0.5052886E+02  0.7816164E-02  0.1300439E+00
        -11   -1    0    0    0    0  0.00000000000E+00  0.00000000000E+00  0.45593999997E+02  0.45594000000E+02  0.51100000000E-03 0.  1.
         11   -1    0    0    0    0 -0.00000000000E+00 -0.00000000000E+00 -0.45593999997E+02  0.45594000000E+02  0.51100000000E-03 0. -1.
    9900012    2    1    2    0    0  0.23175634774E+02  0.11159140740E+02 -0.31488552012E+02  0.50528863548E+02  0.30000011241E+02 0.  0.
        -12    1    1    2    0    0 -0.23175634774E+02 -0.11159140740E+02  0.31488552012E+02  0.40659136452E+02  0.00000000000E+00 0.  1.
         11    1    3    3    0    0  0.51339794139E+01 -0.76942680646E+00  0.11861063794E+00  0.51926708905E+01  0.51100000000E-03 0. -1.
        -11    1    3    3    0    0 -0.52085894622E+01  0.56833558041E+01 -0.39275992409E+01  0.86519346646E+01  0.51100000000E-03 0.  1.
         12    1    3    3    0    0  0.23250244822E+02  0.62452117425E+01 -0.27679563409E+02  0.36684257993E+02  0.00000000000E+00 0. -1.
</event>
<event>
 7    1  0.2702714E-011  0.5052886E+02  0.7816164E-02  0.1300439E+00
        -11   -1    0    0    0    0  0.00000000000E+00  0.00000000000E+00  0.45593999997E+02  0.45594000000E+02  0.51100000000E-03 0. -1.
         11   -1    0    0    0    0 -0.00000000000E+00 -0.00000000000E+00 -0.45593999997E+02  0.45594000000E+02  0.51100000000E-03 0.  1.
    9900012    2    1    2    0    0 -0.22142853426E+02  0.18742120495E+02  0.28488464293E+02  0.50528860360E+02  0.30000001551E+02 0.  0.
        -12    1    1    2    0    0  0.22142853426E+02 -0.18742120495E+02 -0.28488464293E+02  0.40659139640E+02  0.00000000000E+00 0.  1.
         11    1    3    3    0    0 -0.19799830519E+02 -0.74042575991E+00  0.15274093225E+02  0.25017582676E+02  0.51100000000E-03 0. -1.
        -11    1    3    3    0    0  0.21372217949E+01  0.98761327780E+01  0.10493688668E+02  0.14567883092E+02  0.51100000000E-03 0.  1.
        -12    1    3    3    0    0 -0.44802447017E+01  0.96064134765E+01  0.27206824001E+01  0.10943394592E+02  0.00000000000E+00 0.  1.
</event>
<event>
 7    1  0.2702714E-011  0.5052886E+02  0.7816164E-02  0.1300439E+00
        -11   -1    0    0    0    0  0.00000000000E+00  0.00000000000E+00  0.45593999997E+02  0.45594000000E+02  0.51100000000E-03 0.  1.
         11   -1    0    0    0    0 -0.00000000000E+00 -0.00000000000E+00 -0.45593999997E+02  0.45594000000E+02  0.51100000000E-03 0. -1.
    9900012    2    1    2    0    0  0.39120197008E+02  0.10693885368E+02 -0.29011253892E+01  0.50528861707E+02  0.30000005646E+02 0.  0.
        -12    1    1    2    0    0 -0.39120197008E+02 -0.10693885368E+02  0.29011253892E+01  0.40659138293E+02  0.00000000000E+00 0.  1.
         11    1    3    3    0    0  0.23683179057E+01  0.53209787476E+01 -0.68310907310E+01  0.89769452138E+01  0.51100000000E-03 0. -1.
        -11    1    3    3    0    0  0.97330795175E+01  0.76017690468E+01  0.71183514237E+01  0.14254496020E+02  0.51100000000E-03 0.  1.
         12    1    3    3    0    0  0.27018799584E+02 -0.22288624268E+01 -0.31883860819E+01  0.27297420474E+02  0.00000000000E+00 0. -1.
</event>
<event>
 7    1  0.2702714E-011  0.5052887E+02  0.7816164E-02  0.1300439E+00
        -11   -1    0    0    0    0  0.00000000000E+00  0.00000000000E+00  0.45593999997E+02  0.45594000000E+02  0.51100000000E-03 0.  1.
         11   -1    0    0    0    0 -0.00000000000E+00 -0.00000000000E+00 -0.45593999997E+02  0.45594000000E+02  0.51100000000E-03 0. -1.
    9900012    2    1    2    0    0 -0.37224804853E+02  0.16343040694E+02  0.61942712738E+00  0.50528871069E+02  0.30000034102E+02 0.  0.
        -12    1    1    2    0    0  0.37224804853E+02 -0.16343040694E+02 -0.61942712738E+00  0.40659128931E+02  0.00000000000E+00 0.  1.
         11    1    3    3    0    0 -0.11614777800E+02  0.28695713021E+00  0.85385235122E+01  0.14418453168E+02  0.51100000000E-03 0. -1.
        -11    1    3    3    0    0 -0.18081945609E+02  0.77523450328E+00 -0.27318746195E+01  0.18303575737E+02  0.51100000000E-03 0.  1.
         12    1    3    3    0    0 -0.75280814439E+01  0.15280849060E+02 -0.51872217654E+01  0.17806842164E+02  0.00000000000E+00 0. -1.
</event>
<event>
 7    1  0.2702714E-011  0.5052885E+02  0.7816164E-02  0.1300439E+00
        -11   -1    0    0    0    0  0.00000000000E+00  0.00000000000E+00  0.45593999997E+02  0.45594000000E+02  0.51100000000E-03 0. -1.
         11   -1    0    0    0    0 -0.00000000000E+00 -0.00000000000E+00 -0.45593999997E+02  0.45594000000E+02  0.51100000000E-03 0.  1.
    9900012    2    1    2    0    0 -0.14408741690E+02 -0.31996317352E+02  0.20537528207E+02  0.50528853108E+02  0.29999979507E+02 0.  0.
        -12    1    1    2    0    0  0.14408741690E+02  0.31996317352E+02 -0.20537528207E+02  0.40659146892E+02  0.00000000000E+00 0.  1.
         11    1    3    3    0    0 -0.59569516127E+01 -0.25649730373E+01  0.14205517806E+02  0.15616052497E+02  0.51100000000E-03 0. -1.
        -11    1    3    3    0    0 -0.14818490053E+01  0.10988940100E+01 -0.17798865467E+01  0.25634821825E+01  0.51100000000E-03 0.  1.
         12    1    3    3    0    0 -0.69699410721E+01 -0.30530238324E+02  0.81118969474E+01  0.32349318428E+02  0.00000000000E+00 0. -1.
</event>
<event>
 7    1  0.2702714E-011  0.5052886E+02  0.7816164E-02  0.1300439E+00
        -11   -1    0    0    0    0  0.00000000000E+00  0.00000000000E+00  0.45593999997E+02  0.45594000000E+02  0.51100000000E-03 0.  1.
         11   -1    0    0    0    0 -0.00000000000E+00 -0.00000000000E+00 -0.45593999997E+02  0.45594000000E+02  0.51100000000E-03 0. -1.
    9900012    2    1    2    0    0  0.33939036582E+02 -0.11182382318E+02 -0.19397460774E+02  0.50528863722E+02  0.30000011768E+02 0.  0.
        -12    1    1    2    0    0 -0.33939036582E+02  0.11182382318E+02  0.19397460774E+02  0.40659136278E+02  0.00000000000E+00 0.  1.
         11    1    3    3    0    0  0.16232426368E+02 -0.87316750325E+01 -0.11231109591E+02  0.21584059803E+02  0.51100000000E-03 0. -1.
        -11    1    3    3    0    0  0.16818482451E+01 -0.98360027426E+01 -0.43837099471E+01  0.10899196146E+02  0.51100000000E-03 0.  1.
        -12    1    3    3    0    0  0.16024761969E+02  0.73852954574E+01 -0.37826412362E+01  0.18045607772E+02  0.00000000000E+00 0.  1.
</event>
<event>
 7    1  0.2702714E-011  0.5052886E+02  0.7816164E-02  0.1300439E+00
        -11   -1    0    0    0    0  0.00000000000E+00  0.00000000000E+00  0.45593999997E+02  0.45594000000E+02  0.51100000000E-03 0. -1.
         11   -1    0    0    0    0 -0.00000000000E+00 -0.00000000000E+00 -0.45593999997E+02  0.45594000000E+02  0.51100000000E-03 0.  1.
    9900012    2    1    2    0    0  0.36595883312E+02  0.17329140814E+02 -0.36888586732E+01  0.50528862342E+02  0.30000007576E+02 0.  0.
        -12    1    1    2    0    0 -0.36595883312E+02 -0.17329140814E+02  0.36888586732E+01  0.40659137658E+02  0.00000000000E+00 0.  1.
         11    1    3    3    0    0  0.32999472321E+02  0.14346195425E+02 -0.77504275889E+01  0.36808254844E+02  0.51100000000E-03 0. -1.
        -11    1    3    3    0    0  0.75670667772E+01 -0.64911065257E+00  0.14219721778E+01  0.77268266051E+01  0.51100000000E-03 0.  1.
        -12    1    3    3    0    0 -0.39706557854E+01  0.36320560414E+01  0.26395967379E+01  0.59937808929E+01  0.00000000000E+00 0.  1.
</event>
<event>
 7    1  0.2702714E-011  0.5052886E+02  0.7816164E-02  0.1300439E+00
        -11   -1    0    0    0    0  0.00000000000E+00  0.00000000000E+00  0.45593999997E+02  0.45594000000E+02  0.51100000000E-03 0.  1.
         11   -1    0    0    0    0 -0.00000000000E+00 -0.00000000000E+00 -0.45593999997E+02  0.45594000000E+02  0.51100000000E-03 0. -1.
    9900012    2    1    2    0    0 -0.12795032585E+01  0.25176795184E+02 -0.31900745144E+02  0.50528859760E+02  0.29999999727E+02 0.  0.
        -12    1    1    2    0    0  0.12795032585E+01 -0.25176795184E+02  0.31900745144E+02  0.40659140240E+02  0.00000000000E+00 0.  1.
         11    1    3    3    0    0  0.45612703856E+00  0.14452640122E+02 -0.40410792192E+01  0.15013899557E+02  0.51100000000E-03 0. -1.
        -11    1    3    3    0    0  0.54398546509E+01  0.48715213708E+00 -0.56150310691E+00  0.54904118085E+01  0.51100000000E-03 0.  1.
         12    1    3    3    0    0 -0.71754849480E+01  0.10237002924E+02 -0.27298162818E+02  0.30024548395E+02  0.00000000000E+00 0. -1.
</event>
<event>
 7    1  0.2702714E-011  0.5052887E+02  0.7816164E-02  0.1300439E+00
        -11   -1    0    0    0    0  0.00000000000E+00  0.00000000000E+00  0.45593999997E+02  0.45594000000E+02  0.51100000000E-03 0. -1.
         11   -1    0    0    0    0 -0.00000000000E+00 -0.00000000000E+00 -0.45593999997E+02  0.45594000000E+02  0.51100000000E-03 0.  1.
    9900012    2    1    2    0    0 -0.76961060901E+01 -0.38804137298E+02 -0.93900958012E+01  0.50528867944E+02  0.30000024602E+02 0.  0.
        -12    1    1    2    0    0  0.76961060901E+01  0.38804137298E+02  0.93900958012E+01  0.40659132056E+02  0.00000000000E+00 0.  1.
         11    1    3    3    0    0 -0.70152212538E+01 -0.19931656154E+02 -0.10620419245E+02  0.23649049695E+02  0.51100000000E-03 0. -1.
        -11    1    3    3    0    0 -0.37072435555E+01 -0.10195370803E+02  0.95728356357E+01  0.14468186581E+02  0.51100000000E-03 0.  1.
         12    1    3    3    0    0  0.30263587192E+01 -0.86771103418E+01 -0.83425121923E+01  0.12411631668E+02  0.00000000000E+00 0. -1.
</event>
<event>
 7    1  0.2702714E-011  0.5052885E+02  0.7816164E-02  0.1300439E+00
        -11   -1    0    0    0    0  0.00000000000E+00  0.00000000000E+00  0.45593999997E+02  0.45594000000E+02  0.51100000000E-03 0.  1.
         11   -1    0    0    0    0 -0.00000000000E+00 -0.00000000000E+00 -0.45593999997E+02  0.45594000000E+02  0.51100000000E-03 0. -1.
    9900012    2    1    2    0    0  0.28876382796E+02  0.27407057492E+02  0.82567664253E+01  0.50528850039E+02  0.29999970178E+02 0.  0.
        -12    1    1    2    0    0 -0.28876382796E+02 -0.27407057492E+02 -0.82567664253E+01  0.40659149961E+02  0.00000000000E+00 0.  1.
         11    1    3    3    0    0 -0.33609173224E+01  0.98682645199E+00  0.14276582487E+01  0.37825652711E+01  0.51100000000E-03 0. -1.
        -11    1    3    3    0    0  0.14619309662E+02  0.24248875896E+02  0.61894630392E+01  0.28983472018E+02  0.51100000000E-03 0.  1.
         12    1    3    3    0    0  0.17617990457E+02  0.21713551437E+01  0.63964513739E+00  0.17762812750E+02  0.00000000000E+00 0. -1.
</event>
<event>
 7    1  0.2702714E-011  0.5052887E+02  0.7816164E-02  0.1300439E+00
        -11   -1    0    0    0    0  0.00000000000E+00  0.00000000000E+00  0.45593999997E+02  0.45594000000E+02  0.51100000000E-03 0.  1.
         11   -1    0    0    0    0 -0.00000000000E+00 -0.00000000000E+00 -0.45593999997E+02  0.45594000000E+02  0.51100000000E-03 0. -1.
    9900012    2    1    2    0    0 -0.12326195447E+02  0.26644107906E+02 -0.28130439779E+02  0.50528865449E+02  0.30000017019E+02 0.  0.
        -12    1    1    2    0    0  0.12326195447E+02 -0.26644107906E+02  0.28130439779E+02  0.40659134551E+02  0.00000000000E+00 0.  1.
         11    1    3    3    0    0 -0.13328220987E+02  0.29601189089E+02 -0.27538296493E+02  0.42570290628E+02  0.51100000000E-03 0. -1.
        -11    1    3    3    0    0  0.13316240024E+01  0.17674137032E+01  0.16090441474E+01  0.27360550088E+01  0.51100000000E-03 0.  1.
        -12    1    3    3    0    0 -0.32959846222E+00 -0.47244948858E+01 -0.22011874325E+01  0.52225198119E+01  0.00000000000E+00 0.  1.
</event>
<event>
 7    1  0.2702714E-011  0.5052883E+02  0.7816164E-02  0.1300439E+00
        -11   -1    0    0    0    0  0.00000000000E+00  0.00000000000E+00  0.45593999997E+02  0.45594000000E+02  0.51100000000E-03 0.  1.
         11   -1    0    0    0    0 -0.00000000000E+00 -0.00000000000E+00 -0.45593999997E+02  0.45594000000E+02  0.51100000000E-03 0. -1.
    9900012    2    1    2    0    0 -0.31807133536E+02 -0.41161408713E+01 -0.24990631705E+02  0.50528830893E+02  0.29999911982E+02 0.  0.
        -12    1    1    2    0    0  0.31807133536E+02  0.41161408713E+01  0.24990631705E+02  0.40659169107E+02  0.00000000000E+00 0.  1.
         11    1    3    3    0    0 -0.73366427687E+01 -0.42872591859E+01 -0.15003619387E+02  0.17242839482E+02  0.51100000000E-03 0. -1.
        -11    1    3    3    0    0 -0.17949990843E+02  0.73930402510E+01 -0.12683793432E+02  0.23189174878E+02  0.51100000000E-03 0.  1.
        -12    1    3    3    0    0 -0.65204999247E+01 -0.72219219364E+01  0.26967811144E+01  0.10096816533E+02  0.00000000000E+00 0.  1.
</event>
<event>
 7    1  0.2702714E-011  0.5052883E+02  0.7816164E-02  0.1300439E+00
        -11   -1    0    0    0    0  0.00000000000E+00  0.00000000000E+00  0.45593999997E+02  0.45594000000E+02  0.51100000000E-03 0.  1.
         11   -1    0    0    0    0 -0.00000000000E+00 -0.00000000000E+00 -0.45593999997E+02  0.45594000000E+02  0.51100000000E-03 0. -1.
    9900012    2    1    2    0    0  0.40530655676E+02  0.29658233803E+01  0.12797341473E+01  0.50528832801E+02  0.29999917781E+02 0.  0.
        -12    1    1    2    0    0 -0.40530655676E+02 -0.29658233803E+01 -0.12797341473E+01  0.40659167199E+02  0.00000000000E+00 0.  1.
         11    1    3    3    0    0 -0.43320611658E+01  0.16430424773E+01  0.24731087019E+01  0.52519148355E+01  0.51100000000E-03 0. -1.
        -11    1    3    3    0    0  0.74040880701E+01 -0.10184247039E+01  0.15937862165E+01  0.76418495008E+01  0.51100000000E-03 0.  1.
         12    1    3    3    0    0  0.37458628772E+02  0.23412056070E+01 -0.27871607711E+01  0.37635068464E+02  0.00000000000E+00 0. -1.
</event>
<event>
 7    1  0.2702714E-011  0.5052886E+02  0.7816164E-02  0.1300439E+00
        -11   -1    0    0    0    0  0.00000000000E+00  0.00000000000E+00  0.45593999997E+02  0.45594000000E+02  0.51100000000E-03 0. -1.
         11   -1    0    0    0    0 -0.00000000000E+00 -0.00000000000E+00 -0.45593999997E+02  0.45594000000E+02  0.51100000000E-03 0.  1.
    9900012    2    1    2    0    0 -0.18083845394E+02 -0.35907907581E+02  0.60632017609E+01  0.50528859494E+02  0.29999998918E+02 0.  0.
        -12    1    1    2    0    0  0.18083845394E+02  0.35907907581E+02 -0.60632017609E+01  0.40659140506E+02  0.00000000000E+00 0.  1.
         11    1    3    3    0    0 -0.15754688647E+02 -0.84586038993E+01  0.43112304511E+01  0.18394154032E+02  0.51100000000E-03 0. -1.
        -11    1    3    3    0    0  0.57531637811E+01 -0.17133387672E+02  0.47580259912E+01  0.18689319896E+02  0.51100000000E-03 0.  1.
         12    1    3    3    0    0 -0.80823205274E+01 -0.10315916011E+02 -0.30060546814E+01  0.13445385565E+02  0.00000000000E+00 0. -1.
</event>
<event>
 7    1  0.3651349E-011  0.5052885E+02  0.7816164E-02  0.1300439E+00
        -11   -1    0    0    0    0  0.00000000000E+00  0.00000000000E+00  0.45593999997E+02  0.45594000000E+02  0.51100000000E-03 0. -1.
         11   -1    0    0    0    0 -0.00000000000E+00 -0.00000000000E+00 -0.45593999997E+02  0.45594000000E+02  0.51100000000E-03 0.  1.
    9900012    2    1    2    0    0  0.31190681310E+01  0.38301179553E+02  0.13283720803E+02  0.50528853680E+02  0.29999981244E+02 0.  0.
        -12    1    1    2    0    0 -0.31190681310E+01 -0.38301179553E+02 -0.13283720803E+02  0.40659146320E+02  0.00000000000E+00 0.  1.
         11    1    3    3    0    0  0.76341076722E+01  0.23466151822E+02  0.18339539712E+02  0.30745383367E+02  0.51100000000E-03 0.  1.
        -11    1    3    3    0    0 -0.39147192037E+00  0.14837087670E+02 -0.28728548117E+01  0.15117728527E+02  0.51100000000E-03 0. -1.
        -12    1    3    3    0    0 -0.41235676209E+01 -0.20599384129E-02 -0.21829640968E+01  0.46657417862E+01  0.00000000000E+00 0.  1.
</event>
<event>
 7    1  0.2702714E-011  0.5052887E+02  0.7816164E-02  0.1300439E+00
        -11   -1    0    0    0    0  0.00000000000E+00  0.00000000000E+00  0.45593999997E+02  0.45594000000E+02  0.51100000000E-03 0.  1.
         11   -1    0    0    0    0 -0.00000000000E+00 -0.00000000000E+00 -0.45593999997E+02  0.45594000000E+02  0.51100000000E-03 0. -1.
    9900012    2    1    2    0    0 -0.70881195573E+01  0.11664864301E+01 -0.40019533633E+02  0.50528865704E+02  0.30000017795E+02 0.  0.
        -12    1    1    2    0    0  0.70881195573E+01 -0.11664864301E+01  0.40019533633E+02  0.40659134296E+02  0.00000000000E+00 0.  1.
         11    1    3    3    0    0  0.45960347060E+00 -0.19887808004E+01 -0.32994685572E+02  0.33057764000E+02  0.51100000000E-03 0. -1.
        -11    1    3    3    0    0  0.21679553265E+01  0.48418421370E+01 -0.52271665472E+01  0.74475993415E+01  0.51100000000E-03 0.  1.
         12    1    3    3    0    0 -0.97156783544E+01 -0.16865749066E+01 -0.17976815143E+01  0.10023502363E+02  0.00000000000E+00 0. -1.
</event>
<event>
 7    1  0.2702714E-011  0.5052887E+02  0.7816164E-02  0.1300439E+00
        -11   -1    0    0    0    0  0.00000000000E+00  0.00000000000E+00  0.45593999997E+02  0.45594000000E+02  0.51100000000E-03 0. -1.
         11   -1    0    0    0    0 -0.00000000000E+00 -0.00000000000E+00 -0.45593999997E+02  0.45594000000E+02  0.51100000000E-03 0.  1.
    9900012    2    1    2    0    0  0.10913644001E+02 -0.39156391864E+02  0.91354965017E+00  0.50528865453E+02  0.30000017030E+02 0.  0.
        -12    1    1    2    0    0 -0.10913644001E+02  0.39156391864E+02 -0.91354965017E+00  0.40659134547E+02  0.00000000000E+00 0.  1.
         11    1    3    3    0    0 -0.57467797336E+01 -0.18077563049E+02 -0.45453163490E+01  0.19505990466E+02  0.51100000000E-03 0.  1.
        -11    1    3    3    0    0  0.64825555552E+01 -0.18483274376E+02  0.60569874193E+01  0.20502245122E+02  0.51100000000E-03 0. -1.
        -12    1    3    3    0    0  0.10177868179E+02 -0.25955544391E+01 -0.59812142008E+00  0.10520629865E+02  0.00000000000E+00 0.  1.
</event>
<event>
 7    1  0.2702714E-011  0.5052884E+02  0.7816164E-02  0.1300439E+00
        -11   -1    0    0    0    0  0.00000000000E+00  0.00000000000E+00  0.45593999997E+02  0.45594000000E+02  0.51100000000E-03 0.  1.
         11   -1    0    0    0    0 -0.00000000000E+00 -0.00000000000E+00 -0.45593999997E+02  0.45594000000E+02  0.51100000000E-03 0. -1.
    9900012    2    1    2    0    0  0.16610375419E+02  0.97017926555E+01 -0.35820917843E+02  0.50528837350E+02  0.29999931609E+02 0.  0.
        -12    1    1    2    0    0 -0.16610375419E+02 -0.97017926555E+01  0.35820917843E+02  0.40659162650E+02  0.00000000000E+00 0.  1.
         11    1    3    3    0    0  0.13383979407E+02 -0.25210669855E+01 -0.15781366713E+02  0.20845580325E+02  0.51100000000E-03 0. -1.
        -11    1    3    3    0    0  0.88638537456E+01  0.86899828614E+01 -0.19357271280E+02  0.22995383385E+02  0.51100000000E-03 0.  1.
        -12    1    3    3    0    0 -0.56374577328E+01  0.35328767796E+01 -0.68227984994E+00  0.66878736398E+01  0.00000000000E+00 0.  1.
</event>
<event>
 7    1  0.2702714E-011  0.5052886E+02  0.7816164E-02  0.1300439E+00
        -11   -1    0    0    0    0  0.00000000000E+00  0.00000000000E+00  0.45593999997E+02  0.45594000000E+02  0.51100000000E-03 0. -1.
         11   -1    0    0    0    0 -0.00000000000E+00 -0.00000000000E+00 -0.45593999997E+02  0.45594000000E+02  0.51100000000E-03 0.  1.
    9900012    2    1    2    0    0 -0.18924925651E+02  0.39547746816E+01  0.35768316942E+02  0.50528861414E+02  0.30000004754E+02 0.  0.
        -12    1    1    2    0    0  0.18924925651E+02 -0.39547746816E+01 -0.35768316942E+02  0.40659138586E+02  0.00000000000E+00 0.  1.
         11    1    3    3    0    0 -0.15729595448E+02  0.90589829252E+01  0.32503544844E+02  0.37228561244E+02  0.51100000000E-03 0. -1.
        -11    1    3    3    0    0  0.16189093520E+01  0.23577968714E+01 -0.14924858233E+01  0.32260793187E+01  0.51100000000E-03 0.  1.
        -12    1    3    3    0    0 -0.48142395550E+01 -0.74620051150E+01  0.47572579214E+01  0.10074220851E+02  0.00000000000E+00 0.  1.
</event>
<event>
 7    1  0.2702714E-011  0.5052883E+02  0.7816164E-02  0.1300439E+00
        -11   -1    0    0    0    0  0.00000000000E+00  0.00000000000E+00  0.45593999997E+02  0.45594000000E+02  0.51100000000E-03 0.  1.
         11   -1    0    0    0    0 -0.00000000000E+00 -0.00000000000E+00 -0.45593999997E+02  0.45594000000E+02  0.51100000000E-03 0. -1.
    9900012    2    1    2    0    0 -0.39628831887E+02 -0.30940725104E+01 -0.85527846466E+01  0.50528834654E+02  0.29999923414E+02 0.  0.
        -12    1    1    2    0    0  0.39628831887E+02  0.30940725104E+01  0.85527846466E+01  0.40659165346E+02  0.00000000000E+00 0.  1.
         11    1    3    3    0    0 -0.81760694791E+00  0.30139693244E+01 -0.17189569899E+01  0.35647307898E+01  0.51100000000E-03 0.  1.
        -11    1    3    3    0    0 -0.21624868923E+02  0.88225769212E+01 -0.61298338693E+00  0.23363402328E+02  0.51100000000E-03 0. -1.
         12    1    3    3    0    0 -0.17186356016E+02 -0.14930618756E+02 -0.62208442698E+01  0.23600701536E+02  0.00000000000E+00 0. -1.
</event>
<event>
 7    1  0.2702714E-011  0.5052887E+02  0.7816164E-02  0.1300439E+00
        -11   -1    0    0    0    0  0.00000000000E+00  0.00000000000E+00  0.45593999997E+02  0.45594000000E+02  0.51100000000E-03 0.  1.
         11   -1    0    0    0    0 -0.00000000000E+00 -0.00000000000E+00 -0.45593999997E+02  0.45594000000E+02  0.51100000000E-03 0. -1.
    9900012    2    1    2    0    0  0.68271206282E+01  0.56246102339E+01 -0.39685254505E+02  0.50528865215E+02  0.30000016307E+02 0.  0.
        -12    1    1    2    0    0 -0.68271206282E+01 -0.56246102339E+01  0.39685254505E+02  0.40659134785E+02  0.00000000000E+00 0.  1.
         11    1    3    3    0    0 -0.15905032297E+01  0.48444695685E+00 -0.27730022994E+02  0.27779822981E+02  0.51100000000E-03 0. -1.
        -11    1    3    3    0    0  0.10038055308E+02  0.56434243101E+01 -0.15210557000E+02  0.19078045939E+02  0.51100000000E-03 0.  1.
         12    1    3    3    0    0 -0.16204314506E+01 -0.50326103311E+00  0.32553254892E+01  0.36709962944E+01  0.00000000000E+00 0. -1.
</event>
<event>
 7    1  0.2702714E-011  0.5052885E+02  0.7816164E-02  0.1300439E+00
        -11   -1    0    0    0    0  0.00000000000E+00  0.00000000000E+00  0.45593999997E+02  0.45594000000E+02  0.51100000000E-03 0. -1.
         11   -1    0    0    0    0 -0.00000000000E+00 -0.00000000000E+00 -0.45593999997E+02  0.45594000000E+02  0.51100000000E-03 0.  1.
    9900012    2    1    2    0    0 -0.20962441569E+02 -0.26625692106E+02 -0.22468084290E+02  0.50528852833E+02  0.29999978670E+02 0.  0.
        -12    1    1    2    0    0  0.20962441569E+02  0.26625692106E+02  0.22468084290E+02  0.40659147167E+02  0.00000000000E+00 0.  1.
         11    1    3    3    0    0 -0.13273163861E+02 -0.24410783909E+02 -0.34370391414E+01  0.27997794347E+02  0.51100000000E-03 0. -1.
        -11    1    3    3    0    0 -0.11521280716E+01  0.32892491931E+01 -0.62543762923E+01  0.71598730725E+01  0.51100000000E-03 0.  1.
        -12    1    3    3    0    0 -0.65371496367E+01 -0.55041573899E+01 -0.12776668857E+02  0.15371185414E+02  0.00000000000E+00 0.  1.
</event>
<event>
 7    1  0.2702714E-011  0.5052886E+02  0.7816164E-02  0.1300439E+00
        -11   -1    0    0    0    0  0.00000000000E+00  0.00000000000E+00  0.45593999997E+02  0.45594000000E+02  0.51100000000E-03 0.  1.
         11   -1    0    0    0    0 -0.00000000000E+00 -0.00000000000E+00 -0.45593999997E+02  0.45594000000E+02  0.51100000000E-03 0. -1.
    9900012    2    1    2    0    0 -0.42453658177E+01 -0.16587692331E+02 -0.36878059367E+02  0.50528856742E+02  0.29999990553E+02 0.  0.
        -12    1    1    2    0    0  0.42453658177E+01  0.16587692331E+02  0.36878059367E+02  0.40659143258E+02  0.00000000000E+00 0.  1.
         11    1    3    3    0    0  0.33863612618E+01 -0.12141205035E+01 -0.23149238611E+02  0.23427094991E+02  0.51100000000E-03 0. -1.
        -11    1    3    3    0    0  0.42812736636E+01 -0.69910133633E+01 -0.20995382058E+01  0.84623656838E+01  0.51100000000E-03 0.  1.
        -12    1    3    3    0    0 -0.11913000743E+02 -0.83825584643E+01 -0.11629282551E+02  0.18639396067E+02  0.00000000000E+00 0.  1.
</event>
<event>
 7    1  0.2702714E-011  0.5052885E+02  0.7816164E-02  0.1300439E+00
        -11   -1    0    0    0    0  0.00000000000E+00  0.00000000000E+00  0.45593999997E+02  0.45594000000E+02  0.51100000000E-03 0.  1.
         11   -1    0    0    0    0 -0.00000000000E+00 -0.00000000000E+00 -0.45593999997E+02  0.45594000000E+02  0.51100000000E-03 0. -1.
    9900012    2    1    2    0    0  0.31613849827E+02 -0.25091400029E+02  0.49145016964E+01  0.50528853634E+02  0.29999981106E+02 0.  0.
        -12    1    1    2    0    0 -0.31613849827E+02  0.25091400029E+02 -0.49145016964E+01  0.40659146366E+02  0.00000000000E+00 0.  1.
         11    1    3    3    0    0  0.15486842676E+02 -0.21592803763E+02 -0.81616038148E+01  0.27797540314E+02  0.51100000000E-03 0. -1.
        -11    1    3    3    0    0  0.53666185780E+01 -0.52276922788E+01  0.70014313672E+01  0.10254238293E+02  0.51100000000E-03 0.  1.
        -12    1    3    3    0    0  0.10760388573E+02  0.17290960134E+01  0.60746741440E+01  0.12477075027E+02  0.00000000000E+00 0.  1.
</event>
<event>
 7    1  0.2702714E-011  0.5052886E+02  0.7816164E-02  0.1300439E+00
        -11   -1    0    0    0    0  0.00000000000E+00  0.00000000000E+00  0.45593999997E+02  0.45594000000E+02  0.51100000000E-03 0.  1.
         11   -1    0    0    0    0 -0.00000000000E+00 -0.00000000000E+00 -0.45593999997E+02  0.45594000000E+02  0.51100000000E-03 0. -1.
    9900012    2    1    2    0    0 -0.17517030308E+02  0.13349376730E+02 -0.34177669539E+02  0.50528864433E+02  0.30000013932E+02 0.  0.
        -12    1    1    2    0    0  0.17517030308E+02 -0.13349376730E+02  0.34177669539E+02  0.40659135567E+02  0.00000000000E+00 0.  1.
         11    1    3    3    0    0 -0.68995428393E+01  0.10810763692E+02 -0.15459487791E+02  0.20086614100E+02  0.51100000000E-03 0. -1.
        -11    1    3    3    0    0  0.25027354601E+01  0.46453980243E+01 -0.16041475415E+02  0.16887046555E+02  0.51100000000E-03 0.  1.
         12    1    3    3    0    0 -0.13120222929E+02 -0.21067849868E+01 -0.26767063335E+01  0.13555203779E+02  0.00000000000E+00 0. -1.
</event>
<event>
 7    1  0.2702714E-011  0.5052887E+02  0.7816164E-02  0.1300439E+00
        -11   -1    0    0    0    0  0.00000000000E+00  0.00000000000E+00  0.45593999997E+02  0.45594000000E+02  0.51100000000E-03 0.  1.
         11   -1    0    0    0    0 -0.00000000000E+00 -0.00000000000E+00 -0.45593999997E+02  0.45594000000E+02  0.51100000000E-03 0. -1.
    9900012    2    1    2    0    0  0.27397174086E+02  0.10869975626E+02 -0.28007194724E+02  0.50528874649E+02  0.30000044984E+02 0.  0.
        -12    1    1    2    0    0 -0.27397174086E+02 -0.10869975626E+02  0.28007194724E+02  0.40659125351E+02  0.00000000000E+00 0.  1.
         11    1    3    3    0    0  0.12370817419E+02  0.14158944070E+02 -0.17477710350E+02  0.25670667699E+02  0.51100000000E-03 0. -1.
        -11    1    3    3    0    0  0.16049876765E+02  0.55404617367E+00 -0.29918490068E+01  0.16335748287E+02  0.51100000000E-03 0.  1.
        -12    1    3    3    0    0 -0.10235200981E+01 -0.38430146178E+01 -0.75376353670E+01  0.85224586634E+01  0.00000000000E+00 0.  1.
</event>
<event>
 7    1  0.2702714E-011  0.5052886E+02  0.7816164E-02  0.1300439E+00
        -11   -1    0    0    0    0  0.00000000000E+00  0.00000000000E+00  0.45593999997E+02  0.45594000000E+02  0.51100000000E-03 0.  1.
         11   -1    0    0    0    0 -0.00000000000E+00 -0.00000000000E+00 -0.45593999997E+02  0.45594000000E+02  0.51100000000E-03 0. -1.
    9900012    2    1    2    0    0  0.29279056594E+02  0.26841051899E+02  0.86868037088E+01  0.50528858583E+02  0.29999996150E+02 0.  0.
        -12    1    1    2    0    0 -0.29279056594E+02 -0.26841051899E+02 -0.86868037088E+01  0.40659141417E+02  0.00000000000E+00 0.  1.
         11    1    3    3    0    0  0.32041086112E+01  0.47247056737E+01  0.77531956868E+01  0.96281462034E+01  0.51100000000E-03 0.  1.
        -11    1    3    3    0    0  0.88483787459E+01  0.65027331111E+01 -0.10321418161E+02  0.15070202967E+02  0.51100000000E-03 0. -1.
         12    1    3    3    0    0  0.17226569236E+02  0.15613613114E+02  0.11255026183E+02  0.25830509413E+02  0.00000000000E+00 0. -1.
</event>
<event>
 7    1  0.2702714E-011  0.5052887E+02  0.7816164E-02  0.1300439E+00
        -11   -1    0    0    0    0  0.00000000000E+00  0.00000000000E+00  0.45593999997E+02  0.45594000000E+02  0.51100000000E-03 0.  1.
         11   -1    0    0    0    0 -0.00000000000E+00 -0.00000000000E+00 -0.45593999997E+02  0.45594000000E+02  0.51100000000E-03 0. -1.
    9900012    2    1    2    0    0 -0.13967241255E+02  0.42207597418E+01 -0.37950839582E+02  0.50528869831E+02  0.30000030339E+02 0.  0.
        -12    1    1    2    0    0  0.13967241255E+02 -0.42207597418E+01  0.37950839582E+02  0.40659130169E+02  0.00000000000E+00 0.  1.
         11    1    3    3    0    0 -0.17802766748E+02  0.61448187071E+01 -0.15536659166E+02  0.24414853657E+02  0.51100000000E-03 0. -1.
        -11    1    3    3    0    0 -0.25918490398E+01 -0.48907809073E+01 -0.14366568652E+02  0.15395964225E+02  0.51100000000E-03 0.  1.
        -12    1    3    3    0    0  0.64273745325E+01  0.29667219421E+01 -0.80476117643E+01  0.10718051949E+02  0.00000000000E+00 0.  1.
</event>
<event>
 7    1  0.2702714E-011  0.5052887E+02  0.7816164E-02  0.1300439E+00
        -11   -1    0    0    0    0  0.00000000000E+00  0.00000000000E+00  0.45593999997E+02  0.45594000000E+02  0.51100000000E-03 0.  1.
         11   -1    0    0    0    0 -0.00000000000E+00 -0.00000000000E+00 -0.45593999997E+02  0.45594000000E+02  0.51100000000E-03 0. -1.
    9900012    2    1    2    0    0  0.31744122283E+02  0.23644067028E+02  0.92969896540E+01  0.50528865457E+02  0.30000017043E+02 0.  0.
        -12    1    1    2    0    0 -0.31744122283E+02 -0.23644067028E+02 -0.92969896540E+01  0.40659134543E+02  0.00000000000E+00 0.  1.
         11    1    3    3    0    0  0.46634991271E+00  0.67133753560E+01 -0.18033180834E+01  0.69669826527E+01  0.51100000000E-03 0. -1.
        -11    1    3    3    0    0  0.17769038734E+02  0.13263455222E+02 -0.44755059856E+01  0.22620524664E+02  0.51100000000E-03 0.  1.
        -12    1    3    3    0    0  0.13508733636E+02  0.36672364497E+01  0.15575813723E+02  0.20941358140E+02  0.00000000000E+00 0.  1.
</event>
<event>
 7    1  0.2702714E-011  0.5052886E+02  0.7816164E-02  0.1300439E+00
        -11   -1    0    0    0    0  0.00000000000E+00  0.00000000000E+00  0.45593999997E+02  0.45594000000E+02  0.51100000000E-03 0.  1.
         11   -1    0    0    0    0 -0.00000000000E+00 -0.00000000000E+00 -0.45593999997E+02  0.45594000000E+02  0.51100000000E-03 0. -1.
    9900012    2    1    2    0    0  0.14411558238E+02 -0.36965809488E+02 -0.88882641645E+01  0.50528864227E+02  0.30000013303E+02 0.  0.
        -12    1    1    2    0    0 -0.14411558238E+02  0.36965809488E+02  0.88882641645E+01  0.40659135773E+02  0.00000000000E+00 0.  1.
         11    1    3    3    0    0  0.35225474705E+01 -0.22148239251E+02 -0.15650867063E+02  0.27347805811E+02  0.51100000000E-03 0. -1.
        -11    1    3    3    0    0  0.69306386905E+00 -0.10220529411E+02  0.26744869785E+00  0.10247491792E+02  0.51100000000E-03 0.  1.
        -12    1    3    3    0    0  0.10195946899E+02 -0.45970408266E+01  0.64951542002E+01  0.12933566624E+02  0.00000000000E+00 0.  1.
</event>
<event>
 7    1  0.2702714E-011  0.5052887E+02  0.7816164E-02  0.1300439E+00
        -11   -1    0    0    0    0  0.00000000000E+00  0.00000000000E+00  0.45593999997E+02  0.45594000000E+02  0.51100000000E-03 0. -1.
         11   -1    0    0    0    0 -0.00000000000E+00 -0.00000000000E+00 -0.45593999997E+02  0.45594000000E+02  0.51100000000E-03 0.  1.
    9900012    2    1    2    0    0  0.34509089060E+02  0.19898610150E+02 -0.81445085844E+01  0.50528868999E+02  0.30000027809E+02 0.  0.
        -12    1    1    2    0    0 -0.34509089060E+02 -0.19898610150E+02  0.81445085844E+01  0.40659131001E+02  0.00000000000E+00 0.  1.
         11    1    3    3    0    0  0.63718856807E+01 -0.11133142990E+01  0.10695872847E+01  0.65562499248E+01  0.51100000000E-03 0. -1.
        -11    1    3    3    0    0  0.53268584138E+01  0.13148466386E+02  0.60492192811E+01  0.15422407174E+02  0.51100000000E-03 0.  1.
        -12    1    3    3    0    0  0.22810344966E+02  0.78634580630E+01 -0.15263315150E+02  0.28550211900E+02  0.00000000000E+00 0.  1.
</event>
<event>
 7    1  0.2702714E-011  0.5052886E+02  0.7816164E-02  0.1300439E+00
        -11   -1    0    0    0    0  0.00000000000E+00  0.00000000000E+00  0.45593999997E+02  0.45594000000E+02  0.51100000000E-03 0. -1.
         11   -1    0    0    0    0 -0.00000000000E+00 -0.00000000000E+00 -0.45593999997E+02  0.45594000000E+02  0.51100000000E-03 0.  1.
    9900012    2    1    2    0    0  0.23591062149E+02 -0.21978397290E+02  0.24770499479E+02  0.50528858282E+02  0.29999995235E+02 0.  0.
        -12    1    1    2    0    0 -0.23591062149E+02  0.21978397290E+02 -0.24770499479E+02  0.40659141718E+02  0.00000000000E+00 0.  1.
         11    1    3    3    0    0  0.10525470728E+02 -0.13907282162E+02  0.11144349601E+02  0.20697694545E+02  0.51100000000E-03 0. -1.
        -11    1    3    3    0    0 -0.13888813103E+01 -0.10547843138E+02  0.10269547270E+02  0.14786804507E+02  0.51100000000E-03 0.  1.
         12    1    3    3    0    0  0.14454472732E+02  0.24767280092E+01  0.33566026082E+01  0.15044359230E+02  0.00000000000E+00 0. -1.
</event>
<event>
 7    1  0.2702714E-011  0.5052886E+02  0.7816164E-02  0.1300439E+00
        -11   -1    0    0    0    0  0.00000000000E+00  0.00000000000E+00  0.45593999997E+02  0.45594000000E+02  0.51100000000E-03 0.  1.
         11   -1    0    0    0    0 -0.00000000000E+00 -0.00000000000E+00 -0.45593999997E+02  0.45594000000E+02  0.51100000000E-03 0. -1.
    9900012    2    1    2    0    0 -0.23058774373E+02 -0.81246049150E+01 -0.32487683194E+02  0.50528857856E+02  0.29999993938E+02 0.  0.
        -12    1    1    2    0    0  0.23058774373E+02  0.81246049150E+01  0.32487683194E+02  0.40659142144E+02  0.00000000000E+00 0.  1.
         11    1    3    3    0    0 -0.33313121642E+01  0.68788196791E+01 -0.42389723624E+01  0.87398334001E+01  0.51100000000E-03 0. -1.
        -11    1    3    3    0    0 -0.41283799916E+01 -0.66554090834E+01  0.69876855663E+00  0.78629682169E+01  0.51100000000E-03 0.  1.
         12    1    3    3    0    0 -0.15599082218E+02 -0.83480155107E+01 -0.28947479388E+02  0.33926056239E+02  0.00000000000E+00 0. -1.
</event>
<event>
 7    1  0.2702714E-011  0.5052893E+02  0.7816164E-02  0.1300439E+00
        -11   -1    0    0    0    0  0.00000000000E+00  0.00000000000E+00  0.45593999997E+02  0.45594000000E+02  0.51100000000E-03 0.  1.
         11   -1    0    0    0    0 -0.00000000000E+00 -0.00000000000E+00 -0.45593999997E+02  0.45594000000E+02  0.51100000000E-03 0. -1.
    9900012    2    1    2    0    0 -0.54079807260E+01 -0.26538141045E+02 -0.30325582040E+02  0.50528928297E+02  0.30000208051E+02 0.  0.
        -12    1    1    2    0    0  0.54079807260E+01  0.26538141045E+02  0.30325582040E+02  0.40659071703E+02  0.00000000000E+00 0.  1.
         11    1    3    3    0    0 -0.12241377785E+01 -0.10483634029E+02 -0.17918715808E+02  0.20796285058E+02  0.51100000000E-03 0. -1.
        -11    1    3    3    0    0 -0.28525775535E+01 -0.16207008116E+02 -0.17761367435E+02  0.24213023029E+02  0.51100000000E-03 0.  1.
        -12    1    3    3    0    0 -0.13312653940E+01  0.15250109941E+00  0.53545012028E+01  0.55196202103E+01  0.00000000000E+00 0.  1.
</event>
<event>
 7    1  0.2702714E-011  0.5052885E+02  0.7816164E-02  0.1300439E+00
        -11   -1    0    0    0    0  0.00000000000E+00  0.00000000000E+00  0.45593999997E+02  0.45594000000E+02  0.51100000000E-03 0.  1.
         11   -1    0    0    0    0 -0.00000000000E+00 -0.00000000000E+00 -0.45593999997E+02  0.45594000000E+02  0.51100000000E-03 0. -1.
    9900012    2    1    2    0    0 -0.13804690465E+02 -0.89585010171E+01 -0.37179858996E+02  0.50528854236E+02  0.29999982935E+02 0.  0.
        -12    1    1    2    0    0  0.13804690465E+02  0.89585010171E+01  0.37179858996E+02  0.40659145764E+02  0.00000000000E+00 0.  1.
         11    1    3    3    0    0 -0.11531223263E+02 -0.99547187269E+01 -0.19072644668E+02  0.24409656076E+02  0.51100000000E-03 0. -1.
        -11    1    3    3    0    0 -0.43357880772E+01 -0.25137568669E+01  0.21525299928E+01  0.54544859948E+01  0.51100000000E-03 0.  1.
         12    1    3    3    0    0  0.20623208748E+01  0.35099745767E+01 -0.20259744320E+02  0.20664712165E+02  0.00000000000E+00 0. -1.
</event>
<event>
 7    1  0.2702714E-011  0.5052887E+02  0.7816164E-02  0.1300439E+00
        -11   -1    0    0    0    0  0.00000000000E+00  0.00000000000E+00  0.45593999997E+02  0.45594000000E+02  0.51100000000E-03 0.  1.
         11   -1    0    0    0    0 -0.00000000000E+00 -0.00000000000E+00 -0.45593999997E+02  0.45594000000E+02  0.51100000000E-03 0. -1.
    9900012    2    1    2    0    0 -0.11582828473E+02 -0.11258229369E+02 -0.37312939328E+02  0.50528867136E+02  0.30000022147E+02 0.  0.
        -12    1    1    2    0    0  0.11582828473E+02  0.11258229369E+02  0.37312939328E+02  0.40659132864E+02  0.00000000000E+00 0.  1.
         11    1    3    3    0    0 -0.61711955713E+01 -0.87614777981E+01 -0.47866853497E+01  0.11737099509E+02  0.51100000000E-03 0. -1.
        -11    1    3    3    0    0  0.36632663919E+01 -0.83678716698E+01 -0.86378027294E+01  0.12571890597E+02  0.51100000000E-03 0.  1.
         12    1    3    3    0    0 -0.90748992937E+01  0.58711200988E+01 -0.23888451249E+02  0.26219877030E+02  0.00000000000E+00 0. -1.
</event>
<event>
 7    1  0.2702714E-011  0.5052886E+02  0.7816164E-02  0.1300439E+00
        -11   -1    0    0    0    0  0.00000000000E+00  0.00000000000E+00  0.45593999997E+02  0.45594000000E+02  0.51100000000E-03 0.  1.
         11   -1    0    0    0    0 -0.00000000000E+00 -0.00000000000E+00 -0.45593999997E+02  0.45594000000E+02  0.51100000000E-03 0. -1.
    9900012    2    1    2    0    0 -0.26782818855E+02 -0.29700376419E+02 -0.73303369589E+01  0.50528860989E+02  0.30000003461E+02 0.  0.
        -12    1    1    2    0    0  0.26782818855E+02  0.29700376419E+02  0.73303369589E+01  0.40659139011E+02  0.00000000000E+00 0.  1.
         11    1    3    3    0    0  0.12699304323E+01 -0.95184253694E+01  0.28881870205E+01  0.10027700102E+02  0.51100000000E-03 0.  1.
        -11    1    3    3    0    0 -0.62018251527E+01 -0.46260291124E+01 -0.11255812221E+02  0.13658553716E+02  0.51100000000E-03 0. -1.
        -12    1    3    3    0    0 -0.21850924134E+02 -0.15555921937E+02  0.10372882420E+01  0.26842607171E+02  0.00000000000E+00 0.  1.
</event>
<event>
 7    1  0.2702714E-011  0.5052886E+02  0.7816164E-02  0.1300439E+00
        -11   -1    0    0    0    0  0.00000000000E+00  0.00000000000E+00  0.45593999997E+02  0.45594000000E+02  0.51100000000E-03 0. -1.
         11   -1    0    0    0    0 -0.00000000000E+00 -0.00000000000E+00 -0.45593999997E+02  0.45594000000E+02  0.51100000000E-03 0.  1.
    9900012    2    1    2    0    0 -0.12416523832E+02 -0.29171345967E+02  0.25456394173E+02  0.50528862111E+02  0.30000006872E+02 0.  0.
        -12    1    1    2    0    0  0.12416523832E+02  0.29171345967E+02 -0.25456394173E+02  0.40659137889E+02  0.00000000000E+00 0.  1.
         11    1    3    3    0    0 -0.10655159125E+02 -0.10567140754E+00  0.14214856980E+02  0.17765295991E+02  0.51100000000E-03 0. -1.
        -11    1    3    3    0    0  0.36848571034E+01 -0.15552672812E+02  0.39142973879E+01  0.16455562213E+02  0.51100000000E-03 0.  1.
        -12    1    3    3    0    0 -0.54462218112E+01 -0.13513001747E+02  0.73272398050E+01  0.16308003906E+02  0.00000000000E+00 0.  1.
</event>
<event>
 7    1  0.2702714E-011  0.5052886E+02  0.7816164E-02  0.1300439E+00
        -11   -1    0    0    0    0  0.00000000000E+00  0.00000000000E+00  0.45593999997E+02  0.45594000000E+02  0.51100000000E-03 0.  1.
         11   -1    0    0    0    0 -0.00000000000E+00 -0.00000000000E+00 -0.45593999997E+02  0.45594000000E+02  0.51100000000E-03 0. -1.
    9900012    2    1    2    0    0 -0.26564994693E+00 -0.43528521899E+00 -0.40655937949E+02  0.50528864082E+02  0.30000012862E+02 0.  0.
        -12    1    1    2    0    0  0.26564994693E+00  0.43528521899E+00  0.40655937949E+02  0.40659135918E+02  0.00000000000E+00 0.  1.
         11    1    3    3    0    0  0.75282786654E+01  0.66439994727E+01 -0.10190456771E+02  0.14306051801E+02  0.51100000000E-03 0. -1.
        -11    1    3    3    0    0 -0.67151187119E+01 -0.23193550445E+01 -0.20542503209E+01  0.73954155920E+01  0.51100000000E-03 0.  1.
         12    1    3    3    0    0 -0.10788099005E+01 -0.47599296472E+01 -0.28411230857E+02  0.28827396689E+02  0.00000000000E+00 0. -1.
</event>
<event>
 7    1  0.2702714E-011  0.5052885E+02  0.7816164E-02  0.1300439E+00
        -11   -1    0    0    0    0  0.00000000000E+00  0.00000000000E+00  0.45593999997E+02  0.45594000000E+02  0.51100000000E-03 0. -1.
         11   -1    0    0    0    0 -0.00000000000E+00 -0.00000000000E+00 -0.45593999997E+02  0.45594000000E+02  0.51100000000E-03 0.  1.
    9900012    2    1    2    0    0 -0.75462501610E+01  0.15959363622E+02  0.36626759410E+02  0.50528847481E+02  0.29999962402E+02 0.  0.
        -12    1    1    2    0    0  0.75462501610E+01 -0.15959363622E+02 -0.36626759410E+02  0.40659152519E+02  0.00000000000E+00 0.  1.
         11    1    3    3    0    0 -0.27398081787E+01  0.19966011189E+00  0.14892928154E+02  0.15144164628E+02  0.51100000000E-03 0. -1.
        -11    1    3    3    0    0  0.71373668334E+01  0.33738666274E+01  0.30201578044E+00  0.79003920869E+01  0.51100000000E-03 0.  1.
         12    1    3    3    0    0 -0.11943808816E+02  0.12385836883E+02  0.21431815475E+02  0.27484290765E+02  0.00000000000E+00 0. -1.
</event>
<event>
 7    1  0.2702714E-011  0.5052886E+02  0.7816164E-02  0.1300439E+00
        -11   -1    0    0    0    0  0.00000000000E+00  0.00000000000E+00  0.45593999997E+02  0.45594000000E+02  0.51100000000E-03 0.  1.
         11   -1    0    0    0    0 -0.00000000000E+00 -0.00000000000E+00 -0.45593999997E+02  0.45594000000E+02  0.51100000000E-03 0. -1.
    9900012    2    1    2    0    0  0.18211573961E+02  0.76508601432E+01 -0.35538263923E+02  0.50528864621E+02  0.30000014503E+02 0.  0.
        -12    1    1    2    0    0 -0.18211573961E+02 -0.76508601432E+01  0.35538263923E+02  0.40659135379E+02  0.00000000000E+00 0.  1.
         11    1    3    3    0    0  0.12472186605E+02 -0.44867115438E+00 -0.21408236396E+02  0.24780422320E+02  0.51100000000E-03 0. -1.
        -11    1    3    3    0    0  0.65598022426E+01  0.12712529131E+02 -0.15272490217E+02  0.20925782185E+02  0.51100000000E-03 0.  1.
         12    1    3    3    0    0 -0.82041488624E+00 -0.46129978334E+01  0.11424626903E+01  0.48226601161E+01  0.00000000000E+00 0. -1.
</event>
<event>
 7    1  0.2702714E-011  0.5052883E+02  0.7816164E-02  0.1300439E+00
        -11   -1    0    0    0    0  0.00000000000E+00  0.00000000000E+00  0.45593999997E+02  0.45594000000E+02  0.51100000000E-03 0.  1.
         11   -1    0    0    0    0 -0.00000000000E+00 -0.00000000000E+00 -0.45593999997E+02  0.45594000000E+02  0.51100000000E-03 0. -1.
    9900012    2    1    2    0    0  0.40523731335E+01 -0.31774840383E+02 -0.25042090514E+02  0.50528825061E+02  0.29999894256E+02 0.  0.
        -12    1    1    2    0    0 -0.40523731335E+01  0.31774840383E+02  0.25042090514E+02  0.40659174939E+02  0.00000000000E+00 0.  1.
         11    1    3    3    0    0  0.52209552983E+01 -0.17026722155E+02 -0.98462313467E+01  0.20349838170E+02  0.51100000000E-03 0. -1.
        -11    1    3    3    0    0  0.83077423660E+01 -0.58211842076E+01 -0.13739953472E+02  0.17078966318E+02  0.51100000000E-03 0.  1.
        -12    1    3    3    0    0 -0.94763245308E+01 -0.89269340209E+01 -0.14559056951E+01  0.13100020573E+02  0.00000000000E+00 0.  1.
</event>
<event>
 7    1  0.2702714E-011  0.5052886E+02  0.7816164E-02  0.1300439E+00
        -11   -1    0    0    0    0  0.00000000000E+00  0.00000000000E+00  0.45593999997E+02  0.45594000000E+02  0.51100000000E-03 0.  1.
         11   -1    0    0    0    0 -0.00000000000E+00 -0.00000000000E+00 -0.45593999997E+02  0.45594000000E+02  0.51100000000E-03 0. -1.
    9900012    2    1    2    0    0  0.25047962107E+02 -0.65623657466E+01 -0.31348049607E+02  0.50528864937E+02  0.30000015463E+02 0.  0.
        -12    1    1    2    0    0 -0.25047962107E+02  0.65623657466E+01  0.31348049607E+02  0.40659135063E+02  0.00000000000E+00 0.  1.
         11    1    3    3    0    0  0.23619678682E+00  0.29590696540E+01  0.25742283920E+01  0.39291900202E+01  0.51100000000E-03 0. -1.
        -11    1    3    3    0    0  0.26491573549E+01 -0.94165451872E+01 -0.10775273265E+02  0.14553208312E+02  0.51100000000E-03 0.  1.
         12    1    3    3    0    0  0.22162607965E+02 -0.10489021345E+00 -0.23147004733E+02  0.32046466606E+02  0.00000000000E+00 0. -1.
</event>
<event>
 7    1  0.2702714E-011  0.5052886E+02  0.7816164E-02  0.1300439E+00
        -11   -1    0    0    0    0  0.00000000000E+00  0.00000000000E+00  0.45593999997E+02  0.45594000000E+02  0.51100000000E-03 0.  1.
         11   -1    0    0    0    0 -0.00000000000E+00 -0.00000000000E+00 -0.45593999997E+02  0.45594000000E+02  0.51100000000E-03 0. -1.
    9900012    2    1    2    0    0 -0.16697675533E+02 -0.16393206488E+02 -0.33250802271E+02  0.50528862788E+02  0.30000008930E+02 0.  0.
        -12    1    1    2    0    0  0.16697675533E+02  0.16393206488E+02  0.33250802271E+02  0.40659137212E+02  0.00000000000E+00 0.  1.
         11    1    3    3    0    0 -0.18741380051E+02 -0.44002538043E+01 -0.18109548879E+02  0.26430234971E+02  0.51100000000E-03 0. -1.
        -11    1    3    3    0    0  0.14085761178E+01  0.78259067854E+00 -0.10294503415E+02  0.10419852959E+02  0.51100000000E-03 0.  1.
        -12    1    3    3    0    0  0.63512840058E+00 -0.12775543362E+02 -0.48467499767E+01  0.13678774858E+02  0.00000000000E+00 0.  1.
</event>
<event>
 7    1  0.2702714E-011  0.5052886E+02  0.7816164E-02  0.1300439E+00
        -11   -1    0    0    0    0  0.00000000000E+00  0.00000000000E+00  0.45593999997E+02  0.45594000000E+02  0.51100000000E-03 0.  1.
         11   -1    0    0    0    0 -0.00000000000E+00 -0.00000000000E+00 -0.45593999997E+02  0.45594000000E+02  0.51100000000E-03 0. -1.
    9900012    2    1    2    0    0  0.25132383220E+02  0.47600578679E+01 -0.31604924141E+02  0.50528855061E+02  0.29999985442E+02 0.  0.
        -12    1    1    2    0    0 -0.25132383220E+02 -0.47600578679E+01  0.31604924141E+02  0.40659144939E+02  0.00000000000E+00 0.  1.
         11    1    3    3    0    0  0.56105713495E+00  0.67755963782E+01 -0.78589323771E+00  0.68440572639E+01  0.51100000000E-03 0.  1.
        -11    1    3    3    0    0  0.64963887982E+01 -0.92745792460E+01 -0.13503435380E+02  0.17622816317E+02  0.51100000000E-03 0. -1.
        -12    1    3    3    0    0  0.18074937287E+02  0.72590407357E+01 -0.17315595523E+02  0.26061981480E+02  0.00000000000E+00 0.  1.
</event>
<event>
 7    1  0.2702714E-011  0.5052886E+02  0.7816164E-02  0.1300439E+00
        -11   -1    0    0    0    0  0.00000000000E+00  0.00000000000E+00  0.45593999997E+02  0.45594000000E+02  0.51100000000E-03 0. -1.
         11   -1    0    0    0    0 -0.00000000000E+00 -0.00000000000E+00 -0.45593999997E+02  0.45594000000E+02  0.51100000000E-03 0.  1.
    9900012    2    1    2    0    0  0.23150124348E+01 -0.11007404823E+02  0.39072281258E+02  0.50528863189E+02  0.30000010148E+02 0.  0.
        -12    1    1    2    0    0 -0.23150124348E+01  0.11007404823E+02 -0.39072281258E+02  0.40659136811E+02  0.00000000000E+00 0.  1.
         11    1    3    3    0    0 -0.99399564322E+01  0.25421273127E+01  0.15831018521E+02  0.18864948790E+02  0.51100000000E-03 0. -1.
        -11    1    3    3    0    0  0.54406589978E+01 -0.49802304848E+01  0.18049061374E+01  0.75934940862E+01  0.51100000000E-03 0.  1.
        -12    1    3    3    0    0  0.68143098692E+01 -0.85693016514E+01  0.21436356599E+02  0.24070420313E+02  0.00000000000E+00 0.  1.
</event>
<event>
 7    1  0.2702714E-011  0.5052886E+02  0.7816164E-02  0.1300439E+00
        -11   -1    0    0    0    0  0.00000000000E+00  0.00000000000E+00  0.45593999997E+02  0.45594000000E+02  0.51100000000E-03 0.  1.
         11   -1    0    0    0    0 -0.00000000000E+00 -0.00000000000E+00 -0.45593999997E+02  0.45594000000E+02  0.51100000000E-03 0. -1.
    9900012    2    1    2    0    0 -0.26208116824E+02  0.24524323133E+02 -0.19101246109E+02  0.50528863075E+02  0.30000009803E+02 0.  0.
        -12    1    1    2    0    0  0.26208116824E+02 -0.24524323133E+02  0.19101246109E+02  0.40659136925E+02  0.00000000000E+00 0.  1.
         11    1    3    3    0    0 -0.14478778074E+02  0.20574601188E+02 -0.30898069273E+01  0.25347507484E+02  0.51100000000E-03 0. -1.
        -11    1    3    3    0    0 -0.34739792726E+01 -0.55225565862E+01 -0.33131642413E+01  0.73173916654E+01  0.51100000000E-03 0.  1.
        -12    1    3    3    0    0 -0.82553594771E+01  0.94722785313E+01 -0.12698274940E+02  0.17863963925E+02  0.00000000000E+00 0.  1.
</event>
<event>
 7    1  0.2702714E-011  0.5052886E+02  0.7816164E-02  0.1300439E+00
        -11   -1    0    0    0    0  0.00000000000E+00  0.00000000000E+00  0.45593999997E+02  0.45594000000E+02  0.51100000000E-03 0.  1.
         11   -1    0    0    0    0 -0.00000000000E+00 -0.00000000000E+00 -0.45593999997E+02  0.45594000000E+02  0.51100000000E-03 0. -1.
    9900012    2    1    2    0    0 -0.17960555563E+02  0.26583359658E+02 -0.24978172929E+02  0.50528859703E+02  0.29999999553E+02 0.  0.
        -12    1    1    2    0    0  0.17960555563E+02 -0.26583359658E+02  0.24978172929E+02  0.40659140297E+02  0.00000000000E+00 0.  1.
         11    1    3    3    0    0 -0.33294624628E+01 -0.27100278141E+01 -0.10295128459E+02  0.11154337331E+02  0.51100000000E-03 0. -1.
        -11    1    3    3    0    0 -0.36427714954E+00  0.10763422310E+01  0.29571042131E+01  0.31679135134E+01  0.51100000000E-03 0.  1.
         12    1    3    3    0    0 -0.14266815951E+02  0.28217045241E+02 -0.17640148683E+02  0.36206608859E+02  0.00000000000E+00 0. -1.
</event>
<event>
 7    1  0.2702714E-011  0.5052885E+02  0.7816164E-02  0.1300439E+00
        -11   -1    0    0    0    0  0.00000000000E+00  0.00000000000E+00  0.45593999997E+02  0.45594000000E+02  0.51100000000E-03 0.  1.
         11   -1    0    0    0    0 -0.00000000000E+00 -0.00000000000E+00 -0.45593999997E+02  0.45594000000E+02  0.51100000000E-03 0. -1.
    9900012    2    1    2    0    0 -0.22378560875E+02  0.33086025897E+02  0.75948248671E+01  0.50528850215E+02  0.29999970713E+02 0.  0.
        -12    1    1    2    0    0  0.22378560875E+02 -0.33086025897E+02 -0.75948248671E+01  0.40659149785E+02  0.00000000000E+00 0.  1.
         11    1    3    3    0    0 -0.58091115629E+01  0.90301665518E+01 -0.40220097674E+01  0.11465873187E+02  0.51100000000E-03 0. -1.
        -11    1    3    3    0    0  0.34293186880E+01  0.81385682840E+01 -0.33475078832E+01  0.94446984952E+01  0.51100000000E-03 0.  1.
         12    1    3    3    0    0 -0.19998768000E+02  0.15917291061E+02  0.14964342518E+02  0.29618278533E+02  0.00000000000E+00 0. -1.
</event>
<event>
 7    1  0.2702714E-011  0.5052887E+02  0.7816164E-02  0.1300439E+00
        -11   -1    0    0    0    0  0.00000000000E+00  0.00000000000E+00  0.45593999997E+02  0.45594000000E+02  0.51100000000E-03 0.  1.
         11   -1    0    0    0    0 -0.00000000000E+00 -0.00000000000E+00 -0.45593999997E+02  0.45594000000E+02  0.51100000000E-03 0. -1.
    9900012    2    1    2    0    0  0.10464933678E+02  0.11562620096E+01 -0.39272297586E+02  0.50528866507E+02  0.30000020236E+02 0.  0.
        -12    1    1    2    0    0 -0.10464933678E+02 -0.11562620096E+01  0.39272297586E+02  0.40659133493E+02  0.00000000000E+00 0.  1.
         11    1    3    3    0    0  0.87967302407E+01 -0.66155067293E+00 -0.22205556808E+01  0.90967565655E+01  0.51100000000E-03 0.  1.
        -11    1    3    3    0    0  0.59404268969E+01  0.81182209521E+01 -0.27071677926E+02  0.28880268855E+02  0.51100000000E-03 0. -1.
        -12    1    3    3    0    0 -0.42722234593E+01 -0.63004082696E+01 -0.99800639783E+01  0.12551841086E+02  0.00000000000E+00 0.  1.
</event>
<event>
 7    1  0.2702714E-011  0.5052883E+02  0.7816164E-02  0.1300439E+00
        -11   -1    0    0    0    0  0.00000000000E+00  0.00000000000E+00  0.45593999997E+02  0.45594000000E+02  0.51100000000E-03 0. -1.
         11   -1    0    0    0    0 -0.00000000000E+00 -0.00000000000E+00 -0.45593999997E+02  0.45594000000E+02  0.51100000000E-03 0.  1.
    9900012    2    1    2    0    0  0.33035757518E+02 -0.15451283632E+02  0.17974006471E+02  0.50528826997E+02  0.29999900141E+02 0.  0.
        -12    1    1    2    0    0 -0.33035757518E+02  0.15451283632E+02 -0.17974006471E+02  0.40659173003E+02  0.00000000000E+00 0.  1.
         11    1    3    3    0    0  0.27510833870E+02 -0.14010849602E+02  0.15235964793E+02  0.34427961168E+02  0.51100000000E-03 0. -1.
        -11    1    3    3    0    0  0.25722552196E+01 -0.80944046331E+01  0.60347298946E+00  0.85146968935E+01  0.51100000000E-03 0.  1.
         12    1    3    3    0    0  0.29526684282E+01  0.66539706031E+01  0.21345686882E+01  0.75861689355E+01  0.00000000000E+00 0. -1.
</event>
<event>
 7    1  0.2702714E-011  0.5052886E+02  0.7816164E-02  0.1300439E+00
        -11   -1    0    0    0    0  0.00000000000E+00  0.00000000000E+00  0.45593999997E+02  0.45594000000E+02  0.51100000000E-03 0.  1.
         11   -1    0    0    0    0 -0.00000000000E+00 -0.00000000000E+00 -0.45593999997E+02  0.45594000000E+02  0.51100000000E-03 0. -1.
    9900012    2    1    2    0    0 -0.11330343694E+02 -0.26890166834E+02 -0.28314445773E+02  0.50528860806E+02  0.30000002906E+02 0.  0.
        -12    1    1    2    0    0  0.11330343694E+02  0.26890166834E+02  0.28314445773E+02  0.40659139194E+02  0.00000000000E+00 0.  1.
         11    1    3    3    0    0  0.21040840017E+01 -0.11304505937E+01 -0.27084115577E+01  0.36111745261E+01  0.51100000000E-03 0.  1.
        -11    1    3    3    0    0 -0.64363727939E+01 -0.30180230448E+02 -0.18298911941E+02  0.35876501823E+02  0.51100000000E-03 0. -1.
         12    1    3    3    0    0 -0.69980549020E+01  0.44205142073E+01 -0.73071222743E+01  0.11041184456E+02  0.00000000000E+00 0. -1.
</event>
<event>
 7    1  0.2702714E-011  0.5052886E+02  0.7816164E-02  0.1300439E+00
        -11   -1    0    0    0    0  0.00000000000E+00  0.00000000000E+00  0.45593999997E+02  0.45594000000E+02  0.51100000000E-03 0.  1.
         11   -1    0    0    0    0 -0.00000000000E+00 -0.00000000000E+00 -0.45593999997E+02  0.45594000000E+02  0.51100000000E-03 0. -1.
    9900012    2    1    2    0    0 -0.12140065875E+02 -0.37057159484E+02  0.11513099368E+02  0.50528859262E+02  0.29999998213E+02 0.  0.
        -12    1    1    2    0    0  0.12140065875E+02  0.37057159484E+02 -0.11513099368E+02  0.40659140738E+02  0.00000000000E+00 0.  1.
         11    1    3    3    0    0  0.12164268263E+01 -0.91597646209E+01 -0.19646462501E+01  0.94467358004E+01  0.51100000000E-03 0. -1.
        -11    1    3    3    0    0  0.41578017485E+01  0.16386884519E+01  0.14657716211E+01  0.47033075520E+01  0.51100000000E-03 0.  1.
         12    1    3    3    0    0 -0.17514294450E+02 -0.29536083315E+02  0.12011973997E+02  0.36378815910E+02  0.00000000000E+00 0. -1.
</event>
<event>
 7    1  0.2702714E-011  0.5052885E+02  0.7816164E-02  0.1300439E+00
        -11   -1    0    0    0    0  0.00000000000E+00  0.00000000000E+00  0.45593999997E+02  0.45594000000E+02  0.51100000000E-03 0. -1.
         11   -1    0    0    0    0 -0.00000000000E+00 -0.00000000000E+00 -0.45593999997E+02  0.45594000000E+02  0.51100000000E-03 0.  1.
    9900012    2    1    2    0    0 -0.24891561430E+02 -0.41925075134E+01  0.31874750056E+02  0.50528848007E+02  0.29999964003E+02 0.  0.
        -12    1    1    2    0    0  0.24891561430E+02  0.41925075134E+01 -0.31874750056E+02  0.40659151993E+02  0.00000000000E+00 0.  1.
         11    1    3    3    0    0 -0.14254068530E+02  0.41234909403E+01  0.35282012210E+01  0.15252208080E+02  0.51100000000E-03 0. -1.
        -11    1    3    3    0    0 -0.14557891882E+02 -0.76153140013E+01  0.19007549212E+02  0.25123935812E+02  0.51100000000E-03 0.  1.
        -12    1    3    3    0    0  0.39203989830E+01 -0.70068445240E+00  0.93389996232E+01  0.10152704115E+02  0.00000000000E+00 0.  1.
</event>
<event>
 7    1  0.2702714E-011  0.5052886E+02  0.7816164E-02  0.1300439E+00
        -11   -1    0    0    0    0  0.00000000000E+00  0.00000000000E+00  0.45593999997E+02  0.45594000000E+02  0.51100000000E-03 0.  1.
         11   -1    0    0    0    0 -0.00000000000E+00 -0.00000000000E+00 -0.45593999997E+02  0.45594000000E+02  0.51100000000E-03 0. -1.
    9900012    2    1    2    0    0  0.13213704701E+01  0.39967468042E+02 -0.73498954479E+01  0.50528862224E+02  0.30000007217E+02 0.  0.
        -12    1    1    2    0    0 -0.13213704701E+01 -0.39967468042E+02  0.73498954479E+01  0.40659137776E+02  0.00000000000E+00 0.  1.
         11    1    3    3    0    0  0.37347976064E+01  0.77848935097E+01 -0.85077178381E+01  0.12121655959E+02  0.51100000000E-03 0. -1.
        -11    1    3    3    0    0 -0.10787264344E+02  0.11544921312E+02  0.29119544758E+01  0.16066417126E+02  0.51100000000E-03 0.  1.
         12    1    3    3    0    0  0.83738372076E+01  0.20637653219E+02 -0.17541320855E+01  0.22340789139E+02  0.00000000000E+00 0. -1.
</event>
<event>
 7    1  0.2702714E-011  0.5052886E+02  0.7816164E-02  0.1300439E+00
        -11   -1    0    0    0    0  0.00000000000E+00  0.00000000000E+00  0.45593999997E+02  0.45594000000E+02  0.51100000000E-03 0. -1.
         11   -1    0    0    0    0 -0.00000000000E+00 -0.00000000000E+00 -0.45593999997E+02  0.45594000000E+02  0.51100000000E-03 0.  1.
    9900012    2    1    2    0    0  0.15569549000E+02  0.59141396151E+00  0.37555357773E+02  0.50528861740E+02  0.30000005746E+02 0.  0.
        -12    1    1    2    0    0 -0.15569549000E+02 -0.59141396151E+00 -0.37555357773E+02  0.40659138260E+02  0.00000000000E+00 0.  1.
         11    1    3    3    0    0  0.10664750089E+02  0.95722427826E+01  0.18585868001E+02  0.23469111955E+02  0.51100000000E-03 0. -1.
        -11    1    3    3    0    0 -0.90702476596E+00  0.35284667687E+01  0.46971007869E-01  0.36434843489E+01  0.51100000000E-03 0.  1.
         12    1    3    3    0    0  0.58118236778E+01 -0.12509295590E+02  0.18922518764E+02  0.23416265436E+02  0.00000000000E+00 0. -1.
</event>
<event>
 7    1  0.2702714E-011  0.5052886E+02  0.7816164E-02  0.1300439E+00
        -11   -1    0    0    0    0  0.00000000000E+00  0.00000000000E+00  0.45593999997E+02  0.45594000000E+02  0.51100000000E-03 0. -1.
         11   -1    0    0    0    0 -0.00000000000E+00 -0.00000000000E+00 -0.45593999997E+02  0.45594000000E+02  0.51100000000E-03 0.  1.
    9900012    2    1    2    0    0  0.17691666558E+02 -0.35276851602E+02 -0.97833913386E+01  0.50528855019E+02  0.29999985315E+02 0.  0.
        -12    1    1    2    0    0 -0.17691666558E+02  0.35276851602E+02  0.97833913386E+01  0.40659144981E+02  0.00000000000E+00 0.  1.
         11    1    3    3    0    0  0.30181116956E+01 -0.16307188482E+02 -0.63107210713E+01  0.17744255270E+02  0.51100000000E-03 0. -1.
        -11    1    3    3    0    0 -0.21821026089E+01 -0.15091377043E+02 -0.25839501061E+01  0.15465705004E+02  0.51100000000E-03 0.  1.
         12    1    3    3    0    0  0.16855657471E+02 -0.38782860771E+01 -0.88872016115E+00  0.17318894745E+02  0.00000000000E+00 0. -1.
</event>
<event>
 7    1  0.3079506E-011  0.5052886E+02  0.7816164E-02  0.1300439E+00
        -11   -1    0    0    0    0  0.00000000000E+00  0.00000000000E+00  0.45593999997E+02  0.45594000000E+02  0.51100000000E-03 0. -1.
         11   -1    0    0    0    0 -0.00000000000E+00 -0.00000000000E+00 -0.45593999997E+02  0.45594000000E+02  0.51100000000E-03 0.  1.
    9900012    2    1    2    0    0  0.19823148983E+02 -0.24682254837E+02  0.25514600512E+02  0.50528858608E+02  0.29999996225E+02 0.  0.
        -12    1    1    2    0    0 -0.19823148983E+02  0.24682254837E+02 -0.25514600512E+02  0.40659141392E+02  0.00000000000E+00 0.  1.
         11    1    3    3    0    0  0.65240140196E+01 -0.17438352905E+02  0.11210114397E+02  0.21733052616E+02  0.51100000000E-03 0. -1.
        -11    1    3    3    0    0  0.15539963928E+02 -0.99980239203E+01  0.16371334166E+02  0.24687477470E+02  0.51100000000E-03 0.  1.
        -12    1    3    3    0    0 -0.22408289646E+01  0.27541219889E+01 -0.20668480505E+01  0.41083285217E+01  0.00000000000E+00 0.  1.
</event>
<event>
 7    1  0.2702714E-011  0.5052885E+02  0.7816164E-02  0.1300439E+00
        -11   -1    0    0    0    0  0.00000000000E+00  0.00000000000E+00  0.45593999997E+02  0.45594000000E+02  0.51100000000E-03 0.  1.
         11   -1    0    0    0    0 -0.00000000000E+00 -0.00000000000E+00 -0.45593999997E+02  0.45594000000E+02  0.51100000000E-03 0. -1.
    9900012    2    1    2    0    0  0.22530155603E+02 -0.59960170330E+01 -0.33310749766E+02  0.50528853652E+02  0.29999981161E+02 0.  0.
        -12    1    1    2    0    0 -0.22530155603E+02  0.59960170330E+01  0.33310749766E+02  0.40659146348E+02  0.00000000000E+00 0.  1.
         11    1    3    3    0    0  0.99694459568E+01  0.54201847756E+01 -0.15044853128E+02  0.18844518078E+02  0.51100000000E-03 0. -1.
        -11    1    3    3    0    0  0.79552050102E+00 -0.12942112759E+01  0.41503604063E+01  0.44196524137E+01  0.51100000000E-03 0.  1.
         12    1    3    3    0    0  0.11765189146E+02 -0.10121990533E+02 -0.22416257045E+02  0.27264683161E+02  0.00000000000E+00 0. -1.
</event>
<event>
 7    1  0.2702714E-011  0.5052884E+02  0.7816164E-02  0.1300439E+00
        -11   -1    0    0    0    0  0.00000000000E+00  0.00000000000E+00  0.45593999997E+02  0.45594000000E+02  0.51100000000E-03 0. -1.
         11   -1    0    0    0    0 -0.00000000000E+00 -0.00000000000E+00 -0.45593999997E+02  0.45594000000E+02  0.51100000000E-03 0.  1.
    9900012    2    1    2    0    0 -0.12132696485E+02 -0.21350194914E+02  0.32405772890E+02  0.50528840350E+02  0.29999940727E+02 0.  0.
        -12    1    1    2    0    0  0.12132696485E+02  0.21350194914E+02 -0.32405772890E+02  0.40659159650E+02  0.00000000000E+00 0.  1.
         11    1    3    3    0    0 -0.81899521045E+01 -0.55081103079E+00  0.10420252338E+02  0.13265005365E+02  0.51100000000E-03 0. -1.
        -11    1    3    3    0    0 -0.61676320718E+01 -0.20545472185E+02  0.76807744035E+01  0.22784872359E+02  0.51100000000E-03 0.  1.
         12    1    3    3    0    0  0.22248876911E+01 -0.25391169771E+00  0.14304746148E+02  0.14478962627E+02  0.00000000000E+00 0. -1.
</event>
<event>
 7    1  0.2702714E-011  0.5052878E+02  0.7816164E-02  0.1300439E+00
        -11   -1    0    0    0    0  0.00000000000E+00  0.00000000000E+00  0.45593999997E+02  0.45594000000E+02  0.51100000000E-03 0.  1.
         11   -1    0    0    0    0 -0.00000000000E+00 -0.00000000000E+00 -0.45593999997E+02  0.45594000000E+02  0.51100000000E-03 0. -1.
    9900012    2    1    2    0    0  0.33104262944E+02  0.51411217991E+01 -0.23040164855E+02  0.50528775278E+02  0.29999742934E+02 0.  0.
        -12    1    1    2    0    0 -0.33104262944E+02 -0.51411217991E+01  0.23040164855E+02  0.40659224722E+02  0.00000000000E+00 0.  1.
         11    1    3    3    0    0  0.46193468010E+01  0.12702622886E+02 -0.69377205960E+01  0.15192990502E+02  0.51100000000E-03 0. -1.
        -11    1    3    3    0    0  0.66384826325E+01 -0.35613397057E+00 -0.91384672237E+01  0.11300790527E+02  0.51100000000E-03 0.  1.
        -12    1    3    3    0    0  0.21846433511E+02 -0.72053671165E+01 -0.69639770357E+01  0.24034994249E+02  0.00000000000E+00 0.  1.
</event>
<event>
 7    1  0.2702714E-011  0.5052886E+02  0.7816164E-02  0.1300439E+00
        -11   -1    0    0    0    0  0.00000000000E+00  0.00000000000E+00  0.45593999997E+02  0.45594000000E+02  0.51100000000E-03 0.  1.
         11   -1    0    0    0    0 -0.00000000000E+00 -0.00000000000E+00 -0.45593999997E+02  0.45594000000E+02  0.51100000000E-03 0. -1.
    9900012    2    1    2    0    0 -0.20874859185E+02 -0.83329962825E+01 -0.33881658995E+02  0.50528863397E+02  0.30000010781E+02 0.  0.
        -12    1    1    2    0    0  0.20874859185E+02  0.83329962825E+01  0.33881658995E+02  0.40659136603E+02  0.00000000000E+00 0.  1.
         11    1    3    3    0    0 -0.40066208588E+01 -0.44764136988E+01 -0.70126173153E+00  0.60483930582E+01  0.51100000000E-03 0. -1.
        -11    1    3    3    0    0  0.60479179683E+01  0.64365816399E+00 -0.49467566261E+01  0.78397709764E+01  0.51100000000E-03 0.  1.
        -12    1    3    3    0    0 -0.22916156294E+02 -0.45002407476E+01 -0.28233640638E+02  0.36640699362E+02  0.00000000000E+00 0.  1.
</event>
<event>
 7    1  0.2702714E-011  0.5052886E+02  0.7816164E-02  0.1300439E+00
        -11   -1    0    0    0    0  0.00000000000E+00  0.00000000000E+00  0.45593999997E+02  0.45594000000E+02  0.51100000000E-03 0.  1.
         11   -1    0    0    0    0 -0.00000000000E+00 -0.00000000000E+00 -0.45593999997E+02  0.45594000000E+02  0.51100000000E-03 0. -1.
    9900012    2    1    2    0    0 -0.22976483541E+02 -0.18716949326E+02 -0.27837427625E+02  0.50528863699E+02  0.30000011700E+02 0.  0.
        -12    1    1    2    0    0  0.22976483541E+02  0.18716949326E+02  0.27837427625E+02  0.40659136301E+02  0.00000000000E+00 0.  1.
         11    1    3    3    0    0 -0.19824173071E+02 -0.60719549251E+01 -0.10827637886E+02  0.23390259020E+02  0.51100000000E-03 0. -1.
        -11    1    3    3    0    0  0.15278310552E+01  0.19861098893E+01 -0.98989967042E+01  0.10211221094E+02  0.51100000000E-03 0.  1.
         12    1    3    3    0    0 -0.46801415247E+01 -0.14631104290E+02 -0.71107930348E+01  0.16927383585E+02  0.00000000000E+00 0. -1.
</event>
<event>
 7    1  0.2702714E-011  0.5052886E+02  0.7816164E-02  0.1300439E+00
        -11   -1    0    0    0    0  0.00000000000E+00  0.00000000000E+00  0.45593999997E+02  0.45594000000E+02  0.51100000000E-03 0.  1.
         11   -1    0    0    0    0 -0.00000000000E+00 -0.00000000000E+00 -0.45593999997E+02  0.45594000000E+02  0.51100000000E-03 0. -1.
    9900012    2    1    2    0    0 -0.20933450528E+02  0.30246779852E+02 -0.17323062429E+02  0.50528861613E+02  0.30000005360E+02 0.  0.
        -12    1    1    2    0    0  0.20933450528E+02 -0.30246779852E+02  0.17323062429E+02  0.40659138387E+02  0.00000000000E+00 0.  1.
         11    1    3    3    0    0 -0.62475121776E+01  0.82076943932E+01 -0.97700295385E+01  0.14207432319E+02  0.51100000000E-03 0.  1.
        -11    1    3    3    0    0 -0.81217778569E+01  0.26034244422E+02 -0.85314988974E+01  0.28575017618E+02  0.51100000000E-03 0. -1.
         12    1    3    3    0    0 -0.65641604931E+01 -0.39951589637E+01  0.97846600652E+00  0.77464116757E+01  0.00000000000E+00 0. -1.
</event>
<event>
 7    1  0.2702714E-011  0.5052886E+02  0.7816164E-02  0.1300439E+00
        -11   -1    0    0    0    0  0.00000000000E+00  0.00000000000E+00  0.45593999997E+02  0.45594000000E+02  0.51100000000E-03 0.  1.
         11   -1    0    0    0    0 -0.00000000000E+00 -0.00000000000E+00 -0.45593999997E+02  0.45594000000E+02  0.51100000000E-03 0. -1.
    9900012    2    1    2    0    0 -0.26020137193E+02  0.35275765231E+01 -0.31043103018E+02  0.50528861044E+02  0.30000003631E+02 0.  0.
        -12    1    1    2    0    0  0.26020137193E+02 -0.35275765231E+01  0.31043103018E+02  0.40659138956E+02  0.00000000000E+00 0.  1.
         11    1    3    3    0    0 -0.26237731510E+01  0.13171327091E+01 -0.16599080423E+02  0.16856704757E+02  0.51100000000E-03 0. -1.
        -11    1    3    3    0    0 -0.15109669121E+02 -0.69258342975E+01 -0.30873005546E+01  0.16905641267E+02  0.51100000000E-03 0.  1.
         12    1    3    3    0    0 -0.82866949204E+01  0.91362781115E+01 -0.11356722040E+02  0.16766515021E+02  0.00000000000E+00 0. -1.
</event>
<event>
 7    1  0.2702714E-011  0.5052886E+02  0.7816164E-02  0.1300439E+00
        -11   -1    0    0    0    0  0.00000000000E+00  0.00000000000E+00  0.45593999997E+02  0.45594000000E+02  0.51100000000E-03 0.  1.
         11   -1    0    0    0    0 -0.00000000000E+00 -0.00000000000E+00 -0.45593999997E+02  0.45594000000E+02  0.51100000000E-03 0. -1.
    9900012    2    1    2    0    0 -0.29462184287E+02  0.24747743094E+02 -0.13141327488E+02  0.50528861060E+02  0.30000003677E+02 0.  0.
        -12    1    1    2    0    0  0.29462184287E+02 -0.24747743094E+02  0.13141327488E+02  0.40659138940E+02  0.00000000000E+00 0.  1.
         11    1    3    3    0    0 -0.62192764299E+01 -0.40859429269E+01 -0.33790569446E+01  0.81726589926E+01  0.51100000000E-03 0. -1.
        -11    1    3    3    0    0 -0.59023756564E+01  0.50292356135E+01  0.51862241046E+01  0.93288889998E+01  0.51100000000E-03 0.  1.
         12    1    3    3    0    0 -0.17340532201E+02  0.23804450407E+02 -0.14948494648E+02  0.33027313067E+02  0.00000000000E+00 0. -1.
</event>
<event>
 7    1  0.2702714E-011  0.5052886E+02  0.7816164E-02  0.1300439E+00
        -11   -1    0    0    0    0  0.00000000000E+00  0.00000000000E+00  0.45593999997E+02  0.45594000000E+02  0.51100000000E-03 0.  1.
         11   -1    0    0    0    0 -0.00000000000E+00 -0.00000000000E+00 -0.45593999997E+02  0.45594000000E+02  0.51100000000E-03 0. -1.
    9900012    2    1    2    0    0  0.25840644203E+02  0.23377793962E+01 -0.31304336645E+02  0.50528860829E+02  0.30000002977E+02 0.  0.
        -12    1    1    2    0    0 -0.25840644203E+02 -0.23377793962E+01  0.31304336645E+02  0.40659139171E+02  0.00000000000E+00 0.  1.
         11    1    3    3    0    0  0.35700533884E+01 -0.17247610408E+01 -0.89812465540E+01  0.98174778721E+01  0.51100000000E-03 0. -1.
        -11    1    3    3    0    0  0.51194459151E+01 -0.55216853568E+01 -0.19447962274E+02  0.20854758990E+02  0.51100000000E-03 0.  1.
        -12    1    3    3    0    0  0.17151144900E+02  0.95842257939E+01 -0.28751278172E+01  0.19856623968E+02  0.00000000000E+00 0.  1.
</event>
<event>
 7    1  0.2702714E-011  0.5052885E+02  0.7816164E-02  0.1300439E+00
        -11   -1    0    0    0    0  0.00000000000E+00  0.00000000000E+00  0.45593999997E+02  0.45594000000E+02  0.51100000000E-03 0. -1.
         11   -1    0    0    0    0 -0.00000000000E+00 -0.00000000000E+00 -0.45593999997E+02  0.45594000000E+02  0.51100000000E-03 0.  1.
    9900012    2    1    2    0    0 -0.35640297543E+02  0.12901243684E+02 -0.14713715590E+02  0.50528851903E+02  0.29999975843E+02 0.  0.
        -12    1    1    2    0    0  0.35640297543E+02 -0.12901243684E+02  0.14713715590E+02  0.40659148097E+02  0.00000000000E+00 0.  1.
         11    1    3    3    0    0 -0.11258302312E+02  0.11640258026E+02 -0.51191637045E+01  0.16983839824E+02  0.51100000000E-03 0. -1.
        -11    1    3    3    0    0  0.27079880581E+01  0.37543845993E+01 -0.31147803401E+01  0.55794677049E+01  0.51100000000E-03 0.  1.
         12    1    3    3    0    0 -0.27089983289E+02 -0.24933989410E+01 -0.64797715454E+01  0.27965544374E+02  0.00000000000E+00 0. -1.
</event>
<event>
 7    1  0.2702714E-011  0.5052886E+02  0.7816164E-02  0.1300439E+00
        -11   -1    0    0    0    0  0.00000000000E+00  0.00000000000E+00  0.45593999997E+02  0.45594000000E+02  0.51100000000E-03 0. -1.
         11   -1    0    0    0    0 -0.00000000000E+00 -0.00000000000E+00 -0.45593999997E+02  0.45594000000E+02  0.51100000000E-03 0.  1.
    9900012    2    1    2    0    0  0.35347863465E+02  0.11014048130E+02  0.16804317638E+02  0.50528858358E+02  0.29999995465E+02 0.  0.
        -12    1    1    2    0    0 -0.35347863465E+02 -0.11014048130E+02 -0.16804317638E+02  0.40659141642E+02  0.00000000000E+00 0.  1.
         11    1    3    3    0    0  0.78046975337E+01 -0.42076109787E+01  0.11096807450E+02  0.14204099042E+02  0.51100000000E-03 0. -1.
        -11    1    3    3    0    0  0.51674121981E-01 -0.11270947947E+01 -0.29751022460E+01  0.31818621162E+01  0.51100000000E-03 0.  1.
         12    1    3    3    0    0  0.27491491810E+02  0.16348753904E+02  0.86826124340E+01  0.33142897200E+02  0.00000000000E+00 0. -1.
</event>
<event>
 7    1  0.4093146E-011  0.5052887E+02  0.7816164E-02  0.1300439E+00
        -11   -1    0    0    0    0  0.00000000000E+00  0.00000000000E+00  0.45593999997E+02  0.45594000000E+02  0.51100000000E-03 0. -1.
         11   -1    0    0    0    0 -0.00000000000E+00 -0.00000000000E+00 -0.45593999997E+02  0.45594000000E+02  0.51100000000E-03 0.  1.
    9900012    2    1    2    0    0  0.14965198504E+02  0.18692883194E+01  0.37758625123E+02  0.50528866017E+02  0.30000018745E+02 0.  0.
        -12    1    1    2    0    0 -0.14965198504E+02 -0.18692883194E+01 -0.37758625123E+02  0.40659133983E+02  0.00000000000E+00 0.  1.
         11    1    3    3    0    0  0.11585053361E+02 -0.10708935914E+00  0.34440917626E+02  0.36337332548E+02  0.51100000000E-03 0. -1.
        -11    1    3    3    0    0  0.25090602293E+01 -0.53914346388E+01  0.32399092742E+01  0.67719984543E+01  0.51100000000E-03 0.  1.
        -12    1    3    3    0    0  0.87108491407E+00  0.73678123174E+01  0.77798222390E-01  0.74195350147E+01  0.00000000000E+00 0.  1.
</event>
<event>
 7    1  0.2702714E-011  0.5052888E+02  0.7816164E-02  0.1300439E+00
        -11   -1    0    0    0    0  0.00000000000E+00  0.00000000000E+00  0.45593999997E+02  0.45594000000E+02  0.51100000000E-03 0.  1.
         11   -1    0    0    0    0 -0.00000000000E+00 -0.00000000000E+00 -0.45593999997E+02  0.45594000000E+02  0.51100000000E-03 0. -1.
    9900012    2    1    2    0    0 -0.16934863535E+02  0.32348776620E+01 -0.36822682770E+02  0.50528880447E+02  0.30000062606E+02 0.  0.
        -12    1    1    2    0    0  0.16934863535E+02 -0.32348776620E+01  0.36822682770E+02  0.40659119553E+02  0.00000000000E+00 0.  1.
         11    1    3    3    0    0  0.49809777403E+01  0.10926042618E+01 -0.28020578601E+01  0.58185437899E+01  0.51100000000E-03 0. -1.
        -11    1    3    3    0    0 -0.47498089943E+01 -0.77993188911E+01 -0.11855798022E+02  0.14964959327E+02  0.51100000000E-03 0.  1.
         12    1    3    3    0    0 -0.17166032281E+02  0.99415922913E+01 -0.22164826888E+02  0.29745377330E+02  0.00000000000E+00 0. -1.
</event>
<event>
 7    1  0.2702714E-011  0.5052886E+02  0.7816164E-02  0.1300439E+00
        -11   -1    0    0    0    0  0.00000000000E+00  0.00000000000E+00  0.45593999997E+02  0.45594000000E+02  0.51100000000E-03 0.  1.
         11   -1    0    0    0    0 -0.00000000000E+00 -0.00000000000E+00 -0.45593999997E+02  0.45594000000E+02  0.51100000000E-03 0. -1.
    9900012    2    1    2    0    0 -0.15665742182E+02 -0.37052077480E+02 -0.59071063055E+01  0.50528857995E+02  0.29999994362E+02 0.  0.
        -12    1    1    2    0    0  0.15665742182E+02  0.37052077480E+02  0.59071063055E+01  0.40659142005E+02  0.00000000000E+00 0.  1.
         11    1    3    3    0    0 -0.90624885748E+01 -0.26085028771E+02 -0.10966288145E+02  0.29712234872E+02  0.51100000000E-03 0. -1.
        -11    1    3    3    0    0 -0.26768002588E+00 -0.10312838774E+02 -0.28106240123E+01  0.10692329203E+02  0.51100000000E-03 0.  1.
        -12    1    3    3    0    0 -0.63355735812E+01 -0.65420993402E+00  0.78698058518E+01  0.10124293920E+02  0.00000000000E+00 0.  1.
</event>
<event>
 7    1  0.2702714E-011  0.5052883E+02  0.7816164E-02  0.1300439E+00
        -11   -1    0    0    0    0  0.00000000000E+00  0.00000000000E+00  0.45593999997E+02  0.45594000000E+02  0.51100000000E-03 0.  1.
         11   -1    0    0    0    0 -0.00000000000E+00 -0.00000000000E+00 -0.45593999997E+02  0.45594000000E+02  0.51100000000E-03 0. -1.
    9900012    2    1    2    0    0  0.12945564882E+02  0.19797755032E+02 -0.33070064136E+02  0.50528832566E+02  0.29999917069E+02 0.  0.
        -12    1    1    2    0    0 -0.12945564882E+02 -0.19797755032E+02  0.33070064136E+02  0.40659167434E+02  0.00000000000E+00 0.  1.
         11    1    3    3    0    0 -0.44130562657E+00  0.65293762328E+01 -0.24323155805E+02  0.25188160179E+02  0.51100000000E-03 0. -1.
        -11    1    3    3    0    0  0.31152130024E+01  0.42301641055E+00  0.35965131084E+01  0.47768610755E+01  0.51100000000E-03 0.  1.
        -12    1    3    3    0    0  0.10271657506E+02  0.12845362388E+02 -0.12343421440E+02  0.20563811311E+02  0.00000000000E+00 0.  1.
</event>
<event>
 7    1  0.2702714E-011  0.5052886E+02  0.7816164E-02  0.1300439E+00
        -11   -1    0    0    0    0  0.00000000000E+00  0.00000000000E+00  0.45593999997E+02  0.45594000000E+02  0.51100000000E-03 0.  1.
         11   -1    0    0    0    0 -0.00000000000E+00 -0.00000000000E+00 -0.45593999997E+02  0.45594000000E+02  0.51100000000E-03 0. -1.
    9900012    2    1    2    0    0 -0.18041118416E+02  0.30268139040E+02  0.20286042554E+02  0.50528859365E+02  0.29999998525E+02 0.  0.
        -12    1    1    2    0    0  0.18041118416E+02 -0.30268139040E+02 -0.20286042554E+02  0.40659140635E+02  0.00000000000E+00 0.  1.
         11    1    3    3    0    0 -0.18836166596E+00  0.15985616163E+02  0.16375112454E+02  0.22884923255E+02  0.51100000000E-03 0. -1.
        -11    1    3    3    0    0  0.94801481668E+00 -0.15594059929E+01 -0.16244501684E+01  0.24432187282E+01  0.51100000000E-03 0.  1.
         12    1    3    3    0    0 -0.18800771567E+02  0.15841928870E+02  0.55353802685E+01  0.25200717382E+02  0.00000000000E+00 0. -1.
</event>
<event>
 7    1  0.2702714E-011  0.5052885E+02  0.7816164E-02  0.1300439E+00
        -11   -1    0    0    0    0  0.00000000000E+00  0.00000000000E+00  0.45593999997E+02  0.45594000000E+02  0.51100000000E-03 0.  1.
         11   -1    0    0    0    0 -0.00000000000E+00 -0.00000000000E+00 -0.45593999997E+02  0.45594000000E+02  0.51100000000E-03 0. -1.
    9900012    2    1    2    0    0  0.81749279952E+01  0.30119942740E+02 -0.26060040050E+02  0.50528854832E+02  0.29999984746E+02 0.  0.
        -12    1    1    2    0    0 -0.81749279952E+01 -0.30119942740E+02  0.26060040050E+02  0.40659145168E+02  0.00000000000E+00 0.  1.
         11    1    3    3    0    0  0.67482711096E+01  0.35277591971E+01  0.37299591692E+01  0.84792006455E+01  0.51100000000E-03 0. -1.
        -11    1    3    3    0    0 -0.37191961341E+01  0.10269200065E+02 -0.52173261108E+01  0.12104105992E+02  0.51100000000E-03 0.  1.
        -12    1    3    3    0    0  0.51458530196E+01  0.16322983478E+02 -0.24572673109E+02  0.29945548194E+02  0.00000000000E+00 0.  1.
</event>
<event>
 7    1  0.2702714E-011  0.5052879E+02  0.7816164E-02  0.1300439E+00
        -11   -1    0    0    0    0  0.00000000000E+00  0.00000000000E+00  0.45593999997E+02  0.45594000000E+02  0.51100000000E-03 0. -1.
         11   -1    0    0    0    0 -0.00000000000E+00 -0.00000000000E+00 -0.45593999997E+02  0.45594000000E+02  0.51100000000E-03 0.  1.
    9900012    2    1    2    0    0 -0.17673496211E+02 -0.31867853681E+02 -0.18034939324E+02  0.50528786985E+02  0.29999778520E+02 0.  0.
        -12    1    1    2    0    0  0.17673496211E+02  0.31867853681E+02  0.18034939324E+02  0.40659213015E+02  0.00000000000E+00 0.  1.
         11    1    3    3    0    0 -0.85569736136E+01 -0.11338605751E+02 -0.20775809406E+01  0.14356257194E+02  0.51100000000E-03 0.  1.
        -11    1    3    3    0    0 -0.52060333198E+01  0.24673844484E+01  0.26423667313E+01  0.63382072502E+01  0.51100000000E-03 0. -1.
        -12    1    3    3    0    0 -0.39104892778E+01 -0.22996632378E+02 -0.18599725115E+02  0.29834322541E+02  0.00000000000E+00 0.  1.
</event>
<event>
 7    1  0.2702714E-011  0.5052886E+02  0.7816164E-02  0.1300439E+00
        -11   -1    0    0    0    0  0.00000000000E+00  0.00000000000E+00  0.45593999997E+02  0.45594000000E+02  0.51100000000E-03 0. -1.
         11   -1    0    0    0    0 -0.00000000000E+00 -0.00000000000E+00 -0.45593999997E+02  0.45594000000E+02  0.51100000000E-03 0.  1.
    9900012    2    1    2    0    0  0.55434735128E+01  0.13793610982E+02  0.37844047807E+02  0.50528858876E+02  0.29999997041E+02 0.  0.
        -12    1    1    2    0    0 -0.55434735128E+01 -0.13793610982E+02 -0.37844047807E+02  0.40659141124E+02  0.00000000000E+00 0.  1.
         11    1    3    3    0    0 -0.10893569951E+02  0.78407135177E+01  0.98059014871E+01  0.16622345171E+02  0.51100000000E-03 0. -1.
        -11    1    3    3    0    0  0.56950248532E+01  0.46396300651E+01  0.65270627208E+01  0.98265977450E+01  0.51100000000E-03 0.  1.
        -12    1    3    3    0    0  0.10742018610E+02  0.13132673994E+01  0.21511083599E+02  0.24079915961E+02  0.00000000000E+00 0.  1.
</event>
<event>
 7    1  0.2702714E-011  0.5052886E+02  0.7816164E-02  0.1300439E+00
        -11   -1    0    0    0    0  0.00000000000E+00  0.00000000000E+00  0.45593999997E+02  0.45594000000E+02  0.51100000000E-03 0.  1.
         11   -1    0    0    0    0 -0.00000000000E+00 -0.00000000000E+00 -0.45593999997E+02  0.45594000000E+02  0.51100000000E-03 0. -1.
    9900012    2    1    2    0    0 -0.23456021815E+02  0.21607268583E+02 -0.25221154861E+02  0.50528859975E+02  0.30000000380E+02 0.  0.
        -12    1    1    2    0    0  0.23456021815E+02 -0.21607268583E+02  0.25221154861E+02  0.40659140025E+02  0.00000000000E+00 0.  1.
         11    1    3    3    0    0 -0.15675219881E+02  0.46216527929E+01 -0.22832453183E+02  0.28078338830E+02  0.51100000000E-03 0. -1.
        -11    1    3    3    0    0 -0.10640022752E+01 -0.17433242778E+01  0.98846915487E+00  0.22689979970E+01  0.51100000000E-03 0.  1.
         12    1    3    3    0    0 -0.67167996597E+01  0.18728940068E+02 -0.33771708338E+01  0.20181523148E+02  0.00000000000E+00 0. -1.
</event>
<event>
 7    1  0.2702714E-011  0.5052887E+02  0.7816164E-02  0.1300439E+00
        -11   -1    0    0    0    0  0.00000000000E+00  0.00000000000E+00  0.45593999997E+02  0.45594000000E+02  0.51100000000E-03 0.  1.
         11   -1    0    0    0    0 -0.00000000000E+00 -0.00000000000E+00 -0.45593999997E+02  0.45594000000E+02  0.51100000000E-03 0. -1.
    9900012    2    1    2    0    0  0.16992131066E+02 -0.33473169265E+02 -0.15619848420E+02  0.50528865190E+02  0.30000016232E+02 0.  0.
        -12    1    1    2    0    0 -0.16992131066E+02  0.33473169265E+02  0.15619848420E+02  0.40659134810E+02  0.00000000000E+00 0.  1.
         11    1    3    3    0    0  0.58499424842E+01  0.61712885436E+00 -0.15441724050E+01  0.60817056628E+01  0.51100000000E-03 0. -1.
        -11    1    3    3    0    0  0.45788013782E+01 -0.31897464373E+02 -0.17561203286E+02  0.36698903480E+02  0.51100000000E-03 0.  1.
         12    1    3    3    0    0  0.65633872037E+01 -0.21928337459E+01  0.34855272709E+01  0.77482560476E+01  0.00000000000E+00 0. -1.
</event>
<event>
 7    1  0.2702714E-011  0.5052889E+02  0.7816164E-02  0.1300439E+00
        -11   -1    0    0    0    0  0.00000000000E+00  0.00000000000E+00  0.45593999997E+02  0.45594000000E+02  0.51100000000E-03 0.  1.
         11   -1    0    0    0    0 -0.00000000000E+00 -0.00000000000E+00 -0.45593999997E+02  0.45594000000E+02  0.51100000000E-03 0. -1.
    9900012    2    1    2    0    0 -0.11422785101E+02 -0.12500599370E+02 -0.36965094492E+02  0.50528890136E+02  0.30000092059E+02 0.  0.
        -12    1    1    2    0    0  0.11422785101E+02  0.12500599370E+02  0.36965094492E+02  0.40659109864E+02  0.00000000000E+00 0.  1.
         11    1    3    3    0    0 -0.26852969904E+01 -0.11158499737E+02 -0.10585164718E+02  0.15613092220E+02  0.51100000000E-03 0. -1.
        -11    1    3    3    0    0 -0.10731706036E+02  0.23884246886E+01 -0.33394953814E+01  0.11490270519E+02  0.51100000000E-03 0.  1.
         12    1    3    3    0    0  0.19942179251E+01 -0.37305243220E+01 -0.23040434393E+02  0.23425527398E+02  0.00000000000E+00 0. -1.
</event>
<event>
 7    1  0.2702714E-011  0.5052886E+02  0.7816164E-02  0.1300439E+00
        -11   -1    0    0    0    0  0.00000000000E+00  0.00000000000E+00  0.45593999997E+02  0.45594000000E+02  0.51100000000E-03 0.  1.
         11   -1    0    0    0    0 -0.00000000000E+00 -0.00000000000E+00 -0.45593999997E+02  0.45594000000E+02  0.51100000000E-03 0. -1.
    9900012    2    1    2    0    0 -0.21606400766E+02 -0.80798322551E+01 -0.33482012165E+02  0.50528863487E+02  0.30000011056E+02 0.  0.
        -12    1    1    2    0    0  0.21606400766E+02  0.80798322551E+01  0.33482012165E+02  0.40659136513E+02  0.00000000000E+00 0.  1.
         11    1    3    3    0    0 -0.85992608828E+01 -0.11505005896E+02 -0.12946520406E+02  0.19337136274E+02  0.51100000000E-03 0. -1.
        -11    1    3    3    0    0 -0.18752871649E+01 -0.42487701348E+01 -0.16411752765E+02  0.17056212320E+02  0.51100000000E-03 0.  1.
         12    1    3    3    0    0 -0.11131852719E+02  0.76739437757E+01 -0.41237389936E+01  0.14135514894E+02  0.00000000000E+00 0. -1.
</event>
<event>
 7    1  0.2702714E-011  0.5052888E+02  0.7816164E-02  0.1300439E+00
        -11   -1    0    0    0    0  0.00000000000E+00  0.00000000000E+00  0.45593999997E+02  0.45594000000E+02  0.51100000000E-03 0. -1.
         11   -1    0    0    0    0 -0.00000000000E+00 -0.00000000000E+00 -0.45593999997E+02  0.45594000000E+02  0.51100000000E-03 0.  1.
    9900012    2    1    2    0    0  0.31072363876E+02 -0.15216740060E+02  0.21357037173E+02  0.50528880338E+02  0.30000062274E+02 0.  0.
        -12    1    1    2    0    0 -0.31072363876E+02  0.15216740060E+02 -0.21357037173E+02  0.40659119662E+02  0.00000000000E+00 0.  1.
         11    1    3    3    0    0  0.54140697066E+01  0.62200887894E+00  0.11327360790E+02  0.12570129218E+02  0.51100000000E-03 0. -1.
        -11    1    3    3    0    0  0.18128068797E+02  0.98523080466E+00  0.43103163749E+01  0.18659485137E+02  0.51100000000E-03 0.  1.
         12    1    3    3    0    0  0.75302253724E+01 -0.16823979744E+02  0.57193600086E+01  0.19299265983E+02  0.00000000000E+00 0. -1.
</event>
<event>
 7    1  0.2702714E-011  0.5052886E+02  0.7816164E-02  0.1300439E+00
        -11   -1    0    0    0    0  0.00000000000E+00  0.00000000000E+00  0.45593999997E+02  0.45594000000E+02  0.51100000000E-03 0.  1.
         11   -1    0    0    0    0 -0.00000000000E+00 -0.00000000000E+00 -0.45593999997E+02  0.45594000000E+02  0.51100000000E-03 0. -1.
    9900012    2    1    2    0    0  0.17841194054E+02  0.83243702533E+01 -0.35574744316E+02  0.50528858611E+02  0.29999996233E+02 0.  0.
        -12    1    1    2    0    0 -0.17841194054E+02 -0.83243702533E+01  0.35574744316E+02  0.40659141389E+02  0.00000000000E+00 0.  1.
         11    1    3    3    0    0  0.16513361220E+02 -0.50252201063E+01 -0.20697880884E+02  0.26950810920E+02  0.51100000000E-03 0. -1.
        -11    1    3    3    0    0 -0.22359360801E+01  0.36790376877E+01  0.12107915558E+01  0.44722192382E+01  0.51100000000E-03 0.  1.
        -12    1    3    3    0    0  0.35637689134E+01  0.96705526719E+01 -0.16087654988E+02  0.19105828453E+02  0.00000000000E+00 0.  1.
</event>
<event>
 7    1  0.2702714E-011  0.5052886E+02  0.7816164E-02  0.1300439E+00
        -11   -1    0    0    0    0  0.00000000000E+00  0.00000000000E+00  0.45593999997E+02  0.45594000000E+02  0.51100000000E-03 0.  1.
         11   -1    0    0    0    0 -0.00000000000E+00 -0.00000000000E+00 -0.45593999997E+02  0.45594000000E+02  0.51100000000E-03 0. -1.
    9900012    2    1    2    0    0 -0.30875926449E+02  0.14786351900E+02 -0.21936424534E+02  0.50528858864E+02  0.29999997003E+02 0.  0.
        -12    1    1    2    0    0  0.30875926449E+02 -0.14786351900E+02  0.21936424534E+02  0.40659141136E+02  0.00000000000E+00 0.  1.
         11    1    3    3    0    0 -0.32203883752E+01  0.10862295023E+01 -0.92394126222E+01  0.98446707250E+01  0.51100000000E-03 0. -1.
        -11    1    3    3    0    0  0.26414809843E+01 -0.28566170794E+01  0.19934765240E-01  0.38907686367E+01  0.51100000000E-03 0.  1.
         12    1    3    3    0    0 -0.30297019058E+02  0.16556739477E+02 -0.12716946677E+02  0.36793419502E+02  0.00000000000E+00 0. -1.
</event>
<event>
 7    1  0.2702714E-011  0.5052886E+02  0.7816164E-02  0.1300439E+00
        -11   -1    0    0    0    0  0.00000000000E+00  0.00000000000E+00  0.45593999997E+02  0.45594000000E+02  0.51100000000E-03 0. -1.
         11   -1    0    0    0    0 -0.00000000000E+00 -0.00000000000E+00 -0.45593999997E+02  0.45594000000E+02  0.51100000000E-03 0.  1.
    9900012    2    1    2    0    0 -0.11322807754E+00  0.39073191776E+02  0.11244495689E+02  0.50528858107E+02  0.29999994701E+02 0.  0.
        -12    1    1    2    0    0  0.11322807754E+00 -0.39073191776E+02 -0.11244495689E+02  0.40659141893E+02  0.00000000000E+00 0.  1.
         11    1    3    3    0    0 -0.21110553658E+01 -0.20963407735E+01 -0.76124402427E+00  0.30709431974E+01  0.51100000000E-03 0. -1.
        -11    1    3    3    0    0  0.83879310963E+01  0.33785220314E+02  0.44157772500E+01  0.35089850223E+02  0.51100000000E-03 0.  1.
         12    1    3    3    0    0 -0.63901038081E+01  0.73843122362E+01  0.75899624637E+01  0.12368064686E+02  0.00000000000E+00 0. -1.
</event>
<event>
 7    1  0.2702714E-011  0.5052885E+02  0.7816164E-02  0.1300439E+00
        -11   -1    0    0    0    0  0.00000000000E+00  0.00000000000E+00  0.45593999997E+02  0.45594000000E+02  0.51100000000E-03 0.  1.
         11   -1    0    0    0    0 -0.00000000000E+00 -0.00000000000E+00 -0.45593999997E+02  0.45594000000E+02  0.51100000000E-03 0. -1.
    9900012    2    1    2    0    0  0.13702328877E+02  0.20288255785E+01 -0.38226904152E+02  0.50528854031E+02  0.29999982313E+02 0.  0.
        -12    1    1    2    0    0 -0.13702328877E+02 -0.20288255785E+01  0.38226904152E+02  0.40659145969E+02  0.00000000000E+00 0.  1.
         11    1    3    3    0    0  0.61977316032E+00 -0.53746578781E+01 -0.84558195790E+01  0.10038523352E+02  0.51100000000E-03 0. -1.
        -11    1    3    3    0    0  0.20798474590E+00  0.10226455836E+02 -0.30145140846E+01  0.10663533750E+02  0.51100000000E-03 0.  1.
         12    1    3    3    0    0  0.12874570970E+02 -0.28229723790E+01 -0.26756570489E+02  0.29826796929E+02  0.00000000000E+00 0. -1.
</event>
<event>
 7    1  0.2702714E-011  0.5052886E+02  0.7816164E-02  0.1300439E+00
        -11   -1    0    0    0    0  0.00000000000E+00  0.00000000000E+00  0.45593999997E+02  0.45594000000E+02  0.51100000000E-03 0. -1.
         11   -1    0    0    0    0 -0.00000000000E+00 -0.00000000000E+00 -0.45593999997E+02  0.45594000000E+02  0.51100000000E-03 0.  1.
    9900012    2    1    2    0    0  0.19677824160E+02 -0.34963668402E+02  0.65947630961E+01  0.50528858690E+02  0.29999996473E+02 0.  0.
        -12    1    1    2    0    0 -0.19677824160E+02  0.34963668402E+02 -0.65947630961E+01  0.40659141310E+02  0.00000000000E+00 0.  1.
         11    1    3    3    0    0  0.33497522053E+01 -0.48890660598E+01  0.39830055975E+01  0.71405980579E+01  0.51100000000E-03 0. -1.
        -11    1    3    3    0    0  0.18214052755E+02 -0.15286276566E+02 -0.80008591645E+01  0.25088557485E+02  0.51100000000E-03 0.  1.
        -12    1    3    3    0    0 -0.18859808002E+01 -0.14788325776E+02  0.10612616663E+02  0.18299703147E+02  0.00000000000E+00 0.  1.
</event>
<event>
 7    1  0.2702714E-011  0.5052886E+02  0.7816164E-02  0.1300439E+00
        -11   -1    0    0    0    0  0.00000000000E+00  0.00000000000E+00  0.45593999997E+02  0.45594000000E+02  0.51100000000E-03 0. -1.
         11   -1    0    0    0    0 -0.00000000000E+00 -0.00000000000E+00 -0.45593999997E+02  0.45594000000E+02  0.51100000000E-03 0.  1.
    9900012    2    1    2    0    0 -0.36963621365E+02 -0.19317108847E+01  0.16826317293E+02  0.50528858777E+02  0.29999996738E+02 0.  0.
        -12    1    1    2    0    0  0.36963621365E+02  0.19317108847E+01 -0.16826317293E+02  0.40659141223E+02  0.00000000000E+00 0.  1.
         11    1    3    3    0    0 -0.26838979331E+02  0.31462849407E+00  0.74424885833E+01  0.27853553439E+02  0.51100000000E-03 0. -1.
        -11    1    3    3    0    0 -0.19911418751E+01  0.34486316065E+01 -0.42402615903E+01  0.58170030548E+01  0.51100000000E-03 0.  1.
         12    1    3    3    0    0 -0.81335001593E+01 -0.56949709853E+01  0.13624090300E+02  0.16858302283E+02  0.00000000000E+00 0. -1.
</event>
<event>
 7    1  0.2702714E-011  0.5052885E+02  0.7816164E-02  0.1300439E+00
        -11   -1    0    0    0    0  0.00000000000E+00  0.00000000000E+00  0.45593999997E+02  0.45594000000E+02  0.51100000000E-03 0.  1.
         11   -1    0    0    0    0 -0.00000000000E+00 -0.00000000000E+00 -0.45593999997E+02  0.45594000000E+02  0.51100000000E-03 0. -1.
    9900012    2    1    2    0    0  0.15915190429E+02 -0.70625792431E+01 -0.36742250103E+02  0.50528852757E+02  0.29999978439E+02 0.  0.
        -12    1    1    2    0    0 -0.15915190429E+02  0.70625792431E+01  0.36742250103E+02  0.40659147243E+02  0.00000000000E+00 0.  1.
         11    1    3    3    0    0  0.10750667424E+02 -0.15154390169E+01 -0.14096156774E+02  0.17792555790E+02  0.51100000000E-03 0. -1.
        -11    1    3    3    0    0  0.43516275490E+01  0.64097433863E+01 -0.76099757799E+00  0.77846380891E+01  0.51100000000E-03 0.  1.
         12    1    3    3    0    0  0.81289545575E+00 -0.11956883612E+02 -0.21885095751E+02  0.24951658878E+02  0.00000000000E+00 0. -1.
</event>
<event>
 7    1  0.2702714E-011  0.5052885E+02  0.7816164E-02  0.1300439E+00
        -11   -1    0    0    0    0  0.00000000000E+00  0.00000000000E+00  0.45593999997E+02  0.45594000000E+02  0.51100000000E-03 0.  1.
         11   -1    0    0    0    0 -0.00000000000E+00 -0.00000000000E+00 -0.45593999997E+02  0.45594000000E+02  0.51100000000E-03 0. -1.
    9900012    2    1    2    0    0  0.51222810518E+01  0.37556342213E+02 -0.14712227464E+02  0.50528852929E+02  0.29999978964E+02 0.  0.
        -12    1    1    2    0    0 -0.51222810518E+01 -0.37556342213E+02  0.14712227464E+02  0.40659147071E+02  0.00000000000E+00 0.  1.
         11    1    3    3    0    0  0.30847513468E+01  0.43754289966E+01  0.60523778849E+01  0.80803061884E+01  0.51100000000E-03 0. -1.
        -11    1    3    3    0    0  0.69466527364E+01  0.55090098831E+01 -0.59666718848E+01  0.10686737003E+02  0.51100000000E-03 0.  1.
         12    1    3    3    0    0 -0.49091230315E+01  0.27671903333E+02 -0.14797933464E+02  0.31761809738E+02  0.00000000000E+00 0. -1.
</event>
<event>
 7    1  0.3214221E-011  0.5052884E+02  0.7816164E-02  0.1300439E+00
        -11   -1    0    0    0    0  0.00000000000E+00  0.00000000000E+00  0.45593999997E+02  0.45594000000E+02  0.51100000000E-03 0. -1.
         11   -1    0    0    0    0 -0.00000000000E+00 -0.00000000000E+00 -0.45593999997E+02  0.45594000000E+02  0.51100000000E-03 0.  1.
    9900012    2    1    2    0    0 -0.14413408616E+02 -0.41323453552E+01  0.37793443634E+02  0.50528843494E+02  0.29999950286E+02 0.  0.
        -12    1    1    2    0    0  0.14413408616E+02  0.41323453552E+01 -0.37793443634E+02  0.40659156506E+02  0.00000000000E+00 0.  1.
         11    1    3    3    0    0 -0.14982314640E+01  0.58712685762E+00  0.27875107316E+02  0.27921515425E+02  0.51100000000E-03 0. -1.
        -11    1    3    3    0    0 -0.36571416300E+01  0.51656107280E+01  0.54307030601E+01  0.83397095323E+01  0.51100000000E-03 0.  1.
        -12    1    3    3    0    0 -0.92580355218E+01 -0.98850829408E+01  0.44876332571E+01  0.14267618537E+02  0.00000000000E+00 0.  1.
</event>
<event>
 7    1  0.2702714E-011  0.5052888E+02  0.7816164E-02  0.1300439E+00
        -11   -1    0    0    0    0  0.00000000000E+00  0.00000000000E+00  0.45593999997E+02  0.45594000000E+02  0.51100000000E-03 0. -1.
         11   -1    0    0    0    0 -0.00000000000E+00 -0.00000000000E+00 -0.45593999997E+02  0.45594000000E+02  0.51100000000E-03 0.  1.
    9900012    2    1    2    0    0  0.87050147038E+01  0.39711381843E+02 -0.62694549707E+00  0.50528878151E+02  0.30000055627E+02 0.  0.
        -12    1    1    2    0    0 -0.87050147038E+01 -0.39711381843E+02  0.62694549707E+00  0.40659121849E+02  0.00000000000E+00 0.  1.
         11    1    3    3    0    0  0.57037829047E+00  0.85516059140E+01 -0.76152549033E+01  0.11465051356E+02  0.51100000000E-03 0. -1.
        -11    1    3    3    0    0 -0.64134725740E+01  0.42129624020E+01  0.27370966524E+01  0.81469860074E+01  0.51100000000E-03 0.  1.
         12    1    3    3    0    0  0.14548108987E+02  0.26946813527E+02  0.42512127538E+01  0.30916840787E+02  0.00000000000E+00 0. -1.
</event>
<event>
 7    1  0.2702714E-011  0.5052886E+02  0.7816164E-02  0.1300439E+00
        -11   -1    0    0    0    0  0.00000000000E+00  0.00000000000E+00  0.45593999997E+02  0.45594000000E+02  0.51100000000E-03 0. -1.
         11   -1    0    0    0    0 -0.00000000000E+00 -0.00000000000E+00 -0.45593999997E+02  0.45594000000E+02  0.51100000000E-03 0.  1.
    9900012    2    1    2    0    0 -0.38548982449E+02 -0.19745634339E+01  0.12776638623E+02  0.50528862735E+02  0.30000008769E+02 0.  0.
        -12    1    1    2    0    0  0.38548982449E+02  0.19745634339E+01 -0.12776638623E+02  0.40659137265E+02  0.00000000000E+00 0.  1.
         11    1    3    3    0    0 -0.27985643471E+02  0.44975665909E+01  0.10030841940E+02  0.30067293460E+02  0.51100000000E-03 0. -1.
        -11    1    3    3    0    0 -0.63697380247E+01 -0.97049326034E+01  0.70986914008E+01  0.13607009194E+02  0.51100000000E-03 0.  1.
        -12    1    3    3    0    0 -0.41936009534E+01  0.32328025786E+01 -0.43528947185E+01  0.68545600806E+01  0.00000000000E+00 0.  1.
</event>
<event>
 7    1  0.2702714E-011  0.5052884E+02  0.7816164E-02  0.1300439E+00
        -11   -1    0    0    0    0  0.00000000000E+00  0.00000000000E+00  0.45593999997E+02  0.45594000000E+02  0.51100000000E-03 0.  1.
         11   -1    0    0    0    0 -0.00000000000E+00 -0.00000000000E+00 -0.45593999997E+02  0.45594000000E+02  0.51100000000E-03 0. -1.
    9900012    2    1    2    0    0  0.31349002986E+02 -0.41079235074E+01 -0.25564273616E+02  0.50528842246E+02  0.29999946491E+02 0.  0.
        -12    1    1    2    0    0 -0.31349002986E+02  0.41079235074E+01  0.25564273616E+02  0.40659157754E+02  0.00000000000E+00 0.  1.
         11    1    3    3    0    0  0.19673004009E+02 -0.14033450622E+01 -0.12382268643E+02  0.23287701499E+02  0.51100000000E-03 0. -1.
        -11    1    3    3    0    0  0.90552739390E+01 -0.66497099596E+01  0.19345633841E+01  0.11399963351E+02  0.51100000000E-03 0.  1.
        -12    1    3    3    0    0  0.26207250378E+01  0.39451315144E+01 -0.15116568357E+02  0.15841177396E+02  0.00000000000E+00 0.  1.
</event>
<event>
 7    1  0.2702714E-011  0.5052888E+02  0.7816164E-02  0.1300439E+00
        -11   -1    0    0    0    0  0.00000000000E+00  0.00000000000E+00  0.45593999997E+02  0.45594000000E+02  0.51100000000E-03 0.  1.
         11   -1    0    0    0    0 -0.00000000000E+00 -0.00000000000E+00 -0.45593999997E+02  0.45594000000E+02  0.51100000000E-03 0. -1.
    9900012    2    1    2    0    0 -0.13855544770E+02 -0.37963735638E+02 -0.44657235029E+01  0.50528880102E+02  0.30000061557E+02 0.  0.
        -12    1    1    2    0    0  0.13855544770E+02  0.37963735638E+02  0.44657235029E+01  0.40659119898E+02  0.00000000000E+00 0.  1.
         11    1    3    3    0    0 -0.20000191934E+01 -0.84921066966E+01  0.42210406935E+01  0.96919109425E+01  0.51100000000E-03 0. -1.
        -11    1    3    3    0    0  0.30052722890E+01  0.28880767002E+01 -0.19277897768E+01  0.45922785458E+01  0.51100000000E-03 0.  1.
         12    1    3    3    0    0 -0.14860797866E+02 -0.32359705642E+02 -0.67589744195E+01  0.36244690613E+02  0.00000000000E+00 0. -1.
</event>
<event>
 7    1  0.2702714E-011  0.5052885E+02  0.7816164E-02  0.1300439E+00
        -11   -1    0    0    0    0  0.00000000000E+00  0.00000000000E+00  0.45593999997E+02  0.45594000000E+02  0.51100000000E-03 0.  1.
         11   -1    0    0    0    0 -0.00000000000E+00 -0.00000000000E+00 -0.45593999997E+02  0.45594000000E+02  0.51100000000E-03 0. -1.
    9900012    2    1    2    0    0 -0.16275407541E+02 -0.12616727710E+02 -0.35058457745E+02  0.50528853818E+02  0.29999981666E+02 0.  0.
        -12    1    1    2    0    0  0.16275407541E+02  0.12616727710E+02  0.35058457745E+02  0.40659146182E+02  0.00000000000E+00 0.  1.
         11    1    3    3    0    0 -0.82671160426E+01  0.49235947875E+01 -0.14374522051E+02  0.17297799795E+02  0.51100000000E-03 0. -1.
        -11    1    3    3    0    0 -0.12335737395E+02 -0.12489108676E+02 -0.19896211762E+02  0.26533139568E+02  0.51100000000E-03 0.  1.
         12    1    3    3    0    0  0.43274458963E+01 -0.50512138214E+01 -0.78772393238E+00  0.66979144551E+01  0.00000000000E+00 0. -1.
</event>
<event>
 7    1  0.2702714E-011  0.5052887E+02  0.7816164E-02  0.1300439E+00
        -11   -1    0    0    0    0  0.00000000000E+00  0.00000000000E+00  0.45593999997E+02  0.45594000000E+02  0.51100000000E-03 0.  1.
         11   -1    0    0    0    0 -0.00000000000E+00 -0.00000000000E+00 -0.45593999997E+02  0.45594000000E+02  0.51100000000E-03 0. -1.
    9900012    2    1    2    0    0  0.23632507713E+02 -0.87736630201E+01 -0.31901291877E+02  0.50528868098E+02  0.30000025070E+02 0.  0.
        -12    1    1    2    0    0 -0.23632507713E+02  0.87736630201E+01  0.31901291877E+02  0.40659131902E+02  0.00000000000E+00 0.  1.
         11    1    3    3    0    0  0.12208157430E+02 -0.28213690194E+01 -0.22500052573E+02  0.25753671525E+02  0.51100000000E-03 0. -1.
        -11    1    3    3    0    0 -0.32320209240E+01 -0.12094609102E+01 -0.86945230882E+01  0.93543298498E+01  0.51100000000E-03 0.  1.
         12    1    3    3    0    0  0.14656371207E+02 -0.47428330906E+01 -0.70671621603E+00  0.15420866723E+02  0.00000000000E+00 0. -1.
</event>
<event>
 7    1  0.2702714E-011  0.5052885E+02  0.7816164E-02  0.1300439E+00
        -11   -1    0    0    0    0  0.00000000000E+00  0.00000000000E+00  0.45593999997E+02  0.45594000000E+02  0.51100000000E-03 0.  1.
         11   -1    0    0    0    0 -0.00000000000E+00 -0.00000000000E+00 -0.45593999997E+02  0.45594000000E+02  0.51100000000E-03 0. -1.
    9900012    2    1    2    0    0  0.73597706790E+01  0.33541174324E+02 -0.21771316513E+02  0.50528845777E+02  0.29999957223E+02 0.  0.
        -12    1    1    2    0    0 -0.73597706790E+01 -0.33541174324E+02  0.21771316513E+02  0.40659154223E+02  0.00000000000E+00 0.  1.
         11    1    3    3    0    0  0.38279946780E+01  0.72160215228E+01  0.42883893503E+01  0.92257679004E+01  0.51100000000E-03 0. -1.
        -11    1    3    3    0    0  0.69297557065E+01  0.98387668593E+01 -0.24077943686E+01  0.12272747103E+02  0.51100000000E-03 0.  1.
         12    1    3    3    0    0 -0.33979797056E+01  0.16486385942E+02 -0.23651911494E+02  0.29030330774E+02  0.00000000000E+00 0. -1.
</event>
<event>
 7    1  0.2702714E-011  0.5052886E+02  0.7816164E-02  0.1300439E+00
        -11   -1    0    0    0    0  0.00000000000E+00  0.00000000000E+00  0.45593999997E+02  0.45594000000E+02  0.51100000000E-03 0. -1.
         11   -1    0    0    0    0 -0.00000000000E+00 -0.00000000000E+00 -0.45593999997E+02  0.45594000000E+02  0.51100000000E-03 0.  1.
    9900012    2    1    2    0    0 -0.13238201330E+02  0.13273420568E+02  0.36079517735E+02  0.50528864888E+02  0.30000015314E+02 0.  0.
        -12    1    1    2    0    0  0.13238201330E+02 -0.13273420568E+02 -0.36079517735E+02  0.40659135112E+02  0.00000000000E+00 0.  1.
         11    1    3    3    0    0 -0.14098037785E+02  0.67518229103E+01  0.16725226810E+02  0.22892684293E+02  0.51100000000E-03 0. -1.
        -11    1    3    3    0    0 -0.58437716798E+00  0.11227755975E+02  0.47154381931E+01  0.12191774216E+02  0.51100000000E-03 0.  1.
         12    1    3    3    0    0  0.14442136231E+01 -0.47061583180E+01  0.14638852732E+02  0.15444406379E+02  0.00000000000E+00 0. -1.
</event>
<event>
 7    1  0.2702714E-011  0.5052886E+02  0.7816164E-02  0.1300439E+00
        -11   -1    0    0    0    0  0.00000000000E+00  0.00000000000E+00  0.45593999997E+02  0.45594000000E+02  0.51100000000E-03 0.  1.
         11   -1    0    0    0    0 -0.00000000000E+00 -0.00000000000E+00 -0.45593999997E+02  0.45594000000E+02  0.51100000000E-03 0. -1.
    9900012    2    1    2    0    0 -0.78245685063E+01  0.24741087413E+02 -0.31302076899E+02  0.50528864534E+02  0.30000014236E+02 0.  0.
        -12    1    1    2    0    0  0.78245685063E+01 -0.24741087413E+02  0.31302076899E+02  0.40659135466E+02  0.00000000000E+00 0.  1.
         11    1    3    3    0    0 -0.10340568931E+02  0.43985239149E+01 -0.60151836339E+01  0.12745854732E+02  0.51100000000E-03 0.  1.
        -11    1    3    3    0    0 -0.34798571426E+01  0.11038748476E+02 -0.23993413746E+02  0.26639205640E+02  0.51100000000E-03 0. -1.
        -12    1    3    3    0    0  0.59958575672E+01  0.93038150220E+01 -0.12934795186E+01  0.11143804162E+02  0.00000000000E+00 0.  1.
</event>
<event>
 7    1  0.2702714E-011  0.5052886E+02  0.7816164E-02  0.1300439E+00
        -11   -1    0    0    0    0  0.00000000000E+00  0.00000000000E+00  0.45593999997E+02  0.45594000000E+02  0.51100000000E-03 0.  1.
         11   -1    0    0    0    0 -0.00000000000E+00 -0.00000000000E+00 -0.45593999997E+02  0.45594000000E+02  0.51100000000E-03 0. -1.
    9900012    2    1    2    0    0 -0.20028439197E+02  0.28589497180E+02 -0.20848692492E+02  0.50528859523E+02  0.29999999007E+02 0.  0.
        -12    1    1    2    0    0  0.20028439197E+02 -0.28589497180E+02  0.20848692492E+02  0.40659140477E+02  0.00000000000E+00 0.  1.
         11    1    3    3    0    0 -0.11733667144E+01 -0.40261517028E+01  0.79197321500E+00  0.42677756284E+01  0.51100000000E-03 0. -1.
        -11    1    3    3    0    0  0.25339171543E+00  0.12432889604E+02 -0.29901419102E+01  0.12789914002E+02  0.51100000000E-03 0.  1.
         12    1    3    3    0    0 -0.19108464199E+02  0.20182759278E+02 -0.18650523797E+02  0.33471169893E+02  0.00000000000E+00 0. -1.
</event>
<event>
 7    1  0.2702714E-011  0.5052886E+02  0.7816164E-02  0.1300439E+00
        -11   -1    0    0    0    0  0.00000000000E+00  0.00000000000E+00  0.45593999997E+02  0.45594000000E+02  0.51100000000E-03 0.  1.
         11   -1    0    0    0    0 -0.00000000000E+00 -0.00000000000E+00 -0.45593999997E+02  0.45594000000E+02  0.51100000000E-03 0. -1.
    9900012    2    1    2    0    0 -0.71490351187E+01 -0.25033571202E+02 -0.31231024623E+02  0.50528864627E+02  0.30000014521E+02 0.  0.
        -12    1    1    2    0    0  0.71490351187E+01  0.25033571202E+02  0.31231024623E+02  0.40659135373E+02  0.00000000000E+00 0.  1.
         11    1    3    3    0    0 -0.84334735752E+01 -0.51724080564E+01 -0.12437736798E+02  0.15892595086E+02  0.51100000000E-03 0. -1.
        -11    1    3    3    0    0 -0.60735071408E+01 -0.13499712684E+02 -0.16090212432E+01  0.14890220991E+02  0.51100000000E-03 0.  1.
         12    1    3    3    0    0  0.73579455973E+01 -0.63614504611E+01 -0.17184266582E+02  0.19746048550E+02  0.00000000000E+00 0. -1.
</event>
<event>
 7    1  0.2702714E-011  0.5052887E+02  0.7816164E-02  0.1300439E+00
        -11   -1    0    0    0    0  0.00000000000E+00  0.00000000000E+00  0.45593999997E+02  0.45594000000E+02  0.51100000000E-03 0.  1.
         11   -1    0    0    0    0 -0.00000000000E+00 -0.00000000000E+00 -0.45593999997E+02  0.45594000000E+02  0.51100000000E-03 0. -1.
    9900012    2    1    2    0    0  0.39959245157E+02 -0.56812499067E-01  0.75113522202E+01  0.50528869250E+02  0.30000028572E+02 0.  0.
        -12    1    1    2    0    0 -0.39959245157E+02  0.56812499067E-01 -0.75113522202E+01  0.40659130750E+02  0.00000000000E+00 0.  1.
         11    1    3    3    0    0  0.20894163487E+02 -0.94578852140E+00 -0.13518654178E+01  0.20959201419E+02  0.51100000000E-03 0. -1.
        -11    1    3    3    0    0  0.13131290044E+01 -0.69388859128E+01 -0.19926343897E+01  0.73377815152E+01  0.51100000000E-03 0.  1.
         12    1    3    3    0    0  0.17751952665E+02  0.78278619351E+01  0.10855852028E+02  0.22231886316E+02  0.00000000000E+00 0. -1.
</event>
<event>
 7    1  0.2702714E-011  0.5052886E+02  0.7816164E-02  0.1300439E+00
        -11   -1    0    0    0    0  0.00000000000E+00  0.00000000000E+00  0.45593999997E+02  0.45594000000E+02  0.51100000000E-03 0. -1.
         11   -1    0    0    0    0 -0.00000000000E+00 -0.00000000000E+00 -0.45593999997E+02  0.45594000000E+02  0.51100000000E-03 0.  1.
    9900012    2    1    2    0    0  0.37958795703E+02  0.25747145871E+01 -0.14341067899E+02  0.50528861360E+02  0.30000004591E+02 0.  0.
        -12    1    1    2    0    0 -0.37958795703E+02 -0.25747145871E+01  0.14341067899E+02  0.40659138640E+02  0.00000000000E+00 0.  1.
         11    1    3    3    0    0  0.14752707764E+02 -0.17930783239E+01 -0.22324792318E+01  0.15028023158E+02  0.51100000000E-03 0. -1.
        -11    1    3    3    0    0 -0.23966256939E+00 -0.39937852145E+01  0.41537797465E+01  0.57672909525E+01  0.51100000000E-03 0.  1.
         12    1    3    3    0    0  0.23445750508E+02  0.83615781255E+01 -0.16262368414E+02  0.29733547250E+02  0.00000000000E+00 0. -1.
</event>
<event>
 7    1  0.2702714E-011  0.5052888E+02  0.7816164E-02  0.1300439E+00
        -11   -1    0    0    0    0  0.00000000000E+00  0.00000000000E+00  0.45593999997E+02  0.45594000000E+02  0.51100000000E-03 0.  1.
         11   -1    0    0    0    0 -0.00000000000E+00 -0.00000000000E+00 -0.45593999997E+02  0.45594000000E+02  0.51100000000E-03 0. -1.
    9900012    2    1    2    0    0 -0.37233285909E+01  0.35667038858E+02 -0.19161503762E+02  0.50528879706E+02  0.30000060354E+02 0.  0.
        -12    1    1    2    0    0  0.37233285909E+01 -0.35667038858E+02  0.19161503762E+02  0.40659120294E+02  0.00000000000E+00 0.  1.
         11    1    3    3    0    0 -0.94657728867E+01  0.74984632271E+01 -0.14428082710E+02  0.18814818045E+02  0.51100000000E-03 0. -1.
        -11    1    3    3    0    0  0.25331844205E+01  0.16885494554E+01  0.26511595274E+01  0.40369381556E+01  0.51100000000E-03 0.  1.
         12    1    3    3    0    0  0.32092598753E+01  0.26480026175E+02 -0.73845805785E+01  0.27677123505E+02  0.00000000000E+00 0. -1.
</event>
<event>
 7    1  0.2702714E-011  0.5052886E+02  0.7816164E-02  0.1300439E+00
        -11   -1    0    0    0    0  0.00000000000E+00  0.00000000000E+00  0.45593999997E+02  0.45594000000E+02  0.51100000000E-03 0. -1.
         11   -1    0    0    0    0 -0.00000000000E+00 -0.00000000000E+00 -0.45593999997E+02  0.45594000000E+02  0.51100000000E-03 0.  1.
    9900012    2    1    2    0    0 -0.19104525232E+02  0.78129386538E+01  0.35030566660E+02  0.50528862093E+02  0.30000006819E+02 0.  0.
        -12    1    1    2    0    0  0.19104525232E+02 -0.78129386538E+01 -0.35030566660E+02  0.40659137907E+02  0.00000000000E+00 0.  1.
         11    1    3    3    0    0 -0.16795162571E+01 -0.30936790587E+01  0.14639550620E+02  0.15056827939E+02  0.51100000000E-03 0. -1.
        -11    1    3    3    0    0 -0.78367070310E+01  0.92269115393E+01  0.22465087880E+02  0.25519209379E+02  0.51100000000E-03 0.  1.
        -12    1    3    3    0    0 -0.95883019444E+01  0.16797061731E+01 -0.20740718392E+01  0.99528247748E+01  0.00000000000E+00 0.  1.
</event>
<event>
 7    1  0.2702714E-011  0.5052885E+02  0.7816164E-02  0.1300439E+00
        -11   -1    0    0    0    0  0.00000000000E+00  0.00000000000E+00  0.45593999997E+02  0.45594000000E+02  0.51100000000E-03 0.  1.
         11   -1    0    0    0    0 -0.00000000000E+00 -0.00000000000E+00 -0.45593999997E+02  0.45594000000E+02  0.51100000000E-03 0. -1.
    9900012    2    1    2    0    0 -0.22678400176E+02  0.33727937115E+02  0.11327857403E+01  0.50528846294E+02  0.29999958795E+02 0.  0.
        -12    1    1    2    0    0  0.22678400176E+02 -0.33727937115E+02 -0.11327857403E+01  0.40659153706E+02  0.00000000000E+00 0.  1.
         11    1    3    3    0    0 -0.33094767521E+01  0.11179007160E+02 -0.50726922484E+01  0.12714363702E+02  0.51100000000E-03 0. -1.
        -11    1    3    3    0    0 -0.73484943052E+01  0.12519394619E+02 -0.80862413743E+01  0.16616946470E+02  0.51100000000E-03 0.  1.
        -12    1    3    3    0    0 -0.12020429119E+02  0.10029535336E+02  0.14291719363E+02  0.21197536121E+02  0.00000000000E+00 0.  1.
</event>
<event>
 7    1  0.2702714E-011  0.5052886E+02  0.7816164E-02  0.1300439E+00
        -11   -1    0    0    0    0  0.00000000000E+00  0.00000000000E+00  0.45593999997E+02  0.45594000000E+02  0.51100000000E-03 0. -1.
         11   -1    0    0    0    0 -0.00000000000E+00 -0.00000000000E+00 -0.45593999997E+02  0.45594000000E+02  0.51100000000E-03 0.  1.
    9900012    2    1    2    0    0 -0.98729301470E+00 -0.40636589705E+02 -0.92646686702E+00  0.50528861898E+02  0.30000006225E+02 0.  0.
        -12    1    1    2    0    0  0.98729301470E+00  0.40636589705E+02  0.92646686702E+00  0.40659138102E+02  0.00000000000E+00 0.  1.
         11    1    3    3    0    0 -0.22755593071E+01 -0.14672679984E+02  0.15556225532E+01  0.14929355976E+02  0.51100000000E-03 0. -1.
        -11    1    3    3    0    0  0.83634279488E+01 -0.13682802847E+02  0.80480164130E+01  0.17942591486E+02  0.51100000000E-03 0.  1.
        -12    1    3    3    0    0 -0.70751616564E+01 -0.12281106874E+02 -0.10530105833E+02  0.17656914436E+02  0.00000000000E+00 0.  1.
</event>
<event>
 7    1  0.2702714E-011  0.5052895E+02  0.7816164E-02  0.1300438E+00
        -11   -1    0    0    0    0  0.00000000000E+00  0.00000000000E+00  0.45593999997E+02  0.45594000000E+02  0.51100000000E-03 0.  1.
         11   -1    0    0    0    0 -0.00000000000E+00 -0.00000000000E+00 -0.45593999997E+02  0.45594000000E+02  0.51100000000E-03 0. -1.
    9900012    2    1    2    0    0  0.35987562958E+01 -0.78117101457E+01 -0.39738955732E+02  0.50528948548E+02  0.30000269606E+02 0.  0.
        -12    1    1    2    0    0 -0.35987562958E+01  0.78117101457E+01  0.39738955732E+02  0.40659051452E+02  0.00000000000E+00 0.  1.
         11    1    3    3    0    0  0.11498325464E+02 -0.14793397617E+01 -0.12375499528E+02  0.16957385513E+02  0.51100000000E-03 0. -1.
        -11    1    3    3    0    0 -0.21022782339E+01 -0.70496629514E+00  0.20796959732E+01  0.30400142849E+01  0.51100000000E-03 0.  1.
        -12    1    3    3    0    0 -0.57972909344E+01 -0.56274040889E+01 -0.29443152177E+02  0.30531548750E+02  0.00000000000E+00 0.  1.
</event>
<event>
 7    1  0.2702714E-011  0.5052886E+02  0.7816164E-02  0.1300439E+00
        -11   -1    0    0    0    0  0.00000000000E+00  0.00000000000E+00  0.45593999997E+02  0.45594000000E+02  0.51100000000E-03 0. -1.
         11   -1    0    0    0    0 -0.00000000000E+00 -0.00000000000E+00 -0.45593999997E+02  0.45594000000E+02  0.51100000000E-03 0.  1.
    9900012    2    1    2    0    0  0.26436732089E+02  0.42933157747E+01  0.30591380737E+02  0.50528856634E+02  0.29999990225E+02 0.  0.
        -12    1    1    2    0    0 -0.26436732089E+02 -0.42933157747E+01 -0.30591380737E+02  0.40659143366E+02  0.00000000000E+00 0.  1.
         11    1    3    3    0    0 -0.53092716212E+00 -0.40456862188E+01  0.10960286830E+02  0.11695184833E+02  0.51100000000E-03 0. -1.
        -11    1    3    3    0    0  0.92307051406E+01 -0.98608271121E+00 -0.18404343531E+01  0.94639038126E+01  0.51100000000E-03 0.  1.
         12    1    3    3    0    0  0.17736954111E+02  0.93250847047E+01  0.21471528260E+02  0.29369767988E+02  0.00000000000E+00 0. -1.
</event>
<event>
 7    1  0.2702714E-011  0.5052886E+02  0.7816164E-02  0.1300439E+00
        -11   -1    0    0    0    0  0.00000000000E+00  0.00000000000E+00  0.45593999997E+02  0.45594000000E+02  0.51100000000E-03 0. -1.
         11   -1    0    0    0    0 -0.00000000000E+00 -0.00000000000E+00 -0.45593999997E+02  0.45594000000E+02  0.51100000000E-03 0.  1.
    9900012    2    1    2    0    0 -0.61865046095E-01 -0.23205943821E+02  0.33386317646E+02  0.50528857586E+02  0.29999993117E+02 0.  0.
        -12    1    1    2    0    0  0.61865046095E-01  0.23205943821E+02 -0.33386317646E+02  0.40659142414E+02  0.00000000000E+00 0.  1.
         11    1    3    3    0    0 -0.57456491453E+01  0.23980338409E+01  0.78041378029E+01  0.99833670428E+01  0.51100000000E-03 0. -1.
        -11    1    3    3    0    0  0.11796090598E+00 -0.69806437616E+01  0.18641846777E+02  0.19906324463E+02  0.51100000000E-03 0.  1.
         12    1    3    3    0    0  0.55658231933E+01 -0.18623333901E+02  0.69403330656E+01  0.20639166079E+02  0.00000000000E+00 0. -1.
</event>
<event>
 7    1  0.2702714E-011  0.5052886E+02  0.7816164E-02  0.1300439E+00
        -11   -1    0    0    0    0  0.00000000000E+00  0.00000000000E+00  0.45593999997E+02  0.45594000000E+02  0.51100000000E-03 0.  1.
         11   -1    0    0    0    0 -0.00000000000E+00 -0.00000000000E+00 -0.45593999997E+02  0.45594000000E+02  0.51100000000E-03 0. -1.
    9900012    2    1    2    0    0 -0.35886605040E+01  0.34124029469E+02 -0.21813711146E+02  0.50528857542E+02  0.29999992986E+02 0.  0.
        -12    1    1    2    0    0  0.35886605040E+01 -0.34124029469E+02  0.21813711146E+02  0.40659142458E+02  0.00000000000E+00 0.  1.
         11    1    3    3    0    0 -0.75285891448E+01  0.41281228426E+01 -0.97649554624E+01  0.13002899990E+02  0.51100000000E-03 0. -1.
        -11    1    3    3    0    0 -0.68462520923E+01  0.18639852353E+02 -0.61167444087E+01  0.20778109295E+02  0.51100000000E-03 0.  1.
         12    1    3    3    0    0  0.10786180733E+02  0.11356054274E+02 -0.59320112748E+01  0.16747848257E+02  0.00000000000E+00 0. -1.
</event>
<event>
 7    1  0.2702714E-011  0.5052886E+02  0.7816164E-02  0.1300439E+00
        -11   -1    0    0    0    0  0.00000000000E+00  0.00000000000E+00  0.45593999997E+02  0.45594000000E+02  0.51100000000E-03 0.  1.
         11   -1    0    0    0    0 -0.00000000000E+00 -0.00000000000E+00 -0.45593999997E+02  0.45594000000E+02  0.51100000000E-03 0. -1.
    9900012    2    1    2    0    0  0.12098251664E+02  0.40283155127E+01 -0.38607908825E+02  0.50528860276E+02  0.30000001296E+02 0.  0.
        -12    1    1    2    0    0 -0.12098251664E+02 -0.40283155127E+01  0.38607908825E+02  0.40659139724E+02  0.00000000000E+00 0.  1.
         11    1    3    3    0    0  0.10252037997E+02 -0.14486628314E+01 -0.24819258611E+02  0.26892350313E+02  0.51100000000E-03 0. -1.
        -11    1    3    3    0    0  0.88813670657E+01 -0.14076619317E+01 -0.43116072558E+01  0.99724696269E+01  0.51100000000E-03 0.  1.
         12    1    3    3    0    0 -0.70351533993E+01  0.68846402759E+01 -0.94770429586E+01  0.13664040337E+02  0.00000000000E+00 0. -1.
</event>
<event>
 7    1  0.2702714E-011  0.5052885E+02  0.7816164E-02  0.1300439E+00
        -11   -1    0    0    0    0  0.00000000000E+00  0.00000000000E+00  0.45593999997E+02  0.45594000000E+02  0.51100000000E-03 0.  1.
         11   -1    0    0    0    0 -0.00000000000E+00 -0.00000000000E+00 -0.45593999997E+02  0.45594000000E+02  0.51100000000E-03 0. -1.
    9900012    2    1    2    0    0 -0.29199127183E+02  0.12906713640E+02 -0.25179235752E+02  0.50528853449E+02  0.29999980544E+02 0.  0.
        -12    1    1    2    0    0  0.29199127183E+02 -0.12906713640E+02  0.25179235752E+02  0.40659146551E+02  0.00000000000E+00 0.  1.
         11    1    3    3    0    0 -0.26664007593E+01  0.71983077098E+00  0.26757167486E+01  0.38454271190E+01  0.51100000000E-03 0. -1.
        -11    1    3    3    0    0 -0.63322085234E+01  0.75670290688E+01 -0.23529705137E+02  0.25514776460E+02  0.51100000000E-03 0.  1.
         12    1    3    3    0    0 -0.20200517900E+02  0.46198538002E+01 -0.43252473634E+01  0.21168649870E+02  0.00000000000E+00 0. -1.
</event>
<event>
 7    1  0.2774742E-011  0.5052886E+02  0.7816164E-02  0.1300439E+00
        -11   -1    0    0    0    0  0.00000000000E+00  0.00000000000E+00  0.45593999997E+02  0.45594000000E+02  0.51100000000E-03 0. -1.
         11   -1    0    0    0    0 -0.00000000000E+00 -0.00000000000E+00 -0.45593999997E+02  0.45594000000E+02  0.51100000000E-03 0.  1.
    9900012    2    1    2    0    0 -0.36952701207E+02  0.16937491981E+02 -0.88598886385E+00  0.50528859116E+02  0.29999997770E+02 0.  0.
        -12    1    1    2    0    0  0.36952701207E+02 -0.16937491981E+02  0.88598886385E+00  0.40659140884E+02  0.00000000000E+00 0.  1.
         11    1    3    3    0    0 -0.24462036370E+02  0.58675329531E+01 -0.77032008933E+01  0.26308904778E+02  0.51100000000E-03 0. -1.
        -11    1    3    3    0    0 -0.15636092807E+02  0.73696844334E+01  0.82539883064E+01  0.19155364004E+02  0.51100000000E-03 0.  1.
        -12    1    3    3    0    0  0.31454279697E+01  0.37002745947E+01 -0.14367762770E+01  0.50645903348E+01  0.00000000000E+00 0.  1.
</event>
<event>
 7    1  0.2702714E-011  0.5052886E+02  0.7816164E-02  0.1300439E+00
        -11   -1    0    0    0    0  0.00000000000E+00  0.00000000000E+00  0.45593999997E+02  0.45594000000E+02  0.51100000000E-03 0.  1.
         11   -1    0    0    0    0 -0.00000000000E+00 -0.00000000000E+00 -0.45593999997E+02  0.45594000000E+02  0.51100000000E-03 0. -1.
    9900012    2    1    2    0    0 -0.31059123739E+02  0.11700834606E+02  0.23485886135E+02  0.50528861477E+02  0.30000004947E+02 0.  0.
        -12    1    1    2    0    0  0.31059123739E+02 -0.11700834606E+02 -0.23485886135E+02  0.40659138523E+02  0.00000000000E+00 0.  1.
         11    1    3    3    0    0 -0.10340671100E+02  0.78639169837E+01  0.93614854902E+01  0.16012747421E+02  0.51100000000E-03 0.  1.
        -11    1    3    3    0    0 -0.17384251877E+02  0.94027376083E+01  0.89860472377E+00  0.19784619748E+02  0.51100000000E-03 0. -1.
        -12    1    3    3    0    0 -0.33342007619E+01 -0.55658199863E+01  0.13225795921E+02  0.14731494309E+02  0.00000000000E+00 0.  1.
</event>
<event>
 7    1  0.2702714E-011  0.5052886E+02  0.7816164E-02  0.1300439E+00
        -11   -1    0    0    0    0  0.00000000000E+00  0.00000000000E+00  0.45593999997E+02  0.45594000000E+02  0.51100000000E-03 0.  1.
         11   -1    0    0    0    0 -0.00000000000E+00 -0.00000000000E+00 -0.45593999997E+02  0.45594000000E+02  0.51100000000E-03 0. -1.
    9900012    2    1    2    0    0 -0.39460967464E+02  0.97561311890E+01 -0.90317554053E+00  0.50528858653E+02  0.29999996363E+02 0.  0.
        -12    1    1    2    0    0  0.39460967464E+02 -0.97561311890E+01  0.90317554053E+00  0.40659141347E+02  0.00000000000E+00 0.  1.
         11    1    3    3    0    0 -0.13676287475E+02 -0.72755359081E+01 -0.22784208349E+01  0.15657760492E+02  0.51100000000E-03 0. -1.
        -11    1    3    3    0    0 -0.20422422785E+02  0.48430857378E+01 -0.21436488258E+01  0.21098010864E+02  0.51100000000E-03 0.  1.
        -12    1    3    3    0    0 -0.53622572038E+01  0.12188581359E+02  0.35188941201E+01  0.13773087297E+02  0.00000000000E+00 0.  1.
</event>
<event>
 7    1  0.2702714E-011  0.5052882E+02  0.7816164E-02  0.1300439E+00
        -11   -1    0    0    0    0  0.00000000000E+00  0.00000000000E+00  0.45593999997E+02  0.45594000000E+02  0.51100000000E-03 0.  1.
         11   -1    0    0    0    0 -0.00000000000E+00 -0.00000000000E+00 -0.45593999997E+02  0.45594000000E+02  0.51100000000E-03 0. -1.
    9900012    2    1    2    0    0 -0.33847294116E+01  0.10697564837E+02 -0.39080365010E+02  0.50528816340E+02  0.29999867746E+02 0.  0.
        -12    1    1    2    0    0  0.33847294116E+01 -0.10697564837E+02  0.39080365010E+02  0.40659183660E+02  0.00000000000E+00 0.  1.
         11    1    3    3    0    0 -0.40081478568E+01  0.12991809064E+02 -0.54392144897E+01  0.14643681454E+02  0.51100000000E-03 0. -1.
        -11    1    3    3    0    0  0.15585642407E+01  0.39851547829E+01 -0.23745940250E+02  0.24128411878E+02  0.51100000000E-03 0.  1.
        -12    1    3    3    0    0 -0.93514579549E+00 -0.62793990100E+01 -0.98952102697E+01  0.11756723007E+02  0.00000000000E+00 0.  1.
</event>
<event>
 7    1  0.2702714E-011  0.5052888E+02  0.7816164E-02  0.1300439E+00
        -11   -1    0    0    0    0  0.00000000000E+00  0.00000000000E+00  0.45593999997E+02  0.45594000000E+02  0.51100000000E-03 0. -1.
         11   -1    0    0    0    0 -0.00000000000E+00 -0.00000000000E+00 -0.45593999997E+02  0.45594000000E+02  0.51100000000E-03 0.  1.
    9900012    2    1    2    0    0  0.31496590808E+01  0.39160931741E+02 -0.10472129156E+02  0.50528875363E+02  0.30000047154E+02 0.  0.
        -12    1    1    2    0    0 -0.31496590808E+01 -0.39160931741E+02  0.10472129156E+02  0.40659124637E+02  0.00000000000E+00 0.  1.
         11    1    3    3    0    0  0.10593732798E+02  0.27075764809E+02 -0.13332481774E+02  0.31985610595E+02  0.51100000000E-03 0. -1.
        -11    1    3    3    0    0  0.19419855827E+01  0.34416155238E+01  0.41355502498E+01  0.57200351001E+01  0.51100000000E-03 0.  1.
        -12    1    3    3    0    0 -0.93860592999E+01  0.86435514086E+01 -0.12751976310E+01  0.12823229669E+02  0.00000000000E+00 0.  1.
</event>
<event>
 7    1  0.2702714E-011  0.5052886E+02  0.7816164E-02  0.1300439E+00
        -11   -1    0    0    0    0  0.00000000000E+00  0.00000000000E+00  0.45593999997E+02  0.45594000000E+02  0.51100000000E-03 0.  1.
         11   -1    0    0    0    0 -0.00000000000E+00 -0.00000000000E+00 -0.45593999997E+02  0.45594000000E+02  0.51100000000E-03 0. -1.
    9900012    2    1    2    0    0  0.16487635878E+02 -0.28646488402E+02 -0.23679152575E+02  0.50528859560E+02  0.29999999120E+02 0.  0.
        -12    1    1    2    0    0 -0.16487635878E+02  0.28646488402E+02  0.23679152575E+02  0.40659140440E+02  0.00000000000E+00 0.  1.
         11    1    3    3    0    0  0.81316576709E+01 -0.21311399909E+02 -0.13105050898E+02  0.26306690820E+02  0.51100000000E-03 0. -1.
        -11    1    3    3    0    0 -0.53418584584E+01 -0.10534877045E+01  0.57742478768E+00  0.54752815251E+01  0.51100000000E-03 0.  1.
        -12    1    3    3    0    0  0.13697836666E+02 -0.62816007876E+01 -0.11151526465E+02  0.18746887216E+02  0.00000000000E+00 0.  1.
</event>
<event>
 7    1  0.2702714E-011  0.5052886E+02  0.7816164E-02  0.1300439E+00
        -11   -1    0    0    0    0  0.00000000000E+00  0.00000000000E+00  0.45593999997E+02  0.45594000000E+02  0.51100000000E-03 0.  1.
         11   -1    0    0    0    0 -0.00000000000E+00 -0.00000000000E+00 -0.45593999997E+02  0.45594000000E+02  0.51100000000E-03 0. -1.
    9900012    2    1    2    0    0  0.26415178082E+01  0.13213981784E+02 -0.38361165727E+02  0.50528856294E+02  0.29999989192E+02 0.  0.
        -12    1    1    2    0    0 -0.26415178082E+01 -0.13213981784E+02  0.38361165727E+02  0.40659143706E+02  0.00000000000E+00 0.  1.
         11    1    3    3    0    0  0.74448694584E+01  0.59137326939E+01 -0.34786369614E+02  0.36062304790E+02  0.51100000000E-03 0. -1.
        -11    1    3    3    0    0 -0.33905051539E+01 -0.22949057501E+01  0.99234672671E-01  0.40953590052E+01  0.51100000000E-03 0.  1.
        -12    1    3    3    0    0 -0.14128464963E+01  0.95951548400E+01 -0.36740307863E+01  0.10371192499E+02  0.00000000000E+00 0.  1.
</event>
<event>
 7    1  0.2702714E-011  0.5052885E+02  0.7816164E-02  0.1300439E+00
        -11   -1    0    0    0    0  0.00000000000E+00  0.00000000000E+00  0.45593999997E+02  0.45594000000E+02  0.51100000000E-03 0. -1.
         11   -1    0    0    0    0 -0.00000000000E+00 -0.00000000000E+00 -0.45593999997E+02  0.45594000000E+02  0.51100000000E-03 0.  1.
    9900012    2    1    2    0    0  0.27351987218E+01  0.33873966407E+02  0.22321289358E+02  0.50528845179E+02  0.29999955405E+02 0.  0.
        -12    1    1    2    0    0 -0.27351987218E+01 -0.33873966407E+02 -0.22321289358E+02  0.40659154821E+02  0.00000000000E+00 0.  1.
         11    1    3    3    0    0  0.70205149028E+01  0.46277756565E+01  0.70974619580E+00  0.84384641346E+01  0.51100000000E-03 0. -1.
        -11    1    3    3    0    0  0.27459487036E+01  0.11080281493E+01  0.10700347600E+02  0.11102495201E+02  0.51100000000E-03 0.  1.
         12    1    3    3    0    0 -0.70312648846E+01  0.28138162601E+02  0.10911195562E+02  0.30987885843E+02  0.00000000000E+00 0. -1.
</event>
<event>
 7    1  0.2702714E-011  0.5052886E+02  0.7816164E-02  0.1300439E+00
        -11   -1    0    0    0    0  0.00000000000E+00  0.00000000000E+00  0.45593999997E+02  0.45594000000E+02  0.51100000000E-03 0.  1.
         11   -1    0    0    0    0 -0.00000000000E+00 -0.00000000000E+00 -0.45593999997E+02  0.45594000000E+02  0.51100000000E-03 0. -1.
    9900012    2    1    2    0    0 -0.20786130991E+02  0.31452460960E+02 -0.15226460672E+02  0.50528860233E+02  0.30000001164E+02 0.  0.
        -12    1    1    2    0    0  0.20786130991E+02 -0.31452460960E+02  0.15226460672E+02  0.40659139767E+02  0.00000000000E+00 0.  1.
         11    1    3    3    0    0 -0.50824855124E+01  0.52474349549E+01 -0.13018524240E+01  0.74203808922E+01  0.51100000000E-03 0. -1.
        -11    1    3    3    0    0 -0.68211557874E+01 -0.26213595562E+01 -0.10440904227E+02  0.12744103481E+02  0.51100000000E-03 0.  1.
        -12    1    3    3    0    0 -0.88824896915E+01  0.28826385561E+02 -0.34837040202E+01  0.30364375859E+02  0.00000000000E+00 0.  1.
</event>
<event>
 7    1  0.2702714E-011  0.5052890E+02  0.7816164E-02  0.1300439E+00
        -11   -1    0    0    0    0  0.00000000000E+00  0.00000000000E+00  0.45593999997E+02  0.45594000000E+02  0.51100000000E-03 0.  1.
         11   -1    0    0    0    0 -0.00000000000E+00 -0.00000000000E+00 -0.45593999997E+02  0.45594000000E+02  0.51100000000E-03 0. -1.
    9900012    2    1    2    0    0 -0.25244696072E+01 -0.81810978039E+01 -0.39747446554E+02  0.50528895046E+02  0.30000106982E+02 0.  0.
        -12    1    1    2    0    0  0.25244696072E+01  0.81810978039E+01  0.39747446554E+02  0.40659104954E+02  0.00000000000E+00 0.  1.
         11    1    3    3    0    0 -0.29300848509E+00 -0.14517268203E+02 -0.11139709056E+02  0.18301094179E+02  0.51100000000E-03 0. -1.
        -11    1    3    3    0    0 -0.67065380940E+01  0.21816935105E+00 -0.91575901069E+01  0.11352828189E+02  0.51100000000E-03 0.  1.
        -12    1    3    3    0    0  0.44750769719E+01  0.61180010482E+01 -0.19450147392E+02  0.20874972677E+02  0.00000000000E+00 0.  1.
</event>
<event>
 7    1  0.2702714E-011  0.5052887E+02  0.7816164E-02  0.1300439E+00
        -11   -1    0    0    0    0  0.00000000000E+00  0.00000000000E+00  0.45593999997E+02  0.45594000000E+02  0.51100000000E-03 0. -1.
         11   -1    0    0    0    0 -0.00000000000E+00 -0.00000000000E+00 -0.45593999997E+02  0.45594000000E+02  0.51100000000E-03 0.  1.
    9900012    2    1    2    0    0 -0.26479892622E+02  0.81477244387E+01  0.29758944339E+02  0.50528869476E+02  0.30000029259E+02 0.  0.
        -12    1    1    2    0    0  0.26479892622E+02 -0.81477244387E+01 -0.29758944339E+02  0.40659130524E+02  0.00000000000E+00 0.  1.
         11    1    3    3    0    0 -0.60260756225E+00 -0.99108963373E+00  0.91532308175E+01  0.92264310107E+01  0.51100000000E-03 0. -1.
        -11    1    3    3    0    0  0.12800976160E+00 -0.26084010903E+01 -0.32073791847E+01  0.41361122135E+01  0.51100000000E-03 0.  1.
         12    1    3    3    0    0 -0.26005294821E+02  0.11747215163E+02  0.23813092706E+02  0.37166326252E+02  0.00000000000E+00 0. -1.
</event>
<event>
 7    1  0.2702714E-011  0.5052885E+02  0.7816164E-02  0.1300439E+00
        -11   -1    0    0    0    0  0.00000000000E+00  0.00000000000E+00  0.45593999997E+02  0.45594000000E+02  0.51100000000E-03 0.  1.
         11   -1    0    0    0    0 -0.00000000000E+00 -0.00000000000E+00 -0.45593999997E+02  0.45594000000E+02  0.51100000000E-03 0. -1.
    9900012    2    1    2    0    0  0.98562902602E+01  0.12673926236E+02 -0.37354944824E+02  0.50528846458E+02  0.29999959294E+02 0.  0.
        -12    1    1    2    0    0 -0.98562902602E+01 -0.12673926236E+02  0.37354944824E+02  0.40659153542E+02  0.00000000000E+00 0.  1.
         11    1    3    3    0    0 -0.32184841091E+01  0.14670521465E+01 -0.58479128184E+01  0.68343958442E+01  0.51100000000E-03 0. -1.
        -11    1    3    3    0    0  0.10424627592E+02 -0.75866631312E+00 -0.62657189779E+00  0.10470961159E+02  0.51100000000E-03 0.  1.
         12    1    3    3    0    0  0.26501467777E+01  0.11965540403E+02 -0.30880460108E+02  0.33223489455E+02  0.00000000000E+00 0. -1.
</event>
<event>
 7    1  0.2702714E-011  0.5052883E+02  0.7816164E-02  0.1300439E+00
        -11   -1    0    0    0    0  0.00000000000E+00  0.00000000000E+00  0.45593999997E+02  0.45594000000E+02  0.51100000000E-03 0. -1.
         11   -1    0    0    0    0 -0.00000000000E+00 -0.00000000000E+00 -0.45593999997E+02  0.45594000000E+02  0.51100000000E-03 0.  1.
    9900012    2    1    2    0    0  0.29558939180E+02  0.23647058284E+02  0.14840955045E+02  0.50528828862E+02  0.29999905809E+02 0.  0.
        -12    1    1    2    0    0 -0.29558939180E+02 -0.23647058284E+02 -0.14840955045E+02  0.40659171138E+02  0.00000000000E+00 0.  1.
         11    1    3    3    0    0  0.26784490823E+02  0.23036107113E+02  0.13085729324E+02  0.37673697612E+02  0.51100000000E-03 0. -1.
        -11    1    3    3    0    0  0.74185960830E+01  0.63278479364E-01  0.30212396009E+01  0.80104594747E+01  0.51100000000E-03 0.  1.
         12    1    3    3    0    0 -0.46441477251E+01  0.54767269194E+00 -0.12660138797E+01  0.48446717757E+01  0.00000000000E+00 0. -1.
</event>
<event>
 7    1  0.2702714E-011  0.5052890E+02  0.7816164E-02  0.1300439E+00
        -11   -1    0    0    0    0  0.00000000000E+00  0.00000000000E+00  0.45593999997E+02  0.45594000000E+02  0.51100000000E-03 0. -1.
         11   -1    0    0    0    0 -0.00000000000E+00 -0.00000000000E+00 -0.45593999997E+02  0.45594000000E+02  0.51100000000E-03 0.  1.
    9900012    2    1    2    0    0 -0.36329344229E+02 -0.16095750498E+02 -0.86178940279E+01  0.50528898514E+02  0.30000117522E+02 0.  0.
        -12    1    1    2    0    0  0.36329344229E+02  0.16095750498E+02  0.86178940279E+01  0.40659101486E+02  0.00000000000E+00 0.  1.
         11    1    3    3    0    0 -0.15007435322E+02 -0.43422969014E+00  0.74134142324E+01  0.16744264129E+02  0.51100000000E-03 0. -1.
        -11    1    3    3    0    0 -0.13926827049E+01 -0.61237786088E+01  0.33520184075E+00  0.62890849971E+01  0.51100000000E-03 0.  1.
        -12    1    3    3    0    0 -0.19929226202E+02 -0.95377421992E+01 -0.16366510101E+02  0.27495549388E+02  0.00000000000E+00 0.  1.
</event>
<event>
 7    1  0.2702714E-011  0.5052886E+02  0.7816164E-02  0.1300439E+00
        -11   -1    0    0    0    0  0.00000000000E+00  0.00000000000E+00  0.45593999997E+02  0.45594000000E+02  0.51100000000E-03 0.  1.
         11   -1    0    0    0    0 -0.00000000000E+00 -0.00000000000E+00 -0.45593999997E+02  0.45594000000E+02  0.51100000000E-03 0. -1.
    9900012    2    1    2    0    0 -0.18036394107E+02 -0.34641181107E+02 -0.11306752831E+02  0.50528860800E+02  0.30000002889E+02 0.  0.
        -12    1    1    2    0    0  0.18036394107E+02  0.34641181107E+02  0.11306752831E+02  0.40659139200E+02  0.00000000000E+00 0.  1.
         11    1    3    3    0    0 -0.12624086964E+01 -0.11931896151E+02  0.66434101686E+01  0.13714908691E+02  0.51100000000E-03 0. -1.
        -11    1    3    3    0    0 -0.87240933159E+01 -0.24306305310E+01 -0.85567629497E+00  0.90967000141E+01  0.51100000000E-03 0.  1.
        -12    1    3    3    0    0 -0.80498920950E+01 -0.20278654425E+02 -0.17094486704E+02  0.27717252095E+02  0.00000000000E+00 0.  1.
</event>
<event>
 7    1  0.2702714E-011  0.5052886E+02  0.7816164E-02  0.1300439E+00
        -11   -1    0    0    0    0  0.00000000000E+00  0.00000000000E+00  0.45593999997E+02  0.45594000000E+02  0.51100000000E-03 0.  1.
         11   -1    0    0    0    0 -0.00000000000E+00 -0.00000000000E+00 -0.45593999997E+02  0.45594000000E+02  0.51100000000E-03 0. -1.
    9900012    2    1    2    0    0  0.96007062088E+01 -0.36349194999E+02 -0.15483156256E+02  0.50528860013E+02  0.30000000497E+02 0.  0.
        -12    1    1    2    0    0 -0.96007062088E+01  0.36349194999E+02  0.15483156256E+02  0.40659139987E+02  0.00000000000E+00 0.  1.
         11    1    3    3    0    0  0.86459536462E+01 -0.39355670204E+02 -0.69089859239E+01  0.40882213473E+02  0.51100000000E-03 0. -1.
        -11    1    3    3    0    0 -0.63123455702E+00  0.14798699115E+00 -0.23498437912E+00  0.68961955821E+00  0.51100000000E-03 0.  1.
         12    1    3    3    0    0  0.15859871196E+01  0.28584882137E+01 -0.83391859529E+01  0.89570269827E+01  0.00000000000E+00 0. -1.
</event>
<event>
 7    1  0.2702714E-011  0.5052893E+02  0.7816164E-02  0.1300439E+00
        -11   -1    0    0    0    0  0.00000000000E+00  0.00000000000E+00  0.45593999997E+02  0.45594000000E+02  0.51100000000E-03 0.  1.
         11   -1    0    0    0    0 -0.00000000000E+00 -0.00000000000E+00 -0.45593999997E+02  0.45594000000E+02  0.51100000000E-03 0. -1.
    9900012    2    1    2    0    0 -0.28257196483E+02 -0.26851568854E+01 -0.29111527156E+02  0.50528926795E+02  0.30000203485E+02 0.  0.
        -12    1    1    2    0    0  0.28257196483E+02  0.26851568854E+01  0.29111527156E+02  0.40659073205E+02  0.00000000000E+00 0.  1.
         11    1    3    3    0    0  0.59088545163E+01 -0.28435847060E+00 -0.16796714835E+01  0.61495298998E+01  0.51100000000E-03 0. -1.
        -11    1    3    3    0    0 -0.53821252671E+01 -0.66144789649E+00 -0.15715551709E+01  0.56457569579E+01  0.51100000000E-03 0.  1.
         12    1    3    3    0    0 -0.28783925732E+02 -0.17393505183E+01 -0.25860300501E+02  0.38733639937E+02  0.00000000000E+00 0. -1.
</event>
<event>
 7    1  0.2702714E-011  0.5052886E+02  0.7816164E-02  0.1300439E+00
        -11   -1    0    0    0    0  0.00000000000E+00  0.00000000000E+00  0.45593999997E+02  0.45594000000E+02  0.51100000000E-03 0.  1.
         11   -1    0    0    0    0 -0.00000000000E+00 -0.00000000000E+00 -0.45593999997E+02  0.45594000000E+02  0.51100000000E-03 0. -1.
    9900012    2    1    2    0    0 -0.22361356366E+02 -0.12935075146E+02 -0.31397764933E+02  0.50528855021E+02  0.29999985323E+02 0.  0.
        -12    1    1    2    0    0  0.22361356366E+02  0.12935075146E+02  0.31397764933E+02  0.40659144979E+02  0.00000000000E+00 0.  1.
         11    1    3    3    0    0 -0.30516261229E+01 -0.72418011667E-02 -0.15955310387E+02  0.16244519207E+02  0.51100000000E-03 0.  1.
        -11    1    3    3    0    0 -0.10758739175E+02 -0.10409722434E+01  0.25307566089E+01  0.11101298173E+02  0.51100000000E-03 0. -1.
         12    1    3    3    0    0 -0.85509910688E+01 -0.11886861102E+02 -0.17973211155E+02  0.23183037642E+02  0.00000000000E+00 0. -1.
</event>
<event>
 7    1  0.2702714E-011  0.5052885E+02  0.7816164E-02  0.1300439E+00
        -11   -1    0    0    0    0  0.00000000000E+00  0.00000000000E+00  0.45593999997E+02  0.45594000000E+02  0.51100000000E-03 0.  1.
         11   -1    0    0    0    0 -0.00000000000E+00 -0.00000000000E+00 -0.45593999997E+02  0.45594000000E+02  0.51100000000E-03 0. -1.
    9900012    2    1    2    0    0  0.95768212960E+01  0.29049848617E+02 -0.26787255967E+02  0.50528852284E+02  0.29999977002E+02 0.  0.
        -12    1    1    2    0    0 -0.95768212960E+01 -0.29049848617E+02  0.26787255967E+02  0.40659147716E+02  0.00000000000E+00 0.  1.
         11    1    3    3    0    0  0.13983358627E+01  0.32674246951E+01 -0.91973002023E+00  0.36711457196E+01  0.51100000000E-03 0. -1.
        -11    1    3    3    0    0  0.13660281691E+02  0.11821844193E+02 -0.13490862489E+01  0.18115720520E+02  0.51100000000E-03 0.  1.
         12    1    3    3    0    0 -0.54817962573E+01  0.13960579728E+02 -0.24518439698E+02  0.28741986044E+02  0.00000000000E+00 0. -1.
</event>
<event>
 7    1  0.2702714E-011  0.5052885E+02  0.7816164E-02  0.1300439E+00
        -11   -1    0    0    0    0  0.00000000000E+00  0.00000000000E+00  0.45593999997E+02  0.45594000000E+02  0.51100000000E-03 0. -1.
         11   -1    0    0    0    0 -0.00000000000E+00 -0.00000000000E+00 -0.45593999997E+02  0.45594000000E+02  0.51100000000E-03 0.  1.
    9900012    2    1    2    0    0 -0.57047317647E+00 -0.40599395384E+02  0.21283719239E+01  0.50528852047E+02  0.29999976282E+02 0.  0.
        -12    1    1    2    0    0  0.57047317647E+00  0.40599395384E+02 -0.21283719239E+01  0.40659147953E+02  0.00000000000E+00 0.  1.
         11    1    3    3    0    0  0.29384511212E+01  0.27140940158E+00 -0.42335088226E+01  0.51604995172E+01  0.51100000000E-03 0. -1.
        -11    1    3    3    0    0 -0.59093715209E+01 -0.56022179918E+01  0.58290466269E+01  0.10014155134E+02  0.51100000000E-03 0.  1.
         12    1    3    3    0    0  0.24004472232E+01 -0.35268586794E+02  0.53283411954E+00  0.35354197396E+02  0.00000000000E+00 0. -1.
</event>
<event>
 7    1  0.2702714E-011  0.5052887E+02  0.7816164E-02  0.1300439E+00
        -11   -1    0    0    0    0  0.00000000000E+00  0.00000000000E+00  0.45593999997E+02  0.45594000000E+02  0.51100000000E-03 0.  1.
         11   -1    0    0    0    0 -0.00000000000E+00 -0.00000000000E+00 -0.45593999997E+02  0.45594000000E+02  0.51100000000E-03 0. -1.
    9900012    2    1    2    0    0  0.26046712543E+02  0.29105515689E+02 -0.11296137071E+02  0.50528868301E+02  0.30000025688E+02 0.  0.
        -12    1    1    2    0    0 -0.26046712543E+02 -0.29105515689E+02  0.11296137071E+02  0.40659131699E+02  0.00000000000E+00 0.  1.
         11    1    3    3    0    0  0.14525346609E+02  0.19335747909E+02  0.77324166441E-01  0.24183937244E+02  0.51100000000E-03 0. -1.
        -11    1    3    3    0    0  0.69163507831E+01  0.14831991187E+02 -0.10504546773E+02  0.19446577434E+02  0.51100000000E-03 0.  1.
         12    1    3    3    0    0  0.46050151504E+01 -0.50622234077E+01 -0.86891446442E+00  0.68983536232E+01  0.00000000000E+00 0. -1.
</event>
<event>
 7    1  0.2702714E-011  0.5052886E+02  0.7816164E-02  0.1300439E+00
        -11   -1    0    0    0    0  0.00000000000E+00  0.00000000000E+00  0.45593999997E+02  0.45594000000E+02  0.51100000000E-03 0. -1.
         11   -1    0    0    0    0 -0.00000000000E+00 -0.00000000000E+00 -0.45593999997E+02  0.45594000000E+02  0.51100000000E-03 0.  1.
    9900012    2    1    2    0    0  0.23356166370E+02 -0.29329931627E+02  0.15729284434E+02  0.50528858524E+02  0.29999995971E+02 0.  0.
        -12    1    1    2    0    0 -0.23356166370E+02  0.29329931627E+02 -0.15729284434E+02  0.40659141476E+02  0.00000000000E+00 0.  1.
         11    1    3    3    0    0  0.10208631425E+02 -0.55239294852E+01 -0.19468441915E+01  0.11769458573E+02  0.51100000000E-03 0. -1.
        -11    1    3    3    0    0  0.11777005619E+00 -0.16362901251E+02  0.11003734491E+01  0.16400281374E+02  0.51100000000E-03 0.  1.
         12    1    3    3    0    0  0.13029764889E+02 -0.74431008903E+01  0.16575755176E+02  0.22359118578E+02  0.00000000000E+00 0. -1.
</event>
<event>
 7    1  0.2702714E-011  0.5052886E+02  0.7816164E-02  0.1300439E+00
        -11   -1    0    0    0    0  0.00000000000E+00  0.00000000000E+00  0.45593999997E+02  0.45594000000E+02  0.51100000000E-03 0. -1.
         11   -1    0    0    0    0 -0.00000000000E+00 -0.00000000000E+00 -0.45593999997E+02  0.45594000000E+02  0.51100000000E-03 0.  1.
    9900012    2    1    2    0    0  0.19124040763E+02  0.52035545978E+01  0.35501551208E+02  0.50528855227E+02  0.29999985947E+02 0.  0.
        -12    1    1    2    0    0 -0.19124040763E+02 -0.52035545978E+01 -0.35501551208E+02  0.40659144773E+02  0.00000000000E+00 0.  1.
         11    1    3    3    0    0 -0.12072181587E+01  0.71458616188E+00 -0.16794094553E+01  0.21882471170E+01  0.51100000000E-03 0.  1.
        -11    1    3    3    0    0  0.10792028112E+02 -0.16711903332E+01  0.35146997633E+02  0.36804513185E+02  0.51100000000E-03 0. -1.
         12    1    3    3    0    0  0.95392308098E+01  0.61601587690E+01  0.20339630294E+01  0.11536094924E+02  0.00000000000E+00 0. -1.
</event>
<event>
 7    1  0.2702714E-011  0.5052887E+02  0.7816164E-02  0.1300439E+00
        -11   -1    0    0    0    0  0.00000000000E+00  0.00000000000E+00  0.45593999997E+02  0.45594000000E+02  0.51100000000E-03 0. -1.
         11   -1    0    0    0    0 -0.00000000000E+00 -0.00000000000E+00 -0.45593999997E+02  0.45594000000E+02  0.51100000000E-03 0.  1.
    9900012    2    1    2    0    0 -0.19688680565E+02  0.24260098368E+02  0.26018615083E+02  0.50528870077E+02  0.30000031086E+02 0.  0.
        -12    1    1    2    0    0  0.19688680565E+02 -0.24260098368E+02 -0.26018615083E+02  0.40659129923E+02  0.00000000000E+00 0.  1.
         11    1    3    3    0    0 -0.15910775219E+01  0.26872298614E+01  0.12743698158E+02  0.13120768842E+02  0.51100000000E-03 0. -1.
        -11    1    3    3    0    0  0.97869937899E+00  0.12532435039E+02  0.99626388209E+01  0.16039761626E+02  0.51100000000E-03 0.  1.
         12    1    3    3    0    0 -0.19076302422E+02  0.90404334685E+01  0.33122781041E+01  0.21368339609E+02  0.00000000000E+00 0. -1.
</event>
<event>
 7    1  0.2702714E-011  0.5052884E+02  0.7816164E-02  0.1300439E+00
        -11   -1    0    0    0    0  0.00000000000E+00  0.00000000000E+00  0.45593999997E+02  0.45594000000E+02  0.51100000000E-03 0.  1.
         11   -1    0    0    0    0 -0.00000000000E+00 -0.00000000000E+00 -0.45593999997E+02  0.45594000000E+02  0.51100000000E-03 0. -1.
    9900012    2    1    2    0    0  0.34863112369E+02  0.14450437530E+02 -0.15129958873E+02  0.50528838617E+02  0.29999935459E+02 0.  0.
        -12    1    1    2    0    0 -0.34863112369E+02 -0.14450437530E+02  0.15129958873E+02  0.40659161383E+02  0.00000000000E+00 0.  1.
         11    1    3    3    0    0  0.10787905700E+02  0.10574918188E+02  0.16419460731E+01  0.15195518788E+02  0.51100000000E-03 0.  1.
        -11    1    3    3    0    0  0.26200531972E+01  0.10481829885E+01  0.42902343763E+01  0.51351219653E+01  0.51100000000E-03 0. -1.
         12    1    3    3    0    0  0.21455153472E+02  0.28273363540E+01 -0.21062139322E+02  0.30198197863E+02  0.00000000000E+00 0. -1.
</event>
<event>
 7    1  0.2702714E-011  0.5052887E+02  0.7816164E-02  0.1300439E+00
        -11   -1    0    0    0    0  0.00000000000E+00  0.00000000000E+00  0.45593999997E+02  0.45594000000E+02  0.51100000000E-03 0.  1.
         11   -1    0    0    0    0 -0.00000000000E+00 -0.00000000000E+00 -0.45593999997E+02  0.45594000000E+02  0.51100000000E-03 0. -1.
    9900012    2    1    2    0    0  0.63190107601E+01  0.24869813689E+02 -0.31539301438E+02  0.50528867384E+02  0.30000022901E+02 0.  0.
        -12    1    1    2    0    0 -0.63190107601E+01 -0.24869813689E+02  0.31539301438E+02  0.40659132616E+02  0.00000000000E+00 0.  1.
         11    1    3    3    0    0  0.12415522385E+02  0.93579390101E+01 -0.21042482203E+02  0.26162994403E+02  0.51100000000E-03 0. -1.
        -11    1    3    3    0    0 -0.68004993874E+01  0.42953024650E+00 -0.42159122177E+01  0.80128150010E+01  0.51100000000E-03 0.  1.
         12    1    3    3    0    0  0.70398776218E+00  0.15082344432E+02 -0.62809070168E+01  0.16353057980E+02  0.00000000000E+00 0. -1.
</event>
<event>
 7    1  0.2702714E-011  0.5052886E+02  0.7816164E-02  0.1300439E+00
        -11   -1    0    0    0    0  0.00000000000E+00  0.00000000000E+00  0.45593999997E+02  0.45594000000E+02  0.51100000000E-03 0. -1.
         11   -1    0    0    0    0 -0.00000000000E+00 -0.00000000000E+00 -0.45593999997E+02  0.45594000000E+02  0.51100000000E-03 0.  1.
    9900012    2    1    2    0    0  0.38289674967E+02  0.12752760855E+01  0.13617652522E+02  0.50528855907E+02  0.29999988014E+02 0.  0.
        -12    1    1    2    0    0 -0.38289674967E+02 -0.12752760855E+01 -0.13617652522E+02  0.40659144093E+02  0.00000000000E+00 0.  1.
         11    1    3    3    0    0  0.18395358104E+02 -0.71356622746E+01  0.15797052608E+02  0.25275556319E+02  0.51100000000E-03 0. -1.
        -11    1    3    3    0    0  0.10215926192E+02 -0.25213960655E+01 -0.25006245232E+00  0.10525450944E+02  0.51100000000E-03 0.  1.
        -12    1    3    3    0    0  0.96783906714E+01  0.10932334426E+02 -0.19293376336E+01  0.14727848644E+02  0.00000000000E+00 0.  1.
</event>
<event>
 7    1  0.2702714E-011  0.5052886E+02  0.7816164E-02  0.1300439E+00
        -11   -1    0    0    0    0  0.00000000000E+00  0.00000000000E+00  0.45593999997E+02  0.45594000000E+02  0.51100000000E-03 0.  1.
         11   -1    0    0    0    0 -0.00000000000E+00 -0.00000000000E+00 -0.45593999997E+02  0.45594000000E+02  0.51100000000E-03 0. -1.
    9900012    2    1    2    0    0  0.24795130058E+02  0.51207946108E+01 -0.31814217081E+02  0.50528863013E+02  0.30000009614E+02 0.  0.
        -12    1    1    2    0    0 -0.24795130058E+02 -0.51207946108E+01  0.31814217081E+02  0.40659136987E+02  0.00000000000E+00 0.  1.
         11    1    3    3    0    0  0.43764521156E+01  0.93043116544E+01 -0.55192698968E+01  0.11669870991E+02  0.51100000000E-03 0. -1.
        -11    1    3    3    0    0  0.31315647569E+01 -0.15059533848E+00  0.31709418162E+01  0.44591758258E+01  0.51100000000E-03 0.  1.
         12    1    3    3    0    0  0.17287113186E+02 -0.40329217051E+01 -0.29465889000E+02  0.34399816197E+02  0.00000000000E+00 0. -1.
</event>
<event>
 7    1  0.2702714E-011  0.5052886E+02  0.7816164E-02  0.1300439E+00
        -11   -1    0    0    0    0  0.00000000000E+00  0.00000000000E+00  0.45593999997E+02  0.45594000000E+02  0.51100000000E-03 0.  1.
         11   -1    0    0    0    0 -0.00000000000E+00 -0.00000000000E+00 -0.45593999997E+02  0.45594000000E+02  0.51100000000E-03 0. -1.
    9900012    2    1    2    0    0 -0.33419383109E+02 -0.19740190956E+02 -0.12109298628E+02  0.50528863024E+02  0.30000009649E+02 0.  0.
        -12    1    1    2    0    0  0.33419383109E+02  0.19740190956E+02  0.12109298628E+02  0.40659136976E+02  0.00000000000E+00 0.  1.
         11    1    3    3    0    0 -0.15165091403E+02 -0.31808266298E+01 -0.67451838288E+00  0.15509759205E+02  0.51100000000E-03 0. -1.
        -11    1    3    3    0    0 -0.21261106857E+02 -0.19514386023E+02 -0.95192767797E+01  0.30388526738E+02  0.51100000000E-03 0.  1.
        -12    1    3    3    0    0  0.30068151509E+01  0.29550216966E+01 -0.19155034652E+01  0.46305770811E+01  0.00000000000E+00 0.  1.
</event>
<event>
 7    1  0.2702714E-011  0.5052887E+02  0.7816164E-02  0.1300439E+00
        -11   -1    0    0    0    0  0.00000000000E+00  0.00000000000E+00  0.45593999997E+02  0.45594000000E+02  0.51100000000E-03 0.  1.
         11   -1    0    0    0    0 -0.00000000000E+00 -0.00000000000E+00 -0.45593999997E+02  0.45594000000E+02  0.51100000000E-03 0. -1.
    9900012    2    1    2    0    0 -0.55468964242E+01  0.21802995619E+02 -0.33867776867E+02  0.50528868334E+02  0.30000025789E+02 0.  0.
        -12    1    1    2    0    0  0.55468964242E+01 -0.21802995619E+02  0.33867776867E+02  0.40659131666E+02  0.00000000000E+00 0.  1.
         11    1    3    3    0    0  0.55827406081E+00  0.14835040013E+02 -0.27614534802E+02  0.31352075126E+02  0.51100000000E-03 0. -1.
        -11    1    3    3    0    0  0.21409350198E+01 -0.26130858076E+01 -0.55737509121E+01  0.65175547323E+01  0.51100000000E-03 0.  1.
         12    1    3    3    0    0 -0.82461055048E+01  0.95810414137E+01 -0.67949115293E+00  0.12659238476E+02  0.00000000000E+00 0. -1.
</event>
<event>
 7    1  0.2702714E-011  0.5052887E+02  0.7816164E-02  0.1300439E+00
        -11   -1    0    0    0    0  0.00000000000E+00  0.00000000000E+00  0.45593999997E+02  0.45594000000E+02  0.51100000000E-03 0. -1.
         11   -1    0    0    0    0 -0.00000000000E+00 -0.00000000000E+00 -0.45593999997E+02  0.45594000000E+02  0.51100000000E-03 0.  1.
    9900012    2    1    2    0    0  0.26575984501E+02 -0.56896007431E+01  0.30240872925E+02  0.50528869364E+02  0.30000028919E+02 0.  0.
        -12    1    1    2    0    0 -0.26575984501E+02  0.56896007431E+01 -0.30240872925E+02  0.40659130636E+02  0.00000000000E+00 0.  1.
         11    1    3    3    0    0  0.14539088501E+02 -0.16378689233E+01  0.18035688503E+02  0.23223991240E+02  0.51100000000E-03 0. -1.
        -11    1    3    3    0    0  0.12770642615E+02  0.10900218884E+01 -0.12540405725E+01  0.12878279331E+02  0.51100000000E-03 0.  1.
        -12    1    3    3    0    0 -0.73374661510E+00 -0.51417537083E+01  0.13459224994E+02  0.14426598793E+02  0.00000000000E+00 0.  1.
</event>
<event>
 7    1  0.2702714E-011  0.5052886E+02  0.7816164E-02  0.1300439E+00
        -11   -1    0    0    0    0  0.00000000000E+00  0.00000000000E+00  0.45593999997E+02  0.45594000000E+02  0.51100000000E-03 0.  1.
         11   -1    0    0    0    0 -0.00000000000E+00 -0.00000000000E+00 -0.45593999997E+02  0.45594000000E+02  0.51100000000E-03 0. -1.
    9900012    2    1    2    0    0  0.13232262677E+02 -0.37190985197E+02  0.97418375623E+01  0.50528861365E+02  0.30000004605E+02 0.  0.
        -12    1    1    2    0    0 -0.13232262677E+02  0.37190985197E+02 -0.97418375623E+01  0.40659138635E+02  0.00000000000E+00 0.  1.
         11    1    3    3    0    0  0.21884858690E+01 -0.21116065569E+02  0.13581190365E+02  0.25201714774E+02  0.51100000000E-03 0. -1.
        -11    1    3    3    0    0  0.14593100558E+01 -0.61378504344E+01  0.57350544201E+01  0.85260567238E+01  0.51100000000E-03 0.  1.
         12    1    3    3    0    0  0.95844667524E+01 -0.99370691928E+01 -0.95744072228E+01  0.16801089868E+02  0.00000000000E+00 0. -1.
</event>
<event>
 7    1  0.2702714E-011  0.5052887E+02  0.7816164E-02  0.1300439E+00
        -11   -1    0    0    0    0  0.00000000000E+00  0.00000000000E+00  0.45593999997E+02  0.45594000000E+02  0.51100000000E-03 0.  1.
         11   -1    0    0    0    0 -0.00000000000E+00 -0.00000000000E+00 -0.45593999997E+02  0.45594000000E+02  0.51100000000E-03 0. -1.
    9900012    2    1    2    0    0 -0.33691764452E+02 -0.13446958176E+02 -0.18363266550E+02  0.50528865302E+02  0.30000016571E+02 0.  0.
        -12    1    1    2    0    0  0.33691764452E+02  0.13446958176E+02  0.18363266550E+02  0.40659134698E+02  0.00000000000E+00 0.  1.
         11    1    3    3    0    0  0.17313076160E+01  0.12878389917E+01 -0.39565663733E+00  0.21937410435E+01  0.51100000000E-03 0.  1.
        -11    1    3    3    0    0 -0.35740523344E+02 -0.16193140644E+02 -0.21326942278E+02  0.44659167927E+02  0.51100000000E-03 0. -1.
         12    1    3    3    0    0  0.31745127600E+00  0.14583434759E+01  0.33593323653E+01  0.36759563310E+01  0.00000000000E+00 0. -1.
</event>
<event>
 7    1  0.2702714E-011  0.5052886E+02  0.7816164E-02  0.1300439E+00
        -11   -1    0    0    0    0  0.00000000000E+00  0.00000000000E+00  0.45593999997E+02  0.45594000000E+02  0.51100000000E-03 0.  1.
         11   -1    0    0    0    0 -0.00000000000E+00 -0.00000000000E+00 -0.45593999997E+02  0.45594000000E+02  0.51100000000E-03 0. -1.
    9900012    2    1    2    0    0  0.20011100303E+02  0.33650454846E+02 -0.10971266813E+02  0.50528856599E+02  0.29999990117E+02 0.  0.
        -12    1    1    2    0    0 -0.20011100303E+02 -0.33650454846E+02  0.10971266813E+02  0.40659143401E+02  0.00000000000E+00 0.  1.
         11    1    3    3    0    0  0.87027092936E+01  0.20040764847E+02 -0.68103669624E+01  0.22885595975E+02  0.51100000000E-03 0. -1.
        -11    1    3    3    0    0 -0.47491150663E+01 -0.22220942903E+00 -0.43570721777E+01  0.64488409165E+01  0.51100000000E-03 0.  1.
         12    1    3    3    0    0  0.16057506076E+02  0.13831899428E+02  0.19617232673E+00  0.21194419707E+02  0.00000000000E+00 0. -1.
</event>
<event>
 7    1  0.2702714E-011  0.5052886E+02  0.7816164E-02  0.1300439E+00
        -11   -1    0    0    0    0  0.00000000000E+00  0.00000000000E+00  0.45593999997E+02  0.45594000000E+02  0.51100000000E-03 0.  1.
         11   -1    0    0    0    0 -0.00000000000E+00 -0.00000000000E+00 -0.45593999997E+02  0.45594000000E+02  0.51100000000E-03 0. -1.
    9900012    2    1    2    0    0  0.21289683514E+02 -0.32699839303E+02 -0.11429592247E+02  0.50528859656E+02  0.29999999410E+02 0.  0.
        -12    1    1    2    0    0 -0.21289683514E+02  0.32699839303E+02  0.11429592247E+02  0.40659140344E+02  0.00000000000E+00 0.  1.
         11    1    3    3    0    0  0.95481811358E+01 -0.15087204688E+02  0.32811388357E+01  0.18153715340E+02  0.51100000000E-03 0. -1.
        -11    1    3    3    0    0  0.86341247091E+01 -0.96777573573E+00  0.16345207026E+01  0.88406084381E+01  0.51100000000E-03 0.  1.
        -12    1    3    3    0    0  0.31073776694E+01 -0.16644858879E+02 -0.16345251786E+02  0.23534535878E+02  0.00000000000E+00 0.  1.
</event>
<event>
 7    1  0.4472950E-011  0.5052885E+02  0.7816164E-02  0.1300439E+00
        -11   -1    0    0    0    0  0.00000000000E+00  0.00000000000E+00  0.45593999997E+02  0.45594000000E+02  0.51100000000E-03 0. -1.
         11   -1    0    0    0    0 -0.00000000000E+00 -0.00000000000E+00 -0.45593999997E+02  0.45594000000E+02  0.51100000000E-03 0.  1.
    9900012    2    1    2    0    0  0.36384183455E+02  0.20503401186E+01  0.18032014013E+02  0.50528853063E+02  0.29999979370E+02 0.  0.
        -12    1    1    2    0    0 -0.36384183455E+02 -0.20503401186E+01 -0.18032014013E+02  0.40659146937E+02  0.00000000000E+00 0.  1.
         11    1    3    3    0    0  0.21950528697E+02  0.45426766655E+01  0.11026257584E+02  0.24980792180E+02  0.51100000000E-03 0. -1.
        -11    1    3    3    0    0  0.16465642245E+02  0.49026315123E+00 -0.12677672005E+01  0.16521651444E+02  0.51100000000E-03 0.  1.
        -12    1    3    3    0    0 -0.20319874872E+01 -0.29825996981E+01  0.82735236299E+01  0.90264094390E+01  0.00000000000E+00 0.  1.
</event>
<event>
 7    1  0.2702714E-011  0.5052887E+02  0.7816164E-02  0.1300439E+00
        -11   -1    0    0    0    0  0.00000000000E+00  0.00000000000E+00  0.45593999997E+02  0.45594000000E+02  0.51100000000E-03 0. -1.
         11   -1    0    0    0    0 -0.00000000000E+00 -0.00000000000E+00 -0.45593999997E+02  0.45594000000E+02  0.51100000000E-03 0.  1.
    9900012    2    1    2    0    0 -0.26442394626E+02  0.30629078995E+02  0.39779875768E+01  0.50528866969E+02  0.30000021640E+02 0.  0.
        -12    1    1    2    0    0  0.26442394626E+02 -0.30629078995E+02 -0.39779875768E+01  0.40659133031E+02  0.00000000000E+00 0.  1.
         11    1    3    3    0    0 -0.18799662116E+02  0.21148841253E+02  0.65174780708E+01  0.29037532655E+02  0.51100000000E-03 0. -1.
        -11    1    3    3    0    0 -0.52353276779E+01  0.33338117786E+01  0.73381581993E+01  0.96110105030E+01  0.51100000000E-03 0.  1.
        -12    1    3    3    0    0 -0.24074048321E+01  0.61464259634E+01 -0.98776486933E+01  0.11880323811E+02  0.00000000000E+00 0.  1.
</event>
<event>
 7    1  0.2702714E-011  0.5052885E+02  0.7816164E-02  0.1300439E+00
        -11   -1    0    0    0    0  0.00000000000E+00  0.00000000000E+00  0.45593999997E+02  0.45594000000E+02  0.51100000000E-03 0. -1.
         11   -1    0    0    0    0 -0.00000000000E+00 -0.00000000000E+00 -0.45593999997E+02  0.45594000000E+02  0.51100000000E-03 0.  1.
    9900012    2    1    2    0    0  0.28489008500E+02  0.25948187834E+02  0.12970507277E+02  0.50528854458E+02  0.29999983611E+02 0.  0.
        -12    1    1    2    0    0 -0.28489008500E+02 -0.25948187834E+02 -0.12970507277E+02  0.40659145542E+02  0.00000000000E+00 0.  1.
         11    1    3    3    0    0  0.12090914901E+02  0.35748199513E+01  0.11349108321E+02  0.16963838622E+02  0.51100000000E-03 0. -1.
        -11    1    3    3    0    0  0.36083787850E+01  0.38137902728E+00  0.67028034005E+01  0.76219040341E+01  0.51100000000E-03 0.  1.
        -12    1    3    3    0    0  0.12789714813E+02  0.21991988856E+02 -0.50814044450E+01  0.25943111802E+02  0.00000000000E+00 0.  1.
</event>
<event>
 7    1  0.2702714E-011  0.5052886E+02  0.7816164E-02  0.1300439E+00
        -11   -1    0    0    0    0  0.00000000000E+00  0.00000000000E+00  0.45593999997E+02  0.45594000000E+02  0.51100000000E-03 0. -1.
         11   -1    0    0    0    0 -0.00000000000E+00 -0.00000000000E+00 -0.45593999997E+02  0.45594000000E+02  0.51100000000E-03 0.  1.
    9900012    2    1    2    0    0 -0.40341269992E+02 -0.11632068748E+00  0.50728652003E+01  0.50528861342E+02  0.30000004536E+02 0.  0.
        -12    1    1    2    0    0  0.40341269992E+02  0.11632068748E+00 -0.50728652003E+01  0.40659138658E+02  0.00000000000E+00 0.  1.
         11    1    3    3    0    0 -0.13532816631E+02 -0.40003549558E+01 -0.65078625987E+01  0.15540020644E+02  0.51100000000E-03 0. -1.
        -11    1    3    3    0    0  0.13552036941E+01 -0.36129657004E+01  0.10351737600E+01  0.39952075264E+01  0.51100000000E-03 0.  1.
        -12    1    3    3    0    0 -0.28163657055E+02  0.74969999688E+01  0.10545554039E+02  0.30993633172E+02  0.00000000000E+00 0.  1.
</event>
<event>
 7    1  0.2702714E-011  0.5052885E+02  0.7816164E-02  0.1300439E+00
        -11   -1    0    0    0    0  0.00000000000E+00  0.00000000000E+00  0.45593999997E+02  0.45594000000E+02  0.51100000000E-03 0.  1.
         11   -1    0    0    0    0 -0.00000000000E+00 -0.00000000000E+00 -0.45593999997E+02  0.45594000000E+02  0.51100000000E-03 0. -1.
    9900012    2    1    2    0    0  0.60157663263E+01  0.26703888688E+02 -0.30064590411E+02  0.50528847129E+02  0.29999961334E+02 0.  0.
        -12    1    1    2    0    0 -0.60157663263E+01 -0.26703888688E+02  0.30064590411E+02  0.40659152871E+02  0.00000000000E+00 0.  1.
         11    1    3    3    0    0  0.73777151278E+01  0.14335249369E+02 -0.82984037124E+01  0.18132665535E+02  0.51100000000E-03 0. -1.
        -11    1    3    3    0    0  0.53001868420E+01 -0.19195011841E+01 -0.14643383509E+00  0.56389634229E+01  0.51100000000E-03 0.  1.
         12    1    3    3    0    0 -0.66621356434E+01  0.14288140504E+02 -0.21619752863E+02  0.26757218171E+02  0.00000000000E+00 0. -1.
</event>
<event>
 7    1  0.2702714E-011  0.5052886E+02  0.7816164E-02  0.1300439E+00
        -11   -1    0    0    0    0  0.00000000000E+00  0.00000000000E+00  0.45593999997E+02  0.45594000000E+02  0.51100000000E-03 0.  1.
         11   -1    0    0    0    0 -0.00000000000E+00 -0.00000000000E+00 -0.45593999997E+02  0.45594000000E+02  0.51100000000E-03 0. -1.
    9900012    2    1    2    0    0  0.27132493925E+02  0.28571372881E+02 -0.10033437353E+02  0.50528862774E+02  0.30000008887E+02 0.  0.
        -12    1    1    2    0    0 -0.27132493925E+02 -0.28571372881E+02  0.10033437353E+02  0.40659137226E+02  0.00000000000E+00 0.  1.
         11    1    3    3    0    0  0.40586051959E+01 -0.12769702991E+01  0.67597749979E+00  0.43081173524E+01  0.51100000000E-03 0. -1.
        -11    1    3    3    0    0  0.20005183977E+02  0.65433475924E+01 -0.19605024885E+01  0.21139213655E+02  0.51100000000E-03 0.  1.
         12    1    3    3    0    0  0.30687047516E+01  0.23304995588E+02 -0.87489123641E+01  0.25081531766E+02  0.00000000000E+00 0. -1.
</event>
<event>
 7    1  0.2702714E-011  0.5052886E+02  0.7816164E-02  0.1300439E+00
        -11   -1    0    0    0    0  0.00000000000E+00  0.00000000000E+00  0.45593999997E+02  0.45594000000E+02  0.51100000000E-03 0.  1.
         11   -1    0    0    0    0 -0.00000000000E+00 -0.00000000000E+00 -0.45593999997E+02  0.45594000000E+02  0.51100000000E-03 0. -1.
    9900012    2    1    2    0    0  0.40623641789E+02  0.14648748068E+01 -0.86006540938E+00  0.50528857819E+02  0.29999993826E+02 0.  0.
        -12    1    1    2    0    0 -0.40623641789E+02 -0.14648748068E+01  0.86006540938E+00  0.40659142181E+02  0.00000000000E+00 0.  1.
         11    1    3    3    0    0  0.13739326991E+02  0.65863229392E+01 -0.37254071256E+01  0.15685261061E+02  0.51100000000E-03 0. -1.
        -11    1    3    3    0    0  0.79115367563E+01 -0.31525272845E+01 -0.89911380623E+01  0.12384320976E+02  0.51100000000E-03 0.  1.
         12    1    3    3    0    0  0.18972778041E+02 -0.19689208479E+01  0.11856479779E+02  0.22459275782E+02  0.00000000000E+00 0. -1.
</event>
<event>
 7    1  0.2702714E-011  0.5052886E+02  0.7816164E-02  0.1300439E+00
        -11   -1    0    0    0    0  0.00000000000E+00  0.00000000000E+00  0.45593999997E+02  0.45594000000E+02  0.51100000000E-03 0.  1.
         11   -1    0    0    0    0 -0.00000000000E+00 -0.00000000000E+00 -0.45593999997E+02  0.45594000000E+02  0.51100000000E-03 0. -1.
    9900012    2    1    2    0    0  0.28535594150E+02 -0.26721290197E+02 -0.11173984258E+02  0.50528863173E+02  0.30000010102E+02 0.  0.
        -12    1    1    2    0    0 -0.28535594150E+02  0.26721290197E+02  0.11173984258E+02  0.40659136827E+02  0.00000000000E+00 0.  1.
         11    1    3    3    0    0  0.16390731924E+02 -0.88661737661E+00 -0.36470243729E+01  0.16814962694E+02  0.51100000000E-03 0. -1.
        -11    1    3    3    0    0 -0.32015303262E+01 -0.22199986155E+01 -0.35510742085E+01  0.52714626602E+01  0.51100000000E-03 0.  1.
         12    1    3    3    0    0  0.15346392552E+02 -0.23614674205E+02 -0.39758856761E+01  0.28442437819E+02  0.00000000000E+00 0. -1.
</event>
<event>
 7    1  0.2702714E-011  0.5052889E+02  0.7816164E-02  0.1300439E+00
        -11   -1    0    0    0    0  0.00000000000E+00  0.00000000000E+00  0.45593999997E+02  0.45594000000E+02  0.51100000000E-03 0.  1.
         11   -1    0    0    0    0 -0.00000000000E+00 -0.00000000000E+00 -0.45593999997E+02  0.45594000000E+02  0.51100000000E-03 0. -1.
    9900012    2    1    2    0    0  0.86718445165E+01 -0.33709523820E+02 -0.21014997692E+02  0.50528892638E+02  0.30000099663E+02 0.  0.
        -12    1    1    2    0    0 -0.86718445165E+01  0.33709523820E+02  0.21014997692E+02  0.40659107362E+02  0.00000000000E+00 0.  1.
         11    1    3    3    0    0  0.64628126307E+01 -0.18583887726E+02 -0.86055496284E+01  0.21475202322E+02  0.51100000000E-03 0. -1.
        -11    1    3    3    0    0  0.91840231138E+01 -0.50415123401E+01  0.14187005140E+01  0.10572409311E+02  0.51100000000E-03 0.  1.
         12    1    3    3    0    0 -0.69749912280E+01 -0.10084123754E+02 -0.13828148577E+02  0.18481281005E+02  0.00000000000E+00 0. -1.
</event>
<event>
 7    1  0.2702714E-011  0.5052886E+02  0.7816164E-02  0.1300439E+00
        -11   -1    0    0    0    0  0.00000000000E+00  0.00000000000E+00  0.45593999997E+02  0.45594000000E+02  0.51100000000E-03 0. -1.
         11   -1    0    0    0    0 -0.00000000000E+00 -0.00000000000E+00 -0.45593999997E+02  0.45594000000E+02  0.51100000000E-03 0.  1.
    9900012    2    1    2    0    0  0.39800154391E+02  0.56576287522E+01 -0.60913738712E+01  0.50528857261E+02  0.29999992129E+02 0.  0.
        -12    1    1    2    0    0 -0.39800154391E+02 -0.56576287522E+01  0.60913738712E+01  0.40659142739E+02  0.00000000000E+00 0.  1.
         11    1    3    3    0    0  0.10762479313E+02 -0.35790182350E+01 -0.66921363210E+00  0.11361697920E+02  0.51100000000E-03 0. -1.
        -11    1    3    3    0    0  0.26628263539E+02  0.96231795836E+01  0.47473184012E+01  0.28709006194E+02  0.51100000000E-03 0.  1.
        -12    1    3    3    0    0  0.24094115396E+01 -0.38653259639E+00 -0.10169478640E+02  0.10458153146E+02  0.00000000000E+00 0.  1.
</event>
<event>
 7    1  0.2702714E-011  0.5052886E+02  0.7816164E-02  0.1300439E+00
        -11   -1    0    0    0    0  0.00000000000E+00  0.00000000000E+00  0.45593999997E+02  0.45594000000E+02  0.51100000000E-03 0.  1.
         11   -1    0    0    0    0 -0.00000000000E+00 -0.00000000000E+00 -0.45593999997E+02  0.45594000000E+02  0.51100000000E-03 0. -1.
    9900012    2    1    2    0    0 -0.17259657887E+02  0.19355992255E+02 -0.31314779517E+02  0.50528860280E+02  0.30000001309E+02 0.  0.
        -12    1    1    2    0    0  0.17259657887E+02 -0.19355992255E+02  0.31314779517E+02  0.40659139720E+02  0.00000000000E+00 0.  1.
         11    1    3    3    0    0 -0.18142265597E+02  0.66942550585E+01 -0.32294818847E+02  0.37641867334E+02  0.51100000000E-03 0.  1.
        -11    1    3    3    0    0 -0.61423381296E+00  0.34566923579E+01  0.11278255254E-01  0.35108592530E+01  0.51100000000E-03 0. -1.
        -12    1    3    3    0    0  0.14968415231E+01  0.92050448382E+01  0.96876107452E+00  0.93761336935E+01  0.00000000000E+00 0.  1.
</event>
<event>
 7    1  0.2702714E-011  0.5052887E+02  0.7816164E-02  0.1300439E+00
        -11   -1    0    0    0    0  0.00000000000E+00  0.00000000000E+00  0.45593999997E+02  0.45594000000E+02  0.51100000000E-03 0.  1.
         11   -1    0    0    0    0 -0.00000000000E+00 -0.00000000000E+00 -0.45593999997E+02  0.45594000000E+02  0.51100000000E-03 0. -1.
    9900012    2    1    2    0    0  0.81115225100E+01 -0.28222863681E+02 -0.28121848536E+02  0.50528865763E+02  0.30000017974E+02 0.  0.
        -12    1    1    2    0    0 -0.81115225100E+01  0.28222863681E+02  0.28121848536E+02  0.40659134237E+02  0.00000000000E+00 0.  1.
         11    1    3    3    0    0 -0.20088872576E+01 -0.50870579093E+01 -0.67692801620E+01  0.87026973037E+01  0.51100000000E-03 0. -1.
        -11    1    3    3    0    0 -0.69552392860E+01 -0.11565108319E+02 -0.15145570835E+02  0.20285842357E+02  0.51100000000E-03 0.  1.
         12    1    3    3    0    0  0.17075649054E+02 -0.11570697453E+02 -0.62069975392E+01  0.21540326102E+02  0.00000000000E+00 0. -1.
</event>
<event>
 7    1  0.2702714E-011  0.5052894E+02  0.7816164E-02  0.1300439E+00
        -11   -1    0    0    0    0  0.00000000000E+00  0.00000000000E+00  0.45593999997E+02  0.45594000000E+02  0.51100000000E-03 0.  1.
         11   -1    0    0    0    0 -0.00000000000E+00 -0.00000000000E+00 -0.45593999997E+02  0.45594000000E+02  0.51100000000E-03 0. -1.
    9900012    2    1    2    0    0  0.16580557971E+02  0.13762537851E+02 -0.34479516789E+02  0.50528936696E+02  0.30000233580E+02 0.  0.
        -12    1    1    2    0    0 -0.16580557971E+02 -0.13762537851E+02  0.34479516789E+02  0.40659063304E+02  0.00000000000E+00 0.  1.
         11    1    3    3    0    0  0.50221660048E+01  0.10800454019E+02 -0.13665547211E+02  0.18127855340E+02  0.51100000000E-03 0. -1.
        -11    1    3    3    0    0  0.41082299796E+01  0.11389869325E+02 -0.52490579225E+01  0.13196942302E+02  0.51100000000E-03 0.  1.
        -12    1    3    3    0    0  0.74501619864E+01 -0.84277854923E+01 -0.15564911656E+02  0.19204139054E+02  0.00000000000E+00 0.  1.
</event>
<event>
 7    1  0.2702714E-011  0.5052888E+02  0.7816164E-02  0.1300439E+00
        -11   -1    0    0    0    0  0.00000000000E+00  0.00000000000E+00  0.45593999997E+02  0.45594000000E+02  0.51100000000E-03 0.  1.
         11   -1    0    0    0    0 -0.00000000000E+00 -0.00000000000E+00 -0.45593999997E+02  0.45594000000E+02  0.51100000000E-03 0. -1.
    9900012    2    1    2    0    0  0.34267336062E+02  0.34136682076E+01 -0.21616217714E+02  0.50528876550E+02  0.30000050763E+02 0.  0.
        -12    1    1    2    0    0 -0.34267336062E+02 -0.34136682076E+01  0.21616217714E+02  0.40659123450E+02  0.00000000000E+00 0.  1.
         11    1    3    3    0    0  0.18091853530E+01  0.66147160331E+01 -0.56682952115E+01  0.88970326911E+01  0.51100000000E-03 0. -1.
        -11    1    3    3    0    0 -0.15393284006E+01 -0.41697581565E+01 -0.18248144686E+01  0.48048270640E+01  0.51100000000E-03 0.  1.
         12    1    3    3    0    0  0.33997479109E+02  0.96871033098E+00 -0.14123108034E+02  0.36827016795E+02  0.00000000000E+00 0. -1.
</event>
<event>
 7    1  0.2702714E-011  0.5052886E+02  0.7816164E-02  0.1300439E+00
        -11   -1    0    0    0    0  0.00000000000E+00  0.00000000000E+00  0.45593999997E+02  0.45594000000E+02  0.51100000000E-03 0. -1.
         11   -1    0    0    0    0 -0.00000000000E+00 -0.00000000000E+00 -0.45593999997E+02  0.45594000000E+02  0.51100000000E-03 0.  1.
    9900012    2    1    2    0    0 -0.72482063717E+01  0.39829983431E+02 -0.37685098796E+01  0.50528859054E+02  0.29999997582E+02 0.  0.
        -12    1    1    2    0    0  0.72482063717E+01 -0.39829983431E+02  0.37685098796E+01  0.40659140946E+02  0.00000000000E+00 0.  1.
         11    1    3    3    0    0  0.24352691730E+01  0.30981700320E+02 -0.77036737787E+01  0.32017852530E+02  0.51100000000E-03 0. -1.
        -11    1    3    3    0    0  0.22903681914E+01 -0.58878060689E+00 -0.87957060878E+00  0.25231119222E+01  0.51100000000E-03 0.  1.
        -12    1    3    3    0    0 -0.11973843736E+02  0.94370637178E+01  0.48147345080E+01  0.15987894602E+02  0.00000000000E+00 0.  1.
</event>
<event>
 7    1  0.2702714E-011  0.5052886E+02  0.7816164E-02  0.1300439E+00
        -11   -1    0    0    0    0  0.00000000000E+00  0.00000000000E+00  0.45593999997E+02  0.45594000000E+02  0.51100000000E-03 0.  1.
         11   -1    0    0    0    0 -0.00000000000E+00 -0.00000000000E+00 -0.45593999997E+02  0.45594000000E+02  0.51100000000E-03 0. -1.
    9900012    2    1    2    0    0 -0.20409483852E+02  0.34336294656E+02 -0.75919325810E+01  0.50528860779E+02  0.30000002825E+02 0.  0.
        -12    1    1    2    0    0  0.20409483852E+02 -0.34336294656E+02  0.75919325810E+01  0.40659139221E+02  0.00000000000E+00 0.  1.
         11    1    3    3    0    0 -0.18840861420E+02  0.30084781078E+02 -0.56395098271E+01  0.35942679128E+02  0.51100000000E-03 0. -1.
        -11    1    3    3    0    0  0.81540379655E+00  0.68807417857E+01  0.37431328265E+01  0.78753117075E+01  0.51100000000E-03 0.  1.
        -12    1    3    3    0    0 -0.23840262294E+01 -0.26292282079E+01 -0.56955555804E+01  0.67108699436E+01  0.00000000000E+00 0.  1.
</event>
<event>
 7    1  0.2702714E-011  0.5052886E+02  0.7816164E-02  0.1300439E+00
        -11   -1    0    0    0    0  0.00000000000E+00  0.00000000000E+00  0.45593999997E+02  0.45594000000E+02  0.51100000000E-03 0.  1.
         11   -1    0    0    0    0 -0.00000000000E+00 -0.00000000000E+00 -0.45593999997E+02  0.45594000000E+02  0.51100000000E-03 0. -1.
    9900012    2    1    2    0    0  0.64175973768E+01 -0.32627260153E+02 -0.23397477937E+02  0.50528860375E+02  0.30000001597E+02 0.  0.
        -12    1    1    2    0    0 -0.64175973768E+01  0.32627260153E+02  0.23397477937E+02  0.40659139625E+02  0.00000000000E+00 0.  1.
         11    1    3    3    0    0 -0.17651576977E+01 -0.12922997604E+02 -0.23811613669E+02  0.27149817578E+02  0.51100000000E-03 0. -1.
        -11    1    3    3    0    0  0.50368470926E-01  0.26234842625E+00  0.17577795149E+01  0.17779630940E+01  0.51100000000E-03 0.  1.
        -12    1    3    3    0    0  0.81323866036E+01 -0.19966610976E+02 -0.13436437833E+01  0.21601079703E+02  0.00000000000E+00 0.  1.
</event>
<event>
 7    1  0.2702714E-011  0.5052888E+02  0.7816164E-02  0.1300439E+00
        -11   -1    0    0    0    0  0.00000000000E+00  0.00000000000E+00  0.45593999997E+02  0.45594000000E+02  0.51100000000E-03 0. -1.
         11   -1    0    0    0    0 -0.00000000000E+00 -0.00000000000E+00 -0.45593999997E+02  0.45594000000E+02  0.51100000000E-03 0.  1.
    9900012    2    1    2    0    0  0.31917406240E+02  0.25081635989E+02 -0.23141016876E+01  0.50528876158E+02  0.30000049570E+02 0.  0.
        -12    1    1    2    0    0 -0.31917406240E+02 -0.25081635989E+02  0.23141016876E+01  0.40659123842E+02  0.00000000000E+00 0.  1.
         11    1    3    3    0    0  0.11729963222E+02  0.67600975957E+01 -0.72136554090E+01  0.15340397039E+02  0.51100000000E-03 0. -1.
        -11    1    3    3    0    0  0.18983801173E+02  0.22994244609E+02  0.28773185719E+01  0.29956617875E+02  0.51100000000E-03 0.  1.
        -12    1    3    3    0    0  0.12036418455E+01 -0.46727062162E+01  0.20222351495E+01  0.52318612439E+01  0.00000000000E+00 0.  1.
</event>
<event>
 7    1  0.3338827E-011  0.5052885E+02  0.7816164E-02  0.1300439E+00
        -11   -1    0    0    0    0  0.00000000000E+00  0.00000000000E+00  0.45593999997E+02  0.45594000000E+02  0.51100000000E-03 0.  1.
         11   -1    0    0    0    0 -0.00000000000E+00 -0.00000000000E+00 -0.45593999997E+02  0.45594000000E+02  0.51100000000E-03 0. -1.
    9900012    2    1    2    0    0  0.16433917117E+02  0.31739668646E+02 -0.19382621366E+02  0.50528853322E+02  0.29999980157E+02 0.  0.
        -12    1    1    2    0    0 -0.16433917117E+02 -0.31739668646E+02  0.19382621366E+02  0.40659146678E+02  0.00000000000E+00 0.  1.
         11    1    3    3    0    0  0.98218044158E+01  0.14531702513E+02 -0.19160529412E+02  0.25976221964E+02  0.51100000000E-03 0. -1.
        -11    1    3    3    0    0  0.73477599244E+01  0.11195930627E+01 -0.33397976432E+01  0.81484546444E+01  0.51100000000E-03 0.  1.
        -12    1    3    3    0    0 -0.73564722297E+00  0.16088373071E+02  0.31177056893E+01  0.16404176714E+02  0.00000000000E+00 0.  1.
</event>
<event>
 7    1  0.2702714E-011  0.5052887E+02  0.7816164E-02  0.1300439E+00
        -11   -1    0    0    0    0  0.00000000000E+00  0.00000000000E+00  0.45593999997E+02  0.45594000000E+02  0.51100000000E-03 0.  1.
         11   -1    0    0    0    0 -0.00000000000E+00 -0.00000000000E+00 -0.45593999997E+02  0.45594000000E+02  0.51100000000E-03 0. -1.
    9900012    2    1    2    0    0  0.72478271405E+00 -0.17194568243E+02 -0.36837290442E+02  0.50528874896E+02  0.30000045735E+02 0.  0.
        -12    1    1    2    0    0 -0.72478271405E+00  0.17194568243E+02  0.36837290442E+02  0.40659125104E+02  0.00000000000E+00 0.  1.
         11    1    3    3    0    0  0.65618960455E+01 -0.92088992242E+01 -0.20998761693E+02  0.23849744182E+02  0.51100000000E-03 0. -1.
        -11    1    3    3    0    0 -0.51331156338E+01 -0.13375747425E+02 -0.61946216639E+01  0.15608742201E+02  0.51100000000E-03 0.  1.
        -12    1    3    3    0    0 -0.70399769766E+00  0.53900784054E+01 -0.96439070856E+01  0.11070388514E+02  0.00000000000E+00 0.  1.
</event>
<event>
 7    1  0.2702714E-011  0.5052888E+02  0.7816164E-02  0.1300439E+00
        -11   -1    0    0    0    0  0.00000000000E+00  0.00000000000E+00  0.45593999997E+02  0.45594000000E+02  0.51100000000E-03 0. -1.
         11   -1    0    0    0    0 -0.00000000000E+00 -0.00000000000E+00 -0.45593999997E+02  0.45594000000E+02  0.51100000000E-03 0.  1.
    9900012    2    1    2    0    0  0.30495127687E+02  0.21099264062E+02  0.16674309675E+02  0.50528876058E+02  0.30000049265E+02 0.  0.
        -12    1    1    2    0    0 -0.30495127687E+02 -0.21099264062E+02 -0.16674309675E+02  0.40659123942E+02  0.00000000000E+00 0.  1.
         11    1    3    3    0    0  0.50451294013E+01  0.24780384619E+01 -0.37415205992E+01  0.67522575447E+01  0.51100000000E-03 0. -1.
        -11    1    3    3    0    0  0.52111722303E+01  0.21851867798E+00 -0.44145533623E+01  0.68331799388E+01  0.51100000000E-03 0.  1.
         12    1    3    3    0    0  0.20238826055E+02  0.18402706922E+02  0.24830383636E+02  0.36943438574E+02  0.00000000000E+00 0. -1.
</event>
<event>
 7    1  0.2702714E-011  0.5052885E+02  0.7816164E-02  0.1300439E+00
        -11   -1    0    0    0    0  0.00000000000E+00  0.00000000000E+00  0.45593999997E+02  0.45594000000E+02  0.51100000000E-03 0.  1.
         11   -1    0    0    0    0 -0.00000000000E+00 -0.00000000000E+00 -0.45593999997E+02  0.45594000000E+02  0.51100000000E-03 0. -1.
    9900012    2    1    2    0    0  0.15670065224E+02  0.35440100884E+02 -0.12313182861E+02  0.50528853834E+02  0.29999981714E+02 0.  0.
        -12    1    1    2    0    0 -0.15670065224E+02 -0.35440100884E+02  0.12313182861E+02  0.40659146166E+02  0.00000000000E+00 0.  1.
         11    1    3    3    0    0  0.46670728470E+01  0.25216284286E+01 -0.54445506363E+01  0.76015334495E+01  0.51100000000E-03 0. -1.
        -11    1    3    3    0    0 -0.20607978177E+01 -0.30807301684E+01  0.98267236602E+00  0.38345053470E+01  0.51100000000E-03 0.  1.
        -12    1    3    3    0    0  0.13063790195E+02  0.35999202624E+02 -0.78513045903E+01  0.39092815038E+02  0.00000000000E+00 0.  1.
</event>
<event>
 7    1  0.2702714E-011  0.5052885E+02  0.7816164E-02  0.1300439E+00
        -11   -1    0    0    0    0  0.00000000000E+00  0.00000000000E+00  0.45593999997E+02  0.45594000000E+02  0.51100000000E-03 0.  1.
         11   -1    0    0    0    0 -0.00000000000E+00 -0.00000000000E+00 -0.45593999997E+02  0.45594000000E+02  0.51100000000E-03 0. -1.
    9900012    2    1    2    0    0 -0.93927902839E+01 -0.38981432732E+02 -0.67371893280E+01  0.50528851863E+02  0.29999975724E+02 0.  0.
        -12    1    1    2    0    0  0.93927902839E+01  0.38981432732E+02  0.67371893280E+01  0.40659148137E+02  0.00000000000E+00 0.  1.
         11    1    3    3    0    0  0.11516386537E+01 -0.65041784699E+01  0.70110920735E-01  0.66057191100E+01  0.51100000000E-03 0. -1.
        -11    1    3    3    0    0 -0.18078711253E+00 -0.24161720036E+02  0.65993881643E+01  0.25047421494E+02  0.51100000000E-03 0.  1.
        -12    1    3    3    0    0 -0.10363641825E+02 -0.83155342256E+01 -0.13406688413E+02  0.18875711259E+02  0.00000000000E+00 0.  1.
</event>
<event>
 7    1  0.2702714E-011  0.5052886E+02  0.7816164E-02  0.1300439E+00
        -11   -1    0    0    0    0  0.00000000000E+00  0.00000000000E+00  0.45593999997E+02  0.45594000000E+02  0.51100000000E-03 0. -1.
         11   -1    0    0    0    0 -0.00000000000E+00 -0.00000000000E+00 -0.45593999997E+02  0.45594000000E+02  0.51100000000E-03 0.  1.
    9900012    2    1    2    0    0  0.25112075830E+02 -0.85268024816E+01  0.30819517063E+02  0.50528863941E+02  0.30000012435E+02 0.  0.
        -12    1    1    2    0    0 -0.25112075830E+02  0.85268024816E+01 -0.30819517063E+02  0.40659136059E+02  0.00000000000E+00 0.  1.
         11    1    3    3    0    0  0.19646951706E+02  0.69127763200E+01  0.13627766128E+02  0.24889861344E+02  0.51100000000E-03 0. -1.
        -11    1    3    3    0    0 -0.30677998996E+00 -0.58869468652E+01  0.11914945051E+02  0.13293463551E+02  0.51100000000E-03 0.  1.
        -12    1    3    3    0    0  0.57719041141E+01 -0.95526319363E+01  0.52768058837E+01  0.12345539046E+02  0.00000000000E+00 0.  1.
</event>
<event>
 7    1  0.2702714E-011  0.5052885E+02  0.7816164E-02  0.1300439E+00
        -11   -1    0    0    0    0  0.00000000000E+00  0.00000000000E+00  0.45593999997E+02  0.45594000000E+02  0.51100000000E-03 0. -1.
         11   -1    0    0    0    0 -0.00000000000E+00 -0.00000000000E+00 -0.45593999997E+02  0.45594000000E+02  0.51100000000E-03 0.  1.
    9900012    2    1    2    0    0 -0.66526073851E+01  0.30343882675E+02  0.26232765250E+02  0.50528851294E+02  0.29999973994E+02 0.  0.
        -12    1    1    2    0    0  0.66526073851E+01 -0.30343882675E+02 -0.26232765250E+02  0.40659148706E+02  0.00000000000E+00 0.  1.
         11    1    3    3    0    0 -0.13928115669E+01  0.96828147740E+01  0.23739671975E+02  0.25676231261E+02  0.51100000000E-03 0. -1.
        -11    1    3    3    0    0  0.13746007244E+01  0.14216078319E+02  0.52249901951E+01  0.15208120618E+02  0.51100000000E-03 0.  1.
        -12    1    3    3    0    0 -0.66343965425E+01  0.64449895820E+01 -0.27318969202E+01  0.96444994156E+01  0.00000000000E+00 0.  1.
</event>
<event>
 7    1  0.2702714E-011  0.5052886E+02  0.7816164E-02  0.1300439E+00
        -11   -1    0    0    0    0  0.00000000000E+00  0.00000000000E+00  0.45593999997E+02  0.45594000000E+02  0.51100000000E-03 0. -1.
         11   -1    0    0    0    0 -0.00000000000E+00 -0.00000000000E+00 -0.45593999997E+02  0.45594000000E+02  0.51100000000E-03 0.  1.
    9900012    2    1    2    0    0 -0.80685001704E+01 -0.39437577556E+01  0.39654906294E+02  0.50528861871E+02  0.30000006143E+02 0.  0.
        -12    1    1    2    0    0  0.80685001704E+01  0.39437577556E+01 -0.39654906294E+02  0.40659138129E+02  0.00000000000E+00 0.  1.
         11    1    3    3    0    0 -0.57399424831E+01 -0.13169464113E+01  0.28877239177E+01  0.65589814183E+01  0.51100000000E-03 0. -1.
        -11    1    3    3    0    0 -0.75720339727E+01 -0.10600642309E+02  0.28528946666E+02  0.31362559111E+02  0.51100000000E-03 0.  1.
        -12    1    3    3    0    0  0.52434762854E+01  0.79738309642E+01  0.82382357101E+01  0.12607321342E+02  0.00000000000E+00 0.  1.
</event>
<event>
 7    1  0.2702714E-011  0.5052886E+02  0.7816164E-02  0.1300439E+00
        -11   -1    0    0    0    0  0.00000000000E+00  0.00000000000E+00  0.45593999997E+02  0.45594000000E+02  0.51100000000E-03 0.  1.
         11   -1    0    0    0    0 -0.00000000000E+00 -0.00000000000E+00 -0.45593999997E+02  0.45594000000E+02  0.51100000000E-03 0. -1.
    9900012    2    1    2    0    0 -0.13732424758E+02  0.12262952608E+02 -0.36251982313E+02  0.50528859354E+02  0.29999998493E+02 0.  0.
        -12    1    1    2    0    0  0.13732424758E+02 -0.12262952608E+02  0.36251982313E+02  0.40659140646E+02  0.00000000000E+00 0.  1.
         11    1    3    3    0    0 -0.12429152975E+02  0.39659807301E+01 -0.24458632597E+02  0.27720706261E+02  0.51100000000E-03 0. -1.
        -11    1    3    3    0    0 -0.18619319172E+01 -0.54525098295E+01 -0.35012824350E+01  0.67420792680E+01  0.51100000000E-03 0.  1.
         12    1    3    3    0    0  0.55866013414E+00  0.13749481707E+02 -0.82920672810E+01  0.16066073825E+02  0.00000000000E+00 0. -1.
</event>
<event>
 7    1  0.2702714E-011  0.5052885E+02  0.7816164E-02  0.1300439E+00
        -11   -1    0    0    0    0  0.00000000000E+00  0.00000000000E+00  0.45593999997E+02  0.45594000000E+02  0.51100000000E-03 0.  1.
         11   -1    0    0    0    0 -0.00000000000E+00 -0.00000000000E+00 -0.45593999997E+02  0.45594000000E+02  0.51100000000E-03 0. -1.
    9900012    2    1    2    0    0 -0.16088317622E+02  0.27388558476E+02 -0.25381079703E+02  0.50528852122E+02  0.29999976509E+02 0.  0.
        -12    1    1    2    0    0  0.16088317622E+02 -0.27388558476E+02  0.25381079703E+02  0.40659147878E+02  0.00000000000E+00 0.  1.
         11    1    3    3    0    0  0.75534401201E+00  0.13106345427E+01 -0.36304694439E+01  0.39330161613E+01  0.51100000000E-03 0. -1.
        -11    1    3    3    0    0 -0.20184944472E+02  0.28365665883E+02 -0.13379701405E+02  0.37296908642E+02  0.51100000000E-03 0.  1.
        -12    1    3    3    0    0  0.33412828376E+01 -0.22877419498E+01 -0.83709088536E+01  0.92989273180E+01  0.00000000000E+00 0.  1.
</event>
<event>
 7    1  0.2702714E-011  0.5052884E+02  0.7816164E-02  0.1300439E+00
        -11   -1    0    0    0    0  0.00000000000E+00  0.00000000000E+00  0.45593999997E+02  0.45594000000E+02  0.51100000000E-03 0.  1.
         11   -1    0    0    0    0 -0.00000000000E+00 -0.00000000000E+00 -0.45593999997E+02  0.45594000000E+02  0.51100000000E-03 0. -1.
    9900012    2    1    2    0    0 -0.25647124209E+01 -0.23502403120E+02 -0.33079090228E+02  0.50528844665E+02  0.29999953843E+02 0.  0.
        -12    1    1    2    0    0  0.25647124209E+01  0.23502403120E+02  0.33079090228E+02  0.40659155335E+02  0.00000000000E+00 0.  1.
         11    1    3    3    0    0 -0.56095564847E+01 -0.74158521090E+01 -0.30264071143E+01  0.97786055622E+01  0.51100000000E-03 0. -1.
        -11    1    3    3    0    0 -0.49453968087E+01  0.39946116936E+00  0.64311174627E+00  0.50030102739E+01  0.51100000000E-03 0.  1.
         12    1    3    3    0    0  0.79902408725E+01 -0.16486012181E+02 -0.30695794860E+02  0.35747228829E+02  0.00000000000E+00 0. -1.
</event>
<event>
 7    1  0.2702714E-011  0.5052886E+02  0.7816164E-02  0.1300439E+00
        -11   -1    0    0    0    0  0.00000000000E+00  0.00000000000E+00  0.45593999997E+02  0.45594000000E+02  0.51100000000E-03 0.  1.
         11   -1    0    0    0    0 -0.00000000000E+00 -0.00000000000E+00 -0.45593999997E+02  0.45594000000E+02  0.51100000000E-03 0. -1.
    9900012    2    1    2    0    0  0.29554324980E+02 -0.26385739043E+02 -0.91378703710E+01  0.50528855582E+02  0.29999987028E+02 0.  0.
        -12    1    1    2    0    0 -0.29554324980E+02  0.26385739043E+02  0.91378703710E+01  0.40659144418E+02  0.00000000000E+00 0.  1.
         11    1    3    3    0    0  0.19329640077E+02 -0.15889721096E+02 -0.95909574482E+01  0.26797475386E+02  0.51100000000E-03 0. -1.
        -11    1    3    3    0    0  0.92718078009E+01 -0.15766961074E+02  0.11637535564E+01  0.18328060563E+02  0.51100000000E-03 0.  1.
         12    1    3    3    0    0  0.95287710179E+00  0.52709431267E+01 -0.71066647919E+00  0.54033196334E+01  0.00000000000E+00 0. -1.
</event>
<event>
 7    1  0.2702714E-011  0.5052886E+02  0.7816164E-02  0.1300439E+00
        -11   -1    0    0    0    0  0.00000000000E+00  0.00000000000E+00  0.45593999997E+02  0.45594000000E+02  0.51100000000E-03 0.  1.
         11   -1    0    0    0    0 -0.00000000000E+00 -0.00000000000E+00 -0.45593999997E+02  0.45594000000E+02  0.51100000000E-03 0. -1.
    9900012    2    1    2    0    0  0.12144488788E+02 -0.29782019588E+02 -0.24873840967E+02  0.50528864949E+02  0.30000015500E+02 0.  0.
        -12    1    1    2    0    0 -0.12144488788E+02  0.29782019588E+02  0.24873840967E+02  0.40659135051E+02  0.00000000000E+00 0.  1.
         11    1    3    3    0    0  0.70316556539E+01 -0.55266977468E+01  0.22806404493E+01  0.92298369617E+01  0.51100000000E-03 0. -1.
        -11    1    3    3    0    0 -0.63218693785E+01 -0.31303087616E+01 -0.52956807444E+01  0.88209466719E+01  0.51100000000E-03 0.  1.
         12    1    3    3    0    0  0.11434702512E+02 -0.21125013079E+02 -0.21858800672E+02  0.32478081316E+02  0.00000000000E+00 0. -1.
</event>
<event>
 7    1  0.2702714E-011  0.5052886E+02  0.7816164E-02  0.1300439E+00
        -11   -1    0    0    0    0  0.00000000000E+00  0.00000000000E+00  0.45593999997E+02  0.45594000000E+02  0.51100000000E-03 0.  1.
         11   -1    0    0    0    0 -0.00000000000E+00 -0.00000000000E+00 -0.45593999997E+02  0.45594000000E+02  0.51100000000E-03 0. -1.
    9900012    2    1    2    0    0 -0.21583384165E+02 -0.14006818087E+02 -0.31482253069E+02  0.50528859782E+02  0.29999999793E+02 0.  0.
        -12    1    1    2    0    0  0.21583384165E+02  0.14006818087E+02  0.31482253069E+02  0.40659140218E+02  0.00000000000E+00 0.  1.
         11    1    3    3    0    0 -0.21907218378E+01 -0.10326738691E+01 -0.25882833341E+02  0.25995898513E+02  0.51100000000E-03 0. -1.
        -11    1    3    3    0    0 -0.60365309678E+01 -0.56656702558E+01 -0.40879476688E+01  0.92331382518E+01  0.51100000000E-03 0.  1.
        -12    1    3    3    0    0 -0.13356131360E+02 -0.73084739623E+01 -0.15114720596E+01  0.15299823017E+02  0.00000000000E+00 0.  1.
</event>
<event>
 7    1  0.3075555E-011  0.5052886E+02  0.7816164E-02  0.1300439E+00
        -11   -1    0    0    0    0  0.00000000000E+00  0.00000000000E+00  0.45593999997E+02  0.45594000000E+02  0.51100000000E-03 0. -1.
         11   -1    0    0    0    0 -0.00000000000E+00 -0.00000000000E+00 -0.45593999997E+02  0.45594000000E+02  0.51100000000E-03 0.  1.
    9900012    2    1    2    0    0  0.23755954689E+02 -0.10561240148E+02  0.31261488706E+02  0.50528857698E+02  0.29999993459E+02 0.  0.
        -12    1    1    2    0    0 -0.23755954689E+02  0.10561240148E+02 -0.31261488706E+02  0.40659142302E+02  0.00000000000E+00 0.  1.
         11    1    3    3    0    0  0.98585034735E+01  0.41829287954E+00  0.17465819168E+02  0.20060406255E+02  0.51100000000E-03 0.  1.
        -11    1    3    3    0    0  0.27144114340E+01 -0.11033638007E+02  0.15434400001E+02  0.19165852466E+02  0.51100000000E-03 0. -1.
        -12    1    3    3    0    0  0.11183039781E+02  0.54104979468E-01 -0.16387304627E+01  0.11302598977E+02  0.00000000000E+00 0.  1.
</event>
<event>
 7    1  0.3291455E-011  0.5052886E+02  0.7816164E-02  0.1300439E+00
        -11   -1    0    0    0    0  0.00000000000E+00  0.00000000000E+00  0.45593999997E+02  0.45594000000E+02  0.51100000000E-03 0. -1.
         11   -1    0    0    0    0 -0.00000000000E+00 -0.00000000000E+00 -0.45593999997E+02  0.45594000000E+02  0.51100000000E-03 0.  1.
    9900012    2    1    2    0    0 -0.32248236585E+02  0.55824196242E+01  0.24125780500E+02  0.50528862571E+02  0.30000008270E+02 0.  0.
        -12    1    1    2    0    0  0.32248236585E+02 -0.55824196242E+01 -0.24125780500E+02  0.40659137429E+02  0.00000000000E+00 0.  1.
         11    1    3    3    0    0 -0.19211940506E+02  0.25551521070E+01  0.20099206225E+02  0.27921417433E+02  0.51100000000E-03 0.  1.
        -11    1    3    3    0    0 -0.16467872092E+02 -0.15148321646E+01  0.33672944963E+01  0.16876735472E+02  0.51100000000E-03 0. -1.
        -12    1    3    3    0    0  0.34315760123E+01  0.45420996818E+01  0.65927977865E+00  0.57307096658E+01  0.00000000000E+00 0.  1.
</event>
<event>
 7    1  0.2866182E-011  0.5052885E+02  0.7816164E-02  0.1300439E+00
        -11   -1    0    0    0    0  0.00000000000E+00  0.00000000000E+00  0.45593999997E+02  0.45594000000E+02  0.51100000000E-03 0.  1.
         11   -1    0    0    0    0 -0.00000000000E+00 -0.00000000000E+00 -0.45593999997E+02  0.45594000000E+02  0.51100000000E-03 0. -1.
    9900012    2    1    2    0    0  0.84442172518E+01  0.37052459635E+02 -0.14456026957E+02  0.50528852377E+02  0.29999977285E+02 0.  0.
        -12    1    1    2    0    0 -0.84442172518E+01 -0.37052459635E+02  0.14456026957E+02  0.40659147623E+02  0.00000000000E+00 0.  1.
         11    1    3    3    0    0  0.60731395277E+01  0.17613580193E+02 -0.30190637760E+01  0.18874214614E+02  0.51100000000E-03 0. -1.
        -11    1    3    3    0    0  0.11061831098E+02  0.10982741810E+02 -0.11756923643E+02  0.19524599323E+02  0.51100000000E-03 0.  1.
        -12    1    3    3    0    0 -0.86907533739E+01  0.84561376321E+01  0.31996046200E+00  0.12130038440E+02  0.00000000000E+00 0.  1.
</event>
<event>
 7    1  0.2702714E-011  0.5052886E+02  0.7816164E-02  0.1300439E+00
        -11   -1    0    0    0    0  0.00000000000E+00  0.00000000000E+00  0.45593999997E+02  0.45594000000E+02  0.51100000000E-03 0.  1.
         11   -1    0    0    0    0 -0.00000000000E+00 -0.00000000000E+00 -0.45593999997E+02  0.45594000000E+02  0.51100000000E-03 0. -1.
    9900012    2    1    2    0    0 -0.11920139572E+02  0.19847578716E+02 -0.33423789275E+02  0.50528858374E+02  0.29999995513E+02 0.  0.
        -12    1    1    2    0    0  0.11920139572E+02 -0.19847578716E+02  0.33423789275E+02  0.40659141626E+02  0.00000000000E+00 0.  1.
         11    1    3    3    0    0 -0.49388206530E+01 -0.79683328522E+00 -0.15386794654E+02  0.16179627397E+02  0.51100000000E-03 0. -1.
        -11    1    3    3    0    0 -0.12827590688E+02  0.12193503254E+02 -0.63887079615E+01  0.18816062132E+02  0.51100000000E-03 0.  1.
         12    1    3    3    0    0  0.58462717694E+01  0.84509087468E+01 -0.11648286659E+02  0.15533168844E+02  0.00000000000E+00 0. -1.
</event>
<event>
 7    1  0.2702714E-011  0.5052885E+02  0.7816164E-02  0.1300439E+00
        -11   -1    0    0    0    0  0.00000000000E+00  0.00000000000E+00  0.45593999997E+02  0.45594000000E+02  0.51100000000E-03 0.  1.
         11   -1    0    0    0    0 -0.00000000000E+00 -0.00000000000E+00 -0.45593999997E+02  0.45594000000E+02  0.51100000000E-03 0. -1.
    9900012    2    1    2    0    0  0.98854974115E+01  0.28204997754E+02 -0.27566668944E+02  0.50528853500E+02  0.29999980700E+02 0.  0.
        -12    1    1    2    0    0 -0.98854974115E+01 -0.28204997754E+02  0.27566668944E+02  0.40659146500E+02  0.00000000000E+00 0.  1.
         11    1    3    3    0    0  0.52238243817E+01  0.62018362488E+00 -0.15458733620E+02  0.16329280887E+02  0.51100000000E-03 0. -1.
        -11    1    3    3    0    0  0.88719414377E+01  0.80273764914E+01 -0.40347473744E+01  0.12626531782E+02  0.51100000000E-03 0.  1.
        -12    1    3    3    0    0 -0.42102684078E+01  0.19557437638E+02 -0.80731879503E+01  0.21573040831E+02  0.00000000000E+00 0.  1.
</event>
<event>
 7    1  0.2702714E-011  0.5052886E+02  0.7816164E-02  0.1300439E+00
        -11   -1    0    0    0    0  0.00000000000E+00  0.00000000000E+00  0.45593999997E+02  0.45594000000E+02  0.51100000000E-03 0.  1.
         11   -1    0    0    0    0 -0.00000000000E+00 -0.00000000000E+00 -0.45593999997E+02  0.45594000000E+02  0.51100000000E-03 0. -1.
    9900012    2    1    2    0    0  0.19717385182E+02  0.12006144365E+02 -0.33470024525E+02  0.50528864217E+02  0.30000013273E+02 0.  0.
        -12    1    1    2    0    0 -0.19717385182E+02 -0.12006144365E+02  0.33470024525E+02  0.40659135783E+02  0.00000000000E+00 0.  1.
         11    1    3    3    0    0  0.92902843376E-01  0.21235092383E+01  0.44314721585E+01  0.49148619692E+01  0.51100000000E-03 0. -1.
        -11    1    3    3    0    0 -0.12548232610E+01  0.27673351763E+01 -0.71533272427E+01  0.77719248772E+01  0.51100000000E-03 0.  1.
         12    1    3    3    0    0  0.20879305600E+02  0.71152999505E+01 -0.30748169441E+02  0.37842077370E+02  0.00000000000E+00 0. -1.
</event>
<event>
 7    1  0.2702714E-011  0.5052885E+02  0.7816164E-02  0.1300439E+00
        -11   -1    0    0    0    0  0.00000000000E+00  0.00000000000E+00  0.45593999997E+02  0.45594000000E+02  0.51100000000E-03 0.  1.
         11   -1    0    0    0    0 -0.00000000000E+00 -0.00000000000E+00 -0.45593999997E+02  0.45594000000E+02  0.51100000000E-03 0. -1.
    9900012    2    1    2    0    0  0.12644801625E+02  0.29963257488E+02 -0.24402426548E+02  0.50528853073E+02  0.29999979401E+02 0.  0.
        -12    1    1    2    0    0 -0.12644801625E+02 -0.29963257488E+02  0.24402426548E+02  0.40659146927E+02  0.00000000000E+00 0.  1.
         11    1    3    3    0    0  0.37153958353E+00  0.15820365530E+02 -0.14795474728E+02  0.21663981164E+02  0.51100000000E-03 0. -1.
        -11    1    3    3    0    0  0.10214050987E+02  0.93188057614E+01 -0.15636839433E+02  0.20872894531E+02  0.51100000000E-03 0.  1.
        -12    1    3    3    0    0  0.20592110543E+01  0.48240861962E+01  0.60298876130E+01  0.79919773786E+01  0.00000000000E+00 0.  1.
</event>
<event>
 7    1  0.2702714E-011  0.5052883E+02  0.7816164E-02  0.1300439E+00
        -11   -1    0    0    0    0  0.00000000000E+00  0.00000000000E+00  0.45593999997E+02  0.45594000000E+02  0.51100000000E-03 0. -1.
         11   -1    0    0    0    0 -0.00000000000E+00 -0.00000000000E+00 -0.45593999997E+02  0.45594000000E+02  0.51100000000E-03 0.  1.
    9900012    2    1    2    0    0  0.19172332083E+02 -0.22091018066E+02  0.28241398166E+02  0.50528831697E+02  0.29999914427E+02 0.  0.
        -12    1    1    2    0    0 -0.19172332083E+02  0.22091018066E+02 -0.28241398166E+02  0.40659168303E+02  0.00000000000E+00 0.  1.
         11    1    3    3    0    0  0.10307734475E+02 -0.69643046220E+01  0.15914498521E+02  0.20199559211E+02  0.51100000000E-03 0. -1.
        -11    1    3    3    0    0 -0.42937372372E+00  0.22594731245E+01  0.10251055128E+02  0.10505889400E+02  0.51100000000E-03 0.  1.
         12    1    3    3    0    0  0.92939713316E+01 -0.17386186569E+02  0.20758445166E+01  0.19823383086E+02  0.00000000000E+00 0. -1.
</event>
<event>
 7    1  0.2702714E-011  0.5052886E+02  0.7816164E-02  0.1300439E+00
        -11   -1    0    0    0    0  0.00000000000E+00  0.00000000000E+00  0.45593999997E+02  0.45594000000E+02  0.51100000000E-03 0.  1.
         11   -1    0    0    0    0 -0.00000000000E+00 -0.00000000000E+00 -0.45593999997E+02  0.45594000000E+02  0.51100000000E-03 0. -1.
    9900012    2    1    2    0    0 -0.26328246553E+02 -0.10226601548E+01 -0.30966802800E+02  0.50528864790E+02  0.30000015017E+02 0.  0.
        -12    1    1    2    0    0  0.26328246553E+02  0.10226601548E+01  0.30966802800E+02  0.40659135210E+02  0.00000000000E+00 0.  1.
         11    1    3    3    0    0 -0.89607359297E+01  0.76760094991E+01 -0.27182242772E+02  0.29632587343E+02  0.51100000000E-03 0.  1.
        -11    1    3    3    0    0 -0.12257856117E+02 -0.30584849213E+01 -0.40911578596E+01  0.13279568498E+02  0.51100000000E-03 0. -1.
        -12    1    3    3    0    0 -0.51096545068E+01 -0.56401847327E+01  0.30659783225E+00  0.76167089500E+01  0.00000000000E+00 0.  1.
</event>
<event>
 7    1  0.2702714E-011  0.5052892E+02  0.7816164E-02  0.1300439E+00
        -11   -1    0    0    0    0  0.00000000000E+00  0.00000000000E+00  0.45593999997E+02  0.45594000000E+02  0.51100000000E-03 0.  1.
         11   -1    0    0    0    0 -0.00000000000E+00 -0.00000000000E+00 -0.45593999997E+02  0.45594000000E+02  0.51100000000E-03 0. -1.
    9900012    2    1    2    0    0  0.35737685714E+02  0.17033118505E+02 -0.92656230094E+01  0.50528916440E+02  0.30000172009E+02 0.  0.
        -12    1    1    2    0    0 -0.35737685714E+02 -0.17033118505E+02  0.92656230094E+01  0.40659083560E+02  0.00000000000E+00 0.  1.
         11    1    3    3    0    0 -0.11938299945E+01  0.98925047933E+00 -0.53219993225E-01  0.15513475418E+01  0.51100000000E-03 0. -1.
        -11    1    3    3    0    0  0.19349356318E+02  0.21219520173E+01  0.76543207826E+01  0.20916235254E+02  0.51100000000E-03 0.  1.
         12    1    3    3    0    0  0.17582159391E+02  0.13921916008E+02 -0.16866723799E+02  0.28061333644E+02  0.00000000000E+00 0. -1.
</event>
<event>
 7    1  0.2702714E-011  0.5052886E+02  0.7816164E-02  0.1300439E+00
        -11   -1    0    0    0    0  0.00000000000E+00  0.00000000000E+00  0.45593999997E+02  0.45594000000E+02  0.51100000000E-03 0.  1.
         11   -1    0    0    0    0 -0.00000000000E+00 -0.00000000000E+00 -0.45593999997E+02  0.45594000000E+02  0.51100000000E-03 0. -1.
    9900012    2    1    2    0    0  0.27731473962E+02  0.17871157894E+02 -0.23764521838E+02  0.50528862887E+02  0.30000009231E+02 0.  0.
        -12    1    1    2    0    0 -0.27731473962E+02 -0.17871157894E+02  0.23764521838E+02  0.40659137113E+02  0.00000000000E+00 0.  1.
         11    1    3    3    0    0  0.77094321595E+01  0.15954886764E+02 -0.92201664302E+01  0.19975115147E+02  0.51100000000E-03 0. -1.
        -11    1    3    3    0    0  0.23933555406E+01  0.78550529078E+01 -0.35551064743E+01  0.89481165187E+01  0.51100000000E-03 0.  1.
        -12    1    3    3    0    0  0.17628686262E+02 -0.59387817782E+01 -0.10989248934E+02  0.21605631221E+02  0.00000000000E+00 0.  1.
</event>
<event>
 7    1  0.2702714E-011  0.5052887E+02  0.7816164E-02  0.1300439E+00
        -11   -1    0    0    0    0  0.00000000000E+00  0.00000000000E+00  0.45593999997E+02  0.45594000000E+02  0.51100000000E-03 0.  1.
         11   -1    0    0    0    0 -0.00000000000E+00 -0.00000000000E+00 -0.45593999997E+02  0.45594000000E+02  0.51100000000E-03 0. -1.
    9900012    2    1    2    0    0  0.31466893729E+02 -0.22403204954E+02  0.12692366581E+02  0.50528866185E+02  0.30000019255E+02 0.  0.
        -12    1    1    2    0    0 -0.31466893729E+02  0.22403204954E+02 -0.12692366581E+02  0.40659133815E+02  0.00000000000E+00 0.  1.
         11    1    3    3    0    0  0.15462445046E+02 -0.24053706097E+02  0.56695598044E+01  0.29151533278E+02  0.51100000000E-03 0. -1.
        -11    1    3    3    0    0  0.12813811289E+02 -0.40099985241E+01  0.30748804089E+01  0.13774205520E+02  0.51100000000E-03 0.  1.
         12    1    3    3    0    0  0.31906373936E+01  0.56604996669E+01  0.39479263676E+01  0.76031273868E+01  0.00000000000E+00 0. -1.
</event>
<event>
 7    1  0.2702714E-011  0.5052886E+02  0.7816164E-02  0.1300439E+00
        -11   -1    0    0    0    0  0.00000000000E+00  0.00000000000E+00  0.45593999997E+02  0.45594000000E+02  0.51100000000E-03 0.  1.
         11   -1    0    0    0    0 -0.00000000000E+00 -0.00000000000E+00 -0.45593999997E+02  0.45594000000E+02  0.51100000000E-03 0. -1.
    9900012    2    1    2    0    0 -0.35281983447E+02  0.19033465738E+02  0.67877940383E+01  0.50528864226E+02  0.30000013303E+02 0.  0.
        -12    1    1    2    0    0  0.35281983447E+02 -0.19033465738E+02 -0.67877940383E+01  0.40659135774E+02  0.00000000000E+00 0.  1.
         11    1    3    3    0    0 -0.97109351387E+01  0.71627956727E+01 -0.65637296372E+01  0.13736464251E+02  0.51100000000E-03 0. -1.
        -11    1    3    3    0    0  0.10163939235E+01 -0.31412109338E+01  0.32480305349E+01  0.46314107305E+01  0.51100000000E-03 0.  1.
        -12    1    3    3    0    0 -0.26587442232E+02  0.15011880999E+02  0.10103493141E+02  0.32160989245E+02  0.00000000000E+00 0.  1.
</event>
<event>
 7    1  0.2702714E-011  0.5052886E+02  0.7816164E-02  0.1300439E+00
        -11   -1    0    0    0    0  0.00000000000E+00  0.00000000000E+00  0.45593999997E+02  0.45594000000E+02  0.51100000000E-03 0. -1.
         11   -1    0    0    0    0 -0.00000000000E+00 -0.00000000000E+00 -0.45593999997E+02  0.45594000000E+02  0.51100000000E-03 0.  1.
    9900012    2    1    2    0    0  0.35085729297E+02  0.21451354665E+01  0.20434175996E+02  0.50528861358E+02  0.30000004584E+02 0.  0.
        -12    1    1    2    0    0 -0.35085729297E+02 -0.21451354665E+01 -0.20434175996E+02  0.40659138642E+02  0.00000000000E+00 0.  1.
         11    1    3    3    0    0  0.31340046471E+02 -0.38228288252E+01  0.48786789940E+01  0.31947050600E+02  0.51100000000E-03 0. -1.
        -11    1    3    3    0    0  0.36383355983E+01  0.51568075678E+01  0.51541717005E+01  0.81483517595E+01  0.51100000000E-03 0.  1.
        -12    1    3    3    0    0  0.10734722804E+00  0.81115672390E+00  0.10401325301E+02  0.10433458999E+02  0.00000000000E+00 0.  1.
</event>
<event>
 7    1  0.2702714E-011  0.5052885E+02  0.7816164E-02  0.1300439E+00
        -11   -1    0    0    0    0  0.00000000000E+00  0.00000000000E+00  0.45593999997E+02  0.45594000000E+02  0.51100000000E-03 0. -1.
         11   -1    0    0    0    0 -0.00000000000E+00 -0.00000000000E+00 -0.45593999997E+02  0.45594000000E+02  0.51100000000E-03 0.  1.
    9900012    2    1    2    0    0 -0.33370719985E+02  0.16808799365E+02  0.16032035747E+02  0.50528845329E+02  0.29999955861E+02 0.  0.
        -12    1    1    2    0    0  0.33370719985E+02 -0.16808799365E+02 -0.16032035747E+02  0.40659154671E+02  0.00000000000E+00 0.  1.
         11    1    3    3    0    0 -0.59597963843E+01  0.51161834301E+01  0.41066376898E+01  0.88633503378E+01  0.51100000000E-03 0. -1.
        -11    1    3    3    0    0 -0.16828185378E+02  0.61794425045E+01 -0.70389907492E+01  0.19259302267E+02  0.51100000000E-03 0.  1.
        -12    1    3    3    0    0 -0.10582738222E+02  0.55131734305E+01  0.18964388807E+02  0.22406192724E+02  0.00000000000E+00 0.  1.
</event>
<event>
 7    1  0.2702714E-011  0.5052886E+02  0.7816164E-02  0.1300439E+00
        -11   -1    0    0    0    0  0.00000000000E+00  0.00000000000E+00  0.45593999997E+02  0.45594000000E+02  0.51100000000E-03 0.  1.
         11   -1    0    0    0    0 -0.00000000000E+00 -0.00000000000E+00 -0.45593999997E+02  0.45594000000E+02  0.51100000000E-03 0. -1.
    9900012    2    1    2    0    0 -0.17623104721E+02  0.16195850336E+02 -0.32867705477E+02  0.50528862632E+02  0.30000008458E+02 0.  0.
        -12    1    1    2    0    0  0.17623104721E+02 -0.16195850336E+02  0.32867705477E+02  0.40659137368E+02  0.00000000000E+00 0.  1.
         11    1    3    3    0    0 -0.15163927647E+01  0.43342459359E+01 -0.13872906960E+02  0.14613099693E+02  0.51100000000E-03 0. -1.
        -11    1    3    3    0    0 -0.39201865285E+01  0.16860149726E+02 -0.10826266683E+02  0.20416673621E+02  0.51100000000E-03 0.  1.
         12    1    3    3    0    0 -0.12186525428E+02 -0.49985453254E+01 -0.81685318348E+01  0.15499089319E+02  0.00000000000E+00 0. -1.
</event>
<event>
 7    1  0.2702714E-011  0.5052886E+02  0.7816164E-02  0.1300439E+00
        -11   -1    0    0    0    0  0.00000000000E+00  0.00000000000E+00  0.45593999997E+02  0.45594000000E+02  0.51100000000E-03 0.  1.
         11   -1    0    0    0    0 -0.00000000000E+00 -0.00000000000E+00 -0.45593999997E+02  0.45594000000E+02  0.51100000000E-03 0. -1.
    9900012    2    1    2    0    0  0.20914136631E+02  0.73843369524E+01 -0.34076916144E+02  0.50528858874E+02  0.29999997033E+02 0.  0.
        -12    1    1    2    0    0 -0.20914136631E+02 -0.73843369524E+01  0.34076916144E+02  0.40659141126E+02  0.00000000000E+00 0.  1.
         11    1    3    3    0    0  0.47175546130E+01 -0.44979488721E+00 -0.22214416508E+02  0.22714267279E+02  0.51100000000E-03 0. -1.
        -11    1    3    3    0    0  0.51272854802E+01 -0.54957017727E+01 -0.56686822654E+01  0.94141251987E+01  0.51100000000E-03 0.  1.
         12    1    3    3    0    0  0.11069296538E+02  0.13329833612E+02 -0.61938173701E+01  0.18400466396E+02  0.00000000000E+00 0. -1.
</event>
<event>
 7    1  0.2702714E-011  0.5052886E+02  0.7816164E-02  0.1300439E+00
        -11   -1    0    0    0    0  0.00000000000E+00  0.00000000000E+00  0.45593999997E+02  0.45594000000E+02  0.51100000000E-03 0.  1.
         11   -1    0    0    0    0 -0.00000000000E+00 -0.00000000000E+00 -0.45593999997E+02  0.45594000000E+02  0.51100000000E-03 0. -1.
    9900012    2    1    2    0    0 -0.13717060654E+02 -0.26617959691E+02  0.27504405454E+02  0.50528857726E+02  0.29999993544E+02 0.  0.
        -12    1    1    2    0    0  0.13717060654E+02  0.26617959691E+02 -0.27504405454E+02  0.40659142274E+02  0.00000000000E+00 0.  1.
         11    1    3    3    0    0 -0.64559456292E+01 -0.96404721385E+01  0.18449899418E+02  0.21794878431E+02  0.51100000000E-03 0. -1.
        -11    1    3    3    0    0 -0.13293771730E+02 -0.14335342438E+02  0.29837740603E+01  0.19776989597E+02  0.51100000000E-03 0.  1.
        -12    1    3    3    0    0  0.60326567052E+01 -0.26421451141E+01  0.60707319759E+01  0.89569896980E+01  0.00000000000E+00 0.  1.
</event>
<event>
 7    1  0.2702714E-011  0.5052886E+02  0.7816164E-02  0.1300439E+00
        -11   -1    0    0    0    0  0.00000000000E+00  0.00000000000E+00  0.45593999997E+02  0.45594000000E+02  0.51100000000E-03 0. -1.
         11   -1    0    0    0    0 -0.00000000000E+00 -0.00000000000E+00 -0.45593999997E+02  0.45594000000E+02  0.51100000000E-03 0.  1.
    9900012    2    1    2    0    0  0.24267106797E+02  0.20100603687E+02  0.25695116193E+02  0.50528859121E+02  0.29999997784E+02 0.  0.
        -12    1    1    2    0    0 -0.24267106797E+02 -0.20100603687E+02 -0.25695116193E+02  0.40659140879E+02  0.00000000000E+00 0.  1.
         11    1    3    3    0    0  0.65352600707E+01  0.12544596732E+02  0.98283810275E+00  0.14178945742E+02  0.51100000000E-03 0. -1.
        -11    1    3    3    0    0  0.12503772696E+02  0.59775417936E+01  0.32924263651E+01  0.14244837983E+02  0.51100000000E-03 0.  1.
         12    1    3    3    0    0  0.52280740303E+01  0.15784651609E+01  0.21419851725E+02  0.22105075396E+02  0.00000000000E+00 0. -1.
</event>
<event>
 7    1  0.2702714E-011  0.5052886E+02  0.7816164E-02  0.1300439E+00
        -11   -1    0    0    0    0  0.00000000000E+00  0.00000000000E+00  0.45593999997E+02  0.45594000000E+02  0.51100000000E-03 0.  1.
         11   -1    0    0    0    0 -0.00000000000E+00 -0.00000000000E+00 -0.45593999997E+02  0.45594000000E+02  0.51100000000E-03 0. -1.
    9900012    2    1    2    0    0  0.33500467078E+01 -0.37840102111E+02  0.14493780789E+02  0.50528858072E+02  0.29999994596E+02 0.  0.
        -12    1    1    2    0    0 -0.33500467078E+01  0.37840102111E+02 -0.14493780789E+02  0.40659141928E+02  0.00000000000E+00 0.  1.
         11    1    3    3    0    0  0.42556701660E+01 -0.11093641550E+02  0.27611563544E+01  0.12198507945E+02  0.51100000000E-03 0. -1.
        -11    1    3    3    0    0  0.90356131032E+01 -0.24006821412E+01  0.68344675715E+01  0.11580825797E+02  0.51100000000E-03 0.  1.
         12    1    3    3    0    0 -0.99412365615E+01 -0.24345778420E+02  0.48981568634E+01  0.26749524331E+02  0.00000000000E+00 0. -1.
</event>
<event>
 7    1  0.2702714E-011  0.5052886E+02  0.7816164E-02  0.1300439E+00
        -11   -1    0    0    0    0  0.00000000000E+00  0.00000000000E+00  0.45593999997E+02  0.45594000000E+02  0.51100000000E-03 0. -1.
         11   -1    0    0    0    0 -0.00000000000E+00 -0.00000000000E+00 -0.45593999997E+02  0.45594000000E+02  0.51100000000E-03 0.  1.
    9900012    2    1    2    0    0 -0.32996104635E+02  0.14980140762E+02  0.18439575135E+02  0.50528862411E+02  0.30000007784E+02 0.  0.
        -12    1    1    2    0    0  0.32996104635E+02 -0.14980140762E+02 -0.18439575135E+02  0.40659137589E+02  0.00000000000E+00 0.  1.
         11    1    3    3    0    0 -0.14645792679E+02  0.43894313836E+01  0.14676368428E+00  0.15290123966E+02  0.51100000000E-03 0. -1.
        -11    1    3    3    0    0 -0.21795745034E+02  0.32872644068E+01  0.13526742309E+02  0.25861812903E+02  0.51100000000E-03 0.  1.
         12    1    3    3    0    0  0.34454330778E+01  0.73034449715E+01  0.47660691422E+01  0.93769255417E+01  0.00000000000E+00 0. -1.
</event>
<event>
 7    1  0.2702714E-011  0.5052886E+02  0.7816164E-02  0.1300439E+00
        -11   -1    0    0    0    0  0.00000000000E+00  0.00000000000E+00  0.45593999997E+02  0.45594000000E+02  0.51100000000E-03 0.  1.
         11   -1    0    0    0    0 -0.00000000000E+00 -0.00000000000E+00 -0.45593999997E+02  0.45594000000E+02  0.51100000000E-03 0. -1.
    9900012    2    1    2    0    0 -0.13436536538E+02  0.11345047601E+02 -0.36659443967E+02  0.50528862636E+02  0.30000008469E+02 0.  0.
        -12    1    1    2    0    0  0.13436536538E+02 -0.11345047601E+02  0.36659443967E+02  0.40659137364E+02  0.00000000000E+00 0.  1.
         11    1    3    3    0    0 -0.62662455423E+01  0.92349218659E+00 -0.26209193849E+01  0.68547713090E+01  0.51100000000E-03 0. -1.
        -11    1    3    3    0    0 -0.60956465509E+01  0.10434649870E+02 -0.27841217301E+01  0.12401216023E+02  0.51100000000E-03 0.  1.
         12    1    3    3    0    0 -0.10746444446E+01 -0.13094455132E-01 -0.31254402852E+02  0.31272875304E+02  0.00000000000E+00 0. -1.
</event>
<event>
 7    1  0.2702714E-011  0.5052888E+02  0.7816164E-02  0.1300439E+00
        -11   -1    0    0    0    0  0.00000000000E+00  0.00000000000E+00  0.45593999997E+02  0.45594000000E+02  0.51100000000E-03 0.  1.
         11   -1    0    0    0    0 -0.00000000000E+00 -0.00000000000E+00 -0.45593999997E+02  0.45594000000E+02  0.51100000000E-03 0. -1.
    9900012    2    1    2    0    0  0.20157293229E+02 -0.21756548205E+02 -0.27811867118E+02  0.50528882785E+02  0.30000069713E+02 0.  0.
        -12    1    1    2    0    0 -0.20157293229E+02  0.21756548205E+02  0.27811867118E+02  0.40659117215E+02  0.00000000000E+00 0.  1.
         11    1    3    3    0    0  0.96492593813E+00  0.80639164779E+00  0.22304370412E+01  0.25605076082E+01  0.51100000000E-03 0. -1.
        -11    1    3    3    0    0  0.10875416178E+02 -0.62947851281E+01  0.27768146611E+00  0.12568854526E+02  0.51100000000E-03 0.  1.
         12    1    3    3    0    0  0.83169511137E+01 -0.16268154725E+02 -0.30319985625E+02  0.35399520650E+02  0.00000000000E+00 0. -1.
</event>
<event>
 7    1  0.2702714E-011  0.5052887E+02  0.7816164E-02  0.1300439E+00
        -11   -1    0    0    0    0  0.00000000000E+00  0.00000000000E+00  0.45593999997E+02  0.45594000000E+02  0.51100000000E-03 0.  1.
         11   -1    0    0    0    0 -0.00000000000E+00 -0.00000000000E+00 -0.45593999997E+02  0.45594000000E+02  0.51100000000E-03 0. -1.
    9900012    2    1    2    0    0  0.18432559693E+02  0.20000705961E+02 -0.30222134754E+02  0.50528869109E+02  0.30000028142E+02 0.  0.
        -12    1    1    2    0    0 -0.18432559693E+02 -0.20000705961E+02  0.30222134754E+02  0.40659130891E+02  0.00000000000E+00 0.  1.
         11    1    3    3    0    0  0.11542023026E+02 -0.39070696210E+01 -0.13872404378E+02  0.18464211114E+02  0.51100000000E-03 0. -1.
        -11    1    3    3    0    0  0.99881826891E+00  0.55043785372E+01 -0.10462534626E+02  0.11864251012E+02  0.51100000000E-03 0.  1.
        -12    1    3    3    0    0  0.58917183983E+01  0.18403397045E+02 -0.58871957491E+01  0.20200406982E+02  0.00000000000E+00 0.  1.
</event>
<event>
 7    1  0.2702714E-011  0.5052886E+02  0.7816164E-02  0.1300439E+00
        -11   -1    0    0    0    0  0.00000000000E+00  0.00000000000E+00  0.45593999997E+02  0.45594000000E+02  0.51100000000E-03 0.  1.
         11   -1    0    0    0    0 -0.00000000000E+00 -0.00000000000E+00 -0.45593999997E+02  0.45594000000E+02  0.51100000000E-03 0. -1.
    9900012    2    1    2    0    0  0.12830553683E+02  0.32202462768E+02 -0.21249561641E+02  0.50528860977E+02  0.30000003426E+02 0.  0.
        -12    1    1    2    0    0 -0.12830553683E+02 -0.32202462768E+02  0.21249561641E+02  0.40659139023E+02  0.00000000000E+00 0.  1.
         11    1    3    3    0    0  0.90018916835E+01  0.29797665622E+02 -0.54941502301E+01  0.31608869284E+02  0.51100000000E-03 0. -1.
        -11    1    3    3    0    0  0.59715944564E+01 -0.42174030463E+00 -0.57347065712E+01  0.82900340744E+01  0.51100000000E-03 0.  1.
        -12    1    3    3    0    0 -0.21429324573E+01  0.28265374506E+01 -0.10020704840E+02  0.10629957618E+02  0.00000000000E+00 0.  1.
</event>
<event>
 7    1  0.3019579E-011  0.5052888E+02  0.7816164E-02  0.1300439E+00
        -11   -1    0    0    0    0  0.00000000000E+00  0.00000000000E+00  0.45593999997E+02  0.45594000000E+02  0.51100000000E-03 0. -1.
         11   -1    0    0    0    0 -0.00000000000E+00 -0.00000000000E+00 -0.45593999997E+02  0.45594000000E+02  0.51100000000E-03 0.  1.
    9900012    2    1    2    0    0  0.10084967834E+02  0.39264816430E+02  0.31195306483E+01  0.50528882241E+02  0.30000068059E+02 0.  0.
        -12    1    1    2    0    0 -0.10084967834E+02 -0.39264816430E+02 -0.31195306483E+01  0.40659117759E+02  0.00000000000E+00 0.  1.
         11    1    3    3    0    0 -0.28391567728E+01  0.18039521188E+02  0.46559068569E+00  0.18267509705E+02  0.51100000000E-03 0. -1.
        -11    1    3    3    0    0 -0.14366400273E+01 -0.31048404947E+01 -0.14442749578E+01  0.37134753911E+01  0.51100000000E-03 0.  1.
        -12    1    3    3    0    0  0.14360764635E+02  0.24330135737E+02  0.40982149204E+01  0.28547897145E+02  0.00000000000E+00 0.  1.
</event>
<event>
 7    1  0.2702714E-011  0.5052886E+02  0.7816164E-02  0.1300439E+00
        -11   -1    0    0    0    0  0.00000000000E+00  0.00000000000E+00  0.45593999997E+02  0.45594000000E+02  0.51100000000E-03 0.  1.
         11   -1    0    0    0    0 -0.00000000000E+00 -0.00000000000E+00 -0.45593999997E+02  0.45594000000E+02  0.51100000000E-03 0. -1.
    9900012    2    1    2    0    0 -0.57275395094E+01  0.21116988594E+01 -0.40198276324E+02  0.50528863261E+02  0.30000010369E+02 0.  0.
        -12    1    1    2    0    0  0.57275395094E+01 -0.21116988594E+01  0.40198276324E+02  0.40659136739E+02  0.00000000000E+00 0.  1.
         11    1    3    3    0    0 -0.49218242686E+00 -0.55743195678E+01 -0.17484269835E+02  0.18357967592E+02  0.51100000000E-03 0. -1.
        -11    1    3    3    0    0 -0.12123802383E+02  0.14839258251E+01 -0.18050551725E+02  0.21794747944E+02  0.51100000000E-03 0.  1.
         12    1    3    3    0    0  0.68884453000E+01  0.62020926020E+01 -0.46634547632E+01  0.10376147726E+02  0.00000000000E+00 0. -1.
</event>
<event>
 7    1  0.2913741E-011  0.5052889E+02  0.7816164E-02  0.1300439E+00
        -11   -1    0    0    0    0  0.00000000000E+00  0.00000000000E+00  0.45593999997E+02  0.45594000000E+02  0.51100000000E-03 0. -1.
         11   -1    0    0    0    0 -0.00000000000E+00 -0.00000000000E+00 -0.45593999997E+02  0.45594000000E+02  0.51100000000E-03 0.  1.
    9900012    2    1    2    0    0  0.35523160263E+02  0.10738544090E+00  0.19780203658E+02  0.50528893966E+02  0.30000103699E+02 0.  0.
        -12    1    1    2    0    0 -0.35523160263E+02 -0.10738544090E+00 -0.19780203658E+02  0.40659106034E+02  0.00000000000E+00 0.  1.
         11    1    3    3    0    0  0.32401752494E+02 -0.32861340882E+01  0.16102131569E+02  0.36331128296E+02  0.51100000000E-03 0. -1.
        -11    1    3    3    0    0  0.63063135995E+01  0.32904320009E+01 -0.22559309699E+01  0.74622891106E+01  0.51100000000E-03 0.  1.
        -12    1    3    3    0    0 -0.31849058298E+01  0.10308752821E+00  0.59340030586E+01  0.67354765594E+01  0.00000000000E+00 0.  1.
</event>
<event>
 7    1  0.2702714E-011  0.5052886E+02  0.7816164E-02  0.1300439E+00
        -11   -1    0    0    0    0  0.00000000000E+00  0.00000000000E+00  0.45593999997E+02  0.45594000000E+02  0.51100000000E-03 0.  1.
         11   -1    0    0    0    0 -0.00000000000E+00 -0.00000000000E+00 -0.45593999997E+02  0.45594000000E+02  0.51100000000E-03 0. -1.
    9900012    2    1    2    0    0  0.28707836187E+02  0.91196421243E+00 -0.28778362858E+02  0.50528859502E+02  0.29999998943E+02 0.  0.
        -12    1    1    2    0    0 -0.28707836187E+02 -0.91196421243E+00  0.28778362858E+02  0.40659140498E+02  0.00000000000E+00 0.  1.
         11    1    3    3    0    0  0.77677200893E+01  0.31375633612E+01 -0.44049046301E+01  0.94649334014E+01  0.51100000000E-03 0. -1.
        -11    1    3    3    0    0 -0.43622812732E+01  0.38351737553E+01 -0.93857420680E+01  0.11037672312E+02  0.51100000000E-03 0.  1.
         12    1    3    3    0    0  0.25302397371E+02 -0.60607729041E+01 -0.14987716160E+02  0.30026253789E+02  0.00000000000E+00 0. -1.
</event>
<event>
 7    1  0.2702714E-011  0.5052887E+02  0.7816164E-02  0.1300439E+00
        -11   -1    0    0    0    0  0.00000000000E+00  0.00000000000E+00  0.45593999997E+02  0.45594000000E+02  0.51100000000E-03 0. -1.
         11   -1    0    0    0    0 -0.00000000000E+00 -0.00000000000E+00 -0.45593999997E+02  0.45594000000E+02  0.51100000000E-03 0.  1.
    9900012    2    1    2    0    0  0.39672984719E+02 -0.59966479349E+01  0.65771897135E+01  0.50528869076E+02  0.30000028044E+02 0.  0.
        -12    1    1    2    0    0 -0.39672984719E+02  0.59966479349E+01 -0.65771897135E+01  0.40659130924E+02  0.00000000000E+00 0.  1.
         11    1    3    3    0    0  0.95754346902E+01  0.40226275513E+01  0.69256459489E+01  0.12483391126E+02  0.51100000000E-03 0. -1.
        -11    1    3    3    0    0  0.17804386183E+02 -0.12018926378E+02  0.81413361086E+01  0.22972420693E+02  0.51100000000E-03 0.  1.
        -12    1    3    3    0    0  0.12293163846E+02  0.19996508914E+01 -0.84897923441E+01  0.15073057257E+02  0.00000000000E+00 0.  1.
</event>
<event>
 7    1  0.2702714E-011  0.5052885E+02  0.7816164E-02  0.1300439E+00
        -11   -1    0    0    0    0  0.00000000000E+00  0.00000000000E+00  0.45593999997E+02  0.45594000000E+02  0.51100000000E-03 0.  1.
         11   -1    0    0    0    0 -0.00000000000E+00 -0.00000000000E+00 -0.45593999997E+02  0.45594000000E+02  0.51100000000E-03 0. -1.
    9900012    2    1    2    0    0 -0.20313009533E+02 -0.17642025278E+02 -0.30484544697E+02  0.50528845095E+02  0.29999955150E+02 0.  0.
        -12    1    1    2    0    0  0.20313009533E+02  0.17642025278E+02  0.30484544697E+02  0.40659154905E+02  0.00000000000E+00 0.  1.
         11    1    3    3    0    0 -0.11404476816E+02 -0.50516355946E+01  0.36536549763E+01  0.12997319284E+02  0.51100000000E-03 0.  1.
        -11    1    3    3    0    0 -0.94466679314E+00 -0.22250513761E+01 -0.70826462194E+01  0.74837909315E+01  0.51100000000E-03 0. -1.
        -12    1    3    3    0    0 -0.79638659243E+01 -0.10365338307E+02 -0.27055553454E+02  0.30047734880E+02  0.00000000000E+00 0.  1.
</event>
<event>
 7    1  0.2702714E-011  0.5052883E+02  0.7816164E-02  0.1300439E+00
        -11   -1    0    0    0    0  0.00000000000E+00  0.00000000000E+00  0.45593999997E+02  0.45594000000E+02  0.51100000000E-03 0.  1.
         11   -1    0    0    0    0 -0.00000000000E+00 -0.00000000000E+00 -0.45593999997E+02  0.45594000000E+02  0.51100000000E-03 0. -1.
    9900012    2    1    2    0    0 -0.18593484282E+02 -0.10790005202E+02 -0.34511249622E+02  0.50528828581E+02  0.29999904956E+02 0.  0.
        -12    1    1    2    0    0  0.18593484282E+02  0.10790005202E+02  0.34511249622E+02  0.40659171419E+02  0.00000000000E+00 0.  1.
         11    1    3    3    0    0 -0.54565944606E+01 -0.15213071071E+01 -0.11252717350E+02  0.12598112813E+02  0.51100000000E-03 0. -1.
        -11    1    3    3    0    0  0.48700239546E+01 -0.10788337505E+02 -0.10342023249E+02  0.15718231598E+02  0.51100000000E-03 0.  1.
         12    1    3    3    0    0 -0.18006913776E+02  0.15196394102E+01 -0.12916509022E+02  0.22212484170E+02  0.00000000000E+00 0. -1.
</event>
<event>
 7    1  0.2702714E-011  0.5052886E+02  0.7816164E-02  0.1300439E+00
        -11   -1    0    0    0    0  0.00000000000E+00  0.00000000000E+00  0.45593999997E+02  0.45594000000E+02  0.51100000000E-03 0.  1.
         11   -1    0    0    0    0 -0.00000000000E+00 -0.00000000000E+00 -0.45593999997E+02  0.45594000000E+02  0.51100000000E-03 0. -1.
    9900012    2    1    2    0    0  0.31982613477E+02 -0.20911936766E+02 -0.13891341278E+02  0.50528855560E+02  0.29999986959E+02 0.  0.
        -12    1    1    2    0    0 -0.31982613477E+02  0.20911936766E+02  0.13891341278E+02  0.40659144440E+02  0.00000000000E+00 0.  1.
         11    1    3    3    0    0  0.91550959363E+01 -0.10910537961E+01 -0.50061158257E+01  0.10491300011E+02  0.51100000000E-03 0. -1.
        -11    1    3    3    0    0 -0.23096564053E-01 -0.98893812341E+01 -0.11286930695E+02  0.15006505236E+02  0.51100000000E-03 0.  1.
         12    1    3    3    0    0  0.22850614105E+02 -0.99315017356E+01  0.24017052425E+01  0.25031050313E+02  0.00000000000E+00 0. -1.
</event>
<event>
 7    1  0.2702714E-011  0.5052886E+02  0.7816164E-02  0.1300439E+00
        -11   -1    0    0    0    0  0.00000000000E+00  0.00000000000E+00  0.45593999997E+02  0.45594000000E+02  0.51100000000E-03 0.  1.
         11   -1    0    0    0    0 -0.00000000000E+00 -0.00000000000E+00 -0.45593999997E+02  0.45594000000E+02  0.51100000000E-03 0. -1.
    9900012    2    1    2    0    0 -0.26789982804E+01  0.26061263893E+02 -0.31093393754E+02  0.50528860282E+02  0.30000001313E+02 0.  0.
        -12    1    1    2    0    0  0.26789982804E+01 -0.26061263893E+02  0.31093393754E+02  0.40659139718E+02  0.00000000000E+00 0.  1.
         11    1    3    3    0    0  0.45506735764E+01  0.10577172089E+02 -0.11986736665E+02  0.16621283210E+02  0.51100000000E-03 0. -1.
        -11    1    3    3    0    0 -0.84480665992E+01  0.20696333810E+02 -0.13305990898E+02  0.26014562392E+02  0.51100000000E-03 0.  1.
        -12    1    3    3    0    0  0.12183947425E+01 -0.52122420061E+01 -0.58006661911E+01  0.78930146801E+01  0.00000000000E+00 0.  1.
</event>
<event>
 7    1  0.2702714E-011  0.5052886E+02  0.7816164E-02  0.1300439E+00
        -11   -1    0    0    0    0  0.00000000000E+00  0.00000000000E+00  0.45593999997E+02  0.45594000000E+02  0.51100000000E-03 0.  1.
         11   -1    0    0    0    0 -0.00000000000E+00 -0.00000000000E+00 -0.45593999997E+02  0.45594000000E+02  0.51100000000E-03 0. -1.
    9900012    2    1    2    0    0  0.30748738289E+02  0.27380915158E+01 -0.26460979793E+02  0.50528861997E+02  0.30000006527E+02 0.  0.
        -12    1    1    2    0    0 -0.30748738289E+02 -0.27380915158E+01  0.26460979793E+02  0.40659138003E+02  0.00000000000E+00 0.  1.
         11    1    3    3    0    0  0.79368154257E+01  0.89267964100E+01 -0.17445568653E+02  0.21143050848E+02  0.51100000000E-03 0. -1.
        -11    1    3    3    0    0  0.25271733652E+01 -0.66111130602E+01 -0.50964317022E+01  0.87216419021E+01  0.51100000000E-03 0.  1.
         12    1    3    3    0    0  0.20284749498E+02  0.42240816603E+00 -0.39189794370E+01  0.20664169248E+02  0.00000000000E+00 0. -1.
</event>
<event>
 7    1  0.2702714E-011  0.5052886E+02  0.7816164E-02  0.1300439E+00
        -11   -1    0    0    0    0  0.00000000000E+00  0.00000000000E+00  0.45593999997E+02  0.45594000000E+02  0.51100000000E-03 0. -1.
         11   -1    0    0    0    0 -0.00000000000E+00 -0.00000000000E+00 -0.45593999997E+02  0.45594000000E+02  0.51100000000E-03 0.  1.
    9900012    2    1    2    0    0  0.77418841562E+01  0.28433625943E+02  0.28013531584E+02  0.50528858268E+02  0.29999995192E+02 0.  0.
        -12    1    1    2    0    0 -0.77418841562E+01 -0.28433625943E+02 -0.28013531584E+02  0.40659141732E+02  0.00000000000E+00 0.  1.
         11    1    3    3    0    0 -0.62717031963E+00  0.24634029372E+00  0.10750047371E+02  0.10771144085E+02  0.51100000000E-03 0. -1.
        -11    1    3    3    0    0 -0.61325621840E+01  0.66655342980E+01  0.95592596421E+00  0.91077692729E+01  0.51100000000E-03 0.  1.
         12    1    3    3    0    0  0.14501616660E+02  0.21521751351E+02  0.16307558248E+02  0.30649944910E+02  0.00000000000E+00 0. -1.
</event>
<event>
 7    1  0.2702714E-011  0.5052886E+02  0.7816164E-02  0.1300439E+00
        -11   -1    0    0    0    0  0.00000000000E+00  0.00000000000E+00  0.45593999997E+02  0.45594000000E+02  0.51100000000E-03 0.  1.
         11   -1    0    0    0    0 -0.00000000000E+00 -0.00000000000E+00 -0.45593999997E+02  0.45594000000E+02  0.51100000000E-03 0. -1.
    9900012    2    1    2    0    0  0.37309509146E+02 -0.12426535539E+01 -0.16112793839E+02  0.50528858520E+02  0.29999995958E+02 0.  0.
        -12    1    1    2    0    0 -0.37309509146E+02  0.12426535539E+01  0.16112793839E+02  0.40659141480E+02  0.00000000000E+00 0.  1.
         11    1    3    3    0    0  0.19434010387E+02 -0.13746177085E+00 -0.10612551928E+02  0.22143304048E+02  0.51100000000E-03 0. -1.
        -11    1    3    3    0    0  0.46715547970E+01  0.93487631593E+01 -0.48765396073E+01  0.11532711547E+02  0.51100000000E-03 0.  1.
        -12    1    3    3    0    0  0.13203943962E+02 -0.10453954942E+02 -0.62370230346E+00  0.16852842925E+02  0.00000000000E+00 0.  1.
</event>
<event>
 7    1  0.2702714E-011  0.5052887E+02  0.7816164E-02  0.1300439E+00
        -11   -1    0    0    0    0  0.00000000000E+00  0.00000000000E+00  0.45593999997E+02  0.45594000000E+02  0.51100000000E-03 0. -1.
         11   -1    0    0    0    0 -0.00000000000E+00 -0.00000000000E+00 -0.45593999997E+02  0.45594000000E+02  0.51100000000E-03 0.  1.
    9900012    2    1    2    0    0 -0.14052335886E+02  0.37839986727E+02  0.48818059423E+01  0.50528871030E+02  0.30000033983E+02 0.  0.
        -12    1    1    2    0    0  0.14052335886E+02 -0.37839986727E+02 -0.48818059423E+01  0.40659128970E+02  0.00000000000E+00 0.  1.
         11    1    3    3    0    0 -0.42631121236E+01  0.23782943673E+02 -0.11206520497E+01  0.24187980404E+02  0.51100000000E-03 0. -1.
        -11    1    3    3    0    0 -0.52230169770E+01 -0.46713900952E+00 -0.52412592836E+01  0.74141030702E+01  0.51100000000E-03 0.  1.
         12    1    3    3    0    0 -0.45662067851E+01  0.14524182063E+02  0.11243717276E+02  0.18926787556E+02  0.00000000000E+00 0. -1.
</event>
<event>
 7    1  0.2702714E-011  0.5052885E+02  0.7816164E-02  0.1300439E+00
        -11   -1    0    0    0    0  0.00000000000E+00  0.00000000000E+00  0.45593999997E+02  0.45594000000E+02  0.51100000000E-03 0. -1.
         11   -1    0    0    0    0 -0.00000000000E+00 -0.00000000000E+00 -0.45593999997E+02  0.45594000000E+02  0.51100000000E-03 0.  1.
    9900012    2    1    2    0    0  0.66311972045E+01  0.36514970189E+01  0.39948215494E+02  0.50528854313E+02  0.29999983170E+02 0.  0.
        -12    1    1    2    0    0 -0.66311972045E+01 -0.36514970189E+01 -0.39948215494E+02  0.40659145687E+02  0.00000000000E+00 0.  1.
         11    1    3    3    0    0 -0.20114472269E+01  0.47399635731E+01  0.17702816669E+02  0.18436455541E+02  0.51100000000E-03 0. -1.
        -11    1    3    3    0    0 -0.53038530196E+01 -0.12324009785E+01 -0.43954511670E+00  0.54628627290E+01  0.51100000000E-03 0.  1.
         12    1    3    3    0    0  0.13946497451E+02  0.14393442435E+00  0.22684943941E+02  0.26629536043E+02  0.00000000000E+00 0. -1.
</event>
<event>
 7    1  0.2702714E-011  0.5052886E+02  0.7816164E-02  0.1300439E+00
        -11   -1    0    0    0    0  0.00000000000E+00  0.00000000000E+00  0.45593999997E+02  0.45594000000E+02  0.51100000000E-03 0.  1.
         11   -1    0    0    0    0 -0.00000000000E+00 -0.00000000000E+00 -0.45593999997E+02  0.45594000000E+02  0.51100000000E-03 0. -1.
    9900012    2    1    2    0    0  0.98608624195E+01 -0.53388351739E+01 -0.39082293891E+02  0.50528862473E+02  0.30000007973E+02 0.  0.
        -12    1    1    2    0    0 -0.98608624195E+01  0.53388351739E+01  0.39082293891E+02  0.40659137527E+02  0.00000000000E+00 0.  1.
         11    1    3    3    0    0  0.15450074072E+02 -0.80016576873E+01 -0.10792236988E+02  0.20474464438E+02  0.51100000000E-03 0.  1.
        -11    1    3    3    0    0  0.12163542982E+01  0.30556306011E+01 -0.10498648882E+02  0.11001728262E+02  0.51100000000E-03 0. -1.
        -12    1    3    3    0    0 -0.68055659505E+01 -0.39280808773E+00 -0.17791408020E+02  0.19052669772E+02  0.00000000000E+00 0.  1.
</event>
<event>
 7    1  0.2702714E-011  0.5052893E+02  0.7816164E-02  0.1300439E+00
        -11   -1    0    0    0    0  0.00000000000E+00  0.00000000000E+00  0.45593999997E+02  0.45594000000E+02  0.51100000000E-03 0.  1.
         11   -1    0    0    0    0 -0.00000000000E+00 -0.00000000000E+00 -0.45593999997E+02  0.45594000000E+02  0.51100000000E-03 0. -1.
    9900012    2    1    2    0    0 -0.33958045799E+02  0.14256994209E+02 -0.17226402170E+02  0.50528933483E+02  0.30000223813E+02 0.  0.
        -12    1    1    2    0    0  0.33958045799E+02 -0.14256994209E+02  0.17226402170E+02  0.40659066517E+02  0.00000000000E+00 0.  1.
         11    1    3    3    0    0 -0.21875546471E+02  0.49924417486E+01 -0.32095819688E+01  0.22666394171E+02  0.51100000000E-03 0. -1.
        -11    1    3    3    0    0 -0.79064583068E+01 -0.16891542403E+01 -0.13968682421E+02  0.16139684441E+02  0.51100000000E-03 0.  1.
         12    1    3    3    0    0 -0.41760410206E+01  0.10953706701E+02 -0.48137780364E-01  0.11722854871E+02  0.00000000000E+00 0. -1.
</event>
<event>
 7    1  0.2702714E-011  0.5052886E+02  0.7816164E-02  0.1300439E+00
        -11   -1    0    0    0    0  0.00000000000E+00  0.00000000000E+00  0.45593999997E+02  0.45594000000E+02  0.51100000000E-03 0. -1.
         11   -1    0    0    0    0 -0.00000000000E+00 -0.00000000000E+00 -0.45593999997E+02  0.45594000000E+02  0.51100000000E-03 0.  1.
    9900012    2    1    2    0    0  0.40437298287E+02 -0.28259937723E+01  0.31629322893E+01  0.50528862353E+02  0.30000007608E+02 0.  0.
        -12    1    1    2    0    0 -0.40437298287E+02  0.28259937723E+01 -0.31629322893E+01  0.40659137647E+02  0.00000000000E+00 0.  1.
         11    1    3    3    0    0  0.73160776262E+01 -0.71347976403E+01 -0.55857129084E+01  0.11646051612E+02  0.51100000000E-03 0. -1.
        -11    1    3    3    0    0  0.20544649140E+02  0.35507589359E+00 -0.35515217482E+01  0.20852385815E+02  0.51100000000E-03 0.  1.
         12    1    3    3    0    0  0.12576571520E+02  0.39537279744E+01  0.12300166946E+02  0.18030424926E+02  0.00000000000E+00 0. -1.
</event>
<event>
 7    1  0.2702714E-011  0.5052881E+02  0.7816164E-02  0.1300439E+00
        -11   -1    0    0    0    0  0.00000000000E+00  0.00000000000E+00  0.45593999997E+02  0.45594000000E+02  0.51100000000E-03 0.  1.
         11   -1    0    0    0    0 -0.00000000000E+00 -0.00000000000E+00 -0.45593999997E+02  0.45594000000E+02  0.51100000000E-03 0. -1.
    9900012    2    1    2    0    0  0.21016801481E+02 -0.55387806767E+01 -0.34362559157E+02  0.50528812751E+02  0.29999856838E+02 0.  0.
        -12    1    1    2    0    0 -0.21016801481E+02  0.55387806767E+01  0.34362559157E+02  0.40659187249E+02  0.00000000000E+00 0.  1.
         11    1    3    3    0    0  0.68633223283E+01 -0.73418401960E+01 -0.83804387582E+01  0.13085853617E+02  0.51100000000E-03 0.  1.
        -11    1    3    3    0    0  0.18275637855E+02 -0.18796321879E+01 -0.26095660320E+02  0.31914188756E+02  0.51100000000E-03 0. -1.
        -12    1    3    3    0    0 -0.41221587025E+01  0.36826917073E+01  0.11353992062E+00  0.55287703780E+01  0.00000000000E+00 0.  1.
</event>
<event>
 7    1  0.2702714E-011  0.5052884E+02  0.7816164E-02  0.1300439E+00
        -11   -1    0    0    0    0  0.00000000000E+00  0.00000000000E+00  0.45593999997E+02  0.45594000000E+02  0.51100000000E-03 0.  1.
         11   -1    0    0    0    0 -0.00000000000E+00 -0.00000000000E+00 -0.45593999997E+02  0.45594000000E+02  0.51100000000E-03 0. -1.
    9900012    2    1    2    0    0  0.10594120673E+01 -0.37847096272E+02 -0.14820330772E+02  0.50528840462E+02  0.29999941067E+02 0.  0.
        -12    1    1    2    0    0 -0.10594120673E+01  0.37847096272E+02  0.14820330772E+02  0.40659159538E+02  0.00000000000E+00 0.  1.
         11    1    3    3    0    0  0.57468266897E+01 -0.68058635531E+00  0.10420759947E+01  0.58800627062E+01  0.51100000000E-03 0. -1.
        -11    1    3    3    0    0 -0.37461733572E+01 -0.10544873233E+02  0.34908778803E+01  0.11722388620E+02  0.51100000000E-03 0.  1.
         12    1    3    3    0    0 -0.94124126523E+00 -0.26621636684E+02 -0.19353284647E+02  0.32926389135E+02  0.00000000000E+00 0. -1.
</event>
<event>
 7    1  0.2702714E-011  0.5052886E+02  0.7816164E-02  0.1300439E+00
        -11   -1    0    0    0    0  0.00000000000E+00  0.00000000000E+00  0.45593999997E+02  0.45594000000E+02  0.51100000000E-03 0.  1.
         11   -1    0    0    0    0 -0.00000000000E+00 -0.00000000000E+00 -0.45593999997E+02  0.45594000000E+02  0.51100000000E-03 0. -1.
    9900012    2    1    2    0    0 -0.29409914096E+02  0.13710083325E+02 -0.24500123107E+02  0.50528862477E+02  0.30000007984E+02 0.  0.
        -12    1    1    2    0    0  0.29409914096E+02 -0.13710083325E+02  0.24500123107E+02  0.40659137523E+02  0.00000000000E+00 0.  1.
         11    1    3    3    0    0 -0.60526423217E+01 -0.41402814987E+01  0.26307077842E+01  0.77908301014E+01  0.51100000000E-03 0. -1.
        -11    1    3    3    0    0 -0.55672052172E+00  0.82304694768E+01 -0.75269761025E+01  0.11167181160E+02  0.51100000000E-03 0.  1.
         12    1    3    3    0    0 -0.22800551252E+02  0.96198953465E+01 -0.19603854789E+02  0.31570851215E+02  0.00000000000E+00 0. -1.
</event>
<event>
 7    1  0.2702714E-011  0.5052886E+02  0.7816164E-02  0.1300439E+00
        -11   -1    0    0    0    0  0.00000000000E+00  0.00000000000E+00  0.45593999997E+02  0.45594000000E+02  0.51100000000E-03 0.  1.
         11   -1    0    0    0    0 -0.00000000000E+00 -0.00000000000E+00 -0.45593999997E+02  0.45594000000E+02  0.51100000000E-03 0. -1.
    9900012    2    1    2    0    0 -0.36136801435E+02 -0.12904363734E+02  0.13445252748E+02  0.50528857820E+02  0.29999993831E+02 0.  0.
        -12    1    1    2    0    0  0.36136801435E+02  0.12904363734E+02 -0.13445252748E+02  0.40659142180E+02  0.00000000000E+00 0.  1.
         11    1    3    3    0    0 -0.34705310400E+01  0.24973180955E+01  0.52548091144E+01  0.67745259952E+01  0.51100000000E-03 0. -1.
        -11    1    3    3    0    0 -0.36531018837E+01 -0.49873311065E+01 -0.70418798288E+01  0.93705227562E+01  0.51100000000E-03 0.  1.
         12    1    3    3    0    0 -0.29013168511E+02 -0.10414350723E+02  0.15232323462E+02  0.34383809069E+02  0.00000000000E+00 0. -1.
</event>
<event>
 7    1  0.2702714E-011  0.5052884E+02  0.7816164E-02  0.1300439E+00
        -11   -1    0    0    0    0  0.00000000000E+00  0.00000000000E+00  0.45593999997E+02  0.45594000000E+02  0.51100000000E-03 0. -1.
         11   -1    0    0    0    0 -0.00000000000E+00 -0.00000000000E+00 -0.45593999997E+02  0.45594000000E+02  0.51100000000E-03 0.  1.
    9900012    2    1    2    0    0  0.24434451178E+02  0.16700731717E+02  0.27878493781E+02  0.50528840395E+02  0.29999940865E+02 0.  0.
        -12    1    1    2    0    0 -0.24434451178E+02 -0.16700731717E+02 -0.27878493781E+02  0.40659159605E+02  0.00000000000E+00 0.  1.
         11    1    3    3    0    0  0.67473646492E+01  0.88526538677E+01  0.21397225523E+02  0.24119238598E+02  0.51100000000E-03 0.  1.
        -11    1    3    3    0    0  0.23666123547E+01  0.96774598998E+01  0.90539575811E+00  0.10003690613E+02  0.51100000000E-03 0. -1.
        -12    1    3    3    0    0  0.15320474175E+02 -0.18293820509E+01  0.55758725007E+01  0.16405911184E+02  0.00000000000E+00 0.  1.
</event>
<event>
 7    1  0.2702714E-011  0.5052886E+02  0.7816164E-02  0.1300439E+00
        -11   -1    0    0    0    0  0.00000000000E+00  0.00000000000E+00  0.45593999997E+02  0.45594000000E+02  0.51100000000E-03 0.  1.
         11   -1    0    0    0    0 -0.00000000000E+00 -0.00000000000E+00 -0.45593999997E+02  0.45594000000E+02  0.51100000000E-03 0. -1.
    9900012    2    1    2    0    0  0.12977507749E+02 -0.33679707203E+02 -0.18719706008E+02  0.50528858621E+02  0.29999996264E+02 0.  0.
        -12    1    1    2    0    0 -0.12977507749E+02  0.33679707203E+02  0.18719706008E+02  0.40659141379E+02  0.00000000000E+00 0.  1.
         11    1    3    3    0    0  0.59960808446E+01 -0.82200997529E+00 -0.66931718796E+01  0.90237041156E+01  0.51100000000E-03 0. -1.
        -11    1    3    3    0    0  0.31709992803E+01 -0.84801786168E+01  0.60756640574E+01  0.10903318752E+02  0.51100000000E-03 0.  1.
         12    1    3    3    0    0  0.38104276245E+01 -0.24377518611E+02 -0.18102198186E+02  0.30601835753E+02  0.00000000000E+00 0. -1.
</event>
<event>
 7    1  0.2702714E-011  0.5052886E+02  0.7816164E-02  0.1300439E+00
        -11   -1    0    0    0    0  0.00000000000E+00  0.00000000000E+00  0.45593999997E+02  0.45594000000E+02  0.51100000000E-03 0. -1.
         11   -1    0    0    0    0 -0.00000000000E+00 -0.00000000000E+00 -0.45593999997E+02  0.45594000000E+02  0.51100000000E-03 0.  1.
    9900012    2    1    2    0    0 -0.39518865669E+01 -0.17134799442E+02  0.36659879029E+02  0.50528862161E+02  0.30000007026E+02 0.  0.
        -12    1    1    2    0    0  0.39518865669E+01  0.17134799442E+02 -0.36659879029E+02  0.40659137839E+02  0.00000000000E+00 0.  1.
         11    1    3    3    0    0  0.81121087563E+01 -0.74131899921E+01  0.75378636392E+01  0.13325955232E+02  0.51100000000E-03 0. -1.
        -11    1    3    3    0    0 -0.12272975535E+00  0.43541734058E+01  0.33143129441E+01  0.54734412569E+01  0.51100000000E-03 0.  1.
         12    1    3    3    0    0 -0.11941265568E+02 -0.14075782856E+02  0.25807702446E+02  0.31729465673E+02  0.00000000000E+00 0. -1.
</event>
<event>
 7    1  0.2702714E-011  0.5052887E+02  0.7816164E-02  0.1300439E+00
        -11   -1    0    0    0    0  0.00000000000E+00  0.00000000000E+00  0.45593999997E+02  0.45594000000E+02  0.51100000000E-03 0.  1.
         11   -1    0    0    0    0 -0.00000000000E+00 -0.00000000000E+00 -0.45593999997E+02  0.45594000000E+02  0.51100000000E-03 0. -1.
    9900012    2    1    2    0    0 -0.73083237113E+01  0.26590063583E+02 -0.29878453668E+02  0.50528867319E+02  0.30000022702E+02 0.  0.
        -12    1    1    2    0    0  0.73083237113E+01 -0.26590063583E+02  0.29878453668E+02  0.40659132681E+02  0.00000000000E+00 0.  1.
         11    1    3    3    0    0  0.59339094618E+01  0.64617144403E+01 -0.74902515937E+01  0.11535549584E+02  0.51100000000E-03 0.  1.
        -11    1    3    3    0    0 -0.61084811998E+01 -0.34172110960E+01 -0.73951191804E+01  0.10182271957E+02  0.51100000000E-03 0. -1.
         12    1    3    3    0    0 -0.71337519733E+01  0.23545560238E+02 -0.14993082894E+02  0.28811045778E+02  0.00000000000E+00 0. -1.
</event>
<event>
 7    1  0.2702714E-011  0.5052886E+02  0.7816164E-02  0.1300439E+00
        -11   -1    0    0    0    0  0.00000000000E+00  0.00000000000E+00  0.45593999997E+02  0.45594000000E+02  0.51100000000E-03 0. -1.
         11   -1    0    0    0    0 -0.00000000000E+00 -0.00000000000E+00 -0.45593999997E+02  0.45594000000E+02  0.51100000000E-03 0.  1.
    9900012    2    1    2    0    0  0.29500781090E+01  0.39552057225E+01  0.40358630987E+02  0.50528859474E+02  0.29999998857E+02 0.  0.
        -12    1    1    2    0    0 -0.29500781090E+01 -0.39552057225E+01 -0.40358630987E+02  0.40659140526E+02  0.00000000000E+00 0.  1.
         11    1    3    3    0    0  0.23780399354E+01  0.10517574724E+02  0.19379982371E+02  0.22177875664E+02  0.51100000000E-03 0. -1.
        -11    1    3    3    0    0  0.24733700473E+01 -0.10427926189E+02  0.50450724899E+01  0.11845334976E+02  0.51100000000E-03 0.  1.
         12    1    3    3    0    0 -0.19013318737E+01  0.38655571877E+01  0.15933576126E+02  0.16505648834E+02  0.00000000000E+00 0. -1.
</event>
<event>
 7    1  0.2702714E-011  0.5052886E+02  0.7816164E-02  0.1300439E+00
        -11   -1    0    0    0    0  0.00000000000E+00  0.00000000000E+00  0.45593999997E+02  0.45594000000E+02  0.51100000000E-03 0.  1.
         11   -1    0    0    0    0 -0.00000000000E+00 -0.00000000000E+00 -0.45593999997E+02  0.45594000000E+02  0.51100000000E-03 0. -1.
    9900012    2    1    2    0    0 -0.75141469144E+01 -0.21007558780E+02 -0.33990965871E+02  0.50528859692E+02  0.29999999519E+02 0.  0.
        -12    1    1    2    0    0  0.75141469144E+01  0.21007558780E+02  0.33990965871E+02  0.40659140308E+02  0.00000000000E+00 0.  1.
         11    1    3    3    0    0 -0.32081448925E+01  0.25332531287E+00 -0.58206936471E+01  0.66510782705E+01  0.51100000000E-03 0. -1.
        -11    1    3    3    0    0 -0.64897202204E+01 -0.31128219912E+01 -0.24098997408E+02  0.25150900692E+02  0.51100000000E-03 0.  1.
         12    1    3    3    0    0  0.21837181985E+01 -0.18148062101E+02 -0.40712748160E+01  0.18726880729E+02  0.00000000000E+00 0. -1.
</event>
<event>
 7    1  0.2702714E-011  0.5052886E+02  0.7816164E-02  0.1300439E+00
        -11   -1    0    0    0    0  0.00000000000E+00  0.00000000000E+00  0.45593999997E+02  0.45594000000E+02  0.51100000000E-03 0. -1.
         11   -1    0    0    0    0 -0.00000000000E+00 -0.00000000000E+00 -0.45593999997E+02  0.45594000000E+02  0.51100000000E-03 0.  1.
    9900012    2    1    2    0    0  0.47887843947E+01  0.28674499322E+02  0.28425456100E+02  0.50528856848E+02  0.29999990876E+02 0.  0.
        -12    1    1    2    0    0 -0.47887843947E+01 -0.28674499322E+02 -0.28425456100E+02  0.40659143152E+02  0.00000000000E+00 0.  1.
         11    1    3    3    0    0  0.13813659701E+02  0.14376835850E+02  0.14013076148E+02  0.24369589795E+02  0.51100000000E-03 0. -1.
        -11    1    3    3    0    0 -0.14556806147E+01 -0.27869932201E+01  0.20211746283E+01  0.37378448871E+01  0.51100000000E-03 0.  1.
        -12    1    3    3    0    0 -0.75691946919E+01  0.17084656692E+02  0.12391205324E+02  0.22421422166E+02  0.00000000000E+00 0.  1.
</event>
<event>
 7    1  0.2702714E-011  0.5052886E+02  0.7816164E-02  0.1300439E+00
        -11   -1    0    0    0    0  0.00000000000E+00  0.00000000000E+00  0.45593999997E+02  0.45594000000E+02  0.51100000000E-03 0.  1.
         11   -1    0    0    0    0 -0.00000000000E+00 -0.00000000000E+00 -0.45593999997E+02  0.45594000000E+02  0.51100000000E-03 0. -1.
    9900012    2    1    2    0    0 -0.41347485749E+01  0.25040339418E+02 -0.31765565981E+02  0.50528856797E+02  0.29999990719E+02 0.  0.
        -12    1    1    2    0    0  0.41347485749E+01 -0.25040339418E+02  0.31765565981E+02  0.40659143203E+02  0.00000000000E+00 0.  1.
         11    1    3    3    0    0  0.46548049850E+01  0.22348226548E+02 -0.19591952150E+02  0.30082470454E+02  0.51100000000E-03 0. -1.
        -11    1    3    3    0    0  0.28621772317E+01 -0.14896318071E+01 -0.55157149797E+01  0.63901622378E+01  0.51100000000E-03 0.  1.
        -12    1    3    3    0    0 -0.11651730792E+02  0.41817446767E+01 -0.66578988516E+01  0.14056224105E+02  0.00000000000E+00 0.  1.
</event>
<event>
 7    1  0.2702714E-011  0.5052886E+02  0.7816164E-02  0.1300439E+00
        -11   -1    0    0    0    0  0.00000000000E+00  0.00000000000E+00  0.45593999997E+02  0.45594000000E+02  0.51100000000E-03 0. -1.
         11   -1    0    0    0    0 -0.00000000000E+00 -0.00000000000E+00 -0.45593999997E+02  0.45594000000E+02  0.51100000000E-03 0.  1.
    9900012    2    1    2    0    0 -0.25987609996E+02 -0.28580931025E+02  0.12686231196E+02  0.50528856458E+02  0.29999989691E+02 0.  0.
        -12    1    1    2    0    0  0.25987609996E+02  0.28580931025E+02 -0.12686231196E+02  0.40659143542E+02  0.00000000000E+00 0.  1.
         11    1    3    3    0    0 -0.15329209504E+02 -0.12417518987E+02  0.14109884640E+02  0.24254242652E+02  0.51100000000E-03 0. -1.
        -11    1    3    3    0    0  0.22593791459E+01  0.24532669794E+01 -0.13950304321E+01  0.36151657174E+01  0.51100000000E-03 0.  1.
        -12    1    3    3    0    0 -0.12917779638E+02 -0.18616679018E+02 -0.28623012024E-01  0.22659448089E+02  0.00000000000E+00 0.  1.
</event>
<event>
 7    1  0.2702714E-011  0.5052887E+02  0.7816164E-02  0.1300439E+00
        -11   -1    0    0    0    0  0.00000000000E+00  0.00000000000E+00  0.45593999997E+02  0.45594000000E+02  0.51100000000E-03 0.  1.
         11   -1    0    0    0    0 -0.00000000000E+00 -0.00000000000E+00 -0.45593999997E+02  0.45594000000E+02  0.51100000000E-03 0. -1.
    9900012    2    1    2    0    0  0.15889550656E+02  0.10367611439E+02 -0.35961088050E+02  0.50528867683E+02  0.30000023810E+02 0.  0.
        -12    1    1    2    0    0 -0.15889550656E+02 -0.10367611439E+02  0.35961088050E+02  0.40659132317E+02  0.00000000000E+00 0.  1.
         11    1    3    3    0    0  0.12032343258E+02  0.55456061211E+01 -0.13390594197E+02  0.18837171888E+02  0.51100000000E-03 0. -1.
        -11    1    3    3    0    0  0.10606829360E+02  0.70402846829E+01 -0.68874325621E+01  0.14474362337E+02  0.51100000000E-03 0.  1.
         12    1    3    3    0    0 -0.67496219622E+01 -0.22182793646E+01 -0.15683061291E+02  0.17217333459E+02  0.00000000000E+00 0. -1.
</event>
<event>
 7    1  0.2702714E-011  0.5052885E+02  0.7816164E-02  0.1300439E+00
        -11   -1    0    0    0    0  0.00000000000E+00  0.00000000000E+00  0.45593999997E+02  0.45594000000E+02  0.51100000000E-03 0.  1.
         11   -1    0    0    0    0 -0.00000000000E+00 -0.00000000000E+00 -0.45593999997E+02  0.45594000000E+02  0.51100000000E-03 0. -1.
    9900012    2    1    2    0    0  0.49760831357E+01 -0.65318771071E+01 -0.39821342860E+02  0.50528853807E+02  0.29999981633E+02 0.  0.
        -12    1    1    2    0    0 -0.49760831357E+01  0.65318771071E+01  0.39821342860E+02  0.40659146193E+02  0.00000000000E+00 0.  1.
         11    1    3    3    0    0  0.34854386340E+01  0.24824133077E+01 -0.28243615719E+01  0.51271509488E+01  0.51100000000E-03 0. -1.
        -11    1    3    3    0    0  0.79299999186E+01 -0.13976458512E+02 -0.15125451539E+02  0.22068202821E+02  0.51100000000E-03 0.  1.
         12    1    3    3    0    0 -0.64393554168E+01  0.49621680970E+01 -0.21871529750E+02  0.23333500038E+02  0.00000000000E+00 0. -1.
</event>
<event>
 7    1  0.2800105E-011  0.5052887E+02  0.7816164E-02  0.1300439E+00
        -11   -1    0    0    0    0  0.00000000000E+00  0.00000000000E+00  0.45593999997E+02  0.45594000000E+02  0.51100000000E-03 0.  1.
         11   -1    0    0    0    0 -0.00000000000E+00 -0.00000000000E+00 -0.45593999997E+02  0.45594000000E+02  0.51100000000E-03 0. -1.
    9900012    2    1    2    0    0 -0.17919894529E+02 -0.32956746075E+02 -0.15681053698E+02  0.50528866009E+02  0.30000018722E+02 0.  0.
        -12    1    1    2    0    0  0.17919894529E+02  0.32956746075E+02  0.15681053698E+02  0.40659133991E+02  0.00000000000E+00 0.  1.
         11    1    3    3    0    0 -0.12754663152E+02 -0.94610534060E+01 -0.15160211323E+02  0.21955067098E+02  0.51100000000E-03 0. -1.
        -11    1    3    3    0    0  0.12141512571E+01  0.16372417691E+01 -0.16453214284E+01  0.26195050581E+01  0.51100000000E-03 0.  1.
         12    1    3    3    0    0 -0.63793826337E+01 -0.25132934438E+02  0.11244790530E+01  0.25954293853E+02  0.00000000000E+00 0. -1.
</event>
<event>
 7    1  0.2702714E-011  0.5052886E+02  0.7816164E-02  0.1300439E+00
        -11   -1    0    0    0    0  0.00000000000E+00  0.00000000000E+00  0.45593999997E+02  0.45594000000E+02  0.51100000000E-03 0.  1.
         11   -1    0    0    0    0 -0.00000000000E+00 -0.00000000000E+00 -0.45593999997E+02  0.45594000000E+02  0.51100000000E-03 0. -1.
    9900012    2    1    2    0    0  0.64018978164E+01 -0.26949852439E+02 -0.29763849542E+02  0.50528861031E+02  0.30000003591E+02 0.  0.
        -12    1    1    2    0    0 -0.64018978164E+01  0.26949852439E+02  0.29763849542E+02  0.40659138969E+02  0.00000000000E+00 0.  1.
         11    1    3    3    0    0  0.45746697905E+01  0.33276608311E+01 -0.54214257922E+01  0.78353550130E+01  0.51100000000E-03 0. -1.
        -11    1    3    3    0    0 -0.65332993845E+01 -0.67526354948E+01 -0.10711554978E+02  0.14248491053E+02  0.51100000000E-03 0.  1.
         12    1    3    3    0    0  0.83605274105E+01 -0.23524877775E+02 -0.13630868772E+02  0.28445014966E+02  0.00000000000E+00 0. -1.
</event>
<event>
 7    1  0.2702714E-011  0.5052885E+02  0.7816164E-02  0.1300439E+00
        -11   -1    0    0    0    0  0.00000000000E+00  0.00000000000E+00  0.45593999997E+02  0.45594000000E+02  0.51100000000E-03 0.  1.
         11   -1    0    0    0    0 -0.00000000000E+00 -0.00000000000E+00 -0.45593999997E+02  0.45594000000E+02  0.51100000000E-03 0. -1.
    9900012    2    1    2    0    0  0.10121905652E+01  0.23441317723E+02 -0.33206120753E+02  0.50528851438E+02  0.29999974432E+02 0.  0.
        -12    1    1    2    0    0 -0.10121905652E+01 -0.23441317723E+02  0.33206120753E+02  0.40659148562E+02  0.00000000000E+00 0.  1.
         11    1    3    3    0    0  0.87637143184E+00  0.11922283458E+02 -0.32000172944E+02  0.34160209871E+02  0.51100000000E-03 0. -1.
        -11    1    3    3    0    0  0.17237364127E+01  0.13586703032E+02 -0.13201237252E+01  0.13759087667E+02  0.51100000000E-03 0.  1.
        -12    1    3    3    0    0 -0.15879172794E+01 -0.20676687674E+01  0.11417591655E+00  0.26095539001E+01  0.00000000000E+00 0.  1.
</event>
<event>
 7    1  0.2702714E-011  0.5052886E+02  0.7816164E-02  0.1300439E+00
        -11   -1    0    0    0    0  0.00000000000E+00  0.00000000000E+00  0.45593999997E+02  0.45594000000E+02  0.51100000000E-03 0.  1.
         11   -1    0    0    0    0 -0.00000000000E+00 -0.00000000000E+00 -0.45593999997E+02  0.45594000000E+02  0.51100000000E-03 0. -1.
    9900012    2    1    2    0    0 -0.77737857045E+00 -0.40647104414E+02  0.61207525538E+00  0.50528855263E+02  0.29999986056E+02 0.  0.
        -12    1    1    2    0    0  0.77737857045E+00  0.40647104414E+02 -0.61207525538E+00  0.40659144737E+02  0.00000000000E+00 0.  1.
         11    1    3    3    0    0 -0.52988246713E+01 -0.55300508305E+01  0.85307561552E+00  0.77062794753E+01  0.51100000000E-03 0. -1.
        -11    1    3    3    0    0  0.77311408175E+01 -0.44973106020E+01  0.68056794048E+01  0.11238932930E+02  0.51100000000E-03 0.  1.
         12    1    3    3    0    0 -0.32096947167E+01 -0.30619742981E+02 -0.70466797650E+01  0.31583642857E+02  0.00000000000E+00 0. -1.
</event>
<event>
 7    1  0.2702714E-011  0.5052885E+02  0.7816164E-02  0.1300439E+00
        -11   -1    0    0    0    0  0.00000000000E+00  0.00000000000E+00  0.45593999997E+02  0.45594000000E+02  0.51100000000E-03 0.  1.
         11   -1    0    0    0    0 -0.00000000000E+00 -0.00000000000E+00 -0.45593999997E+02  0.45594000000E+02  0.51100000000E-03 0. -1.
    9900012    2    1    2    0    0  0.18886277389E+02  0.32147716777E+02 -0.16217257151E+02  0.50528848545E+02  0.29999965637E+02 0.  0.
        -12    1    1    2    0    0 -0.18886277389E+02 -0.32147716777E+02  0.16217257151E+02  0.40659151455E+02  0.00000000000E+00 0.  1.
         11    1    3    3    0    0 -0.27628987691E+01  0.67354233999E+01 -0.26588315679E+01  0.77504144116E+01  0.51100000000E-03 0. -1.
        -11    1    3    3    0    0  0.10510044863E+02  0.17476863118E+02  0.37324816719E+01  0.20732419231E+02  0.51100000000E-03 0.  1.
        -12    1    3    3    0    0  0.11139131294E+02  0.79354302586E+01 -0.17290907255E+02  0.22046014902E+02  0.00000000000E+00 0.  1.
</event>
<event>
 7    1  0.2702714E-011  0.5052886E+02  0.7816164E-02  0.1300439E+00
        -11   -1    0    0    0    0  0.00000000000E+00  0.00000000000E+00  0.45593999997E+02  0.45594000000E+02  0.51100000000E-03 0. -1.
         11   -1    0    0    0    0 -0.00000000000E+00 -0.00000000000E+00 -0.45593999997E+02  0.45594000000E+02  0.51100000000E-03 0.  1.
    9900012    2    1    2    0    0  0.13618417868E+02 -0.22440232285E+02  0.31050615385E+02  0.50528855321E+02  0.29999986235E+02 0.  0.
        -12    1    1    2    0    0 -0.13618417868E+02  0.22440232285E+02 -0.31050615385E+02  0.40659144679E+02  0.00000000000E+00 0.  1.
         11    1    3    3    0    0  0.28854309990E+00 -0.11280618703E+00 -0.52525932105E+01  0.52617219664E+01  0.51100000000E-03 0.  1.
        -11    1    3    3    0    0  0.42419519261E+01 -0.13764458972E+02  0.17051083142E+02  0.22320258142E+02  0.51100000000E-03 0. -1.
        -12    1    3    3    0    0  0.90879228417E+01 -0.85629671261E+01  0.19252125453E+02  0.22946875213E+02  0.00000000000E+00 0.  1.
</event>
<event>
 7    1  0.5599409E-011  0.5052885E+02  0.7816164E-02  0.1300439E+00
        -11   -1    0    0    0    0  0.00000000000E+00  0.00000000000E+00  0.45593999997E+02  0.45594000000E+02  0.51100000000E-03 0.  1.
         11   -1    0    0    0    0 -0.00000000000E+00 -0.00000000000E+00 -0.45593999997E+02  0.45594000000E+02  0.51100000000E-03 0. -1.
    9900012    2    1    2    0    0 -0.75690716553E+01  0.38311458750E+02  0.11318464197E+02  0.50528851595E+02  0.29999974907E+02 0.  0.
        -12    1    1    2    0    0  0.75690716553E+01 -0.38311458750E+02 -0.11318464197E+02  0.40659148405E+02  0.00000000000E+00 0.  1.
         11    1    3    3    0    0 -0.33479589759E+01  0.28845388070E+02  0.25616602233E+01  0.29151798325E+02  0.51100000000E-03 0. -1.
        -11    1    3    3    0    0 -0.20228270291E+01  0.46426037629E+01 -0.47029599031E+01  0.69111092453E+01  0.51100000000E-03 0.  1.
        -12    1    3    3    0    0 -0.21982856503E+01  0.48234669167E+01  0.13459763877E+02  0.14465944024E+02  0.00000000000E+00 0.  1.
</event>
<event>
 7    1  0.2702714E-011  0.5052887E+02  0.7816164E-02  0.1300439E+00
        -11   -1    0    0    0    0  0.00000000000E+00  0.00000000000E+00  0.45593999997E+02  0.45594000000E+02  0.51100000000E-03 0.  1.
         11   -1    0    0    0    0 -0.00000000000E+00 -0.00000000000E+00 -0.45593999997E+02  0.45594000000E+02  0.51100000000E-03 0. -1.
    9900012    2    1    2    0    0 -0.14636854282E+02 -0.37738339048E+02 -0.38399797561E+01  0.50528865948E+02  0.30000018534E+02 0.  0.
        -12    1    1    2    0    0  0.14636854282E+02  0.37738339048E+02  0.38399797561E+01  0.40659134052E+02  0.00000000000E+00 0.  1.
         11    1    3    3    0    0 -0.26183829251E+01 -0.13214693899E+02 -0.11312372606E+02  0.17591300072E+02  0.51100000000E-03 0. -1.
        -11    1    3    3    0    0 -0.14907233697E+02 -0.14249685784E+02  0.14262603031E+01  0.20671559694E+02  0.51100000000E-03 0.  1.
         12    1    3    3    0    0  0.28887623401E+01 -0.10273959364E+02  0.60461325467E+01  0.12266006182E+02  0.00000000000E+00 0. -1.
</event>
<event>
 7    1  0.2702714E-011  0.5052886E+02  0.7816164E-02  0.1300439E+00
        -11   -1    0    0    0    0  0.00000000000E+00  0.00000000000E+00  0.45593999997E+02  0.45594000000E+02  0.51100000000E-03 0.  1.
         11   -1    0    0    0    0 -0.00000000000E+00 -0.00000000000E+00 -0.45593999997E+02  0.45594000000E+02  0.51100000000E-03 0. -1.
    9900012    2    1    2    0    0 -0.86049796004E+01  0.36888050541E+02 -0.14778090394E+02  0.50528857088E+02  0.29999991604E+02 0.  0.
        -12    1    1    2    0    0  0.86049796004E+01 -0.36888050541E+02  0.14778090394E+02  0.40659142912E+02  0.00000000000E+00 0.  1.
         11    1    3    3    0    0 -0.12327771579E+02  0.16957699833E+02 -0.11957652661E+02  0.24135513111E+02  0.51100000000E-03 0.  1.
        -11    1    3    3    0    0  0.35313616452E+01  0.21010297709E+02 -0.67222103204E+01  0.22340349969E+02  0.51100000000E-03 0. -1.
        -12    1    3    3    0    0  0.19143033287E+00 -0.10799470010E+01  0.39017725877E+01  0.40529940073E+01  0.00000000000E+00 0.  1.
</event>
<event>
 7    1  0.2702714E-011  0.5052885E+02  0.7816164E-02  0.1300439E+00
        -11   -1    0    0    0    0  0.00000000000E+00  0.00000000000E+00  0.45593999997E+02  0.45594000000E+02  0.51100000000E-03 0.  1.
         11   -1    0    0    0    0 -0.00000000000E+00 -0.00000000000E+00 -0.45593999997E+02  0.45594000000E+02  0.51100000000E-03 0. -1.
    9900012    2    1    2    0    0 -0.65683361282E+01 -0.24806819715E+01 -0.40048342731E+02  0.50528848779E+02  0.29999966348E+02 0.  0.
        -12    1    1    2    0    0  0.65683361282E+01  0.24806819715E+01  0.40048342731E+02  0.40659151221E+02  0.00000000000E+00 0.  1.
         11    1    3    3    0    0 -0.36821174899E+01 -0.54716012124E+00 -0.19937947546E+02  0.20282483231E+02  0.51100000000E-03 0. -1.
        -11    1    3    3    0    0  0.36701340034E+01 -0.95045642626E+01 -0.16891735246E+02  0.19726564458E+02  0.51100000000E-03 0.  1.
         12    1    3    3    0    0 -0.65563526417E+01  0.75710424124E+01 -0.32186599390E+01  0.10519801090E+02  0.00000000000E+00 0. -1.
</event>
<event>
 7    1  0.2702714E-011  0.5052889E+02  0.7816164E-02  0.1300439E+00
        -11   -1    0    0    0    0  0.00000000000E+00  0.00000000000E+00  0.45593999997E+02  0.45594000000E+02  0.51100000000E-03 0.  1.
         11   -1    0    0    0    0 -0.00000000000E+00 -0.00000000000E+00 -0.45593999997E+02  0.45594000000E+02  0.51100000000E-03 0. -1.
    9900012    2    1    2    0    0  0.14086968941E+01  0.25315551856E+02 -0.31785243951E+02  0.50528888774E+02  0.30000087917E+02 0.  0.
        -12    1    1    2    0    0 -0.14086968941E+01 -0.25315551856E+02  0.31785243951E+02  0.40659111226E+02  0.00000000000E+00 0.  1.
         11    1    3    3    0    0  0.41588481533E+01  0.25215399005E+02 -0.15271315596E+02  0.29771218404E+02  0.51100000000E-03 0. -1.
        -11    1    3    3    0    0  0.42405165248E+00  0.55396592564E+01 -0.11259634032E+02  0.12555755782E+02  0.51100000000E-03 0.  1.
        -12    1    3    3    0    0 -0.31742029117E+01 -0.54395064061E+01 -0.52542943231E+01  0.82019145875E+01  0.00000000000E+00 0.  1.
</event>
<event>
 7    1  0.2702714E-011  0.5052886E+02  0.7816164E-02  0.1300439E+00
        -11   -1    0    0    0    0  0.00000000000E+00  0.00000000000E+00  0.45593999997E+02  0.45594000000E+02  0.51100000000E-03 0.  1.
         11   -1    0    0    0    0 -0.00000000000E+00 -0.00000000000E+00 -0.45593999997E+02  0.45594000000E+02  0.51100000000E-03 0. -1.
    9900012    2    1    2    0    0  0.44800373836E+01  0.36677495073E+02 -0.16966334364E+02  0.50528857343E+02  0.29999992381E+02 0.  0.
        -12    1    1    2    0    0 -0.44800373836E+01 -0.36677495073E+02  0.16966334364E+02  0.40659142657E+02  0.00000000000E+00 0.  1.
         11    1    3    3    0    0  0.45520783423E+01  0.33364187432E+02 -0.10021258704E+02  0.35132834308E+02  0.51100000000E-03 0. -1.
        -11    1    3    3    0    0  0.48167123475E+01  0.13475498668E+01  0.16906814123E+01  0.52796791930E+01  0.51100000000E-03 0.  1.
        -12    1    3    3    0    0 -0.48887533062E+01  0.19657577743E+01 -0.86357570730E+01  0.10116343842E+02  0.00000000000E+00 0.  1.
</event>
<event>
 7    1  0.2702714E-011  0.5052886E+02  0.7816164E-02  0.1300439E+00
        -11   -1    0    0    0    0  0.00000000000E+00  0.00000000000E+00  0.45593999997E+02  0.45594000000E+02  0.51100000000E-03 0.  1.
         11   -1    0    0    0    0 -0.00000000000E+00 -0.00000000000E+00 -0.45593999997E+02  0.45594000000E+02  0.51100000000E-03 0. -1.
    9900012    2    1    2    0    0  0.17047766470E+02 -0.18601416725E+02 -0.31883020896E+02  0.50528855060E+02  0.29999985439E+02 0.  0.
        -12    1    1    2    0    0 -0.17047766470E+02  0.18601416725E+02  0.31883020896E+02  0.40659144940E+02  0.00000000000E+00 0.  1.
         11    1    3    3    0    0  0.15607474639E+01 -0.19446526760E+01  0.48029938137E+01  0.54116870301E+01  0.51100000000E-03 0. -1.
        -11    1    3    3    0    0  0.22072072157E+01 -0.14712264928E+01  0.60377327730E+00  0.27204436252E+01  0.51100000000E-03 0.  1.
         12    1    3    3    0    0  0.13279811791E+02 -0.15185537557E+02 -0.37289787987E+02  0.42396724404E+02  0.00000000000E+00 0. -1.
</event>
<event>
 7    1  0.2702714E-011  0.5052887E+02  0.7816164E-02  0.1300439E+00
        -11   -1    0    0    0    0  0.00000000000E+00  0.00000000000E+00  0.45593999997E+02  0.45594000000E+02  0.51100000000E-03 0.  1.
         11   -1    0    0    0    0 -0.00000000000E+00 -0.00000000000E+00 -0.45593999997E+02  0.45594000000E+02  0.51100000000E-03 0. -1.
    9900012    2    1    2    0    0  0.23083654519E+02  0.85058486837E+01 -0.32372218210E+02  0.50528867205E+02  0.30000022356E+02 0.  0.
        -12    1    1    2    0    0 -0.23083654519E+02 -0.85058486837E+01  0.32372218210E+02  0.40659132795E+02  0.00000000000E+00 0.  1.
         11    1    3    3    0    0  0.16121204456E+02 -0.23835222512E+01 -0.27665631934E+02  0.32108590782E+02  0.51100000000E-03 0. -1.
        -11    1    3    3    0    0  0.25928563754E+01 -0.25288433069E+01 -0.28972254423E+00  0.36334408029E+01  0.51100000000E-03 0.  1.
        -12    1    3    3    0    0  0.43695936876E+01  0.13418214242E+02 -0.44168637324E+01  0.14786835620E+02  0.00000000000E+00 0.  1.
</event>
<event>
 7    1  0.2702714E-011  0.5052886E+02  0.7816164E-02  0.1300439E+00
        -11   -1    0    0    0    0  0.00000000000E+00  0.00000000000E+00  0.45593999997E+02  0.45594000000E+02  0.51100000000E-03 0.  1.
         11   -1    0    0    0    0 -0.00000000000E+00 -0.00000000000E+00 -0.45593999997E+02  0.45594000000E+02  0.51100000000E-03 0. -1.
    9900012    2    1    2    0    0  0.26145648395E+02 -0.12543020537E+02 -0.28499877186E+02  0.50528864572E+02  0.30000014352E+02 0.  0.
        -12    1    1    2    0    0 -0.26145648395E+02  0.12543020537E+02  0.28499877186E+02  0.40659135428E+02  0.00000000000E+00 0.  1.
         11    1    3    3    0    0 -0.38480202785E+01 -0.59826754949E+01 -0.13819160826E+02  0.15542486041E+02  0.51100000000E-03 0. -1.
        -11    1    3    3    0    0  0.34052706523E+01  0.18270022900E+01 -0.21178503873E+01  0.44067103498E+01  0.51100000000E-03 0.  1.
         12    1    3    3    0    0  0.26588398021E+02 -0.83873473320E+01 -0.12562865973E+02  0.30579668180E+02  0.00000000000E+00 0. -1.
</event>
<event>
 7    1  0.2702714E-011  0.5052885E+02  0.7816164E-02  0.1300439E+00
        -11   -1    0    0    0    0  0.00000000000E+00  0.00000000000E+00  0.45593999997E+02  0.45594000000E+02  0.51100000000E-03 0.  1.
         11   -1    0    0    0    0 -0.00000000000E+00 -0.00000000000E+00 -0.45593999997E+02  0.45594000000E+02  0.51100000000E-03 0. -1.
    9900012    2    1    2    0    0  0.31411933022E+02 -0.41912143269E+01 -0.25473331439E+02  0.50528850620E+02  0.29999971943E+02 0.  0.
        -12    1    1    2    0    0 -0.31411933022E+02  0.41912143269E+01  0.25473331439E+02  0.40659149380E+02  0.00000000000E+00 0.  1.
         11    1    3    3    0    0 -0.17260375708E+01  0.20135862024E+01 -0.69145527848E+01  0.74057258635E+01  0.51100000000E-03 0. -1.
        -11    1    3    3    0    0  0.22068600497E+02 -0.56679661981E+01 -0.21843691660E+02  0.31564154262E+02  0.51100000000E-03 0.  1.
         12    1    3    3    0    0  0.11069370096E+02 -0.53683433121E+00  0.32849130053E+01  0.11558970494E+02  0.00000000000E+00 0. -1.
</event>
<event>
 7    1  0.2702714E-011  0.5052887E+02  0.7816164E-02  0.1300439E+00
        -11   -1    0    0    0    0  0.00000000000E+00  0.00000000000E+00  0.45593999997E+02  0.45594000000E+02  0.51100000000E-03 0. -1.
         11   -1    0    0    0    0 -0.00000000000E+00 -0.00000000000E+00 -0.45593999997E+02  0.45594000000E+02  0.51100000000E-03 0.  1.
    9900012    2    1    2    0    0 -0.32727692347E+02 -0.20399554209E+02 -0.12881047620E+02  0.50528867618E+02  0.30000023612E+02 0.  0.
        -12    1    1    2    0    0  0.32727692347E+02  0.20399554209E+02  0.12881047620E+02  0.40659132382E+02  0.00000000000E+00 0.  1.
         11    1    3    3    0    0 -0.18572754019E-01 -0.70020512208E+00  0.28004051760E+01  0.28866765616E+01  0.51100000000E-03 0. -1.
        -11    1    3    3    0    0 -0.24143517175E+02 -0.18986352363E+01 -0.35943673195E+01  0.24483335435E+02  0.51100000000E-03 0.  1.
        -12    1    3    3    0    0 -0.85656024175E+01 -0.17800713851E+02 -0.12087085477E+02  0.23158855621E+02  0.00000000000E+00 0.  1.
</event>
<event>
 7    1  0.2702714E-011  0.5052885E+02  0.7816164E-02  0.1300439E+00
        -11   -1    0    0    0    0  0.00000000000E+00  0.00000000000E+00  0.45593999997E+02  0.45594000000E+02  0.51100000000E-03 0.  1.
         11   -1    0    0    0    0 -0.00000000000E+00 -0.00000000000E+00 -0.45593999997E+02  0.45594000000E+02  0.51100000000E-03 0. -1.
    9900012    2    1    2    0    0 -0.18178287493E+02 -0.28069695831E+02 -0.23125928353E+02  0.50528849463E+02  0.29999968426E+02 0.  0.
        -12    1    1    2    0    0  0.18178287493E+02  0.28069695831E+02  0.23125928353E+02  0.40659150537E+02  0.00000000000E+00 0.  1.
         11    1    3    3    0    0 -0.87201802382E+01 -0.33931217476E+01  0.94824279701E+00  0.94049977801E+01  0.51100000000E-03 0. -1.
        -11    1    3    3    0    0  0.94820812665E+00  0.28579458352E+01 -0.56375021163E+01  0.63912740061E+01  0.51100000000E-03 0.  1.
         12    1    3    3    0    0 -0.10406315381E+02 -0.27534519919E+02 -0.18436669034E+02  0.34732577676E+02  0.00000000000E+00 0. -1.
</event>
<event>
 7    1  0.2702714E-011  0.5052886E+02  0.7816164E-02  0.1300439E+00
        -11   -1    0    0    0    0  0.00000000000E+00  0.00000000000E+00  0.45593999997E+02  0.45594000000E+02  0.51100000000E-03 0.  1.
         11   -1    0    0    0    0 -0.00000000000E+00 -0.00000000000E+00 -0.45593999997E+02  0.45594000000E+02  0.51100000000E-03 0. -1.
    9900012    2    1    2    0    0 -0.15005864647E+02  0.35030450335E+02 -0.14172402795E+02  0.50528862953E+02  0.30000009431E+02 0.  0.
        -12    1    1    2    0    0  0.15005864647E+02 -0.35030450335E+02  0.14172402795E+02  0.40659137047E+02  0.00000000000E+00 0.  1.
         11    1    3    3    0    0 -0.79800552778E+01  0.78695621274E+01 -0.12829681206E+02  0.17035610069E+02  0.51100000000E-03 0. -1.
        -11    1    3    3    0    0  0.51087727291E+01  0.36469617782E+01  0.24976775334E+01  0.67556111737E+01  0.51100000000E-03 0.  1.
         12    1    3    3    0    0 -0.12134582098E+02  0.23513926429E+02 -0.38403991226E+01  0.26737641710E+02  0.00000000000E+00 0. -1.
</event>
<event>
 7    1  0.2702714E-011  0.5052886E+02  0.7816164E-02  0.1300439E+00
        -11   -1    0    0    0    0  0.00000000000E+00  0.00000000000E+00  0.45593999997E+02  0.45594000000E+02  0.51100000000E-03 0.  1.
         11   -1    0    0    0    0 -0.00000000000E+00 -0.00000000000E+00 -0.45593999997E+02  0.45594000000E+02  0.51100000000E-03 0. -1.
    9900012    2    1    2    0    0 -0.86676728399E+01 -0.25501603851E+02 -0.30458252404E+02  0.50528862147E+02  0.30000006982E+02 0.  0.
        -12    1    1    2    0    0  0.86676728399E+01  0.25501603851E+02  0.30458252404E+02  0.40659137853E+02  0.00000000000E+00 0.  1.
         11    1    3    3    0    0 -0.11548408220E+01  0.20561623665E+01 -0.27842290687E+01  0.36487522209E+01  0.51100000000E-03 0. -1.
        -11    1    3    3    0    0 -0.62679110974E+01  0.23929092352E+01 -0.10568661450E+01  0.67918841600E+01  0.51100000000E-03 0.  1.
         12    1    3    3    0    0 -0.12449209205E+01 -0.29950675453E+02 -0.26617157190E+02  0.40088225766E+02  0.00000000000E+00 0. -1.
</event>
<event>
 7    1  0.2702714E-011  0.5052885E+02  0.7816164E-02  0.1300439E+00
        -11   -1    0    0    0    0  0.00000000000E+00  0.00000000000E+00  0.45593999997E+02  0.45594000000E+02  0.51100000000E-03 0.  1.
         11   -1    0    0    0    0 -0.00000000000E+00 -0.00000000000E+00 -0.45593999997E+02  0.45594000000E+02  0.51100000000E-03 0. -1.
    9900012    2    1    2    0    0 -0.30871088832E+02 -0.11889111933E+02 -0.23638770385E+02  0.50528848834E+02  0.29999966517E+02 0.  0.
        -12    1    1    2    0    0  0.30871088832E+02  0.11889111933E+02  0.23638770385E+02  0.40659151166E+02  0.00000000000E+00 0.  1.
         11    1    3    3    0    0 -0.40512432910E+01 -0.12079550683E+01 -0.43166923300E+01  0.60419831664E+01  0.51100000000E-03 0. -1.
        -11    1    3    3    0    0  0.28455003539E+01 -0.54458141540E+01  0.31496945766E+01  0.69046607629E+01  0.51100000000E-03 0.  1.
        -12    1    3    3    0    0 -0.29665345895E+02 -0.52353427106E+01 -0.22471772631E+02  0.37582204905E+02  0.00000000000E+00 0.  1.
</event>
<event>
 7    1  0.2702714E-011  0.5052886E+02  0.7816164E-02  0.1300439E+00
        -11   -1    0    0    0    0  0.00000000000E+00  0.00000000000E+00  0.45593999997E+02  0.45594000000E+02  0.51100000000E-03 0.  1.
         11   -1    0    0    0    0 -0.00000000000E+00 -0.00000000000E+00 -0.45593999997E+02  0.45594000000E+02  0.51100000000E-03 0. -1.
    9900012    2    1    2    0    0  0.72815437300E+01  0.30555817809E+02 -0.25816411238E+02  0.50528856252E+02  0.29999989065E+02 0.  0.
        -12    1    1    2    0    0 -0.72815437300E+01 -0.30555817809E+02  0.25816411238E+02  0.40659143748E+02  0.00000000000E+00 0.  1.
         11    1    3    3    0    0  0.52707689621E+01  0.16477884980E+02 -0.18694606226E+01  0.17401051179E+02  0.51100000000E-03 0. -1.
        -11    1    3    3    0    0 -0.60403587544E+01  0.84359015678E+00 -0.23200855076E+01  0.65253639943E+01  0.51100000000E-03 0.  1.
         12    1    3    3    0    0  0.80511335224E+01  0.13234342673E+02 -0.21626865108E+02  0.26602441079E+02  0.00000000000E+00 0. -1.
</event>
<event>
 7    1  0.2702714E-011  0.5052886E+02  0.7816164E-02  0.1300439E+00
        -11   -1    0    0    0    0  0.00000000000E+00  0.00000000000E+00  0.45593999997E+02  0.45594000000E+02  0.51100000000E-03 0. -1.
         11   -1    0    0    0    0 -0.00000000000E+00 -0.00000000000E+00 -0.45593999997E+02  0.45594000000E+02  0.51100000000E-03 0.  1.
    9900012    2    1    2    0    0  0.40182697024E+02 -0.61545482496E+01 -0.79878026800E+00  0.50528860139E+02  0.30000000879E+02 0.  0.
        -12    1    1    2    0    0 -0.40182697024E+02  0.61545482496E+01  0.79878026800E+00  0.40659139861E+02  0.00000000000E+00 0.  1.
         11    1    3    3    0    0  0.31074710120E+02  0.45721496662E+01  0.93731091324E+00  0.31423251162E+02  0.51100000000E-03 0. -1.
        -11    1    3    3    0    0  0.99322582924E+01 -0.12185703456E+02  0.11559364065E+01  0.15763163158E+02  0.51100000000E-03 0.  1.
        -12    1    3    3    0    0 -0.82427138769E+00  0.14590055402E+01 -0.28920275877E+01  0.33424458193E+01  0.00000000000E+00 0.  1.
</event>
<event>
 7    1  0.2702714E-011  0.5052885E+02  0.7816164E-02  0.1300439E+00
        -11   -1    0    0    0    0  0.00000000000E+00  0.00000000000E+00  0.45593999997E+02  0.45594000000E+02  0.51100000000E-03 0.  1.
         11   -1    0    0    0    0 -0.00000000000E+00 -0.00000000000E+00 -0.45593999997E+02  0.45594000000E+02  0.51100000000E-03 0. -1.
    9900012    2    1    2    0    0  0.21062840162E+02  0.10187860772E+02 -0.33252534460E+02  0.50528846162E+02  0.29999958393E+02 0.  0.
        -12    1    1    2    0    0 -0.21062840162E+02 -0.10187860772E+02  0.33252534460E+02  0.40659153838E+02  0.00000000000E+00 0.  1.
         11    1    3    3    0    0  0.21204910120E+02  0.11785140895E+02 -0.35564194283E+02  0.43050547899E+02  0.51100000000E-03 0. -1.
        -11    1    3    3    0    0  0.15708200744E+01  0.17967911330E+01  0.27615771353E+01  0.36499647419E+01  0.51100000000E-03 0.  1.
        -12    1    3    3    0    0 -0.17128900326E+01 -0.33940712569E+01 -0.44991731312E+00  0.38283335212E+01  0.00000000000E+00 0.  1.
</event>
<event>
 7    1  0.2702714E-011  0.5052885E+02  0.7816164E-02  0.1300439E+00
        -11   -1    0    0    0    0  0.00000000000E+00  0.00000000000E+00  0.45593999997E+02  0.45594000000E+02  0.51100000000E-03 0. -1.
         11   -1    0    0    0    0 -0.00000000000E+00 -0.00000000000E+00 -0.45593999997E+02  0.45594000000E+02  0.51100000000E-03 0.  1.
    9900012    2    1    2    0    0 -0.36642044081E+02  0.94232876564E+01  0.14890555958E+02  0.50528850951E+02  0.29999972950E+02 0.  0.
        -12    1    1    2    0    0  0.36642044081E+02 -0.94232876564E+01 -0.14890555958E+02  0.40659149049E+02  0.00000000000E+00 0.  1.
         11    1    3    3    0    0 -0.41993631219E+01 -0.13747460225E+01  0.61958637709E+01  0.76100791970E+01  0.51100000000E-03 0. -1.
        -11    1    3    3    0    0 -0.88433615101E+01  0.14366475268E+02  0.88502940323E+01  0.19050678706E+02  0.51100000000E-03 0.  1.
         12    1    3    3    0    0 -0.23599319449E+02 -0.35684415893E+01 -0.15560184523E+00  0.23868093048E+02  0.00000000000E+00 0. -1.
</event>
<event>
 7    1  0.2702714E-011  0.5052886E+02  0.7816164E-02  0.1300439E+00
        -11   -1    0    0    0    0  0.00000000000E+00  0.00000000000E+00  0.45593999997E+02  0.45594000000E+02  0.51100000000E-03 0. -1.
         11   -1    0    0    0    0 -0.00000000000E+00 -0.00000000000E+00 -0.45593999997E+02  0.45594000000E+02  0.51100000000E-03 0.  1.
    9900012    2    1    2    0    0  0.15805693893E+02 -0.18535306608E+01  0.37415372373E+02  0.50528860496E+02  0.30000001965E+02 0.  0.
        -12    1    1    2    0    0 -0.15805693893E+02  0.18535306608E+01 -0.37415372373E+02  0.40659139504E+02  0.00000000000E+00 0.  1.
         11    1    3    3    0    0 -0.19612003358E+01 -0.10985879263E+02  0.11359925456E+02  0.15924313379E+02  0.51100000000E-03 0. -1.
        -11    1    3    3    0    0  0.36787953460E+01  0.39603235751E+01  0.15058479033E+02  0.15999234015E+02  0.51100000000E-03 0.  1.
        -12    1    3    3    0    0  0.14088098883E+02  0.51720250275E+01  0.10996967884E+02  0.18605313103E+02  0.00000000000E+00 0.  1.
</event>
<event>
 7    1  0.2702714E-011  0.5052885E+02  0.7816164E-02  0.1300439E+00
        -11   -1    0    0    0    0  0.00000000000E+00  0.00000000000E+00  0.45593999997E+02  0.45594000000E+02  0.51100000000E-03 0. -1.
         11   -1    0    0    0    0 -0.00000000000E+00 -0.00000000000E+00 -0.45593999997E+02  0.45594000000E+02  0.51100000000E-03 0.  1.
    9900012    2    1    2    0    0  0.21343149356E+01  0.20377701793E+02  0.35119234443E+02  0.50528847789E+02  0.29999963339E+02 0.  0.
        -12    1    1    2    0    0 -0.21343149356E+01 -0.20377701793E+02 -0.35119234443E+02  0.40659152211E+02  0.00000000000E+00 0.  1.
         11    1    3    3    0    0 -0.25444181454E+01  0.14738837752E+02  0.90752444783E+01  0.17494783925E+02  0.51100000000E-03 0. -1.
        -11    1    3    3    0    0 -0.24873111130E+01 -0.11438978183E+01  0.22320635178E+02  0.22487907279E+02  0.51100000000E-03 0.  1.
        -12    1    3    3    0    0  0.71660441939E+01  0.67827618595E+01  0.37233547871E+01  0.10546156584E+02  0.00000000000E+00 0.  1.
</event>
<event>
 7    1  0.2702714E-011  0.5052889E+02  0.7816164E-02  0.1300439E+00
        -11   -1    0    0    0    0  0.00000000000E+00  0.00000000000E+00  0.45593999997E+02  0.45594000000E+02  0.51100000000E-03 0. -1.
         11   -1    0    0    0    0 -0.00000000000E+00 -0.00000000000E+00 -0.45593999997E+02  0.45594000000E+02  0.51100000000E-03 0.  1.
    9900012    2    1    2    0    0  0.27367706536E+02  0.29940246868E+02  0.27844736132E+01  0.50528892325E+02  0.30000098712E+02 0.  0.
        -12    1    1    2    0    0 -0.27367706536E+02 -0.29940246868E+02 -0.27844736132E+01  0.40659107675E+02  0.00000000000E+00 0.  1.
         11    1    3    3    0    0  0.11359016674E+02  0.23888448700E+02 -0.68530338470E+00  0.26460439945E+02  0.51100000000E-03 0. -1.
        -11    1    3    3    0    0  0.19921277958E+01  0.72309341990E+01  0.62105362033E+01  0.97378510328E+01  0.51100000000E-03 0.  1.
        -12    1    3    3    0    0  0.14016562067E+02 -0.11791360312E+01 -0.27407592054E+01  0.14330601347E+02  0.00000000000E+00 0.  1.
</event>
<event>
 7    1  0.2702714E-011  0.5052885E+02  0.7816164E-02  0.1300439E+00
        -11   -1    0    0    0    0  0.00000000000E+00  0.00000000000E+00  0.45593999997E+02  0.45594000000E+02  0.51100000000E-03 0.  1.
         11   -1    0    0    0    0 -0.00000000000E+00 -0.00000000000E+00 -0.45593999997E+02  0.45594000000E+02  0.51100000000E-03 0. -1.
    9900012    2    1    2    0    0  0.14117127392E+02  0.38123395412E+02  0.69258388151E+00  0.50528852986E+02  0.29999979135E+02 0.  0.
        -12    1    1    2    0    0 -0.14117127392E+02 -0.38123395412E+02 -0.69258388151E+00  0.40659147014E+02  0.00000000000E+00 0.  1.
         11    1    3    3    0    0 -0.40178897615E+01  0.13390651857E+02  0.76057505871E+00  0.14001123882E+02  0.51100000000E-03 0. -1.
        -11    1    3    3    0    0  0.21197268325E+01  0.11060477552E+02 -0.82249576102E+01  0.13945513023E+02  0.51100000000E-03 0.  1.
        -12    1    3    3    0    0  0.16015290321E+02  0.13672266003E+02  0.81569664330E+01  0.22582216080E+02  0.00000000000E+00 0.  1.
</event>
<event>
 7    1  0.2702714E-011  0.5052882E+02  0.7816164E-02  0.1300439E+00
        -11   -1    0    0    0    0  0.00000000000E+00  0.00000000000E+00  0.45593999997E+02  0.45594000000E+02  0.51100000000E-03 0.  1.
         11   -1    0    0    0    0 -0.00000000000E+00 -0.00000000000E+00 -0.45593999997E+02  0.45594000000E+02  0.51100000000E-03 0. -1.
    9900012    2    1    2    0    0  0.13419421406E+02 -0.18901349427E+01 -0.38334255606E+02  0.50528823498E+02  0.29999889505E+02 0.  0.
        -12    1    1    2    0    0 -0.13419421406E+02  0.18901349427E+01  0.38334255606E+02  0.40659176502E+02  0.00000000000E+00 0.  1.
         11    1    3    3    0    0  0.12367991199E+02  0.21865257906E+01 -0.68903869782E+01  0.14325694897E+02  0.51100000000E-03 0. -1.
        -11    1    3    3    0    0 -0.13753740454E+01 -0.35640999067E+01  0.76733410034E+00  0.38965707734E+01  0.51100000000E-03 0.  1.
         12    1    3    3    0    0  0.24268042527E+01 -0.51256082665E+00 -0.32211202728E+02  0.32306557827E+02  0.00000000000E+00 0. -1.
</event>
<event>
 7    1  0.2702714E-011  0.5052886E+02  0.7816164E-02  0.1300439E+00
        -11   -1    0    0    0    0  0.00000000000E+00  0.00000000000E+00  0.45593999997E+02  0.45594000000E+02  0.51100000000E-03 0.  1.
         11   -1    0    0    0    0 -0.00000000000E+00 -0.00000000000E+00 -0.45593999997E+02  0.45594000000E+02  0.51100000000E-03 0. -1.
    9900012    2    1    2    0    0 -0.53629341265E+01  0.39237164755E+02  0.92113703053E+01  0.50528861994E+02  0.30000006518E+02 0.  0.
        -12    1    1    2    0    0  0.53629341265E+01 -0.39237164755E+02 -0.92113703053E+01  0.40659138006E+02  0.00000000000E+00 0.  1.
         11    1    3    3    0    0  0.11360147464E+02  0.20827471802E+02  0.80209850479E+01  0.25043416969E+02  0.51100000000E-03 0. -1.
        -11    1    3    3    0    0 -0.41179317854E+01  0.84191103309E+01  0.55727811376E+00  0.93887880001E+01  0.51100000000E-03 0.  1.
         12    1    3    3    0    0 -0.12605149805E+02  0.99905826223E+01  0.63310714364E+00  0.16096657026E+02  0.00000000000E+00 0. -1.
</event>
<event>
 7    1  0.2702714E-011  0.5052885E+02  0.7816164E-02  0.1300439E+00
        -11   -1    0    0    0    0  0.00000000000E+00  0.00000000000E+00  0.45593999997E+02  0.45594000000E+02  0.51100000000E-03 0. -1.
         11   -1    0    0    0    0 -0.00000000000E+00 -0.00000000000E+00 -0.45593999997E+02  0.45594000000E+02  0.51100000000E-03 0.  1.
    9900012    2    1    2    0    0 -0.24443829029E+02 -0.10517979263E+02  0.30741472230E+02  0.50528846292E+02  0.29999958789E+02 0.  0.
        -12    1    1    2    0    0  0.24443829029E+02  0.10517979263E+02 -0.30741472230E+02  0.40659153708E+02  0.00000000000E+00 0.  1.
         11    1    3    3    0    0 -0.82261523136E-01 -0.42497870890E+01  0.55679568477E+01  0.70049697343E+01  0.51100000000E-03 0. -1.
        -11    1    3    3    0    0 -0.10041807346E+02  0.75242492413E+01  0.18880422325E+02  0.22669860363E+02  0.51100000000E-03 0.  1.
         12    1    3    3    0    0 -0.14319760160E+02 -0.13792441415E+02  0.62930930570E+01  0.20854016195E+02  0.00000000000E+00 0. -1.
</event>
<event>
 7    1  0.2702714E-011  0.5052887E+02  0.7816164E-02  0.1300439E+00
        -11   -1    0    0    0    0  0.00000000000E+00  0.00000000000E+00  0.45593999997E+02  0.45594000000E+02  0.51100000000E-03 0.  1.
         11   -1    0    0    0    0 -0.00000000000E+00 -0.00000000000E+00 -0.45593999997E+02  0.45594000000E+02  0.51100000000E-03 0. -1.
    9900012    2    1    2    0    0  0.13999433080E+02  0.12672161190E+02 -0.36008293483E+02  0.50528868242E+02  0.30000025507E+02 0.  0.
        -12    1    1    2    0    0 -0.13999433080E+02 -0.12672161190E+02  0.36008293483E+02  0.40659131758E+02  0.00000000000E+00 0.  1.
         11    1    3    3    0    0  0.78407185531E+01  0.11652181182E+01 -0.10552908830E+02  0.13198427396E+02  0.51100000000E-03 0. -1.
        -11    1    3    3    0    0 -0.11904536341E+01  0.35606084973E+01 -0.26212690932E+02  0.26480186534E+02  0.51100000000E-03 0.  1.
        -12    1    3    3    0    0  0.73491681609E+01  0.79463345744E+01  0.75730627881E+00  0.10850254312E+02  0.00000000000E+00 0.  1.
</event>
<event>
 7    1  0.2702714E-011  0.5052888E+02  0.7816164E-02  0.1300439E+00
        -11   -1    0    0    0    0  0.00000000000E+00  0.00000000000E+00  0.45593999997E+02  0.45594000000E+02  0.51100000000E-03 0.  1.
         11   -1    0    0    0    0 -0.00000000000E+00 -0.00000000000E+00 -0.45593999997E+02  0.45594000000E+02  0.51100000000E-03 0. -1.
    9900012    2    1    2    0    0  0.57543987289E+01 -0.37687982809E+02  0.14130364358E+02  0.50528876179E+02  0.30000049634E+02 0.  0.
        -12    1    1    2    0    0 -0.57543987289E+01  0.37687982809E+02 -0.14130364358E+02  0.40659123821E+02  0.00000000000E+00 0.  1.
         11    1    3    3    0    0 -0.58526324724E+00 -0.15335968118E+01  0.94334301251E+01  0.95751791856E+01  0.51100000000E-03 0.  1.
        -11    1    3    3    0    0  0.24771747397E+01 -0.27032749338E+01 -0.47308895195E+01  0.59854328136E+01  0.51100000000E-03 0. -1.
        -12    1    3    3    0    0  0.38624872365E+01 -0.33451111064E+02  0.94278237528E+01  0.34968264180E+02  0.00000000000E+00 0.  1.
</event>
<event>
 7    1  0.2702714E-011  0.5052886E+02  0.7816164E-02  0.1300439E+00
        -11   -1    0    0    0    0  0.00000000000E+00  0.00000000000E+00  0.45593999997E+02  0.45594000000E+02  0.51100000000E-03 0. -1.
         11   -1    0    0    0    0 -0.00000000000E+00 -0.00000000000E+00 -0.45593999997E+02  0.45594000000E+02  0.51100000000E-03 0.  1.
    9900012    2    1    2    0    0  0.93879855297E+01  0.27935574270E+02  0.28011340120E+02  0.50528858870E+02  0.29999997022E+02 0.  0.
        -12    1    1    2    0    0 -0.93879855297E+01 -0.27935574270E+02 -0.28011340120E+02  0.40659141130E+02  0.00000000000E+00 0.  1.
         11    1    3    3    0    0  0.18862072060E+01  0.11740456337E+02  0.12089087288E+02  0.16957067091E+02  0.51100000000E-03 0. -1.
        -11    1    3    3    0    0 -0.84034012820E+01  0.60816748646E+01  0.32921391732E+01  0.10883110900E+02  0.51100000000E-03 0.  1.
        -12    1    3    3    0    0  0.15905179606E+02  0.10113443068E+02  0.12630113659E+02  0.22688680879E+02  0.00000000000E+00 0.  1.
</event>
<event>
 7    1  0.2702714E-011  0.5052887E+02  0.7816164E-02  0.1300439E+00
        -11   -1    0    0    0    0  0.00000000000E+00  0.00000000000E+00  0.45593999997E+02  0.45594000000E+02  0.51100000000E-03 0. -1.
         11   -1    0    0    0    0 -0.00000000000E+00 -0.00000000000E+00 -0.45593999997E+02  0.45594000000E+02  0.51100000000E-03 0.  1.
    9900012    2    1    2    0    0  0.34009096184E+02  0.54553920557E+01  0.21605204861E+02  0.50528870609E+02  0.30000032704E+02 0.  0.
        -12    1    1    2    0    0 -0.34009096184E+02 -0.54553920557E+01 -0.21605204861E+02  0.40659129391E+02  0.00000000000E+00 0.  1.
         11    1    3    3    0    0  0.11740295373E+02  0.16104508608E+01  0.44712769632E+01  0.12665717720E+02  0.51100000000E-03 0. -1.
        -11    1    3    3    0    0  0.17927179760E+01  0.79009936144E+01 -0.32106959156E+01  0.87148210744E+01  0.51100000000E-03 0.  1.
         12    1    3    3    0    0  0.20476082834E+02 -0.40560524195E+01  0.20344623813E+02  0.29148331815E+02  0.00000000000E+00 0. -1.
</event>
<event>
 7    1  0.2702714E-011  0.5052886E+02  0.7816164E-02  0.1300439E+00
        -11   -1    0    0    0    0  0.00000000000E+00  0.00000000000E+00  0.45593999997E+02  0.45594000000E+02  0.51100000000E-03 0.  1.
         11   -1    0    0    0    0 -0.00000000000E+00 -0.00000000000E+00 -0.45593999997E+02  0.45594000000E+02  0.51100000000E-03 0. -1.
    9900012    2    1    2    0    0 -0.31380398295E+01  0.21236243459E+02 -0.34530276179E+02  0.50528864455E+02  0.30000013999E+02 0.  0.
        -12    1    1    2    0    0  0.31380398295E+01 -0.21236243459E+02  0.34530276179E+02  0.40659135545E+02  0.00000000000E+00 0.  1.
         11    1    3    3    0    0 -0.37424037491E+01  0.11514716531E+02 -0.15364353219E+02  0.19561636760E+02  0.51100000000E-03 0. -1.
        -11    1    3    3    0    0  0.11398561380E+02  0.59755966470E+01 -0.10892094214E+02  0.16860387702E+02  0.51100000000E-03 0.  1.
        -12    1    3    3    0    0 -0.10794197461E+02  0.37459302805E+01 -0.82738287456E+01  0.14106839993E+02  0.00000000000E+00 0.  1.
</event>
<event>
 7    1  0.2702714E-011  0.5052886E+02  0.7816164E-02  0.1300439E+00
        -11   -1    0    0    0    0  0.00000000000E+00  0.00000000000E+00  0.45593999997E+02  0.45594000000E+02  0.51100000000E-03 0. -1.
         11   -1    0    0    0    0 -0.00000000000E+00 -0.00000000000E+00 -0.45593999997E+02  0.45594000000E+02  0.51100000000E-03 0.  1.
    9900012    2    1    2    0    0  0.31460212627E+02  0.25575117243E+02 -0.30551973854E+01  0.50528857958E+02  0.29999994249E+02 0.  0.
        -12    1    1    2    0    0 -0.31460212627E+02 -0.25575117243E+02  0.30551973854E+01  0.40659142042E+02  0.00000000000E+00 0.  1.
         11    1    3    3    0    0 -0.11991976008E+01  0.13881882489E+01 -0.73716689292E+01  0.75964889629E+01  0.51100000000E-03 0.  1.
        -11    1    3    3    0    0  0.78887151923E+01  0.67563586668E+01 -0.45982718601E+01  0.11358887013E+02  0.51100000000E-03 0. -1.
        -12    1    3    3    0    0  0.24770695036E+02  0.17430570327E+02  0.89147434040E+01  0.31573481982E+02  0.00000000000E+00 0.  1.
</event>
<event>
 7    1  0.2702714E-011  0.5052886E+02  0.7816164E-02  0.1300439E+00
        -11   -1    0    0    0    0  0.00000000000E+00  0.00000000000E+00  0.45593999997E+02  0.45594000000E+02  0.51100000000E-03 0. -1.
         11   -1    0    0    0    0 -0.00000000000E+00 -0.00000000000E+00 -0.45593999997E+02  0.45594000000E+02  0.51100000000E-03 0.  1.
    9900012    2    1    2    0    0  0.10085285030E+01 -0.15904850815E+01  0.40615504229E+02  0.50528856424E+02  0.29999989587E+02 0.  0.
        -12    1    1    2    0    0 -0.10085285030E+01  0.15904850815E+01 -0.40615504229E+02  0.40659143576E+02  0.00000000000E+00 0.  1.
         11    1    3    3    0    0 -0.45117393954E+01  0.22356252683E+01  0.14797298596E+02  0.15630542496E+02  0.51100000000E-03 0. -1.
        -11    1    3    3    0    0 -0.69914149747E+01 -0.20021875832E+01  0.14075403816E+01  0.74074157878E+01  0.51100000000E-03 0.  1.
        -12    1    3    3    0    0  0.12511682873E+02 -0.18239227666E+01  0.24410665252E+02  0.27490898141E+02  0.00000000000E+00 0.  1.
</event>
<event>
 7    1  0.2702714E-011  0.5052886E+02  0.7816164E-02  0.1300439E+00
        -11   -1    0    0    0    0  0.00000000000E+00  0.00000000000E+00  0.45593999997E+02  0.45594000000E+02  0.51100000000E-03 0. -1.
         11   -1    0    0    0    0 -0.00000000000E+00 -0.00000000000E+00 -0.45593999997E+02  0.45594000000E+02  0.51100000000E-03 0.  1.
    9900012    2    1    2    0    0 -0.17232929628E+02 -0.31947515540E+02  0.18317967733E+02  0.50528861364E+02  0.30000004601E+02 0.  0.
        -12    1    1    2    0    0  0.17232929628E+02  0.31947515540E+02 -0.18317967733E+02  0.40659138636E+02  0.00000000000E+00 0.  1.
         11    1    3    3    0    0 -0.12575770763E+02 -0.15248231663E+02 -0.37852948122E+01  0.20124289707E+02  0.51100000000E-03 0. -1.
        -11    1    3    3    0    0 -0.34616786011E+01  0.57274364302E+00  0.29308845160E+01  0.45717981501E+01  0.51100000000E-03 0.  1.
        -12    1    3    3    0    0 -0.11954802638E+01 -0.17272027520E+02  0.19172378030E+02  0.25832773506E+02  0.00000000000E+00 0.  1.
</event>
<event>
 7    1  0.2702714E-011  0.5052890E+02  0.7816164E-02  0.1300439E+00
        -11   -1    0    0    0    0  0.00000000000E+00  0.00000000000E+00  0.45593999997E+02  0.45594000000E+02  0.51100000000E-03 0. -1.
         11   -1    0    0    0    0 -0.00000000000E+00 -0.00000000000E+00 -0.45593999997E+02  0.45594000000E+02  0.51100000000E-03 0.  1.
    9900012    2    1    2    0    0 -0.16271293743E+02 -0.23594158253E+02  0.28839611607E+02  0.50528898911E+02  0.30000118729E+02 0.  0.
        -12    1    1    2    0    0  0.16271293743E+02  0.23594158253E+02 -0.28839611607E+02  0.40659101089E+02  0.00000000000E+00 0.  1.
         11    1    3    3    0    0 -0.10416780596E+01 -0.12601421814E+02  0.59002068563E+01  0.13953256470E+02  0.51100000000E-03 0. -1.
        -11    1    3    3    0    0 -0.16144293872E+02 -0.13012857183E+02  0.92458772610E+01  0.22703720472E+02  0.51100000000E-03 0.  1.
        -12    1    3    3    0    0  0.91467818801E+00  0.20201207439E+01  0.13693527490E+02  0.13871921969E+02  0.00000000000E+00 0.  1.
</event>
<event>
 7    1  0.2702714E-011  0.5052883E+02  0.7816164E-02  0.1300439E+00
        -11   -1    0    0    0    0  0.00000000000E+00  0.00000000000E+00  0.45593999997E+02  0.45594000000E+02  0.51100000000E-03 0.  1.
         11   -1    0    0    0    0 -0.00000000000E+00 -0.00000000000E+00 -0.45593999997E+02  0.45594000000E+02  0.51100000000E-03 0. -1.
    9900012    2    1    2    0    0  0.38825356473E+02 -0.11110280939E+02 -0.47245188433E+01  0.50528834661E+02  0.29999923435E+02 0.  0.
        -12    1    1    2    0    0 -0.38825356473E+02  0.11110280939E+02  0.47245188433E+01  0.40659165339E+02  0.00000000000E+00 0.  1.
         11    1    3    3    0    0  0.18041695850E+02 -0.83145002658E+01  0.22227168198E+01  0.19989351519E+02  0.51100000000E-03 0. -1.
        -11    1    3    3    0    0  0.17988506479E+02  0.25001034420E+01  0.35020165070E+01  0.18495972601E+02  0.51100000000E-03 0.  1.
        -12    1    3    3    0    0  0.27951541429E+01 -0.52958841148E+01 -0.10449252170E+02  0.12043510541E+02  0.00000000000E+00 0.  1.
</event>
<event>
 7    1  0.2702714E-011  0.5052885E+02  0.7816164E-02  0.1300439E+00
        -11   -1    0    0    0    0  0.00000000000E+00  0.00000000000E+00  0.45593999997E+02  0.45594000000E+02  0.51100000000E-03 0.  1.
         11   -1    0    0    0    0 -0.00000000000E+00 -0.00000000000E+00 -0.45593999997E+02  0.45594000000E+02  0.51100000000E-03 0. -1.
    9900012    2    1    2    0    0  0.17492241953E+02 -0.22624161754E+02 -0.28902169558E+02  0.50528848154E+02  0.29999964450E+02 0.  0.
        -12    1    1    2    0    0 -0.17492241953E+02  0.22624161754E+02  0.28902169558E+02  0.40659151846E+02  0.00000000000E+00 0.  1.
         11    1    3    3    0    0  0.15536794779E+02 -0.68574018528E+01 -0.72154600262E+01  0.18452068063E+02  0.51100000000E-03 0. -1.
        -11    1    3    3    0    0  0.86917443220E+01 -0.14029136941E+02 -0.13410609521E+02  0.21265172246E+02  0.51100000000E-03 0.  1.
        -12    1    3    3    0    0 -0.67362971472E+01 -0.17376229606E+01 -0.82761000107E+01  0.10811607845E+02  0.00000000000E+00 0.  1.
</event>
<event>
 7    1  0.2702714E-011  0.5052886E+02  0.7816164E-02  0.1300439E+00
        -11   -1    0    0    0    0  0.00000000000E+00  0.00000000000E+00  0.45593999997E+02  0.45594000000E+02  0.51100000000E-03 0. -1.
         11   -1    0    0    0    0 -0.00000000000E+00 -0.00000000000E+00 -0.45593999997E+02  0.45594000000E+02  0.51100000000E-03 0.  1.
    9900012    2    1    2    0    0 -0.11254423681E+02 -0.33733662577E+02  0.19711508018E+02  0.50528860910E+02  0.30000003221E+02 0.  0.
        -12    1    1    2    0    0  0.11254423681E+02  0.33733662577E+02 -0.19711508018E+02  0.40659139090E+02  0.00000000000E+00 0.  1.
         11    1    3    3    0    0  0.10893319052E+01 -0.54369864690E+01  0.88577439558E+01  0.10450219812E+02  0.51100000000E-03 0. -1.
        -11    1    3    3    0    0  0.43182739242E+01 -0.25609213787E+01 -0.36058467477E+01  0.61812570745E+01  0.51100000000E-03 0.  1.
        -12    1    3    3    0    0 -0.16662029510E+02 -0.25735754729E+02  0.14459610810E+02  0.33897384024E+02  0.00000000000E+00 0.  1.
</event>
<event>
 7    1  0.2702714E-011  0.5052885E+02  0.7816164E-02  0.1300439E+00
        -11   -1    0    0    0    0  0.00000000000E+00  0.00000000000E+00  0.45593999997E+02  0.45594000000E+02  0.51100000000E-03 0.  1.
         11   -1    0    0    0    0 -0.00000000000E+00 -0.00000000000E+00 -0.45593999997E+02  0.45594000000E+02  0.51100000000E-03 0. -1.
    9900012    2    1    2    0    0  0.26300121140E+02 -0.23605283903E+02 -0.20106227070E+02  0.50528853832E+02  0.29999981709E+02 0.  0.
        -12    1    1    2    0    0 -0.26300121140E+02  0.23605283903E+02  0.20106227070E+02  0.40659146168E+02  0.00000000000E+00 0.  1.
         11    1    3    3    0    0 -0.47928461854E+00  0.68324614514E+00 -0.28045609393E+01  0.29261068613E+01  0.51100000000E-03 0.  1.
        -11    1    3    3    0    0  0.16144484114E+02 -0.28565363277E+02 -0.11615652607E+02  0.34807294238E+02  0.51100000000E-03 0. -1.
         12    1    3    3    0    0  0.10634921645E+02  0.42768332290E+01 -0.56860135234E+01  0.12795452733E+02  0.00000000000E+00 0. -1.
</event>
<event>
 7    1  0.2702714E-011  0.5052887E+02  0.7816164E-02  0.1300439E+00
        -11   -1    0    0    0    0  0.00000000000E+00  0.00000000000E+00  0.45593999997E+02  0.45594000000E+02  0.51100000000E-03 0.  1.
         11   -1    0    0    0    0 -0.00000000000E+00 -0.00000000000E+00 -0.45593999997E+02  0.45594000000E+02  0.51100000000E-03 0. -1.
    9900012    2    1    2    0    0 -0.14392825058E+02 -0.37993626339E+02 -0.15796953085E+01  0.50528874422E+02  0.30000044293E+02 0.  0.
        -12    1    1    2    0    0  0.14392825058E+02  0.37993626339E+02  0.15796953085E+01  0.40659125578E+02  0.00000000000E+00 0.  1.
         11    1    3    3    0    0 -0.90713544458E+01 -0.66628590663E+01 -0.54403797058E+01  0.12501235700E+02  0.51100000000E-03 0. -1.
        -11    1    3    3    0    0 -0.54633339393E+01 -0.50460065742E+01 -0.63990693227E+01  0.98111308490E+01  0.51100000000E-03 0.  1.
         12    1    3    3    0    0  0.14186332747E+00 -0.26284760698E+02  0.10259753720E+02  0.28216507873E+02  0.00000000000E+00 0. -1.
</event>
<event>
 7    1  0.2702714E-011  0.5052886E+02  0.7816164E-02  0.1300439E+00
        -11   -1    0    0    0    0  0.00000000000E+00  0.00000000000E+00  0.45593999997E+02  0.45594000000E+02  0.51100000000E-03 0. -1.
         11   -1    0    0    0    0 -0.00000000000E+00 -0.00000000000E+00 -0.45593999997E+02  0.45594000000E+02  0.51100000000E-03 0.  1.
    9900012    2    1    2    0    0 -0.34402887150E+02 -0.75662011611E+01  0.20306639902E+02  0.50528859965E+02  0.30000000350E+02 0.  0.
        -12    1    1    2    0    0  0.34402887150E+02  0.75662011611E+01 -0.20306639902E+02  0.40659140035E+02  0.00000000000E+00 0.  1.
         11    1    3    3    0    0 -0.50829641282E+01 -0.53766218916E+01  0.51740577957E+00  0.74170274568E+01  0.51100000000E-03 0.  1.
        -11    1    3    3    0    0 -0.10592212705E+02 -0.18623534217E+00 -0.52148145603E+01  0.11807791697E+02  0.51100000000E-03 0. -1.
         12    1    3    3    0    0 -0.18727710317E+02 -0.20033439274E+01  0.25004048683E+02  0.31304040812E+02  0.00000000000E+00 0. -1.
</event>
<event>
 7    1  0.2702714E-011  0.5052882E+02  0.7816164E-02  0.1300439E+00
        -11   -1    0    0    0    0  0.00000000000E+00  0.00000000000E+00  0.45593999997E+02  0.45594000000E+02  0.51100000000E-03 0. -1.
         11   -1    0    0    0    0 -0.00000000000E+00 -0.00000000000E+00 -0.45593999997E+02  0.45594000000E+02  0.51100000000E-03 0.  1.
    9900012    2    1    2    0    0 -0.39274920018E+02  0.10240219246E+02  0.24057337449E+01  0.50528819149E+02  0.29999876285E+02 0.  0.
        -12    1    1    2    0    0  0.39274920018E+02 -0.10240219246E+02 -0.24057337449E+01  0.40659180851E+02  0.00000000000E+00 0.  1.
         11    1    3    3    0    0 -0.20757711131E+02 -0.40804562578E+01  0.48225089650E+01  0.21697679315E+02  0.51100000000E-03 0. -1.
        -11    1    3    3    0    0  0.17122061064E+00 -0.15485587682E+01  0.33062088950E+01  0.36549101595E+01  0.51100000000E-03 0.  1.
        -12    1    3    3    0    0 -0.18688429498E+02  0.15869234272E+02 -0.57229841150E+01  0.25176229675E+02  0.00000000000E+00 0.  1.
</event>
<event>
 7    1  0.2702714E-011  0.5052886E+02  0.7816164E-02  0.1300439E+00
        -11   -1    0    0    0    0  0.00000000000E+00  0.00000000000E+00  0.45593999997E+02  0.45594000000E+02  0.51100000000E-03 0.  1.
         11   -1    0    0    0    0 -0.00000000000E+00 -0.00000000000E+00 -0.45593999997E+02  0.45594000000E+02  0.51100000000E-03 0. -1.
    9900012    2    1    2    0    0 -0.12211940015E+02  0.90068676107E+01 -0.37721487083E+02  0.50528859197E+02  0.29999998016E+02 0.  0.
        -12    1    1    2    0    0  0.12211940015E+02 -0.90068676107E+01  0.37721487083E+02  0.40659140803E+02  0.00000000000E+00 0.  1.
         11    1    3    3    0    0 -0.65732544063E+01 -0.41386388056E+01 -0.96033269108E+01  0.12351513781E+02  0.51100000000E-03 0. -1.
        -11    1    3    3    0    0 -0.11701585565E+02  0.75787955139E+01 -0.71848094679E+01  0.15683964216E+02  0.51100000000E-03 0.  1.
         12    1    3    3    0    0  0.60628999566E+01  0.55667109025E+01 -0.20933350704E+02  0.22493381201E+02  0.00000000000E+00 0. -1.
</event>
<event>
 7    1  0.2702714E-011  0.5052886E+02  0.7816164E-02  0.1300439E+00
        -11   -1    0    0    0    0  0.00000000000E+00  0.00000000000E+00  0.45593999997E+02  0.45594000000E+02  0.51100000000E-03 0.  1.
         11   -1    0    0    0    0 -0.00000000000E+00 -0.00000000000E+00 -0.45593999997E+02  0.45594000000E+02  0.51100000000E-03 0. -1.
    9900012    2    1    2    0    0  0.49479361776E+01  0.14129392199E+02 -0.37802693789E+02  0.50528862601E+02  0.30000008361E+02 0.  0.
        -12    1    1    2    0    0 -0.49479361776E+01 -0.14129392199E+02  0.37802693789E+02  0.40659137399E+02  0.00000000000E+00 0.  1.
         11    1    3    3    0    0  0.10091217137E+02  0.74195090929E+01 -0.20096528375E+02  0.23680207589E+02  0.51100000000E-03 0. -1.
        -11    1    3    3    0    0  0.58364569099E+01  0.32280507126E+00 -0.11108437834E+01  0.59499921468E+01  0.51100000000E-03 0.  1.
         12    1    3    3    0    0 -0.10979737869E+02  0.63870780346E+01 -0.16595321631E+02  0.20898662865E+02  0.00000000000E+00 0. -1.
</event>
<event>
 7    1  0.2702714E-011  0.5052887E+02  0.7816164E-02  0.1300439E+00
        -11   -1    0    0    0    0  0.00000000000E+00  0.00000000000E+00  0.45593999997E+02  0.45594000000E+02  0.51100000000E-03 0.  1.
         11   -1    0    0    0    0 -0.00000000000E+00 -0.00000000000E+00 -0.45593999997E+02  0.45594000000E+02  0.51100000000E-03 0. -1.
    9900012    2    1    2    0    0 -0.67340861729E+01 -0.12494636833E+02 -0.38101192625E+02  0.50528871312E+02  0.30000034841E+02 0.  0.
        -12    1    1    2    0    0  0.67340861729E+01  0.12494636833E+02  0.38101192625E+02  0.40659128688E+02  0.00000000000E+00 0.  1.
         11    1    3    3    0    0 -0.36331254509E+01 -0.15073230022E+02 -0.20349629905E+02  0.25583379397E+02  0.51100000000E-03 0. -1.
        -11    1    3    3    0    0 -0.24429251179E+01  0.91283292457E+00 -0.21039969353E+02  0.21200977754E+02  0.51100000000E-03 0.  1.
        -12    1    3    3    0    0 -0.65803560414E+00  0.16657602645E+01  0.32884066336E+01  0.37445141611E+01  0.00000000000E+00 0.  1.
</event>
<event>
 7    1  0.2702714E-011  0.5052885E+02  0.7816164E-02  0.1300439E+00
        -11   -1    0    0    0    0  0.00000000000E+00  0.00000000000E+00  0.45593999997E+02  0.45594000000E+02  0.51100000000E-03 0. -1.
         11   -1    0    0    0    0 -0.00000000000E+00 -0.00000000000E+00 -0.45593999997E+02  0.45594000000E+02  0.51100000000E-03 0.  1.
    9900012    2    1    2    0    0  0.17616480025E+02  0.30921308175E+01  0.36513898586E+02  0.50528850582E+02  0.29999971828E+02 0.  0.
        -12    1    1    2    0    0 -0.17616480025E+02 -0.30921308175E+01 -0.36513898586E+02  0.40659149418E+02  0.00000000000E+00 0.  1.
         11    1    3    3    0    0  0.11954154564E+02 -0.55397001073E+01  0.50123619834E+01  0.14096590422E+02  0.51100000000E-03 0. -1.
        -11    1    3    3    0    0  0.64020890499E+01 -0.10295533877E+01  0.49196410027E+01  0.81393852493E+01  0.51100000000E-03 0.  1.
         12    1    3    3    0    0 -0.73976358879E+00  0.96613843125E+01  0.26581895600E+02  0.28292874910E+02  0.00000000000E+00 0. -1.
</event>
<event>
 7    1  0.2702714E-011  0.5052886E+02  0.7816164E-02  0.1300439E+00
        -11   -1    0    0    0    0  0.00000000000E+00  0.00000000000E+00  0.45593999997E+02  0.45594000000E+02  0.51100000000E-03 0. -1.
         11   -1    0    0    0    0 -0.00000000000E+00 -0.00000000000E+00 -0.45593999997E+02  0.45594000000E+02  0.51100000000E-03 0.  1.
    9900012    2    1    2    0    0 -0.35659723773E+02 -0.30613681332E+01  0.19291913409E+02  0.50528858378E+02  0.29999995525E+02 0.  0.
        -12    1    1    2    0    0  0.35659723773E+02  0.30613681332E+01 -0.19291913409E+02  0.40659141622E+02  0.00000000000E+00 0.  1.
         11    1    3    3    0    0 -0.87283263701E+01  0.55266930222E+00  0.15210376755E+02  0.17545503295E+02  0.51100000000E-03 0. -1.
        -11    1    3    3    0    0 -0.18502340576E+02  0.18812144001E+01  0.10195794055E+02  0.21209191193E+02  0.51100000000E-03 0.  1.
         12    1    3    3    0    0 -0.84290568276E+01 -0.54952518356E+01 -0.61142574007E+01  0.11774163890E+02  0.00000000000E+00 0. -1.
</event>
<event>
 7    1  0.2702714E-011  0.5052886E+02  0.7816164E-02  0.1300439E+00
        -11   -1    0    0    0    0  0.00000000000E+00  0.00000000000E+00  0.45593999997E+02  0.45594000000E+02  0.51100000000E-03 0. -1.
         11   -1    0    0    0    0 -0.00000000000E+00 -0.00000000000E+00 -0.45593999997E+02  0.45594000000E+02  0.51100000000E-03 0.  1.
    9900012    2    1    2    0    0 -0.30823327803E+02 -0.19819889520E+02 -0.17614204136E+02  0.50528859025E+02  0.29999997493E+02 0.  0.
        -12    1    1    2    0    0  0.30823327803E+02  0.19819889520E+02  0.17614204136E+02  0.40659140975E+02  0.00000000000E+00 0.  1.
         11    1    3    3    0    0 -0.15338685242E+02 -0.44890716142E+01  0.13499679441E+01  0.16038997556E+02  0.51100000000E-03 0. -1.
        -11    1    3    3    0    0  0.32994437712E+01  0.13821563479E+01 -0.15123852794E+01  0.38838118986E+01  0.51100000000E-03 0.  1.
        -12    1    3    3    0    0 -0.18784086333E+02 -0.16712974254E+02 -0.17451786800E+02  0.30606049570E+02  0.00000000000E+00 0.  1.
</event>
<event>
 7    1  0.2702714E-011  0.5052885E+02  0.7816164E-02  0.1300439E+00
        -11   -1    0    0    0    0  0.00000000000E+00  0.00000000000E+00  0.45593999997E+02  0.45594000000E+02  0.51100000000E-03 0. -1.
         11   -1    0    0    0    0 -0.00000000000E+00 -0.00000000000E+00 -0.45593999997E+02  0.45594000000E+02  0.51100000000E-03 0.  1.
    9900012    2    1    2    0    0 -0.28030808019E+02  0.47412265340E+01  0.29068208809E+02  0.50528853543E+02  0.29999980829E+02 0.  0.
        -12    1    1    2    0    0  0.28030808019E+02 -0.47412265340E+01 -0.29068208809E+02  0.40659146457E+02  0.00000000000E+00 0.  1.
         11    1    3    3    0    0 -0.86015343613E+01  0.45287498430E+01  0.36022874029E+01  0.10366891690E+02  0.51100000000E-03 0.  1.
        -11    1    3    3    0    0 -0.50503698140E+01 -0.64190548563E+01  0.22651857137E+02  0.24079392279E+02  0.51100000000E-03 0. -1.
         12    1    3    3    0    0 -0.14378903844E+02  0.66315315473E+01  0.28140642694E+01  0.16082569574E+02  0.00000000000E+00 0. -1.
</event>
<event>
 7    1  0.2702714E-011  0.5052887E+02  0.7816164E-02  0.1300439E+00
        -11   -1    0    0    0    0  0.00000000000E+00  0.00000000000E+00  0.45593999997E+02  0.45594000000E+02  0.51100000000E-03 0.  1.
         11   -1    0    0    0    0 -0.00000000000E+00 -0.00000000000E+00 -0.45593999997E+02  0.45594000000E+02  0.51100000000E-03 0. -1.
    9900012    2    1    2    0    0  0.92857628237E+01  0.21829462395E+02 -0.33021422012E+02  0.50528866568E+02  0.30000020421E+02 0.  0.
        -12    1    1    2    0    0 -0.92857628237E+01 -0.21829462395E+02  0.33021422012E+02  0.40659133432E+02  0.00000000000E+00 0.  1.
         11    1    3    3    0    0  0.13026672675E+02  0.10818391481E+02 -0.20821928026E+02  0.26838116219E+02  0.51100000000E-03 0. -1.
        -11    1    3    3    0    0 -0.50648382738E+01  0.13465192478E+02 -0.14234871156E+02  0.20238467143E+02  0.51100000000E-03 0.  1.
        -12    1    3    3    0    0  0.13239284228E+01 -0.24541215634E+01  0.20353771694E+01  0.34522832066E+01  0.00000000000E+00 0.  1.
</event>
