<event>
 7    1  0.2432574E-011  0.5052886E+02  0.7816164E-02  0.1300439E+00
        -11   -1    0    0    0    0  0.00000000000E+00  0.00000000000E+00  0.45593999997E+02  0.45594000000E+02  0.51100000000E-03 0. -1.
         11   -1    0    0    0    0 -0.00000000000E+00 -0.00000000000E+00 -0.45593999997E+02  0.45594000000E+02  0.51100000000E-03 0.  1.
    9900012    2    1    2    0    0 -0.11081449470E+02 -0.38579348923E+02  0.64808135145E+01  0.50528860443E+02  0.30000001803E+02 0.  0.
         12    1    1    2    0    0  0.11081449470E+02  0.38579348923E+02 -0.64808135145E+01  0.40659139557E+02  0.00000000000E+00 0. -1.
         11    1    3    3    0    0 -0.80493356344E+01 -0.11640256742E+02  0.11209201517E+02  0.18053630662E+02  0.51100000000E-03 0. -1.
        -11    1    3    3    0    0  0.99215809096E+00  0.15780816074E+01 -0.31152592005E+01  0.36303662879E+01  0.51100000000E-03 0.  1.
        -12    1    3    3    0    0 -0.40242719268E+01 -0.28517173788E+02 -0.16131288016E+01  0.28844863493E+02  0.00000000000E+00 0.  1.
</event>
<event>
 7    1  0.2432574E-011  0.5052885E+02  0.7816164E-02  0.1300439E+00
        -11   -1    0    0    0    0  0.00000000000E+00  0.00000000000E+00  0.45593999997E+02  0.45594000000E+02  0.51100000000E-03 0. -1.
         11   -1    0    0    0    0 -0.00000000000E+00 -0.00000000000E+00 -0.45593999997E+02  0.45594000000E+02  0.51100000000E-03 0.  1.
    9900012    2    1    2    0    0  0.13624104841E+02 -0.29220102343E+02 -0.24773687422E+02  0.50528853401E+02  0.29999980397E+02 0.  0.
         12    1    1    2    0    0 -0.13624104841E+02  0.29220102343E+02  0.24773687422E+02  0.40659146599E+02  0.00000000000E+00 0. -1.
         11    1    3    3    0    0 -0.42156696386E+01  0.31219594583E+01 -0.14393106920E+01  0.54396798518E+01  0.51100000000E-03 0. -1.
        -11    1    3    3    0    0  0.55639225653E+01 -0.23274986738E+01 -0.24006015472E+01  0.64913305600E+01  0.51100000000E-03 0.  1.
         12    1    3    3    0    0  0.12275851914E+02 -0.30014563128E+02 -0.20933775183E+02  0.38597842989E+02  0.00000000000E+00 0. -1.
</event>
<event>
 7    1  0.2432574E-011  0.5052886E+02  0.7816164E-02  0.1300439E+00
        -11   -1    0    0    0    0  0.00000000000E+00  0.00000000000E+00  0.45593999997E+02  0.45594000000E+02  0.51100000000E-03 0.  1.
         11   -1    0    0    0    0 -0.00000000000E+00 -0.00000000000E+00 -0.45593999997E+02  0.45594000000E+02  0.51100000000E-03 0. -1.
    9900012    2    1    2    0    0 -0.94694009709E+01  0.62140553816E+01  0.39049733614E+02  0.50528859154E+02  0.29999997885E+02 0.  0.
         12    1    1    2    0    0  0.94694009709E+01 -0.62140553816E+01 -0.39049733614E+02  0.40659140846E+02  0.00000000000E+00 0. -1.
         11    1    3    3    0    0 -0.30768118519E+01 -0.39512452634E+01 -0.18124202660E+01  0.53257842413E+01  0.51100000000E-03 0. -1.
        -11    1    3    3    0    0 -0.77957306128E+01  0.53574214937E+01  0.93672584141E+01  0.13312434462E+02  0.51100000000E-03 0.  1.
        -12    1    3    3    0    0  0.14031414938E+01  0.48078791513E+01  0.31494895465E+02  0.31890640451E+02  0.00000000000E+00 0.  1.
</event>
<event>
 7    1  0.2432574E-011  0.5052887E+02  0.7816164E-02  0.1300439E+00
        -11   -1    0    0    0    0  0.00000000000E+00  0.00000000000E+00  0.45593999997E+02  0.45594000000E+02  0.51100000000E-03 0. -1.
         11   -1    0    0    0    0 -0.00000000000E+00 -0.00000000000E+00 -0.45593999997E+02  0.45594000000E+02  0.51100000000E-03 0.  1.
    9900012    2    1    2    0    0 -0.40437886108E+02  0.13515368149E+01 -0.40144232498E+01  0.50528869676E+02  0.30000029868E+02 0.  0.
         12    1    1    2    0    0  0.40437886108E+02 -0.13515368149E+01  0.40144232498E+01  0.40659130324E+02  0.00000000000E+00 0. -1.
         11    1    3    3    0    0 -0.86180473915E+01 -0.56261528768E+01  0.24843431118E+01  0.10587553919E+02  0.51100000000E-03 0.  1.
        -11    1    3    3    0    0 -0.19625929228E+02  0.14030789148E+02  0.67110271334E+00  0.24134840404E+02  0.51100000000E-03 0. -1.
         12    1    3    3    0    0 -0.12193909488E+02 -0.70530994564E+01 -0.71698690749E+01  0.15806475353E+02  0.00000000000E+00 0. -1.
</event>
<event>
 7    1  0.2432574E-011  0.5052885E+02  0.7816164E-02  0.1300439E+00
        -11   -1    0    0    0    0  0.00000000000E+00  0.00000000000E+00  0.45593999997E+02  0.45594000000E+02  0.51100000000E-03 0.  1.
         11   -1    0    0    0    0 -0.00000000000E+00 -0.00000000000E+00 -0.45593999997E+02  0.45594000000E+02  0.51100000000E-03 0. -1.
    9900012    2    1    2    0    0  0.26207518389E+02  0.13879610265E+02  0.27815257472E+02  0.50528854049E+02  0.29999982368E+02 0.  0.
         12    1    1    2    0    0 -0.26207518389E+02 -0.13879610265E+02 -0.27815257472E+02  0.40659145951E+02  0.00000000000E+00 0. -1.
         11    1    3    3    0    0  0.53323782582E+01  0.63964127428E+01  0.20371446426E+02  0.22007820964E+02  0.51100000000E-03 0. -1.
        -11    1    3    3    0    0  0.66718463886E+01  0.10999209357E+02  0.42104106986E+01  0.13536014895E+02  0.51100000000E-03 0.  1.
        -12    1    3    3    0    0  0.14203293742E+02 -0.35160118354E+01  0.32334003475E+01  0.14985018190E+02  0.00000000000E+00 0.  1.
</event>
<event>
 7    1  0.2432574E-011  0.5052886E+02  0.7816164E-02  0.1300439E+00
        -11   -1    0    0    0    0  0.00000000000E+00  0.00000000000E+00  0.45593999997E+02  0.45594000000E+02  0.51100000000E-03 0.  1.
         11   -1    0    0    0    0 -0.00000000000E+00 -0.00000000000E+00 -0.45593999997E+02  0.45594000000E+02  0.51100000000E-03 0. -1.
    9900012    2    1    2    0    0  0.17257213816E+02  0.20488213565E+02  0.30587371966E+02  0.50528860221E+02  0.30000001128E+02 0.  0.
         12    1    1    2    0    0 -0.17257213816E+02 -0.20488213565E+02 -0.30587371966E+02  0.40659139779E+02  0.00000000000E+00 0. -1.
         11    1    3    3    0    0  0.65289365525E+01 -0.40144886076E+01  0.15263186023E+02  0.17079460738E+02  0.51100000000E-03 0. -1.
        -11    1    3    3    0    0 -0.23695880551E+01  0.29428192771E+01  0.48171977544E+01  0.61221342124E+01  0.51100000000E-03 0.  1.
         12    1    3    3    0    0  0.13097865318E+02  0.21559882895E+02  0.10506988189E+02  0.27327265270E+02  0.00000000000E+00 0. -1.
</event>
<event>
 7    1  0.2432574E-011  0.5052883E+02  0.7816164E-02  0.1300439E+00
        -11   -1    0    0    0    0  0.00000000000E+00  0.00000000000E+00  0.45593999997E+02  0.45594000000E+02  0.51100000000E-03 0.  1.
         11   -1    0    0    0    0 -0.00000000000E+00 -0.00000000000E+00 -0.45593999997E+02  0.45594000000E+02  0.51100000000E-03 0. -1.
    9900012    2    1    2    0    0  0.13493264546E+02 -0.99145715895E+01  0.37051326780E+02  0.50528834562E+02  0.29999923136E+02 0.  0.
         12    1    1    2    0    0 -0.13493264546E+02  0.99145715895E+01 -0.37051326780E+02  0.40659165438E+02  0.00000000000E+00 0. -1.
         11    1    3    3    0    0  0.89100506642E+01 -0.49770286299E+01  0.27082827007E+02  0.28941999512E+02  0.51100000000E-03 0. -1.
        -11    1    3    3    0    0 -0.30188521673E+01  0.13187592014E+01  0.11190978895E+02  0.11665787720E+02  0.51100000000E-03 0.  1.
         12    1    3    3    0    0  0.76020660486E+01 -0.62563021610E+01 -0.12224791211E+01  0.99210473307E+01  0.00000000000E+00 0. -1.
</event>
<event>
 7    1  0.2432574E-011  0.5052886E+02  0.7816164E-02  0.1300439E+00
        -11   -1    0    0    0    0  0.00000000000E+00  0.00000000000E+00  0.45593999997E+02  0.45594000000E+02  0.51100000000E-03 0. -1.
         11   -1    0    0    0    0 -0.00000000000E+00 -0.00000000000E+00 -0.45593999997E+02  0.45594000000E+02  0.51100000000E-03 0.  1.
    9900012    2    1    2    0    0  0.37678588331E+02  0.12322287569E+02 -0.90361000498E+01  0.50528857195E+02  0.29999991929E+02 0.  0.
         12    1    1    2    0    0 -0.37678588331E+02 -0.12322287569E+02  0.90361000498E+01  0.40659142805E+02  0.00000000000E+00 0. -1.
         11    1    3    3    0    0  0.89638763454E+01  0.11136023767E+02  0.37598895820E+01  0.14781707425E+02  0.51100000000E-03 0. -1.
        -11    1    3    3    0    0  0.17528153415E+02  0.27297761893E+01  0.11805712803E+01  0.17778683556E+02  0.51100000000E-03 0.  1.
         12    1    3    3    0    0  0.11186558571E+02 -0.15435123872E+01 -0.13976560912E+02  0.17968466214E+02  0.00000000000E+00 0. -1.
</event>
<event>
 7    1  0.2432574E-011  0.5052886E+02  0.7816164E-02  0.1300439E+00
        -11   -1    0    0    0    0  0.00000000000E+00  0.00000000000E+00  0.45593999997E+02  0.45594000000E+02  0.51100000000E-03 0.  1.
         11   -1    0    0    0    0 -0.00000000000E+00 -0.00000000000E+00 -0.45593999997E+02  0.45594000000E+02  0.51100000000E-03 0. -1.
    9900012    2    1    2    0    0 -0.11924519773E+02  0.57634149398E+01  0.38441575165E+02  0.50528858042E+02  0.29999994506E+02 0.  0.
         12    1    1    2    0    0  0.11924519773E+02 -0.57634149398E+01 -0.38441575165E+02  0.40659141958E+02  0.00000000000E+00 0. -1.
         11    1    3    3    0    0 -0.53477450814E+01 -0.37865374324E+00 -0.14727628247E+01  0.55597470007E+01  0.51100000000E-03 0. -1.
        -11    1    3    3    0    0 -0.10248053581E+02  0.10678137116E+02  0.30320719723E+02  0.33740054227E+02  0.51100000000E-03 0.  1.
         12    1    3    3    0    0  0.36712788890E+01 -0.45360684330E+01  0.95936182663E+01  0.11229056815E+02  0.00000000000E+00 0. -1.
</event>
<event>
 7    1  0.2432574E-011  0.5052886E+02  0.7816164E-02  0.1300439E+00
        -11   -1    0    0    0    0  0.00000000000E+00  0.00000000000E+00  0.45593999997E+02  0.45594000000E+02  0.51100000000E-03 0.  1.
         11   -1    0    0    0    0 -0.00000000000E+00 -0.00000000000E+00 -0.45593999997E+02  0.45594000000E+02  0.51100000000E-03 0. -1.
    9900012    2    1    2    0    0 -0.63071305039E+01 -0.15840496126E+02  0.36911573189E+02  0.50528862675E+02  0.30000008586E+02 0.  0.
         12    1    1    2    0    0  0.63071305039E+01  0.15840496126E+02 -0.36911573189E+02  0.40659137325E+02  0.00000000000E+00 0. -1.
         11    1    3    3    0    0 -0.42539009441E+01 -0.76480307638E+01  0.23631077768E+01  0.90648952797E+01  0.51100000000E-03 0. -1.
        -11    1    3    3    0    0  0.68816855073E+01 -0.66967676119E+01  0.55664816716E+01  0.11099099528E+02  0.51100000000E-03 0.  1.
         12    1    3    3    0    0 -0.89349150671E+01 -0.14956977508E+01  0.28981983741E+02  0.30364867867E+02  0.00000000000E+00 0. -1.
</event>
<event>
 7    1  0.2688726E-011  0.5052886E+02  0.7816164E-02  0.1300439E+00
        -11   -1    0    0    0    0  0.00000000000E+00  0.00000000000E+00  0.45593999997E+02  0.45594000000E+02  0.51100000000E-03 0.  1.
         11   -1    0    0    0    0 -0.00000000000E+00 -0.00000000000E+00 -0.45593999997E+02  0.45594000000E+02  0.51100000000E-03 0. -1.
    9900012    2    1    2    0    0  0.93156488622E+01  0.39476706462E+02  0.28238398590E+01  0.50528859105E+02  0.29999997734E+02 0.  0.
         12    1    1    2    0    0 -0.93156488622E+01 -0.39476706462E+02 -0.28238398590E+01  0.40659140895E+02  0.00000000000E+00 0. -1.
         11    1    3    3    0    0  0.55523794444E+01 -0.81539077023E+00 -0.21273709477E+01  0.60016236980E+01  0.51100000000E-03 0. -1.
        -11    1    3    3    0    0 -0.11775167204E+01  0.36412489163E+01  0.64662627129E+01  0.75138400988E+01  0.51100000000E-03 0.  1.
        -12    1    3    3    0    0  0.49407861382E+01  0.36650848316E+02 -0.15150519062E+01  0.37013395308E+02  0.00000000000E+00 0.  1.
</event>
<event>
 7    1  0.2432574E-011  0.5052888E+02  0.7816164E-02  0.1300439E+00
        -11   -1    0    0    0    0  0.00000000000E+00  0.00000000000E+00  0.45593999997E+02  0.45594000000E+02  0.51100000000E-03 0.  1.
         11   -1    0    0    0    0 -0.00000000000E+00 -0.00000000000E+00 -0.45593999997E+02  0.45594000000E+02  0.51100000000E-03 0. -1.
    9900012    2    1    2    0    0  0.15737885825E+01 -0.15191084335E+02  0.37681805945E+02  0.50528876140E+02  0.30000049515E+02 0.  0.
         12    1    1    2    0    0 -0.15737885825E+01  0.15191084335E+02 -0.37681805945E+02  0.40659123860E+02  0.00000000000E+00 0. -1.
         11    1    3    3    0    0 -0.36575828632E+01  0.19850774756E+01 -0.38991965635E+00  0.41797706378E+01  0.51100000000E-03 0. -1.
        -11    1    3    3    0    0  0.35343125913E+01 -0.73548073355E+01  0.13152147780E+01  0.82652493373E+01  0.51100000000E-03 0.  1.
        -12    1    3    3    0    0  0.16970588544E+01 -0.98213544750E+01  0.36756510823E+02  0.38083856165E+02  0.00000000000E+00 0.  1.
</event>
<event>
 7    1  0.2432574E-011  0.5052885E+02  0.7816164E-02  0.1300439E+00
        -11   -1    0    0    0    0  0.00000000000E+00  0.00000000000E+00  0.45593999997E+02  0.45594000000E+02  0.51100000000E-03 0.  1.
         11   -1    0    0    0    0 -0.00000000000E+00 -0.00000000000E+00 -0.45593999997E+02  0.45594000000E+02  0.51100000000E-03 0. -1.
    9900012    2    1    2    0    0  0.40009763460E+02 -0.64507821820E+01 -0.32821887999E+01  0.50528849416E+02  0.29999968285E+02 0.  0.
         12    1    1    2    0    0 -0.40009763460E+02  0.64507821820E+01  0.32821887999E+01  0.40659150584E+02  0.00000000000E+00 0. -1.
         11    1    3    3    0    0  0.20541251604E+01 -0.29323413001E+01  0.16664115940E+01  0.39490484343E+01  0.51100000000E-03 0.  1.
        -11    1    3    3    0    0  0.13223062329E+01  0.73335229288E+01 -0.37784915394E+01  0.83550015497E+01  0.51100000000E-03 0. -1.
        -12    1    3    3    0    0  0.36633332067E+02 -0.10851963811E+02 -0.11701088546E+01  0.38224799432E+02  0.00000000000E+00 0.  1.
</event>
<event>
 7    1  0.2432574E-011  0.5052886E+02  0.7816164E-02  0.1300439E+00
        -11   -1    0    0    0    0  0.00000000000E+00  0.00000000000E+00  0.45593999997E+02  0.45594000000E+02  0.51100000000E-03 0. -1.
         11   -1    0    0    0    0 -0.00000000000E+00 -0.00000000000E+00 -0.45593999997E+02  0.45594000000E+02  0.51100000000E-03 0.  1.
    9900012    2    1    2    0    0 -0.35835625229E+02 -0.17764592095E+02 -0.73070455177E+01  0.50528859797E+02  0.29999999839E+02 0.  0.
         12    1    1    2    0    0  0.35835625229E+02  0.17764592095E+02  0.73070455177E+01  0.40659140203E+02  0.00000000000E+00 0. -1.
         11    1    3    3    0    0 -0.40522790345E+01 -0.12414762242E+02  0.56612658607E+01  0.14233664964E+02  0.51100000000E-03 0. -1.
        -11    1    3    3    0    0 -0.12437715257E+02 -0.68024934598E+01 -0.79631589797E+01  0.16259845610E+02  0.51100000000E-03 0.  1.
        -12    1    3    3    0    0 -0.19345630938E+02  0.14526636067E+01 -0.50051523986E+01  0.20035349223E+02  0.00000000000E+00 0.  1.
</event>
<event>
 7    1  0.2981878E-011  0.5052886E+02  0.7816164E-02  0.1300439E+00
        -11   -1    0    0    0    0  0.00000000000E+00  0.00000000000E+00  0.45593999997E+02  0.45594000000E+02  0.51100000000E-03 0.  1.
         11   -1    0    0    0    0 -0.00000000000E+00 -0.00000000000E+00 -0.45593999997E+02  0.45594000000E+02  0.51100000000E-03 0. -1.
    9900012    2    1    2    0    0 -0.37737185608E+02  0.14802289909E+02  0.31563951725E+01  0.50528858412E+02  0.29999995629E+02 0.  0.
         12    1    1    2    0    0  0.37737185608E+02 -0.14802289909E+02 -0.31563951725E+01  0.40659141588E+02  0.00000000000E+00 0. -1.
         11    1    3    3    0    0 -0.36735388433E+01  0.66057732294E+01 -0.63128640077E+01  0.98480140044E+01  0.51100000000E-03 0. -1.
        -11    1    3    3    0    0 -0.20584538030E+02  0.27395728241E+01 -0.36633729299E+01  0.21086696437E+02  0.51100000000E-03 0.  1.
        -12    1    3    3    0    0 -0.13479108735E+02  0.54569438558E+01  0.13132632110E+02  0.19594147970E+02  0.00000000000E+00 0.  1.
</event>
<event>
 7    1  0.2432574E-011  0.5052886E+02  0.7816164E-02  0.1300439E+00
        -11   -1    0    0    0    0  0.00000000000E+00  0.00000000000E+00  0.45593999997E+02  0.45594000000E+02  0.51100000000E-03 0. -1.
         11   -1    0    0    0    0 -0.00000000000E+00 -0.00000000000E+00 -0.45593999997E+02  0.45594000000E+02  0.51100000000E-03 0.  1.
    9900012    2    1    2    0    0 -0.21839239226E+02  0.63118471601E+00 -0.34290159725E+02  0.50528858124E+02  0.29999994753E+02 0.  0.
         12    1    1    2    0    0  0.21839239226E+02 -0.63118471601E+00  0.34290159725E+02  0.40659141876E+02  0.00000000000E+00 0. -1.
         11    1    3    3    0    0 -0.72163252555E+01 -0.36798538791E+01 -0.25933015505E+02  0.27168694635E+02  0.51100000000E-03 0. -1.
        -11    1    3    3    0    0 -0.23489961106E+01 -0.54825975923E+01 -0.35376858619E+01  0.69348309717E+01  0.51100000000E-03 0.  1.
        -12    1    3    3    0    0 -0.12273917860E+02  0.97936361874E+01 -0.48194583586E+01  0.16425332517E+02  0.00000000000E+00 0.  1.
</event>
<event>
 7    1  0.2432574E-011  0.5052886E+02  0.7816164E-02  0.1300439E+00
        -11   -1    0    0    0    0  0.00000000000E+00  0.00000000000E+00  0.45593999997E+02  0.45594000000E+02  0.51100000000E-03 0. -1.
         11   -1    0    0    0    0 -0.00000000000E+00 -0.00000000000E+00 -0.45593999997E+02  0.45594000000E+02  0.51100000000E-03 0.  1.
    9900012    2    1    2    0    0  0.31409571991E+02  0.25477671541E+02  0.41824430055E+01  0.50528858478E+02  0.29999995830E+02 0.  0.
         12    1    1    2    0    0 -0.31409571991E+02 -0.25477671541E+02 -0.41824430055E+01  0.40659141522E+02  0.00000000000E+00 0. -1.
         11    1    3    3    0    0  0.10039721033E+02  0.10476200548E+02 -0.60526936467E+01  0.15722018858E+02  0.51100000000E-03 0.  1.
        -11    1    3    3    0    0  0.39487505337E+01  0.50866315343E+01  0.13062506592E+02  0.14563499919E+02  0.51100000000E-03 0. -1.
         12    1    3    3    0    0  0.17421100424E+02  0.99148394595E+01 -0.28273699401E+01  0.20243339701E+02  0.00000000000E+00 0. -1.
</event>
<event>
 7    1  0.2432574E-011  0.5052887E+02  0.7816164E-02  0.1300439E+00
        -11   -1    0    0    0    0  0.00000000000E+00  0.00000000000E+00  0.45593999997E+02  0.45594000000E+02  0.51100000000E-03 0. -1.
         11   -1    0    0    0    0 -0.00000000000E+00 -0.00000000000E+00 -0.45593999997E+02  0.45594000000E+02  0.51100000000E-03 0.  1.
    9900012    2    1    2    0    0  0.12217322463E+02 -0.32324069906E+02 -0.21425606501E+02  0.50528867233E+02  0.30000022440E+02 0.  0.
         12    1    1    2    0    0 -0.12217322463E+02  0.32324069906E+02  0.21425606501E+02  0.40659132767E+02  0.00000000000E+00 0. -1.
         11    1    3    3    0    0 -0.25568144769E+01 -0.10925465927E+02 -0.79205975097E+01  0.13734590316E+02  0.51100000000E-03 0. -1.
        -11    1    3    3    0    0  0.10546667991E+02 -0.25747093583E+02 -0.12993814422E+02  0.30708048574E+02  0.51100000000E-03 0.  1.
        -12    1    3    3    0    0  0.42274689489E+01  0.43484896040E+01 -0.51119456890E+00  0.60862283425E+01  0.00000000000E+00 0.  1.
</event>
<event>
 7    1  0.2432574E-011  0.5052886E+02  0.7816164E-02  0.1300439E+00
        -11   -1    0    0    0    0  0.00000000000E+00  0.00000000000E+00  0.45593999997E+02  0.45594000000E+02  0.51100000000E-03 0.  1.
         11   -1    0    0    0    0 -0.00000000000E+00 -0.00000000000E+00 -0.45593999997E+02  0.45594000000E+02  0.51100000000E-03 0. -1.
    9900012    2    1    2    0    0 -0.33755137317E+02  0.18932514735E+02 -0.12462589537E+02  0.50528861452E+02  0.30000004870E+02 0.  0.
         12    1    1    2    0    0  0.33755137317E+02 -0.18932514735E+02  0.12462589537E+02  0.40659138548E+02  0.00000000000E+00 0. -1.
         11    1    3    3    0    0 -0.56660311095E+01  0.43028060988E+00  0.45831945011E+01  0.73003234198E+01  0.51100000000E-03 0. -1.
        -11    1    3    3    0    0 -0.14855149141E+02  0.21517853881E+02 -0.11551392001E+02  0.28585453453E+02  0.51100000000E-03 0.  1.
         12    1    3    3    0    0 -0.13233957067E+02 -0.30156197564E+01 -0.54943920369E+01  0.14643084580E+02  0.00000000000E+00 0. -1.
</event>
<event>
 7    1  0.2432574E-011  0.5052887E+02  0.7816164E-02  0.1300439E+00
        -11   -1    0    0    0    0  0.00000000000E+00  0.00000000000E+00  0.45593999997E+02  0.45594000000E+02  0.51100000000E-03 0.  1.
         11   -1    0    0    0    0 -0.00000000000E+00 -0.00000000000E+00 -0.45593999997E+02  0.45594000000E+02  0.51100000000E-03 0. -1.
    9900012    2    1    2    0    0 -0.21899696577E+02  0.62564785277E+00  0.34251668623E+02  0.50528868813E+02  0.30000027244E+02 0.  0.
         12    1    1    2    0    0  0.21899696577E+02 -0.62564785277E+00 -0.34251668623E+02  0.40659131187E+02  0.00000000000E+00 0. -1.
         11    1    3    3    0    0 -0.21118537154E+02 -0.11693775134E+01  0.32909519953E+02  0.39120283219E+02  0.51100000000E-03 0.  1.
        -11    1    3    3    0    0 -0.19068779420E+01  0.63532927938E+01  0.85509368136E+00  0.66881760050E+01  0.51100000000E-03 0. -1.
        -12    1    3    3    0    0  0.11257185198E+01 -0.45582674276E+01  0.48705498878E+00  0.47204095892E+01  0.00000000000E+00 0.  1.
</event>
<event>
 7    1  0.2432574E-011  0.5052887E+02  0.7816164E-02  0.1300439E+00
        -11   -1    0    0    0    0  0.00000000000E+00  0.00000000000E+00  0.45593999997E+02  0.45594000000E+02  0.51100000000E-03 0. -1.
         11   -1    0    0    0    0 -0.00000000000E+00 -0.00000000000E+00 -0.45593999997E+02  0.45594000000E+02  0.51100000000E-03 0.  1.
    9900012    2    1    2    0    0 -0.10781397401E+02  0.66590747396E+01 -0.38633966023E+02  0.50528866500E+02  0.30000020212E+02 0.  0.
         12    1    1    2    0    0  0.10781397401E+02 -0.66590747396E+01  0.38633966023E+02  0.40659133500E+02  0.00000000000E+00 0. -1.
         11    1    3    3    0    0 -0.44756893769E+01  0.33211279745E+01 -0.31861038910E+01  0.64197308890E+01  0.51100000000E-03 0. -1.
        -11    1    3    3    0    0 -0.11532705315E+02  0.14541894970E+01 -0.36628757971E+02  0.38428945728E+02  0.51100000000E-03 0.  1.
        -12    1    3    3    0    0  0.52269972911E+01  0.18837572681E+01  0.11808958386E+01  0.56801898831E+01  0.00000000000E+00 0.  1.
</event>
<event>
 7    1  0.2432574E-011  0.5052886E+02  0.7816164E-02  0.1300439E+00
        -11   -1    0    0    0    0  0.00000000000E+00  0.00000000000E+00  0.45593999997E+02  0.45594000000E+02  0.51100000000E-03 0.  1.
         11   -1    0    0    0    0 -0.00000000000E+00 -0.00000000000E+00 -0.45593999997E+02  0.45594000000E+02  0.51100000000E-03 0. -1.
    9900012    2    1    2    0    0  0.20480647548E+02  0.16886621952E+02  0.30798553191E+02  0.50528858302E+02  0.29999995295E+02 0.  0.
         12    1    1    2    0    0 -0.20480647548E+02 -0.16886621952E+02 -0.30798553191E+02  0.40659141698E+02  0.00000000000E+00 0. -1.
         11    1    3    3    0    0 -0.15360441742E+01 -0.30649690186E+01  0.60398226377E+01  0.69449927679E+01  0.51100000000E-03 0. -1.
        -11    1    3    3    0    0  0.80302704511E+00  0.83129736688E+01 -0.79809199761E+00  0.83897160113E+01  0.51100000000E-03 0.  1.
        -12    1    3    3    0    0  0.21213664677E+02  0.11638617302E+02  0.25556822551E+02  0.35194149523E+02  0.00000000000E+00 0.  1.
</event>
<event>
 7    1  0.2432574E-011  0.5052883E+02  0.7816164E-02  0.1300439E+00
        -11   -1    0    0    0    0  0.00000000000E+00  0.00000000000E+00  0.45593999997E+02  0.45594000000E+02  0.51100000000E-03 0. -1.
         11   -1    0    0    0    0 -0.00000000000E+00 -0.00000000000E+00 -0.45593999997E+02  0.45594000000E+02  0.51100000000E-03 0.  1.
    9900012    2    1    2    0    0 -0.13455617987E+02 -0.15050232849E+02 -0.35293132618E+02  0.50528826690E+02  0.29999899208E+02 0.  0.
         12    1    1    2    0    0  0.13455617987E+02  0.15050232849E+02  0.35293132618E+02  0.40659173310E+02  0.00000000000E+00 0. -1.
         11    1    3    3    0    0 -0.23826956108E+01 -0.44316222242E+01  0.42086699372E+01  0.65596811518E+01  0.51100000000E-03 0. -1.
        -11    1    3    3    0    0 -0.75686934900E+00  0.42744684913E+00 -0.16020759590E+02  0.16044322987E+02  0.51100000000E-03 0.  1.
        -12    1    3    3    0    0 -0.10316053027E+02 -0.11046057474E+02 -0.23481042966E+02  0.27924822551E+02  0.00000000000E+00 0.  1.
</event>
<event>
 7    1  0.2432574E-011  0.5052893E+02  0.7816164E-02  0.1300439E+00
        -11   -1    0    0    0    0  0.00000000000E+00  0.00000000000E+00  0.45593999997E+02  0.45594000000E+02  0.51100000000E-03 0. -1.
         11   -1    0    0    0    0 -0.00000000000E+00 -0.00000000000E+00 -0.45593999997E+02  0.45594000000E+02  0.51100000000E-03 0.  1.
    9900012    2    1    2    0    0  0.35789479434E+02 -0.19267016703E+02 -0.10271953632E+01  0.50528930888E+02  0.30000215925E+02 0.  0.
         12    1    1    2    0    0 -0.35789479434E+02  0.19267016703E+02  0.10271953632E+01  0.40659069112E+02  0.00000000000E+00 0. -1.
         11    1    3    3    0    0  0.87686140886E+01  0.54737806445E+01 -0.51024987162E+01  0.11527634666E+02  0.51100000000E-03 0. -1.
        -11    1    3    3    0    0  0.77835014368E+01 -0.57427026438E+01 -0.44565514430E+01  0.10649994333E+02  0.51100000000E-03 0.  1.
         12    1    3    3    0    0  0.19237363908E+02 -0.18998094704E+02  0.85318547960E+01  0.28351301889E+02  0.00000000000E+00 0. -1.
</event>
<event>
 7    1  0.2432574E-011  0.5052886E+02  0.7816164E-02  0.1300439E+00
        -11   -1    0    0    0    0  0.00000000000E+00  0.00000000000E+00  0.45593999997E+02  0.45594000000E+02  0.51100000000E-03 0.  1.
         11   -1    0    0    0    0 -0.00000000000E+00 -0.00000000000E+00 -0.45593999997E+02  0.45594000000E+02  0.51100000000E-03 0. -1.
    9900012    2    1    2    0    0 -0.12246566213E+02 -0.11735287322E+02  0.36952268440E+02  0.50528862092E+02  0.30000006816E+02 0.  0.
         12    1    1    2    0    0  0.12246566213E+02  0.11735287322E+02 -0.36952268440E+02  0.40659137908E+02  0.00000000000E+00 0. -1.
         11    1    3    3    0    0 -0.61742972994E+01 -0.10388533403E+02  0.31839660113E+02  0.34055947055E+02  0.51100000000E-03 0. -1.
        -11    1    3    3    0    0 -0.49041333952E+01  0.29177661837E+01  0.89525892840E+01  0.10616625594E+02  0.51100000000E-03 0.  1.
         12    1    3    3    0    0 -0.11681355180E+01 -0.42645201022E+01 -0.38399809571E+01  0.58562894431E+01  0.00000000000E+00 0. -1.
</event>
<event>
 7    1  0.2432574E-011  0.5052886E+02  0.7816164E-02  0.1300439E+00
        -11   -1    0    0    0    0  0.00000000000E+00  0.00000000000E+00  0.45593999997E+02  0.45594000000E+02  0.51100000000E-03 0.  1.
         11   -1    0    0    0    0 -0.00000000000E+00 -0.00000000000E+00 -0.45593999997E+02  0.45594000000E+02  0.51100000000E-03 0. -1.
    9900012    2    1    2    0    0  0.11360120036E+02  0.21506459037E+02  0.32581978590E+02  0.50528862818E+02  0.30000009021E+02 0.  0.
         12    1    1    2    0    0 -0.11360120036E+02 -0.21506459037E+02 -0.32581978590E+02  0.40659137182E+02  0.00000000000E+00 0. -1.
         11    1    3    3    0    0  0.10271991845E+02  0.18931355364E+02  0.86566016449E+01  0.23213073573E+02  0.51100000000E-03 0. -1.
        -11    1    3    3    0    0 -0.17469096887E+01  0.72133703266E+01  0.10751694116E+02  0.13064583099E+02  0.51100000000E-03 0.  1.
         12    1    3    3    0    0  0.28350378802E+01 -0.46382666535E+01  0.13173682829E+02  0.14251206145E+02  0.00000000000E+00 0. -1.
</event>
<event>
 7    1  0.2432574E-011  0.5052885E+02  0.7816164E-02  0.1300439E+00
        -11   -1    0    0    0    0  0.00000000000E+00  0.00000000000E+00  0.45593999997E+02  0.45594000000E+02  0.51100000000E-03 0.  1.
         11   -1    0    0    0    0 -0.00000000000E+00 -0.00000000000E+00 -0.45593999997E+02  0.45594000000E+02  0.51100000000E-03 0. -1.
    9900012    2    1    2    0    0  0.24178562723E+02  0.13561544669E+02  0.29743031027E+02  0.50528852396E+02  0.29999977344E+02 0.  0.
         12    1    1    2    0    0 -0.24178562723E+02 -0.13561544669E+02 -0.29743031027E+02  0.40659147604E+02  0.00000000000E+00 0. -1.
         11    1    3    3    0    0  0.18068074349E+02  0.98884144197E+01  0.20857938887E+02  0.29313642989E+02  0.51100000000E-03 0.  1.
        -11    1    3    3    0    0  0.51923109233E+01  0.10558736033E+02  0.30810491676E+01  0.12163053218E+02  0.51100000000E-03 0. -1.
         12    1    3    3    0    0  0.91817745116E+00 -0.68856057846E+01  0.58040429729E+01  0.90521561897E+01  0.00000000000E+00 0. -1.
</event>
<event>
 7    1  0.2432574E-011  0.5052886E+02  0.7816164E-02  0.1300439E+00
        -11   -1    0    0    0    0  0.00000000000E+00  0.00000000000E+00  0.45593999997E+02  0.45594000000E+02  0.51100000000E-03 0.  1.
         11   -1    0    0    0    0 -0.00000000000E+00 -0.00000000000E+00 -0.45593999997E+02  0.45594000000E+02  0.51100000000E-03 0. -1.
    9900012    2    1    2    0    0 -0.40156788890E+02 -0.62446018786E+01 -0.12661397180E+01  0.50528857654E+02  0.29999993324E+02 0.  0.
         12    1    1    2    0    0  0.40156788890E+02  0.62446018786E+01  0.12661397180E+01  0.40659142346E+02  0.00000000000E+00 0. -1.
         11    1    3    3    0    0 -0.28935574941E+02 -0.11113392377E+02 -0.36219219608E+01  0.31207263677E+02  0.51100000000E-03 0. -1.
        -11    1    3    3    0    0 -0.11115204256E+02 -0.17078437541E+01 -0.20144086056E+01  0.11424637335E+02  0.51100000000E-03 0.  1.
        -12    1    3    3    0    0 -0.10600969287E+00  0.65766342522E+01  0.43701908483E+01  0.78969566412E+01  0.00000000000E+00 0.  1.
</event>
<event>
 7    1  0.2432574E-011  0.5052886E+02  0.7816164E-02  0.1300439E+00
        -11   -1    0    0    0    0  0.00000000000E+00  0.00000000000E+00  0.45593999997E+02  0.45594000000E+02  0.51100000000E-03 0.  1.
         11   -1    0    0    0    0 -0.00000000000E+00 -0.00000000000E+00 -0.45593999997E+02  0.45594000000E+02  0.51100000000E-03 0. -1.
    9900012    2    1    2    0    0  0.57503728987E+01 -0.18950490652E+02  0.35510245899E+02  0.50528862673E+02  0.30000008580E+02 0.  0.
         12    1    1    2    0    0 -0.57503728987E+01  0.18950490652E+02 -0.35510245899E+02  0.40659137327E+02  0.00000000000E+00 0. -1.
         11    1    3    3    0    0  0.56454033498E+01 -0.85071885691E+01  0.52367842816E+01  0.11474613118E+02  0.51100000000E-03 0. -1.
        -11    1    3    3    0    0 -0.40981245292E+00  0.87393003147E+00 -0.33956943431E+01  0.35302181631E+01  0.51100000000E-03 0.  1.
        -12    1    3    3    0    0  0.51478200188E+00 -0.11317232114E+02  0.33669155960E+02  0.35524031392E+02  0.00000000000E+00 0.  1.
</event>
<event>
 7    1  0.2432574E-011  0.5052888E+02  0.7816164E-02  0.1300439E+00
        -11   -1    0    0    0    0  0.00000000000E+00  0.00000000000E+00  0.45593999997E+02  0.45594000000E+02  0.51100000000E-03 0. -1.
         11   -1    0    0    0    0 -0.00000000000E+00 -0.00000000000E+00 -0.45593999997E+02  0.45594000000E+02  0.51100000000E-03 0.  1.
    9900012    2    1    2    0    0  0.12415425478E+02  0.12324272026E+02 -0.36703316552E+02  0.50528881506E+02  0.30000065827E+02 0.  0.
         12    1    1    2    0    0 -0.12415425478E+02 -0.12324272026E+02  0.36703316552E+02  0.40659118494E+02  0.00000000000E+00 0. -1.
         11    1    3    3    0    0  0.33317937656E+01  0.20714478989E+01  0.29726296120E+01  0.49222223808E+01  0.51100000000E-03 0. -1.
        -11    1    3    3    0    0  0.12263668779E+02  0.82568346605E+00 -0.25248211035E+02  0.28081158912E+02  0.51100000000E-03 0.  1.
         12    1    3    3    0    0 -0.31800370667E+01  0.94271406608E+01 -0.14427735129E+02  0.17525500213E+02  0.00000000000E+00 0. -1.
</event>
<event>
 7    1  0.2432574E-011  0.5052883E+02  0.7816164E-02  0.1300439E+00
        -11   -1    0    0    0    0  0.00000000000E+00  0.00000000000E+00  0.45593999997E+02  0.45594000000E+02  0.51100000000E-03 0. -1.
         11   -1    0    0    0    0 -0.00000000000E+00 -0.00000000000E+00 -0.45593999997E+02  0.45594000000E+02  0.51100000000E-03 0.  1.
    9900012    2    1    2    0    0  0.17171696829E+02  0.20026401835E+02 -0.30939358638E+02  0.50528833071E+02  0.29999918602E+02 0.  0.
         12    1    1    2    0    0 -0.17171696829E+02 -0.20026401835E+02  0.30939358638E+02  0.40659166929E+02  0.00000000000E+00 0. -1.
         11    1    3    3    0    0  0.34282710864E+01 -0.47158667276E+01 -0.29102091867E+01  0.65162688254E+01  0.51100000000E-03 0. -1.
        -11    1    3    3    0    0  0.13803037587E+02  0.58248127921E+01 -0.11411422704E+02  0.18832760262E+02  0.51100000000E-03 0.  1.
        -12    1    3    3    0    0 -0.59611845044E-01  0.18917455770E+02 -0.16617726748E+02  0.25179803984E+02  0.00000000000E+00 0.  1.
</event>
<event>
 7    1  0.2432574E-011  0.5052893E+02  0.7816164E-02  0.1300439E+00
        -11   -1    0    0    0    0  0.00000000000E+00  0.00000000000E+00  0.45593999997E+02  0.45594000000E+02  0.51100000000E-03 0.  1.
         11   -1    0    0    0    0 -0.00000000000E+00 -0.00000000000E+00 -0.45593999997E+02  0.45594000000E+02  0.51100000000E-03 0. -1.
    9900012    2    1    2    0    0  0.24265488061E+02 -0.32106649046E+02  0.57887368997E+01  0.50528925998E+02  0.30000201062E+02 0.  0.
         12    1    1    2    0    0 -0.24265488061E+02  0.32106649046E+02 -0.57887368997E+01  0.40659074002E+02  0.00000000000E+00 0. -1.
         11    1    3    3    0    0  0.18477560194E+02 -0.11529789279E+02 -0.33696177419E+00  0.21782328045E+02  0.51100000000E-03 0.  1.
        -11    1    3    3    0    0  0.10495597136E+02 -0.19658616299E+02  0.78834589811E+01  0.23638267276E+02  0.51100000000E-03 0. -1.
         12    1    3    3    0    0 -0.47076692687E+01 -0.91824346819E+00 -0.17577603072E+01  0.51083306772E+01  0.00000000000E+00 0. -1.
</event>
<event>
 7    1  0.2432574E-011  0.5052896E+02  0.7816164E-02  0.1300438E+00
        -11   -1    0    0    0    0  0.00000000000E+00  0.00000000000E+00  0.45593999997E+02  0.45594000000E+02  0.51100000000E-03 0. -1.
         11   -1    0    0    0    0 -0.00000000000E+00 -0.00000000000E+00 -0.45593999997E+02  0.45594000000E+02  0.51100000000E-03 0.  1.
    9900012    2    1    2    0    0  0.27617854462E+02 -0.26383398176E+02 -0.13940161848E+02  0.50528957995E+02  0.30000298319E+02 0.  0.
         12    1    1    2    0    0 -0.27617854462E+02  0.26383398176E+02  0.13940161848E+02  0.40659042005E+02  0.00000000000E+00 0. -1.
         11    1    3    3    0    0  0.16692979249E+02 -0.96267651765E+01  0.17861902690E+01  0.19352535749E+02  0.51100000000E-03 0. -1.
        -11    1    3    3    0    0  0.90178374735E+00  0.35448756200E+01 -0.48055149713E+01  0.60392326904E+01  0.51100000000E-03 0.  1.
        -12    1    3    3    0    0  0.10023091466E+02 -0.20301508620E+02 -0.10920837146E+02  0.25137189556E+02  0.00000000000E+00 0.  1.
</event>
<event>
 7    1  0.2432574E-011  0.5052885E+02  0.7816164E-02  0.1300439E+00
        -11   -1    0    0    0    0  0.00000000000E+00  0.00000000000E+00  0.45593999997E+02  0.45594000000E+02  0.51100000000E-03 0.  1.
         11   -1    0    0    0    0 -0.00000000000E+00 -0.00000000000E+00 -0.45593999997E+02  0.45594000000E+02  0.51100000000E-03 0. -1.
    9900012    2    1    2    0    0  0.25473060313E+02  0.53068948107E+01  0.31243021040E+02  0.50528852223E+02  0.29999976816E+02 0.  0.
         12    1    1    2    0    0 -0.25473060313E+02 -0.53068948107E+01 -0.31243021040E+02  0.40659147777E+02  0.00000000000E+00 0. -1.
         11    1    3    3    0    0  0.57788546423E+01  0.99467056465E+00  0.17699447862E+01  0.61251314530E+01  0.51100000000E-03 0. -1.
        -11    1    3    3    0    0  0.72719182247E+01  0.48962850830E+00 -0.41282302787E+01  0.83763247453E+01  0.51100000000E-03 0.  1.
        -12    1    3    3    0    0  0.12422287446E+02  0.38225957378E+01  0.33601306533E+02  0.36027396024E+02  0.00000000000E+00 0.  1.
</event>
<event>
 7    1  0.2432574E-011  0.5052886E+02  0.7816164E-02  0.1300439E+00
        -11   -1    0    0    0    0  0.00000000000E+00  0.00000000000E+00  0.45593999997E+02  0.45594000000E+02  0.51100000000E-03 0. -1.
         11   -1    0    0    0    0 -0.00000000000E+00 -0.00000000000E+00 -0.45593999997E+02  0.45594000000E+02  0.51100000000E-03 0.  1.
    9900012    2    1    2    0    0 -0.12656589492E+02 -0.98010953605E+01 -0.37375325550E+02  0.50528859726E+02  0.29999999624E+02 0.  0.
         12    1    1    2    0    0  0.12656589492E+02  0.98010953605E+01  0.37375325550E+02  0.40659140274E+02  0.00000000000E+00 0. -1.
         11    1    3    3    0    0  0.26327911520E+01  0.31989439676E+01  0.19149231918E+01  0.45641826048E+01  0.51100000000E-03 0. -1.
        -11    1    3    3    0    0 -0.91775999400E+01 -0.27704001753E+01 -0.80135347533E+01  0.12494806813E+02  0.51100000000E-03 0.  1.
        -12    1    3    3    0    0 -0.61117807040E+01 -0.10229639153E+02 -0.31276713988E+02  0.33469870309E+02  0.00000000000E+00 0.  1.
</event>
<event>
 7    1  0.2432574E-011  0.5052886E+02  0.7816164E-02  0.1300439E+00
        -11   -1    0    0    0    0  0.00000000000E+00  0.00000000000E+00  0.45593999997E+02  0.45594000000E+02  0.51100000000E-03 0. -1.
         11   -1    0    0    0    0 -0.00000000000E+00 -0.00000000000E+00 -0.45593999997E+02  0.45594000000E+02  0.51100000000E-03 0.  1.
    9900012    2    1    2    0    0 -0.20862927902E+02  0.34383499795E+02 -0.59731872328E+01  0.50528858537E+02  0.29999996009E+02 0.  0.
         12    1    1    2    0    0  0.20862927902E+02 -0.34383499795E+02  0.59731872328E+01  0.40659141463E+02  0.00000000000E+00 0. -1.
         11    1    3    3    0    0 -0.37606898528E+01  0.13434751893E+02  0.34197275896E+01  0.14364187538E+02  0.51100000000E-03 0. -1.
        -11    1    3    3    0    0 -0.51545448604E+01 -0.11244811680E+01  0.49685520253E+01  0.72470890780E+01  0.51100000000E-03 0.  1.
        -12    1    3    3    0    0 -0.11947693188E+02  0.22073229070E+02 -0.14361466848E+02  0.28917581921E+02  0.00000000000E+00 0.  1.
</event>
<event>
 7    1  0.3852175E-011  0.5052886E+02  0.7816164E-02  0.1300439E+00
        -11   -1    0    0    0    0  0.00000000000E+00  0.00000000000E+00  0.45593999997E+02  0.45594000000E+02  0.51100000000E-03 0.  1.
         11   -1    0    0    0    0 -0.00000000000E+00 -0.00000000000E+00 -0.45593999997E+02  0.45594000000E+02  0.51100000000E-03 0. -1.
    9900012    2    1    2    0    0  0.26998828248E+02  0.20610262024E+02  0.22348285186E+02  0.50528862304E+02  0.30000007459E+02 0.  0.
         12    1    1    2    0    0 -0.26998828248E+02 -0.20610262024E+02 -0.22348285186E+02  0.40659137696E+02  0.00000000000E+00 0. -1.
         11    1    3    3    0    0 -0.73843024028E+00  0.84079447796E+01  0.13677231707E+01  0.85504082692E+01  0.51100000000E-03 0. -1.
        -11    1    3    3    0    0  0.68012426598E+01  0.12695989256E+00 -0.34377225466E+01  0.76217423926E+01  0.51100000000E-03 0.  1.
        -12    1    3    3    0    0  0.20936015828E+02  0.12075357352E+02  0.24418284561E+02  0.34356711642E+02  0.00000000000E+00 0.  1.
</event>
<event>
 7    1  0.2432574E-011  0.5052887E+02  0.7816164E-02  0.1300439E+00
        -11   -1    0    0    0    0  0.00000000000E+00  0.00000000000E+00  0.45593999997E+02  0.45594000000E+02  0.51100000000E-03 0. -1.
         11   -1    0    0    0    0 -0.00000000000E+00 -0.00000000000E+00 -0.45593999997E+02  0.45594000000E+02  0.51100000000E-03 0.  1.
    9900012    2    1    2    0    0 -0.14536626838E+02 -0.35248385670E+02 -0.14120999160E+02  0.50528870282E+02  0.30000031708E+02 0.  0.
         12    1    1    2    0    0  0.14536626838E+02  0.35248385670E+02  0.14120999160E+02  0.40659129718E+02  0.00000000000E+00 0. -1.
         11    1    3    3    0    0 -0.82353904855E+01 -0.10459766208E+02 -0.15878508477E+02  0.20720892773E+02  0.51100000000E-03 0. -1.
        -11    1    3    3    0    0 -0.98922327208E+01 -0.24116982160E+02  0.10583520014E+01  0.26088411334E+02  0.51100000000E-03 0.  1.
         12    1    3    3    0    0  0.35909963679E+01 -0.67163730189E+00  0.69915731584E+00  0.37195661752E+01  0.00000000000E+00 0. -1.
</event>
<event>
 7    1  0.2432574E-011  0.5052887E+02  0.7816164E-02  0.1300439E+00
        -11   -1    0    0    0    0  0.00000000000E+00  0.00000000000E+00  0.45593999997E+02  0.45594000000E+02  0.51100000000E-03 0.  1.
         11   -1    0    0    0    0 -0.00000000000E+00 -0.00000000000E+00 -0.45593999997E+02  0.45594000000E+02  0.51100000000E-03 0. -1.
    9900012    2    1    2    0    0 -0.14019538564E+02  0.29335081590E+02  0.24414545940E+02  0.50528874002E+02  0.30000043017E+02 0.  0.
         12    1    1    2    0    0  0.14019538564E+02 -0.29335081590E+02 -0.24414545940E+02  0.40659125998E+02  0.00000000000E+00 0. -1.
         11    1    3    3    0    0 -0.85708413525E+01  0.52200167801E+01  0.69882431959E+01  0.12228795521E+02  0.51100000000E-03 0. -1.
        -11    1    3    3    0    0 -0.11222109626E+02  0.25084223397E+02  0.10980617462E+02  0.29592701262E+02  0.51100000000E-03 0.  1.
         12    1    3    3    0    0  0.57734124145E+01 -0.96915858696E+00  0.64456852820E+01  0.87073772187E+01  0.00000000000E+00 0. -1.
</event>
<event>
 7    1  0.2432574E-011  0.5052884E+02  0.7816164E-02  0.1300439E+00
        -11   -1    0    0    0    0  0.00000000000E+00  0.00000000000E+00  0.45593999997E+02  0.45594000000E+02  0.51100000000E-03 0.  1.
         11   -1    0    0    0    0 -0.00000000000E+00 -0.00000000000E+00 -0.45593999997E+02  0.45594000000E+02  0.51100000000E-03 0. -1.
    9900012    2    1    2    0    0 -0.24982076270E+01  0.17876525646E+02  0.36432895649E+02  0.50528842411E+02  0.29999946993E+02 0.  0.
         12    1    1    2    0    0  0.24982076270E+01 -0.17876525646E+02 -0.36432895649E+02  0.40659157589E+02  0.00000000000E+00 0. -1.
         11    1    3    3    0    0  0.57598197128E+01 -0.35065215105E+01  0.19850532752E+02  0.20964609871E+02  0.51100000000E-03 0. -1.
        -11    1    3    3    0    0 -0.40622406517E+01  0.19809476993E+01  0.41904115552E+01  0.61632379609E+01  0.51100000000E-03 0.  1.
        -12    1    3    3    0    0 -0.41957866882E+01  0.19402099457E+02  0.12391951341E+02  0.23400994579E+02  0.00000000000E+00 0.  1.
</event>
<event>
 7    1  0.2432574E-011  0.5052887E+02  0.7816164E-02  0.1300439E+00
        -11   -1    0    0    0    0  0.00000000000E+00  0.00000000000E+00  0.45593999997E+02  0.45594000000E+02  0.51100000000E-03 0.  1.
         11   -1    0    0    0    0 -0.00000000000E+00 -0.00000000000E+00 -0.45593999997E+02  0.45594000000E+02  0.51100000000E-03 0. -1.
    9900012    2    1    2    0    0  0.11942199524E+02  0.19453293032E+02  0.33646957468E+02  0.50528874504E+02  0.30000044541E+02 0.  0.
         12    1    1    2    0    0 -0.11942199524E+02 -0.19453293032E+02 -0.33646957468E+02  0.40659125496E+02  0.00000000000E+00 0. -1.
         11    1    3    3    0    0  0.43704763096E+01  0.24928301550E+02  0.28877252180E+02  0.38398137651E+02  0.51100000000E-03 0.  1.
        -11    1    3    3    0    0  0.25935280963E+01 -0.24707011548E+01 -0.12189666267E+01  0.37837325594E+01  0.51100000000E-03 0. -1.
        -12    1    3    3    0    0  0.49781951180E+01 -0.30043073633E+01  0.59886719152E+01  0.83470042934E+01  0.00000000000E+00 0.  1.
</event>
<event>
 7    1  0.2432574E-011  0.5052895E+02  0.7816164E-02  0.1300438E+00
        -11   -1    0    0    0    0  0.00000000000E+00  0.00000000000E+00  0.45593999997E+02  0.45594000000E+02  0.51100000000E-03 0.  1.
         11   -1    0    0    0    0 -0.00000000000E+00 -0.00000000000E+00 -0.45593999997E+02  0.45594000000E+02  0.51100000000E-03 0. -1.
    9900012    2    1    2    0    0 -0.66157091143E+00  0.32303297082E+02  0.24682333701E+02  0.50528950879E+02  0.30000276692E+02 0.  0.
         12    1    1    2    0    0  0.66157091143E+00 -0.32303297082E+02 -0.24682333701E+02  0.40659049121E+02  0.00000000000E+00 0. -1.
         11    1    3    3    0    0  0.59227550393E+01  0.24617991676E+02  0.23499523384E+02  0.34544929309E+02  0.51100000000E-03 0. -1.
        -11    1    3    3    0    0 -0.48959103389E-01  0.90666365881E+01  0.19069363544E+01  0.92651337030E+01  0.51100000000E-03 0.  1.
         12    1    3    3    0    0 -0.65353668473E+01 -0.13813311815E+01 -0.72412603734E+00  0.67188878678E+01  0.00000000000E+00 0. -1.
</event>
<event>
 7    1  0.2432574E-011  0.5052886E+02  0.7816164E-02  0.1300439E+00
        -11   -1    0    0    0    0  0.00000000000E+00  0.00000000000E+00  0.45593999997E+02  0.45594000000E+02  0.51100000000E-03 0. -1.
         11   -1    0    0    0    0 -0.00000000000E+00 -0.00000000000E+00 -0.45593999997E+02  0.45594000000E+02  0.51100000000E-03 0.  1.
    9900012    2    1    2    0    0 -0.28670360455E+02 -0.10725100651E+02 -0.26760952379E+02  0.50528856811E+02  0.29999990764E+02 0.  0.
         12    1    1    2    0    0  0.28670360455E+02  0.10725100651E+02  0.26760952379E+02  0.40659143189E+02  0.00000000000E+00 0. -1.
         11    1    3    3    0    0 -0.23496921970E+01  0.41740883054E+00  0.73964547352E-01  0.23876252989E+01  0.51100000000E-03 0. -1.
        -11    1    3    3    0    0 -0.97080728886E+01 -0.12300538506E+02 -0.27304713275E+02  0.31481697763E+02  0.51100000000E-03 0.  1.
        -12    1    3    3    0    0 -0.16612595369E+02  0.11580290247E+01  0.46979634859E+00  0.16659533749E+02  0.00000000000E+00 0.  1.
</event>
<event>
 7    1  0.2432574E-011  0.5052886E+02  0.7816164E-02  0.1300439E+00
        -11   -1    0    0    0    0  0.00000000000E+00  0.00000000000E+00  0.45593999997E+02  0.45594000000E+02  0.51100000000E-03 0.  1.
         11   -1    0    0    0    0 -0.00000000000E+00 -0.00000000000E+00 -0.45593999997E+02  0.45594000000E+02  0.51100000000E-03 0. -1.
    9900012    2    1    2    0    0 -0.46537327147E+01 -0.11651862361E+02  0.38674828493E+02  0.50528862238E+02  0.30000007258E+02 0.  0.
         12    1    1    2    0    0  0.46537327147E+01  0.11651862361E+02 -0.38674828493E+02  0.40659137762E+02  0.00000000000E+00 0. -1.
         11    1    3    3    0    0 -0.10967830347E+00 -0.71392170730E+01  0.12625437264E+01  0.72508252405E+01  0.51100000000E-03 0. -1.
        -11    1    3    3    0    0  0.42351390279E+01 -0.82838963880E+01  0.77306489129E+01  0.12096374450E+02  0.51100000000E-03 0.  1.
        -12    1    3    3    0    0 -0.87791934392E+01  0.37712511002E+01  0.29681635853E+02  0.31181662547E+02  0.00000000000E+00 0.  1.
</event>
<event>
 7    1  0.2432574E-011  0.5052886E+02  0.7816164E-02  0.1300439E+00
        -11   -1    0    0    0    0  0.00000000000E+00  0.00000000000E+00  0.45593999997E+02  0.45594000000E+02  0.51100000000E-03 0.  1.
         11   -1    0    0    0    0 -0.00000000000E+00 -0.00000000000E+00 -0.45593999997E+02  0.45594000000E+02  0.51100000000E-03 0. -1.
    9900012    2    1    2    0    0  0.23909365755E+02  0.35923920879E+01  0.32689487226E+02  0.50528860476E+02  0.30000001904E+02 0.  0.
         12    1    1    2    0    0 -0.23909365755E+02 -0.35923920879E+01 -0.32689487226E+02  0.40659139524E+02  0.00000000000E+00 0. -1.
         11    1    3    3    0    0  0.36715972190E+01  0.68151014301E+01  0.18094655950E+01  0.79498679009E+01  0.51100000000E-03 0. -1.
        -11    1    3    3    0    0  0.19860013515E+02  0.50670995917E+01  0.18117462931E+02  0.27355769015E+02  0.51100000000E-03 0.  1.
         12    1    3    3    0    0  0.37775502125E+00 -0.82898089338E+01  0.12762558699E+02  0.15223223560E+02  0.00000000000E+00 0. -1.
</event>
<event>
 7    1  0.2432574E-011  0.5052883E+02  0.7816164E-02  0.1300439E+00
        -11   -1    0    0    0    0  0.00000000000E+00  0.00000000000E+00  0.45593999997E+02  0.45594000000E+02  0.51100000000E-03 0. -1.
         11   -1    0    0    0    0 -0.00000000000E+00 -0.00000000000E+00 -0.45593999997E+02  0.45594000000E+02  0.51100000000E-03 0.  1.
    9900012    2    1    2    0    0  0.12877061760E+02 -0.30960111620E+02 -0.22996100931E+02  0.50528832656E+02  0.29999917341E+02 0.  0.
         12    1    1    2    0    0 -0.12877061760E+02  0.30960111620E+02  0.22996100931E+02  0.40659167344E+02  0.00000000000E+00 0. -1.
         11    1    3    3    0    0  0.54774346493E+01 -0.32377643119E+02 -0.16582764430E+02  0.36787255140E+02  0.51100000000E-03 0. -1.
        -11    1    3    3    0    0 -0.50749288866E+00 -0.30281593078E+01 -0.18858136205E+01  0.36032750516E+01  0.51100000000E-03 0.  1.
         12    1    3    3    0    0  0.79071199992E+01  0.44456908073E+01 -0.45275228801E+01  0.10138302465E+02  0.00000000000E+00 0. -1.
</event>
<event>
 7    1  0.2432574E-011  0.5052876E+02  0.7816164E-02  0.1300439E+00
        -11   -1    0    0    0    0  0.00000000000E+00  0.00000000000E+00  0.45593999997E+02  0.45594000000E+02  0.51100000000E-03 0.  1.
         11   -1    0    0    0    0 -0.00000000000E+00 -0.00000000000E+00 -0.45593999997E+02  0.45594000000E+02  0.51100000000E-03 0. -1.
    9900012    2    1    2    0    0 -0.16039182310E+02  0.17870757494E+02  0.32810883412E+02  0.50528764729E+02  0.29999710868E+02 0.  0.
         12    1    1    2    0    0  0.16039182310E+02 -0.17870757494E+02 -0.32810883412E+02  0.40659235271E+02  0.00000000000E+00 0. -1.
         11    1    3    3    0    0 -0.17357401610E+01  0.83483726377E+01  0.11440006320E+02  0.14268211677E+02  0.51100000000E-03 0. -1.
        -11    1    3    3    0    0 -0.13714192241E+02  0.34494766494E+01  0.25313802825E+02  0.28995975095E+02  0.51100000000E-03 0.  1.
        -12    1    3    3    0    0 -0.58924990767E+00  0.60729082070E+01 -0.39429257333E+01  0.72645779562E+01  0.00000000000E+00 0.  1.
</event>
<event>
 7    1  0.2432574E-011  0.5052887E+02  0.7816164E-02  0.1300439E+00
        -11   -1    0    0    0    0  0.00000000000E+00  0.00000000000E+00  0.45593999997E+02  0.45594000000E+02  0.51100000000E-03 0. -1.
         11   -1    0    0    0    0 -0.00000000000E+00 -0.00000000000E+00 -0.45593999997E+02  0.45594000000E+02  0.51100000000E-03 0.  1.
    9900012    2    1    2    0    0  0.26937073274E+02  0.29971203836E+02 -0.54116717802E+01  0.50528866126E+02  0.30000019077E+02 0.  0.
         12    1    1    2    0    0 -0.26937073274E+02 -0.29971203836E+02  0.54116717802E+01  0.40659133874E+02  0.00000000000E+00 0. -1.
         11    1    3    3    0    0  0.97249883134E+01  0.17751555135E+02 -0.70060390036E+01  0.21419096390E+02  0.51100000000E-03 0. -1.
        -11    1    3    3    0    0  0.10717070617E+02 -0.41058416331E+01  0.11496104741E+01  0.11534086121E+02  0.51100000000E-03 0.  1.
         12    1    3    3    0    0  0.64950143430E+01  0.16325490334E+02  0.44475674926E+00  0.17575683615E+02  0.00000000000E+00 0. -1.
</event>
<event>
 7    1  0.2432574E-011  0.5052886E+02  0.7816164E-02  0.1300439E+00
        -11   -1    0    0    0    0  0.00000000000E+00  0.00000000000E+00  0.45593999997E+02  0.45594000000E+02  0.51100000000E-03 0.  1.
         11   -1    0    0    0    0 -0.00000000000E+00 -0.00000000000E+00 -0.45593999997E+02  0.45594000000E+02  0.51100000000E-03 0. -1.
    9900012    2    1    2    0    0  0.63940203422E+01  0.26175082564E+02  0.30449096076E+02  0.50528857175E+02  0.29999991871E+02 0.  0.
         12    1    1    2    0    0 -0.63940203422E+01 -0.26175082564E+02 -0.30449096076E+02  0.40659142825E+02  0.00000000000E+00 0. -1.
         11    1    3    3    0    0 -0.10292460167E+01  0.50400161820E+01  0.11230956294E+02  0.12352954708E+02  0.51100000000E-03 0. -1.
        -11    1    3    3    0    0 -0.56388815182E+01  0.88313193845E+01  0.17170486802E+02  0.20115039252E+02  0.51100000000E-03 0.  1.
        -12    1    3    3    0    0  0.13062147877E+02  0.12303746998E+02  0.20476529798E+01  0.18060863215E+02  0.00000000000E+00 0.  1.
</event>
<event>
 7    1  0.2432574E-011  0.5052886E+02  0.7816164E-02  0.1300439E+00
        -11   -1    0    0    0    0  0.00000000000E+00  0.00000000000E+00  0.45593999997E+02  0.45594000000E+02  0.51100000000E-03 0. -1.
         11   -1    0    0    0    0 -0.00000000000E+00 -0.00000000000E+00 -0.45593999997E+02  0.45594000000E+02  0.51100000000E-03 0.  1.
    9900012    2    1    2    0    0 -0.39171363624E+02  0.95720714881E+01  0.52100869447E+01  0.50528864658E+02  0.30000014616E+02 0.  0.
         12    1    1    2    0    0  0.39171363624E+02 -0.95720714881E+01 -0.52100869447E+01  0.40659135342E+02  0.00000000000E+00 0. -1.
         11    1    3    3    0    0 -0.14567936561E+02  0.58976617639E+01 -0.34016749778E+00  0.15720143260E+02  0.51100000000E-03 0.  1.
        -11    1    3    3    0    0 -0.13940517196E+02 -0.91424718600E+01  0.69838592280E+01  0.18074764214E+02  0.51100000000E-03 0. -1.
         12    1    3    3    0    0 -0.10662909867E+02  0.12816881584E+02 -0.14336047855E+01  0.16733957185E+02  0.00000000000E+00 0. -1.
</event>
<event>
 7    1  0.2432574E-011  0.5052886E+02  0.7816164E-02  0.1300439E+00
        -11   -1    0    0    0    0  0.00000000000E+00  0.00000000000E+00  0.45593999997E+02  0.45594000000E+02  0.51100000000E-03 0.  1.
         11   -1    0    0    0    0 -0.00000000000E+00 -0.00000000000E+00 -0.45593999997E+02  0.45594000000E+02  0.51100000000E-03 0. -1.
    9900012    2    1    2    0    0  0.17952277259E+02 -0.93134398062E+01  0.35272388267E+02  0.50528858422E+02  0.29999995659E+02 0.  0.
         12    1    1    2    0    0 -0.17952277259E+02  0.93134398062E+01 -0.35272388267E+02  0.40659141578E+02  0.00000000000E+00 0. -1.
         11    1    3    3    0    0  0.12722850621E+02 -0.11185211725E+02  0.17961736439E+02  0.24690157258E+02  0.51100000000E-03 0. -1.
        -11    1    3    3    0    0 -0.23203329745E+01 -0.57302914631E+01  0.91036351050E+00  0.62489156937E+01  0.51100000000E-03 0.  1.
         12    1    3    3    0    0  0.75497596134E+01  0.76020633820E+01  0.16400288318E+02  0.19589785471E+02  0.00000000000E+00 0. -1.
</event>
<event>
 7    1  0.2432574E-011  0.5052893E+02  0.7816164E-02  0.1300439E+00
        -11   -1    0    0    0    0  0.00000000000E+00  0.00000000000E+00  0.45593999997E+02  0.45594000000E+02  0.51100000000E-03 0.  1.
         11   -1    0    0    0    0 -0.00000000000E+00 -0.00000000000E+00 -0.45593999997E+02  0.45594000000E+02  0.51100000000E-03 0. -1.
    9900012    2    1    2    0    0  0.14326365290E+02  0.37478829909E+02  0.65766714315E+01  0.50528929169E+02  0.30000210700E+02 0.  0.
         12    1    1    2    0    0 -0.14326365290E+02 -0.37478829909E+02 -0.65766714315E+01  0.40659070831E+02  0.00000000000E+00 0. -1.
         11    1    3    3    0    0 -0.27938826544E+01  0.10698895116E+02  0.17732718037E+01  0.11198956654E+02  0.51100000000E-03 0. -1.
        -11    1    3    3    0    0  0.11466045215E+02  0.17796594446E+02  0.13920743685E+02  0.25337246727E+02  0.51100000000E-03 0.  1.
         12    1    3    3    0    0  0.56542027298E+01  0.89833403476E+01 -0.91173440569E+01  0.13992725787E+02  0.00000000000E+00 0. -1.
</event>
<event>
 7    1  0.2432574E-011  0.5052874E+02  0.7816164E-02  0.1300439E+00
        -11   -1    0    0    0    0  0.00000000000E+00  0.00000000000E+00  0.45593999997E+02  0.45594000000E+02  0.51100000000E-03 0. -1.
         11   -1    0    0    0    0 -0.00000000000E+00 -0.00000000000E+00 -0.45593999997E+02  0.45594000000E+02  0.51100000000E-03 0.  1.
    9900012    2    1    2    0    0 -0.25222447145E+02  0.17691077171E+02 -0.26533555300E+02  0.50528737730E+02  0.29999628802E+02 0.  0.
         12    1    1    2    0    0  0.25222447145E+02 -0.17691077171E+02  0.26533555300E+02  0.40659262270E+02  0.00000000000E+00 0. -1.
         11    1    3    3    0    0  0.13193720254E+01 -0.11838346265E+01  0.35848537137E+01  0.39991728363E+01  0.51100000000E-03 0. -1.
        -11    1    3    3    0    0 -0.52900405552E+01  0.99190141431E+01 -0.46330718256E+01  0.12158812666E+02  0.51100000000E-03 0.  1.
        -12    1    3    3    0    0 -0.21251778615E+02  0.89558976549E+01 -0.25485337188E+02  0.34370752228E+02  0.00000000000E+00 0.  1.
</event>
<event>
 7    1  0.2432574E-011  0.5052886E+02  0.7816164E-02  0.1300439E+00
        -11   -1    0    0    0    0  0.00000000000E+00  0.00000000000E+00  0.45593999997E+02  0.45594000000E+02  0.51100000000E-03 0.  1.
         11   -1    0    0    0    0 -0.00000000000E+00 -0.00000000000E+00 -0.45593999997E+02  0.45594000000E+02  0.51100000000E-03 0. -1.
    9900012    2    1    2    0    0  0.17625821090E+02 -0.31920152834E+02  0.17988878635E+02  0.50528862275E+02  0.30000007371E+02 0.  0.
         12    1    1    2    0    0 -0.17625821090E+02  0.31920152834E+02 -0.17988878635E+02  0.40659137725E+02  0.00000000000E+00 0. -1.
         11    1    3    3    0    0  0.13231347313E+02 -0.10174564279E+02  0.75869978568E+01  0.18334471542E+02  0.51100000000E-03 0. -1.
        -11    1    3    3    0    0  0.12049250241E+02 -0.15676231450E+02  0.10578260712E+02  0.22423832495E+02  0.51100000000E-03 0.  1.
        -12    1    3    3    0    0 -0.76547764646E+01 -0.60693571049E+01 -0.17637993357E+00  0.97705582374E+01  0.00000000000E+00 0.  1.
</event>
<event>
 7    1  0.2432574E-011  0.5052886E+02  0.7816164E-02  0.1300439E+00
        -11   -1    0    0    0    0  0.00000000000E+00  0.00000000000E+00  0.45593999997E+02  0.45594000000E+02  0.51100000000E-03 0.  1.
         11   -1    0    0    0    0 -0.00000000000E+00 -0.00000000000E+00 -0.45593999997E+02  0.45594000000E+02  0.51100000000E-03 0. -1.
    9900012    2    1    2    0    0  0.17915374714E+01 -0.24527576087E+02  0.32378299673E+02  0.50528857302E+02  0.29999992256E+02 0.  0.
         12    1    1    2    0    0 -0.17915374714E+01  0.24527576087E+02 -0.32378299673E+02  0.40659142698E+02  0.00000000000E+00 0. -1.
         11    1    3    3    0    0 -0.57434785117E+01  0.19122456741E+00  0.29212364174E+01  0.64465288890E+01  0.51100000000E-03 0. -1.
        -11    1    3    3    0    0 -0.69940642453E+01 -0.84885895296E+01  0.92964689834E+01  0.14401299340E+02  0.51100000000E-03 0.  1.
        -12    1    3    3    0    0  0.14529080228E+02 -0.16230211124E+02  0.20160594272E+02  0.29681029073E+02  0.00000000000E+00 0.  1.
</event>
<event>
 7    1  0.2432574E-011  0.5052886E+02  0.7816164E-02  0.1300439E+00
        -11   -1    0    0    0    0  0.00000000000E+00  0.00000000000E+00  0.45593999997E+02  0.45594000000E+02  0.51100000000E-03 0.  1.
         11   -1    0    0    0    0 -0.00000000000E+00 -0.00000000000E+00 -0.45593999997E+02  0.45594000000E+02  0.51100000000E-03 0. -1.
    9900012    2    1    2    0    0  0.15841588791E+02  0.17650617680E+01  0.37404464070E+02  0.50528864362E+02  0.30000013715E+02 0.  0.
         12    1    1    2    0    0 -0.15841588791E+02 -0.17650617680E+01 -0.37404464070E+02  0.40659135638E+02  0.00000000000E+00 0. -1.
         11    1    3    3    0    0  0.44919347304E+01 -0.30794571021E+00  0.15507735662E+01  0.47620591237E+01  0.51100000000E-03 0. -1.
        -11    1    3    3    0    0  0.11038932704E+02 -0.38709746620E+01  0.37749194053E+02  0.39520173734E+02  0.51100000000E-03 0.  1.
         12    1    3    3    0    0  0.31072135666E+00  0.59439821401E+01 -0.18955035493E+01  0.62466315042E+01  0.00000000000E+00 0. -1.
</event>
<event>
 7    1  0.2432574E-011  0.5052886E+02  0.7816164E-02  0.1300439E+00
        -11   -1    0    0    0    0  0.00000000000E+00  0.00000000000E+00  0.45593999997E+02  0.45594000000E+02  0.51100000000E-03 0.  1.
         11   -1    0    0    0    0 -0.00000000000E+00 -0.00000000000E+00 -0.45593999997E+02  0.45594000000E+02  0.51100000000E-03 0. -1.
    9900012    2    1    2    0    0 -0.10905162023E+02  0.27197702347E+02  0.28187373343E+02  0.50528860957E+02  0.30000003366E+02 0.  0.
         12    1    1    2    0    0  0.10905162023E+02 -0.27197702347E+02 -0.28187373343E+02  0.40659139043E+02  0.00000000000E+00 0. -1.
         11    1    3    3    0    0  0.47205978383E-01 -0.55101116400E+01  0.14947009983E+01  0.57094386787E+01  0.51100000000E-03 0. -1.
        -11    1    3    3    0    0 -0.27833686032E+01  0.92547463236E+01  0.13771510389E+02  0.16824148387E+02  0.51100000000E-03 0.  1.
        -12    1    3    3    0    0 -0.81689993979E+01  0.23453067663E+02  0.12921161956E+02  0.27995273892E+02  0.00000000000E+00 0.  1.
</event>
<event>
 7    1  0.2432574E-011  0.5052887E+02  0.7816164E-02  0.1300439E+00
        -11   -1    0    0    0    0  0.00000000000E+00  0.00000000000E+00  0.45593999997E+02  0.45594000000E+02  0.51100000000E-03 0. -1.
         11   -1    0    0    0    0 -0.00000000000E+00 -0.00000000000E+00 -0.45593999997E+02  0.45594000000E+02  0.51100000000E-03 0.  1.
    9900012    2    1    2    0    0  0.36974292376E+01  0.32150445162E+02 -0.24613874658E+02  0.50528869011E+02  0.30000027847E+02 0.  0.
         12    1    1    2    0    0 -0.36974292376E+01 -0.32150445162E+02  0.24613874658E+02  0.40659130989E+02  0.00000000000E+00 0. -1.
         11    1    3    3    0    0  0.70440832550E+01  0.16328919156E+02 -0.11092404505E+02  0.20959345115E+02  0.51100000000E-03 0. -1.
        -11    1    3    3    0    0 -0.17890871454E+01 -0.24788345238E+01 -0.10525242743E+02  0.10960209326E+02  0.51100000000E-03 0.  1.
         12    1    3    3    0    0 -0.15575668720E+01  0.18300360529E+02 -0.29962274101E+01  0.18609314570E+02  0.00000000000E+00 0. -1.
</event>
<event>
 7    1  0.2432574E-011  0.5052886E+02  0.7816164E-02  0.1300439E+00
        -11   -1    0    0    0    0  0.00000000000E+00  0.00000000000E+00  0.45593999997E+02  0.45594000000E+02  0.51100000000E-03 0.  1.
         11   -1    0    0    0    0 -0.00000000000E+00 -0.00000000000E+00 -0.45593999997E+02  0.45594000000E+02  0.51100000000E-03 0. -1.
    9900012    2    1    2    0    0 -0.24711502079E+02  0.26088713266E+02  0.19023301365E+02  0.50528864622E+02  0.30000014504E+02 0.  0.
         12    1    1    2    0    0  0.24711502079E+02 -0.26088713266E+02 -0.19023301365E+02  0.40659135378E+02  0.00000000000E+00 0. -1.
         11    1    3    3    0    0 -0.77290078094E+01  0.17016694399E+02  0.11192575916E+02  0.21784838899E+02  0.51100000000E-03 0.  1.
        -11    1    3    3    0    0 -0.18243155467E+02  0.48547076851E+01  0.12251870353E+02  0.22505315717E+02  0.51100000000E-03 0. -1.
         12    1    3    3    0    0  0.12606611978E+01  0.42173111823E+01 -0.44211449040E+01  0.62387100050E+01  0.00000000000E+00 0. -1.
</event>
<event>
 7    1  0.2432574E-011  0.5052886E+02  0.7816164E-02  0.1300439E+00
        -11   -1    0    0    0    0  0.00000000000E+00  0.00000000000E+00  0.45593999997E+02  0.45594000000E+02  0.51100000000E-03 0. -1.
         11   -1    0    0    0    0 -0.00000000000E+00 -0.00000000000E+00 -0.45593999997E+02  0.45594000000E+02  0.51100000000E-03 0.  1.
    9900012    2    1    2    0    0 -0.14219747772E+02  0.34072039903E+02 -0.17031162237E+02  0.50528860597E+02  0.30000002271E+02 0.  0.
         12    1    1    2    0    0  0.14219747772E+02 -0.34072039903E+02  0.17031162237E+02  0.40659139403E+02  0.00000000000E+00 0. -1.
         11    1    3    3    0    0 -0.81569387951E+01  0.16281463721E+02  0.12924101104E+01  0.18256287562E+02  0.51100000000E-03 0.  1.
        -11    1    3    3    0    0  0.13651691376E+01  0.17396447847E+02 -0.71686888370E+01  0.18865051931E+02  0.51100000000E-03 0. -1.
        -12    1    3    3    0    0 -0.74279781146E+01  0.39412833551E+00 -0.11154883511E+02  0.13407521104E+02  0.00000000000E+00 0.  1.
</event>
<event>
 7    1  0.2432574E-011  0.5052886E+02  0.7816164E-02  0.1300439E+00
        -11   -1    0    0    0    0  0.00000000000E+00  0.00000000000E+00  0.45593999997E+02  0.45594000000E+02  0.51100000000E-03 0.  1.
         11   -1    0    0    0    0 -0.00000000000E+00 -0.00000000000E+00 -0.45593999997E+02  0.45594000000E+02  0.51100000000E-03 0. -1.
    9900012    2    1    2    0    0 -0.31665609371E+02  0.23674525576E+02  0.94853425412E+01  0.50528859562E+02  0.29999999123E+02 0.  0.
         12    1    1    2    0    0  0.31665609371E+02 -0.23674525576E+02 -0.94853425412E+01  0.40659140438E+02  0.00000000000E+00 0. -1.
         11    1    3    3    0    0  0.12798628400E+01  0.16083724761E+01  0.54755654190E+01  0.58486517959E+01  0.51100000000E-03 0. -1.
        -11    1    3    3    0    0 -0.14146227340E+02  0.37243276431E+01  0.10027184436E+02  0.17735015994E+02  0.51100000000E-03 0.  1.
        -12    1    3    3    0    0 -0.18799244871E+02  0.18341825457E+02 -0.60174073142E+01  0.26945191771E+02  0.00000000000E+00 0.  1.
</event>
<event>
 7    1  0.2432574E-011  0.5052886E+02  0.7816164E-02  0.1300439E+00
        -11   -1    0    0    0    0  0.00000000000E+00  0.00000000000E+00  0.45593999997E+02  0.45594000000E+02  0.51100000000E-03 0.  1.
         11   -1    0    0    0    0 -0.00000000000E+00 -0.00000000000E+00 -0.45593999997E+02  0.45594000000E+02  0.51100000000E-03 0. -1.
    9900012    2    1    2    0    0  0.32450812164E+02 -0.24306172061E+02  0.30529536144E+01  0.50528859132E+02  0.29999997817E+02 0.  0.
         12    1    1    2    0    0 -0.32450812164E+02  0.24306172061E+02 -0.30529536144E+01  0.40659140868E+02  0.00000000000E+00 0. -1.
         11    1    3    3    0    0  0.52096101143E+01 -0.17366905562E+01  0.69967674351E+01  0.88944300792E+01  0.51100000000E-03 0. -1.
        -11    1    3    3    0    0  0.10711878686E+02 -0.19639174450E+02  0.45381411510E+01  0.22826218334E+02  0.51100000000E-03 0.  1.
        -12    1    3    3    0    0  0.16529323363E+02 -0.29303070548E+01 -0.84819549717E+01  0.18808210718E+02  0.00000000000E+00 0.  1.
</event>
<event>
 7    1  0.2432574E-011  0.5052886E+02  0.7816164E-02  0.1300439E+00
        -11   -1    0    0    0    0  0.00000000000E+00  0.00000000000E+00  0.45593999997E+02  0.45594000000E+02  0.51100000000E-03 0.  1.
         11   -1    0    0    0    0 -0.00000000000E+00 -0.00000000000E+00 -0.45593999997E+02  0.45594000000E+02  0.51100000000E-03 0. -1.
    9900012    2    1    2    0    0 -0.18323301493E+02 -0.34538525650E+02 -0.11158501083E+02  0.50528864765E+02  0.30000014939E+02 0.  0.
         12    1    1    2    0    0  0.18323301493E+02  0.34538525650E+02  0.11158501083E+02  0.40659135235E+02  0.00000000000E+00 0. -1.
         11    1    3    3    0    0 -0.13740368807E+02 -0.12148851497E+02 -0.83913354483E+01  0.20169453104E+02  0.51100000000E-03 0. -1.
        -11    1    3    3    0    0 -0.70445658112E+01 -0.26421225804E+01  0.49598973235E+01  0.90115093586E+01  0.51100000000E-03 0.  1.
         12    1    3    3    0    0  0.24616331250E+01 -0.19747551573E+02 -0.77270629580E+01  0.21347902302E+02  0.00000000000E+00 0. -1.
</event>
<event>
 7    1  0.2432574E-011  0.5052886E+02  0.7816164E-02  0.1300439E+00
        -11   -1    0    0    0    0  0.00000000000E+00  0.00000000000E+00  0.45593999997E+02  0.45594000000E+02  0.51100000000E-03 0.  1.
         11   -1    0    0    0    0 -0.00000000000E+00 -0.00000000000E+00 -0.45593999997E+02  0.45594000000E+02  0.51100000000E-03 0. -1.
    9900012    2    1    2    0    0 -0.17228513428E+02  0.10233489288E+02  0.35378237978E+02  0.50528859572E+02  0.29999999154E+02 0.  0.
         12    1    1    2    0    0  0.17228513428E+02 -0.10233489288E+02 -0.35378237978E+02  0.40659140428E+02  0.00000000000E+00 0. -1.
         11    1    3    3    0    0 -0.21227011291E+01 -0.71653589110E+00 -0.98449947695E+00  0.24471459392E+01  0.51100000000E-03 0. -1.
        -11    1    3    3    0    0 -0.84320182625E+01  0.16588498141E+02  0.11856779889E+02  0.22064914052E+02  0.51100000000E-03 0.  1.
         12    1    3    3    0    0 -0.66737940369E+01 -0.56384729612E+01  0.24505957566E+02  0.26016799580E+02  0.00000000000E+00 0. -1.
</event>
<event>
 7    1  0.2637061E-011  0.5052886E+02  0.7816164E-02  0.1300439E+00
        -11   -1    0    0    0    0  0.00000000000E+00  0.00000000000E+00  0.45593999997E+02  0.45594000000E+02  0.51100000000E-03 0.  1.
         11   -1    0    0    0    0 -0.00000000000E+00 -0.00000000000E+00 -0.45593999997E+02  0.45594000000E+02  0.51100000000E-03 0. -1.
    9900012    2    1    2    0    0 -0.14179748606E+02  0.28418111822E+02  0.25387229564E+02  0.50528858654E+02  0.29999996364E+02 0.  0.
         12    1    1    2    0    0  0.14179748606E+02 -0.28418111822E+02 -0.25387229564E+02  0.40659141346E+02  0.00000000000E+00 0. -1.
         11    1    3    3    0    0 -0.57108481799E+01 -0.34798638333E+01  0.31214314804E+01  0.73801472871E+01  0.51100000000E-03 0. -1.
        -11    1    3    3    0    0 -0.13179298663E+02  0.18174489022E+02  0.13404466769E+02  0.26147384077E+02  0.51100000000E-03 0.  1.
        -12    1    3    3    0    0  0.47103982371E+01  0.13723486633E+02  0.88613313151E+01  0.17001327289E+02  0.00000000000E+00 0.  1.
</event>
<event>
 7    1  0.2432574E-011  0.5052886E+02  0.7816164E-02  0.1300439E+00
        -11   -1    0    0    0    0  0.00000000000E+00  0.00000000000E+00  0.45593999997E+02  0.45594000000E+02  0.51100000000E-03 0.  1.
         11   -1    0    0    0    0 -0.00000000000E+00 -0.00000000000E+00 -0.45593999997E+02  0.45594000000E+02  0.51100000000E-03 0. -1.
    9900012    2    1    2    0    0  0.18250766152E+02 -0.35722646611E+02 -0.66308150689E+01  0.50528860135E+02  0.30000000867E+02 0.  0.
         12    1    1    2    0    0 -0.18250766152E+02  0.35722646611E+02  0.66308150689E+01  0.40659139865E+02  0.00000000000E+00 0. -1.
         11    1    3    3    0    0  0.90577359080E+01 -0.31871460314E+02 -0.32548484171E+01  0.33293041327E+02  0.51100000000E-03 0. -1.
        -11    1    3    3    0    0  0.86238964468E+01 -0.78122951497E+01  0.52383362325E+00  0.11648087712E+02  0.51100000000E-03 0.  1.
         12    1    3    3    0    0  0.56913379716E+00  0.39611088521E+01 -0.38998002750E+01  0.55877310961E+01  0.00000000000E+00 0. -1.
</event>
<event>
 7    1  0.2432574E-011  0.5052888E+02  0.7816164E-02  0.1300439E+00
        -11   -1    0    0    0    0  0.00000000000E+00  0.00000000000E+00  0.45593999997E+02  0.45594000000E+02  0.51100000000E-03 0.  1.
         11   -1    0    0    0    0 -0.00000000000E+00 -0.00000000000E+00 -0.45593999997E+02  0.45594000000E+02  0.51100000000E-03 0. -1.
    9900012    2    1    2    0    0  0.22677599076E+02  0.26402792149E+02  0.21018644645E+02  0.50528876106E+02  0.30000049411E+02 0.  0.
         12    1    1    2    0    0 -0.22677599076E+02 -0.26402792149E+02 -0.21018644645E+02  0.40659123894E+02  0.00000000000E+00 0. -1.
         11    1    3    3    0    0  0.18942166273E+01  0.36596991459E+01  0.14099797496E+02  0.14689647517E+02  0.51100000000E-03 0. -1.
        -11    1    3    3    0    0  0.74626786684E+01 -0.12282704333E+01  0.30019527773E+01  0.81370720719E+01  0.51100000000E-03 0.  1.
        -12    1    3    3    0    0  0.13320703781E+02  0.23971363436E+02  0.39168943721E+01  0.27702156517E+02  0.00000000000E+00 0.  1.
</event>
<event>
 7    1  0.2432574E-011  0.5052886E+02  0.7816164E-02  0.1300439E+00
        -11   -1    0    0    0    0  0.00000000000E+00  0.00000000000E+00  0.45593999997E+02  0.45594000000E+02  0.51100000000E-03 0. -1.
         11   -1    0    0    0    0 -0.00000000000E+00 -0.00000000000E+00 -0.45593999997E+02  0.45594000000E+02  0.51100000000E-03 0.  1.
    9900012    2    1    2    0    0  0.55387454538E+01 -0.37381035448E+02 -0.15004857565E+02  0.50528864952E+02  0.30000015507E+02 0.  0.
         12    1    1    2    0    0 -0.55387454538E+01  0.37381035448E+02  0.15004857565E+02  0.40659135048E+02  0.00000000000E+00 0. -1.
         11    1    3    3    0    0 -0.10747991685E+02 -0.74602654341E+01 -0.34942195292E+01  0.13541951706E+02  0.51100000000E-03 0. -1.
        -11    1    3    3    0    0  0.46684899880E+01 -0.24114937175E+01 -0.11528493438E+01  0.53795132297E+01  0.51100000000E-03 0.  1.
        -12    1    3    3    0    0  0.11618247151E+02 -0.27509276296E+02 -0.10357788692E+02  0.31607400016E+02  0.00000000000E+00 0.  1.
</event>
<event>
 7    1  0.2432574E-011  0.5052886E+02  0.7816164E-02  0.1300439E+00
        -11   -1    0    0    0    0  0.00000000000E+00  0.00000000000E+00  0.45593999997E+02  0.45594000000E+02  0.51100000000E-03 0.  1.
         11   -1    0    0    0    0 -0.00000000000E+00 -0.00000000000E+00 -0.45593999997E+02  0.45594000000E+02  0.51100000000E-03 0. -1.
    9900012    2    1    2    0    0  0.15887142645E+02  0.49070707142E+01  0.37103706278E+02  0.50528860020E+02  0.30000000516E+02 0.  0.
         12    1    1    2    0    0 -0.15887142645E+02 -0.49070707142E+01 -0.37103706278E+02  0.40659139980E+02  0.00000000000E+00 0. -1.
         11    1    3    3    0    0  0.96278946279E+01  0.10804837365E+02  0.92310447491E+01  0.17165461045E+02  0.51100000000E-03 0. -1.
        -11    1    3    3    0    0  0.16029431225E+01  0.34135007039E+01  0.19890592135E+02  0.20244927005E+02  0.51100000000E-03 0.  1.
        -12    1    3    3    0    0  0.46563048942E+01 -0.93112673547E+01  0.79820693933E+01  0.13118471970E+02  0.00000000000E+00 0.  1.
</event>
<event>
 7    1  0.2432574E-011  0.5052886E+02  0.7816164E-02  0.1300439E+00
        -11   -1    0    0    0    0  0.00000000000E+00  0.00000000000E+00  0.45593999997E+02  0.45594000000E+02  0.51100000000E-03 0. -1.
         11   -1    0    0    0    0 -0.00000000000E+00 -0.00000000000E+00 -0.45593999997E+02  0.45594000000E+02  0.51100000000E-03 0.  1.
    9900012    2    1    2    0    0  0.10966159715E-01 -0.28154750782E+02 -0.29333859705E+02  0.50528862810E+02  0.30000008996E+02 0.  0.
         12    1    1    2    0    0 -0.10966159715E-01  0.28154750782E+02  0.29333859705E+02  0.40659137190E+02  0.00000000000E+00 0. -1.
         11    1    3    3    0    0 -0.66380812425E+01 -0.25895852939E+01 -0.56779508580E+00  0.71478994185E+01  0.51100000000E-03 0. -1.
        -11    1    3    3    0    0 -0.49186178118E+01 -0.13919311810E+02 -0.19736120151E+02  0.24646591677E+02  0.51100000000E-03 0.  1.
         12    1    3    3    0    0  0.11567665214E+02 -0.11645853679E+02 -0.90299444686E+01  0.18734371714E+02  0.00000000000E+00 0. -1.
</event>
<event>
 7    1  0.2432574E-011  0.5052887E+02  0.7816164E-02  0.1300439E+00
        -11   -1    0    0    0    0  0.00000000000E+00  0.00000000000E+00  0.45593999997E+02  0.45594000000E+02  0.51100000000E-03 0.  1.
         11   -1    0    0    0    0 -0.00000000000E+00 -0.00000000000E+00 -0.45593999997E+02  0.45594000000E+02  0.51100000000E-03 0. -1.
    9900012    2    1    2    0    0 -0.17191436969E+02  0.77779159899E+01  0.36015604309E+02  0.50528865282E+02  0.30000016512E+02 0.  0.
         12    1    1    2    0    0  0.17191436969E+02 -0.77779159899E+01 -0.36015604309E+02  0.40659134718E+02  0.00000000000E+00 0. -1.
         11    1    3    3    0    0 -0.78023585339E+01  0.47733953614E+00  0.11079610163E+02  0.13559587507E+02  0.51100000000E-03 0. -1.
        -11    1    3    3    0    0 -0.13641141454E+02 -0.43588542836E+01  0.95996225076E+01  0.17240449628E+02  0.51100000000E-03 0.  1.
         12    1    3    3    0    0  0.42520630188E+01  0.11659430737E+02  0.15336371638E+02  0.19728828147E+02  0.00000000000E+00 0. -1.
</event>
<event>
 7    1  0.2432574E-011  0.5052887E+02  0.7816164E-02  0.1300439E+00
        -11   -1    0    0    0    0  0.00000000000E+00  0.00000000000E+00  0.45593999997E+02  0.45594000000E+02  0.51100000000E-03 0. -1.
         11   -1    0    0    0    0 -0.00000000000E+00 -0.00000000000E+00 -0.45593999997E+02  0.45594000000E+02  0.51100000000E-03 0.  1.
    9900012    2    1    2    0    0  0.22971824899E+02  0.74641188023E+01 -0.32706982234E+02  0.50528874388E+02  0.30000044191E+02 0.  0.
         12    1    1    2    0    0 -0.22971824899E+02 -0.74641188023E+01  0.32706982234E+02  0.40659125612E+02  0.00000000000E+00 0. -1.
         11    1    3    3    0    0  0.12161207416E+02  0.57981959110E+01 -0.22168607970E+02  0.25941496125E+02  0.51100000000E-03 0. -1.
        -11    1    3    3    0    0  0.87210126415E+01  0.30422237526E+01 -0.16059260783E+02  0.18525955954E+02  0.51100000000E-03 0.  1.
         12    1    3    3    0    0  0.20896048413E+01 -0.13763008613E+01  0.55208865190E+01  0.60614223091E+01  0.00000000000E+00 0. -1.
</event>
<event>
 7    1  0.2432574E-011  0.5052885E+02  0.7816164E-02  0.1300439E+00
        -11   -1    0    0    0    0  0.00000000000E+00  0.00000000000E+00  0.45593999997E+02  0.45594000000E+02  0.51100000000E-03 0. -1.
         11   -1    0    0    0    0 -0.00000000000E+00 -0.00000000000E+00 -0.45593999997E+02  0.45594000000E+02  0.51100000000E-03 0.  1.
    9900012    2    1    2    0    0  0.33871421965E+02 -0.10795321654E+02 -0.19732066943E+02  0.50528847754E+02  0.29999963232E+02 0.  0.
         12    1    1    2    0    0 -0.33871421965E+02  0.10795321654E+02  0.19732066943E+02  0.40659152246E+02  0.00000000000E+00 0. -1.
         11    1    3    3    0    0  0.47345501407E+01 -0.77436247288E+01 -0.97801220472E+01  0.13342806170E+02  0.51100000000E-03 0. -1.
        -11    1    3    3    0    0  0.31108334964E+02 -0.57518335674E+01 -0.11283118203E+02  0.33587510331E+02  0.51100000000E-03 0.  1.
         12    1    3    3    0    0 -0.19714631396E+01  0.27001366422E+01  0.13311733079E+01  0.35985312521E+01  0.00000000000E+00 0. -1.
</event>
<event>
 7    1  0.2432574E-011  0.5052886E+02  0.7816164E-02  0.1300439E+00
        -11   -1    0    0    0    0  0.00000000000E+00  0.00000000000E+00  0.45593999997E+02  0.45594000000E+02  0.51100000000E-03 0.  1.
         11   -1    0    0    0    0 -0.00000000000E+00 -0.00000000000E+00 -0.45593999997E+02  0.45594000000E+02  0.51100000000E-03 0. -1.
    9900012    2    1    2    0    0 -0.25618295298E+02  0.34103243821E+01  0.31388505527E+02  0.50528860245E+02  0.30000001202E+02 0.  0.
         12    1    1    2    0    0  0.25618295298E+02 -0.34103243821E+01 -0.31388505527E+02  0.40659139755E+02  0.00000000000E+00 0. -1.
         11    1    3    3    0    0 -0.12125837961E+02  0.35879447734E+01  0.15806330930E+02  0.20242267454E+02  0.51100000000E-03 0. -1.
        -11    1    3    3    0    0 -0.15474520173E+02  0.35688117213E+01  0.19371251887E+01  0.15998426358E+02  0.51100000000E-03 0.  1.
         12    1    3    3    0    0  0.19820628360E+01 -0.37464321127E+01  0.13645049408E+02  0.14288166433E+02  0.00000000000E+00 0. -1.
</event>
<event>
 7    1  0.2432574E-011  0.5052886E+02  0.7816164E-02  0.1300439E+00
        -11   -1    0    0    0    0  0.00000000000E+00  0.00000000000E+00  0.45593999997E+02  0.45594000000E+02  0.51100000000E-03 0.  1.
         11   -1    0    0    0    0 -0.00000000000E+00 -0.00000000000E+00 -0.45593999997E+02  0.45594000000E+02  0.51100000000E-03 0. -1.
    9900012    2    1    2    0    0  0.20653946061E+02  0.33861516849E+02  0.89430368189E+01  0.50528859346E+02  0.29999998467E+02 0.  0.
         12    1    1    2    0    0 -0.20653946061E+02 -0.33861516849E+02 -0.89430368189E+01  0.40659140654E+02  0.00000000000E+00 0. -1.
         11    1    3    3    0    0 -0.27860549498E+01  0.18937179225E+01 -0.26387509336E+01  0.42791677350E+01  0.51100000000E-03 0. -1.
        -11    1    3    3    0    0  0.33358394285E+01  0.20877844365E+02  0.15673710249E+01  0.21200680702E+02  0.51100000000E-03 0.  1.
        -12    1    3    3    0    0  0.20104161583E+02  0.11089954561E+02  0.10014416728E+02  0.25049010909E+02  0.00000000000E+00 0.  1.
</event>
<event>
 7    1  0.2432574E-011  0.5052887E+02  0.7816164E-02  0.1300439E+00
        -11   -1    0    0    0    0  0.00000000000E+00  0.00000000000E+00  0.45593999997E+02  0.45594000000E+02  0.51100000000E-03 0. -1.
         11   -1    0    0    0    0 -0.00000000000E+00 -0.00000000000E+00 -0.45593999997E+02  0.45594000000E+02  0.51100000000E-03 0.  1.
    9900012    2    1    2    0    0 -0.38430203393E+01  0.10310302336E+02 -0.39141965867E+02  0.50528872715E+02  0.30000039106E+02 0.  0.
         12    1    1    2    0    0  0.38430203393E+01 -0.10310302336E+02  0.39141965867E+02  0.40659127285E+02  0.00000000000E+00 0. -1.
         11    1    3    3    0    0  0.90432143698E+00  0.23351437754E+01 -0.18679760572E+02  0.18846860455E+02  0.51100000000E-03 0. -1.
        -11    1    3    3    0    0  0.88401498175E+01  0.44664610144E+01 -0.10741695609E+02  0.14611007754E+02  0.51100000000E-03 0.  1.
         12    1    3    3    0    0 -0.13587491594E+02  0.35086975458E+01 -0.97205096864E+01  0.17071004506E+02  0.00000000000E+00 0. -1.
</event>
<event>
 7    1  0.2432574E-011  0.5052887E+02  0.7816164E-02  0.1300439E+00
        -11   -1    0    0    0    0  0.00000000000E+00  0.00000000000E+00  0.45593999997E+02  0.45594000000E+02  0.51100000000E-03 0. -1.
         11   -1    0    0    0    0 -0.00000000000E+00 -0.00000000000E+00 -0.45593999997E+02  0.45594000000E+02  0.51100000000E-03 0.  1.
    9900012    2    1    2    0    0 -0.25904211541E+00 -0.11755263340E+02 -0.38921867582E+02  0.50528867015E+02  0.30000021779E+02 0.  0.
         12    1    1    2    0    0  0.25904211541E+00  0.11755263340E+02  0.38921867582E+02  0.40659132985E+02  0.00000000000E+00 0. -1.
         11    1    3    3    0    0  0.17210571040E+01  0.59037278082E+00 -0.21774223831E+00  0.18324817923E+01  0.51100000000E-03 0. -1.
        -11    1    3    3    0    0 -0.55178279212E+01  0.52572385606E+00 -0.34142954623E+02  0.34589943064E+02  0.51100000000E-03 0.  1.
        -12    1    3    3    0    0  0.35377287018E+01 -0.12871359977E+02 -0.45611707209E+01  0.14106442159E+02  0.00000000000E+00 0.  1.
</event>
<event>
 7    1  0.2432574E-011  0.5052885E+02  0.7816164E-02  0.1300439E+00
        -11   -1    0    0    0    0  0.00000000000E+00  0.00000000000E+00  0.45593999997E+02  0.45594000000E+02  0.51100000000E-03 0.  1.
         11   -1    0    0    0    0 -0.00000000000E+00 -0.00000000000E+00 -0.45593999997E+02  0.45594000000E+02  0.51100000000E-03 0. -1.
    9900012    2    1    2    0    0  0.23778808412E+02 -0.32697406623E+02  0.43144145383E+01  0.50528852171E+02  0.29999976659E+02 0.  0.
         12    1    1    2    0    0 -0.23778808412E+02  0.32697406623E+02 -0.43144145383E+01  0.40659147829E+02  0.00000000000E+00 0. -1.
         11    1    3    3    0    0  0.16822225141E+02 -0.18515697317E+02  0.97280815557E+01  0.26841271893E+02  0.51100000000E-03 0. -1.
        -11    1    3    3    0    0  0.63420809698E+01 -0.12437346373E+02  0.36555968135E+01  0.14431665329E+02  0.51100000000E-03 0.  1.
         12    1    3    3    0    0  0.61450230187E+00 -0.17443629332E+01 -0.90692638310E+01  0.92559149498E+01  0.00000000000E+00 0. -1.
</event>
<event>
 7    1  0.2432574E-011  0.5052882E+02  0.7816164E-02  0.1300439E+00
        -11   -1    0    0    0    0  0.00000000000E+00  0.00000000000E+00  0.45593999997E+02  0.45594000000E+02  0.51100000000E-03 0.  1.
         11   -1    0    0    0    0 -0.00000000000E+00 -0.00000000000E+00 -0.45593999997E+02  0.45594000000E+02  0.51100000000E-03 0. -1.
    9900012    2    1    2    0    0 -0.11840212624E+02 -0.10970344332E+02  0.37317957131E+02  0.50528818821E+02  0.29999875288E+02 0.  0.
         12    1    1    2    0    0  0.11840212624E+02  0.10970344332E+02 -0.37317957131E+02  0.40659181179E+02  0.00000000000E+00 0. -1.
         11    1    3    3    0    0 -0.10894401213E+01  0.73196259171E+01  0.51037081421E+01  0.89895294874E+01  0.51100000000E-03 0. -1.
        -11    1    3    3    0    0 -0.66186317146E+01  0.19079458300E+00  0.12843342909E+02  0.14449710921E+02  0.51100000000E-03 0.  1.
        -12    1    3    3    0    0 -0.41321407882E+01 -0.18480764832E+02  0.19370906079E+02  0.27089578413E+02  0.00000000000E+00 0.  1.
</event>
<event>
 7    1  0.2432574E-011  0.5052886E+02  0.7816164E-02  0.1300439E+00
        -11   -1    0    0    0    0  0.00000000000E+00  0.00000000000E+00  0.45593999997E+02  0.45594000000E+02  0.51100000000E-03 0. -1.
         11   -1    0    0    0    0 -0.00000000000E+00 -0.00000000000E+00 -0.45593999997E+02  0.45594000000E+02  0.51100000000E-03 0.  1.
    9900012    2    1    2    0    0 -0.25780651577E+02  0.21727757336E+02  0.22725061086E+02  0.50528857904E+02  0.29999994085E+02 0.  0.
         12    1    1    2    0    0  0.25780651577E+02 -0.21727757336E+02 -0.22725061086E+02  0.40659142096E+02  0.00000000000E+00 0. -1.
         11    1    3    3    0    0 -0.12587358046E+02  0.19991222934E+02  0.10533075858E+02  0.25865735332E+02  0.51100000000E-03 0. -1.
        -11    1    3    3    0    0 -0.32211657873E+01  0.78269541111E+01  0.10698569070E+01  0.85312199449E+01  0.51100000000E-03 0.  1.
         12    1    3    3    0    0 -0.99721277442E+01 -0.60904197087E+01  0.11122128322E+02  0.16131902627E+02  0.00000000000E+00 0. -1.
</event>
<event>
 7    1  0.2432574E-011  0.5052889E+02  0.7816164E-02  0.1300439E+00
        -11   -1    0    0    0    0  0.00000000000E+00  0.00000000000E+00  0.45593999997E+02  0.45594000000E+02  0.51100000000E-03 0. -1.
         11   -1    0    0    0    0 -0.00000000000E+00 -0.00000000000E+00 -0.45593999997E+02  0.45594000000E+02  0.51100000000E-03 0.  1.
    9900012    2    1    2    0    0  0.58630779232E+01  0.26968528613E+02 -0.29857762155E+02  0.50528890576E+02  0.30000093395E+02 0.  0.
         12    1    1    2    0    0 -0.58630779232E+01 -0.26968528613E+02  0.29857762155E+02  0.40659109424E+02  0.00000000000E+00 0. -1.
         11    1    3    3    0    0  0.35679675543E+01  0.25232196648E+01  0.33047520994E+01  0.54789065191E+01  0.51100000000E-03 0. -1.
        -11    1    3    3    0    0 -0.30248651869E+01  0.19452932937E+01  0.10601045268E+01  0.37493729164E+01  0.51100000000E-03 0.  1.
        -12    1    3    3    0    0  0.53199755558E+01  0.22500015654E+02 -0.34222618781E+02  0.41300611140E+02  0.00000000000E+00 0.  1.
</event>
<event>
 7    1  0.2432574E-011  0.5052886E+02  0.7816164E-02  0.1300439E+00
        -11   -1    0    0    0    0  0.00000000000E+00  0.00000000000E+00  0.45593999997E+02  0.45594000000E+02  0.51100000000E-03 0.  1.
         11   -1    0    0    0    0 -0.00000000000E+00 -0.00000000000E+00 -0.45593999997E+02  0.45594000000E+02  0.51100000000E-03 0. -1.
    9900012    2    1    2    0    0  0.34525935595E+02  0.10680252528E+02  0.18629488081E+02  0.50528857745E+02  0.29999993602E+02 0.  0.
         12    1    1    2    0    0 -0.34525935595E+02 -0.10680252528E+02 -0.18629488081E+02  0.40659142255E+02  0.00000000000E+00 0. -1.
         11    1    3    3    0    0  0.18844259904E+02 -0.66771778018E+01  0.27500772578E+01  0.20180529228E+02  0.51100000000E-03 0. -1.
        -11    1    3    3    0    0  0.11095811141E+02  0.91418898338E+01  0.15189320670E+02  0.20914268748E+02  0.51100000000E-03 0.  1.
        -12    1    3    3    0    0  0.45858645498E+01  0.82155404955E+01  0.69009015333E+00  0.94340597689E+01  0.00000000000E+00 0.  1.
</event>
<event>
 7    1  0.2432574E-011  0.5052886E+02  0.7816164E-02  0.1300439E+00
        -11   -1    0    0    0    0  0.00000000000E+00  0.00000000000E+00  0.45593999997E+02  0.45594000000E+02  0.51100000000E-03 0.  1.
         11   -1    0    0    0    0 -0.00000000000E+00 -0.00000000000E+00 -0.45593999997E+02  0.45594000000E+02  0.51100000000E-03 0. -1.
    9900012    2    1    2    0    0 -0.12484994364E+01 -0.15788469614E+02  0.37447714111E+02  0.50528858153E+02  0.29999994841E+02 0.  0.
         12    1    1    2    0    0  0.12484994364E+01  0.15788469614E+02 -0.37447714111E+02  0.40659141847E+02  0.00000000000E+00 0. -1.
         11    1    3    3    0    0  0.37666998733E+01 -0.92155160234E+01  0.15643165954E+02  0.18542448728E+02  0.51100000000E-03 0. -1.
        -11    1    3    3    0    0 -0.75631019933E+01 -0.13567263530E+02  0.17452307178E+02  0.23363522370E+02  0.51100000000E-03 0.  1.
         12    1    3    3    0    0  0.25479026837E+01  0.69943099393E+01  0.43522409795E+01  0.86228870546E+01  0.00000000000E+00 0. -1.
</event>
<event>
 7    1  0.2432574E-011  0.5052890E+02  0.7816164E-02  0.1300439E+00
        -11   -1    0    0    0    0  0.00000000000E+00  0.00000000000E+00  0.45593999997E+02  0.45594000000E+02  0.51100000000E-03 0.  1.
         11   -1    0    0    0    0 -0.00000000000E+00 -0.00000000000E+00 -0.45593999997E+02  0.45594000000E+02  0.51100000000E-03 0. -1.
    9900012    2    1    2    0    0 -0.20396965501E+02 -0.12596509753E+02  0.32839829593E+02  0.50528896871E+02  0.30000112528E+02 0.  0.
         12    1    1    2    0    0  0.20396965501E+02  0.12596509753E+02 -0.32839829593E+02  0.40659103129E+02  0.00000000000E+00 0. -1.
         11    1    3    3    0    0 -0.26047635526E+00  0.29481090177E+00 -0.26426880349E+01  0.26718086964E+01  0.51100000000E-03 0. -1.
        -11    1    3    3    0    0 -0.43825408889E+01  0.58983176538E+01  0.10821750311E+02  0.13080791102E+02  0.51100000000E-03 0.  1.
        -12    1    3    3    0    0 -0.15753948257E+02 -0.18789638308E+02  0.24660767316E+02  0.34776297072E+02  0.00000000000E+00 0.  1.
</event>
<event>
 7    1  0.2432574E-011  0.5052885E+02  0.7816164E-02  0.1300439E+00
        -11   -1    0    0    0    0  0.00000000000E+00  0.00000000000E+00  0.45593999997E+02  0.45594000000E+02  0.51100000000E-03 0.  1.
         11   -1    0    0    0    0 -0.00000000000E+00 -0.00000000000E+00 -0.45593999997E+02  0.45594000000E+02  0.51100000000E-03 0. -1.
    9900012    2    1    2    0    0 -0.15700945165E+02  0.28263068269E+02  0.24654523614E+02  0.50528852915E+02  0.29999978921E+02 0.  0.
         12    1    1    2    0    0  0.15700945165E+02 -0.28263068269E+02 -0.24654523614E+02  0.40659147085E+02  0.00000000000E+00 0. -1.
         11    1    3    3    0    0 -0.33079626641E+01  0.14992028716E+01 -0.53433120420E+01  0.64607437712E+01  0.51100000000E-03 0. -1.
        -11    1    3    3    0    0  0.49368924041E+00  0.66494965346E+01  0.13437808258E+02  0.15001140765E+02  0.51100000000E-03 0.  1.
        -12    1    3    3    0    0 -0.12886671741E+02  0.20114368863E+02  0.16560027398E+02  0.29066968379E+02  0.00000000000E+00 0.  1.
</event>
<event>
 7    1  0.2432574E-011  0.5052887E+02  0.7816164E-02  0.1300439E+00
        -11   -1    0    0    0    0  0.00000000000E+00  0.00000000000E+00  0.45593999997E+02  0.45594000000E+02  0.51100000000E-03 0.  1.
         11   -1    0    0    0    0 -0.00000000000E+00 -0.00000000000E+00 -0.45593999997E+02  0.45594000000E+02  0.51100000000E-03 0. -1.
    9900012    2    1    2    0    0  0.16095128158E+01 -0.38946223531E+02 -0.11565734644E+02  0.50528867242E+02  0.30000022468E+02 0.  0.
         12    1    1    2    0    0 -0.16095128158E+01  0.38946223531E+02  0.11565734644E+02  0.40659132758E+02  0.00000000000E+00 0. -1.
         11    1    3    3    0    0  0.18936704808E+01 -0.31777570208E+02 -0.30216257613E+01  0.31977025796E+02  0.51100000000E-03 0. -1.
        -11    1    3    3    0    0 -0.31347453678E+01 -0.34544547557E+01  0.33674038413E+01  0.57531986818E+01  0.51100000000E-03 0.  1.
         12    1    3    3    0    0  0.28505877029E+01 -0.37141985664E+01 -0.11911512724E+02  0.12798642764E+02  0.00000000000E+00 0. -1.
</event>
<event>
 7    1  0.2432574E-011  0.5052886E+02  0.7816164E-02  0.1300439E+00
        -11   -1    0    0    0    0  0.00000000000E+00  0.00000000000E+00  0.45593999997E+02  0.45594000000E+02  0.51100000000E-03 0. -1.
         11   -1    0    0    0    0 -0.00000000000E+00 -0.00000000000E+00 -0.45593999997E+02  0.45594000000E+02  0.51100000000E-03 0.  1.
    9900012    2    1    2    0    0 -0.80258624536E+01  0.39120754288E+02  0.76366255612E+01  0.50528856696E+02  0.29999990415E+02 0.  0.
         12    1    1    2    0    0  0.80258624536E+01 -0.39120754288E+02 -0.76366255612E+01  0.40659143304E+02  0.00000000000E+00 0. -1.
         11    1    3    3    0    0 -0.41513119108E+01  0.26350036789E+01 -0.60990538048E+00  0.49546563759E+01  0.51100000000E-03 0. -1.
        -11    1    3    3    0    0 -0.18185284705E+01  0.33116024434E+02 -0.33400211322E+01  0.33333674588E+02  0.51100000000E-03 0.  1.
         12    1    3    3    0    0 -0.20560220722E+01  0.33697261759E+01  0.11586552074E+02  0.12240525733E+02  0.00000000000E+00 0. -1.
</event>
<event>
 7    1  0.3380090E-011  0.5052885E+02  0.7816164E-02  0.1300439E+00
        -11   -1    0    0    0    0  0.00000000000E+00  0.00000000000E+00  0.45593999997E+02  0.45594000000E+02  0.51100000000E-03 0. -1.
         11   -1    0    0    0    0 -0.00000000000E+00 -0.00000000000E+00 -0.45593999997E+02  0.45594000000E+02  0.51100000000E-03 0.  1.
    9900012    2    1    2    0    0  0.39477615970E+02  0.97305900256E+01 -0.18271214439E-01  0.50528845081E+02  0.29999955108E+02 0.  0.
         12    1    1    2    0    0 -0.39477615970E+02 -0.97305900256E+01  0.18271214439E-01  0.40659154919E+02  0.00000000000E+00 0. -1.
         11    1    3    3    0    0  0.14026696047E+02  0.10721188072E+02 -0.21238070633E+01  0.17782087402E+02  0.51100000000E-03 0. -1.
        -11    1    3    3    0    0  0.25257006825E+02  0.52172062644E+01  0.43268151187E+01  0.26150658965E+02  0.51100000000E-03 0.  1.
         12    1    3    3    0    0  0.19391309758E+00 -0.62078043106E+01 -0.22212792698E+01  0.65960987138E+01  0.00000000000E+00 0. -1.
</event>
<event>
 7    1  0.2432574E-011  0.5052886E+02  0.7816164E-02  0.1300439E+00
        -11   -1    0    0    0    0  0.00000000000E+00  0.00000000000E+00  0.45593999997E+02  0.45594000000E+02  0.51100000000E-03 0.  1.
         11   -1    0    0    0    0 -0.00000000000E+00 -0.00000000000E+00 -0.45593999997E+02  0.45594000000E+02  0.51100000000E-03 0. -1.
    9900012    2    1    2    0    0  0.29930473121E+02 -0.97928401533E+01  0.25718336257E+02  0.50528858846E+02  0.29999996949E+02 0.  0.
         12    1    1    2    0    0 -0.29930473121E+02  0.97928401533E+01 -0.25718336257E+02  0.40659141154E+02  0.00000000000E+00 0. -1.
         11    1    3    3    0    0 -0.10247469855E+01 -0.40902702687E+01  0.44492755396E+01  0.61299649545E+01  0.51100000000E-03 0. -1.
        -11    1    3    3    0    0  0.22303208112E+02 -0.13818608601E+02  0.10126182213E+02  0.28123417329E+02  0.51100000000E-03 0.  1.
         12    1    3    3    0    0  0.86520119947E+01  0.81160387165E+01  0.11142878504E+02  0.16275476563E+02  0.00000000000E+00 0. -1.
</event>
<event>
 7    1  0.2432574E-011  0.5052887E+02  0.7816164E-02  0.1300439E+00
        -11   -1    0    0    0    0  0.00000000000E+00  0.00000000000E+00  0.45593999997E+02  0.45594000000E+02  0.51100000000E-03 0.  1.
         11   -1    0    0    0    0 -0.00000000000E+00 -0.00000000000E+00 -0.45593999997E+02  0.45594000000E+02  0.51100000000E-03 0. -1.
    9900012    2    1    2    0    0  0.13974700929E+02  0.73217965798E+01  0.37473508128E+02  0.50528870858E+02  0.30000033459E+02 0.  0.
         12    1    1    2    0    0 -0.13974700929E+02 -0.73217965798E+01 -0.37473508128E+02  0.40659129142E+02  0.00000000000E+00 0. -1.
         11    1    3    3    0    0  0.67413641064E+00 -0.71156965717E+00 -0.27250624483E+01  0.28959897937E+01  0.51100000000E-03 0. -1.
        -11    1    3    3    0    0  0.13963422146E+02 -0.25765836281E+01  0.17254955800E+02  0.22346128102E+02  0.51100000000E-03 0.  1.
         12    1    3    3    0    0 -0.66285762740E+00  0.10609949865E+02  0.22943614776E+02  0.25286752962E+02  0.00000000000E+00 0. -1.
</event>
<event>
 7    1  0.2432574E-011  0.5052886E+02  0.7816164E-02  0.1300439E+00
        -11   -1    0    0    0    0  0.00000000000E+00  0.00000000000E+00  0.45593999997E+02  0.45594000000E+02  0.51100000000E-03 0.  1.
         11   -1    0    0    0    0 -0.00000000000E+00 -0.00000000000E+00 -0.45593999997E+02  0.45594000000E+02  0.51100000000E-03 0. -1.
    9900012    2    1    2    0    0  0.27974389679E+02 -0.29024969507E+02 -0.53056537607E+01  0.50528864561E+02  0.30000014320E+02 0.  0.
         12    1    1    2    0    0 -0.27974389679E+02  0.29024969507E+02  0.53056537607E+01  0.40659135439E+02  0.00000000000E+00 0. -1.
         11    1    3    3    0    0  0.10155840554E+02 -0.43627213076E+01 -0.10285925237E+02  0.15098830842E+02  0.51100000000E-03 0. -1.
        -11    1    3    3    0    0  0.89008029945E+01 -0.19711148412E+02 -0.38152139361E+01  0.21961546469E+02  0.51100000000E-03 0.  1.
        -12    1    3    3    0    0  0.89177461310E+01 -0.49510997874E+01  0.87954854121E+01  0.13468487250E+02  0.00000000000E+00 0.  1.
</event>
<event>
 7    1  0.2432574E-011  0.5052886E+02  0.7816164E-02  0.1300439E+00
        -11   -1    0    0    0    0  0.00000000000E+00  0.00000000000E+00  0.45593999997E+02  0.45594000000E+02  0.51100000000E-03 0.  1.
         11   -1    0    0    0    0 -0.00000000000E+00 -0.00000000000E+00 -0.45593999997E+02  0.45594000000E+02  0.51100000000E-03 0. -1.
    9900012    2    1    2    0    0 -0.29646927040E+02 -0.22669647829E+02  0.16134196774E+02  0.50528861775E+02  0.30000005853E+02 0.  0.
         12    1    1    2    0    0  0.29646927040E+02  0.22669647829E+02 -0.16134196774E+02  0.40659138225E+02  0.00000000000E+00 0. -1.
         11    1    3    3    0    0 -0.66529352104E+01 -0.34909984128E+01  0.12504087853E+02  0.14587694476E+02  0.51100000000E-03 0. -1.
        -11    1    3    3    0    0 -0.19821877119E+02 -0.96413173045E+01  0.98267108755E+01  0.24133504901E+02  0.51100000000E-03 0.  1.
         12    1    3    3    0    0 -0.31721147106E+01 -0.95373321114E+01 -0.61966019542E+01  0.11807662399E+02  0.00000000000E+00 0. -1.
</event>
<event>
 7    1  0.2432574E-011  0.5052891E+02  0.7816164E-02  0.1300439E+00
        -11   -1    0    0    0    0  0.00000000000E+00  0.00000000000E+00  0.45593999997E+02  0.45594000000E+02  0.51100000000E-03 0. -1.
         11   -1    0    0    0    0 -0.00000000000E+00 -0.00000000000E+00 -0.45593999997E+02  0.45594000000E+02  0.51100000000E-03 0.  1.
    9900012    2    1    2    0    0  0.23085091979E+02  0.27010370903E+02 -0.19765635536E+02  0.50528905616E+02  0.30000139111E+02 0.  0.
         12    1    1    2    0    0 -0.23085091979E+02 -0.27010370903E+02  0.19765635536E+02  0.40659094384E+02  0.00000000000E+00 0. -1.
         11    1    3    3    0    0  0.18537660322E+02  0.21544279936E+02 -0.13298762824E+02  0.31379259728E+02  0.51100000000E-03 0. -1.
        -11    1    3    3    0    0  0.22503723068E+01  0.38038201569E+01 -0.12078858087E+02  0.12862038573E+02  0.51100000000E-03 0.  1.
         12    1    3    3    0    0  0.22970593500E+01  0.16622708093E+01  0.56119853749E+01  0.62876073151E+01  0.00000000000E+00 0. -1.
</event>
<event>
 7    1  0.2432574E-011  0.5052886E+02  0.7816164E-02  0.1300439E+00
        -11   -1    0    0    0    0  0.00000000000E+00  0.00000000000E+00  0.45593999997E+02  0.45594000000E+02  0.51100000000E-03 0.  1.
         11   -1    0    0    0    0 -0.00000000000E+00 -0.00000000000E+00 -0.45593999997E+02  0.45594000000E+02  0.51100000000E-03 0. -1.
    9900012    2    1    2    0    0 -0.21363632119E+02 -0.14495945552E+02  0.31410648001E+02  0.50528855609E+02  0.29999987109E+02 0.  0.
         12    1    1    2    0    0  0.21363632119E+02  0.14495945552E+02 -0.31410648001E+02  0.40659144391E+02  0.00000000000E+00 0. -1.
         11    1    3    3    0    0 -0.52428771775E+01  0.29848876285E+01 -0.41742640448E+00  0.60474424608E+01  0.51100000000E-03 0. -1.
        -11    1    3    3    0    0 -0.20648867137E+02 -0.12369634297E+02  0.22735103478E+02  0.33109945592E+02  0.51100000000E-03 0.  1.
        -12    1    3    3    0    0  0.45281121958E+01 -0.51111988833E+01  0.90929709272E+01  0.11371467556E+02  0.00000000000E+00 0.  1.
</event>
<event>
 7    1  0.2432574E-011  0.5052886E+02  0.7816164E-02  0.1300439E+00
        -11   -1    0    0    0    0  0.00000000000E+00  0.00000000000E+00  0.45593999997E+02  0.45594000000E+02  0.51100000000E-03 0. -1.
         11   -1    0    0    0    0 -0.00000000000E+00 -0.00000000000E+00 -0.45593999997E+02  0.45594000000E+02  0.51100000000E-03 0.  1.
    9900012    2    1    2    0    0  0.24025875104E+02 -0.14031269362E+01 -0.32771238458E+02  0.50528861915E+02  0.30000006278E+02 0.  0.
         12    1    1    2    0    0 -0.24025875104E+02  0.14031269362E+01  0.32771238458E+02  0.40659138085E+02  0.00000000000E+00 0. -1.
         11    1    3    3    0    0 -0.16984752916E+01 -0.19150320209E+01 -0.12461415930E+02  0.12721597902E+02  0.51100000000E-03 0. -1.
        -11    1    3    3    0    0  0.13797675117E+02  0.94198628529E+01 -0.13295379801E+02  0.21351271136E+02  0.51100000000E-03 0.  1.
         12    1    3    3    0    0  0.11926675278E+02 -0.89079577682E+01 -0.70144427277E+01  0.16455992877E+02  0.00000000000E+00 0. -1.
</event>
<event>
 7    1  0.2432574E-011  0.5052886E+02  0.7816164E-02  0.1300439E+00
        -11   -1    0    0    0    0  0.00000000000E+00  0.00000000000E+00  0.45593999997E+02  0.45594000000E+02  0.51100000000E-03 0. -1.
         11   -1    0    0    0    0 -0.00000000000E+00 -0.00000000000E+00 -0.45593999997E+02  0.45594000000E+02  0.51100000000E-03 0.  1.
    9900012    2    1    2    0    0 -0.10082065406E+02 -0.15362237994E+02 -0.36270083367E+02  0.50528863924E+02  0.30000012382E+02 0.  0.
         12    1    1    2    0    0  0.10082065406E+02  0.15362237994E+02  0.36270083367E+02  0.40659136076E+02  0.00000000000E+00 0. -1.
         11    1    3    3    0    0  0.34112528802E+01  0.27846352436E+01 -0.44967564788E+00  0.44264035178E+01  0.51100000000E-03 0. -1.
        -11    1    3    3    0    0 -0.54266203628E+01 -0.40878562257E+01 -0.26601347748E+02  0.27455245025E+02  0.51100000000E-03 0.  1.
         12    1    3    3    0    0 -0.80666979231E+01 -0.14059017012E+02 -0.92190599709E+01  0.18647215381E+02  0.00000000000E+00 0. -1.
</event>
<event>
 7    1  0.2432574E-011  0.5052886E+02  0.7816164E-02  0.1300439E+00
        -11   -1    0    0    0    0  0.00000000000E+00  0.00000000000E+00  0.45593999997E+02  0.45594000000E+02  0.51100000000E-03 0.  1.
         11   -1    0    0    0    0 -0.00000000000E+00 -0.00000000000E+00 -0.45593999997E+02  0.45594000000E+02  0.51100000000E-03 0. -1.
    9900012    2    1    2    0    0 -0.22983546020E+02 -0.17008380491E+02  0.28907388393E+02  0.50528862057E+02  0.30000006708E+02 0.  0.
         12    1    1    2    0    0  0.22983546020E+02  0.17008380491E+02 -0.28907388393E+02  0.40659137943E+02  0.00000000000E+00 0. -1.
         11    1    3    3    0    0 -0.19054350314E+02 -0.21018069423E+01  0.71558314701E+01  0.20461959403E+02  0.51100000000E-03 0. -1.
        -11    1    3    3    0    0 -0.44671693306E+01 -0.77157417989E+01  0.21360034827E+01  0.91679214915E+01  0.51100000000E-03 0.  1.
         12    1    3    3    0    0  0.53797362477E+00 -0.71908317500E+01  0.19615553440E+02  0.20898981163E+02  0.00000000000E+00 0. -1.
</event>
<event>
 7    1  0.2432574E-011  0.5052887E+02  0.7816164E-02  0.1300439E+00
        -11   -1    0    0    0    0  0.00000000000E+00  0.00000000000E+00  0.45593999997E+02  0.45594000000E+02  0.51100000000E-03 0.  1.
         11   -1    0    0    0    0 -0.00000000000E+00 -0.00000000000E+00 -0.45593999997E+02  0.45594000000E+02  0.51100000000E-03 0. -1.
    9900012    2    1    2    0    0  0.15704991643E+02  0.31815833570E+00  0.37502226075E+02  0.50528868826E+02  0.30000027283E+02 0.  0.
         12    1    1    2    0    0 -0.15704991643E+02 -0.31815833570E+00 -0.37502226075E+02  0.40659131174E+02  0.00000000000E+00 0. -1.
         11    1    3    3    0    0 -0.13426291121E+01 -0.69350626336E+01  0.14025179475E+02  0.15703611248E+02  0.51100000000E-03 0. -1.
        -11    1    3    3    0    0 -0.13146466931E+01  0.43171572272E+01  0.12364515414E+02  0.13162347212E+02  0.51100000000E-03 0.  1.
         12    1    3    3    0    0  0.18362267449E+02  0.29360637421E+01  0.11112531187E+02  0.21662910366E+02  0.00000000000E+00 0. -1.
</event>
<event>
 7    1  0.2432574E-011  0.5052886E+02  0.7816164E-02  0.1300439E+00
        -11   -1    0    0    0    0  0.00000000000E+00  0.00000000000E+00  0.45593999997E+02  0.45594000000E+02  0.51100000000E-03 0.  1.
         11   -1    0    0    0    0 -0.00000000000E+00 -0.00000000000E+00 -0.45593999997E+02  0.45594000000E+02  0.51100000000E-03 0. -1.
    9900012    2    1    2    0    0 -0.17424041506E+02  0.31700035641E+02  0.18565456290E+02  0.50528860200E+02  0.30000001063E+02 0.  0.
         12    1    1    2    0    0  0.17424041506E+02 -0.31700035641E+02 -0.18565456290E+02  0.40659139800E+02  0.00000000000E+00 0. -1.
         11    1    3    3    0    0 -0.14251052951E+02  0.15364164688E+02  0.15684106191E+01  0.21014518288E+02  0.51100000000E-03 0. -1.
        -11    1    3    3    0    0 -0.90720109657E+01  0.30803235235E+01  0.75882862016E+01  0.12221778255E+02  0.51100000000E-03 0.  1.
         12    1    3    3    0    0  0.58990224104E+01  0.13255547430E+02  0.94087594692E+01  0.17292563656E+02  0.00000000000E+00 0. -1.
</event>
<event>
 7    1  0.2432574E-011  0.5052886E+02  0.7816164E-02  0.1300439E+00
        -11   -1    0    0    0    0  0.00000000000E+00  0.00000000000E+00  0.45593999997E+02  0.45594000000E+02  0.51100000000E-03 0. -1.
         11   -1    0    0    0    0 -0.00000000000E+00 -0.00000000000E+00 -0.45593999997E+02  0.45594000000E+02  0.51100000000E-03 0.  1.
    9900012    2    1    2    0    0  0.33936230129E+02 -0.13077324093E+02 -0.18179152804E+02  0.50528859362E+02  0.29999998517E+02 0.  0.
         12    1    1    2    0    0 -0.33936230129E+02  0.13077324093E+02  0.18179152804E+02  0.40659140638E+02  0.00000000000E+00 0. -1.
         11    1    3    3    0    0  0.35927003239E+01  0.50849818894E+01 -0.57161432060E+01  0.84521494216E+01  0.51100000000E-03 0.  1.
        -11    1    3    3    0    0  0.12203460750E+02 -0.86173735852E+01  0.43562636253E+01  0.15561510686E+02  0.51100000000E-03 0. -1.
        -12    1    3    3    0    0  0.18140069055E+02 -0.95449323968E+01 -0.16819273223E+02  0.26515199255E+02  0.00000000000E+00 0.  1.
</event>
<event>
 7    1  0.2432574E-011  0.5052886E+02  0.7816164E-02  0.1300439E+00
        -11   -1    0    0    0    0  0.00000000000E+00  0.00000000000E+00  0.45593999997E+02  0.45594000000E+02  0.51100000000E-03 0.  1.
         11   -1    0    0    0    0 -0.00000000000E+00 -0.00000000000E+00 -0.45593999997E+02  0.45594000000E+02  0.51100000000E-03 0. -1.
    9900012    2    1    2    0    0  0.26937943745E+02  0.30343027058E+02  0.26102463211E+01  0.50528862157E+02  0.30000007014E+02 0.  0.
         12    1    1    2    0    0 -0.26937943745E+02 -0.30343027058E+02 -0.26102463211E+01  0.40659137843E+02  0.00000000000E+00 0. -1.
         11    1    3    3    0    0  0.21216758877E+02  0.21109225816E+02  0.76550730133E+01  0.30892562453E+02  0.51100000000E-03 0. -1.
        -11    1    3    3    0    0  0.23113918431E+01  0.11975784516E+02  0.92823285861E+00  0.12232071106E+02  0.51100000000E-03 0.  1.
         12    1    3    3    0    0  0.34097930244E+01 -0.27419832743E+01 -0.59730595508E+01  0.74042285988E+01  0.00000000000E+00 0. -1.
</event>
<event>
 7    1  0.2432574E-011  0.5052887E+02  0.7816164E-02  0.1300439E+00
        -11   -1    0    0    0    0  0.00000000000E+00  0.00000000000E+00  0.45593999997E+02  0.45594000000E+02  0.51100000000E-03 0.  1.
         11   -1    0    0    0    0 -0.00000000000E+00 -0.00000000000E+00 -0.45593999997E+02  0.45594000000E+02  0.51100000000E-03 0. -1.
    9900012    2    1    2    0    0  0.60349109556E+01 -0.39005671628E+02  0.97623027942E+01  0.50528866644E+02  0.30000020651E+02 0.  0.
         12    1    1    2    0    0 -0.60349109556E+01  0.39005671628E+02 -0.97623027942E+01  0.40659133356E+02  0.00000000000E+00 0. -1.
         11    1    3    3    0    0 -0.34756628689E+01 -0.12256777576E+02 -0.45860051260E+00  0.12748299636E+02  0.51100000000E-03 0. -1.
        -11    1    3    3    0    0  0.11075866905E+02 -0.19184058004E+02  0.16665081528E+02  0.27720531232E+02  0.51100000000E-03 0.  1.
         12    1    3    3    0    0 -0.15652930806E+01 -0.75648360486E+01 -0.64441782209E+01  0.10060035776E+02  0.00000000000E+00 0. -1.
</event>
<event>
 7    1  0.2432574E-011  0.5052886E+02  0.7816164E-02  0.1300439E+00
        -11   -1    0    0    0    0  0.00000000000E+00  0.00000000000E+00  0.45593999997E+02  0.45594000000E+02  0.51100000000E-03 0.  1.
         11   -1    0    0    0    0 -0.00000000000E+00 -0.00000000000E+00 -0.45593999997E+02  0.45594000000E+02  0.51100000000E-03 0. -1.
    9900012    2    1    2    0    0  0.20257823045E+02 -0.23284855855E+02  0.26468881527E+02  0.50528860855E+02  0.30000003055E+02 0.  0.
         12    1    1    2    0    0 -0.20257823045E+02  0.23284855855E+02 -0.26468881527E+02  0.40659139145E+02  0.00000000000E+00 0. -1.
         11    1    3    3    0    0  0.86940587574E+00 -0.77428770949E+01  0.12748839084E+02  0.14941248627E+02  0.51100000000E-03 0. -1.
        -11    1    3    3    0    0  0.10876795003E+02 -0.18482701859E+02  0.31081100130E+01  0.21669685869E+02  0.51100000000E-03 0.  1.
         12    1    3    3    0    0  0.85116221660E+01  0.29407230984E+01  0.10611932430E+02  0.13917926359E+02  0.00000000000E+00 0. -1.
</event>
<event>
 7    1  0.2432574E-011  0.5052885E+02  0.7816164E-02  0.1300439E+00
        -11   -1    0    0    0    0  0.00000000000E+00  0.00000000000E+00  0.45593999997E+02  0.45594000000E+02  0.51100000000E-03 0. -1.
         11   -1    0    0    0    0 -0.00000000000E+00 -0.00000000000E+00 -0.45593999997E+02  0.45594000000E+02  0.51100000000E-03 0.  1.
    9900012    2    1    2    0    0 -0.39007709282E+02  0.11445447797E+02 -0.75294180711E+00  0.50528848753E+02  0.29999966271E+02 0.  0.
         12    1    1    2    0    0  0.39007709282E+02 -0.11445447797E+02  0.75294180711E+00  0.40659151247E+02  0.00000000000E+00 0. -1.
         11    1    3    3    0    0 -0.18556461349E+02 -0.38618239966E+01 -0.50291955653E+01  0.19609914601E+02  0.51100000000E-03 0. -1.
        -11    1    3    3    0    0 -0.17740865278E+02  0.45966577502E+01  0.68670512187E+01  0.19570997828E+02  0.51100000000E-03 0.  1.
         12    1    3    3    0    0 -0.27103826555E+01  0.10710614044E+02 -0.25907974605E+01  0.11347936324E+02  0.00000000000E+00 0. -1.
</event>
<event>
 7    1  0.2432574E-011  0.5052886E+02  0.7816164E-02  0.1300439E+00
        -11   -1    0    0    0    0  0.00000000000E+00  0.00000000000E+00  0.45593999997E+02  0.45594000000E+02  0.51100000000E-03 0.  1.
         11   -1    0    0    0    0 -0.00000000000E+00 -0.00000000000E+00 -0.45593999997E+02  0.45594000000E+02  0.51100000000E-03 0. -1.
    9900012    2    1    2    0    0  0.14756903657E+02  0.61824727140E+01  0.37378824730E+02  0.50528859422E+02  0.29999998698E+02 0.  0.
         12    1    1    2    0    0 -0.14756903657E+02 -0.61824727140E+01 -0.37378824730E+02  0.40659140578E+02  0.00000000000E+00 0. -1.
         11    1    3    3    0    0  0.62796472112E+01 -0.81810592951E+01  0.23526343215E+01  0.10578212930E+02  0.51100000000E-03 0. -1.
        -11    1    3    3    0    0  0.18351620207E+01  0.15933835183E+00  0.11698768143E+02  0.11842904402E+02  0.51100000000E-03 0.  1.
        -12    1    3    3    0    0  0.66420944249E+01  0.14204193657E+02  0.23327422265E+02  0.28107742089E+02  0.00000000000E+00 0.  1.
</event>
<event>
 7    1  0.2432574E-011  0.5052886E+02  0.7816164E-02  0.1300439E+00
        -11   -1    0    0    0    0  0.00000000000E+00  0.00000000000E+00  0.45593999997E+02  0.45594000000E+02  0.51100000000E-03 0.  1.
         11   -1    0    0    0    0 -0.00000000000E+00 -0.00000000000E+00 -0.45593999997E+02  0.45594000000E+02  0.51100000000E-03 0. -1.
    9900012    2    1    2    0    0 -0.40657584282E+02 -0.24470548771E+00  0.25771580285E+00  0.50528862554E+02  0.30000008219E+02 0.  0.
         12    1    1    2    0    0  0.40657584282E+02  0.24470548771E+00 -0.25771580285E+00  0.40659137446E+02  0.00000000000E+00 0. -1.
         11    1    3    3    0    0 -0.34395512609E+01 -0.48898847999E+01 -0.19961423669E+01  0.63028621152E+01  0.51100000000E-03 0. -1.
        -11    1    3    3    0    0 -0.36078370738E+02  0.39319790169E+00 -0.42948801981E+01  0.36335236835E+02  0.51100000000E-03 0.  1.
        -12    1    3    3    0    0 -0.11396622833E+01  0.42519814105E+01  0.65487383679E+01  0.78907636035E+01  0.00000000000E+00 0.  1.
</event>
<event>
 7    1  0.2432574E-011  0.5052885E+02  0.7816164E-02  0.1300439E+00
        -11   -1    0    0    0    0  0.00000000000E+00  0.00000000000E+00  0.45593999997E+02  0.45594000000E+02  0.51100000000E-03 0.  1.
         11   -1    0    0    0    0 -0.00000000000E+00 -0.00000000000E+00 -0.45593999997E+02  0.45594000000E+02  0.51100000000E-03 0. -1.
    9900012    2    1    2    0    0  0.29471483156E+02  0.20959869121E+02  0.18581761704E+02  0.50528852185E+02  0.29999976702E+02 0.  0.
         12    1    1    2    0    0 -0.29471483156E+02 -0.20959869121E+02 -0.18581761704E+02  0.40659147815E+02  0.00000000000E+00 0. -1.
         11    1    3    3    0    0  0.33728356026E+01 -0.71341987758E+00 -0.52277740906E+01  0.62621569868E+01  0.51100000000E-03 0. -1.
        -11    1    3    3    0    0  0.99728201410E+01  0.13640227139E+02  0.37570188111E+01  0.17309769744E+02  0.51100000000E-03 0.  1.
        -12    1    3    3    0    0  0.16125827413E+02  0.80330618592E+01  0.20052516984E+02  0.26956925455E+02  0.00000000000E+00 0.  1.
</event>
<event>
 7    1  0.2432574E-011  0.5052884E+02  0.7816164E-02  0.1300439E+00
        -11   -1    0    0    0    0  0.00000000000E+00  0.00000000000E+00  0.45593999997E+02  0.45594000000E+02  0.51100000000E-03 0.  1.
         11   -1    0    0    0    0 -0.00000000000E+00 -0.00000000000E+00 -0.45593999997E+02  0.45594000000E+02  0.51100000000E-03 0. -1.
    9900012    2    1    2    0    0  0.24449350796E+02 -0.11862504827E+02  0.30243634348E+02  0.50528841208E+02  0.29999943336E+02 0.  0.
         12    1    1    2    0    0 -0.24449350796E+02  0.11862504827E+02 -0.30243634348E+02  0.40659158792E+02  0.00000000000E+00 0. -1.
         11    1    3    3    0    0  0.14122566044E+02 -0.21846526012E+01  0.51474632502E+01  0.15189336945E+02  0.51100000000E-03 0. -1.
        -11    1    3    3    0    0  0.12284843390E+02 -0.79287657393E+00  0.50136941986E+01  0.13292221791E+02  0.51100000000E-03 0.  1.
        -12    1    3    3    0    0 -0.19580586388E+01 -0.88849756520E+01  0.20082476899E+02  0.22047282471E+02  0.00000000000E+00 0.  1.
</event>
<event>
 7    1  0.2432574E-011  0.5052887E+02  0.7816164E-02  0.1300439E+00
        -11   -1    0    0    0    0  0.00000000000E+00  0.00000000000E+00  0.45593999997E+02  0.45594000000E+02  0.51100000000E-03 0. -1.
         11   -1    0    0    0    0 -0.00000000000E+00 -0.00000000000E+00 -0.45593999997E+02  0.45594000000E+02  0.51100000000E-03 0.  1.
    9900012    2    1    2    0    0  0.54847171199E+01  0.16800158576E+02 -0.36617446593E+02  0.50528870090E+02  0.30000031125E+02 0.  0.
         12    1    1    2    0    0 -0.54847171199E+01 -0.16800158576E+02  0.36617446593E+02  0.40659129910E+02  0.00000000000E+00 0. -1.
         11    1    3    3    0    0 -0.41445437727E+01  0.34536696333E+00 -0.50864772235E+01  0.65702946836E+01  0.51100000000E-03 0. -1.
        -11    1    3    3    0    0  0.14511946633E+02  0.16782265421E+02 -0.32111483710E+02  0.39030608682E+02  0.51100000000E-03 0.  1.
         12    1    3    3    0    0 -0.48826857407E+01 -0.32747380811E+00  0.58051434078E+00  0.49279667245E+01  0.00000000000E+00 0. -1.
</event>
<event>
 7    1  0.2432574E-011  0.5052886E+02  0.7816164E-02  0.1300439E+00
        -11   -1    0    0    0    0  0.00000000000E+00  0.00000000000E+00  0.45593999997E+02  0.45594000000E+02  0.51100000000E-03 0.  1.
         11   -1    0    0    0    0 -0.00000000000E+00 -0.00000000000E+00 -0.45593999997E+02  0.45594000000E+02  0.51100000000E-03 0. -1.
    9900012    2    1    2    0    0  0.14976533764E+02  0.17613952903E+02  0.33445746585E+02  0.50528857546E+02  0.29999992998E+02 0.  0.
         12    1    1    2    0    0 -0.14976533764E+02 -0.17613952903E+02 -0.33445746585E+02  0.40659142454E+02  0.00000000000E+00 0. -1.
         11    1    3    3    0    0  0.15221015505E+02  0.93897596311E+01  0.69182287942E+01  0.19175734376E+02  0.51100000000E-03 0. -1.
        -11    1    3    3    0    0  0.17468754898E+01  0.11806409231E+02  0.23137303771E+02  0.26034164072E+02  0.51100000000E-03 0.  1.
        -12    1    3    3    0    0 -0.19913572304E+01 -0.35822159586E+01  0.33902140195E+01  0.53189590985E+01  0.00000000000E+00 0.  1.
</event>
<event>
 7    1  0.2432574E-011  0.5052886E+02  0.7816164E-02  0.1300439E+00
        -11   -1    0    0    0    0  0.00000000000E+00  0.00000000000E+00  0.45593999997E+02  0.45594000000E+02  0.51100000000E-03 0. -1.
         11   -1    0    0    0    0 -0.00000000000E+00 -0.00000000000E+00 -0.45593999997E+02  0.45594000000E+02  0.51100000000E-03 0.  1.
    9900012    2    1    2    0    0 -0.25270766353E+01 -0.15613420411E+02 -0.37456649071E+02  0.50528861140E+02  0.30000003920E+02 0.  0.
         12    1    1    2    0    0  0.25270766353E+01  0.15613420411E+02  0.37456649071E+02  0.40659138860E+02  0.00000000000E+00 0. -1.
         11    1    3    3    0    0 -0.83030625840E+01 -0.50107193036E+00 -0.22883498690E+02  0.24348438018E+02  0.51100000000E-03 0. -1.
        -11    1    3    3    0    0  0.18545025658E+01 -0.10451007680E+02 -0.16649243461E+02  0.19744874003E+02  0.51100000000E-03 0.  1.
         12    1    3    3    0    0  0.39214833829E+01 -0.46613408006E+01  0.20760930807E+01  0.64355491189E+01  0.00000000000E+00 0. -1.
</event>
<event>
 7    1  0.2432574E-011  0.5052885E+02  0.7816164E-02  0.1300439E+00
        -11   -1    0    0    0    0  0.00000000000E+00  0.00000000000E+00  0.45593999997E+02  0.45594000000E+02  0.51100000000E-03 0.  1.
         11   -1    0    0    0    0 -0.00000000000E+00 -0.00000000000E+00 -0.45593999997E+02  0.45594000000E+02  0.51100000000E-03 0. -1.
    9900012    2    1    2    0    0 -0.29471820482E+02  0.11574124873E+02  0.25507212697E+02  0.50528850124E+02  0.29999970436E+02 0.  0.
         12    1    1    2    0    0  0.29471820482E+02 -0.11574124873E+02 -0.25507212697E+02  0.40659149876E+02  0.00000000000E+00 0. -1.
         11    1    3    3    0    0 -0.18907175844E+02  0.68199507197E+01  0.41175367754E+01  0.20516996261E+02  0.51100000000E-03 0. -1.
        -11    1    3    3    0    0 -0.14756365697E+02  0.14936647483E+01  0.19214846976E+02  0.24273271463E+02  0.51100000000E-03 0.  1.
         12    1    3    3    0    0  0.41917210587E+01  0.32605094049E+01  0.21748289457E+01  0.57385823995E+01  0.00000000000E+00 0. -1.
</event>
<event>
 7    1  0.2432574E-011  0.5052887E+02  0.7816164E-02  0.1300439E+00
        -11   -1    0    0    0    0  0.00000000000E+00  0.00000000000E+00  0.45593999997E+02  0.45594000000E+02  0.51100000000E-03 0.  1.
         11   -1    0    0    0    0 -0.00000000000E+00 -0.00000000000E+00 -0.45593999997E+02  0.45594000000E+02  0.51100000000E-03 0. -1.
    9900012    2    1    2    0    0  0.22465340468E+01  0.30134117484E+02  0.27203916092E+02  0.50528868154E+02  0.30000025240E+02 0.  0.
         12    1    1    2    0    0 -0.22465340468E+01 -0.30134117484E+02 -0.27203916092E+02  0.40659131846E+02  0.00000000000E+00 0. -1.
         11    1    3    3    0    0 -0.98528651290E+00  0.11287071155E+02  0.93174522022E+01  0.14669140417E+02  0.51100000000E-03 0.  1.
        -11    1    3    3    0    0 -0.23779371981E+00  0.66877808077E+01 -0.58998425999E+01  0.89213844749E+01  0.51100000000E-03 0. -1.
         12    1    3    3    0    0  0.34696142795E+01  0.12159265522E+02  0.23786306489E+02  0.26938343262E+02  0.00000000000E+00 0. -1.
</event>
<event>
 7    1  0.2432574E-011  0.5052885E+02  0.7816164E-02  0.1300439E+00
        -11   -1    0    0    0    0  0.00000000000E+00  0.00000000000E+00  0.45593999997E+02  0.45594000000E+02  0.51100000000E-03 0.  1.
         11   -1    0    0    0    0 -0.00000000000E+00 -0.00000000000E+00 -0.45593999997E+02  0.45594000000E+02  0.51100000000E-03 0. -1.
    9900012    2    1    2    0    0 -0.18196653707E+02 -0.36356006369E+02 -0.53735540186E+00  0.50528853968E+02  0.29999982120E+02 0.  0.
         12    1    1    2    0    0  0.18196653707E+02  0.36356006369E+02  0.53735540186E+00  0.40659146032E+02  0.00000000000E+00 0. -1.
         11    1    3    3    0    0 -0.28548687207E+01 -0.12053599798E+02 -0.17715658387E+01  0.12513112694E+02  0.51100000000E-03 0. -1.
        -11    1    3    3    0    0 -0.17492659173E+02 -0.27966543658E+02 -0.14004370254E+01  0.33016388555E+02  0.51100000000E-03 0.  1.
         12    1    3    3    0    0  0.21508741862E+01  0.36641370869E+01  0.26346474623E+01  0.49993527188E+01  0.00000000000E+00 0. -1.
</event>
<event>
 7    1  0.2432574E-011  0.5052886E+02  0.7816164E-02  0.1300439E+00
        -11   -1    0    0    0    0  0.00000000000E+00  0.00000000000E+00  0.45593999997E+02  0.45594000000E+02  0.51100000000E-03 0.  1.
         11   -1    0    0    0    0 -0.00000000000E+00 -0.00000000000E+00 -0.45593999997E+02  0.45594000000E+02  0.51100000000E-03 0. -1.
    9900012    2    1    2    0    0  0.36715424726E+02  0.31279343895E+01 -0.17186020882E+02  0.50528859575E+02  0.29999999163E+02 0.  0.
         12    1    1    2    0    0 -0.36715424726E+02 -0.31279343895E+01  0.17186020882E+02  0.40659140425E+02  0.00000000000E+00 0. -1.
         11    1    3    3    0    0  0.38299073085E+01 -0.19674941995E+01  0.25938827061E+01  0.50266739670E+01  0.51100000000E-03 0.  1.
        -11    1    3    3    0    0  0.16568645784E+02  0.12571818960E+02 -0.31528057536E+01  0.21035941611E+02  0.51100000000E-03 0. -1.
        -12    1    3    3    0    0  0.16316871634E+02 -0.74763903711E+01 -0.16627097835E+02  0.24466243997E+02  0.00000000000E+00 0.  1.
</event>
<event>
 7    1  0.2432574E-011  0.5052886E+02  0.7816164E-02  0.1300439E+00
        -11   -1    0    0    0    0  0.00000000000E+00  0.00000000000E+00  0.45593999997E+02  0.45594000000E+02  0.51100000000E-03 0. -1.
         11   -1    0    0    0    0 -0.00000000000E+00 -0.00000000000E+00 -0.45593999997E+02  0.45594000000E+02  0.51100000000E-03 0.  1.
    9900012    2    1    2    0    0  0.33988085337E+02  0.20098090993E+02 -0.96975330523E+01  0.50528863834E+02  0.30000012111E+02 0.  0.
         12    1    1    2    0    0 -0.33988085337E+02 -0.20098090993E+02  0.96975330523E+01  0.40659136166E+02  0.00000000000E+00 0. -1.
         11    1    3    3    0    0  0.25539540302E+01 -0.30399342822E+01 -0.45112338520E+01  0.60095850736E+01  0.51100000000E-03 0. -1.
        -11    1    3    3    0    0  0.19062783380E+02  0.84254983945E+01 -0.12090005610E+02  0.24094542314E+02  0.51100000000E-03 0.  1.
         12    1    3    3    0    0  0.12371347927E+02  0.14712526881E+02  0.69037064098E+01  0.20424736447E+02  0.00000000000E+00 0. -1.
</event>
<event>
 7    1  0.2432574E-011  0.5052886E+02  0.7816164E-02  0.1300439E+00
        -11   -1    0    0    0    0  0.00000000000E+00  0.00000000000E+00  0.45593999997E+02  0.45594000000E+02  0.51100000000E-03 0.  1.
         11   -1    0    0    0    0 -0.00000000000E+00 -0.00000000000E+00 -0.45593999997E+02  0.45594000000E+02  0.51100000000E-03 0. -1.
    9900012    2    1    2    0    0 -0.18518038612E+01  0.22764238679E+02  0.33638156253E+02  0.50528864541E+02  0.30000014260E+02 0.  0.
         12    1    1    2    0    0  0.18518038612E+01 -0.22764238679E+02 -0.33638156253E+02  0.40659135459E+02  0.00000000000E+00 0. -1.
         11    1    3    3    0    0 -0.57735670206E+01 -0.55657595525E+00  0.64126285236E-01  0.58006866298E+01  0.51100000000E-03 0. -1.
        -11    1    3    3    0    0 -0.66294493924E+01  0.13824202618E+02  0.16492987205E+02  0.22518365937E+02  0.51100000000E-03 0.  1.
        -12    1    3    3    0    0  0.10551212552E+02  0.94966120158E+01  0.17081042763E+02  0.22209811975E+02  0.00000000000E+00 0.  1.
</event>
<event>
 7    1  0.2432574E-011  0.5052885E+02  0.7816164E-02  0.1300439E+00
        -11   -1    0    0    0    0  0.00000000000E+00  0.00000000000E+00  0.45593999997E+02  0.45594000000E+02  0.51100000000E-03 0. -1.
         11   -1    0    0    0    0 -0.00000000000E+00 -0.00000000000E+00 -0.45593999997E+02  0.45594000000E+02  0.51100000000E-03 0.  1.
    9900012    2    1    2    0    0 -0.30318245621E+02  0.35095942079E+00 -0.27089609773E+02  0.50528854070E+02  0.29999982432E+02 0.  0.
         12    1    1    2    0    0  0.30318245621E+02 -0.35095942079E+00  0.27089609773E+02  0.40659145930E+02  0.00000000000E+00 0. -1.
         11    1    3    3    0    0 -0.98151930163E+01 -0.12077124165E+01 -0.89824666716E+01  0.13359689031E+02  0.51100000000E-03 0. -1.
        -11    1    3    3    0    0 -0.68002526452E+01  0.11427977869E+02 -0.14916171623E+02  0.19983350329E+02  0.51100000000E-03 0.  1.
         12    1    3    3    0    0 -0.13702799960E+02 -0.98693060321E+01 -0.31909714790E+01  0.17185814711E+02  0.00000000000E+00 0. -1.
</event>
<event>
 7    1  0.2432574E-011  0.5052886E+02  0.7816164E-02  0.1300439E+00
        -11   -1    0    0    0    0  0.00000000000E+00  0.00000000000E+00  0.45593999997E+02  0.45594000000E+02  0.51100000000E-03 0. -1.
         11   -1    0    0    0    0 -0.00000000000E+00 -0.00000000000E+00 -0.45593999997E+02  0.45594000000E+02  0.51100000000E-03 0.  1.
    9900012    2    1    2    0    0 -0.38691983964E+02 -0.11935462837E+02  0.36933368896E+01  0.50528860394E+02  0.30000001652E+02 0.  0.
         12    1    1    2    0    0  0.38691983964E+02  0.11935462837E+02 -0.36933368896E+01  0.40659139606E+02  0.00000000000E+00 0. -1.
         11    1    3    3    0    0 -0.82853935869E+01 -0.12676905236E+02 -0.46433475680E+00  0.15151477825E+02  0.51100000000E-03 0. -1.
        -11    1    3    3    0    0 -0.36838035932E+01  0.65965461528E+01 -0.71834916036E+00  0.75895227674E+01  0.51100000000E-03 0.  1.
        -12    1    3    3    0    0 -0.26722786783E+02 -0.58551037538E+01  0.48760208067E+01  0.27787859802E+02  0.00000000000E+00 0.  1.
</event>
<event>
 7    1  0.2432574E-011  0.5052886E+02  0.7816164E-02  0.1300439E+00
        -11   -1    0    0    0    0  0.00000000000E+00  0.00000000000E+00  0.45593999997E+02  0.45594000000E+02  0.51100000000E-03 0.  1.
         11   -1    0    0    0    0 -0.00000000000E+00 -0.00000000000E+00 -0.45593999997E+02  0.45594000000E+02  0.51100000000E-03 0. -1.
    9900012    2    1    2    0    0 -0.37130210617E+02  0.17718216500E+01 -0.16473425369E+02  0.50528860366E+02  0.30000001568E+02 0.  0.
         12    1    1    2    0    0  0.37130210617E+02 -0.17718216500E+01  0.16473425369E+02  0.40659139634E+02  0.00000000000E+00 0. -1.
         11    1    3    3    0    0 -0.74832957265E+01  0.81457733938E+01 -0.62430478945E+01  0.12701534804E+02  0.51100000000E-03 0. -1.
        -11    1    3    3    0    0 -0.26682240294E+02 -0.12167551425E+02 -0.10897977213E+02  0.31285094891E+02  0.51100000000E-03 0.  1.
         12    1    3    3    0    0 -0.29646745965E+01  0.57935996811E+01  0.66759973865E+00  0.65422306699E+01  0.00000000000E+00 0. -1.
</event>
<event>
 7    1  0.2432574E-011  0.5052886E+02  0.7816164E-02  0.1300439E+00
        -11   -1    0    0    0    0  0.00000000000E+00  0.00000000000E+00  0.45593999997E+02  0.45594000000E+02  0.51100000000E-03 0.  1.
         11   -1    0    0    0    0 -0.00000000000E+00 -0.00000000000E+00 -0.45593999997E+02  0.45594000000E+02  0.51100000000E-03 0. -1.
    9900012    2    1    2    0    0 -0.80405032342E-01  0.36587961243E+02  0.17733597885E+02  0.50528857525E+02  0.29999992933E+02 0.  0.
         12    1    1    2    0    0  0.80405032342E-01 -0.36587961243E+02 -0.17733597885E+02  0.40659142475E+02  0.00000000000E+00 0. -1.
         11    1    3    3    0    0 -0.13206403774E+01  0.31813642439E+01  0.71132868686E+01  0.79034182348E+01  0.51100000000E-03 0. -1.
        -11    1    3    3    0    0  0.12021279990E+01  0.20166776645E+01  0.10985290796E+02  0.11233375035E+02  0.51100000000E-03 0.  1.
        -12    1    3    3    0    0  0.38107346009E-01  0.31389919334E+02 -0.36497977988E+00  0.31392064255E+02  0.00000000000E+00 0.  1.
</event>
<event>
 7    1  0.2432574E-011  0.5052886E+02  0.7816164E-02  0.1300439E+00
        -11   -1    0    0    0    0  0.00000000000E+00  0.00000000000E+00  0.45593999997E+02  0.45594000000E+02  0.51100000000E-03 0.  1.
         11   -1    0    0    0    0 -0.00000000000E+00 -0.00000000000E+00 -0.45593999997E+02  0.45594000000E+02  0.51100000000E-03 0. -1.
    9900012    2    1    2    0    0 -0.35400414007E+02 -0.66496740772E+01  0.18861557075E+02  0.50528858192E+02  0.29999994962E+02 0.  0.
         12    1    1    2    0    0  0.35400414007E+02  0.66496740772E+01 -0.18861557075E+02  0.40659141808E+02  0.00000000000E+00 0. -1.
         11    1    3    3    0    0 -0.10065890794E+02 -0.13244589750E+01  0.10633808216E+02  0.14702184412E+02  0.51100000000E-03 0. -1.
        -11    1    3    3    0    0 -0.18171066354E+01 -0.10223272878E+02  0.52053979885E+01  0.11615220762E+02  0.51100000000E-03 0.  1.
         12    1    3    3    0    0 -0.23517416578E+02  0.48980577762E+01  0.30223508710E+01  0.24211453018E+02  0.00000000000E+00 0. -1.
</event>
<event>
 7    1  0.2432574E-011  0.5052886E+02  0.7816164E-02  0.1300439E+00
        -11   -1    0    0    0    0  0.00000000000E+00  0.00000000000E+00  0.45593999997E+02  0.45594000000E+02  0.51100000000E-03 0.  1.
         11   -1    0    0    0    0 -0.00000000000E+00 -0.00000000000E+00 -0.45593999997E+02  0.45594000000E+02  0.51100000000E-03 0. -1.
    9900012    2    1    2    0    0  0.26377348082E+02 -0.17264881871E+02  0.25677323296E+02  0.50528861181E+02  0.30000004045E+02 0.  0.
         12    1    1    2    0    0 -0.26377348082E+02  0.17264881871E+02 -0.25677323296E+02  0.40659138819E+02  0.00000000000E+00 0. -1.
         11    1    3    3    0    0  0.18556855718E+02 -0.94987172267E+01  0.71001733618E+01  0.22022601688E+02  0.51100000000E-03 0.  1.
        -11    1    3    3    0    0  0.40764874804E+01 -0.13867136985E+02  0.12820975914E+02  0.19320783161E+02  0.51100000000E-03 0. -1.
         12    1    3    3    0    0  0.37440048838E+01  0.61009723406E+01  0.57561740206E+01  0.91854763309E+01  0.00000000000E+00 0. -1.
</event>
<event>
 7    1  0.2432574E-011  0.5052886E+02  0.7816164E-02  0.1300439E+00
        -11   -1    0    0    0    0  0.00000000000E+00  0.00000000000E+00  0.45593999997E+02  0.45594000000E+02  0.51100000000E-03 0. -1.
         11   -1    0    0    0    0 -0.00000000000E+00 -0.00000000000E+00 -0.45593999997E+02  0.45594000000E+02  0.51100000000E-03 0.  1.
    9900012    2    1    2    0    0  0.26270353877E+02 -0.27373528628E+02 -0.14619313559E+02  0.50528857223E+02  0.29999992017E+02 0.  0.
         12    1    1    2    0    0 -0.26270353877E+02  0.27373528628E+02  0.14619313559E+02  0.40659142777E+02  0.00000000000E+00 0. -1.
         11    1    3    3    0    0  0.23372347613E+02 -0.27050380900E+02 -0.54710970979E+01  0.36165213168E+02  0.51100000000E-03 0. -1.
        -11    1    3    3    0    0  0.66924893574E+01 -0.19113710666E+01 -0.57702406601E+01  0.90409308531E+01  0.51100000000E-03 0.  1.
         12    1    3    3    0    0 -0.37944830929E+01  0.15882233392E+01 -0.33779758013E+01  0.53227132021E+01  0.00000000000E+00 0. -1.
</event>
<event>
 7    1  0.2432574E-011  0.5052878E+02  0.7816164E-02  0.1300439E+00
        -11   -1    0    0    0    0  0.00000000000E+00  0.00000000000E+00  0.45593999997E+02  0.45594000000E+02  0.51100000000E-03 0.  1.
         11   -1    0    0    0    0 -0.00000000000E+00 -0.00000000000E+00 -0.45593999997E+02  0.45594000000E+02  0.51100000000E-03 0. -1.
    9900012    2    1    2    0    0  0.21836359906E+02  0.26329970708E+02  0.21979037588E+02  0.50528781307E+02  0.29999761260E+02 0.  0.
         12    1    1    2    0    0 -0.21836359906E+02 -0.26329970708E+02 -0.21979037588E+02  0.40659218693E+02  0.00000000000E+00 0. -1.
         11    1    3    3    0    0  0.79682760787E+00  0.71299274985E+00  0.93994509795E+01  0.94600725090E+01  0.51100000000E-03 0. -1.
        -11    1    3    3    0    0  0.75032412372E+01 -0.59471505505E-01  0.91615083440E+01  0.11842102910E+02  0.51100000000E-03 0.  1.
        -12    1    3    3    0    0  0.13536291061E+02  0.25676449463E+02  0.34180782643E+01  0.29226605889E+02  0.00000000000E+00 0.  1.
</event>
<event>
 7    1  0.2432574E-011  0.5052886E+02  0.7816164E-02  0.1300439E+00
        -11   -1    0    0    0    0  0.00000000000E+00  0.00000000000E+00  0.45593999997E+02  0.45594000000E+02  0.51100000000E-03 0.  1.
         11   -1    0    0    0    0 -0.00000000000E+00 -0.00000000000E+00 -0.45593999997E+02  0.45594000000E+02  0.51100000000E-03 0. -1.
    9900012    2    1    2    0    0  0.17500720388E+02 -0.13261979470E+02  0.34220024532E+02  0.50528863358E+02  0.30000010662E+02 0.  0.
         12    1    1    2    0    0 -0.17500720388E+02  0.13261979470E+02 -0.34220024532E+02  0.40659136642E+02  0.00000000000E+00 0. -1.
         11    1    3    3    0    0  0.76202227599E+01 -0.10160943361E+02  0.28046042539E+02  0.30787872081E+02  0.51100000000E-03 0. -1.
        -11    1    3    3    0    0 -0.33242378891E+01 -0.43676918855E+00  0.52619144355E+01  0.62393163612E+01  0.51100000000E-03 0.  1.
         12    1    3    3    0    0  0.13204735517E+02 -0.26642669202E+01  0.91206755700E+00  0.13501674916E+02  0.00000000000E+00 0. -1.
</event>
<event>
 7    1  0.2432574E-011  0.5052886E+02  0.7816164E-02  0.1300439E+00
        -11   -1    0    0    0    0  0.00000000000E+00  0.00000000000E+00  0.45593999997E+02  0.45594000000E+02  0.51100000000E-03 0.  1.
         11   -1    0    0    0    0 -0.00000000000E+00 -0.00000000000E+00 -0.45593999997E+02  0.45594000000E+02  0.51100000000E-03 0. -1.
    9900012    2    1    2    0    0 -0.34650648614E+02  0.10901698314E+02  0.18266117632E+02  0.50528861681E+02  0.30000005566E+02 0.  0.
         12    1    1    2    0    0  0.34650648614E+02 -0.10901698314E+02 -0.18266117632E+02  0.40659138319E+02  0.00000000000E+00 0. -1.
         11    1    3    3    0    0 -0.14886753528E+00 -0.18046936093E+01  0.25457290800E+01  0.31240706421E+01  0.51100000000E-03 0. -1.
        -11    1    3    3    0    0 -0.16361440401E+02 -0.43698174511E+01  0.14773976932E+02  0.22473594088E+02  0.51100000000E-03 0.  1.
        -12    1    3    3    0    0 -0.18140340677E+02  0.17076209374E+02  0.94641161973E+00  0.24931196952E+02  0.00000000000E+00 0.  1.
</event>
<event>
 7    1  0.2432574E-011  0.5052886E+02  0.7816164E-02  0.1300439E+00
        -11   -1    0    0    0    0  0.00000000000E+00  0.00000000000E+00  0.45593999997E+02  0.45594000000E+02  0.51100000000E-03 0.  1.
         11   -1    0    0    0    0 -0.00000000000E+00 -0.00000000000E+00 -0.45593999997E+02  0.45594000000E+02  0.51100000000E-03 0. -1.
    9900012    2    1    2    0    0  0.47877303991E+00 -0.23039463119E+02  0.33498053624E+02  0.50528859809E+02  0.29999999876E+02 0.  0.
         12    1    1    2    0    0 -0.47877303991E+00  0.23039463119E+02 -0.33498053624E+02  0.40659140191E+02  0.00000000000E+00 0. -1.
         11    1    3    3    0    0  0.63046728287E+01 -0.15839078526E+01  0.32287958050E+01  0.72582908576E+01  0.51100000000E-03 0. -1.
        -11    1    3    3    0    0  0.62451894143E+01 -0.16573659630E+02  0.19776713708E+02  0.26548201252E+02  0.51100000000E-03 0.  1.
        -12    1    3    3    0    0 -0.12071089203E+02 -0.48818956363E+01  0.10492544111E+02  0.16722367700E+02  0.00000000000E+00 0.  1.
</event>
<event>
 7    1  0.2432574E-011  0.5052884E+02  0.7816164E-02  0.1300439E+00
        -11   -1    0    0    0    0  0.00000000000E+00  0.00000000000E+00  0.45593999997E+02  0.45594000000E+02  0.51100000000E-03 0. -1.
         11   -1    0    0    0    0 -0.00000000000E+00 -0.00000000000E+00 -0.45593999997E+02  0.45594000000E+02  0.51100000000E-03 0.  1.
    9900012    2    1    2    0    0  0.98500905942E+01 -0.33649506711E+02 -0.20587697963E+02  0.50528844893E+02  0.29999954536E+02 0.  0.
         12    1    1    2    0    0 -0.98500905942E+01  0.33649506711E+02  0.20587697963E+02  0.40659155107E+02  0.00000000000E+00 0. -1.
         11    1    3    3    0    0  0.40827278589E+00  0.14829145876E+01  0.14709167493E+01  0.21282196048E+01  0.51100000000E-03 0. -1.
        -11    1    3    3    0    0  0.16210994955E+02 -0.16190468540E+02 -0.12967521224E+02  0.26326493043E+02  0.51100000000E-03 0.  1.
        -12    1    3    3    0    0 -0.67691771464E+01 -0.18941952759E+02 -0.90910934882E+01  0.22074132245E+02  0.00000000000E+00 0.  1.
</event>
<event>
 7    1  0.2432574E-011  0.5052886E+02  0.7816164E-02  0.1300439E+00
        -11   -1    0    0    0    0  0.00000000000E+00  0.00000000000E+00  0.45593999997E+02  0.45594000000E+02  0.51100000000E-03 0.  1.
         11   -1    0    0    0    0 -0.00000000000E+00 -0.00000000000E+00 -0.45593999997E+02  0.45594000000E+02  0.51100000000E-03 0. -1.
    9900012    2    1    2    0    0  0.35497103466E+02 -0.15280509180E+02  0.12634374602E+02  0.50528859123E+02  0.29999997790E+02 0.  0.
         12    1    1    2    0    0 -0.35497103466E+02  0.15280509180E+02 -0.12634374602E+02  0.40659140877E+02  0.00000000000E+00 0. -1.
         11    1    3    3    0    0  0.29045102873E+01 -0.92996901704E+01  0.60690721375E+01  0.11478416883E+02  0.51100000000E-03 0. -1.
        -11    1    3    3    0    0  0.17766976395E+02 -0.99914407945E+01  0.10868886954E+02  0.23100368899E+02  0.51100000000E-03 0.  1.
        -12    1    3    3    0    0  0.14825616784E+02  0.40106217850E+01 -0.43035844901E+01  0.15950073341E+02  0.00000000000E+00 0.  1.
</event>
<event>
 7    1  0.2432574E-011  0.5052886E+02  0.7816164E-02  0.1300439E+00
        -11   -1    0    0    0    0  0.00000000000E+00  0.00000000000E+00  0.45593999997E+02  0.45594000000E+02  0.51100000000E-03 0.  1.
         11   -1    0    0    0    0 -0.00000000000E+00 -0.00000000000E+00 -0.45593999997E+02  0.45594000000E+02  0.51100000000E-03 0. -1.
    9900012    2    1    2    0    0  0.40380108425E+02 -0.32815379510E+01  0.34414624256E+01  0.50528864356E+02  0.30000013695E+02 0.  0.
         12    1    1    2    0    0 -0.40380108425E+02  0.32815379510E+01 -0.34414624256E+01  0.40659135644E+02  0.00000000000E+00 0. -1.
         11    1    3    3    0    0  0.30620679681E+02  0.10140510685E-01 -0.71219587171E+01  0.31438009212E+02  0.51100000000E-03 0. -1.
        -11    1    3    3    0    0  0.11043310517E+02 -0.12546166308E+00  0.41010167202E+01  0.11780865257E+02  0.51100000000E-03 0.  1.
        -12    1    3    3    0    0 -0.12838817734E+01 -0.31662167986E+01  0.64624044225E+01  0.73099898867E+01  0.00000000000E+00 0.  1.
</event>
<event>
 7    1  0.2432574E-011  0.5052885E+02  0.7816164E-02  0.1300439E+00
        -11   -1    0    0    0    0  0.00000000000E+00  0.00000000000E+00  0.45593999997E+02  0.45594000000E+02  0.51100000000E-03 0. -1.
         11   -1    0    0    0    0 -0.00000000000E+00 -0.00000000000E+00 -0.45593999997E+02  0.45594000000E+02  0.51100000000E-03 0.  1.
    9900012    2    1    2    0    0  0.39215846370E+02  0.39418965643E+01 -0.99872514045E+01  0.50528851636E+02  0.29999975034E+02 0.  0.
         12    1    1    2    0    0 -0.39215846370E+02 -0.39418965643E+01  0.99872514045E+01  0.40659148364E+02  0.00000000000E+00 0. -1.
         11    1    3    3    0    0  0.21945748360E+02  0.85480515451E+01 -0.37915983448E+01  0.23855005231E+02  0.51100000000E-03 0. -1.
        -11    1    3    3    0    0  0.68495182555E+01  0.17167521532E+01 -0.11408544220E+02  0.13417079405E+02  0.51100000000E-03 0.  1.
        -12    1    3    3    0    0  0.10420579754E+02 -0.63229071340E+01  0.52128911605E+01  0.13256767000E+02  0.00000000000E+00 0.  1.
</event>
<event>
 7    1  0.2472504E-011  0.5052885E+02  0.7816164E-02  0.1300439E+00
        -11   -1    0    0    0    0  0.00000000000E+00  0.00000000000E+00  0.45593999997E+02  0.45594000000E+02  0.51100000000E-03 0.  1.
         11   -1    0    0    0    0 -0.00000000000E+00 -0.00000000000E+00 -0.45593999997E+02  0.45594000000E+02  0.51100000000E-03 0. -1.
    9900012    2    1    2    0    0 -0.33712198836E+02  0.61895726919E+01  0.21871056931E+02  0.50528852300E+02  0.29999977050E+02 0.  0.
         12    1    1    2    0    0  0.33712198836E+02 -0.61895726919E+01 -0.21871056931E+02  0.40659147700E+02  0.00000000000E+00 0. -1.
         11    1    3    3    0    0 -0.78630572427E+01  0.83090644649E+01 -0.47864261763E+00  0.11449773819E+02  0.51100000000E-03 0. -1.
        -11    1    3    3    0    0 -0.20257795903E+02  0.47217708872E+01  0.81201797204E+01  0.22329593237E+02  0.51100000000E-03 0.  1.
        -12    1    3    3    0    0 -0.55913456903E+01 -0.68412626601E+01  0.14229519828E+02  0.16749485244E+02  0.00000000000E+00 0.  1.
</event>
<event>
 7    1  0.2432574E-011  0.5052889E+02  0.7816164E-02  0.1300439E+00
        -11   -1    0    0    0    0  0.00000000000E+00  0.00000000000E+00  0.45593999997E+02  0.45594000000E+02  0.51100000000E-03 0. -1.
         11   -1    0    0    0    0 -0.00000000000E+00 -0.00000000000E+00 -0.45593999997E+02  0.45594000000E+02  0.51100000000E-03 0.  1.
    9900012    2    1    2    0    0 -0.23102520479E+01  0.39776635811E+02 -0.81021654987E+01  0.50528891467E+02  0.30000096103E+02 0.  0.
         12    1    1    2    0    0  0.23102520479E+01 -0.39776635811E+02  0.81021654987E+01  0.40659108533E+02  0.00000000000E+00 0. -1.
         11    1    3    3    0    0  0.10796442284E+01  0.24668828533E+01  0.13897612341E+01  0.30302770864E+01  0.51100000000E-03 0. -1.
        -11    1    3    3    0    0 -0.15192829900E-01  0.37987210265E+02 -0.63079908753E+00  0.37992450333E+02  0.51100000000E-03 0.  1.
         12    1    3    3    0    0 -0.33747034464E+01 -0.67745730777E+00 -0.88611276452E+01  0.95061640476E+01  0.00000000000E+00 0. -1.
</event>
<event>
 7    1  0.2432574E-011  0.5052886E+02  0.7816164E-02  0.1300439E+00
        -11   -1    0    0    0    0  0.00000000000E+00  0.00000000000E+00  0.45593999997E+02  0.45594000000E+02  0.51100000000E-03 0.  1.
         11   -1    0    0    0    0 -0.00000000000E+00 -0.00000000000E+00 -0.45593999997E+02  0.45594000000E+02  0.51100000000E-03 0. -1.
    9900012    2    1    2    0    0  0.21275056841E+02  0.17236679800E+02  0.30057189189E+02  0.50528858395E+02  0.29999995578E+02 0.  0.
         12    1    1    2    0    0 -0.21275056841E+02 -0.17236679800E+02 -0.30057189189E+02  0.40659141605E+02  0.00000000000E+00 0. -1.
         11    1    3    3    0    0  0.72677308057E+01  0.22776683368E+02  0.17793486570E+02  0.29802774718E+02  0.51100000000E-03 0.  1.
        -11    1    3    3    0    0  0.56406370378E+01 -0.54261930026E+01  0.84890833057E+01  0.11546639872E+02  0.51100000000E-03 0. -1.
        -12    1    3    3    0    0  0.83666889975E+01 -0.11381056513E+00  0.37746193133E+01  0.91794438060E+01  0.00000000000E+00 0.  1.
</event>
<event>
 7    1  0.2432574E-011  0.5052884E+02  0.7816164E-02  0.1300439E+00
        -11   -1    0    0    0    0  0.00000000000E+00  0.00000000000E+00  0.45593999997E+02  0.45594000000E+02  0.51100000000E-03 0.  1.
         11   -1    0    0    0    0 -0.00000000000E+00 -0.00000000000E+00 -0.45593999997E+02  0.45594000000E+02  0.51100000000E-03 0. -1.
    9900012    2    1    2    0    0 -0.16981760734E+02 -0.20045863332E+02  0.31031444312E+02  0.50528839035E+02  0.29999936729E+02 0.  0.
         12    1    1    2    0    0  0.16981760734E+02  0.20045863332E+02 -0.31031444312E+02  0.40659160965E+02  0.00000000000E+00 0. -1.
         11    1    3    3    0    0 -0.83490602830E+01 -0.10260417457E+02  0.28158503538E+02  0.31110838879E+02  0.51100000000E-03 0. -1.
        -11    1    3    3    0    0 -0.57056552228E+01  0.23571507341E+01  0.31372234130E+01  0.69247983443E+01  0.51100000000E-03 0.  1.
         12    1    3    3    0    0 -0.29270452280E+01 -0.12142596610E+02 -0.26428263910E+00  0.12493201812E+02  0.00000000000E+00 0. -1.
</event>
<event>
 7    1  0.2432574E-011  0.5052886E+02  0.7816164E-02  0.1300439E+00
        -11   -1    0    0    0    0  0.00000000000E+00  0.00000000000E+00  0.45593999997E+02  0.45594000000E+02  0.51100000000E-03 0.  1.
         11   -1    0    0    0    0 -0.00000000000E+00 -0.00000000000E+00 -0.45593999997E+02  0.45594000000E+02  0.51100000000E-03 0. -1.
    9900012    2    1    2    0    0 -0.44026508205E+01  0.30819762387E+02  0.26151956054E+02  0.50528857200E+02  0.29999991944E+02 0.  0.
         12    1    1    2    0    0  0.44026508205E+01 -0.30819762387E+02 -0.26151956054E+02  0.40659142800E+02  0.00000000000E+00 0. -1.
         11    1    3    3    0    0 -0.58704501773E+01  0.26544152698E+01  0.53665143034E+01  0.83849616420E+01  0.51100000000E-03 0. -1.
        -11    1    3    3    0    0  0.83477318021E+01  0.13255115199E+01  0.20526010361E+01  0.86979755290E+01  0.51100000000E-03 0.  1.
         12    1    3    3    0    0 -0.68799324453E+01  0.26839835597E+02  0.18732840714E+02  0.33445920029E+02  0.00000000000E+00 0. -1.
</event>
<event>
 7    1  0.2432574E-011  0.5052880E+02  0.7816164E-02  0.1300439E+00
        -11   -1    0    0    0    0  0.00000000000E+00  0.00000000000E+00  0.45593999997E+02  0.45594000000E+02  0.51100000000E-03 0.  1.
         11   -1    0    0    0    0 -0.00000000000E+00 -0.00000000000E+00 -0.45593999997E+02  0.45594000000E+02  0.51100000000E-03 0. -1.
    9900012    2    1    2    0    0 -0.56599090111E+01 -0.31141488986E+02  0.25521431466E+02  0.50528802143E+02  0.29999824594E+02 0.  0.
         12    1    1    2    0    0  0.56599090111E+01  0.31141488986E+02 -0.25521431466E+02  0.40659197857E+02  0.00000000000E+00 0. -1.
         11    1    3    3    0    0 -0.14913107610E+01  0.38749298862E+00 -0.30707677725E+01  0.34356620288E+01  0.51100000000E-03 0. -1.
        -11    1    3    3    0    0  0.65918852164E+01 -0.77622016388E+01  0.31688221385E+01  0.10665184433E+02  0.51100000000E-03 0.  1.
        -12    1    3    3    0    0 -0.10760483466E+02 -0.23766780336E+02  0.25423377100E+02  0.36427955681E+02  0.00000000000E+00 0.  1.
</event>
<event>
 7    1  0.2432574E-011  0.5052886E+02  0.7816164E-02  0.1300439E+00
        -11   -1    0    0    0    0  0.00000000000E+00  0.00000000000E+00  0.45593999997E+02  0.45594000000E+02  0.51100000000E-03 0. -1.
         11   -1    0    0    0    0 -0.00000000000E+00 -0.00000000000E+00 -0.45593999997E+02  0.45594000000E+02  0.51100000000E-03 0.  1.
    9900012    2    1    2    0    0  0.30418159049E+02 -0.14870105177E+02 -0.22511795877E+02  0.50528863493E+02  0.30000011072E+02 0.  0.
         12    1    1    2    0    0 -0.30418159049E+02  0.14870105177E+02  0.22511795877E+02  0.40659136507E+02  0.00000000000E+00 0. -1.
         11    1    3    3    0    0  0.32006041694E+01  0.35746995171E+01 -0.25915432476E+01  0.54532962832E+01  0.51100000000E-03 0. -1.
        -11    1    3    3    0    0  0.29286122397E+02 -0.98828816843E+01 -0.11766328926E+02  0.33072568877E+02  0.51100000000E-03 0.  1.
         12    1    3    3    0    0 -0.20685675177E+01 -0.85619230102E+01 -0.81539237035E+01  0.12002998333E+02  0.00000000000E+00 0. -1.
</event>
<event>
 7    1  0.2432574E-011  0.5052886E+02  0.7816164E-02  0.1300439E+00
        -11   -1    0    0    0    0  0.00000000000E+00  0.00000000000E+00  0.45593999997E+02  0.45594000000E+02  0.51100000000E-03 0.  1.
         11   -1    0    0    0    0 -0.00000000000E+00 -0.00000000000E+00 -0.45593999997E+02  0.45594000000E+02  0.51100000000E-03 0. -1.
    9900012    2    1    2    0    0 -0.22729755446E+02  0.15310462093E+02  0.30035204344E+02  0.50528861641E+02  0.30000005444E+02 0.  0.
         12    1    1    2    0    0  0.22729755446E+02 -0.15310462093E+02 -0.30035204344E+02  0.40659138359E+02  0.00000000000E+00 0. -1.
         11    1    3    3    0    0 -0.12789043758E+02  0.62273227268E+01  0.15283995333E+02  0.20879169097E+02  0.51100000000E-03 0. -1.
        -11    1    3    3    0    0 -0.87739505972E+00  0.10361101806E+02  0.17267972112E+02  0.20157011531E+02  0.51100000000E-03 0.  1.
         12    1    3    3    0    0 -0.90633166284E+01 -0.12779624398E+01 -0.25167631018E+01  0.94926810130E+01  0.00000000000E+00 0. -1.
</event>
<event>
 7    1  0.2432574E-011  0.5052887E+02  0.7816164E-02  0.1300439E+00
        -11   -1    0    0    0    0  0.00000000000E+00  0.00000000000E+00  0.45593999997E+02  0.45594000000E+02  0.51100000000E-03 0. -1.
         11   -1    0    0    0    0 -0.00000000000E+00 -0.00000000000E+00 -0.45593999997E+02  0.45594000000E+02  0.51100000000E-03 0.  1.
    9900012    2    1    2    0    0  0.35928244490E+02  0.53761388556E+01 -0.18259888465E+02  0.50528866366E+02  0.30000019805E+02 0.  0.
         12    1    1    2    0    0 -0.35928244490E+02 -0.53761388556E+01  0.18259888465E+02  0.40659133634E+02  0.00000000000E+00 0. -1.
         11    1    3    3    0    0  0.74686131683E-01 -0.25199141047E+01 -0.71144801995E+01  0.75479383863E+01  0.51100000000E-03 0. -1.
        -11    1    3    3    0    0  0.33216413418E+01  0.52257110426E+01  0.36011696079E+01  0.71630845249E+01  0.51100000000E-03 0.  1.
        -12    1    3    3    0    0  0.32531917017E+02  0.26703419177E+01 -0.14746577873E+02  0.35817843454E+02  0.00000000000E+00 0.  1.
</event>
<event>
 7    1  0.2432574E-011  0.5052886E+02  0.7816164E-02  0.1300439E+00
        -11   -1    0    0    0    0  0.00000000000E+00  0.00000000000E+00  0.45593999997E+02  0.45594000000E+02  0.51100000000E-03 0.  1.
         11   -1    0    0    0    0 -0.00000000000E+00 -0.00000000000E+00 -0.45593999997E+02  0.45594000000E+02  0.51100000000E-03 0. -1.
    9900012    2    1    2    0    0 -0.10605434530E+02 -0.25226151419E+02  0.30072105152E+02  0.50528862463E+02  0.30000007941E+02 0.  0.
         12    1    1    2    0    0  0.10605434530E+02  0.25226151419E+02 -0.30072105152E+02  0.40659137537E+02  0.00000000000E+00 0. -1.
         11    1    3    3    0    0 -0.86471406704E+01 -0.56115548562E+01  0.60890992848E+01  0.11972456725E+02  0.51100000000E-03 0. -1.
        -11    1    3    3    0    0 -0.21651807046E+01 -0.16879680674E+02  0.28606660304E+01  0.17256738903E+02  0.51100000000E-03 0.  1.
         12    1    3    3    0    0  0.20688684448E+00 -0.27349158888E+01  0.21122339837E+02  0.21299666835E+02  0.00000000000E+00 0. -1.
</event>
<event>
 7    1  0.2432574E-011  0.5052890E+02  0.7816164E-02  0.1300439E+00
        -11   -1    0    0    0    0  0.00000000000E+00  0.00000000000E+00  0.45593999997E+02  0.45594000000E+02  0.51100000000E-03 0. -1.
         11   -1    0    0    0    0 -0.00000000000E+00 -0.00000000000E+00 -0.45593999997E+02  0.45594000000E+02  0.51100000000E-03 0.  1.
    9900012    2    1    2    0    0  0.29826487536E+02  0.85614280488E+01 -0.26272511397E+02  0.50528901829E+02  0.30000127599E+02 0.  0.
         12    1    1    2    0    0 -0.29826487536E+02 -0.85614280488E+01  0.26272511397E+02  0.40659098171E+02  0.00000000000E+00 0. -1.
         11    1    3    3    0    0 -0.20693097086E+01 -0.19587536466E+01 -0.54425182572E+01  0.61432697938E+01  0.51100000000E-03 0. -1.
        -11    1    3    3    0    0  0.17837915914E+02 -0.18751447899E+01 -0.18036146791E+02  0.25436391322E+02  0.51100000000E-03 0.  1.
        -12    1    3    3    0    0  0.14057881331E+02  0.12395326485E+02 -0.27938463486E+01  0.18949240713E+02  0.00000000000E+00 0.  1.
</event>
<event>
 7    1  0.2432574E-011  0.5052887E+02  0.7816164E-02  0.1300439E+00
        -11   -1    0    0    0    0  0.00000000000E+00  0.00000000000E+00  0.45593999997E+02  0.45594000000E+02  0.51100000000E-03 0.  1.
         11   -1    0    0    0    0 -0.00000000000E+00 -0.00000000000E+00 -0.45593999997E+02  0.45594000000E+02  0.51100000000E-03 0. -1.
    9900012    2    1    2    0    0  0.24263213338E+02 -0.12104879961E+02  0.30297414797E+02  0.50528868384E+02  0.30000025941E+02 0.  0.
         12    1    1    2    0    0 -0.24263213338E+02  0.12104879961E+02 -0.30297414797E+02  0.40659131616E+02  0.00000000000E+00 0. -1.
         11    1    3    3    0    0  0.12413815379E+02 -0.11321970479E+02  0.44484317730E+01  0.17380401989E+02  0.51100000000E-03 0. -1.
        -11    1    3    3    0    0  0.58450015625E+01 -0.88932011288E+01  0.12558092172E+02  0.16460824671E+02  0.51100000000E-03 0.  1.
         12    1    3    3    0    0  0.60043963966E+01  0.81102916469E+01  0.13290890852E+02  0.16687641725E+02  0.00000000000E+00 0. -1.
</event>
<event>
 7    1  0.2974432E-011  0.5052896E+02  0.7816164E-02  0.1300438E+00
        -11   -1    0    0    0    0  0.00000000000E+00  0.00000000000E+00  0.45593999997E+02  0.45594000000E+02  0.51100000000E-03 0. -1.
         11   -1    0    0    0    0 -0.00000000000E+00 -0.00000000000E+00 -0.45593999997E+02  0.45594000000E+02  0.51100000000E-03 0.  1.
    9900012    2    1    2    0    0  0.21775468278E+02 -0.89109421691E+01 -0.33159935332E+02  0.50528963854E+02  0.30000316130E+02 0.  0.
         12    1    1    2    0    0 -0.21775468278E+02  0.89109421691E+01  0.33159935332E+02  0.40659036146E+02  0.00000000000E+00 0. -1.
         11    1    3    3    0    0 -0.31430297071E+01  0.37703993817E+00  0.16488232491E+01  0.35692314611E+01  0.51100000000E-03 0. -1.
        -11    1    3    3    0    0  0.20672503809E+00 -0.23045253921E+01 -0.13190944956E+02  0.13392333689E+02  0.51100000000E-03 0.  1.
         12    1    3    3    0    0  0.24711772947E+02 -0.69834567152E+01 -0.21617813625E+02  0.33567398705E+02  0.00000000000E+00 0. -1.
</event>
<event>
 7    1  0.2432574E-011  0.5052886E+02  0.7816164E-02  0.1300439E+00
        -11   -1    0    0    0    0  0.00000000000E+00  0.00000000000E+00  0.45593999997E+02  0.45594000000E+02  0.51100000000E-03 0. -1.
         11   -1    0    0    0    0 -0.00000000000E+00 -0.00000000000E+00 -0.45593999997E+02  0.45594000000E+02  0.51100000000E-03 0.  1.
    9900012    2    1    2    0    0  0.28704013241E+00 -0.22489389443E+02 -0.33871974579E+02  0.50528859682E+02  0.29999999489E+02 0.  0.
         12    1    1    2    0    0 -0.28704013241E+00  0.22489389443E+02  0.33871974579E+02  0.40659140318E+02  0.00000000000E+00 0. -1.
         11    1    3    3    0    0  0.40578768192E+01  0.34829890199E+01 -0.74356130606E+00  0.53991166379E+01  0.51100000000E-03 0. -1.
        -11    1    3    3    0    0  0.62099722891E+01 -0.10423428631E+02 -0.14219392450E+02  0.18692317731E+02  0.51100000000E-03 0.  1.
        -12    1    3    3    0    0 -0.99808089758E+01 -0.15548949832E+02 -0.18909020823E+02  0.26437425313E+02  0.00000000000E+00 0.  1.
</event>
<event>
 7    1  0.2432574E-011  0.5052886E+02  0.7816164E-02  0.1300439E+00
        -11   -1    0    0    0    0  0.00000000000E+00  0.00000000000E+00  0.45593999997E+02  0.45594000000E+02  0.51100000000E-03 0. -1.
         11   -1    0    0    0    0 -0.00000000000E+00 -0.00000000000E+00 -0.45593999997E+02  0.45594000000E+02  0.51100000000E-03 0.  1.
    9900012    2    1    2    0    0  0.32170916791E+02  0.22976819040E+02 -0.95006964527E+01  0.50528864083E+02  0.30000012868E+02 0.  0.
         12    1    1    2    0    0 -0.32170916791E+02 -0.22976819040E+02  0.95006964527E+01  0.40659135917E+02  0.00000000000E+00 0. -1.
         11    1    3    3    0    0  0.60850623578E+01  0.89680151856E+00  0.46120842984E+01  0.76878838895E+01  0.51100000000E-03 0. -1.
        -11    1    3    3    0    0  0.19437320590E+02  0.21454023636E+02 -0.20115998382E+01  0.29019495104E+02  0.51100000000E-03 0.  1.
        -12    1    3    3    0    0  0.66485338431E+01  0.62599388585E+00 -0.12101180913E+02  0.13821485090E+02  0.00000000000E+00 0.  1.
</event>
<event>
 7    1  0.2432574E-011  0.5052886E+02  0.7816164E-02  0.1300439E+00
        -11   -1    0    0    0    0  0.00000000000E+00  0.00000000000E+00  0.45593999997E+02  0.45594000000E+02  0.51100000000E-03 0.  1.
         11   -1    0    0    0    0 -0.00000000000E+00 -0.00000000000E+00 -0.45593999997E+02  0.45594000000E+02  0.51100000000E-03 0. -1.
    9900012    2    1    2    0    0  0.16011854320E+02 -0.37314672837E+02 -0.20979543029E+01  0.50528859577E+02  0.29999999171E+02 0.  0.
         12    1    1    2    0    0 -0.16011854320E+02  0.37314672837E+02  0.20979543029E+01  0.40659140423E+02  0.00000000000E+00 0. -1.
         11    1    3    3    0    0  0.24767434437E+01 -0.87502094177E+00  0.58079632529E+01  0.63743515076E+01  0.51100000000E-03 0. -1.
        -11    1    3    3    0    0  0.16210054088E+02 -0.16853852102E+02 -0.68142349878E+01  0.24356764624E+02  0.51100000000E-03 0.  1.
        -12    1    3    3    0    0 -0.26749432118E+01 -0.19585799793E+02 -0.10916825681E+01  0.19797743446E+02  0.00000000000E+00 0.  1.
</event>
<event>
 7    1  0.2432574E-011  0.5052886E+02  0.7816164E-02  0.1300439E+00
        -11   -1    0    0    0    0  0.00000000000E+00  0.00000000000E+00  0.45593999997E+02  0.45594000000E+02  0.51100000000E-03 0. -1.
         11   -1    0    0    0    0 -0.00000000000E+00 -0.00000000000E+00 -0.45593999997E+02  0.45594000000E+02  0.51100000000E-03 0.  1.
    9900012    2    1    2    0    0  0.32845071146E+02 -0.16372483074E+02 -0.17501668227E+02  0.50528864602E+02  0.30000014444E+02 0.  0.
         12    1    1    2    0    0 -0.32845071146E+02  0.16372483074E+02  0.17501668227E+02  0.40659135398E+02  0.00000000000E+00 0. -1.
         11    1    3    3    0    0  0.16839759809E+02 -0.13525157465E+02 -0.56805147185E+01  0.22333285531E+02  0.51100000000E-03 0. -1.
        -11    1    3    3    0    0  0.62521547998E+01 -0.11126975230E+02 -0.51053536410E+01  0.13746405111E+02  0.51100000000E-03 0.  1.
        -12    1    3    3    0    0  0.97531565372E+01  0.82796496208E+01 -0.67157998674E+01  0.14449173960E+02  0.00000000000E+00 0.  1.
</event>
<event>
 7    1  0.2432574E-011  0.5052885E+02  0.7816164E-02  0.1300439E+00
        -11   -1    0    0    0    0  0.00000000000E+00  0.00000000000E+00  0.45593999997E+02  0.45594000000E+02  0.51100000000E-03 0.  1.
         11   -1    0    0    0    0 -0.00000000000E+00 -0.00000000000E+00 -0.45593999997E+02  0.45594000000E+02  0.51100000000E-03 0. -1.
    9900012    2    1    2    0    0  0.42875244517E+00  0.37695201329E+02  0.15233333060E+02  0.50528850132E+02  0.29999970461E+02 0.  0.
         12    1    1    2    0    0 -0.42875244517E+00 -0.37695201329E+02 -0.15233333060E+02  0.40659149868E+02  0.00000000000E+00 0. -1.
         11    1    3    3    0    0  0.21879092891E+01  0.56771797639E+01  0.76722607150E+01  0.97918793839E+01  0.51100000000E-03 0. -1.
        -11    1    3    3    0    0  0.26673580824E+01  0.32944385318E+02  0.11235864334E+02  0.34909768987E+02  0.51100000000E-03 0.  1.
        -12    1    3    3    0    0 -0.44265149263E+01 -0.92636375307E+00 -0.36747919893E+01  0.58272017608E+01  0.00000000000E+00 0.  1.
</event>
<event>
 7    1  0.2432574E-011  0.5052888E+02  0.7816164E-02  0.1300439E+00
        -11   -1    0    0    0    0  0.00000000000E+00  0.00000000000E+00  0.45593999997E+02  0.45594000000E+02  0.51100000000E-03 0.  1.
         11   -1    0    0    0    0 -0.00000000000E+00 -0.00000000000E+00 -0.45593999997E+02  0.45594000000E+02  0.51100000000E-03 0. -1.
    9900012    2    1    2    0    0 -0.15302449654E+02 -0.23147150377E+02  0.29718822790E+02  0.50528880924E+02  0.30000064056E+02 0.  0.
         12    1    1    2    0    0  0.15302449654E+02  0.23147150377E+02 -0.29718822790E+02  0.40659119076E+02  0.00000000000E+00 0. -1.
         11    1    3    3    0    0 -0.59116749872E+01  0.56148571559E+01  0.11996198297E+02  0.14504595682E+02  0.51100000000E-03 0. -1.
        -11    1    3    3    0    0 -0.49540134573E+01 -0.10682257944E+02  0.26459027020E+01  0.12068706869E+02  0.51100000000E-03 0.  1.
        -12    1    3    3    0    0 -0.44367612097E+01 -0.18079749589E+02  0.15076721791E+02  0.23955578373E+02  0.00000000000E+00 0.  1.
</event>
<event>
 7    1  0.2432574E-011  0.5052886E+02  0.7816164E-02  0.1300439E+00
        -11   -1    0    0    0    0  0.00000000000E+00  0.00000000000E+00  0.45593999997E+02  0.45594000000E+02  0.51100000000E-03 0.  1.
         11   -1    0    0    0    0 -0.00000000000E+00 -0.00000000000E+00 -0.45593999997E+02  0.45594000000E+02  0.51100000000E-03 0. -1.
    9900012    2    1    2    0    0 -0.96560927775E+01 -0.12311234564E+01  0.39476695851E+02  0.50528864397E+02  0.30000013820E+02 0.  0.
         12    1    1    2    0    0  0.96560927775E+01  0.12311234564E+01 -0.39476695851E+02  0.40659135603E+02  0.00000000000E+00 0. -1.
         11    1    3    3    0    0  0.66306156337E+01 -0.51688063580E+01  0.36231344099E+01  0.91547105941E+01  0.51100000000E-03 0. -1.
        -11    1    3    3    0    0 -0.31977395814E+01 -0.29072494231E+01  0.16332683216E+02  0.16894797392E+02  0.51100000000E-03 0.  1.
        -12    1    3    3    0    0 -0.13088968830E+02  0.68449323248E+01  0.19520878226E+02  0.24479356410E+02  0.00000000000E+00 0.  1.
</event>
<event>
 7    1  0.2432574E-011  0.5052886E+02  0.7816164E-02  0.1300439E+00
        -11   -1    0    0    0    0  0.00000000000E+00  0.00000000000E+00  0.45593999997E+02  0.45594000000E+02  0.51100000000E-03 0.  1.
         11   -1    0    0    0    0 -0.00000000000E+00 -0.00000000000E+00 -0.45593999997E+02  0.45594000000E+02  0.51100000000E-03 0. -1.
    9900012    2    1    2    0    0  0.12514466576E+02  0.14684518269E+02  0.35789926996E+02  0.50528858041E+02  0.29999994502E+02 0.  0.
         12    1    1    2    0    0 -0.12514466576E+02 -0.14684518269E+02 -0.35789926996E+02  0.40659141959E+02  0.00000000000E+00 0. -1.
         11    1    3    3    0    0  0.57084459931E+01  0.11277463493E+02  0.25111328588E+01  0.12886944051E+02  0.51100000000E-03 0.  1.
        -11    1    3    3    0    0  0.11942095867E+02  0.23859972196E+01  0.20699077821E+02  0.24015796038E+02  0.51100000000E-03 0. -1.
        -12    1    3    3    0    0 -0.51360752837E+01  0.10210575564E+01  0.12579716316E+02  0.13626117952E+02  0.00000000000E+00 0.  1.
</event>
<event>
 7    1  0.2432574E-011  0.5052886E+02  0.7816164E-02  0.1300439E+00
        -11   -1    0    0    0    0  0.00000000000E+00  0.00000000000E+00  0.45593999997E+02  0.45594000000E+02  0.51100000000E-03 0.  1.
         11   -1    0    0    0    0 -0.00000000000E+00 -0.00000000000E+00 -0.45593999997E+02  0.45594000000E+02  0.51100000000E-03 0. -1.
    9900012    2    1    2    0    0 -0.14754066444E+02  0.15612184702E+02  0.34521626657E+02  0.50528862099E+02  0.30000006835E+02 0.  0.
         12    1    1    2    0    0  0.14754066444E+02 -0.15612184702E+02 -0.34521626657E+02  0.40659137901E+02  0.00000000000E+00 0. -1.
         11    1    3    3    0    0  0.27824875405E+01 -0.12230674705E+01  0.60538718705E+01  0.67740309887E+01  0.51100000000E-03 0. -1.
        -11    1    3    3    0    0 -0.96383920146E+01 -0.33018634108E+01  0.36230166693E+01  0.10813285933E+02  0.51100000000E-03 0.  1.
        -12    1    3    3    0    0 -0.78981619701E+01  0.20137115584E+02  0.24844738117E+02  0.32941545177E+02  0.00000000000E+00 0.  1.
</event>
<event>
 7    1  0.2432574E-011  0.5052886E+02  0.7816164E-02  0.1300439E+00
        -11   -1    0    0    0    0  0.00000000000E+00  0.00000000000E+00  0.45593999997E+02  0.45594000000E+02  0.51100000000E-03 0.  1.
         11   -1    0    0    0    0 -0.00000000000E+00 -0.00000000000E+00 -0.45593999997E+02  0.45594000000E+02  0.51100000000E-03 0. -1.
    9900012    2    1    2    0    0  0.10312924794E+02  0.19897402456E+02  0.33924957853E+02  0.50528858252E+02  0.29999995144E+02 0.  0.
         12    1    1    2    0    0 -0.10312924794E+02 -0.19897402456E+02 -0.33924957853E+02  0.40659141748E+02  0.00000000000E+00 0. -1.
         11    1    3    3    0    0  0.65731148872E+01  0.54871580566E+01  0.16165020857E+02  0.18292693690E+02  0.51100000000E-03 0.  1.
        -11    1    3    3    0    0  0.47755599356E+01 -0.25055086640E+01 -0.23968457718E+01  0.59015604952E+01  0.51100000000E-03 0. -1.
         12    1    3    3    0    0 -0.10357500290E+01  0.16915753063E+02  0.20156782768E+02  0.26334604067E+02  0.00000000000E+00 0. -1.
</event>
<event>
 7    1  0.2432574E-011  0.5052886E+02  0.7816164E-02  0.1300439E+00
        -11   -1    0    0    0    0  0.00000000000E+00  0.00000000000E+00  0.45593999997E+02  0.45594000000E+02  0.51100000000E-03 0. -1.
         11   -1    0    0    0    0 -0.00000000000E+00 -0.00000000000E+00 -0.45593999997E+02  0.45594000000E+02  0.51100000000E-03 0.  1.
    9900012    2    1    2    0    0  0.31815858895E+02  0.25021077453E+02  0.38551532947E+01  0.50528863252E+02  0.30000010342E+02 0.  0.
         12    1    1    2    0    0 -0.31815858895E+02 -0.25021077453E+02 -0.38551532947E+01  0.40659136748E+02  0.00000000000E+00 0. -1.
         11    1    3    3    0    0  0.73851100787E+01  0.10178333165E+01  0.49758883353E+01  0.89629961800E+01  0.51100000000E-03 0. -1.
        -11    1    3    3    0    0  0.18771984372E+02  0.33954338206E+01  0.42204850560E+01  0.19537882753E+02  0.51100000000E-03 0.  1.
         12    1    3    3    0    0  0.56587644439E+01  0.20607810316E+02 -0.53412200966E+01  0.22027984319E+02  0.00000000000E+00 0. -1.
</event>
<event>
 7    1  0.2432574E-011  0.5052888E+02  0.7816164E-02  0.1300439E+00
        -11   -1    0    0    0    0  0.00000000000E+00  0.00000000000E+00  0.45593999997E+02  0.45594000000E+02  0.51100000000E-03 0. -1.
         11   -1    0    0    0    0 -0.00000000000E+00 -0.00000000000E+00 -0.45593999997E+02  0.45594000000E+02  0.51100000000E-03 0.  1.
    9900012    2    1    2    0    0 -0.31453218533E+02 -0.22497612511E+02 -0.12558535996E+02  0.50528876163E+02  0.30000049585E+02 0.  0.
         12    1    1    2    0    0  0.31453218533E+02  0.22497612511E+02  0.12558535996E+02  0.40659123837E+02  0.00000000000E+00 0. -1.
         11    1    3    3    0    0 -0.34904538904E+01 -0.31436655623E+01 -0.10459955177E+02  0.11466323042E+02  0.51100000000E-03 0.  1.
        -11    1    3    3    0    0 -0.11536405541E+02 -0.18621834481E+02 -0.47301992062E+01  0.22410625985E+02  0.51100000000E-03 0. -1.
         12    1    3    3    0    0 -0.16426359102E+02 -0.73211246787E+00  0.26316183873E+01  0.16651927136E+02  0.00000000000E+00 0. -1.
</event>
<event>
 7    1  0.2432574E-011  0.5052886E+02  0.7816164E-02  0.1300439E+00
        -11   -1    0    0    0    0  0.00000000000E+00  0.00000000000E+00  0.45593999997E+02  0.45594000000E+02  0.51100000000E-03 0.  1.
         11   -1    0    0    0    0 -0.00000000000E+00 -0.00000000000E+00 -0.45593999997E+02  0.45594000000E+02  0.51100000000E-03 0. -1.
    9900012    2    1    2    0    0 -0.35229541491E+01  0.13767031616E+02  0.38094923407E+02  0.50528861361E+02  0.30000004594E+02 0.  0.
         12    1    1    2    0    0  0.35229541491E+01 -0.13767031616E+02 -0.38094923407E+02  0.40659138639E+02  0.00000000000E+00 0. -1.
         11    1    3    3    0    0 -0.45905026181E+01  0.35463705940E+01  0.30419254439E+01  0.65500205606E+01  0.51100000000E-03 0. -1.
        -11    1    3    3    0    0 -0.66739554632E+01 -0.45438426497E+01  0.19800121629E+02  0.21383007374E+02  0.51100000000E-03 0.  1.
         12    1    3    3    0    0  0.77415039322E+01  0.14764503672E+02  0.15252876334E+02  0.22595833427E+02  0.00000000000E+00 0. -1.
</event>
<event>
 7    1  0.2432574E-011  0.5052886E+02  0.7816164E-02  0.1300439E+00
        -11   -1    0    0    0    0  0.00000000000E+00  0.00000000000E+00  0.45593999997E+02  0.45594000000E+02  0.51100000000E-03 0.  1.
         11   -1    0    0    0    0 -0.00000000000E+00 -0.00000000000E+00 -0.45593999997E+02  0.45594000000E+02  0.51100000000E-03 0. -1.
    9900012    2    1    2    0    0  0.14719256877E+02  0.36842274285E+02  0.88969737928E+01  0.50528857852E+02  0.29999993928E+02 0.  0.
         12    1    1    2    0    0 -0.14719256877E+02 -0.36842274285E+02 -0.88969737928E+01  0.40659142148E+02  0.00000000000E+00 0. -1.
         11    1    3    3    0    0  0.10070495027E+02  0.46012968210E+01  0.55481243975E+01  0.12384203128E+02  0.51100000000E-03 0. -1.
        -11    1    3    3    0    0 -0.49241838910E+01  0.38593195128E+01  0.51995040140E+01  0.81349109612E+01  0.51100000000E-03 0.  1.
        -12    1    3    3    0    0  0.95729457416E+01  0.28381657951E+02 -0.18506546187E+01  0.30009743763E+02  0.00000000000E+00 0.  1.
</event>
<event>
 7    1  0.2432574E-011  0.5052886E+02  0.7816164E-02  0.1300439E+00
        -11   -1    0    0    0    0  0.00000000000E+00  0.00000000000E+00  0.45593999997E+02  0.45594000000E+02  0.51100000000E-03 0.  1.
         11   -1    0    0    0    0 -0.00000000000E+00 -0.00000000000E+00 -0.45593999997E+02  0.45594000000E+02  0.51100000000E-03 0. -1.
    9900012    2    1    2    0    0  0.17009271713E+02 -0.14714680260E+02  0.33872232803E+02  0.50528864564E+02  0.30000014329E+02 0.  0.
         12    1    1    2    0    0 -0.17009271713E+02  0.14714680260E+02 -0.33872232803E+02  0.40659135436E+02  0.00000000000E+00 0. -1.
         11    1    3    3    0    0  0.90321654582E+01 -0.24756164653E+01  0.22305688607E+02  0.24191991118E+02  0.51100000000E-03 0. -1.
        -11    1    3    3    0    0  0.68207750522E+01 -0.16141605964E+02  0.13212515101E+02  0.21946411346E+02  0.51100000000E-03 0.  1.
         12    1    3    3    0    0  0.11563312022E+01  0.39025421693E+01 -0.16459709051E+01  0.43904621001E+01  0.00000000000E+00 0. -1.
</event>
<event>
 7    1  0.2432574E-011  0.5052885E+02  0.7816164E-02  0.1300439E+00
        -11   -1    0    0    0    0  0.00000000000E+00  0.00000000000E+00  0.45593999997E+02  0.45594000000E+02  0.51100000000E-03 0. -1.
         11   -1    0    0    0    0 -0.00000000000E+00 -0.00000000000E+00 -0.45593999997E+02  0.45594000000E+02  0.51100000000E-03 0.  1.
    9900012    2    1    2    0    0 -0.24979885496E+02 -0.21710409393E+02  0.23618421081E+02  0.50528851340E+02  0.29999974134E+02 0.  0.
         12    1    1    2    0    0  0.24979885496E+02  0.21710409393E+02 -0.23618421081E+02  0.40659148660E+02  0.00000000000E+00 0. -1.
         11    1    3    3    0    0 -0.10985180911E+02 -0.44997919421E+01  0.13608057648E+02  0.18058282321E+02  0.51100000000E-03 0. -1.
        -11    1    3    3    0    0 -0.17749486834E+02 -0.11050014432E+02  0.10058343669E+01  0.20932243187E+02  0.51100000000E-03 0.  1.
         12    1    3    3    0    0  0.37547822496E+01 -0.61606030190E+01  0.90045290657E+01  0.11538325832E+02  0.00000000000E+00 0. -1.
</event>
<event>
 7    1  0.2432574E-011  0.5052886E+02  0.7816164E-02  0.1300439E+00
        -11   -1    0    0    0    0  0.00000000000E+00  0.00000000000E+00  0.45593999997E+02  0.45594000000E+02  0.51100000000E-03 0.  1.
         11   -1    0    0    0    0 -0.00000000000E+00 -0.00000000000E+00 -0.45593999997E+02  0.45594000000E+02  0.51100000000E-03 0. -1.
    9900012    2    1    2    0    0  0.18098612045E+02 -0.16992407487E+02  0.32200372165E+02  0.50528860342E+02  0.30000001496E+02 0.  0.
         12    1    1    2    0    0 -0.18098612045E+02  0.16992407487E+02 -0.32200372165E+02  0.40659139658E+02  0.00000000000E+00 0. -1.
         11    1    3    3    0    0  0.65770580412E+01 -0.18521786837E+00  0.30928313039E+01  0.72703235053E+01  0.51100000000E-03 0. -1.
        -11    1    3    3    0    0  0.10729352986E+02 -0.20391557564E+02  0.12428248228E+02  0.26180068558E+02  0.51100000000E-03 0.  1.
        -12    1    3    3    0    0  0.79220101703E+00  0.35843679458E+01  0.16679292633E+02  0.17078468279E+02  0.00000000000E+00 0.  1.
</event>
<event>
 7    1  0.2432574E-011  0.5052886E+02  0.7816164E-02  0.1300439E+00
        -11   -1    0    0    0    0  0.00000000000E+00  0.00000000000E+00  0.45593999997E+02  0.45594000000E+02  0.51100000000E-03 0.  1.
         11   -1    0    0    0    0 -0.00000000000E+00 -0.00000000000E+00 -0.45593999997E+02  0.45594000000E+02  0.51100000000E-03 0. -1.
    9900012    2    1    2    0    0  0.13356669222E+02  0.33207377420E+02  0.19288213950E+02  0.50528859266E+02  0.29999998224E+02 0.  0.
         12    1    1    2    0    0 -0.13356669222E+02 -0.33207377420E+02 -0.19288213950E+02  0.40659140734E+02  0.00000000000E+00 0. -1.
         11    1    3    3    0    0 -0.98005081417E+00 -0.13536933795E+01 -0.25892047992E+01  0.30817149637E+01  0.51100000000E-03 0. -1.
        -11    1    3    3    0    0  0.11546515719E+02  0.57440419499E+01  0.43860925543E+01  0.13621815273E+02  0.51100000000E-03 0.  1.
        -12    1    3    3    0    0  0.27902043179E+01  0.28817028850E+02  0.17491326195E+02  0.33825329029E+02  0.00000000000E+00 0.  1.
</event>
<event>
 7    1  0.2432574E-011  0.5052887E+02  0.7816164E-02  0.1300439E+00
        -11   -1    0    0    0    0  0.00000000000E+00  0.00000000000E+00  0.45593999997E+02  0.45594000000E+02  0.51100000000E-03 0. -1.
         11   -1    0    0    0    0 -0.00000000000E+00 -0.00000000000E+00 -0.45593999997E+02  0.45594000000E+02  0.51100000000E-03 0.  1.
    9900012    2    1    2    0    0 -0.21939630175E+02  0.30311625965E+02 -0.15906692091E+02  0.50528869486E+02  0.30000029290E+02 0.  0.
         12    1    1    2    0    0  0.21939630175E+02 -0.30311625965E+02  0.15906692091E+02  0.40659130514E+02  0.00000000000E+00 0. -1.
         11    1    3    3    0    0  0.62340920696E+01  0.51999258882E+01 -0.27871588242E+01  0.85832038160E+01  0.51100000000E-03 0. -1.
        -11    1    3    3    0    0 -0.87224434711E+01  0.82745292088E+01 -0.10719503094E+02  0.16107656583E+02  0.51100000000E-03 0.  1.
        -12    1    3    3    0    0 -0.19451278774E+02  0.16837170868E+02 -0.24000301721E+01  0.25838009087E+02  0.00000000000E+00 0.  1.
</event>
<event>
 7    1  0.2432574E-011  0.5052886E+02  0.7816164E-02  0.1300439E+00
        -11   -1    0    0    0    0  0.00000000000E+00  0.00000000000E+00  0.45593999997E+02  0.45594000000E+02  0.51100000000E-03 0.  1.
         11   -1    0    0    0    0 -0.00000000000E+00 -0.00000000000E+00 -0.45593999997E+02  0.45594000000E+02  0.51100000000E-03 0. -1.
    9900012    2    1    2    0    0  0.33564054894E+02  0.20548620021E+02 -0.10216372562E+02  0.50528857928E+02  0.29999994159E+02 0.  0.
         12    1    1    2    0    0 -0.33564054894E+02 -0.20548620021E+02  0.10216372562E+02  0.40659142072E+02  0.00000000000E+00 0. -1.
         11    1    3    3    0    0  0.45621625003E+01  0.11909254634E+02 -0.10962925924E+02  0.16817533044E+02  0.51100000000E-03 0. -1.
        -11    1    3    3    0    0  0.28354973551E+01 -0.33611347757E+01 -0.19256246581E+01  0.48005523450E+01  0.51100000000E-03 0.  1.
         12    1    3    3    0    0  0.26166395038E+02  0.12000500163E+02  0.26721780201E+01  0.28910772539E+02  0.00000000000E+00 0. -1.
</event>
<event>
 7    1  0.2432574E-011  0.5052886E+02  0.7816164E-02  0.1300439E+00
        -11   -1    0    0    0    0  0.00000000000E+00  0.00000000000E+00  0.45593999997E+02  0.45594000000E+02  0.51100000000E-03 0.  1.
         11   -1    0    0    0    0 -0.00000000000E+00 -0.00000000000E+00 -0.45593999997E+02  0.45594000000E+02  0.51100000000E-03 0. -1.
    9900012    2    1    2    0    0  0.16423911431E+02 -0.79385430046E+00  0.37185897061E+02  0.50528855745E+02  0.29999987521E+02 0.  0.
         12    1    1    2    0    0 -0.16423911431E+02  0.79385430046E+00 -0.37185897061E+02  0.40659144255E+02  0.00000000000E+00 0. -1.
         11    1    3    3    0    0 -0.55727097844E+01 -0.35435518821E+00  0.20860721857E+01  0.59609025630E+01  0.51100000000E-03 0. -1.
        -11    1    3    3    0    0  0.79990112285E+01  0.40558775664E+01  0.25445271355E+02  0.26979550738E+02  0.51100000000E-03 0.  1.
        -12    1    3    3    0    0  0.13997609987E+02 -0.44953766786E+01  0.96545535207E+01  0.17588402443E+02  0.00000000000E+00 0.  1.
</event>
<event>
 7    1  0.2432574E-011  0.5052886E+02  0.7816164E-02  0.1300439E+00
        -11   -1    0    0    0    0  0.00000000000E+00  0.00000000000E+00  0.45593999997E+02  0.45594000000E+02  0.51100000000E-03 0. -1.
         11   -1    0    0    0    0 -0.00000000000E+00 -0.00000000000E+00 -0.45593999997E+02  0.45594000000E+02  0.51100000000E-03 0.  1.
    9900012    2    1    2    0    0  0.15666923468E+02  0.63307757866E+01 -0.36981544689E+02  0.50528857601E+02  0.29999993164E+02 0.  0.
         12    1    1    2    0    0 -0.15666923468E+02 -0.63307757866E+01  0.36981544689E+02  0.40659142399E+02  0.00000000000E+00 0. -1.
         11    1    3    3    0    0  0.10503824202E+02  0.40785047203E+01 -0.21495910822E+02  0.24270119612E+02  0.51100000000E-03 0. -1.
        -11    1    3    3    0    0  0.41939452258E+00  0.94305683977E+01 -0.14894958046E+02  0.17634378002E+02  0.51100000000E-03 0.  1.
         12    1    3    3    0    0  0.47437047434E+01 -0.71782973314E+01 -0.59067582117E+00  0.86243599876E+01  0.00000000000E+00 0. -1.
</event>
<event>
 7    1  0.2432574E-011  0.5052886E+02  0.7816164E-02  0.1300439E+00
        -11   -1    0    0    0    0  0.00000000000E+00  0.00000000000E+00  0.45593999997E+02  0.45594000000E+02  0.51100000000E-03 0.  1.
         11   -1    0    0    0    0 -0.00000000000E+00 -0.00000000000E+00 -0.45593999997E+02  0.45594000000E+02  0.51100000000E-03 0. -1.
    9900012    2    1    2    0    0 -0.16502855650E+02 -0.12916723523E+02  0.34842208169E+02  0.50528862512E+02  0.30000008092E+02 0.  0.
         12    1    1    2    0    0  0.16502855650E+02  0.12916723523E+02 -0.34842208169E+02  0.40659137488E+02  0.00000000000E+00 0. -1.
         11    1    3    3    0    0 -0.37635961689E+01  0.18766722315E+01  0.71628842467E+01  0.83062305398E+01  0.51100000000E-03 0.  1.
        -11    1    3    3    0    0 -0.14411360292E+02 -0.63273198499E+01  0.29268974512E+01  0.16009029043E+02  0.51100000000E-03 0. -1.
         12    1    3    3    0    0  0.16721008110E+01 -0.84660759046E+01  0.24752426471E+02  0.26213602929E+02  0.00000000000E+00 0. -1.
</event>
<event>
 7    1  0.2432574E-011  0.5052886E+02  0.7816164E-02  0.1300439E+00
        -11   -1    0    0    0    0  0.00000000000E+00  0.00000000000E+00  0.45593999997E+02  0.45594000000E+02  0.51100000000E-03 0.  1.
         11   -1    0    0    0    0 -0.00000000000E+00 -0.00000000000E+00 -0.45593999997E+02  0.45594000000E+02  0.51100000000E-03 0. -1.
    9900012    2    1    2    0    0  0.34201781480E+02 -0.97190187098E+01  0.19721675562E+02  0.50528859969E+02  0.30000000361E+02 0.  0.
         12    1    1    2    0    0 -0.34201781480E+02  0.97190187098E+01 -0.19721675562E+02  0.40659140031E+02  0.00000000000E+00 0. -1.
         11    1    3    3    0    0  0.32826162024E+02 -0.65578160154E+01  0.97180882853E+01  0.34856894645E+02  0.51100000000E-03 0. -1.
        -11    1    3    3    0    0  0.52861874852E+01  0.79970576385E+00  0.15789027017E+01  0.55746068417E+01  0.51100000000E-03 0.  1.
         12    1    3    3    0    0 -0.39105680290E+01 -0.39609084583E+01  0.84246845747E+01  0.10097358482E+02  0.00000000000E+00 0. -1.
</event>
<event>
 7    1  0.2432574E-011  0.5052886E+02  0.7816164E-02  0.1300439E+00
        -11   -1    0    0    0    0  0.00000000000E+00  0.00000000000E+00  0.45593999997E+02  0.45594000000E+02  0.51100000000E-03 0. -1.
         11   -1    0    0    0    0 -0.00000000000E+00 -0.00000000000E+00 -0.45593999997E+02  0.45594000000E+02  0.51100000000E-03 0.  1.
    9900012    2    1    2    0    0  0.11157333370E+02 -0.35059325757E+02 -0.17306745628E+02  0.50528857674E+02  0.29999993385E+02 0.  0.
         12    1    1    2    0    0 -0.11157333370E+02  0.35059325757E+02  0.17306745628E+02  0.40659142326E+02  0.00000000000E+00 0. -1.
         11    1    3    3    0    0  0.36342038278E+01 -0.23125785419E+02 -0.26763463452E+01  0.23562092834E+02  0.51100000000E-03 0. -1.
        -11    1    3    3    0    0  0.12201257373E+00 -0.13935242289E+02 -0.13145016588E+02  0.19157174272E+02  0.51100000000E-03 0.  1.
         12    1    3    3    0    0  0.74011169688E+01  0.20017019507E+01 -0.14853826945E+01  0.78095905677E+01  0.00000000000E+00 0. -1.
</event>
<event>
 7    1  0.2432574E-011  0.5052884E+02  0.7816164E-02  0.1300439E+00
        -11   -1    0    0    0    0  0.00000000000E+00  0.00000000000E+00  0.45593999997E+02  0.45594000000E+02  0.51100000000E-03 0.  1.
         11   -1    0    0    0    0 -0.00000000000E+00 -0.00000000000E+00 -0.45593999997E+02  0.45594000000E+02  0.51100000000E-03 0. -1.
    9900012    2    1    2    0    0  0.28799040227E+01  0.29173450524E+02  0.28174151990E+02  0.50528844783E+02  0.29999954201E+02 0.  0.
         12    1    1    2    0    0 -0.28799040227E+01 -0.29173450524E+02 -0.28174151990E+02  0.40659155217E+02  0.00000000000E+00 0. -1.
         11    1    3    3    0    0  0.46292246972E+01  0.12018798315E+02  0.13817867584E+02  0.18889539408E+02  0.51100000000E-03 0. -1.
        -11    1    3    3    0    0  0.74035827790E+01  0.71365802710E+01  0.14847389624E+02  0.18060697518E+02  0.51100000000E-03 0.  1.
         12    1    3    3    0    0 -0.91529034536E+01  0.10018071937E+02 -0.49110521766E+00  0.13578607856E+02  0.00000000000E+00 0. -1.
</event>
<event>
 7    1  0.2432574E-011  0.5052886E+02  0.7816164E-02  0.1300439E+00
        -11   -1    0    0    0    0  0.00000000000E+00  0.00000000000E+00  0.45593999997E+02  0.45594000000E+02  0.51100000000E-03 0.  1.
         11   -1    0    0    0    0 -0.00000000000E+00 -0.00000000000E+00 -0.45593999997E+02  0.45594000000E+02  0.51100000000E-03 0. -1.
    9900012    2    1    2    0    0  0.37168323914E+02 -0.13373784154E+02 -0.96344785807E+01  0.50528861019E+02  0.30000003553E+02 0.  0.
         12    1    1    2    0    0 -0.37168323914E+02  0.13373784154E+02  0.96344785807E+01  0.40659138981E+02  0.00000000000E+00 0. -1.
         11    1    3    3    0    0  0.76435216719E+01 -0.94301271671E+01 -0.14811961444E+02  0.19150585474E+02  0.51100000000E-03 0. -1.
        -11    1    3    3    0    0  0.10856586412E+02 -0.55530111851E+01  0.15424971730E+01  0.12291488906E+02  0.51100000000E-03 0.  1.
        -12    1    3    3    0    0  0.18668215830E+02  0.16093541977E+01  0.36349856901E+01  0.19086786639E+02  0.00000000000E+00 0.  1.
</event>
<event>
 7    1  0.2432574E-011  0.5052886E+02  0.7816164E-02  0.1300439E+00
        -11   -1    0    0    0    0  0.00000000000E+00  0.00000000000E+00  0.45593999997E+02  0.45594000000E+02  0.51100000000E-03 0.  1.
         11   -1    0    0    0    0 -0.00000000000E+00 -0.00000000000E+00 -0.45593999997E+02  0.45594000000E+02  0.51100000000E-03 0. -1.
    9900012    2    1    2    0    0  0.17010943114E+02  0.12924489057E+02  0.34594086010E+02  0.50528863390E+02  0.30000010759E+02 0.  0.
         12    1    1    2    0    0 -0.17010943114E+02 -0.12924489057E+02 -0.34594086010E+02  0.40659136610E+02  0.00000000000E+00 0. -1.
         11    1    3    3    0    0 -0.31420175821E+01 -0.52766604014E+01  0.13294535790E+01  0.62835393336E+01  0.51100000000E-03 0. -1.
        -11    1    3    3    0    0  0.70620465216E+01  0.29316773578E+01  0.37171190542E+01  0.85020119694E+01  0.51100000000E-03 0.  1.
        -12    1    3    3    0    0  0.13090914175E+02  0.15269472100E+02  0.29547513377E+02  0.35743312087E+02  0.00000000000E+00 0.  1.
</event>
<event>
 7    1  0.2432574E-011  0.5052886E+02  0.7816164E-02  0.1300439E+00
        -11   -1    0    0    0    0  0.00000000000E+00  0.00000000000E+00  0.45593999997E+02  0.45594000000E+02  0.51100000000E-03 0.  1.
         11   -1    0    0    0    0 -0.00000000000E+00 -0.00000000000E+00 -0.45593999997E+02  0.45594000000E+02  0.51100000000E-03 0. -1.
    9900012    2    1    2    0    0 -0.40038142912E+02  0.19333825682E+01 -0.68098959322E+01  0.50528861560E+02  0.30000005199E+02 0.  0.
         12    1    1    2    0    0  0.40038142912E+02 -0.19333825682E+01  0.68098959322E+01  0.40659138440E+02  0.00000000000E+00 0. -1.
         11    1    3    3    0    0 -0.30668643416E+01  0.68082268513E+01 -0.44558458504E+00  0.74803847248E+01  0.51100000000E-03 0. -1.
        -11    1    3    3    0    0 -0.14999304866E+02 -0.39727129284E+01  0.73109975233E+01  0.17152617279E+02  0.51100000000E-03 0.  1.
         12    1    3    3    0    0 -0.21971973705E+02 -0.90213135465E+00 -0.13675308870E+02  0.25895859556E+02  0.00000000000E+00 0. -1.
</event>
<event>
 7    1  0.2432574E-011  0.5052886E+02  0.7816164E-02  0.1300439E+00
        -11   -1    0    0    0    0  0.00000000000E+00  0.00000000000E+00  0.45593999997E+02  0.45594000000E+02  0.51100000000E-03 0.  1.
         11   -1    0    0    0    0 -0.00000000000E+00 -0.00000000000E+00 -0.45593999997E+02  0.45594000000E+02  0.51100000000E-03 0. -1.
    9900012    2    1    2    0    0  0.27659347925E+02  0.10770547557E+02  0.27787071224E+02  0.50528861426E+02  0.30000004791E+02 0.  0.
         12    1    1    2    0    0 -0.27659347925E+02 -0.10770547557E+02 -0.27787071224E+02  0.40659138574E+02  0.00000000000E+00 0. -1.
         11    1    3    3    0    0  0.85038972684E+01  0.13758950025E+02  0.53844504236E+01  0.17047500730E+02  0.51100000000E-03 0. -1.
        -11    1    3    3    0    0 -0.91072241713E+00  0.23801416067E+01  0.74873120302E+01  0.79091296036E+01  0.51100000000E-03 0.  1.
        -12    1    3    3    0    0  0.20066173074E+02 -0.53685440738E+01  0.14915308771E+02  0.25572231092E+02  0.00000000000E+00 0.  1.
</event>
<event>
 7    1  0.2432574E-011  0.5052886E+02  0.7816164E-02  0.1300439E+00
        -11   -1    0    0    0    0  0.00000000000E+00  0.00000000000E+00  0.45593999997E+02  0.45594000000E+02  0.51100000000E-03 0. -1.
         11   -1    0    0    0    0 -0.00000000000E+00 -0.00000000000E+00 -0.45593999997E+02  0.45594000000E+02  0.51100000000E-03 0.  1.
    9900012    2    1    2    0    0  0.40197602502E+02  0.53019470839E+01 -0.30344350323E+01  0.50528859752E+02  0.29999999702E+02 0.  0.
         12    1    1    2    0    0 -0.40197602502E+02 -0.53019470839E+01  0.30344350323E+01  0.40659140248E+02  0.00000000000E+00 0. -1.
         11    1    3    3    0    0  0.20000272763E+01 -0.62724728223E+01  0.22449604134E+01  0.69558516323E+01  0.51100000000E-03 0. -1.
        -11    1    3    3    0    0  0.19154627069E+02 -0.26976587031E+01 -0.81890084192E+00  0.19360983949E+02  0.51100000000E-03 0.  1.
         12    1    3    3    0    0  0.19042948157E+02  0.14272078609E+02 -0.44604946039E+01  0.24212024171E+02  0.00000000000E+00 0. -1.
</event>
<event>
 7    1  0.2432574E-011  0.5052886E+02  0.7816164E-02  0.1300439E+00
        -11   -1    0    0    0    0  0.00000000000E+00  0.00000000000E+00  0.45593999997E+02  0.45594000000E+02  0.51100000000E-03 0.  1.
         11   -1    0    0    0    0 -0.00000000000E+00 -0.00000000000E+00 -0.45593999997E+02  0.45594000000E+02  0.51100000000E-03 0. -1.
    9900012    2    1    2    0    0 -0.30719026331E+02  0.24182763384E+02  0.11166953524E+02  0.50528862348E+02  0.30000007592E+02 0.  0.
         12    1    1    2    0    0  0.30719026331E+02 -0.24182763384E+02 -0.11166953524E+02  0.40659137652E+02  0.00000000000E+00 0. -1.
         11    1    3    3    0    0 -0.71832305363E+01  0.20726875206E+01 -0.65645404913E+01  0.99492726678E+01  0.51100000000E-03 0. -1.
        -11    1    3    3    0    0  0.15780847775E-01  0.88366724507E+01  0.12693664558E+01  0.89273915841E+01  0.51100000000E-03 0.  1.
         12    1    3    3    0    0 -0.23551576642E+02  0.13273403413E+02  0.16462127560E+02  0.31652198096E+02  0.00000000000E+00 0. -1.
</event>
<event>
 7    1  0.2432574E-011  0.5052886E+02  0.7816164E-02  0.1300439E+00
        -11   -1    0    0    0    0  0.00000000000E+00  0.00000000000E+00  0.45593999997E+02  0.45594000000E+02  0.51100000000E-03 0. -1.
         11   -1    0    0    0    0 -0.00000000000E+00 -0.00000000000E+00 -0.45593999997E+02  0.45594000000E+02  0.51100000000E-03 0.  1.
    9900012    2    1    2    0    0  0.34985252500E+02  0.19347904040E+02  0.74065224293E+01  0.50528857637E+02  0.29999993273E+02 0.  0.
         12    1    1    2    0    0 -0.34985252500E+02 -0.19347904040E+02 -0.74065224293E+01  0.40659142363E+02  0.00000000000E+00 0. -1.
         11    1    3    3    0    0  0.27505847144E+01  0.30323578134E+01  0.79150492536E+01  0.89111680002E+01  0.51100000000E-03 0. -1.
        -11    1    3    3    0    0  0.19313078383E+02  0.20130913504E+02  0.17703183644E+01  0.27953223473E+02  0.51100000000E-03 0.  1.
        -12    1    3    3    0    0  0.12921589402E+02 -0.38153672779E+01 -0.22788451887E+01  0.13664466164E+02  0.00000000000E+00 0.  1.
</event>
<event>
 7    1  0.2432574E-011  0.5052886E+02  0.7816164E-02  0.1300439E+00
        -11   -1    0    0    0    0  0.00000000000E+00  0.00000000000E+00  0.45593999997E+02  0.45594000000E+02  0.51100000000E-03 0.  1.
         11   -1    0    0    0    0 -0.00000000000E+00 -0.00000000000E+00 -0.45593999997E+02  0.45594000000E+02  0.51100000000E-03 0. -1.
    9900012    2    1    2    0    0 -0.22971458471E+02 -0.27806393032E+02 -0.18769184857E+02  0.50528859602E+02  0.29999999246E+02 0.  0.
         12    1    1    2    0    0  0.22971458471E+02  0.27806393032E+02  0.18769184857E+02  0.40659140398E+02  0.00000000000E+00 0. -1.
         11    1    3    3    0    0 -0.11416187396E+01 -0.95301996658E+01 -0.59824337097E+01  0.11310062439E+02  0.51100000000E-03 0. -1.
        -11    1    3    3    0    0 -0.28487931893E+01 -0.38776966797E+01  0.68319908338E+01  0.83563301269E+01  0.51100000000E-03 0.  1.
         12    1    3    3    0    0 -0.18981046542E+02 -0.14398496687E+02 -0.19618741981E+02  0.30862467036E+02  0.00000000000E+00 0. -1.
</event>
<event>
 7    1  0.2432574E-011  0.5052886E+02  0.7816164E-02  0.1300439E+00
        -11   -1    0    0    0    0  0.00000000000E+00  0.00000000000E+00  0.45593999997E+02  0.45594000000E+02  0.51100000000E-03 0.  1.
         11   -1    0    0    0    0 -0.00000000000E+00 -0.00000000000E+00 -0.45593999997E+02  0.45594000000E+02  0.51100000000E-03 0. -1.
    9900012    2    1    2    0    0 -0.99006206369E+01  0.38159509899E+02  0.99496126589E+01  0.50528864781E+02  0.30000014988E+02 0.  0.
         12    1    1    2    0    0  0.99006206369E+01 -0.38159509899E+02 -0.99496126589E+01  0.40659135219E+02  0.00000000000E+00 0. -1.
         11    1    3    3    0    0 -0.14382260718E+01  0.34759764617E+01 -0.86679283023E+01  0.94490151821E+01  0.51100000000E-03 0. -1.
        -11    1    3    3    0    0 -0.74653294794E+01  0.14252361847E+02  0.69033031442E+01  0.17507614259E+02  0.51100000000E-03 0.  1.
        -12    1    3    3    0    0 -0.99706508559E+00  0.20431171590E+02  0.11714237817E+02  0.23572235340E+02  0.00000000000E+00 0.  1.
</event>
<event>
 7    1  0.2432574E-011  0.5052885E+02  0.7816164E-02  0.1300439E+00
        -11   -1    0    0    0    0  0.00000000000E+00  0.00000000000E+00  0.45593999997E+02  0.45594000000E+02  0.51100000000E-03 0.  1.
         11   -1    0    0    0    0 -0.00000000000E+00 -0.00000000000E+00 -0.45593999997E+02  0.45594000000E+02  0.51100000000E-03 0. -1.
    9900012    2    1    2    0    0  0.17192100356E+02 -0.33944111134E+02  0.14331624373E+02  0.50528850322E+02  0.29999971039E+02 0.  0.
         12    1    1    2    0    0 -0.17192100356E+02  0.33944111134E+02 -0.14331624373E+02  0.40659149678E+02  0.00000000000E+00 0. -1.
         11    1    3    3    0    0  0.57050342955E+01 -0.29294774341E+00  0.12972207608E+01  0.58579874237E+01  0.51100000000E-03 0. -1.
        -11    1    3    3    0    0  0.18441705141E+02 -0.26993040339E+02  0.12592637227E+02  0.35032773625E+02  0.51100000000E-03 0.  1.
         12    1    3    3    0    0 -0.69546390799E+01 -0.66581230518E+01  0.44176638571E+00  0.96380892735E+01  0.00000000000E+00 0. -1.
</event>
<event>
 7    1  0.2432574E-011  0.5052888E+02  0.7816164E-02  0.1300439E+00
        -11   -1    0    0    0    0  0.00000000000E+00  0.00000000000E+00  0.45593999997E+02  0.45594000000E+02  0.51100000000E-03 0. -1.
         11   -1    0    0    0    0 -0.00000000000E+00 -0.00000000000E+00 -0.45593999997E+02  0.45594000000E+02  0.51100000000E-03 0.  1.
    9900012    2    1    2    0    0  0.24535614524E+02  0.32984675874E+01 -0.32253492723E+02  0.50528879728E+02  0.30000060420E+02 0.  0.
         12    1    1    2    0    0 -0.24535614524E+02 -0.32984675874E+01  0.32253492723E+02  0.40659120272E+02  0.00000000000E+00 0. -1.
         11    1    3    3    0    0  0.23205737940E+02  0.50169768223E+01 -0.20253767559E+02  0.31207233622E+02  0.51100000000E-03 0.  1.
        -11    1    3    3    0    0  0.45609393676E+01  0.25989374794E+01  0.91289033923E+00  0.53282279390E+01  0.51100000000E-03 0. -1.
        -12    1    3    3    0    0 -0.32310627834E+01 -0.43174467143E+01 -0.12912615503E+02  0.13993418166E+02  0.00000000000E+00 0.  1.
</event>
<event>
 7    1  0.2432574E-011  0.5052886E+02  0.7816164E-02  0.1300439E+00
        -11   -1    0    0    0    0  0.00000000000E+00  0.00000000000E+00  0.45593999997E+02  0.45594000000E+02  0.51100000000E-03 0.  1.
         11   -1    0    0    0    0 -0.00000000000E+00 -0.00000000000E+00 -0.45593999997E+02  0.45594000000E+02  0.51100000000E-03 0. -1.
    9900012    2    1    2    0    0  0.23383429750E+02  0.32380166907E+02 -0.76095627738E+01  0.50528862756E+02  0.30000008834E+02 0.  0.
         12    1    1    2    0    0 -0.23383429750E+02 -0.32380166907E+02  0.76095627738E+01  0.40659137244E+02  0.00000000000E+00 0. -1.
         11    1    3    3    0    0  0.29867273361E+01  0.77352024702E+00 -0.18148375970E+01  0.35794565953E+01  0.51100000000E-03 0. -1.
        -11    1    3    3    0    0  0.18166353556E+02  0.21803644746E+02  0.83619373266E+01  0.29586100146E+02  0.51100000000E-03 0.  1.
        -12    1    3    3    0    0  0.22303488584E+01  0.98030019139E+01 -0.14156662503E+02  0.17363306016E+02  0.00000000000E+00 0.  1.
</event>
<event>
 7    1  0.2432574E-011  0.5052884E+02  0.7816164E-02  0.1300439E+00
        -11   -1    0    0    0    0  0.00000000000E+00  0.00000000000E+00  0.45593999997E+02  0.45594000000E+02  0.51100000000E-03 0. -1.
         11   -1    0    0    0    0 -0.00000000000E+00 -0.00000000000E+00 -0.45593999997E+02  0.45594000000E+02  0.51100000000E-03 0.  1.
    9900012    2    1    2    0    0  0.10966301952E+02  0.31856997829E+02 -0.22760473055E+02  0.50528840849E+02  0.29999942245E+02 0.  0.
         12    1    1    2    0    0 -0.10966301952E+02 -0.31856997829E+02  0.22760473055E+02  0.40659159151E+02  0.00000000000E+00 0. -1.
         11    1    3    3    0    0  0.29602859560E+01  0.98494078174E+01 -0.63822514752E+01  0.12104018401E+02  0.51100000000E-03 0. -1.
        -11    1    3    3    0    0  0.15877480966E+02  0.12094588644E+02 -0.33111577030E+01  0.20232084467E+02  0.51100000000E-03 0.  1.
         12    1    3    3    0    0 -0.78714649703E+01  0.99130013673E+01 -0.13067063877E+02  0.18192737981E+02  0.00000000000E+00 0. -1.
</event>
<event>
 7    1  0.2432574E-011  0.5052886E+02  0.7816164E-02  0.1300439E+00
        -11   -1    0    0    0    0  0.00000000000E+00  0.00000000000E+00  0.45593999997E+02  0.45594000000E+02  0.51100000000E-03 0. -1.
         11   -1    0    0    0    0 -0.00000000000E+00 -0.00000000000E+00 -0.45593999997E+02  0.45594000000E+02  0.51100000000E-03 0.  1.
    9900012    2    1    2    0    0 -0.85273527549E+01 -0.36322423878E+02 -0.16159560286E+02  0.50528860682E+02  0.30000002530E+02 0.  0.
         12    1    1    2    0    0  0.85273527549E+01  0.36322423878E+02  0.16159560286E+02  0.40659139318E+02  0.00000000000E+00 0. -1.
         11    1    3    3    0    0 -0.16600622234E+01 -0.95345388428E+01 -0.16018683646E+02  0.18715273537E+02  0.51100000000E-03 0. -1.
        -11    1    3    3    0    0  0.38838960362E+01 -0.12292834742E+01  0.27032868824E+00  0.40827520303E+01  0.51100000000E-03 0.  1.
        -12    1    3    3    0    0 -0.10751186568E+02 -0.25558601561E+02 -0.41120532814E+00  0.27730835116E+02  0.00000000000E+00 0.  1.
</event>
<event>
 7    1  0.2432574E-011  0.5052886E+02  0.7816164E-02  0.1300439E+00
        -11   -1    0    0    0    0  0.00000000000E+00  0.00000000000E+00  0.45593999997E+02  0.45594000000E+02  0.51100000000E-03 0.  1.
         11   -1    0    0    0    0 -0.00000000000E+00 -0.00000000000E+00 -0.45593999997E+02  0.45594000000E+02  0.51100000000E-03 0. -1.
    9900012    2    1    2    0    0 -0.85056962750E+00 -0.12681394378E+02  0.38621554866E+02  0.50528859179E+02  0.29999997961E+02 0.  0.
         12    1    1    2    0    0  0.85056962750E+00  0.12681394378E+02 -0.38621554866E+02  0.40659140821E+02  0.00000000000E+00 0. -1.
         11    1    3    3    0    0 -0.10656031642E+02 -0.10852520225E+02  0.10049603172E+02  0.18229721055E+02  0.51100000000E-03 0. -1.
        -11    1    3    3    0    0  0.46937331969E+01 -0.42663521389E+01  0.24542153750E+02  0.25348573980E+02  0.51100000000E-03 0.  1.
        -12    1    3    3    0    0  0.51117288174E+01  0.24374779866E+01  0.40297979445E+01  0.69505641434E+01  0.00000000000E+00 0.  1.
</event>
<event>
 7    1  0.2432574E-011  0.5052885E+02  0.7816164E-02  0.1300439E+00
        -11   -1    0    0    0    0  0.00000000000E+00  0.00000000000E+00  0.45593999997E+02  0.45594000000E+02  0.51100000000E-03 0.  1.
         11   -1    0    0    0    0 -0.00000000000E+00 -0.00000000000E+00 -0.45593999997E+02  0.45594000000E+02  0.51100000000E-03 0. -1.
    9900012    2    1    2    0    0 -0.64661550523E+01 -0.30471712104E+02 -0.26131022757E+02  0.50528846663E+02  0.29999959918E+02 0.  0.
         12    1    1    2    0    0  0.64661550523E+01  0.30471712104E+02  0.26131022757E+02  0.40659153337E+02  0.00000000000E+00 0. -1.
         11    1    3    3    0    0 -0.10362027922E+01  0.14734395389E+01 -0.34120342293E+01  0.38583310050E+01  0.51100000000E-03 0. -1.
        -11    1    3    3    0    0  0.26836461456E+01 -0.79565693117E+01 -0.19388711834E+02  0.21128916174E+02  0.51100000000E-03 0.  1.
        -12    1    3    3    0    0 -0.81135984057E+01 -0.23988582331E+02 -0.33302766938E+01  0.25541599484E+02  0.00000000000E+00 0.  1.
</event>
<event>
 7    1  0.2432574E-011  0.5052886E+02  0.7816164E-02  0.1300439E+00
        -11   -1    0    0    0    0  0.00000000000E+00  0.00000000000E+00  0.45593999997E+02  0.45594000000E+02  0.51100000000E-03 0.  1.
         11   -1    0    0    0    0 -0.00000000000E+00 -0.00000000000E+00 -0.45593999997E+02  0.45594000000E+02  0.51100000000E-03 0. -1.
    9900012    2    1    2    0    0 -0.39879778146E+02  0.78542803148E+01 -0.10388498829E+01  0.50528860396E+02  0.30000001661E+02 0.  0.
         12    1    1    2    0    0  0.39879778146E+02 -0.78542803148E+01  0.10388498829E+01  0.40659139604E+02  0.00000000000E+00 0. -1.
         11    1    3    3    0    0 -0.24699443202E+02  0.15341113314E+02 -0.70923610521E+01  0.29928478708E+02  0.51100000000E-03 0.  1.
        -11    1    3    3    0    0 -0.85798802667E+01 -0.53405329449E+01 -0.16404028590E+01  0.10238484230E+02  0.51100000000E-03 0. -1.
        -12    1    3    3    0    0 -0.66004546768E+01 -0.21463000547E+01  0.76939140282E+01  0.10361897458E+02  0.00000000000E+00 0.  1.
</event>
<event>
 7    1  0.2432574E-011  0.5052885E+02  0.7816164E-02  0.1300439E+00
        -11   -1    0    0    0    0  0.00000000000E+00  0.00000000000E+00  0.45593999997E+02  0.45594000000E+02  0.51100000000E-03 0. -1.
         11   -1    0    0    0    0 -0.00000000000E+00 -0.00000000000E+00 -0.45593999997E+02  0.45594000000E+02  0.51100000000E-03 0.  1.
    9900012    2    1    2    0    0  0.31635545641E+02 -0.12719448457E+02 -0.22148913102E+02  0.50528850124E+02  0.29999970436E+02 0.  0.
         12    1    1    2    0    0 -0.31635545641E+02  0.12719448457E+02  0.22148913102E+02  0.40659149876E+02  0.00000000000E+00 0. -1.
         11    1    3    3    0    0  0.18190865571E+02 -0.10439139879E+02 -0.12142123639E+02  0.24234570315E+02  0.51100000000E-03 0. -1.
        -11    1    3    3    0    0  0.15041189275E+02  0.31650270703E+01 -0.12769563484E+02  0.19982905770E+02  0.51100000000E-03 0.  1.
         12    1    3    3    0    0 -0.15965092054E+01 -0.54453356486E+01  0.27627740209E+01  0.63113740390E+01  0.00000000000E+00 0. -1.
</event>
<event>
 7    1  0.2432574E-011  0.5052885E+02  0.7816164E-02  0.1300439E+00
        -11   -1    0    0    0    0  0.00000000000E+00  0.00000000000E+00  0.45593999997E+02  0.45594000000E+02  0.51100000000E-03 0.  1.
         11   -1    0    0    0    0 -0.00000000000E+00 -0.00000000000E+00 -0.45593999997E+02  0.45594000000E+02  0.51100000000E-03 0. -1.
    9900012    2    1    2    0    0 -0.13390670082E+01  0.39400854600E+02  0.99471638038E+01  0.50528849598E+02  0.29999968837E+02 0.  0.
         12    1    1    2    0    0  0.13390670082E+01 -0.39400854600E+02 -0.99471638038E+01  0.40659150402E+02  0.00000000000E+00 0. -1.
         11    1    3    3    0    0 -0.14589904932E+01  0.10971782324E+02  0.11625531992E+02  0.16051842729E+02  0.51100000000E-03 0. -1.
        -11    1    3    3    0    0  0.17412020889E+01  0.15758555060E+02  0.86404228442E+01  0.18056044680E+02  0.51100000000E-03 0.  1.
         12    1    3    3    0    0 -0.16212786039E+01  0.12670517216E+02 -0.10318791033E+02  0.16420962189E+02  0.00000000000E+00 0. -1.
</event>
<event>
 7    1  0.2432574E-011  0.5052886E+02  0.7816164E-02  0.1300439E+00
        -11   -1    0    0    0    0  0.00000000000E+00  0.00000000000E+00  0.45593999997E+02  0.45594000000E+02  0.51100000000E-03 0.  1.
         11   -1    0    0    0    0 -0.00000000000E+00 -0.00000000000E+00 -0.45593999997E+02  0.45594000000E+02  0.51100000000E-03 0. -1.
    9900012    2    1    2    0    0 -0.11320118275E+01 -0.31845225655E+01  0.40518429518E+02  0.50528858773E+02  0.29999996725E+02 0.  0.
         12    1    1    2    0    0  0.11320118275E+01  0.31845225655E+01 -0.40518429518E+02  0.40659141227E+02  0.00000000000E+00 0. -1.
         11    1    3    3    0    0  0.31888186336E+01 -0.29936129421E+01 -0.90337875505E+00  0.44661366035E+01  0.51100000000E-03 0. -1.
        -11    1    3    3    0    0  0.52028743981E+01  0.58514473708E+01  0.10150518093E+02  0.12819608268E+02  0.51100000000E-03 0.  1.
         12    1    3    3    0    0 -0.95237048592E+01 -0.60423569941E+01  0.31271290180E+02  0.33243113901E+02  0.00000000000E+00 0. -1.
</event>
<event>
 7    1  0.2432574E-011  0.5052885E+02  0.7816164E-02  0.1300439E+00
        -11   -1    0    0    0    0  0.00000000000E+00  0.00000000000E+00  0.45593999997E+02  0.45594000000E+02  0.51100000000E-03 0. -1.
         11   -1    0    0    0    0 -0.00000000000E+00 -0.00000000000E+00 -0.45593999997E+02  0.45594000000E+02  0.51100000000E-03 0.  1.
    9900012    2    1    2    0    0  0.36609901342E+02 -0.12578176347E+02 -0.12436673251E+02  0.50528852960E+02  0.29999979057E+02 0.  0.
         12    1    1    2    0    0 -0.36609901342E+02  0.12578176347E+02  0.12436673251E+02  0.40659147040E+02  0.00000000000E+00 0. -1.
         11    1    3    3    0    0  0.12554170112E+02 -0.17213674193E+02 -0.13236264378E+01  0.21346422502E+02  0.51100000000E-03 0. -1.
        -11    1    3    3    0    0  0.48406337333E+01  0.58788090861E+01 -0.19658530336E+01  0.78649036625E+01  0.51100000000E-03 0.  1.
        -12    1    3    3    0    0  0.19215097496E+02 -0.12433112400E+01 -0.91471937801E+01  0.21317526795E+02  0.00000000000E+00 0.  1.
</event>
<event>
 7    1  0.2432574E-011  0.5052885E+02  0.7816164E-02  0.1300439E+00
        -11   -1    0    0    0    0  0.00000000000E+00  0.00000000000E+00  0.45593999997E+02  0.45594000000E+02  0.51100000000E-03 0. -1.
         11   -1    0    0    0    0 -0.00000000000E+00 -0.00000000000E+00 -0.45593999997E+02  0.45594000000E+02  0.51100000000E-03 0.  1.
    9900012    2    1    2    0    0  0.43690590898E+00  0.16333419211E+02 -0.37231639414E+02  0.50528850435E+02  0.29999971381E+02 0.  0.
         12    1    1    2    0    0 -0.43690590898E+00 -0.16333419211E+02  0.37231639414E+02  0.40659149565E+02  0.00000000000E+00 0. -1.
         11    1    3    3    0    0 -0.18871026533E+01 -0.24012731477E+01 -0.27381480271E+02  0.27551274585E+02  0.51100000000E-03 0.  1.
        -11    1    3    3    0    0 -0.31871109360E+01  0.89722333879E+01 -0.51094354034E+01  0.10805784492E+02  0.51100000000E-03 0. -1.
        -12    1    3    3    0    0  0.55111194983E+01  0.97624589708E+01 -0.47407237401E+01  0.12171791358E+02  0.00000000000E+00 0.  1.
</event>
<event>
 7    1  0.2432574E-011  0.5052886E+02  0.7816164E-02  0.1300439E+00
        -11   -1    0    0    0    0  0.00000000000E+00  0.00000000000E+00  0.45593999997E+02  0.45594000000E+02  0.51100000000E-03 0. -1.
         11   -1    0    0    0    0 -0.00000000000E+00 -0.00000000000E+00 -0.45593999997E+02  0.45594000000E+02  0.51100000000E-03 0.  1.
    9900012    2    1    2    0    0 -0.24581936485E+02 -0.24824295647E+02  0.20800201940E+02  0.50528860112E+02  0.30000000796E+02 0.  0.
         12    1    1    2    0    0  0.24581936485E+02  0.24824295647E+02 -0.20800201940E+02  0.40659139888E+02  0.00000000000E+00 0. -1.
         11    1    3    3    0    0 -0.15443353110E+02 -0.95166353570E+01  0.30559971901E+01  0.18395722951E+02  0.51100000000E-03 0. -1.
        -11    1    3    3    0    0 -0.14498980715E+02 -0.67920099519E+01  0.14387761209E+02  0.21525787183E+02  0.51100000000E-03 0.  1.
         12    1    3    3    0    0  0.53603973402E+01 -0.85156503378E+01  0.33564435403E+01  0.10607349978E+02  0.00000000000E+00 0. -1.
</event>
<event>
 7    1  0.2432574E-011  0.5052886E+02  0.7816164E-02  0.1300439E+00
        -11   -1    0    0    0    0  0.00000000000E+00  0.00000000000E+00  0.45593999997E+02  0.45594000000E+02  0.51100000000E-03 0.  1.
         11   -1    0    0    0    0 -0.00000000000E+00 -0.00000000000E+00 -0.45593999997E+02  0.45594000000E+02  0.51100000000E-03 0. -1.
    9900012    2    1    2    0    0 -0.20548943042E+02  0.32386827030E+02  0.13490727080E+02  0.50528863974E+02  0.30000012536E+02 0.  0.
         12    1    1    2    0    0  0.20548943042E+02 -0.32386827030E+02 -0.13490727080E+02  0.40659136026E+02  0.00000000000E+00 0. -1.
         11    1    3    3    0    0 -0.17809278123E+02  0.17078422744E+02 -0.12927572407E+01  0.24708584182E+02  0.51100000000E-03 0. -1.
        -11    1    3    3    0    0  0.28462785372E+01  0.79117241424E+01  0.43561457613E-01  0.84082446609E+01  0.51100000000E-03 0.  1.
         12    1    3    3    0    0 -0.55859434557E+01  0.73966801433E+01  0.14739922863E+02  0.17412035132E+02  0.00000000000E+00 0. -1.
</event>
<event>
 7    1  0.2432574E-011  0.5052885E+02  0.7816164E-02  0.1300439E+00
        -11   -1    0    0    0    0  0.00000000000E+00  0.00000000000E+00  0.45593999997E+02  0.45594000000E+02  0.51100000000E-03 0.  1.
         11   -1    0    0    0    0 -0.00000000000E+00 -0.00000000000E+00 -0.45593999997E+02  0.45594000000E+02  0.51100000000E-03 0. -1.
    9900012    2    1    2    0    0 -0.52276630858E+01  0.16681240603E+02  0.36709324400E+02  0.50528846697E+02  0.29999960021E+02 0.  0.
         12    1    1    2    0    0  0.52276630858E+01 -0.16681240603E+02 -0.36709324400E+02  0.40659153303E+02  0.00000000000E+00 0. -1.
         11    1    3    3    0    0  0.10960090036E+01  0.84699289028E+01  0.47506373906E+00  0.85537487204E+01  0.51100000000E-03 0. -1.
        -11    1    3    3    0    0 -0.47333942138E+01  0.95933563400E+01  0.72694723698E+01  0.12933782720E+02  0.51100000000E-03 0.  1.
        -12    1    3    3    0    0 -0.15902778755E+01 -0.13820446395E+01  0.28964788291E+02  0.29041315257E+02  0.00000000000E+00 0.  1.
</event>
<event>
 7    1  0.2432574E-011  0.5052885E+02  0.7816164E-02  0.1300439E+00
        -11   -1    0    0    0    0  0.00000000000E+00  0.00000000000E+00  0.45593999997E+02  0.45594000000E+02  0.51100000000E-03 0. -1.
         11   -1    0    0    0    0 -0.00000000000E+00 -0.00000000000E+00 -0.45593999997E+02  0.45594000000E+02  0.51100000000E-03 0.  1.
    9900012    2    1    2    0    0  0.14966679661E+01  0.32456646355E+02 -0.24443653038E+02  0.50528854885E+02  0.29999984909E+02 0.  0.
         12    1    1    2    0    0 -0.14966679661E+01 -0.32456646355E+02  0.24443653038E+02  0.40659145115E+02  0.00000000000E+00 0. -1.
         11    1    3    3    0    0  0.60911280573E+01  0.55674289288E+01  0.13478333028E+01  0.83615046948E+01  0.51100000000E-03 0. -1.
        -11    1    3    3    0    0  0.50305134989E+00  0.21218997520E+02 -0.77755616137E+01  0.22604386191E+02  0.51100000000E-03 0.  1.
        -12    1    3    3    0    0 -0.50975114411E+01  0.56702199066E+01 -0.18015924727E+02  0.19562963999E+02  0.00000000000E+00 0.  1.
</event>
<event>
 7    1  0.2432574E-011  0.5052885E+02  0.7816164E-02  0.1300439E+00
        -11   -1    0    0    0    0  0.00000000000E+00  0.00000000000E+00  0.45593999997E+02  0.45594000000E+02  0.51100000000E-03 0.  1.
         11   -1    0    0    0    0 -0.00000000000E+00 -0.00000000000E+00 -0.45593999997E+02  0.45594000000E+02  0.51100000000E-03 0. -1.
    9900012    2    1    2    0    0 -0.25170352045E+02  0.38625982380E+01  0.31697002508E+02  0.50528852748E+02  0.29999978414E+02 0.  0.
         12    1    1    2    0    0  0.25170352045E+02 -0.38625982380E+01 -0.31697002508E+02  0.40659147252E+02  0.00000000000E+00 0. -1.
         11    1    3    3    0    0  0.15012982068E+01 -0.15434159318E+01  0.70459350018E+00  0.22654980260E+01  0.51100000000E-03 0. -1.
        -11    1    3    3    0    0 -0.48294299362E+01  0.12887251676E+02  0.95244272063E+01  0.16736766807E+02  0.51100000000E-03 0.  1.
        -12    1    3    3    0    0 -0.21842220316E+02 -0.74812375065E+01  0.21467981802E+02  0.31526587915E+02  0.00000000000E+00 0.  1.
</event>
<event>
 7    1  0.2432574E-011  0.5052886E+02  0.7816164E-02  0.1300439E+00
        -11   -1    0    0    0    0  0.00000000000E+00  0.00000000000E+00  0.45593999997E+02  0.45594000000E+02  0.51100000000E-03 0.  1.
         11   -1    0    0    0    0 -0.00000000000E+00 -0.00000000000E+00 -0.45593999997E+02  0.45594000000E+02  0.51100000000E-03 0. -1.
    9900012    2    1    2    0    0 -0.22390862615E+02 -0.76205193131E+01  0.33071781971E+02  0.50528858273E+02  0.29999995206E+02 0.  0.
         12    1    1    2    0    0  0.22390862615E+02  0.76205193131E+01 -0.33071781971E+02  0.40659141727E+02  0.00000000000E+00 0. -1.
         11    1    3    3    0    0 -0.57444217365E+01 -0.42655871650E+01  0.19967964984E+02  0.21211158403E+02  0.51100000000E-03 0. -1.
        -11    1    3    3    0    0 -0.92695856430E+01  0.57501886705E+01  0.13785772261E+02  0.17579459743E+02  0.51100000000E-03 0.  1.
         12    1    3    3    0    0 -0.73768552352E+01 -0.91051208187E+01 -0.68195527394E+00  0.11738240127E+02  0.00000000000E+00 0. -1.
</event>
<event>
 7    1  0.2432574E-011  0.5052885E+02  0.7816164E-02  0.1300439E+00
        -11   -1    0    0    0    0  0.00000000000E+00  0.00000000000E+00  0.45593999997E+02  0.45594000000E+02  0.51100000000E-03 0.  1.
         11   -1    0    0    0    0 -0.00000000000E+00 -0.00000000000E+00 -0.45593999997E+02  0.45594000000E+02  0.51100000000E-03 0. -1.
    9900012    2    1    2    0    0 -0.48080958025E+00 -0.13874028972E+02  0.38215789141E+02  0.50528851000E+02  0.29999973100E+02 0.  0.
         12    1    1    2    0    0  0.48080958025E+00  0.13874028972E+02 -0.38215789141E+02  0.40659149000E+02  0.00000000000E+00 0. -1.
         11    1    3    3    0    0  0.22736121102E+01 -0.15597107353E+02  0.26686026677E+02  0.30993274914E+02  0.51100000000E-03 0. -1.
        -11    1    3    3    0    0  0.88971874983E+00 -0.17114385268E+01  0.13873304627E+02  0.14006755614E+02  0.51100000000E-03 0.  1.
        -12    1    3    3    0    0 -0.36441404403E+01  0.34345169080E+01 -0.23435421640E+01  0.55288204722E+01  0.00000000000E+00 0.  1.
</event>
<event>
 7    1  0.2432574E-011  0.5052884E+02  0.7816164E-02  0.1300439E+00
        -11   -1    0    0    0    0  0.00000000000E+00  0.00000000000E+00  0.45593999997E+02  0.45594000000E+02  0.51100000000E-03 0.  1.
         11   -1    0    0    0    0 -0.00000000000E+00 -0.00000000000E+00 -0.45593999997E+02  0.45594000000E+02  0.51100000000E-03 0. -1.
    9900012    2    1    2    0    0 -0.30720034670E+02  0.25232859195E+02  0.85293137411E+01  0.50528844744E+02  0.29999954082E+02 0.  0.
         12    1    1    2    0    0  0.30720034670E+02 -0.25232859195E+02 -0.85293137411E+01  0.40659155256E+02  0.00000000000E+00 0. -1.
         11    1    3    3    0    0 -0.17005644201E+02  0.12681153257E+02  0.12212957078E+02  0.24477743022E+02  0.51100000000E-03 0.  1.
        -11    1    3    3    0    0 -0.13360884496E+02  0.16645350033E+02 -0.46159873845E+01  0.21837771224E+02  0.51100000000E-03 0. -1.
        -12    1    3    3    0    0 -0.35350597301E+00 -0.40936440955E+01  0.93234404776E+00  0.42133304970E+01  0.00000000000E+00 0.  1.
</event>
<event>
 7    1  0.2432574E-011  0.5052886E+02  0.7816164E-02  0.1300439E+00
        -11   -1    0    0    0    0  0.00000000000E+00  0.00000000000E+00  0.45593999997E+02  0.45594000000E+02  0.51100000000E-03 0.  1.
         11   -1    0    0    0    0 -0.00000000000E+00 -0.00000000000E+00 -0.45593999997E+02  0.45594000000E+02  0.51100000000E-03 0. -1.
    9900012    2    1    2    0    0  0.11611770133E+02  0.18764281494E+02  0.34150169587E+02  0.50528861440E+02  0.30000004834E+02 0.  0.
         12    1    1    2    0    0 -0.11611770133E+02 -0.18764281494E+02 -0.34150169587E+02  0.40659138560E+02  0.00000000000E+00 0. -1.
         11    1    3    3    0    0  0.42558192012E+01  0.15313142674E+01  0.24142248015E+01  0.51269291113E+01  0.51100000000E-03 0. -1.
        -11    1    3    3    0    0  0.78353730310E+01  0.11366803611E+02  0.35719644822E+02  0.38294781908E+02  0.51100000000E-03 0.  1.
         12    1    3    3    0    0 -0.47942209921E+00  0.58661636164E+01 -0.39837000372E+01  0.71071504212E+01  0.00000000000E+00 0. -1.
</event>
<event>
 7    1  0.3084606E-011  0.5052886E+02  0.7816164E-02  0.1300439E+00
        -11   -1    0    0    0    0  0.00000000000E+00  0.00000000000E+00  0.45593999997E+02  0.45594000000E+02  0.51100000000E-03 0. -1.
         11   -1    0    0    0    0 -0.00000000000E+00 -0.00000000000E+00 -0.45593999997E+02  0.45594000000E+02  0.51100000000E-03 0.  1.
    9900012    2    1    2    0    0  0.78269076404E+01  0.38602812488E+02 -0.10086032517E+02  0.50528859980E+02  0.30000000396E+02 0.  0.
         12    1    1    2    0    0 -0.78269076404E+01 -0.38602812488E+02  0.10086032517E+02  0.40659140020E+02  0.00000000000E+00 0. -1.
         11    1    3    3    0    0 -0.14274229515E+01 -0.21185188937E+01  0.20629035840E+01  0.32834783453E+01  0.51100000000E-03 0. -1.
        -11    1    3    3    0    0 -0.55752954493E+01  0.14454140579E+02 -0.41961365862E+01  0.16050347714E+02  0.51100000000E-03 0.  1.
        -12    1    3    3    0    0  0.14829626041E+02  0.26267190803E+02 -0.79527995148E+01  0.31195033921E+02  0.00000000000E+00 0.  1.
</event>
<event>
 7    1  0.2432574E-011  0.5052887E+02  0.7816164E-02  0.1300439E+00
        -11   -1    0    0    0    0  0.00000000000E+00  0.00000000000E+00  0.45593999997E+02  0.45594000000E+02  0.51100000000E-03 0. -1.
         11   -1    0    0    0    0 -0.00000000000E+00 -0.00000000000E+00 -0.45593999997E+02  0.45594000000E+02  0.51100000000E-03 0.  1.
    9900012    2    1    2    0    0 -0.76367680598E+01 -0.34322594062E+02 -0.20415790905E+02  0.50528865629E+02  0.30000017566E+02 0.  0.
         12    1    1    2    0    0  0.76367680598E+01  0.34322594062E+02  0.20415790905E+02  0.40659134371E+02  0.00000000000E+00 0. -1.
         11    1    3    3    0    0  0.45660693812E+00 -0.20801153051E+02 -0.19929793855E+01  0.20901397686E+02  0.51100000000E-03 0. -1.
        -11    1    3    3    0    0 -0.79422293904E+01 -0.73166195334E+01 -0.66831251800E+00  0.10819360932E+02  0.51100000000E-03 0.  1.
         12    1    3    3    0    0 -0.15114560743E+00 -0.62048214781E+01 -0.17754499001E+02  0.18808107011E+02  0.00000000000E+00 0. -1.
</event>
<event>
 7    1  0.2432574E-011  0.5052886E+02  0.7816164E-02  0.1300439E+00
        -11   -1    0    0    0    0  0.00000000000E+00  0.00000000000E+00  0.45593999997E+02  0.45594000000E+02  0.51100000000E-03 0.  1.
         11   -1    0    0    0    0 -0.00000000000E+00 -0.00000000000E+00 -0.45593999997E+02  0.45594000000E+02  0.51100000000E-03 0. -1.
    9900012    2    1    2    0    0  0.34621218923E+02 -0.19609505781E+02 -0.83668301868E+01  0.50528863708E+02  0.30000011726E+02 0.  0.
         12    1    1    2    0    0 -0.34621218923E+02  0.19609505781E+02  0.83668301868E+01  0.40659136292E+02  0.00000000000E+00 0. -1.
         11    1    3    3    0    0  0.15459856065E+00 -0.42910604000E+01  0.17170062091E+01  0.46244146283E+01  0.51100000000E-03 0.  1.
        -11    1    3    3    0    0  0.21253382504E+02 -0.71749930443E+01  0.63363610763E+01  0.23309574535E+02  0.51100000000E-03 0. -1.
        -12    1    3    3    0    0  0.13213237857E+02 -0.81434523368E+01 -0.16420197472E+02  0.22594874544E+02  0.00000000000E+00 0.  1.
</event>
<event>
 7    1  0.2432574E-011  0.5052886E+02  0.7816164E-02  0.1300439E+00
        -11   -1    0    0    0    0  0.00000000000E+00  0.00000000000E+00  0.45593999997E+02  0.45594000000E+02  0.51100000000E-03 0. -1.
         11   -1    0    0    0    0 -0.00000000000E+00 -0.00000000000E+00 -0.45593999997E+02  0.45594000000E+02  0.51100000000E-03 0.  1.
    9900012    2    1    2    0    0  0.98928101255E+01  0.39370325104E+02 -0.22968279800E+01  0.50528860686E+02  0.30000002540E+02 0.  0.
         12    1    1    2    0    0 -0.98928101255E+01 -0.39370325104E+02  0.22968279800E+01  0.40659139314E+02  0.00000000000E+00 0. -1.
         11    1    3    3    0    0 -0.48365961088E+01 -0.10950230058E+00  0.20769376827E+01  0.52648193770E+01  0.51100000000E-03 0. -1.
        -11    1    3    3    0    0  0.48863685663E+01  0.35750172990E+01 -0.52653574457E+01  0.80237980873E+01  0.51100000000E-03 0.  1.
         12    1    3    3    0    0  0.98430376680E+01  0.35904810106E+02  0.89159178301E+00  0.37240243221E+02  0.00000000000E+00 0. -1.
</event>
<event>
 7    1  0.2432574E-011  0.5052886E+02  0.7816164E-02  0.1300439E+00
        -11   -1    0    0    0    0  0.00000000000E+00  0.00000000000E+00  0.45593999997E+02  0.45594000000E+02  0.51100000000E-03 0.  1.
         11   -1    0    0    0    0 -0.00000000000E+00 -0.00000000000E+00 -0.45593999997E+02  0.45594000000E+02  0.51100000000E-03 0. -1.
    9900012    2    1    2    0    0 -0.68794188357E+01 -0.54082234229E+01  0.39706297468E+02  0.50528863970E+02  0.30000012523E+02 0.  0.
         12    1    1    2    0    0  0.68794188357E+01  0.54082234229E+01 -0.39706297468E+02  0.40659136030E+02  0.00000000000E+00 0. -1.
         11    1    3    3    0    0  0.21801543270E+01  0.37385299848E+01 -0.25039173724E+01  0.49999281800E+01  0.51100000000E-03 0. -1.
        -11    1    3    3    0    0  0.22827503648E+01 -0.17777448898E+01  0.36031616924E+01  0.46210497253E+01  0.51100000000E-03 0.  1.
         12    1    3    3    0    0 -0.11342323528E+02 -0.73690085178E+01  0.38607053148E+02  0.40907886065E+02  0.00000000000E+00 0. -1.
</event>
<event>
 7    1  0.2432574E-011  0.5052886E+02  0.7816164E-02  0.1300439E+00
        -11   -1    0    0    0    0  0.00000000000E+00  0.00000000000E+00  0.45593999997E+02  0.45594000000E+02  0.51100000000E-03 0.  1.
         11   -1    0    0    0    0 -0.00000000000E+00 -0.00000000000E+00 -0.45593999997E+02  0.45594000000E+02  0.51100000000E-03 0. -1.
    9900012    2    1    2    0    0  0.33109360588E+02  0.14720253998E+02  0.18445869705E+02  0.50528859016E+02  0.29999997466E+02 0.  0.
         12    1    1    2    0    0 -0.33109360588E+02 -0.14720253998E+02 -0.18445869705E+02  0.40659140984E+02  0.00000000000E+00 0. -1.
         11    1    3    3    0    0  0.14038141001E+01  0.72335539436E+00  0.14189045926E+01  0.21230232119E+01  0.51100000000E-03 0. -1.
        -11    1    3    3    0    0  0.15823337525E+02  0.49279564558E+01  0.23715175076E+02  0.28932201687E+02  0.51100000000E-03 0.  1.
         12    1    3    3    0    0  0.15882208963E+02  0.90689421483E+01 -0.66882099641E+01  0.19473634118E+02  0.00000000000E+00 0. -1.
</event>
<event>
 7    1  0.2432574E-011  0.5052887E+02  0.7816164E-02  0.1300439E+00
        -11   -1    0    0    0    0  0.00000000000E+00  0.00000000000E+00  0.45593999997E+02  0.45594000000E+02  0.51100000000E-03 0.  1.
         11   -1    0    0    0    0 -0.00000000000E+00 -0.00000000000E+00 -0.45593999997E+02  0.45594000000E+02  0.51100000000E-03 0. -1.
    9900012    2    1    2    0    0  0.70829717417E+01 -0.16205062204E+02  0.36611371455E+02  0.50528867575E+02  0.30000023480E+02 0.  0.
         12    1    1    2    0    0 -0.70829717417E+01  0.16205062204E+02 -0.36611371455E+02  0.40659132425E+02  0.00000000000E+00 0. -1.
         11    1    3    3    0    0  0.11756504983E+02 -0.18919888663E+02  0.38115550436E+02  0.44147171843E+02  0.51100000000E-03 0.  1.
        -11    1    3    3    0    0 -0.16093427320E+01 -0.56714408419E+00 -0.53472930886E+00  0.17881756447E+01  0.51100000000E-03 0. -1.
        -12    1    3    3    0    0 -0.30641905095E+01  0.32819705429E+01 -0.96944967203E+00  0.45935200870E+01  0.00000000000E+00 0.  1.
</event>
<event>
 7    1  0.2432574E-011  0.5052886E+02  0.7816164E-02  0.1300439E+00
        -11   -1    0    0    0    0  0.00000000000E+00  0.00000000000E+00  0.45593999997E+02  0.45594000000E+02  0.51100000000E-03 0.  1.
         11   -1    0    0    0    0 -0.00000000000E+00 -0.00000000000E+00 -0.45593999997E+02  0.45594000000E+02  0.51100000000E-03 0. -1.
    9900012    2    1    2    0    0  0.18547116757E+02 -0.16688261336E+01  0.36143950657E+02  0.50528859702E+02  0.29999999551E+02 0.  0.
         12    1    1    2    0    0 -0.18547116757E+02  0.16688261336E+01 -0.36143950657E+02  0.40659140298E+02  0.00000000000E+00 0. -1.
         11    1    3    3    0    0  0.12292416236E+01  0.50822942226E+01  0.98534152709E-01  0.52297666081E+01  0.51100000000E-03 0. -1.
        -11    1    3    3    0    0  0.79997929157E+01  0.70438240175E+01  0.11958548194E+02  0.16019332653E+02  0.51100000000E-03 0.  1.
        -12    1    3    3    0    0  0.93180822172E+01 -0.13794944374E+02  0.24086868311E+02  0.29279760441E+02  0.00000000000E+00 0.  1.
</event>
<event>
 7    1  0.2432574E-011  0.5052887E+02  0.7816164E-02  0.1300439E+00
        -11   -1    0    0    0    0  0.00000000000E+00  0.00000000000E+00  0.45593999997E+02  0.45594000000E+02  0.51100000000E-03 0.  1.
         11   -1    0    0    0    0 -0.00000000000E+00 -0.00000000000E+00 -0.45593999997E+02  0.45594000000E+02  0.51100000000E-03 0. -1.
    9900012    2    1    2    0    0 -0.16877410752E+02 -0.10794742412E+02  0.35380658888E+02  0.50528874570E+02  0.30000044742E+02 0.  0.
         12    1    1    2    0    0  0.16877410752E+02  0.10794742412E+02 -0.35380658888E+02  0.40659125430E+02  0.00000000000E+00 0. -1.
         11    1    3    3    0    0 -0.21209544857E+01 -0.12622812943E+02  0.81135940358E+01  0.15154677924E+02  0.51100000000E-03 0. -1.
        -11    1    3    3    0    0 -0.14620872527E+02 -0.51623647518E+01  0.17823676762E+02  0.23624211667E+02  0.51100000000E-03 0.  1.
         12    1    3    3    0    0 -0.13558373873E+00  0.69904352833E+01  0.94433880901E+01  0.11749984980E+02  0.00000000000E+00 0. -1.
</event>
<event>
 7    1  0.2432574E-011  0.5052883E+02  0.7816164E-02  0.1300439E+00
        -11   -1    0    0    0    0  0.00000000000E+00  0.00000000000E+00  0.45593999997E+02  0.45594000000E+02  0.51100000000E-03 0. -1.
         11   -1    0    0    0    0 -0.00000000000E+00 -0.00000000000E+00 -0.45593999997E+02  0.45594000000E+02  0.51100000000E-03 0.  1.
    9900012    2    1    2    0    0 -0.14374366162E+02 -0.33412088392E+02 -0.18170793963E+02  0.50528833671E+02  0.29999920427E+02 0.  0.
         12    1    1    2    0    0  0.14374366162E+02  0.33412088392E+02  0.18170793963E+02  0.40659166329E+02  0.00000000000E+00 0. -1.
         11    1    3    3    0    0 -0.48197310466E+01  0.28545799446E+01 -0.32166504918E+01  0.64595104048E+01  0.51100000000E-03 0. -1.
        -11    1    3    3    0    0 -0.41898524649E+00 -0.18207519626E+02 -0.15363153947E+02  0.23826787845E+02  0.51100000000E-03 0.  1.
        -12    1    3    3    0    0 -0.91356498694E+01 -0.18059148711E+02  0.40901047577E+00  0.20242535421E+02  0.00000000000E+00 0.  1.
</event>
<event>
 7    1  0.2432574E-011  0.5052886E+02  0.7816164E-02  0.1300439E+00
        -11   -1    0    0    0    0  0.00000000000E+00  0.00000000000E+00  0.45593999997E+02  0.45594000000E+02  0.51100000000E-03 0.  1.
         11   -1    0    0    0    0 -0.00000000000E+00 -0.00000000000E+00 -0.45593999997E+02  0.45594000000E+02  0.51100000000E-03 0. -1.
    9900012    2    1    2    0    0 -0.75946557186E+01 -0.38248385450E+02  0.11512937761E+02  0.50528861779E+02  0.30000005864E+02 0.  0.
         12    1    1    2    0    0  0.75946557186E+01  0.38248385450E+02 -0.11512937761E+02  0.40659138221E+02  0.00000000000E+00 0. -1.
         11    1    3    3    0    0 -0.90027558646E+01 -0.12583222689E+02  0.54291973789E+01  0.16397051285E+02  0.51100000000E-03 0. -1.
        -11    1    3    3    0    0  0.31616416778E+01 -0.64403821152E+01  0.11965023658E+02  0.13951211104E+02  0.51100000000E-03 0.  1.
         12    1    3    3    0    0 -0.17535415318E+01 -0.19224780646E+02 -0.58812832759E+01  0.20180599390E+02  0.00000000000E+00 0. -1.
</event>
<event>
 7    1  0.2432574E-011  0.5052887E+02  0.7816164E-02  0.1300439E+00
        -11   -1    0    0    0    0  0.00000000000E+00  0.00000000000E+00  0.45593999997E+02  0.45594000000E+02  0.51100000000E-03 0. -1.
         11   -1    0    0    0    0 -0.00000000000E+00 -0.00000000000E+00 -0.45593999997E+02  0.45594000000E+02  0.51100000000E-03 0.  1.
    9900012    2    1    2    0    0  0.32235534897E+02 -0.11649199948E+02 -0.21870789491E+02  0.50528868154E+02  0.30000025241E+02 0.  0.
         12    1    1    2    0    0 -0.32235534897E+02  0.11649199948E+02  0.21870789491E+02  0.40659131846E+02  0.00000000000E+00 0. -1.
         11    1    3    3    0    0  0.26955710475E+01 -0.60595202128E+01  0.52073677579E+01  0.84321152571E+01  0.51100000000E-03 0. -1.
        -11    1    3    3    0    0  0.84754145744E+01 -0.13785530182E+01 -0.15372578945E+01  0.87233148932E+01  0.51100000000E-03 0.  1.
        -12    1    3    3    0    0  0.21064549275E+02 -0.42111267166E+01 -0.25540899354E+02  0.33373438004E+02  0.00000000000E+00 0.  1.
</event>
<event>
 7    1  0.2432574E-011  0.5052887E+02  0.7816164E-02  0.1300439E+00
        -11   -1    0    0    0    0  0.00000000000E+00  0.00000000000E+00  0.45593999997E+02  0.45594000000E+02  0.51100000000E-03 0. -1.
         11   -1    0    0    0    0 -0.00000000000E+00 -0.00000000000E+00 -0.45593999997E+02  0.45594000000E+02  0.51100000000E-03 0.  1.
    9900012    2    1    2    0    0 -0.37382279877E+02  0.15797869443E+02  0.24813162021E+01  0.50528874852E+02  0.30000045600E+02 0.  0.
         12    1    1    2    0    0  0.37382279877E+02 -0.15797869443E+02 -0.24813162021E+01  0.40659125148E+02  0.00000000000E+00 0. -1.
         11    1    3    3    0    0 -0.17754474467E+02  0.35479520284E+01  0.81991791926E+01  0.19875509223E+02  0.51100000000E-03 0. -1.
        -11    1    3    3    0    0 -0.18479474230E+02  0.16670262469E+01 -0.72063150671E+01  0.19904796443E+02  0.51100000000E-03 0.  1.
         12    1    3    3    0    0 -0.11483311799E+01  0.10582891168E+02  0.14884520766E+01  0.10748569186E+02  0.00000000000E+00 0. -1.
</event>
<event>
 7    1  0.2432574E-011  0.5052889E+02  0.7816164E-02  0.1300439E+00
        -11   -1    0    0    0    0  0.00000000000E+00  0.00000000000E+00  0.45593999997E+02  0.45594000000E+02  0.51100000000E-03 0. -1.
         11   -1    0    0    0    0 -0.00000000000E+00 -0.00000000000E+00 -0.45593999997E+02  0.45594000000E+02  0.51100000000E-03 0.  1.
    9900012    2    1    2    0    0  0.26496765538E+02 -0.19500607895E+02 -0.23891656863E+02  0.50528885894E+02  0.30000079162E+02 0.  0.
         12    1    1    2    0    0 -0.26496765538E+02  0.19500607895E+02  0.23891656863E+02  0.40659114106E+02  0.00000000000E+00 0. -1.
         11    1    3    3    0    0 -0.11704296005E+01 -0.18474540124E+00  0.42968360145E+01  0.44572229370E+01  0.51100000000E-03 0. -1.
        -11    1    3    3    0    0  0.16096726436E+02 -0.29478342391E+01 -0.11700677474E+02  0.20117161387E+02  0.51100000000E-03 0.  1.
        -12    1    3    3    0    0  0.11570468702E+02 -0.16368028255E+02 -0.16487815404E+02  0.25954501569E+02  0.00000000000E+00 0.  1.
</event>
<event>
 7    1  0.2432574E-011  0.5052886E+02  0.7816164E-02  0.1300439E+00
        -11   -1    0    0    0    0  0.00000000000E+00  0.00000000000E+00  0.45593999997E+02  0.45594000000E+02  0.51100000000E-03 0. -1.
         11   -1    0    0    0    0 -0.00000000000E+00 -0.00000000000E+00 -0.45593999997E+02  0.45594000000E+02  0.51100000000E-03 0.  1.
    9900012    2    1    2    0    0  0.27768351777E+02 -0.29699556123E+02  0.14352868627E+00  0.50528860870E+02  0.30000003101E+02 0.  0.
         12    1    1    2    0    0 -0.27768351777E+02  0.29699556123E+02 -0.14352868627E+00  0.40659139130E+02  0.00000000000E+00 0. -1.
         11    1    3    3    0    0  0.70167480419E+01 -0.83931223888E+01  0.46918363681E+01  0.11903469464E+02  0.51100000000E-03 0. -1.
        -11    1    3    3    0    0  0.21372915680E+02 -0.54437177909E+01  0.19797524475E+00  0.22056173342E+02  0.51100000000E-03 0.  1.
        -12    1    3    3    0    0 -0.62131194461E+00 -0.15862715943E+02 -0.47462829265E+01  0.16569218064E+02  0.00000000000E+00 0.  1.
</event>
<event>
 7    1  0.2432574E-011  0.5052887E+02  0.7816164E-02  0.1300439E+00
        -11   -1    0    0    0    0  0.00000000000E+00  0.00000000000E+00  0.45593999997E+02  0.45594000000E+02  0.51100000000E-03 0.  1.
         11   -1    0    0    0    0 -0.00000000000E+00 -0.00000000000E+00 -0.45593999997E+02  0.45594000000E+02  0.51100000000E-03 0. -1.
    9900012    2    1    2    0    0  0.78828838705E+01  0.13008612674E+02  0.37706780081E+02  0.50528866636E+02  0.30000020626E+02 0.  0.
         12    1    1    2    0    0 -0.78828838705E+01 -0.13008612674E+02 -0.37706780081E+02  0.40659133364E+02  0.00000000000E+00 0. -1.
         11    1    3    3    0    0  0.14408639391E+01  0.76503064320E+01 -0.30171126758E+01  0.83490266831E+01  0.51100000000E-03 0. -1.
        -11    1    3    3    0    0 -0.86704254564E-02 -0.10008288594E+01  0.12455208054E+02  0.12495356798E+02  0.51100000000E-03 0.  1.
        -12    1    3    3    0    0  0.64506903569E+01  0.63591351011E+01  0.28268684703E+02  0.29684483155E+02  0.00000000000E+00 0.  1.
</event>
<event>
 7    1  0.2432574E-011  0.5052884E+02  0.7816164E-02  0.1300439E+00
        -11   -1    0    0    0    0  0.00000000000E+00  0.00000000000E+00  0.45593999997E+02  0.45594000000E+02  0.51100000000E-03 0.  1.
         11   -1    0    0    0    0 -0.00000000000E+00 -0.00000000000E+00 -0.45593999997E+02  0.45594000000E+02  0.51100000000E-03 0. -1.
    9900012    2    1    2    0    0 -0.12903138024E+02  0.32667447061E+02  0.20482043973E+02  0.50528841208E+02  0.29999943336E+02 0.  0.
         12    1    1    2    0    0  0.12903138024E+02 -0.32667447061E+02 -0.20482043973E+02  0.40659158792E+02  0.00000000000E+00 0. -1.
         11    1    3    3    0    0 -0.12563608439E+02  0.11101464762E+02  0.20847312018E+02  0.26752517555E+02  0.51100000000E-03 0. -1.
        -11    1    3    3    0    0  0.22745095008E+01  0.76949535651E+01  0.40479508794E+01  0.89873027334E+01  0.51100000000E-03 0.  1.
         12    1    3    3    0    0 -0.26140390859E+01  0.13871028734E+02 -0.44132189250E+01  0.14789020919E+02  0.00000000000E+00 0. -1.
</event>
<event>
 7    1  0.2432574E-011  0.5052886E+02  0.7816164E-02  0.1300439E+00
        -11   -1    0    0    0    0  0.00000000000E+00  0.00000000000E+00  0.45593999997E+02  0.45594000000E+02  0.51100000000E-03 0. -1.
         11   -1    0    0    0    0 -0.00000000000E+00 -0.00000000000E+00 -0.45593999997E+02  0.45594000000E+02  0.51100000000E-03 0.  1.
    9900012    2    1    2    0    0  0.15107319304E+02  0.37742785729E+02  0.64542731955E+00  0.50528861451E+02  0.30000004867E+02 0.  0.
         12    1    1    2    0    0 -0.15107319304E+02 -0.37742785729E+02 -0.64542731955E+00  0.40659138549E+02  0.00000000000E+00 0. -1.
         11    1    3    3    0    0  0.10435359761E+02  0.57127162561E+01  0.21126566732E+01  0.12082846471E+02  0.51100000000E-03 0. -1.
        -11    1    3    3    0    0 -0.54698482470E+01  0.65534624231E+01  0.54987603039E+01  0.10153988119E+02  0.51100000000E-03 0.  1.
         12    1    3    3    0    0  0.10141807790E+02  0.25476607050E+02 -0.69659896575E+01  0.28292026861E+02  0.00000000000E+00 0. -1.
</event>
<event>
 7    1  0.2432574E-011  0.5052887E+02  0.7816164E-02  0.1300439E+00
        -11   -1    0    0    0    0  0.00000000000E+00  0.00000000000E+00  0.45593999997E+02  0.45594000000E+02  0.51100000000E-03 0.  1.
         11   -1    0    0    0    0 -0.00000000000E+00 -0.00000000000E+00 -0.45593999997E+02  0.45594000000E+02  0.51100000000E-03 0. -1.
    9900012    2    1    2    0    0  0.91971133643E+00 -0.31033678110E+02  0.26253188317E+02  0.50528868888E+02  0.30000027473E+02 0.  0.
         12    1    1    2    0    0 -0.91971133643E+00  0.31033678110E+02 -0.26253188317E+02  0.40659131112E+02  0.00000000000E+00 0. -1.
         11    1    3    3    0    0  0.41436652560E+01 -0.32326482231E+02  0.17521160732E+02  0.37002195730E+02  0.51100000000E-03 0. -1.
        -11    1    3    3    0    0 -0.10083070206E+01 -0.42374334581E+01  0.33031288117E+01  0.54665515243E+01  0.51100000000E-03 0.  1.
        -12    1    3    3    0    0 -0.22156468990E+01  0.55302375797E+01  0.54288987726E+01  0.80601216338E+01  0.00000000000E+00 0.  1.
</event>
<event>
 7    1  0.2432574E-011  0.5052883E+02  0.7816164E-02  0.1300439E+00
        -11   -1    0    0    0    0  0.00000000000E+00  0.00000000000E+00  0.45593999997E+02  0.45594000000E+02  0.51100000000E-03 0.  1.
         11   -1    0    0    0    0 -0.00000000000E+00 -0.00000000000E+00 -0.45593999997E+02  0.45594000000E+02  0.51100000000E-03 0. -1.
    9900012    2    1    2    0    0 -0.24898954668E+01 -0.54626339069E+01  0.40213527570E+02  0.50528834388E+02  0.29999922606E+02 0.  0.
         12    1    1    2    0    0  0.24898954668E+01  0.54626339069E+01 -0.40213527570E+02  0.40659165612E+02  0.00000000000E+00 0. -1.
         11    1    3    3    0    0 -0.87984309333E+01 -0.42992054719E+01  0.93881915906E+01  0.13565901967E+02  0.51100000000E-03 0. -1.
        -11    1    3    3    0    0  0.91156070209E+00 -0.26042169013E+01 -0.21624249796E+01  0.35055628130E+01  0.51100000000E-03 0.  1.
        -12    1    3    3    0    0  0.53969747644E+01  0.14407884663E+01  0.32987760959E+02  0.33457369608E+02  0.00000000000E+00 0.  1.
</event>
<event>
 7    1  0.2432574E-011  0.5052882E+02  0.7816164E-02  0.1300439E+00
        -11   -1    0    0    0    0  0.00000000000E+00  0.00000000000E+00  0.45593999997E+02  0.45594000000E+02  0.51100000000E-03 0. -1.
         11   -1    0    0    0    0 -0.00000000000E+00 -0.00000000000E+00 -0.45593999997E+02  0.45594000000E+02  0.51100000000E-03 0.  1.
    9900012    2    1    2    0    0 -0.34352503610E+01 -0.37348665668E+02 -0.15698579819E+02  0.50528816775E+02  0.29999869068E+02 0.  0.
         12    1    1    2    0    0  0.34352503610E+01  0.37348665668E+02  0.15698579819E+02  0.40659183225E+02  0.00000000000E+00 0. -1.
         11    1    3    3    0    0  0.26503807176E-01  0.31624807735E+01 -0.72190981690E+01  0.78814570816E+01  0.51100000000E-03 0. -1.
        -11    1    3    3    0    0  0.28029586116E+01 -0.80450943806E+01 -0.34966817747E+01  0.92090664166E+01  0.51100000000E-03 0.  1.
         12    1    3    3    0    0 -0.62647127798E+01 -0.32466052061E+02 -0.49827998751E+01  0.33438293276E+02  0.00000000000E+00 0. -1.
</event>
<event>
 7    1  0.2432574E-011  0.5052886E+02  0.7816164E-02  0.1300439E+00
        -11   -1    0    0    0    0  0.00000000000E+00  0.00000000000E+00  0.45593999997E+02  0.45594000000E+02  0.51100000000E-03 0.  1.
         11   -1    0    0    0    0 -0.00000000000E+00 -0.00000000000E+00 -0.45593999997E+02  0.45594000000E+02  0.51100000000E-03 0. -1.
    9900012    2    1    2    0    0  0.12421425081E+02  0.36671185645E+02  0.12413627961E+02  0.50528858139E+02  0.29999994800E+02 0.  0.
         12    1    1    2    0    0 -0.12421425081E+02 -0.36671185645E+02 -0.12413627961E+02  0.40659141861E+02  0.00000000000E+00 0. -1.
         11    1    3    3    0    0  0.98811766579E+01  0.22111672026E+01 -0.50067272241E+01  0.11295761608E+02  0.51100000000E-03 0. -1.
        -11    1    3    3    0    0  0.22672799449E+00  0.42704659304E+01  0.48039185394E+01  0.64316341967E+01  0.51100000000E-03 0.  1.
        -12    1    3    3    0    0  0.23135204290E+01  0.30189552512E+02  0.12616436646E+02  0.32801462335E+02  0.00000000000E+00 0.  1.
</event>
<event>
 7    1  0.2432574E-011  0.5052886E+02  0.7816164E-02  0.1300439E+00
        -11   -1    0    0    0    0  0.00000000000E+00  0.00000000000E+00  0.45593999997E+02  0.45594000000E+02  0.51100000000E-03 0.  1.
         11   -1    0    0    0    0 -0.00000000000E+00 -0.00000000000E+00 -0.45593999997E+02  0.45594000000E+02  0.51100000000E-03 0. -1.
    9900012    2    1    2    0    0  0.31378615370E+02  0.12306894096E+02  0.22739576445E+02  0.50528862260E+02  0.30000007326E+02 0.  0.
         12    1    1    2    0    0 -0.31378615370E+02 -0.12306894096E+02 -0.22739576445E+02  0.40659137740E+02  0.00000000000E+00 0. -1.
         11    1    3    3    0    0  0.69288318056E+01  0.17474946340E+01  0.14322799175E+01  0.72879265714E+01  0.51100000000E-03 0.  1.
        -11    1    3    3    0    0 -0.31065297946E+01 -0.10670472919E+01 -0.31911679528E+01  0.45795928260E+01  0.51100000000E-03 0. -1.
        -12    1    3    3    0    0  0.27556313359E+02  0.11626446753E+02  0.24498464481E+02  0.38661342863E+02  0.00000000000E+00 0.  1.
</event>
<event>
 7    1  0.2432574E-011  0.5052887E+02  0.7816164E-02  0.1300439E+00
        -11   -1    0    0    0    0  0.00000000000E+00  0.00000000000E+00  0.45593999997E+02  0.45594000000E+02  0.51100000000E-03 0. -1.
         11   -1    0    0    0    0 -0.00000000000E+00 -0.00000000000E+00 -0.45593999997E+02  0.45594000000E+02  0.51100000000E-03 0.  1.
    9900012    2    1    2    0    0 -0.25852270345E+02  0.29630267178E+02 -0.10337921799E+02  0.50528865206E+02  0.30000016282E+02 0.  0.
         12    1    1    2    0    0  0.25852270345E+02 -0.29630267178E+02  0.10337921799E+02  0.40659134794E+02  0.00000000000E+00 0. -1.
         11    1    3    3    0    0 -0.11209444821E+02 -0.69285107003E+00 -0.46023223769E-01  0.11230931137E+02  0.51100000000E-03 0. -1.
        -11    1    3    3    0    0 -0.58563827127E+00  0.10479551768E+02 -0.10683445578E+02  0.14976648060E+02  0.51100000000E-03 0.  1.
        -12    1    3    3    0    0 -0.14057187253E+02  0.19843566480E+02  0.39154700258E+00  0.24321286010E+02  0.00000000000E+00 0.  1.
</event>
<event>
 7    1  0.2432574E-011  0.5052886E+02  0.7816164E-02  0.1300439E+00
        -11   -1    0    0    0    0  0.00000000000E+00  0.00000000000E+00  0.45593999997E+02  0.45594000000E+02  0.51100000000E-03 0.  1.
         11   -1    0    0    0    0 -0.00000000000E+00 -0.00000000000E+00 -0.45593999997E+02  0.45594000000E+02  0.51100000000E-03 0. -1.
    9900012    2    1    2    0    0  0.19055204947E+02 -0.35398106318E+02 -0.60859540364E+01  0.50528860769E+02  0.30000002794E+02 0.  0.
         12    1    1    2    0    0 -0.19055204947E+02  0.35398106318E+02  0.60859540364E+01  0.40659139231E+02  0.00000000000E+00 0. -1.
         11    1    3    3    0    0  0.11774324749E+02 -0.16471629367E+02 -0.77196647318E+01  0.21668929857E+02  0.51100000000E-03 0. -1.
        -11    1    3    3    0    0  0.35635452398E+01 -0.22857108942E+02 -0.24041865586E+00  0.23134478279E+02  0.51100000000E-03 0.  1.
         12    1    3    3    0    0  0.37173349574E+01  0.39306319905E+01  0.18741293513E+01  0.57254526333E+01  0.00000000000E+00 0. -1.
</event>
<event>
 7    1  0.2432574E-011  0.5052888E+02  0.7816164E-02  0.1300439E+00
        -11   -1    0    0    0    0  0.00000000000E+00  0.00000000000E+00  0.45593999997E+02  0.45594000000E+02  0.51100000000E-03 0. -1.
         11   -1    0    0    0    0 -0.00000000000E+00 -0.00000000000E+00 -0.45593999997E+02  0.45594000000E+02  0.51100000000E-03 0.  1.
    9900012    2    1    2    0    0  0.13157980158E+02  0.23244539570E+02 -0.30654896309E+02  0.50528883810E+02  0.30000072827E+02 0.  0.
         12    1    1    2    0    0 -0.13157980158E+02 -0.23244539570E+02  0.30654896309E+02  0.40659116190E+02  0.00000000000E+00 0. -1.
         11    1    3    3    0    0  0.48001853469E+01  0.53244059590E+01 -0.16209850475E+02  0.17724286470E+02  0.51100000000E-03 0.  1.
        -11    1    3    3    0    0 -0.16150463710E+01  0.43422093469E+01 -0.15250307333E+02  0.15938476427E+02  0.51100000000E-03 0. -1.
        -12    1    3    3    0    0  0.99728411820E+01  0.13577924265E+02  0.80526149892E+00  0.16866120913E+02  0.00000000000E+00 0.  1.
</event>
<event>
 7    1  0.2432574E-011  0.5052886E+02  0.7816164E-02  0.1300439E+00
        -11   -1    0    0    0    0  0.00000000000E+00  0.00000000000E+00  0.45593999997E+02  0.45594000000E+02  0.51100000000E-03 0.  1.
         11   -1    0    0    0    0 -0.00000000000E+00 -0.00000000000E+00 -0.45593999997E+02  0.45594000000E+02  0.51100000000E-03 0. -1.
    9900012    2    1    2    0    0  0.40603082646E+02 -0.15397190531E+01 -0.14781342156E+01  0.50528856675E+02  0.29999990351E+02 0.  0.
         12    1    1    2    0    0 -0.40603082646E+02  0.15397190531E+01  0.14781342156E+01  0.40659143325E+02  0.00000000000E+00 0. -1.
         11    1    3    3    0    0  0.11618815054E+02 -0.12645137072E+02 -0.33576573599E+00  0.17175828764E+02  0.51100000000E-03 0. -1.
        -11    1    3    3    0    0  0.59786689701E+01  0.56596608384E+01 -0.46465284328E+01  0.94533840606E+01  0.51100000000E-03 0.  1.
        -12    1    3    3    0    0  0.23005598622E+02  0.54457571806E+01  0.35041599532E+01  0.23899643851E+02  0.00000000000E+00 0.  1.
</event>
<event>
 7    1  0.2547802E-011  0.5052886E+02  0.7816164E-02  0.1300439E+00
        -11   -1    0    0    0    0  0.00000000000E+00  0.00000000000E+00  0.45593999997E+02  0.45594000000E+02  0.51100000000E-03 0.  1.
         11   -1    0    0    0    0 -0.00000000000E+00 -0.00000000000E+00 -0.45593999997E+02  0.45594000000E+02  0.51100000000E-03 0. -1.
    9900012    2    1    2    0    0  0.20266365945E+02 -0.34645788214E+02  0.64891880657E+01  0.50528858453E+02  0.29999995754E+02 0.  0.
         12    1    1    2    0    0 -0.20266365945E+02  0.34645788214E+02 -0.64891880657E+01  0.40659141547E+02  0.00000000000E+00 0. -1.
         11    1    3    3    0    0 -0.82577002542E+00  0.20380076765E+01 -0.13790802828E+01  0.25956182523E+01  0.51100000000E-03 0. -1.
        -11    1    3    3    0    0  0.36096318741E+01 -0.14923219577E+02 -0.63408227812E+01  0.16611380395E+02  0.51100000000E-03 0.  1.
        -12    1    3    3    0    0  0.17482504097E+02 -0.21760576313E+02  0.14209091130E+02  0.31321859806E+02  0.00000000000E+00 0.  1.
</event>
<event>
 7    1  0.2432574E-011  0.5052885E+02  0.7816164E-02  0.1300439E+00
        -11   -1    0    0    0    0  0.00000000000E+00  0.00000000000E+00  0.45593999997E+02  0.45594000000E+02  0.51100000000E-03 0.  1.
         11   -1    0    0    0    0 -0.00000000000E+00 -0.00000000000E+00 -0.45593999997E+02  0.45594000000E+02  0.51100000000E-03 0. -1.
    9900012    2    1    2    0    0  0.24739614060E+02  0.78549828831E+01  0.31295636973E+02  0.50528853999E+02  0.29999982217E+02 0.  0.
         12    1    1    2    0    0 -0.24739614060E+02 -0.78549828831E+01 -0.31295636973E+02  0.40659146001E+02  0.00000000000E+00 0. -1.
         11    1    3    3    0    0  0.32466119001E+01  0.69532568866E+01  0.12899416812E+02  0.15009437848E+02  0.51100000000E-03 0. -1.
        -11    1    3    3    0    0  0.20892039757E+02  0.35555802209E+01  0.22298135225E+02  0.30762417179E+02  0.51100000000E-03 0.  1.
         12    1    3    3    0    0  0.60096240221E+00 -0.26538542244E+01 -0.39019150640E+01  0.47569989720E+01  0.00000000000E+00 0. -1.
</event>
<event>
 7    1  0.2432574E-011  0.5052885E+02  0.7816164E-02  0.1300439E+00
        -11   -1    0    0    0    0  0.00000000000E+00  0.00000000000E+00  0.45593999997E+02  0.45594000000E+02  0.51100000000E-03 0.  1.
         11   -1    0    0    0    0 -0.00000000000E+00 -0.00000000000E+00 -0.45593999997E+02  0.45594000000E+02  0.51100000000E-03 0. -1.
    9900012    2    1    2    0    0 -0.37166182952E+00 -0.36844932395E+02  0.17189519741E+02  0.50528846484E+02  0.29999959371E+02 0.  0.
         12    1    1    2    0    0  0.37166182952E+00  0.36844932395E+02 -0.17189519741E+02  0.40659153516E+02  0.00000000000E+00 0. -1.
         11    1    3    3    0    0  0.10654068183E+01 -0.15739297639E+02  0.86483735550E+01  0.17990412649E+02  0.51100000000E-03 0.  1.
        -11    1    3    3    0    0 -0.17741506512E+00 -0.21462605674E+02  0.14847028492E+02  0.26098068391E+02  0.51100000000E-03 0. -1.
         12    1    3    3    0    0 -0.12596535827E+01  0.35697091811E+00 -0.63058823064E+01  0.64403654436E+01  0.00000000000E+00 0. -1.
</event>
<event>
 7    1  0.2432574E-011  0.5052886E+02  0.7816164E-02  0.1300439E+00
        -11   -1    0    0    0    0  0.00000000000E+00  0.00000000000E+00  0.45593999997E+02  0.45594000000E+02  0.51100000000E-03 0.  1.
         11   -1    0    0    0    0 -0.00000000000E+00 -0.00000000000E+00 -0.45593999997E+02  0.45594000000E+02  0.51100000000E-03 0. -1.
    9900012    2    1    2    0    0 -0.10827767774E+02  0.50121452246E+01  0.38869053115E+02  0.50528862715E+02  0.30000008708E+02 0.  0.
         12    1    1    2    0    0  0.10827767774E+02 -0.50121452246E+01 -0.38869053115E+02  0.40659137285E+02  0.00000000000E+00 0. -1.
         11    1    3    3    0    0 -0.10465650882E+02  0.13028374673E+01  0.14858255705E+02  0.18220729862E+02  0.51100000000E-03 0. -1.
        -11    1    3    3    0    0 -0.63212971649E+00 -0.89078231107E+01  0.11212991068E+02  0.14334576014E+02  0.51100000000E-03 0.  1.
         12    1    3    3    0    0  0.27001282417E+00  0.12617130868E+02  0.12797806342E+02  0.17973556839E+02  0.00000000000E+00 0. -1.
</event>
<event>
 7    1  0.2432574E-011  0.5052884E+02  0.7816164E-02  0.1300439E+00
        -11   -1    0    0    0    0  0.00000000000E+00  0.00000000000E+00  0.45593999997E+02  0.45594000000E+02  0.51100000000E-03 0.  1.
         11   -1    0    0    0    0 -0.00000000000E+00 -0.00000000000E+00 -0.45593999997E+02  0.45594000000E+02  0.51100000000E-03 0. -1.
    9900012    2    1    2    0    0  0.25256200234E+02 -0.40837219048E+01  0.31600862113E+02  0.50528844560E+02  0.29999953523E+02 0.  0.
         12    1    1    2    0    0 -0.25256200234E+02  0.40837219048E+01 -0.31600862113E+02  0.40659155440E+02  0.00000000000E+00 0. -1.
         11    1    3    3    0    0  0.14469762906E+02  0.82739720583E+01  0.14770918012E+02  0.22271341929E+02  0.51100000000E-03 0. -1.
        -11    1    3    3    0    0  0.12705640930E+02 -0.45608700000E+01  0.59928701146E+01  0.14769879453E+02  0.51100000000E-03 0.  1.
         12    1    3    3    0    0 -0.19192036012E+01 -0.77968239631E+01  0.10837073987E+02  0.13487623177E+02  0.00000000000E+00 0. -1.
</event>
<event>
 7    1  0.2432574E-011  0.5052886E+02  0.7816164E-02  0.1300439E+00
        -11   -1    0    0    0    0  0.00000000000E+00  0.00000000000E+00  0.45593999997E+02  0.45594000000E+02  0.51100000000E-03 0.  1.
         11   -1    0    0    0    0 -0.00000000000E+00 -0.00000000000E+00 -0.45593999997E+02  0.45594000000E+02  0.51100000000E-03 0. -1.
    9900012    2    1    2    0    0 -0.32051788484E+02  0.23458920789E+02 -0.86906761257E+01  0.50528856365E+02  0.29999989406E+02 0.  0.
         12    1    1    2    0    0  0.32051788484E+02 -0.23458920789E+02  0.86906761257E+01  0.40659143635E+02  0.00000000000E+00 0. -1.
         11    1    3    3    0    0 -0.11663405667E+02  0.52078394369E+01 -0.42727171171E+01  0.13468954494E+02  0.51100000000E-03 0. -1.
        -11    1    3    3    0    0 -0.57758131436E+00  0.16280945818E+02  0.13099468397E+01  0.16343768166E+02  0.51100000000E-03 0.  1.
         12    1    3    3    0    0 -0.19810801504E+02  0.19701355348E+01 -0.57279058483E+01  0.20716133704E+02  0.00000000000E+00 0. -1.
</event>
<event>
 7    1  0.2432574E-011  0.5052886E+02  0.7816164E-02  0.1300439E+00
        -11   -1    0    0    0    0  0.00000000000E+00  0.00000000000E+00  0.45593999997E+02  0.45594000000E+02  0.51100000000E-03 0.  1.
         11   -1    0    0    0    0 -0.00000000000E+00 -0.00000000000E+00 -0.45593999997E+02  0.45594000000E+02  0.51100000000E-03 0. -1.
    9900012    2    1    2    0    0 -0.11124391273E+02  0.14244286203E+02  0.36421335043E+02  0.50528863057E+02  0.30000009749E+02 0.  0.
         12    1    1    2    0    0  0.11124391273E+02 -0.14244286203E+02 -0.36421335043E+02  0.40659136943E+02  0.00000000000E+00 0. -1.
         11    1    3    3    0    0  0.17406577599E+01  0.27954581646E+00 -0.39646191205E+01  0.43389215633E+01  0.51100000000E-03 0. -1.
        -11    1    3    3    0    0 -0.16041168232E+01 -0.20769261344E+01  0.70040399430E+01  0.74795313178E+01  0.51100000000E-03 0.  1.
         12    1    3    3    0    0 -0.11260932210E+02  0.16041666521E+02  0.33381914220E+02  0.38710410176E+02  0.00000000000E+00 0. -1.
</event>
<event>
 7    1  0.2432574E-011  0.5052886E+02  0.7816164E-02  0.1300439E+00
        -11   -1    0    0    0    0  0.00000000000E+00  0.00000000000E+00  0.45593999997E+02  0.45594000000E+02  0.51100000000E-03 0.  1.
         11   -1    0    0    0    0 -0.00000000000E+00 -0.00000000000E+00 -0.45593999997E+02  0.45594000000E+02  0.51100000000E-03 0. -1.
    9900012    2    1    2    0    0  0.30183682729E+02  0.12399362222E+02  0.24256271783E+02  0.50528860715E+02  0.30000002630E+02 0.  0.
         12    1    1    2    0    0 -0.30183682729E+02 -0.12399362222E+02 -0.24256271783E+02  0.40659139285E+02  0.00000000000E+00 0. -1.
         11    1    3    3    0    0  0.56562973781E+01  0.84650166051E+01 -0.12209255609E+01  0.10253822002E+02  0.51100000000E-03 0. -1.
        -11    1    3    3    0    0  0.16752945215E+02  0.19243740223E+01  0.39791447325E+01  0.17326222376E+02  0.51100000000E-03 0.  1.
         12    1    3    3    0    0  0.77744401352E+01  0.20099715950E+01  0.21498052611E+02  0.22948816338E+02  0.00000000000E+00 0. -1.
</event>
<event>
 7    1  0.2432574E-011  0.5052886E+02  0.7816164E-02  0.1300439E+00
        -11   -1    0    0    0    0  0.00000000000E+00  0.00000000000E+00  0.45593999997E+02  0.45594000000E+02  0.51100000000E-03 0.  1.
         11   -1    0    0    0    0 -0.00000000000E+00 -0.00000000000E+00 -0.45593999997E+02  0.45594000000E+02  0.51100000000E-03 0. -1.
    9900012    2    1    2    0    0 -0.69109823142E+00 -0.39993425391E+02  0.72947758177E+01  0.50528862706E+02  0.30000008680E+02 0.  0.
         12    1    1    2    0    0  0.69109823142E+00  0.39993425391E+02 -0.72947758177E+01  0.40659137294E+02  0.00000000000E+00 0. -1.
         11    1    3    3    0    0  0.72241324987E+01 -0.54857780153E+01 -0.61567984937E+01  0.10963029633E+02  0.51100000000E-03 0. -1.
        -11    1    3    3    0    0 -0.20654511071E+01 -0.78165838224E+01 -0.17860053160E+01  0.82797878100E+01  0.51100000000E-03 0.  1.
        -12    1    3    3    0    0 -0.58497796230E+01 -0.26691063553E+02  0.15237579627E+02  0.31286045262E+02  0.00000000000E+00 0.  1.
</event>
<event>
 7    1  0.2432574E-011  0.5052886E+02  0.7816164E-02  0.1300439E+00
        -11   -1    0    0    0    0  0.00000000000E+00  0.00000000000E+00  0.45593999997E+02  0.45594000000E+02  0.51100000000E-03 0. -1.
         11   -1    0    0    0    0 -0.00000000000E+00 -0.00000000000E+00 -0.45593999997E+02  0.45594000000E+02  0.51100000000E-03 0.  1.
    9900012    2    1    2    0    0 -0.15406165212E+02 -0.24755827233E+02 -0.28336630883E+02  0.50528861318E+02  0.30000004463E+02 0.  0.
         12    1    1    2    0    0  0.15406165212E+02  0.24755827233E+02  0.28336630883E+02  0.40659138682E+02  0.00000000000E+00 0. -1.
         11    1    3    3    0    0  0.14966615427E+01 -0.10483696182E+02 -0.99067139020E+01  0.14501408966E+02  0.51100000000E-03 0. -1.
        -11    1    3    3    0    0 -0.10757892380E+02 -0.14837170598E+02 -0.22206706196E+02  0.28792562931E+02  0.51100000000E-03 0.  1.
        -12    1    3    3    0    0 -0.61449343748E+01  0.56503954801E+00  0.37767892142E+01  0.72348894207E+01  0.00000000000E+00 0.  1.
</event>
<event>
 7    1  0.2432574E-011  0.5052888E+02  0.7816164E-02  0.1300439E+00
        -11   -1    0    0    0    0  0.00000000000E+00  0.00000000000E+00  0.45593999997E+02  0.45594000000E+02  0.51100000000E-03 0.  1.
         11   -1    0    0    0    0 -0.00000000000E+00 -0.00000000000E+00 -0.45593999997E+02  0.45594000000E+02  0.51100000000E-03 0. -1.
    9900012    2    1    2    0    0  0.34171806842E+02  0.37634534453E+01  0.21709169864E+02  0.50528880225E+02  0.30000061932E+02 0.  0.
         12    1    1    2    0    0 -0.34171806842E+02 -0.37634534453E+01 -0.21709169864E+02  0.40659119775E+02  0.00000000000E+00 0. -1.
         11    1    3    3    0    0 -0.14927277819E+01 -0.73426476543E+00 -0.52059272089E+00  0.17431001172E+01  0.51100000000E-03 0.  1.
        -11    1    3    3    0    0  0.30887647077E+02 -0.63180049045E+01  0.17434550038E+02  0.36026760376E+02  0.51100000000E-03 0. -1.
         12    1    3    3    0    0  0.47768875476E+01  0.10815723115E+02  0.47952125468E+01  0.12759019732E+02  0.00000000000E+00 0. -1.
</event>
<event>
 7    1  0.2432574E-011  0.5052886E+02  0.7816164E-02  0.1300439E+00
        -11   -1    0    0    0    0  0.00000000000E+00  0.00000000000E+00  0.45593999997E+02  0.45594000000E+02  0.51100000000E-03 0. -1.
         11   -1    0    0    0    0 -0.00000000000E+00 -0.00000000000E+00 -0.45593999997E+02  0.45594000000E+02  0.51100000000E-03 0.  1.
    9900012    2    1    2    0    0 -0.38994628327E+02  0.26053786255E+01  0.11215922527E+02  0.50528856450E+02  0.29999989665E+02 0.  0.
         12    1    1    2    0    0  0.38994628327E+02 -0.26053786255E+01 -0.11215922527E+02  0.40659143550E+02  0.00000000000E+00 0. -1.
         11    1    3    3    0    0 -0.18349025268E+02 -0.10183738746E+02 -0.40044227259E+01  0.21364237987E+02  0.51100000000E-03 0. -1.
        -11    1    3    3    0    0 -0.56017198235E+01  0.29714927705E+01  0.13854248442E+01  0.64906422276E+01  0.51100000000E-03 0.  1.
        -12    1    3    3    0    0 -0.15043883235E+02  0.98176246012E+01  0.13834920409E+02  0.22673976236E+02  0.00000000000E+00 0.  1.
</event>
<event>
 7    1  0.2432574E-011  0.5052886E+02  0.7816164E-02  0.1300439E+00
        -11   -1    0    0    0    0  0.00000000000E+00  0.00000000000E+00  0.45593999997E+02  0.45594000000E+02  0.51100000000E-03 0.  1.
         11   -1    0    0    0    0 -0.00000000000E+00 -0.00000000000E+00 -0.45593999997E+02  0.45594000000E+02  0.51100000000E-03 0. -1.
    9900012    2    1    2    0    0  0.17701587771E+02  0.16098691350E+02  0.32873267204E+02  0.50528858722E+02  0.29999996572E+02 0.  0.
         12    1    1    2    0    0 -0.17701587771E+02 -0.16098691350E+02 -0.32873267204E+02  0.40659141278E+02  0.00000000000E+00 0. -1.
         11    1    3    3    0    0 -0.12362167988E+01  0.77560522944E+01  0.15194390274E+01  0.79995796381E+01  0.51100000000E-03 0. -1.
        -11    1    3    3    0    0  0.38922293619E+01  0.75908108344E+01  0.24568480018E+02  0.26007307996E+02  0.51100000000E-03 0.  1.
        -12    1    3    3    0    0  0.15045575208E+02  0.75182822091E+00  0.67853481585E+01  0.16521971089E+02  0.00000000000E+00 0.  1.
</event>
<event>
 7    1  0.2432574E-011  0.5052886E+02  0.7816164E-02  0.1300439E+00
        -11   -1    0    0    0    0  0.00000000000E+00  0.00000000000E+00  0.45593999997E+02  0.45594000000E+02  0.51100000000E-03 0.  1.
         11   -1    0    0    0    0 -0.00000000000E+00 -0.00000000000E+00 -0.45593999997E+02  0.45594000000E+02  0.51100000000E-03 0. -1.
    9900012    2    1    2    0    0 -0.20705926938E+01  0.49868592232E+01  0.40299002127E+02  0.50528859681E+02  0.29999999486E+02 0.  0.
         12    1    1    2    0    0  0.20705926938E+01 -0.49868592232E+01 -0.40299002127E+02  0.40659140319E+02  0.00000000000E+00 0. -1.
         11    1    3    3    0    0 -0.61453202718E+01  0.31766496827E+01  0.45202746974E+01  0.82637127280E+01  0.51100000000E-03 0. -1.
        -11    1    3    3    0    0 -0.51636352066E+01 -0.44433549239E+01  0.27610766662E+02  0.28438723028E+02  0.51100000000E-03 0.  1.
        -12    1    3    3    0    0  0.92383627846E+01  0.62535644645E+01  0.81679607678E+01  0.13826423925E+02  0.00000000000E+00 0.  1.
</event>
<event>
 7    1  0.2432574E-011  0.5052888E+02  0.7816164E-02  0.1300439E+00
        -11   -1    0    0    0    0  0.00000000000E+00  0.00000000000E+00  0.45593999997E+02  0.45594000000E+02  0.51100000000E-03 0.  1.
         11   -1    0    0    0    0 -0.00000000000E+00 -0.00000000000E+00 -0.45593999997E+02  0.45594000000E+02  0.51100000000E-03 0. -1.
    9900012    2    1    2    0    0 -0.27443212553E+02 -0.17585416883E+02  0.24306120605E+02  0.50528876780E+02  0.30000051459E+02 0.  0.
         12    1    1    2    0    0  0.27443212553E+02  0.17585416883E+02 -0.24306120605E+02  0.40659123220E+02  0.00000000000E+00 0. -1.
         11    1    3    3    0    0  0.18139681371E+01  0.12150203845E+01  0.53910443654E+01  0.58163660947E+01  0.51100000000E-03 0. -1.
        -11    1    3    3    0    0 -0.21319330633E+02 -0.36932606900E+01  0.17045886619E+02  0.27544805028E+02  0.51100000000E-03 0.  1.
         12    1    3    3    0    0 -0.79378500579E+01 -0.15107176577E+02  0.18691896202E+01  0.17167705657E+02  0.00000000000E+00 0. -1.
</event>
<event>
 7    1  0.2432574E-011  0.5052886E+02  0.7816164E-02  0.1300439E+00
        -11   -1    0    0    0    0  0.00000000000E+00  0.00000000000E+00  0.45593999997E+02  0.45594000000E+02  0.51100000000E-03 0. -1.
         11   -1    0    0    0    0 -0.00000000000E+00 -0.00000000000E+00 -0.45593999997E+02  0.45594000000E+02  0.51100000000E-03 0.  1.
    9900012    2    1    2    0    0 -0.18256458519E+02 -0.31342265967E+02 -0.18371978789E+02  0.50528861811E+02  0.30000005962E+02 0.  0.
         12    1    1    2    0    0  0.18256458519E+02  0.31342265967E+02  0.18371978789E+02  0.40659138189E+02  0.00000000000E+00 0. -1.
         11    1    3    3    0    0 -0.14541201663E+00 -0.92126328539E+00  0.28688992238E+01  0.30166958270E+01  0.51100000000E-03 0. -1.
        -11    1    3    3    0    0 -0.39655322807E+01  0.37500622558E+01 -0.19162771786E+01  0.57845079028E+01  0.51100000000E-03 0.  1.
        -12    1    3    3    0    0 -0.14145514222E+02 -0.34171064938E+02 -0.19324600834E+02  0.41727658081E+02  0.00000000000E+00 0.  1.
</event>
<event>
 7    1  0.2432574E-011  0.5052884E+02  0.7816164E-02  0.1300439E+00
        -11   -1    0    0    0    0  0.00000000000E+00  0.00000000000E+00  0.45593999997E+02  0.45594000000E+02  0.51100000000E-03 0.  1.
         11   -1    0    0    0    0 -0.00000000000E+00 -0.00000000000E+00 -0.45593999997E+02  0.45594000000E+02  0.51100000000E-03 0. -1.
    9900012    2    1    2    0    0 -0.30755812178E+02 -0.73065338932E+01  0.25570723798E+02  0.50528839460E+02  0.29999938024E+02 0.  0.
         12    1    1    2    0    0  0.30755812178E+02  0.73065338932E+01 -0.25570723798E+02  0.40659160540E+02  0.00000000000E+00 0. -1.
         11    1    3    3    0    0 -0.93474589646E+01  0.56118140892E+01  0.72657834073E+01  0.13101872204E+02  0.51100000000E-03 0. -1.
        -11    1    3    3    0    0 -0.67955847406E+01  0.46873482532E+01  0.10271107817E+02  0.13177513485E+02  0.51100000000E-03 0.  1.
         12    1    3    3    0    0 -0.14612768473E+02 -0.17605696236E+02  0.80338325739E+01  0.24249453771E+02  0.00000000000E+00 0. -1.
</event>
<event>
 7    1  0.2432574E-011  0.5052884E+02  0.7816164E-02  0.1300439E+00
        -11   -1    0    0    0    0  0.00000000000E+00  0.00000000000E+00  0.45593999997E+02  0.45594000000E+02  0.51100000000E-03 0.  1.
         11   -1    0    0    0    0 -0.00000000000E+00 -0.00000000000E+00 -0.45593999997E+02  0.45594000000E+02  0.51100000000E-03 0. -1.
    9900012    2    1    2    0    0 -0.21262702176E+02  0.24132550715E+01  0.34572257767E+02  0.50528839766E+02  0.29999938952E+02 0.  0.
         12    1    1    2    0    0  0.21262702176E+02 -0.24132550715E+01 -0.34572257767E+02  0.40659160234E+02  0.00000000000E+00 0. -1.
         11    1    3    3    0    0 -0.41279491584E+01  0.68131308795E+01  0.40472659911E+01  0.89352716186E+01  0.51100000000E-03 0. -1.
        -11    1    3    3    0    0 -0.18892767519E+02  0.42070266431E+01  0.19225364217E+02  0.27280952462E+02  0.51100000000E-03 0.  1.
         12    1    3    3    0    0  0.17580145014E+01 -0.86069024511E+01  0.11299627559E+02  0.14312615685E+02  0.00000000000E+00 0. -1.
</event>
<event>
 7    1  0.2432574E-011  0.5052886E+02  0.7816164E-02  0.1300439E+00
        -11   -1    0    0    0    0  0.00000000000E+00  0.00000000000E+00  0.45593999997E+02  0.45594000000E+02  0.51100000000E-03 0.  1.
         11   -1    0    0    0    0 -0.00000000000E+00 -0.00000000000E+00 -0.45593999997E+02  0.45594000000E+02  0.51100000000E-03 0. -1.
    9900012    2    1    2    0    0  0.25876910963E+02  0.83122203007E+01  0.30240011761E+02  0.50528857871E+02  0.29999993985E+02 0.  0.
         12    1    1    2    0    0 -0.25876910963E+02 -0.83122203007E+01 -0.30240011761E+02  0.40659142129E+02  0.00000000000E+00 0. -1.
         11    1    3    3    0    0  0.17297454917E+02  0.80957894092E+01  0.91872056510E+01  0.21193123902E+02  0.51100000000E-03 0. -1.
        -11    1    3    3    0    0  0.13332801357E+02 -0.22826339120E+01  0.93036086700E+01  0.16417403697E+02  0.51100000000E-03 0.  1.
        -12    1    3    3    0    0 -0.47533453109E+01  0.24990648035E+01  0.11749197440E+02  0.12918330273E+02  0.00000000000E+00 0.  1.
</event>
<event>
 7    1  0.2432574E-011  0.5052886E+02  0.7816164E-02  0.1300439E+00
        -11   -1    0    0    0    0  0.00000000000E+00  0.00000000000E+00  0.45593999997E+02  0.45594000000E+02  0.51100000000E-03 0.  1.
         11   -1    0    0    0    0 -0.00000000000E+00 -0.00000000000E+00 -0.45593999997E+02  0.45594000000E+02  0.51100000000E-03 0. -1.
    9900012    2    1    2    0    0 -0.35135024089E+02  0.79460294989E+01  0.18856205465E+02  0.50528858505E+02  0.29999995912E+02 0.  0.
         12    1    1    2    0    0  0.35135024089E+02 -0.79460294989E+01 -0.18856205465E+02  0.40659141495E+02  0.00000000000E+00 0. -1.
         11    1    3    3    0    0 -0.81751955829E+01 -0.17223185223E+01 -0.18326522100E+01  0.85532928335E+01  0.51100000000E-03 0.  1.
        -11    1    3    3    0    0 -0.74162281537E+01 -0.72192641018E+01  0.33987957500E+01  0.10893577328E+02  0.51100000000E-03 0. -1.
         12    1    3    3    0    0 -0.19543600353E+02  0.16887612123E+02  0.17290061925E+02  0.31081988343E+02  0.00000000000E+00 0. -1.
</event>
<event>
 7    1  0.2432574E-011  0.5052885E+02  0.7816164E-02  0.1300439E+00
        -11   -1    0    0    0    0  0.00000000000E+00  0.00000000000E+00  0.45593999997E+02  0.45594000000E+02  0.51100000000E-03 0. -1.
         11   -1    0    0    0    0 -0.00000000000E+00 -0.00000000000E+00 -0.45593999997E+02  0.45594000000E+02  0.51100000000E-03 0.  1.
    9900012    2    1    2    0    0  0.23811620520E+02  0.17718967416E+02 -0.27788689134E+02  0.50528851929E+02  0.29999975924E+02 0.  0.
         12    1    1    2    0    0 -0.23811620520E+02 -0.17718967416E+02  0.27788689134E+02  0.40659148071E+02  0.00000000000E+00 0. -1.
         11    1    3    3    0    0 -0.30061590906E+00  0.58112925403E+00 -0.59019154412E+01  0.59380710059E+01  0.51100000000E-03 0.  1.
        -11    1    3    3    0    0  0.24331769284E+02  0.48391396778E+01 -0.80608551015E+01  0.26085046570E+02  0.51100000000E-03 0. -1.
         12    1    3    3    0    0 -0.21953285563E+00  0.12298698484E+02 -0.13825918591E+02  0.18505734353E+02  0.00000000000E+00 0. -1.
</event>
<event>
 7    1  0.2432574E-011  0.5052886E+02  0.7816164E-02  0.1300439E+00
        -11   -1    0    0    0    0  0.00000000000E+00  0.00000000000E+00  0.45593999997E+02  0.45594000000E+02  0.51100000000E-03 0.  1.
         11   -1    0    0    0    0 -0.00000000000E+00 -0.00000000000E+00 -0.45593999997E+02  0.45594000000E+02  0.51100000000E-03 0. -1.
    9900012    2    1    2    0    0  0.15694606105E+02  0.58367850484E+01  0.37051009491E+02  0.50528855583E+02  0.29999987029E+02 0.  0.
         12    1    1    2    0    0 -0.15694606105E+02 -0.58367850484E+01 -0.37051009491E+02  0.40659144417E+02  0.00000000000E+00 0. -1.
         11    1    3    3    0    0  0.73439411251E+01 -0.21255119091E+01 -0.30814782295E+00  0.76515506577E+01  0.51100000000E-03 0. -1.
        -11    1    3    3    0    0  0.12856054815E+02  0.85466002153E+01  0.22112884514E+02  0.26968540606E+02  0.51100000000E-03 0.  1.
        -12    1    3    3    0    0 -0.45053898353E+01 -0.58430325774E+00  0.15246272799E+02  0.15908764318E+02  0.00000000000E+00 0.  1.
</event>
<event>
 7    1  0.2432574E-011  0.5052886E+02  0.7816164E-02  0.1300439E+00
        -11   -1    0    0    0    0  0.00000000000E+00  0.00000000000E+00  0.45593999997E+02  0.45594000000E+02  0.51100000000E-03 0.  1.
         11   -1    0    0    0    0 -0.00000000000E+00 -0.00000000000E+00 -0.45593999997E+02  0.45594000000E+02  0.51100000000E-03 0. -1.
    9900012    2    1    2    0    0 -0.32244942929E+02  0.11686668817E+02  0.21836911830E+02  0.50528864608E+02  0.30000014463E+02 0.  0.
         12    1    1    2    0    0  0.32244942929E+02 -0.11686668817E+02 -0.21836911830E+02  0.40659135392E+02  0.00000000000E+00 0. -1.
         11    1    3    3    0    0 -0.55207629061E+00 -0.31054957205E+01 -0.22272067222E+01  0.38612617038E+01  0.51100000000E-03 0. -1.
        -11    1    3    3    0    0 -0.71738368413E+01  0.71080542638E+01  0.17406855910E+02  0.20124288891E+02  0.51100000000E-03 0.  1.
        -12    1    3    3    0    0 -0.24519029797E+02  0.76841102736E+01  0.66572626421E+01  0.26543314013E+02  0.00000000000E+00 0.  1.
</event>
<event>
 7    1  0.2432574E-011  0.5052888E+02  0.7816164E-02  0.1300439E+00
        -11   -1    0    0    0    0  0.00000000000E+00  0.00000000000E+00  0.45593999997E+02  0.45594000000E+02  0.51100000000E-03 0.  1.
         11   -1    0    0    0    0 -0.00000000000E+00 -0.00000000000E+00 -0.45593999997E+02  0.45594000000E+02  0.51100000000E-03 0. -1.
    9900012    2    1    2    0    0 -0.35148812898E+02  0.69956791588E+01  0.19203796473E+02  0.50528875882E+02  0.30000048732E+02 0.  0.
         12    1    1    2    0    0  0.35148812898E+02 -0.69956791588E+01 -0.19203796473E+02  0.40659124118E+02  0.00000000000E+00 0. -1.
         11    1    3    3    0    0 -0.36288864853E+01  0.62518390869E+01  0.34507102396E+01  0.80101005306E+01  0.51100000000E-03 0. -1.
        -11    1    3    3    0    0 -0.70125640963E+01  0.10179474982E+02  0.10100208209E+01  0.12402334798E+02  0.51100000000E-03 0.  1.
         12    1    3    3    0    0 -0.24507362317E+02 -0.94356349103E+01  0.14743065412E+02  0.30116440554E+02  0.00000000000E+00 0. -1.
</event>
<event>
 7    1  0.2432574E-011  0.5052886E+02  0.7816164E-02  0.1300439E+00
        -11   -1    0    0    0    0  0.00000000000E+00  0.00000000000E+00  0.45593999997E+02  0.45594000000E+02  0.51100000000E-03 0. -1.
         11   -1    0    0    0    0 -0.00000000000E+00 -0.00000000000E+00 -0.45593999997E+02  0.45594000000E+02  0.51100000000E-03 0.  1.
    9900012    2    1    2    0    0  0.38712759114E+02  0.10872144692E+02  0.60236317262E+01  0.50528863418E+02  0.30000010844E+02 0.  0.
         12    1    1    2    0    0 -0.38712759114E+02 -0.10872144692E+02 -0.60236317262E+01  0.40659136582E+02  0.00000000000E+00 0. -1.
         11    1    3    3    0    0  0.27039676286E+01 -0.14100459781E+01  0.11669397541E+01  0.32651828812E+01  0.51100000000E-03 0. -1.
        -11    1    3    3    0    0  0.26050473903E+01 -0.50148322502E+00 -0.86380157820E+01  0.90362090636E+01  0.51100000000E-03 0.  1.
         12    1    3    3    0    0  0.33403744095E+02  0.12783673895E+02  0.13494707754E+02  0.38227471473E+02  0.00000000000E+00 0. -1.
</event>
<event>
 7    1  0.2432574E-011  0.5052887E+02  0.7816164E-02  0.1300439E+00
        -11   -1    0    0    0    0  0.00000000000E+00  0.00000000000E+00  0.45593999997E+02  0.45594000000E+02  0.51100000000E-03 0. -1.
         11   -1    0    0    0    0 -0.00000000000E+00 -0.00000000000E+00 -0.45593999997E+02  0.45594000000E+02  0.51100000000E-03 0.  1.
    9900012    2    1    2    0    0 -0.37992544469E+02 -0.32513507159E+01 -0.14112415231E+02  0.50528868426E+02  0.30000026068E+02 0.  0.
         12    1    1    2    0    0  0.37992544469E+02  0.32513507159E+01  0.14112415231E+02  0.40659131574E+02  0.00000000000E+00 0. -1.
         11    1    3    3    0    0 -0.10235599252E+02 -0.59311332595E+01  0.63775208571E+01  0.13439442188E+02  0.51100000000E-03 0. -1.
        -11    1    3    3    0    0 -0.10790077247E+02  0.25759459261E+01 -0.83595513003E+00  0.11124751038E+02  0.51100000000E-03 0.  1.
         12    1    3    3    0    0 -0.16966867970E+02  0.10383661742E+00 -0.19653980958E+02  0.25964675201E+02  0.00000000000E+00 0. -1.
</event>
<event>
 7    1  0.2432574E-011  0.5052886E+02  0.7816164E-02  0.1300439E+00
        -11   -1    0    0    0    0  0.00000000000E+00  0.00000000000E+00  0.45593999997E+02  0.45594000000E+02  0.51100000000E-03 0. -1.
         11   -1    0    0    0    0 -0.00000000000E+00 -0.00000000000E+00 -0.45593999997E+02  0.45594000000E+02  0.51100000000E-03 0.  1.
    9900012    2    1    2    0    0  0.12252738722E+01  0.35868707589E+02 -0.19107600100E+02  0.50528857587E+02  0.29999993122E+02 0.  0.
         12    1    1    2    0    0 -0.12252738722E+01 -0.35868707589E+02  0.19107600100E+02  0.40659142413E+02  0.00000000000E+00 0. -1.
         11    1    3    3    0    0  0.64660818175E+01  0.57691346377E+01 -0.11636217619E+02  0.14508435107E+02  0.51100000000E-03 0. -1.
        -11    1    3    3    0    0 -0.43155887821E+01  0.48114810194E+01 -0.85194429493E+01  0.10693716125E+02  0.51100000000E-03 0.  1.
         12    1    3    3    0    0 -0.92521916319E+00  0.25288091932E+02  0.10480604675E+01  0.25326706355E+02  0.00000000000E+00 0. -1.
</event>
<event>
 7    1  0.2432574E-011  0.5052885E+02  0.7816164E-02  0.1300439E+00
        -11   -1    0    0    0    0  0.00000000000E+00  0.00000000000E+00  0.45593999997E+02  0.45594000000E+02  0.51100000000E-03 0.  1.
         11   -1    0    0    0    0 -0.00000000000E+00 -0.00000000000E+00 -0.45593999997E+02  0.45594000000E+02  0.51100000000E-03 0. -1.
    9900012    2    1    2    0    0 -0.12365004137E+02  0.27331895893E+02 -0.27445223086E+02  0.50528854280E+02  0.29999983069E+02 0.  0.
         12    1    1    2    0    0  0.12365004137E+02 -0.27331895893E+02  0.27445223086E+02  0.40659145720E+02  0.00000000000E+00 0. -1.
         11    1    3    3    0    0 -0.10208843294E+02 -0.57991742996E-01 -0.55665903250E+01  0.11628016708E+02  0.51100000000E-03 0. -1.
        -11    1    3    3    0    0 -0.84058892432E+01  0.13192850535E+02 -0.61462622581E+01  0.16807344205E+02  0.51100000000E-03 0.  1.
         12    1    3    3    0    0  0.62497284004E+01  0.14197037102E+02 -0.15732370503E+02  0.22093493368E+02  0.00000000000E+00 0. -1.
</event>
<event>
 7    1  0.2432574E-011  0.5052889E+02  0.7816164E-02  0.1300439E+00
        -11   -1    0    0    0    0  0.00000000000E+00  0.00000000000E+00  0.45593999997E+02  0.45594000000E+02  0.51100000000E-03 0. -1.
         11   -1    0    0    0    0 -0.00000000000E+00 -0.00000000000E+00 -0.45593999997E+02  0.45594000000E+02  0.51100000000E-03 0.  1.
    9900012    2    1    2    0    0 -0.13464526434E+02 -0.33736498712E+02 -0.18267956428E+02  0.50528892170E+02  0.30000098241E+02 0.  0.
         12    1    1    2    0    0  0.13464526434E+02  0.33736498712E+02  0.18267956428E+02  0.40659107830E+02  0.00000000000E+00 0. -1.
         11    1    3    3    0    0 -0.10794628460E+02 -0.51713639239E+01 -0.40105559288E+00  0.11976136868E+02  0.51100000000E-03 0. -1.
        -11    1    3    3    0    0  0.44827100982E+01 -0.70438527570E+00 -0.57894780845E+01  0.73558755558E+01  0.51100000000E-03 0.  1.
        -12    1    3    3    0    0 -0.71526080721E+01 -0.27860749513E+02 -0.12077422751E+02  0.31196879747E+02  0.00000000000E+00 0.  1.
</event>
<event>
 7    1  0.2432574E-011  0.5052886E+02  0.7816164E-02  0.1300439E+00
        -11   -1    0    0    0    0  0.00000000000E+00  0.00000000000E+00  0.45593999997E+02  0.45594000000E+02  0.51100000000E-03 0.  1.
         11   -1    0    0    0    0 -0.00000000000E+00 -0.00000000000E+00 -0.45593999997E+02  0.45594000000E+02  0.51100000000E-03 0. -1.
    9900012    2    1    2    0    0  0.35477000495E+02  0.24015372207E+01  0.19717522718E+02  0.50528860224E+02  0.30000001138E+02 0.  0.
         12    1    1    2    0    0 -0.35477000495E+02 -0.24015372207E+01 -0.19717522718E+02  0.40659139776E+02  0.00000000000E+00 0. -1.
         11    1    3    3    0    0  0.13616860712E+02  0.10565719793E+02  0.76533866981E+01  0.18858092655E+02  0.51100000000E-03 0. -1.
        -11    1    3    3    0    0  0.16900072724E+02  0.84823691723E+00  0.15999691518E+01  0.16996819275E+02  0.51100000000E-03 0.  1.
        -12    1    3    3    0    0  0.49600670596E+01 -0.90124194892E+01  0.10464166868E+02  0.14673948294E+02  0.00000000000E+00 0.  1.
</event>
<event>
 7    1  0.2432574E-011  0.5052887E+02  0.7816164E-02  0.1300439E+00
        -11   -1    0    0    0    0  0.00000000000E+00  0.00000000000E+00  0.45593999997E+02  0.45594000000E+02  0.51100000000E-03 0. -1.
         11   -1    0    0    0    0 -0.00000000000E+00 -0.00000000000E+00 -0.45593999997E+02  0.45594000000E+02  0.51100000000E-03 0.  1.
    9900012    2    1    2    0    0 -0.96578783824E+01 -0.39377983218E+02 -0.30438411936E+01  0.50528866385E+02  0.30000019863E+02 0.  0.
         12    1    1    2    0    0  0.96578783824E+01  0.39377983218E+02  0.30438411936E+01  0.40659133615E+02  0.00000000000E+00 0. -1.
         11    1    3    3    0    0 -0.14222894687E+02 -0.19562163693E+02  0.73705652003E+01  0.25284268099E+02  0.51100000000E-03 0. -1.
        -11    1    3    3    0    0 -0.26645005337E+01 -0.40584304045E+01 -0.52595843510E+01  0.71577683847E+01  0.51100000000E-03 0.  1.
        -12    1    3    3    0    0  0.72295168387E+01 -0.15757389120E+02 -0.51548220430E+01  0.18086829901E+02  0.00000000000E+00 0.  1.
</event>
<event>
 7    1  0.2432574E-011  0.5052886E+02  0.7816164E-02  0.1300439E+00
        -11   -1    0    0    0    0  0.00000000000E+00  0.00000000000E+00  0.45593999997E+02  0.45594000000E+02  0.51100000000E-03 0.  1.
         11   -1    0    0    0    0 -0.00000000000E+00 -0.00000000000E+00 -0.45593999997E+02  0.45594000000E+02  0.51100000000E-03 0. -1.
    9900012    2    1    2    0    0  0.39758861789E+02  0.18759549513E+01  0.82993721043E+01  0.50528857423E+02  0.29999992623E+02 0.  0.
         12    1    1    2    0    0 -0.39758861789E+02 -0.18759549513E+01 -0.82993721043E+01  0.40659142577E+02  0.00000000000E+00 0. -1.
         11    1    3    3    0    0 -0.93119505709E+00 -0.25619039409E+01  0.53213723152E+00  0.27773451948E+01  0.51100000000E-03 0. -1.
        -11    1    3    3    0    0  0.11222310299E+02  0.12257039607E+02  0.22813064826E+01  0.16774374144E+02  0.51100000000E-03 0.  1.
        -12    1    3    3    0    0  0.29467746547E+02 -0.78191807149E+01  0.54859283901E+01  0.30977138085E+02  0.00000000000E+00 0.  1.
</event>
<event>
 7    1  0.2432574E-011  0.5052885E+02  0.7816164E-02  0.1300439E+00
        -11   -1    0    0    0    0  0.00000000000E+00  0.00000000000E+00  0.45593999997E+02  0.45594000000E+02  0.51100000000E-03 0.  1.
         11   -1    0    0    0    0 -0.00000000000E+00 -0.00000000000E+00 -0.45593999997E+02  0.45594000000E+02  0.51100000000E-03 0. -1.
    9900012    2    1    2    0    0 -0.33817214777E+02 -0.17920179529E+02  0.13726962629E+02  0.50528851551E+02  0.29999974773E+02 0.  0.
         12    1    1    2    0    0  0.33817214777E+02  0.17920179529E+02 -0.13726962629E+02  0.40659148449E+02  0.00000000000E+00 0. -1.
         11    1    3    3    0    0 -0.14698335336E+02 -0.14883131862E+02 -0.24738995071E+01  0.21063448310E+02  0.51100000000E-03 0. -1.
        -11    1    3    3    0    0 -0.17981577131E+02 -0.76346257253E+01  0.10952600539E+02  0.22396072979E+02  0.51100000000E-03 0.  1.
        -12    1    3    3    0    0 -0.11373023106E+01  0.45975780586E+01  0.52482615974E+01  0.70693302614E+01  0.00000000000E+00 0.  1.
</event>
<event>
 7    1  0.2432574E-011  0.5052888E+02  0.7816164E-02  0.1300439E+00
        -11   -1    0    0    0    0  0.00000000000E+00  0.00000000000E+00  0.45593999997E+02  0.45594000000E+02  0.51100000000E-03 0.  1.
         11   -1    0    0    0    0 -0.00000000000E+00 -0.00000000000E+00 -0.45593999997E+02  0.45594000000E+02  0.51100000000E-03 0. -1.
    9900012    2    1    2    0    0  0.38791231593E+02 -0.11714310560E+02  0.33434920575E+01  0.50528884669E+02  0.30000075439E+02 0.  0.
         12    1    1    2    0    0 -0.38791231593E+02  0.11714310560E+02 -0.33434920575E+01  0.40659115331E+02  0.00000000000E+00 0. -1.
         11    1    3    3    0    0  0.16813523840E+02 -0.72409921729E+01 -0.18856144095E+01  0.18403317460E+02  0.51100000000E-03 0. -1.
        -11    1    3    3    0    0 -0.26135853753E+01 -0.33390838437E+01 -0.40055167739E+01  0.58330501726E+01  0.51100000000E-03 0.  1.
        -12    1    3    3    0    0  0.24591293128E+02 -0.11342345434E+01  0.92346232409E+01  0.26292517036E+02  0.00000000000E+00 0.  1.
</event>
<event>
 7    1  0.2432574E-011  0.5052886E+02  0.7816164E-02  0.1300439E+00
        -11   -1    0    0    0    0  0.00000000000E+00  0.00000000000E+00  0.45593999997E+02  0.45594000000E+02  0.51100000000E-03 0. -1.
         11   -1    0    0    0    0 -0.00000000000E+00 -0.00000000000E+00 -0.45593999997E+02  0.45594000000E+02  0.51100000000E-03 0.  1.
    9900012    2    1    2    0    0 -0.49093915989E+00  0.38176824482E+02 -0.13980498317E+02  0.50528864716E+02  0.30000014792E+02 0.  0.
         12    1    1    2    0    0  0.49093915989E+00 -0.38176824482E+02  0.13980498317E+02  0.40659135284E+02  0.00000000000E+00 0. -1.
         11    1    3    3    0    0  0.84758719218E+01  0.13313812699E+02 -0.55444952975E+01  0.16728402248E+02  0.51100000000E-03 0. -1.
        -11    1    3    3    0    0 -0.36338363800E+01 -0.27047025925E+01 -0.18181572021E+00  0.45335681497E+01  0.51100000000E-03 0.  1.
        -12    1    3    3    0    0 -0.53329747016E+01  0.27567714376E+02 -0.82541872990E+01  0.29266894318E+02  0.00000000000E+00 0.  1.
</event>
<event>
 7    1  0.2432574E-011  0.5052886E+02  0.7816164E-02  0.1300439E+00
        -11   -1    0    0    0    0  0.00000000000E+00  0.00000000000E+00  0.45593999997E+02  0.45594000000E+02  0.51100000000E-03 0. -1.
         11   -1    0    0    0    0 -0.00000000000E+00 -0.00000000000E+00 -0.45593999997E+02  0.45594000000E+02  0.51100000000E-03 0.  1.
    9900012    2    1    2    0    0  0.27240217856E+02 -0.29947021349E+02 -0.37831772120E+01  0.50528856055E+02  0.29999988465E+02 0.  0.
         12    1    1    2    0    0 -0.27240217856E+02  0.29947021349E+02  0.37831772120E+01  0.40659143945E+02  0.00000000000E+00 0. -1.
         11    1    3    3    0    0  0.31455782806E+01 -0.48783229146E+01  0.42545375920E+01  0.71967900873E+01  0.51100000000E-03 0. -1.
        -11    1    3    3    0    0  0.22166429102E+02 -0.17246182830E+02  0.44854201362E+01  0.28441174298E+02  0.51100000000E-03 0.  1.
         12    1    3    3    0    0  0.19282104733E+01 -0.78225156038E+01 -0.12523134940E+02  0.14890891670E+02  0.00000000000E+00 0. -1.
</event>
<event>
 7    1  0.2432574E-011  0.5052886E+02  0.7816164E-02  0.1300439E+00
        -11   -1    0    0    0    0  0.00000000000E+00  0.00000000000E+00  0.45593999997E+02  0.45594000000E+02  0.51100000000E-03 0. -1.
         11   -1    0    0    0    0 -0.00000000000E+00 -0.00000000000E+00 -0.45593999997E+02  0.45594000000E+02  0.51100000000E-03 0.  1.
    9900012    2    1    2    0    0 -0.64719637754E+01  0.12402266128E+02 -0.38176736167E+02  0.50528859520E+02  0.29999998997E+02 0.  0.
         12    1    1    2    0    0  0.64719637754E+01 -0.12402266128E+02  0.38176736167E+02  0.40659140480E+02  0.00000000000E+00 0. -1.
         11    1    3    3    0    0  0.65738023533E+00  0.58041478226E+01 -0.39206756263E+02  0.39639500724E+02  0.51100000000E-03 0. -1.
        -11    1    3    3    0    0 -0.96580196764E+00  0.28709907911E+01 -0.13321598179E+01  0.33090801750E+01  0.51100000000E-03 0.  1.
         12    1    3    3    0    0 -0.61635420431E+01  0.37271275141E+01  0.23621799140E+01  0.75802786208E+01  0.00000000000E+00 0. -1.
</event>
<event>
 7    1  0.2432574E-011  0.5052887E+02  0.7816164E-02  0.1300439E+00
        -11   -1    0    0    0    0  0.00000000000E+00  0.00000000000E+00  0.45593999997E+02  0.45594000000E+02  0.51100000000E-03 0.  1.
         11   -1    0    0    0    0 -0.00000000000E+00 -0.00000000000E+00 -0.45593999997E+02  0.45594000000E+02  0.51100000000E-03 0. -1.
    9900012    2    1    2    0    0  0.24901942771E+02  0.31990659232E+02  0.31073767296E+01  0.50528870373E+02  0.30000031987E+02 0.  0.
         12    1    1    2    0    0 -0.24901942771E+02 -0.31990659232E+02 -0.31073767296E+01  0.40659129627E+02  0.00000000000E+00 0. -1.
         11    1    3    3    0    0  0.89258259053E+01 -0.17645368547E+01  0.22102447652E+01  0.93631800467E+01  0.51100000000E-03 0. -1.
        -11    1    3    3    0    0  0.18838152785E+02  0.27057571249E+02  0.40725486985E+01  0.33220081508E+02  0.51100000000E-03 0.  1.
         12    1    3    3    0    0 -0.28620359191E+01  0.66976248376E+01 -0.31754167340E+01  0.79456088188E+01  0.00000000000E+00 0. -1.
</event>
<event>
 7    1  0.2432574E-011  0.5052886E+02  0.7816164E-02  0.1300439E+00
        -11   -1    0    0    0    0  0.00000000000E+00  0.00000000000E+00  0.45593999997E+02  0.45594000000E+02  0.51100000000E-03 0. -1.
         11   -1    0    0    0    0 -0.00000000000E+00 -0.00000000000E+00 -0.45593999997E+02  0.45594000000E+02  0.51100000000E-03 0.  1.
    9900012    2    1    2    0    0 -0.23328775179E+02  0.95395116560E+01 -0.31905041171E+02  0.50528859747E+02  0.29999999686E+02 0.  0.
         12    1    1    2    0    0  0.23328775179E+02 -0.95395116560E+01  0.31905041171E+02  0.40659140253E+02  0.00000000000E+00 0. -1.
         11    1    3    3    0    0 -0.19324867783E+02  0.34237129501E+00 -0.75077452742E+01  0.20734849223E+02  0.51100000000E-03 0.  1.
        -11    1    3    3    0    0  0.38322471003E+01 -0.31670066731E-01 -0.19735895699E+01  0.43107049172E+01  0.51100000000E-03 0. -1.
        -12    1    3    3    0    0 -0.78361544967E+01  0.92288104277E+01 -0.22423706327E+02  0.25483305607E+02  0.00000000000E+00 0.  1.
</event>
<event>
 7    1  0.2432574E-011  0.5052885E+02  0.7816164E-02  0.1300439E+00
        -11   -1    0    0    0    0  0.00000000000E+00  0.00000000000E+00  0.45593999997E+02  0.45594000000E+02  0.51100000000E-03 0.  1.
         11   -1    0    0    0    0 -0.00000000000E+00 -0.00000000000E+00 -0.45593999997E+02  0.45594000000E+02  0.51100000000E-03 0. -1.
    9900012    2    1    2    0    0 -0.47409136102E+01  0.12297092709E+02  0.38463902911E+02  0.50528848778E+02  0.29999966345E+02 0.  0.
         12    1    1    2    0    0  0.47409136102E+01 -0.12297092709E+02 -0.38463902911E+02  0.40659151222E+02  0.00000000000E+00 0. -1.
         11    1    3    3    0    0  0.20991626225E+01  0.13152830839E+02  0.77803130215E+01  0.15425197365E+02  0.51100000000E-03 0. -1.
        -11    1    3    3    0    0  0.15146130203E+01  0.31652782344E+01  0.22391165956E+02  0.22664451285E+02  0.51100000000E-03 0.  1.
        -12    1    3    3    0    0 -0.83546892529E+01 -0.40210163642E+01  0.82924239334E+01  0.12439200127E+02  0.00000000000E+00 0.  1.
</event>
<event>
 7    1  0.2432574E-011  0.5052886E+02  0.7816164E-02  0.1300439E+00
        -11   -1    0    0    0    0  0.00000000000E+00  0.00000000000E+00  0.45593999997E+02  0.45594000000E+02  0.51100000000E-03 0.  1.
         11   -1    0    0    0    0 -0.00000000000E+00 -0.00000000000E+00 -0.45593999997E+02  0.45594000000E+02  0.51100000000E-03 0. -1.
    9900012    2    1    2    0    0 -0.29505009732E+01 -0.32006317928E+02  0.24900926770E+02  0.50528855921E+02  0.29999988056E+02 0.  0.
         12    1    1    2    0    0  0.29505009732E+01  0.32006317928E+02 -0.24900926770E+02  0.40659144079E+02  0.00000000000E+00 0. -1.
         11    1    3    3    0    0  0.58979485432E+00 -0.34458935989E+01  0.14129079752E+02  0.14555168689E+02  0.51100000000E-03 0. -1.
        -11    1    3    3    0    0  0.31582254390E+00 -0.16626265371E+02  0.15341863148E+02  0.22625322300E+02  0.51100000000E-03 0.  1.
         12    1    3    3    0    0 -0.38561183714E+01 -0.11934158958E+02 -0.45700161300E+01  0.13348364932E+02  0.00000000000E+00 0. -1.
</event>
<event>
 7    1  0.2432574E-011  0.5052887E+02  0.7816164E-02  0.1300439E+00
        -11   -1    0    0    0    0  0.00000000000E+00  0.00000000000E+00  0.45593999997E+02  0.45594000000E+02  0.51100000000E-03 0.  1.
         11   -1    0    0    0    0 -0.00000000000E+00 -0.00000000000E+00 -0.45593999997E+02  0.45594000000E+02  0.51100000000E-03 0. -1.
    9900012    2    1    2    0    0 -0.32002230771E+02  0.10387503394E+02  0.22828089897E+02  0.50528872004E+02  0.30000036943E+02 0.  0.
         12    1    1    2    0    0  0.32002230771E+02 -0.10387503394E+02 -0.22828089897E+02  0.40659127996E+02  0.00000000000E+00 0. -1.
         11    1    3    3    0    0 -0.19822050644E+02  0.12168521724E+02  0.17363079509E+01  0.23323837125E+02  0.51100000000E-03 0. -1.
        -11    1    3    3    0    0 -0.67998067550E+01  0.50418454444E+01  0.96226856853E+01  0.12816148308E+02  0.51100000000E-03 0.  1.
         12    1    3    3    0    0 -0.53803733718E+01 -0.68228637750E+01  0.11469096261E+02  0.14388886571E+02  0.00000000000E+00 0. -1.
</event>
<event>
 7    1  0.2432574E-011  0.5052886E+02  0.7816164E-02  0.1300439E+00
        -11   -1    0    0    0    0  0.00000000000E+00  0.00000000000E+00  0.45593999997E+02  0.45594000000E+02  0.51100000000E-03 0.  1.
         11   -1    0    0    0    0 -0.00000000000E+00 -0.00000000000E+00 -0.45593999997E+02  0.45594000000E+02  0.51100000000E-03 0. -1.
    9900012    2    1    2    0    0  0.14545810686E+02 -0.87316342029E+01  0.36950557954E+02  0.50528858623E+02  0.29999996271E+02 0.  0.
         12    1    1    2    0    0 -0.14545810686E+02  0.87316342029E+01 -0.36950557954E+02  0.40659141377E+02  0.00000000000E+00 0. -1.
         11    1    3    3    0    0  0.18271615328E+01  0.27024946365E+01  0.12643549948E+02  0.13057616631E+02  0.51100000000E-03 0. -1.
        -11    1    3    3    0    0  0.65246650093E+01 -0.14779756788E+02  0.25640853463E+02  0.30306201193E+02  0.51100000000E-03 0.  1.
         12    1    3    3    0    0  0.61939841440E+01  0.33456279488E+01 -0.13338454568E+01  0.71650407989E+01  0.00000000000E+00 0. -1.
</event>
<event>
 7    1  0.2432574E-011  0.5052886E+02  0.7816164E-02  0.1300439E+00
        -11   -1    0    0    0    0  0.00000000000E+00  0.00000000000E+00  0.45593999997E+02  0.45594000000E+02  0.51100000000E-03 0.  1.
         11   -1    0    0    0    0 -0.00000000000E+00 -0.00000000000E+00 -0.45593999997E+02  0.45594000000E+02  0.51100000000E-03 0. -1.
    9900012    2    1    2    0    0  0.40032888129E+02  0.12246565629E+01 -0.70024116258E+01  0.50528859770E+02  0.29999999757E+02 0.  0.
         12    1    1    2    0    0 -0.40032888129E+02 -0.12246565629E+01  0.70024116258E+01  0.40659140230E+02  0.00000000000E+00 0. -1.
         11    1    3    3    0    0  0.21669189137E+01  0.10458035298E+01 -0.98599197040E+00  0.26002736449E+01  0.51100000000E-03 0. -1.
        -11    1    3    3    0    0  0.39282811762E+02  0.33898459437E+01  0.16853768230E+01  0.39464805216E+02  0.51100000000E-03 0.  1.
         12    1    3    3    0    0 -0.14168425467E+01 -0.32109929106E+01 -0.77017964784E+01  0.84637809086E+01  0.00000000000E+00 0. -1.
</event>
<event>
 7    1  0.2432574E-011  0.5052886E+02  0.7816164E-02  0.1300439E+00
        -11   -1    0    0    0    0  0.00000000000E+00  0.00000000000E+00  0.45593999997E+02  0.45594000000E+02  0.51100000000E-03 0.  1.
         11   -1    0    0    0    0 -0.00000000000E+00 -0.00000000000E+00 -0.45593999997E+02  0.45594000000E+02  0.51100000000E-03 0. -1.
    9900012    2    1    2    0    0 -0.11294972311E+02 -0.10957544158E+02  0.37490285528E+02  0.50528859792E+02  0.29999999824E+02 0.  0.
         12    1    1    2    0    0  0.11294972311E+02  0.10957544158E+02 -0.37490285528E+02  0.40659140208E+02  0.00000000000E+00 0. -1.
         11    1    3    3    0    0 -0.87254046975E+01 -0.12988738653E+01  0.15154368555E+02  0.17534955004E+02  0.51100000000E-03 0. -1.
        -11    1    3    3    0    0  0.50057474124E+01 -0.13286855814E+02  0.19514693598E+02  0.24133406537E+02  0.51100000000E-03 0.  1.
         12    1    3    3    0    0 -0.75753150261E+01  0.36281855213E+01  0.28212233751E+01  0.88604982509E+01  0.00000000000E+00 0. -1.
</event>
<event>
 7    1  0.2432574E-011  0.5052886E+02  0.7816164E-02  0.1300439E+00
        -11   -1    0    0    0    0  0.00000000000E+00  0.00000000000E+00  0.45593999997E+02  0.45594000000E+02  0.51100000000E-03 0. -1.
         11   -1    0    0    0    0 -0.00000000000E+00 -0.00000000000E+00 -0.45593999997E+02  0.45594000000E+02  0.51100000000E-03 0.  1.
    9900012    2    1    2    0    0  0.21851754095E+02  0.14521869695E+02 -0.31060940487E+02  0.50528857358E+02  0.29999992425E+02 0.  0.
         12    1    1    2    0    0 -0.21851754095E+02 -0.14521869695E+02  0.31060940487E+02  0.40659142642E+02  0.00000000000E+00 0. -1.
         11    1    3    3    0    0  0.16340393672E+02  0.72483775182E+00 -0.18841065710E+02  0.24950342933E+02  0.51100000000E-03 0. -1.
        -11    1    3    3    0    0  0.88693270480E+01  0.78606462849E+00 -0.62265867801E+01  0.10865230926E+02  0.51100000000E-03 0.  1.
        -12    1    3    3    0    0 -0.33579666242E+01  0.13010967315E+02 -0.59932879963E+01  0.14713283499E+02  0.00000000000E+00 0.  1.
</event>
<event>
 7    1  0.2432574E-011  0.5052886E+02  0.7816164E-02  0.1300439E+00
        -11   -1    0    0    0    0  0.00000000000E+00  0.00000000000E+00  0.45593999997E+02  0.45594000000E+02  0.51100000000E-03 0. -1.
         11   -1    0    0    0    0 -0.00000000000E+00 -0.00000000000E+00 -0.45593999997E+02  0.45594000000E+02  0.51100000000E-03 0.  1.
    9900012    2    1    2    0    0  0.44239692852E+01  0.34029456796E+02 -0.21808034942E+02  0.50528858075E+02  0.29999994604E+02 0.  0.
         12    1    1    2    0    0 -0.44239692852E+01 -0.34029456796E+02  0.21808034942E+02  0.40659141925E+02  0.00000000000E+00 0. -1.
         11    1    3    3    0    0 -0.50528356483E+01  0.90705622494E+01 -0.11826539861E+02  0.15737639371E+02  0.51100000000E-03 0. -1.
        -11    1    3    3    0    0  0.79690666167E+01  0.24023433298E+01 -0.88602664699E+01  0.12156545496E+02  0.51100000000E-03 0.  1.
         12    1    3    3    0    0  0.15077383168E+01  0.22556551217E+02 -0.11212286107E+01  0.22634673208E+02  0.00000000000E+00 0. -1.
</event>
<event>
 7    1  0.2432574E-011  0.5052886E+02  0.7816164E-02  0.1300439E+00
        -11   -1    0    0    0    0  0.00000000000E+00  0.00000000000E+00  0.45593999997E+02  0.45594000000E+02  0.51100000000E-03 0.  1.
         11   -1    0    0    0    0 -0.00000000000E+00 -0.00000000000E+00 -0.45593999997E+02  0.45594000000E+02  0.51100000000E-03 0. -1.
    9900012    2    1    2    0    0  0.71090857158E+01 -0.30879222336E+02  0.25477443628E+02  0.50528860737E+02  0.30000002695E+02 0.  0.
         12    1    1    2    0    0 -0.71090857158E+01  0.30879222336E+02 -0.25477443628E+02  0.40659139263E+02  0.00000000000E+00 0. -1.
         11    1    3    3    0    0  0.67653897473E+01 -0.20019726729E+01  0.74473321348E+01  0.10258710894E+02  0.51100000000E-03 0.  1.
        -11    1    3    3    0    0  0.44490775116E+01 -0.82224911585E+01 -0.36590046502E+01  0.10039520250E+02  0.51100000000E-03 0. -1.
        -12    1    3    3    0    0 -0.41053815431E+01 -0.20654758505E+02  0.21689116144E+02  0.30230629593E+02  0.00000000000E+00 0.  1.
</event>
<event>
 7    1  0.2432574E-011  0.5052887E+02  0.7816164E-02  0.1300439E+00
        -11   -1    0    0    0    0  0.00000000000E+00  0.00000000000E+00  0.45593999997E+02  0.45594000000E+02  0.51100000000E-03 0.  1.
         11   -1    0    0    0    0 -0.00000000000E+00 -0.00000000000E+00 -0.45593999997E+02  0.45594000000E+02  0.51100000000E-03 0. -1.
    9900012    2    1    2    0    0 -0.23876047204E+02 -0.12662173523E+02  0.30377110549E+02  0.50528866786E+02  0.30000021084E+02 0.  0.
         12    1    1    2    0    0  0.23876047204E+02  0.12662173523E+02 -0.30377110549E+02  0.40659133214E+02  0.00000000000E+00 0. -1.
         11    1    3    3    0    0  0.36393141779E+01 -0.81706356011E+01  0.43006636397E+01  0.99246965604E+01  0.51100000000E-03 0. -1.
        -11    1    3    3    0    0 -0.10436156610E+02 -0.19578283408E+01  0.17322467670E+01  0.10758584280E+02  0.51100000000E-03 0.  1.
         12    1    3    3    0    0 -0.17079204772E+02 -0.25337095813E+01  0.24344200142E+02  0.29845585946E+02  0.00000000000E+00 0. -1.
</event>
<event>
 7    1  0.2432574E-011  0.5052895E+02  0.7816164E-02  0.1300438E+00
        -11   -1    0    0    0    0  0.00000000000E+00  0.00000000000E+00  0.45593999997E+02  0.45594000000E+02  0.51100000000E-03 0.  1.
         11   -1    0    0    0    0 -0.00000000000E+00 -0.00000000000E+00 -0.45593999997E+02  0.45594000000E+02  0.51100000000E-03 0. -1.
    9900012    2    1    2    0    0 -0.16256175267E+02  0.19059793614E+02  0.32025297156E+02  0.50528946582E+02  0.30000263630E+02 0.  0.
         12    1    1    2    0    0  0.16256175267E+02 -0.19059793614E+02 -0.32025297156E+02  0.40659053418E+02  0.00000000000E+00 0. -1.
         11    1    3    3    0    0  0.16270306263E+01  0.10255857681E+02  0.11447207484E+02  0.15455368157E+02  0.51100000000E-03 0. -1.
        -11    1    3    3    0    0 -0.60029625551E+01  0.74888845661E+01  0.21025330281E+02  0.23112409333E+02  0.51100000000E-03 0.  1.
         12    1    3    3    0    0 -0.11880243339E+02  0.13150513671E+01 -0.44724060972E+00  0.11961169092E+02  0.00000000000E+00 0. -1.
</event>
<event>
 7    1  0.2432574E-011  0.5052886E+02  0.7816164E-02  0.1300439E+00
        -11   -1    0    0    0    0  0.00000000000E+00  0.00000000000E+00  0.45593999997E+02  0.45594000000E+02  0.51100000000E-03 0.  1.
         11   -1    0    0    0    0 -0.00000000000E+00 -0.00000000000E+00 -0.45593999997E+02  0.45594000000E+02  0.51100000000E-03 0. -1.
    9900012    2    1    2    0    0  0.11206957597E+02 -0.10979551069E+02  0.37510251733E+02  0.50528862954E+02  0.30000009435E+02 0.  0.
         12    1    1    2    0    0 -0.11206957597E+02  0.10979551069E+02 -0.37510251733E+02  0.40659137046E+02  0.00000000000E+00 0. -1.
         11    1    3    3    0    0  0.75151998251E+01  0.11875827611E+01  0.37021482689E+00  0.76174563015E+01  0.51100000000E-03 0. -1.
        -11    1    3    3    0    0  0.10322516806E+02 -0.10106951763E+02  0.26999049281E+02  0.30621128155E+02  0.51100000000E-03 0.  1.
        -12    1    3    3    0    0 -0.66307590346E+01 -0.20601820675E+01  0.10140987626E+02  0.12290278498E+02  0.00000000000E+00 0.  1.
</event>
<event>
 7    1  0.2432574E-011  0.5052886E+02  0.7816164E-02  0.1300439E+00
        -11   -1    0    0    0    0  0.00000000000E+00  0.00000000000E+00  0.45593999997E+02  0.45594000000E+02  0.51100000000E-03 0.  1.
         11   -1    0    0    0    0 -0.00000000000E+00 -0.00000000000E+00 -0.45593999997E+02  0.45594000000E+02  0.51100000000E-03 0. -1.
    9900012    2    1    2    0    0 -0.22774456573E+02  0.25184867978E+02  0.22365422303E+02  0.50528861273E+02  0.30000004324E+02 0.  0.
         12    1    1    2    0    0  0.22774456573E+02 -0.25184867978E+02 -0.22365422303E+02  0.40659138727E+02  0.00000000000E+00 0. -1.
         11    1    3    3    0    0 -0.22249728940E+01 -0.26782020155E+00  0.18748336997E+01  0.29218544971E+01  0.51100000000E-03 0. -1.
        -11    1    3    3    0    0 -0.12765522471E+02  0.30922037838E+02  0.16250521894E+02  0.37191537345E+02  0.51100000000E-03 0.  1.
         12    1    3    3    0    0 -0.77839612077E+01 -0.54693496577E+01  0.42400667093E+01  0.10415469431E+02  0.00000000000E+00 0. -1.
</event>
<event>
 7    1  0.2432574E-011  0.5052888E+02  0.7816164E-02  0.1300439E+00
        -11   -1    0    0    0    0  0.00000000000E+00  0.00000000000E+00  0.45593999997E+02  0.45594000000E+02  0.51100000000E-03 0.  1.
         11   -1    0    0    0    0 -0.00000000000E+00 -0.00000000000E+00 -0.45593999997E+02  0.45594000000E+02  0.51100000000E-03 0. -1.
    9900012    2    1    2    0    0  0.32292015358E+02  0.20395626106E+02  0.13943023028E+02  0.50528884032E+02  0.30000073503E+02 0.  0.
         12    1    1    2    0    0 -0.32292015358E+02 -0.20395626106E+02 -0.13943023028E+02  0.40659115968E+02  0.00000000000E+00 0. -1.
         11    1    3    3    0    0 -0.32822102865E+01  0.31469456203E+01 -0.14263256208E+01  0.47655614716E+01  0.51100000000E-03 0. -1.
        -11    1    3    3    0    0  0.55202724623E+01  0.79936493794E+01  0.98525735049E+01  0.13836366698E+02  0.51100000000E-03 0.  1.
        -12    1    3    3    0    0  0.30053953182E+02  0.92550311065E+01  0.55167751442E+01  0.31926955863E+02  0.00000000000E+00 0.  1.
</event>
<event>
 7    1  0.2432574E-011  0.5052886E+02  0.7816164E-02  0.1300439E+00
        -11   -1    0    0    0    0  0.00000000000E+00  0.00000000000E+00  0.45593999997E+02  0.45594000000E+02  0.51100000000E-03 0.  1.
         11   -1    0    0    0    0 -0.00000000000E+00 -0.00000000000E+00 -0.45593999997E+02  0.45594000000E+02  0.51100000000E-03 0. -1.
    9900012    2    1    2    0    0 -0.10150982102E+02  0.14627124491E+02  0.36553667222E+02  0.50528858397E+02  0.29999995583E+02 0.  0.
         12    1    1    2    0    0  0.10150982102E+02 -0.14627124491E+02 -0.36553667222E+02  0.40659141603E+02  0.00000000000E+00 0. -1.
         11    1    3    3    0    0 -0.92270836906E+01  0.10109219442E+02  0.16593387706E+02  0.21509902533E+02  0.51100000000E-03 0. -1.
        -11    1    3    3    0    0 -0.34204924442E+01  0.19812970324E+01  0.23599723993E+02  0.23928482595E+02  0.51100000000E-03 0.  1.
        -12    1    3    3    0    0  0.24965940324E+01  0.25366080169E+01 -0.36394444774E+01  0.50904732686E+01  0.00000000000E+00 0.  1.
</event>
<event>
 7    1  0.2432574E-011  0.5052886E+02  0.7816164E-02  0.1300439E+00
        -11   -1    0    0    0    0  0.00000000000E+00  0.00000000000E+00  0.45593999997E+02  0.45594000000E+02  0.51100000000E-03 0.  1.
         11   -1    0    0    0    0 -0.00000000000E+00 -0.00000000000E+00 -0.45593999997E+02  0.45594000000E+02  0.51100000000E-03 0. -1.
    9900012    2    1    2    0    0 -0.36735720518E+02 -0.14029027554E+02 -0.10336293906E+02  0.50528858989E+02  0.29999997382E+02 0.  0.
         12    1    1    2    0    0  0.36735720518E+02  0.14029027554E+02  0.10336293906E+02  0.40659141011E+02  0.00000000000E+00 0. -1.
         11    1    3    3    0    0 -0.41607374984E+01 -0.49600110242E+01  0.22102810689E+01  0.68409640078E+01  0.51100000000E-03 0. -1.
        -11    1    3    3    0    0 -0.25763985356E+02 -0.16817132537E+02 -0.56567505930E+01  0.31282546503E+02  0.51100000000E-03 0.  1.
        -12    1    3    3    0    0 -0.68109976632E+01  0.77481160078E+01 -0.68898243820E+01  0.12405348478E+02  0.00000000000E+00 0.  1.
</event>
<event>
 7    1  0.2432574E-011  0.5052888E+02  0.7816164E-02  0.1300439E+00
        -11   -1    0    0    0    0  0.00000000000E+00  0.00000000000E+00  0.45593999997E+02  0.45594000000E+02  0.51100000000E-03 0.  1.
         11   -1    0    0    0    0 -0.00000000000E+00 -0.00000000000E+00 -0.45593999997E+02  0.45594000000E+02  0.51100000000E-03 0. -1.
    9900012    2    1    2    0    0  0.17353885265E+01  0.27154437261E+02  0.30212402693E+02  0.50528876635E+02  0.30000051020E+02 0.  0.
         12    1    1    2    0    0 -0.17353885265E+01 -0.27154437261E+02 -0.30212402693E+02  0.40659123365E+02  0.00000000000E+00 0. -1.
         11    1    3    3    0    0  0.33799523132E+01  0.37941430466E+01  0.11421085110E+02  0.12500431371E+02  0.51100000000E-03 0. -1.
        -11    1    3    3    0    0  0.90328519862E+01  0.98114382731E+01  0.11996328954E+01  0.13390140228E+02  0.51100000000E-03 0.  1.
         12    1    3    3    0    0 -0.10677415773E+02  0.13548855941E+02  0.17591684688E+02  0.24638305036E+02  0.00000000000E+00 0. -1.
</event>
<event>
 7    1  0.2432574E-011  0.5052885E+02  0.7816164E-02  0.1300439E+00
        -11   -1    0    0    0    0  0.00000000000E+00  0.00000000000E+00  0.45593999997E+02  0.45594000000E+02  0.51100000000E-03 0. -1.
         11   -1    0    0    0    0 -0.00000000000E+00 -0.00000000000E+00 -0.45593999997E+02  0.45594000000E+02  0.51100000000E-03 0.  1.
    9900012    2    1    2    0    0  0.27040481077E+02 -0.16298181928E+02 -0.25619293896E+02  0.50528848868E+02  0.29999966619E+02 0.  0.
         12    1    1    2    0    0 -0.27040481077E+02  0.16298181928E+02  0.25619293896E+02  0.40659151132E+02  0.00000000000E+00 0. -1.
         11    1    3    3    0    0 -0.27780439594E+01 -0.50464262442E+01 -0.53145119664E+01  0.78376006392E+01  0.51100000000E-03 0. -1.
        -11    1    3    3    0    0 -0.58225500682E+00 -0.67937633897E+01 -0.40477925833E+01  0.79296195966E+01  0.51100000000E-03 0.  1.
         12    1    3    3    0    0  0.30400780043E+02 -0.44579922946E+01 -0.16256989347E+02  0.34761628632E+02  0.00000000000E+00 0. -1.
</event>
<event>
 7    1  0.2432574E-011  0.5052885E+02  0.7816164E-02  0.1300439E+00
        -11   -1    0    0    0    0  0.00000000000E+00  0.00000000000E+00  0.45593999997E+02  0.45594000000E+02  0.51100000000E-03 0. -1.
         11   -1    0    0    0    0 -0.00000000000E+00 -0.00000000000E+00 -0.45593999997E+02  0.45594000000E+02  0.51100000000E-03 0.  1.
    9900012    2    1    2    0    0 -0.33213667648E+02  0.13420125682E+02 -0.19233268859E+02  0.50528854375E+02  0.29999983358E+02 0.  0.
         12    1    1    2    0    0  0.33213667648E+02 -0.13420125682E+02  0.19233268859E+02  0.40659145625E+02  0.00000000000E+00 0. -1.
         11    1    3    3    0    0 -0.13599853366E+02 -0.51754762817E+00  0.24584327481E+00  0.13611917804E+02  0.51100000000E-03 0. -1.
        -11    1    3    3    0    0 -0.22663939382E+02  0.11528475578E+02 -0.11228025498E+02  0.27796194961E+02  0.51100000000E-03 0.  1.
        -12    1    3    3    0    0  0.30501251000E+01  0.24091977325E+01 -0.82510866358E+01  0.91207416097E+01  0.00000000000E+00 0.  1.
</event>
<event>
 7    1  0.2432574E-011  0.5052886E+02  0.7816164E-02  0.1300439E+00
        -11   -1    0    0    0    0  0.00000000000E+00  0.00000000000E+00  0.45593999997E+02  0.45594000000E+02  0.51100000000E-03 0.  1.
         11   -1    0    0    0    0 -0.00000000000E+00 -0.00000000000E+00 -0.45593999997E+02  0.45594000000E+02  0.51100000000E-03 0. -1.
    9900012    2    1    2    0    0  0.51175778851E+00  0.39880857179E+02 -0.79007216098E+01  0.50528855059E+02  0.29999985438E+02 0.  0.
         12    1    1    2    0    0 -0.51175778851E+00 -0.39880857179E+02  0.79007216098E+01  0.40659144941E+02  0.00000000000E+00 0. -1.
         11    1    3    3    0    0 -0.44113344861E+01  0.12948105436E+02  0.81193728892E+00  0.13703012397E+02  0.51100000000E-03 0. -1.
        -11    1    3    3    0    0  0.31259314103E+00  0.15790257192E+01  0.66381906687E+01  0.68305645674E+01  0.51100000000E-03 0.  1.
        -12    1    3    3    0    0  0.46104991335E+01  0.25353726024E+02 -0.15350849567E+02  0.29995278095E+02  0.00000000000E+00 0.  1.
</event>
<event>
 7    1  0.2432574E-011  0.5052886E+02  0.7816164E-02  0.1300439E+00
        -11   -1    0    0    0    0  0.00000000000E+00  0.00000000000E+00  0.45593999997E+02  0.45594000000E+02  0.51100000000E-03 0. -1.
         11   -1    0    0    0    0 -0.00000000000E+00 -0.00000000000E+00 -0.45593999997E+02  0.45594000000E+02  0.51100000000E-03 0.  1.
    9900012    2    1    2    0    0  0.31156789350E+02 -0.95031226990E+01 -0.24333331626E+02  0.50528857219E+02  0.29999992004E+02 0.  0.
         12    1    1    2    0    0 -0.31156789350E+02  0.95031226990E+01  0.24333331626E+02  0.40659142781E+02  0.00000000000E+00 0. -1.
         11    1    3    3    0    0 -0.26828341004E+01 -0.28232395019E+01 -0.31466639141E+01  0.50069725528E+01  0.51100000000E-03 0.  1.
        -11    1    3    3    0    0  0.35509434251E+02 -0.52603094446E+01 -0.14904126651E+02  0.38868030150E+02  0.51100000000E-03 0. -1.
         12    1    3    3    0    0 -0.16698107997E+01 -0.14195737525E+01 -0.62825410610E+01  0.66538545167E+01  0.00000000000E+00 0. -1.
</event>
<event>
 7    1  0.2432574E-011  0.5052885E+02  0.7816164E-02  0.1300439E+00
        -11   -1    0    0    0    0  0.00000000000E+00  0.00000000000E+00  0.45593999997E+02  0.45594000000E+02  0.51100000000E-03 0.  1.
         11   -1    0    0    0    0 -0.00000000000E+00 -0.00000000000E+00 -0.45593999997E+02  0.45594000000E+02  0.51100000000E-03 0. -1.
    9900012    2    1    2    0    0 -0.20767661562E+01  0.13968731000E+02  0.38127781533E+02  0.50528854312E+02  0.29999983167E+02 0.  0.
         12    1    1    2    0    0  0.20767661562E+01 -0.13968731000E+02 -0.38127781533E+02  0.40659145688E+02  0.00000000000E+00 0. -1.
         11    1    3    3    0    0  0.16454105078E+01 -0.22368373250E+01 -0.14376537526E+01  0.31269258915E+01  0.51100000000E-03 0. -1.
        -11    1    3    3    0    0 -0.86700935535E+01  0.64337624647E+00  0.20694007156E+02  0.22446077334E+02  0.51100000000E-03 0.  1.
        -12    1    3    3    0    0  0.49479168895E+01  0.15562192078E+02  0.18871428130E+02  0.24955851087E+02  0.00000000000E+00 0.  1.
</event>
<event>
 7    1  0.2432574E-011  0.5052885E+02  0.7816164E-02  0.1300439E+00
        -11   -1    0    0    0    0  0.00000000000E+00  0.00000000000E+00  0.45593999997E+02  0.45594000000E+02  0.51100000000E-03 0.  1.
         11   -1    0    0    0    0 -0.00000000000E+00 -0.00000000000E+00 -0.45593999997E+02  0.45594000000E+02  0.51100000000E-03 0. -1.
    9900012    2    1    2    0    0  0.34968014223E+01  0.10724679763E+02  0.39063025664E+02  0.50528851580E+02  0.29999974864E+02 0.  0.
         12    1    1    2    0    0 -0.34968014223E+01 -0.10724679763E+02 -0.39063025664E+02  0.40659148420E+02  0.00000000000E+00 0. -1.
         11    1    3    3    0    0  0.38577279069E+01 -0.35891928516E+00 -0.30960587617E+01  0.49594826115E+01  0.51100000000E-03 0. -1.
        -11    1    3    3    0    0  0.62308631100E+01  0.37681176838E+01  0.14851151891E+02  0.16540226079E+02  0.51100000000E-03 0.  1.
         12    1    3    3    0    0 -0.65917895946E+01  0.73154813649E+01  0.27307932534E+02  0.29029142890E+02  0.00000000000E+00 0. -1.
</event>
<event>
 7    1  0.2432574E-011  0.5052894E+02  0.7816164E-02  0.1300439E+00
        -11   -1    0    0    0    0  0.00000000000E+00  0.00000000000E+00  0.45593999997E+02  0.45594000000E+02  0.51100000000E-03 0.  1.
         11   -1    0    0    0    0 -0.00000000000E+00 -0.00000000000E+00 -0.45593999997E+02  0.45594000000E+02  0.51100000000E-03 0. -1.
    9900012    2    1    2    0    0 -0.16368413979E+02 -0.35849036984E+02  0.10004054423E+02  0.50528935405E+02  0.30000229655E+02 0.  0.
         12    1    1    2    0    0  0.16368413979E+02  0.35849036984E+02 -0.10004054423E+02  0.40659064595E+02  0.00000000000E+00 0. -1.
         11    1    3    3    0    0 -0.12757556006E+02 -0.25840535589E+02  0.44804082208E+01  0.29164405923E+02  0.51100000000E-03 0. -1.
        -11    1    3    3    0    0  0.49941242231E+01 -0.10891158276E+02  0.34701002758E+01  0.12473980982E+02  0.51100000000E-03 0.  1.
         12    1    3    3    0    0 -0.86049821959E+01  0.88265688049E+00  0.20535459259E+01  0.88905485000E+01  0.00000000000E+00 0. -1.
</event>
<event>
 7    1  0.2432574E-011  0.5052886E+02  0.7816164E-02  0.1300439E+00
        -11   -1    0    0    0    0  0.00000000000E+00  0.00000000000E+00  0.45593999997E+02  0.45594000000E+02  0.51100000000E-03 0.  1.
         11   -1    0    0    0    0 -0.00000000000E+00 -0.00000000000E+00 -0.45593999997E+02  0.45594000000E+02  0.51100000000E-03 0. -1.
    9900012    2    1    2    0    0  0.26593127343E+02  0.21030163464E+02  0.22443340516E+02  0.50528859199E+02  0.29999998020E+02 0.  0.
         12    1    1    2    0    0 -0.26593127343E+02 -0.21030163464E+02 -0.22443340516E+02  0.40659140801E+02  0.00000000000E+00 0. -1.
         11    1    3    3    0    0  0.11125082573E+01 -0.49070484098E+01  0.63172892125E+01  0.80761960089E+01  0.51100000000E-03 0. -1.
        -11    1    3    3    0    0  0.14098686863E+02  0.96231951889E+01  0.14669729277E+02  0.22507328012E+02  0.51100000000E-03 0.  1.
         12    1    3    3    0    0  0.11381932222E+02  0.16314016685E+02  0.14563220264E+01  0.19945335178E+02  0.00000000000E+00 0. -1.
</event>
<event>
 7    1  0.2432574E-011  0.5052887E+02  0.7816164E-02  0.1300439E+00
        -11   -1    0    0    0    0  0.00000000000E+00  0.00000000000E+00  0.45593999997E+02  0.45594000000E+02  0.51100000000E-03 0. -1.
         11   -1    0    0    0    0 -0.00000000000E+00 -0.00000000000E+00 -0.45593999997E+02  0.45594000000E+02  0.51100000000E-03 0.  1.
    9900012    2    1    2    0    0  0.12606390884E+02 -0.43000873936E+01 -0.38415533388E+02  0.50528867591E+02  0.30000023531E+02 0.  0.
         12    1    1    2    0    0 -0.12606390884E+02  0.43000873936E+01  0.38415533388E+02  0.40659132409E+02  0.00000000000E+00 0. -1.
         11    1    3    3    0    0 -0.45327507388E+01  0.26860126217E-01 -0.55575418139E+01  0.71716680069E+01  0.51100000000E-03 0. -1.
        -11    1    3    3    0    0  0.47402452419E+01 -0.14596052527E+00  0.27075880261E+01  0.54609763421E+01  0.51100000000E-03 0.  1.
        -12    1    3    3    0    0  0.12398896381E+02 -0.41809869946E+01 -0.35565579601E+02  0.37896223242E+02  0.00000000000E+00 0.  1.
</event>
<event>
 7    1  0.2432574E-011  0.5052885E+02  0.7816164E-02  0.1300439E+00
        -11   -1    0    0    0    0  0.00000000000E+00  0.00000000000E+00  0.45593999997E+02  0.45594000000E+02  0.51100000000E-03 0.  1.
         11   -1    0    0    0    0 -0.00000000000E+00 -0.00000000000E+00 -0.45593999997E+02  0.45594000000E+02  0.51100000000E-03 0. -1.
    9900012    2    1    2    0    0  0.33203665731E+01 -0.36362263767E+02  0.17886517447E+02  0.50528848916E+02  0.29999966766E+02 0.  0.
         12    1    1    2    0    0 -0.33203665731E+01  0.36362263767E+02 -0.17886517447E+02  0.40659151084E+02  0.00000000000E+00 0. -1.
         11    1    3    3    0    0 -0.66577858219E+00 -0.39905241929E+01 -0.19505824564E+01  0.44913602210E+01  0.51100000000E-03 0. -1.
        -11    1    3    3    0    0  0.81610777254E+00  0.42088661110E+01 -0.34494860168E-01  0.42873973449E+01  0.51100000000E-03 0.  1.
        -12    1    3    3    0    0  0.31700373827E+01 -0.36580605685E+02  0.19871594763E+02  0.41750091350E+02  0.00000000000E+00 0.  1.
</event>
<event>
 7    1  0.2432574E-011  0.5052885E+02  0.7816164E-02  0.1300439E+00
        -11   -1    0    0    0    0  0.00000000000E+00  0.00000000000E+00  0.45593999997E+02  0.45594000000E+02  0.51100000000E-03 0.  1.
         11   -1    0    0    0    0 -0.00000000000E+00 -0.00000000000E+00 -0.45593999997E+02  0.45594000000E+02  0.51100000000E-03 0. -1.
    9900012    2    1    2    0    0 -0.22013825139E+02  0.26698633245E+02  0.21348089045E+02  0.50528850719E+02  0.29999972245E+02 0.  0.
         12    1    1    2    0    0  0.22013825139E+02 -0.26698633245E+02 -0.21348089045E+02  0.40659149281E+02  0.00000000000E+00 0. -1.
         11    1    3    3    0    0  0.11337101481E+01 -0.24113089776E+01 -0.22676154115E+01  0.34988268893E+01  0.51100000000E-03 0. -1.
        -11    1    3    3    0    0 -0.16145685347E+02  0.14420737379E+02  0.21688564831E+02  0.30643672537E+02  0.51100000000E-03 0.  1.
        -12    1    3    3    0    0 -0.70018499397E+01  0.14689204844E+02  0.19271396247E+01  0.16386351292E+02  0.00000000000E+00 0.  1.
</event>
<event>
 7    1  0.2432574E-011  0.5052887E+02  0.7816164E-02  0.1300439E+00
        -11   -1    0    0    0    0  0.00000000000E+00  0.00000000000E+00  0.45593999997E+02  0.45594000000E+02  0.51100000000E-03 0. -1.
         11   -1    0    0    0    0 -0.00000000000E+00 -0.00000000000E+00 -0.45593999997E+02  0.45594000000E+02  0.51100000000E-03 0.  1.
    9900012    2    1    2    0    0  0.67764987376E+01 -0.34658574277E+02 -0.20150115113E+02  0.50528870089E+02  0.30000031121E+02 0.  0.
         12    1    1    2    0    0 -0.67764987376E+01  0.34658574277E+02  0.20150115113E+02  0.40659129911E+02  0.00000000000E+00 0. -1.
         11    1    3    3    0    0  0.22931318197E+01 -0.15824451135E+02 -0.61030533994E+01  0.17114875644E+02  0.51100000000E-03 0. -1.
        -11    1    3    3    0    0  0.48383542230E+01 -0.86758931601E+01  0.55199329772E+01  0.11364438132E+02  0.51100000000E-03 0.  1.
         12    1    3    3    0    0 -0.35498730515E+00 -0.10158229983E+02 -0.19566994691E+02  0.22049556313E+02  0.00000000000E+00 0. -1.
</event>
<event>
 7    1  0.2432574E-011  0.5052885E+02  0.7816164E-02  0.1300439E+00
        -11   -1    0    0    0    0  0.00000000000E+00  0.00000000000E+00  0.45593999997E+02  0.45594000000E+02  0.51100000000E-03 0.  1.
         11   -1    0    0    0    0 -0.00000000000E+00 -0.00000000000E+00 -0.45593999997E+02  0.45594000000E+02  0.51100000000E-03 0. -1.
    9900012    2    1    2    0    0 -0.29770037612E+02  0.24888975251E+02  0.12142904651E+02  0.50528851438E+02  0.29999974430E+02 0.  0.
         12    1    1    2    0    0  0.29770037612E+02 -0.24888975251E+02 -0.12142904651E+02  0.40659148562E+02  0.00000000000E+00 0. -1.
         11    1    3    3    0    0 -0.56405825695E+01  0.30343405143E+01 -0.63226545173E+01  0.89999641381E+01  0.51100000000E-03 0. -1.
        -11    1    3    3    0    0 -0.17671147900E+02  0.19447649929E+02  0.55017247260E+01  0.26846778784E+02  0.51100000000E-03 0.  1.
        -12    1    3    3    0    0 -0.64583071427E+01  0.24069848074E+01  0.12963834442E+02  0.14682108515E+02  0.00000000000E+00 0.  1.
</event>
<event>
 7    1  0.2432574E-011  0.5052884E+02  0.7816164E-02  0.1300439E+00
        -11   -1    0    0    0    0  0.00000000000E+00  0.00000000000E+00  0.45593999997E+02  0.45594000000E+02  0.51100000000E-03 0.  1.
         11   -1    0    0    0    0 -0.00000000000E+00 -0.00000000000E+00 -0.45593999997E+02  0.45594000000E+02  0.51100000000E-03 0. -1.
    9900012    2    1    2    0    0 -0.97074088591E+01  0.36918522542E+02  0.13998447664E+02  0.50528835837E+02  0.29999927011E+02 0.  0.
         12    1    1    2    0    0  0.97074088591E+01 -0.36918522542E+02 -0.13998447664E+02  0.40659164163E+02  0.00000000000E+00 0. -1.
         11    1    3    3    0    0 -0.86044779862E+01  0.14893038904E+02  0.12044962781E+01  0.17242113001E+02  0.51100000000E-03 0. -1.
        -11    1    3    3    0    0  0.14207508257E+01  0.21319704715E+02  0.17685990315E+02  0.27737025719E+02  0.51100000000E-03 0.  1.
        -12    1    3    3    0    0 -0.25236816986E+01  0.70577892261E+00 -0.48920389296E+01  0.55496971172E+01  0.00000000000E+00 0.  1.
</event>
<event>
 7    1  0.2432574E-011  0.5052886E+02  0.7816164E-02  0.1300439E+00
        -11   -1    0    0    0    0  0.00000000000E+00  0.00000000000E+00  0.45593999997E+02  0.45594000000E+02  0.51100000000E-03 0.  1.
         11   -1    0    0    0    0 -0.00000000000E+00 -0.00000000000E+00 -0.45593999997E+02  0.45594000000E+02  0.51100000000E-03 0. -1.
    9900012    2    1    2    0    0 -0.36338915769E+02 -0.24653869776E+01  0.18071271784E+02  0.50528858394E+02  0.29999995576E+02 0.  0.
         12    1    1    2    0    0  0.36338915769E+02  0.24653869776E+01 -0.18071271784E+02  0.40659141606E+02  0.00000000000E+00 0. -1.
         11    1    3    3    0    0  0.80504860979E+00  0.15108861974E+01 -0.13371775878E+01  0.21723085711E+01  0.51100000000E-03 0. -1.
        -11    1    3    3    0    0 -0.20279008000E+02  0.92354798617E+01  0.13802552433E+02  0.26211499531E+02  0.51100000000E-03 0.  1.
        -12    1    3    3    0    0 -0.16864956379E+02 -0.13211753037E+02  0.56058969388E+01  0.22145050292E+02  0.00000000000E+00 0.  1.
</event>
<event>
 7    1  0.2432574E-011  0.5052876E+02  0.7816164E-02  0.1300439E+00
        -11   -1    0    0    0    0  0.00000000000E+00  0.00000000000E+00  0.45593999997E+02  0.45594000000E+02  0.51100000000E-03 0.  1.
         11   -1    0    0    0    0 -0.00000000000E+00 -0.00000000000E+00 -0.45593999997E+02  0.45594000000E+02  0.51100000000E-03 0. -1.
    9900012    2    1    2    0    0  0.28037894132E+02 -0.11458814302E+02  0.27124641969E+02  0.50528755854E+02  0.29999683892E+02 0.  0.
         12    1    1    2    0    0 -0.28037894132E+02  0.11458814302E+02 -0.27124641969E+02  0.40659244146E+02  0.00000000000E+00 0. -1.
         11    1    3    3    0    0  0.36597556676E+01 -0.35539339524E+00 -0.34278584474E+01  0.50269602951E+01  0.51100000000E-03 0. -1.
        -11    1    3    3    0    0  0.17908602330E+02 -0.13694500497E+02  0.11694435192E+02  0.25397188742E+02  0.51100000000E-03 0.  1.
        -12    1    3    3    0    0  0.64695361341E+01  0.25910795903E+01  0.18858065225E+02  0.20104606817E+02  0.00000000000E+00 0.  1.
</event>
<event>
 7    1  0.2432574E-011  0.5052886E+02  0.7816164E-02  0.1300439E+00
        -11   -1    0    0    0    0  0.00000000000E+00  0.00000000000E+00  0.45593999997E+02  0.45594000000E+02  0.51100000000E-03 0.  1.
         11   -1    0    0    0    0 -0.00000000000E+00 -0.00000000000E+00 -0.45593999997E+02  0.45594000000E+02  0.51100000000E-03 0. -1.
    9900012    2    1    2    0    0  0.50994773894E+01 -0.40002105660E+02  0.51954488085E+01  0.50528858159E+02  0.29999994861E+02 0.  0.
         12    1    1    2    0    0 -0.50994773894E+01  0.40002105660E+02 -0.51954488085E+01  0.40659141841E+02  0.00000000000E+00 0. -1.
         11    1    3    3    0    0 -0.27768686936E+01 -0.79166813672E+01 -0.58891735255E+01  0.10250229689E+02  0.51100000000E-03 0. -1.
        -11    1    3    3    0    0  0.13019978898E+02 -0.14176813657E+02  0.98056480213E+01  0.21602144092E+02  0.51100000000E-03 0.  1.
         12    1    3    3    0    0 -0.51436328148E+01 -0.17908610636E+02  0.12789743127E+01  0.18676484378E+02  0.00000000000E+00 0. -1.
</event>
<event>
 7    1  0.2432574E-011  0.5052886E+02  0.7816164E-02  0.1300439E+00
        -11   -1    0    0    0    0  0.00000000000E+00  0.00000000000E+00  0.45593999997E+02  0.45594000000E+02  0.51100000000E-03 0. -1.
         11   -1    0    0    0    0 -0.00000000000E+00 -0.00000000000E+00 -0.45593999997E+02  0.45594000000E+02  0.51100000000E-03 0.  1.
    9900012    2    1    2    0    0  0.38826988943E+02 -0.11725398399E+02 -0.28540618123E+01  0.50528859493E+02  0.29999998914E+02 0.  0.
         12    1    1    2    0    0 -0.38826988943E+02  0.11725398399E+02  0.28540618123E+01  0.40659140507E+02  0.00000000000E+00 0. -1.
         11    1    3    3    0    0  0.17982399227E+02 -0.13648714120E+02  0.22851495031E+01  0.22690878952E+02  0.51100000000E-03 0. -1.
        -11    1    3    3    0    0  0.16155407020E+02 -0.61713149695E+01 -0.63122477600E+01  0.18409964054E+02  0.51100000000E-03 0.  1.
         12    1    3    3    0    0  0.46891826963E+01  0.80946306909E+01  0.11730364446E+01  0.94280164871E+01  0.00000000000E+00 0. -1.
</event>
<event>
 7    1  0.2432574E-011  0.5052886E+02  0.7816164E-02  0.1300439E+00
        -11   -1    0    0    0    0  0.00000000000E+00  0.00000000000E+00  0.45593999997E+02  0.45594000000E+02  0.51100000000E-03 0. -1.
         11   -1    0    0    0    0 -0.00000000000E+00 -0.00000000000E+00 -0.45593999997E+02  0.45594000000E+02  0.51100000000E-03 0.  1.
    9900012    2    1    2    0    0 -0.34189687399E+02 -0.92892202602E+01 -0.19948466294E+02  0.50528860253E+02  0.30000001225E+02 0.  0.
         12    1    1    2    0    0  0.34189687399E+02  0.92892202602E+01  0.19948466294E+02  0.40659139747E+02  0.00000000000E+00 0. -1.
         11    1    3    3    0    0 -0.94903741050E+01  0.27561402194E+01 -0.14653172944E+02  0.17674246438E+02  0.51100000000E-03 0. -1.
        -11    1    3    3    0    0 -0.18745761390E+02 -0.34245410156E+01  0.32545549311E+01  0.19331921253E+02  0.51100000000E-03 0.  1.
         12    1    3    3    0    0 -0.59535519042E+01 -0.86208194641E+01 -0.85498482814E+01  0.13522692563E+02  0.00000000000E+00 0. -1.
</event>
<event>
 7    1  0.2432574E-011  0.5052886E+02  0.7816164E-02  0.1300439E+00
        -11   -1    0    0    0    0  0.00000000000E+00  0.00000000000E+00  0.45593999997E+02  0.45594000000E+02  0.51100000000E-03 0. -1.
         11   -1    0    0    0    0 -0.00000000000E+00 -0.00000000000E+00 -0.45593999997E+02  0.45594000000E+02  0.51100000000E-03 0.  1.
    9900012    2    1    2    0    0 -0.37763465822E+02 -0.14739398659E+02 -0.31363298670E+01  0.50528858485E+02  0.29999995851E+02 0.  0.
         12    1    1    2    0    0  0.37763465822E+02  0.14739398659E+02  0.31363298670E+01  0.40659141515E+02  0.00000000000E+00 0. -1.
         11    1    3    3    0    0 -0.66624161885E+01 -0.12695353607E+02 -0.78303537307E+01  0.16336285761E+02  0.51100000000E-03 0. -1.
        -11    1    3    3    0    0 -0.11136882454E+02 -0.20828449062E+01 -0.45280533639E+01  0.12201297523E+02  0.51100000000E-03 0.  1.
         12    1    3    3    0    0 -0.19964167179E+02  0.38799854044E-01  0.92220772275E+01  0.21991275201E+02  0.00000000000E+00 0. -1.
</event>
<event>
 7    1  0.2432574E-011  0.5052883E+02  0.7816164E-02  0.1300439E+00
        -11   -1    0    0    0    0  0.00000000000E+00  0.00000000000E+00  0.45593999997E+02  0.45594000000E+02  0.51100000000E-03 0.  1.
         11   -1    0    0    0    0 -0.00000000000E+00 -0.00000000000E+00 -0.45593999997E+02  0.45594000000E+02  0.51100000000E-03 0. -1.
    9900012    2    1    2    0    0  0.10581702519E+02 -0.35682840630E+02  0.16368574585E+02  0.50528834027E+02  0.29999921510E+02 0.  0.
         12    1    1    2    0    0 -0.10581702519E+02  0.35682840630E+02 -0.16368574585E+02  0.40659165973E+02  0.00000000000E+00 0. -1.
         11    1    3    3    0    0 -0.13865573118E+01 -0.11166653465E+02  0.19732932449E+01  0.11424122604E+02  0.51100000000E-03 0. -1.
        -11    1    3    3    0    0  0.31830149308E+01 -0.49315062377E+01 -0.67698334397E+01  0.89600213663E+01  0.51100000000E-03 0.  1.
        -12    1    3    3    0    0  0.87852449003E+01 -0.19584680928E+02  0.21165114780E+02  0.30144690057E+02  0.00000000000E+00 0.  1.
</event>
<event>
 7    1  0.2432574E-011  0.5052886E+02  0.7816164E-02  0.1300439E+00
        -11   -1    0    0    0    0  0.00000000000E+00  0.00000000000E+00  0.45593999997E+02  0.45594000000E+02  0.51100000000E-03 0.  1.
         11   -1    0    0    0    0 -0.00000000000E+00 -0.00000000000E+00 -0.45593999997E+02  0.45594000000E+02  0.51100000000E-03 0. -1.
    9900012    2    1    2    0    0 -0.30049062079E+02 -0.26809954411E+02  0.56076889967E+01  0.50528856339E+02  0.29999989329E+02 0.  0.
         12    1    1    2    0    0  0.30049062079E+02  0.26809954411E+02 -0.56076889967E+01  0.40659143661E+02  0.00000000000E+00 0. -1.
         11    1    3    3    0    0 -0.58185648733E+01  0.94010140379E+00 -0.80868938640E+00  0.59492408439E+01  0.51100000000E-03 0. -1.
        -11    1    3    3    0    0 -0.10996583411E+02 -0.10237459089E+02  0.14793346030E+02  0.21084911722E+02  0.51100000000E-03 0.  1.
         12    1    3    3    0    0 -0.13233913795E+02 -0.17512596726E+02 -0.83769676472E+01  0.23494703773E+02  0.00000000000E+00 0. -1.
</event>
<event>
 7    1  0.2432574E-011  0.5052886E+02  0.7816164E-02  0.1300439E+00
        -11   -1    0    0    0    0  0.00000000000E+00  0.00000000000E+00  0.45593999997E+02  0.45594000000E+02  0.51100000000E-03 0.  1.
         11   -1    0    0    0    0 -0.00000000000E+00 -0.00000000000E+00 -0.45593999997E+02  0.45594000000E+02  0.51100000000E-03 0. -1.
    9900012    2    1    2    0    0 -0.11840087612E+02 -0.32497898040E+02  0.21374394652E+02  0.50528858366E+02  0.29999995490E+02 0.  0.
         12    1    1    2    0    0  0.11840087612E+02  0.32497898040E+02 -0.21374394652E+02  0.40659141634E+02  0.00000000000E+00 0. -1.
         11    1    3    3    0    0  0.63352344923E+01 -0.65022560916E+01  0.61782699478E+01  0.10981145212E+02  0.51100000000E-03 0. -1.
        -11    1    3    3    0    0 -0.20605635621E+01 -0.18691568248E+02  0.72813817895E+01  0.20165296100E+02  0.51100000000E-03 0.  1.
        -12    1    3    3    0    0 -0.16114758542E+02 -0.73040736998E+01  0.79147429152E+01  0.19382417055E+02  0.00000000000E+00 0.  1.
</event>
<event>
 7    1  0.2432574E-011  0.5052887E+02  0.7816164E-02  0.1300439E+00
        -11   -1    0    0    0    0  0.00000000000E+00  0.00000000000E+00  0.45593999997E+02  0.45594000000E+02  0.51100000000E-03 0.  1.
         11   -1    0    0    0    0 -0.00000000000E+00 -0.00000000000E+00 -0.45593999997E+02  0.45594000000E+02  0.51100000000E-03 0. -1.
    9900012    2    1    2    0    0  0.11486224150E+02 -0.15202608578E+02  0.35918133618E+02  0.50528868487E+02  0.30000026253E+02 0.  0.
         12    1    1    2    0    0 -0.11486224150E+02  0.15202608578E+02 -0.35918133618E+02  0.40659131513E+02  0.00000000000E+00 0. -1.
         11    1    3    3    0    0  0.41132919733E+00 -0.18012733547E+02  0.10949636045E+02  0.21083697288E+02  0.51100000000E-03 0. -1.
        -11    1    3    3    0    0 -0.12103637836E+01 -0.12399342682E+01  0.75643465686E+01  0.77602678271E+01  0.51100000000E-03 0.  1.
         12    1    3    3    0    0  0.12285258737E+02  0.40500592381E+01  0.17404151004E+02  0.21684903372E+02  0.00000000000E+00 0. -1.
</event>
<event>
 7    1  0.2432574E-011  0.5052886E+02  0.7816164E-02  0.1300439E+00
        -11   -1    0    0    0    0  0.00000000000E+00  0.00000000000E+00  0.45593999997E+02  0.45594000000E+02  0.51100000000E-03 0.  1.
         11   -1    0    0    0    0 -0.00000000000E+00 -0.00000000000E+00 -0.45593999997E+02  0.45594000000E+02  0.51100000000E-03 0. -1.
    9900012    2    1    2    0    0 -0.21899829125E+02  0.31458340805E+02  0.13562311253E+02  0.50528855784E+02  0.29999987640E+02 0.  0.
         12    1    1    2    0    0  0.21899829125E+02 -0.31458340805E+02 -0.13562311253E+02  0.40659144216E+02  0.00000000000E+00 0. -1.
         11    1    3    3    0    0 -0.30984626744E+01  0.19029836637E+02  0.46421600932E+01  0.19831409530E+02  0.51100000000E-03 0.  1.
        -11    1    3    3    0    0 -0.63292800140E+01  0.14333862976E+00 -0.52106754098E+01  0.81994798583E+01  0.51100000000E-03 0. -1.
         12    1    3    3    0    0 -0.12472086436E+02  0.12285165538E+02  0.14130826569E+02  0.22497966395E+02  0.00000000000E+00 0. -1.
</event>
<event>
 7    1  0.2432574E-011  0.5052888E+02  0.7816164E-02  0.1300439E+00
        -11   -1    0    0    0    0  0.00000000000E+00  0.00000000000E+00  0.45593999997E+02  0.45594000000E+02  0.51100000000E-03 0.  1.
         11   -1    0    0    0    0 -0.00000000000E+00 -0.00000000000E+00 -0.45593999997E+02  0.45594000000E+02  0.51100000000E-03 0. -1.
    9900012    2    1    2    0    0 -0.17468371404E+02  0.35958176399E+02 -0.74181826188E+01  0.50528881923E+02  0.30000067092E+02 0.  0.
         12    1    1    2    0    0  0.17468371404E+02 -0.35958176399E+02  0.74181826188E+01  0.40659118077E+02  0.00000000000E+00 0. -1.
         11    1    3    3    0    0  0.15022322195E+01  0.78863751674E+01  0.34021801068E+01  0.87193144606E+01  0.51100000000E-03 0. -1.
        -11    1    3    3    0    0 -0.56525767637E+01  0.97763777649E+00  0.51025236950E+01  0.76774441067E+01  0.51100000000E-03 0.  1.
         12    1    3    3    0    0 -0.13318026860E+02  0.27094163455E+02 -0.15922886421E+02  0.34132123355E+02  0.00000000000E+00 0. -1.
</event>
<event>
 7    1  0.2432574E-011  0.5052884E+02  0.7816164E-02  0.1300439E+00
        -11   -1    0    0    0    0  0.00000000000E+00  0.00000000000E+00  0.45593999997E+02  0.45594000000E+02  0.51100000000E-03 0. -1.
         11   -1    0    0    0    0 -0.00000000000E+00 -0.00000000000E+00 -0.45593999997E+02  0.45594000000E+02  0.51100000000E-03 0.  1.
    9900012    2    1    2    0    0  0.67170036261E+01 -0.40081335367E+02 -0.12393153750E+01  0.50528837624E+02  0.29999932442E+02 0.  0.
         12    1    1    2    0    0 -0.67170036261E+01  0.40081335367E+02  0.12393153750E+01  0.40659162376E+02  0.00000000000E+00 0. -1.
         11    1    3    3    0    0 -0.56515247002E+01 -0.21467988096E+02 -0.31744825478E+01  0.22425244348E+02  0.51100000000E-03 0.  1.
        -11    1    3    3    0    0 -0.18361551985E+01  0.50246080525E+00  0.37637664429E+01  0.42178040343E+01  0.51100000000E-03 0. -1.
        -12    1    3    3    0    0  0.14204683525E+02 -0.19115808076E+02 -0.18285992700E+01  0.23885789242E+02  0.00000000000E+00 0.  1.
</event>
<event>
 7    1  0.2432574E-011  0.5052886E+02  0.7816164E-02  0.1300439E+00
        -11   -1    0    0    0    0  0.00000000000E+00  0.00000000000E+00  0.45593999997E+02  0.45594000000E+02  0.51100000000E-03 0.  1.
         11   -1    0    0    0    0 -0.00000000000E+00 -0.00000000000E+00 -0.45593999997E+02  0.45594000000E+02  0.51100000000E-03 0. -1.
    9900012    2    1    2    0    0  0.17306841173E+02  0.27954463888E+02  0.23920432014E+02  0.50528857481E+02  0.29999992800E+02 0.  0.
         12    1    1    2    0    0 -0.17306841173E+02 -0.27954463888E+02 -0.23920432014E+02  0.40659142519E+02  0.00000000000E+00 0. -1.
         11    1    3    3    0    0 -0.14472448041E+01  0.53433439913E+01  0.10722572015E+02  0.12067286083E+02  0.51100000000E-03 0. -1.
        -11    1    3    3    0    0  0.11968042868E+02  0.15059020395E+02  0.18773344871E+02  0.26878367199E+02  0.51100000000E-03 0.  1.
        -12    1    3    3    0    0  0.67860431094E+01  0.75520995008E+01 -0.55754848729E+01  0.11583204199E+02  0.00000000000E+00 0.  1.
</event>
<event>
 7    1  0.2432574E-011  0.5052885E+02  0.7816164E-02  0.1300439E+00
        -11   -1    0    0    0    0  0.00000000000E+00  0.00000000000E+00  0.45593999997E+02  0.45594000000E+02  0.51100000000E-03 0. -1.
         11   -1    0    0    0    0 -0.00000000000E+00 -0.00000000000E+00 -0.45593999997E+02  0.45594000000E+02  0.51100000000E-03 0.  1.
    9900012    2    1    2    0    0 -0.18405924449E+01  0.40175155186E+02 -0.59778977624E+01  0.50528854209E+02  0.29999982854E+02 0.  0.
         12    1    1    2    0    0  0.18405924449E+01 -0.40175155186E+02  0.59778977624E+01  0.40659145791E+02  0.00000000000E+00 0. -1.
         11    1    3    3    0    0 -0.54628641255E+01  0.11266949692E+01 -0.22723898521E+01  0.60229628845E+01  0.51100000000E-03 0. -1.
        -11    1    3    3    0    0 -0.60693959700E+01  0.14978691512E+02  0.53489363621E+01  0.17023803550E+02  0.51100000000E-03 0.  1.
        -12    1    3    3    0    0  0.96916676505E+01  0.24069768705E+02 -0.90544442724E+01  0.27482087774E+02  0.00000000000E+00 0.  1.
</event>
<event>
 7    1  0.2432574E-011  0.5052881E+02  0.7816164E-02  0.1300439E+00
        -11   -1    0    0    0    0  0.00000000000E+00  0.00000000000E+00  0.45593999997E+02  0.45594000000E+02  0.51100000000E-03 0.  1.
         11   -1    0    0    0    0 -0.00000000000E+00 -0.00000000000E+00 -0.45593999997E+02  0.45594000000E+02  0.51100000000E-03 0. -1.
    9900012    2    1    2    0    0  0.17443004705E+02 -0.22136970444E+02  0.29306410541E+02  0.50528811956E+02  0.29999854422E+02 0.  0.
         12    1    1    2    0    0 -0.17443004705E+02  0.22136970444E+02 -0.29306410541E+02  0.40659188044E+02  0.00000000000E+00 0. -1.
         11    1    3    3    0    0  0.23382345478E+01 -0.42681146546E+01 -0.39878562484E+01  0.62918313093E+01  0.51100000000E-03 0. -1.
        -11    1    3    3    0    0 -0.17109215197E+01  0.21184779042E+01  0.15698417635E+01  0.31431838160E+01  0.51100000000E-03 0.  1.
        -12    1    3    3    0    0  0.16815691677E+02 -0.19987333694E+02  0.31724425026E+02  0.41093796831E+02  0.00000000000E+00 0.  1.
</event>
<event>
 7    1  0.2432574E-011  0.5052887E+02  0.7816164E-02  0.1300439E+00
        -11   -1    0    0    0    0  0.00000000000E+00  0.00000000000E+00  0.45593999997E+02  0.45594000000E+02  0.51100000000E-03 0. -1.
         11   -1    0    0    0    0 -0.00000000000E+00 -0.00000000000E+00 -0.45593999997E+02  0.45594000000E+02  0.51100000000E-03 0.  1.
    9900012    2    1    2    0    0  0.21589615704E+02  0.29771498557E+00 -0.34452353755E+02  0.50528870401E+02  0.30000032072E+02 0.  0.
         12    1    1    2    0    0 -0.21589615704E+02 -0.29771498557E+00  0.34452353755E+02  0.40659129599E+02  0.00000000000E+00 0. -1.
         11    1    3    3    0    0 -0.54624898392E+01 -0.22885581651E+01 -0.45210156067E+01  0.74508976704E+01  0.51100000000E-03 0. -1.
        -11    1    3    3    0    0  0.11881569608E+02 -0.57675253285E+01 -0.16654803113E+02  0.21256022952E+02  0.51100000000E-03 0.  1.
         12    1    3    3    0    0  0.15170535936E+02  0.83537984792E+01 -0.13276535035E+02  0.21821949779E+02  0.00000000000E+00 0. -1.
</event>
<event>
 7    1  0.2432574E-011  0.5052887E+02  0.7816164E-02  0.1300439E+00
        -11   -1    0    0    0    0  0.00000000000E+00  0.00000000000E+00  0.45593999997E+02  0.45594000000E+02  0.51100000000E-03 0. -1.
         11   -1    0    0    0    0 -0.00000000000E+00 -0.00000000000E+00 -0.45593999997E+02  0.45594000000E+02  0.51100000000E-03 0.  1.
    9900012    2    1    2    0    0  0.29662186310E+02 -0.48085854104E+01 -0.27389729973E+02  0.50528866975E+02  0.30000021657E+02 0.  0.
         12    1    1    2    0    0 -0.29662186310E+02  0.48085854104E+01  0.27389729973E+02  0.40659133025E+02  0.00000000000E+00 0. -1.
         11    1    3    3    0    0  0.47656675744E+01 -0.47086999717E+01 -0.10522392149E+02  0.12474140438E+02  0.51100000000E-03 0. -1.
        -11    1    3    3    0    0  0.12105034113E+02  0.82180637932E+01 -0.17466554715E+02  0.22784840514E+02  0.51100000000E-03 0.  1.
        -12    1    3    3    0    0  0.12791484623E+02 -0.83179492318E+01  0.59921689130E+00  0.15269886023E+02  0.00000000000E+00 0.  1.
</event>
<event>
 7    1  0.2432574E-011  0.5052886E+02  0.7816164E-02  0.1300439E+00
        -11   -1    0    0    0    0  0.00000000000E+00  0.00000000000E+00  0.45593999997E+02  0.45594000000E+02  0.51100000000E-03 0. -1.
         11   -1    0    0    0    0 -0.00000000000E+00 -0.00000000000E+00 -0.45593999997E+02  0.45594000000E+02  0.51100000000E-03 0.  1.
    9900012    2    1    2    0    0  0.12484975952E+02  0.28015521486E+02 -0.26691222151E+02  0.50528863160E+02  0.30000010061E+02 0.  0.
         12    1    1    2    0    0 -0.12484975952E+02 -0.28015521486E+02  0.26691222151E+02  0.40659136840E+02  0.00000000000E+00 0. -1.
         11    1    3    3    0    0  0.43348969348E+01 -0.21082217033E+01  0.37052663354E+01  0.60798790336E+01  0.51100000000E-03 0. -1.
        -11    1    3    3    0    0 -0.11668147178E+01  0.17692048351E+01 -0.43375568586E+01  0.48276228205E+01  0.51100000000E-03 0.  1.
        -12    1    3    3    0    0  0.93168937348E+01  0.28354538354E+02 -0.26058931628E+02  0.39621361306E+02  0.00000000000E+00 0.  1.
</event>
<event>
 7    1  0.2432574E-011  0.5052886E+02  0.7816164E-02  0.1300439E+00
        -11   -1    0    0    0    0  0.00000000000E+00  0.00000000000E+00  0.45593999997E+02  0.45594000000E+02  0.51100000000E-03 0. -1.
         11   -1    0    0    0    0 -0.00000000000E+00 -0.00000000000E+00 -0.45593999997E+02  0.45594000000E+02  0.51100000000E-03 0.  1.
    9900012    2    1    2    0    0 -0.66292303432E+01  0.36772071165E+01 -0.39946177071E+02  0.50528860687E+02  0.30000002543E+02 0.  0.
         12    1    1    2    0    0  0.66292303432E+01 -0.36772071165E+01  0.39946177071E+02  0.40659139313E+02  0.00000000000E+00 0. -1.
         11    1    3    3    0    0 -0.10852327088E+02  0.46087747554E+01 -0.69601773706E+01  0.13691525746E+02  0.51100000000E-03 0. -1.
        -11    1    3    3    0    0  0.41641207573E+01  0.64963020652E+01 -0.96974181594E+01  0.12392810877E+02  0.51100000000E-03 0.  1.
        -12    1    3    3    0    0  0.58975987582E-01 -0.74278697042E+01 -0.23288581541E+02  0.24444524064E+02  0.00000000000E+00 0.  1.
</event>
<event>
 7    1  0.2432574E-011  0.5052885E+02  0.7816164E-02  0.1300439E+00
        -11   -1    0    0    0    0  0.00000000000E+00  0.00000000000E+00  0.45593999997E+02  0.45594000000E+02  0.51100000000E-03 0. -1.
         11   -1    0    0    0    0 -0.00000000000E+00 -0.00000000000E+00 -0.45593999997E+02  0.45594000000E+02  0.51100000000E-03 0.  1.
    9900012    2    1    2    0    0 -0.68668612459E+00  0.80068351824E+01 -0.39857059155E+02  0.50528854510E+02  0.29999983770E+02 0.  0.
         12    1    1    2    0    0  0.68668612459E+00 -0.80068351824E+01  0.39857059155E+02  0.40659145490E+02  0.00000000000E+00 0. -1.
         11    1    3    3    0    0  0.43676577895E+01 -0.57170718522E+01 -0.29233807562E+01  0.77657903935E+01  0.51100000000E-03 0. -1.
        -11    1    3    3    0    0  0.29289147458E+01 -0.29555437984E+00 -0.59394370328E+00  0.30031089496E+01  0.51100000000E-03 0.  1.
        -12    1    3    3    0    0 -0.79832586598E+01  0.14019461414E+02 -0.36339734695E+02  0.39759955167E+02  0.00000000000E+00 0.  1.
</event>
<event>
 7    1  0.2432574E-011  0.5052886E+02  0.7816164E-02  0.1300439E+00
        -11   -1    0    0    0    0  0.00000000000E+00  0.00000000000E+00  0.45593999997E+02  0.45594000000E+02  0.51100000000E-03 0.  1.
         11   -1    0    0    0    0 -0.00000000000E+00 -0.00000000000E+00 -0.45593999997E+02  0.45594000000E+02  0.51100000000E-03 0. -1.
    9900012    2    1    2    0    0 -0.18189963637E+02 -0.11251537648E+02  0.34578810204E+02  0.50528855989E+02  0.29999988265E+02 0.  0.
         12    1    1    2    0    0  0.18189963637E+02  0.11251537648E+02 -0.34578810204E+02  0.40659144011E+02  0.00000000000E+00 0. -1.
         11    1    3    3    0    0  0.28036379051E+01 -0.26801688890E+01  0.11543960021E+02  0.12178123994E+02  0.51100000000E-03 0.  1.
        -11    1    3    3    0    0 -0.20293977136E+02 -0.11490712972E+02  0.10705287395E+02  0.25660965903E+02  0.51100000000E-03 0. -1.
         12    1    3    3    0    0 -0.69962440609E+00  0.29193442132E+01  0.12329562788E+02  0.12689766093E+02  0.00000000000E+00 0. -1.
</event>
<event>
 7    1  0.2432574E-011  0.5052887E+02  0.7816164E-02  0.1300439E+00
        -11   -1    0    0    0    0  0.00000000000E+00  0.00000000000E+00  0.45593999997E+02  0.45594000000E+02  0.51100000000E-03 0.  1.
         11   -1    0    0    0    0 -0.00000000000E+00 -0.00000000000E+00 -0.45593999997E+02  0.45594000000E+02  0.51100000000E-03 0. -1.
    9900012    2    1    2    0    0 -0.39931363408E+01 -0.40348360249E+02  0.30380753801E+01  0.50528865545E+02  0.30000017311E+02 0.  0.
         12    1    1    2    0    0  0.39931363408E+01  0.40348360249E+02 -0.30380753801E+01  0.40659134455E+02  0.00000000000E+00 0. -1.
         11    1    3    3    0    0  0.91100920279E+01 -0.85976941767E+01 -0.19583845680E+01  0.12678698367E+02  0.51100000000E-03 0. -1.
        -11    1    3    3    0    0 -0.25133206970E+01 -0.91830633192E+01 -0.52793831049E+01  0.10886565991E+02  0.51100000000E-03 0.  1.
        -12    1    3    3    0    0 -0.10589907672E+02 -0.22567602753E+02  0.10275843053E+02  0.26963601187E+02  0.00000000000E+00 0.  1.
</event>
<event>
 7    1  0.2432574E-011  0.5052886E+02  0.7816164E-02  0.1300439E+00
        -11   -1    0    0    0    0  0.00000000000E+00  0.00000000000E+00  0.45593999997E+02  0.45594000000E+02  0.51100000000E-03 0.  1.
         11   -1    0    0    0    0 -0.00000000000E+00 -0.00000000000E+00 -0.45593999997E+02  0.45594000000E+02  0.51100000000E-03 0. -1.
    9900012    2    1    2    0    0  0.13275879615E+02 -0.20555427597E+02  0.32471384415E+02  0.50528863400E+02  0.30000010789E+02 0.  0.
         12    1    1    2    0    0 -0.13275879615E+02  0.20555427597E+02 -0.32471384415E+02  0.40659136600E+02  0.00000000000E+00 0. -1.
         11    1    3    3    0    0 -0.28942371332E+01 -0.12316447101E+02  0.20112280108E+02  0.23760793109E+02  0.51100000000E-03 0. -1.
        -11    1    3    3    0    0  0.72716026995E+01 -0.26760059283E+01  0.14139943169E+02  0.16123746669E+02  0.51100000000E-03 0.  1.
         12    1    3    3    0    0  0.88985140484E+01 -0.55629745675E+01 -0.17808388617E+01  0.10644323622E+02  0.00000000000E+00 0. -1.
</event>
<event>
 7    1  0.2432574E-011  0.5052886E+02  0.7816164E-02  0.1300439E+00
        -11   -1    0    0    0    0  0.00000000000E+00  0.00000000000E+00  0.45593999997E+02  0.45594000000E+02  0.51100000000E-03 0. -1.
         11   -1    0    0    0    0 -0.00000000000E+00 -0.00000000000E+00 -0.45593999997E+02  0.45594000000E+02  0.51100000000E-03 0.  1.
    9900012    2    1    2    0    0 -0.70103357228E+01  0.32459686850E+02 -0.23460382164E+02  0.50528860699E+02  0.30000002582E+02 0.  0.
         12    1    1    2    0    0  0.70103357228E+01 -0.32459686850E+02  0.23460382164E+02  0.40659139301E+02  0.00000000000E+00 0. -1.
         11    1    3    3    0    0 -0.10780096773E+02  0.15772059084E+02 -0.85850070221E+01  0.20944466572E+02  0.51100000000E-03 0.  1.
        -11    1    3    3    0    0 -0.17420985151E+01 -0.36960761275E+01 -0.68411177831E+00  0.41429331594E+01  0.51100000000E-03 0. -1.
         12    1    3    3    0    0  0.55118595650E+01  0.20383703894E+02 -0.14191263364E+02  0.25441460968E+02  0.00000000000E+00 0. -1.
</event>
<event>
 7    1  0.2432574E-011  0.5052886E+02  0.7816164E-02  0.1300439E+00
        -11   -1    0    0    0    0  0.00000000000E+00  0.00000000000E+00  0.45593999997E+02  0.45594000000E+02  0.51100000000E-03 0. -1.
         11   -1    0    0    0    0 -0.00000000000E+00 -0.00000000000E+00 -0.45593999997E+02  0.45594000000E+02  0.51100000000E-03 0.  1.
    9900012    2    1    2    0    0 -0.16528847694E+02 -0.33313353665E+02 -0.16437264847E+02  0.50528855712E+02  0.29999987423E+02 0.  0.
         12    1    1    2    0    0  0.16528847694E+02  0.33313353665E+02  0.16437264847E+02  0.40659144288E+02  0.00000000000E+00 0. -1.
         11    1    3    3    0    0 -0.10675889967E+02 -0.12735473867E+02 -0.17632744894E+02  0.24229746469E+02  0.51100000000E-03 0. -1.
        -11    1    3    3    0    0 -0.42091347104E+01 -0.18231676426E+02 -0.50903098141E+01  0.19391289142E+02  0.51100000000E-03 0.  1.
         12    1    3    3    0    0 -0.16438230167E+01 -0.23462033726E+01  0.62857898609E+01  0.69078201013E+01  0.00000000000E+00 0. -1.
</event>
<event>
 7    1  0.2432574E-011  0.5052886E+02  0.7816164E-02  0.1300439E+00
        -11   -1    0    0    0    0  0.00000000000E+00  0.00000000000E+00  0.45593999997E+02  0.45594000000E+02  0.51100000000E-03 0.  1.
         11   -1    0    0    0    0 -0.00000000000E+00 -0.00000000000E+00 -0.45593999997E+02  0.45594000000E+02  0.51100000000E-03 0. -1.
    9900012    2    1    2    0    0 -0.47077482314E+01  0.15654619210E+02  0.37228154850E+02  0.50528861919E+02  0.30000006288E+02 0.  0.
         12    1    1    2    0    0  0.47077482314E+01 -0.15654619210E+02 -0.37228154850E+02  0.40659138081E+02  0.00000000000E+00 0. -1.
         11    1    3    3    0    0  0.33470704180E+01 -0.28489215420E+01  0.10337089860E+02  0.11232749502E+02  0.51100000000E-03 0.  1.
        -11    1    3    3    0    0  0.23091661976E+01 -0.25161140847E+01  0.95498070870E+01  0.10142085302E+02  0.51100000000E-03 0. -1.
        -12    1    3    3    0    0 -0.10363984847E+02  0.21019654836E+02  0.17341257902E+02  0.29154027114E+02  0.00000000000E+00 0.  1.
</event>
<event>
 7    1  0.2432574E-011  0.5052887E+02  0.7816164E-02  0.1300439E+00
        -11   -1    0    0    0    0  0.00000000000E+00  0.00000000000E+00  0.45593999997E+02  0.45594000000E+02  0.51100000000E-03 0. -1.
         11   -1    0    0    0    0 -0.00000000000E+00 -0.00000000000E+00 -0.45593999997E+02  0.45594000000E+02  0.51100000000E-03 0.  1.
    9900012    2    1    2    0    0 -0.22607621930E+02 -0.30706362154E+02 -0.14113095925E+02  0.50528871595E+02  0.30000035700E+02 0.  0.
         12    1    1    2    0    0  0.22607621930E+02  0.30706362154E+02  0.14113095925E+02  0.40659128405E+02  0.00000000000E+00 0. -1.
         11    1    3    3    0    0  0.71952632339E+00  0.98024373715E+00 -0.72932328451E+01  0.73939057005E+01  0.51100000000E-03 0. -1.
        -11    1    3    3    0    0 -0.10841789789E+02 -0.29128077633E+01 -0.17224180872E+01  0.11357622076E+02  0.51100000000E-03 0.  1.
        -12    1    3    3    0    0 -0.12485358464E+02 -0.28773798128E+02 -0.50974449929E+01  0.31777343818E+02  0.00000000000E+00 0.  1.
</event>
<event>
 7    1  0.2432574E-011  0.5052887E+02  0.7816164E-02  0.1300439E+00
        -11   -1    0    0    0    0  0.00000000000E+00  0.00000000000E+00  0.45593999997E+02  0.45594000000E+02  0.51100000000E-03 0.  1.
         11   -1    0    0    0    0 -0.00000000000E+00 -0.00000000000E+00 -0.45593999997E+02  0.45594000000E+02  0.51100000000E-03 0. -1.
    9900012    2    1    2    0    0  0.92136827892E+01  0.39295856597E+02  0.49100077287E+01  0.50528874675E+02  0.30000045064E+02 0.  0.
         12    1    1    2    0    0 -0.92136827892E+01 -0.39295856597E+02 -0.49100077287E+01  0.40659125325E+02  0.00000000000E+00 0. -1.
         11    1    3    3    0    0  0.10494194783E+02  0.16508564656E+02 -0.40796303261E+01  0.19982597805E+02  0.51100000000E-03 0.  1.
        -11    1    3    3    0    0 -0.84418442865E+00  0.42235917971E+00 -0.43837795307E+01  0.44842566677E+01  0.51100000000E-03 0. -1.
        -12    1    3    3    0    0 -0.43632756515E+00  0.22364932761E+02  0.13373417586E+02  0.26062020203E+02  0.00000000000E+00 0.  1.
</event>
<event>
 7    1  0.2432574E-011  0.5052886E+02  0.7816164E-02  0.1300439E+00
        -11   -1    0    0    0    0  0.00000000000E+00  0.00000000000E+00  0.45593999997E+02  0.45594000000E+02  0.51100000000E-03 0.  1.
         11   -1    0    0    0    0 -0.00000000000E+00 -0.00000000000E+00 -0.45593999997E+02  0.45594000000E+02  0.51100000000E-03 0. -1.
    9900012    2    1    2    0    0  0.74267315365E+01 -0.25524120209E+02  0.30765698861E+02  0.50528864739E+02  0.30000014862E+02 0.  0.
         12    1    1    2    0    0 -0.74267315365E+01  0.25524120209E+02 -0.30765698861E+02  0.40659135261E+02  0.00000000000E+00 0. -1.
         11    1    3    3    0    0 -0.79133887229E+01 -0.87312453245E+01  0.40120647356E+01  0.12448013082E+02  0.51100000000E-03 0. -1.
        -11    1    3    3    0    0 -0.60390865542E+00 -0.14948538479E+01 -0.15073460219E+01  0.22071216508E+01  0.51100000000E-03 0.  1.
        -12    1    3    3    0    0  0.15944028915E+02 -0.15298021036E+02  0.28260980147E+02  0.35873730006E+02  0.00000000000E+00 0.  1.
</event>
<event>
 7    1  0.2432574E-011  0.5052886E+02  0.7816164E-02  0.1300439E+00
        -11   -1    0    0    0    0  0.00000000000E+00  0.00000000000E+00  0.45593999997E+02  0.45594000000E+02  0.51100000000E-03 0.  1.
         11   -1    0    0    0    0 -0.00000000000E+00 -0.00000000000E+00 -0.45593999997E+02  0.45594000000E+02  0.51100000000E-03 0. -1.
    9900012    2    1    2    0    0 -0.17908816480E+02 -0.26314760523E+02  0.25297693343E+02  0.50528860590E+02  0.30000002249E+02 0.  0.
         12    1    1    2    0    0  0.17908816480E+02  0.26314760523E+02 -0.25297693343E+02  0.40659139410E+02  0.00000000000E+00 0. -1.
         11    1    3    3    0    0 -0.11136755787E+02  0.12776126543E+01  0.42382511314E+01  0.11984256191E+02  0.51100000000E-03 0. -1.
        -11    1    3    3    0    0 -0.83381864267E+01 -0.12069877332E+02  0.16938874531E+02  0.22408319043E+02  0.51100000000E-03 0.  1.
        -12    1    3    3    0    0  0.15661257336E+01 -0.15522495845E+02  0.41205676808E+01  0.16136285355E+02  0.00000000000E+00 0.  1.
</event>
<event>
 7    1  0.2432574E-011  0.5052886E+02  0.7816164E-02  0.1300439E+00
        -11   -1    0    0    0    0  0.00000000000E+00  0.00000000000E+00  0.45593999997E+02  0.45594000000E+02  0.51100000000E-03 0. -1.
         11   -1    0    0    0    0 -0.00000000000E+00 -0.00000000000E+00 -0.45593999997E+02  0.45594000000E+02  0.51100000000E-03 0.  1.
    9900012    2    1    2    0    0  0.21596847544E+02  0.42632252744E+01 -0.34184306519E+02  0.50528859259E+02  0.29999998205E+02 0.  0.
         12    1    1    2    0    0 -0.21596847544E+02 -0.42632252744E+01  0.34184306519E+02  0.40659140741E+02  0.00000000000E+00 0. -1.
         11    1    3    3    0    0  0.12676467646E+02  0.15931652158E+02 -0.20939540279E+02  0.29205730942E+02  0.51100000000E-03 0.  1.
        -11    1    3    3    0    0 -0.11255411939E+01 -0.22288402291E+01 -0.49410667334E+00  0.25453316899E+01  0.51100000000E-03 0. -1.
        -12    1    3    3    0    0  0.10045921093E+02 -0.94395866549E+01 -0.12750659567E+02  0.18777796628E+02  0.00000000000E+00 0.  1.
</event>
<event>
 7    1  0.2432574E-011  0.5052885E+02  0.7816164E-02  0.1300439E+00
        -11   -1    0    0    0    0  0.00000000000E+00  0.00000000000E+00  0.45593999997E+02  0.45594000000E+02  0.51100000000E-03 0. -1.
         11   -1    0    0    0    0 -0.00000000000E+00 -0.00000000000E+00 -0.45593999997E+02  0.45594000000E+02  0.51100000000E-03 0.  1.
    9900012    2    1    2    0    0  0.37055215479E+02 -0.15074288059E+02 -0.72693657998E+01  0.50528845634E+02  0.29999956788E+02 0.  0.
         12    1    1    2    0    0 -0.37055215479E+02  0.15074288059E+02  0.72693657998E+01  0.40659154366E+02  0.00000000000E+00 0. -1.
         11    1    3    3    0    0  0.39313847024E+01  0.70054269821E+01 -0.36968856590E+01  0.88430060905E+01  0.51100000000E-03 0. -1.
        -11    1    3    3    0    0  0.33711516876E+01 -0.31790396579E+01  0.34090044156E+01  0.57525879580E+01  0.51100000000E-03 0.  1.
        -12    1    3    3    0    0  0.29752679089E+02 -0.18900675383E+02 -0.69814845564E+01  0.35933251585E+02  0.00000000000E+00 0.  1.
</event>
<event>
 7    1  0.2432574E-011  0.5052886E+02  0.7816164E-02  0.1300439E+00
        -11   -1    0    0    0    0  0.00000000000E+00  0.00000000000E+00  0.45593999997E+02  0.45594000000E+02  0.51100000000E-03 0. -1.
         11   -1    0    0    0    0 -0.00000000000E+00 -0.00000000000E+00 -0.45593999997E+02  0.45594000000E+02  0.51100000000E-03 0.  1.
    9900012    2    1    2    0    0  0.11360058720E+02  0.24377922458E+02  0.30493143505E+02  0.50528857876E+02  0.29999993999E+02 0.  0.
         12    1    1    2    0    0 -0.11360058720E+02 -0.24377922458E+02 -0.30493143505E+02  0.40659142124E+02  0.00000000000E+00 0. -1.
         11    1    3    3    0    0  0.66256072945E+01  0.76871282543E+01  0.43489530175E+01  0.11041014692E+02  0.51100000000E-03 0. -1.
        -11    1    3    3    0    0  0.14345342822E+02  0.11728936002E+02  0.13991443404E+02  0.23218899397E+02  0.51100000000E-03 0.  1.
         12    1    3    3    0    0 -0.96108913970E+01  0.49618582016E+01  0.12152747084E+02  0.16268943787E+02  0.00000000000E+00 0. -1.
</event>
<event>
 7    1  0.2432574E-011  0.5052889E+02  0.7816164E-02  0.1300439E+00
        -11   -1    0    0    0    0  0.00000000000E+00  0.00000000000E+00  0.45593999997E+02  0.45594000000E+02  0.51100000000E-03 0. -1.
         11   -1    0    0    0    0 -0.00000000000E+00 -0.00000000000E+00 -0.45593999997E+02  0.45594000000E+02  0.51100000000E-03 0.  1.
    9900012    2    1    2    0    0 -0.15515786552E+02 -0.37543617573E+02 -0.17031646975E+01  0.50528885121E+02  0.30000076812E+02 0.  0.
         12    1    1    2    0    0  0.15515786552E+02  0.37543617573E+02  0.17031646975E+01  0.40659114879E+02  0.00000000000E+00 0. -1.
         11    1    3    3    0    0  0.18596826175E+00 -0.13469050834E+02  0.77356242443E+00  0.13492528067E+02  0.51100000000E-03 0. -1.
        -11    1    3    3    0    0 -0.89086871080E+01 -0.15552419131E+02 -0.12800275585E+02  0.22024747493E+02  0.51100000000E-03 0.  1.
         12    1    3    3    0    0 -0.67930677062E+01 -0.85221476081E+01  0.10323548463E+02  0.15011609560E+02  0.00000000000E+00 0. -1.
</event>
<event>
 7    1  0.2432574E-011  0.5052886E+02  0.7816164E-02  0.1300439E+00
        -11   -1    0    0    0    0  0.00000000000E+00  0.00000000000E+00  0.45593999997E+02  0.45594000000E+02  0.51100000000E-03 0.  1.
         11   -1    0    0    0    0 -0.00000000000E+00 -0.00000000000E+00 -0.45593999997E+02  0.45594000000E+02  0.51100000000E-03 0. -1.
    9900012    2    1    2    0    0  0.42158028049E+01 -0.33334048310E+02  0.22896149844E+02  0.50528862679E+02  0.30000008599E+02 0.  0.
         12    1    1    2    0    0 -0.42158028049E+01  0.33334048310E+02 -0.22896149844E+02  0.40659137321E+02  0.00000000000E+00 0. -1.
         11    1    3    3    0    0 -0.14598788991E+01 -0.17489881399E+02 -0.21235720920E+01  0.17678709128E+02  0.51100000000E-03 0. -1.
        -11    1    3    3    0    0  0.96754367933E+01 -0.94203878260E+01  0.13721964934E+02  0.19252275342E+02  0.51100000000E-03 0.  1.
        -12    1    3    3    0    0 -0.39997550893E+01 -0.64237790854E+01  0.11297757001E+02  0.13597878208E+02  0.00000000000E+00 0.  1.
</event>
<event>
 7    1  0.2432574E-011  0.5052887E+02  0.7816164E-02  0.1300439E+00
        -11   -1    0    0    0    0  0.00000000000E+00  0.00000000000E+00  0.45593999997E+02  0.45594000000E+02  0.51100000000E-03 0. -1.
         11   -1    0    0    0    0 -0.00000000000E+00 -0.00000000000E+00 -0.45593999997E+02  0.45594000000E+02  0.51100000000E-03 0.  1.
    9900012    2    1    2    0    0  0.19494304492E+02  0.72406768501E+01 -0.34938653410E+02  0.50528870508E+02  0.30000032397E+02 0.  0.
         12    1    1    2    0    0 -0.19494304492E+02 -0.72406768501E+01  0.34938653410E+02  0.40659129492E+02  0.00000000000E+00 0. -1.
         11    1    3    3    0    0  0.10651623855E+02  0.49962021270E+01  0.11576161258E+01  0.11821979606E+02  0.51100000000E-03 0. -1.
        -11    1    3    3    0    0  0.67879663303E+01  0.47746792924E+01 -0.13286441895E+02  0.15665362675E+02  0.51100000000E-03 0.  1.
        -12    1    3    3    0    0  0.20547143067E+01 -0.25302045693E+01 -0.22809827641E+02  0.23041528228E+02  0.00000000000E+00 0.  1.
</event>
<event>
 7    1  0.2432574E-011  0.5052885E+02  0.7816164E-02  0.1300439E+00
        -11   -1    0    0    0    0  0.00000000000E+00  0.00000000000E+00  0.45593999997E+02  0.45594000000E+02  0.51100000000E-03 0. -1.
         11   -1    0    0    0    0 -0.00000000000E+00 -0.00000000000E+00 -0.45593999997E+02  0.45594000000E+02  0.51100000000E-03 0.  1.
    9900012    2    1    2    0    0  0.10326332113E+02  0.39049209801E+01 -0.39131635180E+02  0.50528850788E+02  0.29999972455E+02 0.  0.
         12    1    1    2    0    0 -0.10326332113E+02 -0.39049209801E+01  0.39131635180E+02  0.40659149212E+02  0.00000000000E+00 0. -1.
         11    1    3    3    0    0  0.20731352534E+01  0.10184962684E+02 -0.38770533654E+01  0.11093371792E+02  0.51100000000E-03 0. -1.
        -11    1    3    3    0    0  0.28070875460E+01  0.42246385025E+01 -0.16483506064E+02  0.17246254184E+02  0.51100000000E-03 0.  1.
         12    1    3    3    0    0  0.54461093131E+01 -0.10504680207E+02 -0.18771075751E+02  0.22189224811E+02  0.00000000000E+00 0. -1.
</event>
<event>
 7    1  0.2432574E-011  0.5052885E+02  0.7816164E-02  0.1300439E+00
        -11   -1    0    0    0    0  0.00000000000E+00  0.00000000000E+00  0.45593999997E+02  0.45594000000E+02  0.51100000000E-03 0. -1.
         11   -1    0    0    0    0 -0.00000000000E+00 -0.00000000000E+00 -0.45593999997E+02  0.45594000000E+02  0.51100000000E-03 0.  1.
    9900012    2    1    2    0    0  0.17689823607E+02  0.24248023460E+02 -0.27427537859E+02  0.50528851780E+02  0.29999975470E+02 0.  0.
         12    1    1    2    0    0 -0.17689823607E+02 -0.24248023460E+02  0.27427537859E+02  0.40659148220E+02  0.00000000000E+00 0. -1.
         11    1    3    3    0    0  0.10693433695E+02  0.45099916005E+01  0.10107769351E+01  0.11649515814E+02  0.51100000000E-03 0. -1.
        -11    1    3    3    0    0  0.11705715218E+02  0.89563269411E+01 -0.15362653594E+02  0.21289684985E+02  0.51100000000E-03 0.  1.
        -12    1    3    3    0    0 -0.47093253064E+01  0.10781704919E+02 -0.13075661200E+02  0.17589650980E+02  0.00000000000E+00 0.  1.
</event>
<event>
 7    1  0.2432574E-011  0.5052886E+02  0.7816164E-02  0.1300439E+00
        -11   -1    0    0    0    0  0.00000000000E+00  0.00000000000E+00  0.45593999997E+02  0.45594000000E+02  0.51100000000E-03 0. -1.
         11   -1    0    0    0    0 -0.00000000000E+00 -0.00000000000E+00 -0.45593999997E+02  0.45594000000E+02  0.51100000000E-03 0.  1.
    9900012    2    1    2    0    0 -0.18045735706E+02 -0.32033464733E+02  0.17360140191E+02  0.50528857025E+02  0.29999991414E+02 0.  0.
         12    1    1    2    0    0  0.18045735706E+02  0.32033464733E+02 -0.17360140191E+02  0.40659142975E+02  0.00000000000E+00 0. -1.
         11    1    3    3    0    0 -0.10156490449E+02 -0.20562666289E+02  0.84049551042E+01  0.24425822683E+02  0.51100000000E-03 0. -1.
        -11    1    3    3    0    0 -0.11712785892E+00 -0.65949157951E+01  0.14112556135E+02  0.15577896977E+02  0.51100000000E-03 0.  1.
         12    1    3    3    0    0 -0.77721173972E+01 -0.48758826488E+01 -0.51573710480E+01  0.10525137366E+02  0.00000000000E+00 0. -1.
</event>
<event>
 7    1  0.2432574E-011  0.5052886E+02  0.7816164E-02  0.1300439E+00
        -11   -1    0    0    0    0  0.00000000000E+00  0.00000000000E+00  0.45593999997E+02  0.45594000000E+02  0.51100000000E-03 0. -1.
         11   -1    0    0    0    0 -0.00000000000E+00 -0.00000000000E+00 -0.45593999997E+02  0.45594000000E+02  0.51100000000E-03 0.  1.
    9900012    2    1    2    0    0  0.37953319536E+02 -0.14264431805E+02  0.30392604589E+01  0.50528861020E+02  0.30000003555E+02 0.  0.
         12    1    1    2    0    0 -0.37953319536E+02  0.14264431805E+02 -0.30392604589E+01  0.40659138980E+02  0.00000000000E+00 0. -1.
         11    1    3    3    0    0  0.10437960734E+02 -0.11634413511E+02 -0.58548664434E+01  0.16691017445E+02  0.51100000000E-03 0. -1.
        -11    1    3    3    0    0  0.52265548251E+00  0.25524081655E+01 -0.29264086789E+01  0.39181404025E+01  0.51100000000E-03 0.  1.
         12    1    3    3    0    0  0.26992703319E+02 -0.51824264600E+01  0.11820535581E+02  0.29919703172E+02  0.00000000000E+00 0. -1.
</event>
<event>
 7    1  0.2432574E-011  0.5052885E+02  0.7816164E-02  0.1300439E+00
        -11   -1    0    0    0    0  0.00000000000E+00  0.00000000000E+00  0.45593999997E+02  0.45594000000E+02  0.51100000000E-03 0. -1.
         11   -1    0    0    0    0 -0.00000000000E+00 -0.00000000000E+00 -0.45593999997E+02  0.45594000000E+02  0.51100000000E-03 0.  1.
    9900012    2    1    2    0    0  0.23188317665E+02  0.96258686303E+01 -0.31981412805E+02  0.50528853575E+02  0.29999980927E+02 0.  0.
         12    1    1    2    0    0 -0.23188317665E+02 -0.96258686303E+01  0.31981412805E+02  0.40659146425E+02  0.00000000000E+00 0. -1.
         11    1    3    3    0    0 -0.17889308368E+01 -0.36032168725E+01 -0.64511451026E+01  0.76026783941E+01  0.51100000000E-03 0. -1.
        -11    1    3    3    0    0  0.10239617716E+02  0.30523192500E+00 -0.20142053639E+02  0.22597461418E+02  0.51100000000E-03 0.  1.
         12    1    3    3    0    0  0.14737630785E+02  0.12923853578E+02 -0.53882140638E+01  0.20328713763E+02  0.00000000000E+00 0. -1.
</event>
<event>
 7    1  0.2432574E-011  0.5052886E+02  0.7816164E-02  0.1300439E+00
        -11   -1    0    0    0    0  0.00000000000E+00  0.00000000000E+00  0.45593999997E+02  0.45594000000E+02  0.51100000000E-03 0.  1.
         11   -1    0    0    0    0 -0.00000000000E+00 -0.00000000000E+00 -0.45593999997E+02  0.45594000000E+02  0.51100000000E-03 0. -1.
    9900012    2    1    2    0    0  0.10150566899E+02 -0.20082621128E+02  0.33864733284E+02  0.50528857853E+02  0.29999993931E+02 0.  0.
         12    1    1    2    0    0 -0.10150566899E+02  0.20082621128E+02 -0.33864733284E+02  0.40659142147E+02  0.00000000000E+00 0. -1.
         11    1    3    3    0    0  0.60696897100E+01 -0.67918822390E+01 -0.24754677545E+01  0.94392128056E+01  0.51100000000E-03 0. -1.
        -11    1    3    3    0    0 -0.11237362307E+01 -0.81750300833E+01  0.68944317728E+01  0.10753003753E+02  0.51100000000E-03 0.  1.
         12    1    3    3    0    0  0.52046134196E+01 -0.51157088055E+01  0.29445769265E+02  0.30336641295E+02  0.00000000000E+00 0. -1.
</event>
<event>
 7    1  0.2432574E-011  0.5052885E+02  0.7816164E-02  0.1300439E+00
        -11   -1    0    0    0    0  0.00000000000E+00  0.00000000000E+00  0.45593999997E+02  0.45594000000E+02  0.51100000000E-03 0. -1.
         11   -1    0    0    0    0 -0.00000000000E+00 -0.00000000000E+00 -0.45593999997E+02  0.45594000000E+02  0.51100000000E-03 0.  1.
    9900012    2    1    2    0    0 -0.33781766777E+02 -0.35271141990E+01 -0.22349901254E+02  0.50528851125E+02  0.29999973480E+02 0.  0.
         12    1    1    2    0    0  0.33781766777E+02  0.35271141990E+01  0.22349901254E+02  0.40659148875E+02  0.00000000000E+00 0. -1.
         11    1    3    3    0    0 -0.53664355677E+01 -0.31500553975E+01 -0.11287162559E+02  0.12888813701E+02  0.51100000000E-03 0. -1.
        -11    1    3    3    0    0 -0.88143502072E+01 -0.10641826600E+02 -0.34667948162E+01  0.14246399879E+02  0.51100000000E-03 0.  1.
         12    1    3    3    0    0 -0.19600981002E+02  0.10264767798E+02 -0.75959438782E+01  0.23393637545E+02  0.00000000000E+00 0. -1.
</event>
<event>
 7    1  0.2432574E-011  0.5052885E+02  0.7816164E-02  0.1300439E+00
        -11   -1    0    0    0    0  0.00000000000E+00  0.00000000000E+00  0.45593999997E+02  0.45594000000E+02  0.51100000000E-03 0.  1.
         11   -1    0    0    0    0 -0.00000000000E+00 -0.00000000000E+00 -0.45593999997E+02  0.45594000000E+02  0.51100000000E-03 0. -1.
    9900012    2    1    2    0    0  0.18333186334E+02  0.11260116878E+02  0.34500293504E+02  0.50528853365E+02  0.29999980287E+02 0.  0.
         12    1    1    2    0    0 -0.18333186334E+02 -0.11260116878E+02 -0.34500293504E+02  0.40659146635E+02  0.00000000000E+00 0. -1.
         11    1    3    3    0    0  0.66006124277E+01  0.90824674544E+01  0.29871979327E+01  0.11618203442E+02  0.51100000000E-03 0. -1.
        -11    1    3    3    0    0 -0.21845214476E+01 -0.40129145743E+01  0.81459265728E+00  0.46410320828E+01  0.51100000000E-03 0.  1.
        -12    1    3    3    0    0  0.13917095354E+02  0.61905639981E+01  0.30698502914E+02  0.34269617839E+02  0.00000000000E+00 0.  1.
</event>
<event>
 7    1  0.2432574E-011  0.5052885E+02  0.7816164E-02  0.1300439E+00
        -11   -1    0    0    0    0  0.00000000000E+00  0.00000000000E+00  0.45593999997E+02  0.45594000000E+02  0.51100000000E-03 0.  1.
         11   -1    0    0    0    0 -0.00000000000E+00 -0.00000000000E+00 -0.45593999997E+02  0.45594000000E+02  0.51100000000E-03 0. -1.
    9900012    2    1    2    0    0 -0.26864488008E+02  0.30300051234E+02  0.36568388587E+01  0.50528852307E+02  0.29999977072E+02 0.  0.
         12    1    1    2    0    0  0.26864488008E+02 -0.30300051234E+02 -0.36568388587E+01  0.40659147693E+02  0.00000000000E+00 0. -1.
         11    1    3    3    0    0 -0.15074859367E+02  0.17158706348E+02  0.95999444935E+01  0.24775623565E+02  0.51100000000E-03 0. -1.
        -11    1    3    3    0    0  0.20682643403E+01  0.24457171818E+01  0.43834399071E+01  0.54289773986E+01  0.51100000000E-03 0.  1.
         12    1    3    3    0    0 -0.13857892981E+02  0.10695627704E+02 -0.10326545542E+02  0.20324251344E+02  0.00000000000E+00 0. -1.
</event>
<event>
 7    1  0.2432574E-011  0.5052895E+02  0.7816164E-02  0.1300438E+00
        -11   -1    0    0    0    0  0.00000000000E+00  0.00000000000E+00  0.45593999997E+02  0.45594000000E+02  0.51100000000E-03 0.  1.
         11   -1    0    0    0    0 -0.00000000000E+00 -0.00000000000E+00 -0.45593999997E+02  0.45594000000E+02  0.51100000000E-03 0. -1.
    9900012    2    1    2    0    0  0.25722910422E+02 -0.16139017846E+02  0.27037420810E+02  0.50528952523E+02  0.30000281689E+02 0.  0.
         12    1    1    2    0    0 -0.25722910422E+02  0.16139017846E+02 -0.27037420810E+02  0.40659047477E+02  0.00000000000E+00 0. -1.
         11    1    3    3    0    0 -0.10009055974E+01 -0.14260596212E+01  0.62735894945E-01  0.17433858184E+01  0.51100000000E-03 0. -1.
        -11    1    3    3    0    0  0.23900377168E+02 -0.28736929865E+00  0.89399845667E+01  0.25519285535E+02  0.51100000000E-03 0.  1.
        -12    1    3    3    0    0  0.28234388516E+01 -0.14425588926E+02  0.18034700349E+02  0.23266281170E+02  0.00000000000E+00 0.  1.
</event>
<event>
 7    1  0.2432574E-011  0.5052878E+02  0.7816164E-02  0.1300439E+00
        -11   -1    0    0    0    0  0.00000000000E+00  0.00000000000E+00  0.45593999997E+02  0.45594000000E+02  0.51100000000E-03 0.  1.
         11   -1    0    0    0    0 -0.00000000000E+00 -0.00000000000E+00 -0.45593999997E+02  0.45594000000E+02  0.51100000000E-03 0. -1.
    9900012    2    1    2    0    0  0.17685520897E+02 -0.47742180451E+01  0.36298784006E+02  0.50528775614E+02  0.29999743955E+02 0.  0.
         12    1    1    2    0    0 -0.17685520897E+02  0.47742180451E+01 -0.36298784006E+02  0.40659224386E+02  0.00000000000E+00 0. -1.
         11    1    3    3    0    0  0.10707696227E+02 -0.92205530417E+01  0.72377918518E+01  0.15876365706E+02  0.51100000000E-03 0. -1.
        -11    1    3    3    0    0  0.61984481296E+01 -0.10954829004E+01  0.28315411816E+02  0.29006609395E+02  0.51100000000E-03 0.  1.
         12    1    3    3    0    0  0.77937654030E+00  0.55418178970E+01  0.74558033850E+00  0.56458005133E+01  0.00000000000E+00 0. -1.
</event>
<event>
 7    1  0.2432574E-011  0.5052887E+02  0.7816164E-02  0.1300439E+00
        -11   -1    0    0    0    0  0.00000000000E+00  0.00000000000E+00  0.45593999997E+02  0.45594000000E+02  0.51100000000E-03 0. -1.
         11   -1    0    0    0    0 -0.00000000000E+00 -0.00000000000E+00 -0.45593999997E+02  0.45594000000E+02  0.51100000000E-03 0.  1.
    9900012    2    1    2    0    0 -0.33668461958E+02 -0.16836611863E+02 -0.15366459677E+02  0.50528869258E+02  0.30000028597E+02 0.  0.
         12    1    1    2    0    0  0.33668461958E+02  0.16836611863E+02  0.15366459677E+02  0.40659130742E+02  0.00000000000E+00 0. -1.
         11    1    3    3    0    0 -0.12525882542E+02 -0.11027162115E+02 -0.10516360216E+02  0.19725361092E+02  0.51100000000E-03 0. -1.
        -11    1    3    3    0    0 -0.20104735086E+02  0.12896541947E-01 -0.10450378459E+02  0.22658573419E+02  0.51100000000E-03 0.  1.
         12    1    3    3    0    0 -0.10378443297E+01 -0.58223462900E+01  0.56002789975E+01  0.81449347464E+01  0.00000000000E+00 0. -1.
</event>
<event>
 7    1  0.2432574E-011  0.5052885E+02  0.7816164E-02  0.1300439E+00
        -11   -1    0    0    0    0  0.00000000000E+00  0.00000000000E+00  0.45593999997E+02  0.45594000000E+02  0.51100000000E-03 0. -1.
         11   -1    0    0    0    0 -0.00000000000E+00 -0.00000000000E+00 -0.45593999997E+02  0.45594000000E+02  0.51100000000E-03 0.  1.
    9900012    2    1    2    0    0  0.11347402598E+02  0.12778315651E+01 -0.39022687877E+02  0.50528848898E+02  0.29999966709E+02 0.  0.
         12    1    1    2    0    0 -0.11347402598E+02 -0.12778315651E+01  0.39022687877E+02  0.40659151102E+02  0.00000000000E+00 0. -1.
         11    1    3    3    0    0  0.13181001892E+02 -0.41470202247E+01 -0.26672793823E+02  0.30039549234E+02  0.51100000000E-03 0. -1.
        -11    1    3    3    0    0  0.33242506268E+01  0.15665033466E+01 -0.13460358016E+02  0.13952985815E+02  0.51100000000E-03 0.  1.
         12    1    3    3    0    0 -0.51578499212E+01  0.38583484431E+01  0.11104639618E+01  0.65363138487E+01  0.00000000000E+00 0. -1.
</event>
<event>
 7    1  0.2432574E-011  0.5052886E+02  0.7816164E-02  0.1300439E+00
        -11   -1    0    0    0    0  0.00000000000E+00  0.00000000000E+00  0.45593999997E+02  0.45594000000E+02  0.51100000000E-03 0. -1.
         11   -1    0    0    0    0 -0.00000000000E+00 -0.00000000000E+00 -0.45593999997E+02  0.45594000000E+02  0.51100000000E-03 0.  1.
    9900012    2    1    2    0    0  0.25017013812E+02  0.32029903118E+02  0.11831184468E+01  0.50528862735E+02  0.30000008770E+02 0.  0.
         12    1    1    2    0    0 -0.25017013812E+02 -0.32029903118E+02 -0.11831184468E+01  0.40659137265E+02  0.00000000000E+00 0. -1.
         11    1    3    3    0    0  0.15880292820E+02  0.28728572004E+01  0.21665931516E+00  0.16139515175E+02  0.51100000000E-03 0. -1.
        -11    1    3    3    0    0  0.47709045233E+01  0.82005515418E+01 -0.67402109484E+01  0.11637913020E+02  0.51100000000E-03 0.  1.
        -12    1    3    3    0    0  0.43658164689E+01  0.20956494376E+02  0.77066700800E+01  0.22751434541E+02  0.00000000000E+00 0.  1.
</event>
<event>
 7    1  0.2432574E-011  0.5052885E+02  0.7816164E-02  0.1300439E+00
        -11   -1    0    0    0    0  0.00000000000E+00  0.00000000000E+00  0.45593999997E+02  0.45594000000E+02  0.51100000000E-03 0.  1.
         11   -1    0    0    0    0 -0.00000000000E+00 -0.00000000000E+00 -0.45593999997E+02  0.45594000000E+02  0.51100000000E-03 0. -1.
    9900012    2    1    2    0    0  0.27836328956E+02  0.29487086384E+02  0.29692940986E+01  0.50528853666E+02  0.29999981203E+02 0.  0.
         12    1    1    2    0    0 -0.27836328956E+02 -0.29487086384E+02 -0.29692940986E+01  0.40659146334E+02  0.00000000000E+00 0. -1.
         11    1    3    3    0    0  0.20881037752E+02  0.30336477979E+02  0.71844792172E+01  0.37522478272E+02  0.51100000000E-03 0.  1.
        -11    1    3    3    0    0  0.85880904143E+01 -0.24601657145E+01 -0.90502178657E+00  0.89792414491E+01  0.51100000000E-03 0. -1.
        -12    1    3    3    0    0 -0.16327992105E+01  0.16107741189E+01 -0.33101633321E+01  0.40271339447E+01  0.00000000000E+00 0.  1.
</event>
<event>
 7    1  0.2432574E-011  0.5052886E+02  0.7816164E-02  0.1300439E+00
        -11   -1    0    0    0    0  0.00000000000E+00  0.00000000000E+00  0.45593999997E+02  0.45594000000E+02  0.51100000000E-03 0.  1.
         11   -1    0    0    0    0 -0.00000000000E+00 -0.00000000000E+00 -0.45593999997E+02  0.45594000000E+02  0.51100000000E-03 0. -1.
    9900012    2    1    2    0    0 -0.38081756287E+02  0.13363904334E+02 -0.49347238124E+01  0.50528860805E+02  0.30000002903E+02 0.  0.
         12    1    1    2    0    0  0.38081756287E+02 -0.13363904334E+02  0.49347238124E+01  0.40659139195E+02  0.00000000000E+00 0. -1.
         11    1    3    3    0    0 -0.23242956012E+02 -0.16733770857E+01 -0.95300151552E+01  0.25176504606E+02  0.51100000000E-03 0. -1.
        -11    1    3    3    0    0 -0.10646433445E+02  0.44168065772E+01  0.72671288420E+01  0.13625927026E+02  0.51100000000E-03 0.  1.
        -12    1    3    3    0    0 -0.41923668294E+01  0.10620474843E+02 -0.26718374992E+01  0.11726429173E+02  0.00000000000E+00 0.  1.
</event>
<event>
 7    1  0.2432574E-011  0.5052886E+02  0.7816164E-02  0.1300439E+00
        -11   -1    0    0    0    0  0.00000000000E+00  0.00000000000E+00  0.45593999997E+02  0.45594000000E+02  0.51100000000E-03 0. -1.
         11   -1    0    0    0    0 -0.00000000000E+00 -0.00000000000E+00 -0.45593999997E+02  0.45594000000E+02  0.51100000000E-03 0.  1.
    9900012    2    1    2    0    0  0.23579917556E+02 -0.22948822027E+02 -0.23885240079E+02  0.50528860339E+02  0.30000001485E+02 0.  0.
         12    1    1    2    0    0 -0.23579917556E+02  0.22948822027E+02  0.23885240079E+02  0.40659139661E+02  0.00000000000E+00 0. -1.
         11    1    3    3    0    0  0.19616262962E+02 -0.20735248356E+02 -0.76900544828E+01  0.29561549945E+02  0.51100000000E-03 0. -1.
        -11    1    3    3    0    0 -0.19429743182E+01  0.14410193195E+01  0.84780706643E+00  0.25632914316E+01  0.51100000000E-03 0.  1.
        -12    1    3    3    0    0  0.59066289123E+01 -0.36545929905E+01 -0.17042992663E+02  0.18404018962E+02  0.00000000000E+00 0.  1.
</event>
<event>
 7    1  0.2432574E-011  0.5052885E+02  0.7816164E-02  0.1300439E+00
        -11   -1    0    0    0    0  0.00000000000E+00  0.00000000000E+00  0.45593999997E+02  0.45594000000E+02  0.51100000000E-03 0. -1.
         11   -1    0    0    0    0 -0.00000000000E+00 -0.00000000000E+00 -0.45593999997E+02  0.45594000000E+02  0.51100000000E-03 0.  1.
    9900012    2    1    2    0    0  0.78634160455E+01  0.36485733569E+02 -0.16128369463E+02  0.50528851367E+02  0.29999974217E+02 0.  0.
         12    1    1    2    0    0 -0.78634160455E+01 -0.36485733569E+02  0.16128369463E+02  0.40659148633E+02  0.00000000000E+00 0. -1.
         11    1    3    3    0    0 -0.78137140691E+01  0.43407927145E+01 -0.23605766087E+01  0.92449408397E+01  0.51100000000E-03 0. -1.
        -11    1    3    3    0    0  0.83972551144E+01  0.63626069276E+01  0.11869768013E+01  0.10602149525E+02  0.51100000000E-03 0.  1.
        -12    1    3    3    0    0  0.72798750002E+01  0.25782333927E+02 -0.14954769656E+02  0.30681761002E+02  0.00000000000E+00 0.  1.
</event>
<event>
 7    1  0.2432574E-011  0.5052885E+02  0.7816164E-02  0.1300439E+00
        -11   -1    0    0    0    0  0.00000000000E+00  0.00000000000E+00  0.45593999997E+02  0.45594000000E+02  0.51100000000E-03 0.  1.
         11   -1    0    0    0    0 -0.00000000000E+00 -0.00000000000E+00 -0.45593999997E+02  0.45594000000E+02  0.51100000000E-03 0. -1.
    9900012    2    1    2    0    0 -0.39914235583E+02 -0.75784455821E+01 -0.16084947656E+01  0.50528852259E+02  0.29999976927E+02 0.  0.
         12    1    1    2    0    0  0.39914235583E+02  0.75784455821E+01  0.16084947656E+01  0.40659147741E+02  0.00000000000E+00 0. -1.
         11    1    3    3    0    0 -0.19538040058E+02 -0.20809755252E+01 -0.13397776196E+02  0.23781628954E+02  0.51100000000E-03 0. -1.
        -11    1    3    3    0    0  0.86064650947E+00 -0.11358803073E+00  0.30308731943E+01  0.31527459834E+01  0.51100000000E-03 0.  1.
        -12    1    3    3    0    0 -0.21236842034E+02 -0.53838820262E+01  0.87584082360E+01  0.23594477322E+02  0.00000000000E+00 0.  1.
</event>
<event>
 7    1  0.2432574E-011  0.5052887E+02  0.7816164E-02  0.1300439E+00
        -11   -1    0    0    0    0  0.00000000000E+00  0.00000000000E+00  0.45593999997E+02  0.45594000000E+02  0.51100000000E-03 0.  1.
         11   -1    0    0    0    0 -0.00000000000E+00 -0.00000000000E+00 -0.45593999997E+02  0.45594000000E+02  0.51100000000E-03 0. -1.
    9900012    2    1    2    0    0 -0.99099269424E+01 -0.37877235678E+02  0.10966897012E+02  0.50528874768E+02  0.30000045343E+02 0.  0.
         12    1    1    2    0    0  0.99099269424E+01  0.37877235678E+02 -0.10966897012E+02  0.40659125232E+02  0.00000000000E+00 0. -1.
         11    1    3    3    0    0 -0.35451704529E+01 -0.57010633576E+01 -0.54243141384E+01  0.86309640876E+01  0.51100000000E-03 0. -1.
        -11    1    3    3    0    0 -0.56941584928E+01 -0.29607656203E+02  0.54494783435E+01  0.30638759134E+02  0.51100000000E-03 0.  1.
         12    1    3    3    0    0 -0.67059799668E+00 -0.25685161172E+01  0.10941732807E+02  0.11259151546E+02  0.00000000000E+00 0. -1.
</event>
<event>
 7    1  0.2432574E-011  0.5052886E+02  0.7816164E-02  0.1300439E+00
        -11   -1    0    0    0    0  0.00000000000E+00  0.00000000000E+00  0.45593999997E+02  0.45594000000E+02  0.51100000000E-03 0.  1.
         11   -1    0    0    0    0 -0.00000000000E+00 -0.00000000000E+00 -0.45593999997E+02  0.45594000000E+02  0.51100000000E-03 0. -1.
    9900012    2    1    2    0    0 -0.76029788337E+01 -0.16533692167E+02  0.36359278139E+02  0.50528863627E+02  0.30000011479E+02 0.  0.
         12    1    1    2    0    0  0.76029788337E+01  0.16533692167E+02 -0.36359278139E+02  0.40659136373E+02  0.00000000000E+00 0. -1.
         11    1    3    3    0    0 -0.17075912197E+01  0.60879075789E+01  0.15075676274E+02  0.16347920413E+02  0.51100000000E-03 0. -1.
        -11    1    3    3    0    0 -0.38710566475E+00 -0.15230676863E+01 -0.18250017242E+01  0.24083640769E+01  0.51100000000E-03 0.  1.
        -12    1    3    3    0    0 -0.55082819492E+01 -0.21098532060E+02  0.23108603589E+02  0.31772579136E+02  0.00000000000E+00 0.  1.
</event>
<event>
 7    1  0.2432574E-011  0.5052885E+02  0.7816164E-02  0.1300439E+00
        -11   -1    0    0    0    0  0.00000000000E+00  0.00000000000E+00  0.45593999997E+02  0.45594000000E+02  0.51100000000E-03 0.  1.
         11   -1    0    0    0    0 -0.00000000000E+00 -0.00000000000E+00 -0.45593999997E+02  0.45594000000E+02  0.51100000000E-03 0. -1.
    9900012    2    1    2    0    0 -0.90804804224E+01  0.19830076790E+02  0.34314418449E+02  0.50528851169E+02  0.29999973613E+02 0.  0.
         12    1    1    2    0    0  0.90804804224E+01 -0.19830076790E+02 -0.34314418449E+02  0.40659148831E+02  0.00000000000E+00 0. -1.
         11    1    3    3    0    0  0.70009481419E+00  0.10202247346E+02  0.90207967846E+00  0.10265950110E+02  0.51100000000E-03 0. -1.
        -11    1    3    3    0    0  0.20600427667E+01  0.10127314400E+02  0.18754054000E+02  0.21413099142E+02  0.51100000000E-03 0.  1.
        -12    1    3    3    0    0 -0.11840618003E+02 -0.49948495533E+00  0.14658284770E+02  0.18849801917E+02  0.00000000000E+00 0.  1.
</event>
<event>
 7    1  0.2432574E-011  0.5052885E+02  0.7816164E-02  0.1300439E+00
        -11   -1    0    0    0    0  0.00000000000E+00  0.00000000000E+00  0.45593999997E+02  0.45594000000E+02  0.51100000000E-03 0.  1.
         11   -1    0    0    0    0 -0.00000000000E+00 -0.00000000000E+00 -0.45593999997E+02  0.45594000000E+02  0.51100000000E-03 0. -1.
    9900012    2    1    2    0    0 -0.14491156985E+02 -0.42102416042E+01  0.37755086954E+02  0.50528851509E+02  0.29999974647E+02 0.  0.
         12    1    1    2    0    0  0.14491156985E+02  0.42102416042E+01 -0.37755086954E+02  0.40659148491E+02  0.00000000000E+00 0. -1.
         11    1    3    3    0    0  0.46619056643E+00  0.47735869280E+01  0.16860997346E+01  0.50840336722E+01  0.51100000000E-03 0. -1.
        -11    1    3    3    0    0 -0.36993882636E+01  0.23792261424E+01  0.26378693843E+02  0.26742880916E+02  0.51100000000E-03 0.  1.
        -12    1    3    3    0    0 -0.11257959288E+02 -0.11363054675E+02  0.96902933757E+01  0.18701936921E+02  0.00000000000E+00 0.  1.
</event>
<event>
 7    1  0.2432574E-011  0.5052878E+02  0.7816164E-02  0.1300439E+00
        -11   -1    0    0    0    0  0.00000000000E+00  0.00000000000E+00  0.45593999997E+02  0.45594000000E+02  0.51100000000E-03 0.  1.
         11   -1    0    0    0    0 -0.00000000000E+00 -0.00000000000E+00 -0.45593999997E+02  0.45594000000E+02  0.51100000000E-03 0. -1.
    9900012    2    1    2    0    0 -0.32725870050E+02  0.20024388645E+02  0.13461562434E+02  0.50528777500E+02  0.29999749687E+02 0.  0.
         12    1    1    2    0    0  0.32725870050E+02 -0.20024388645E+02 -0.13461562434E+02  0.40659222500E+02  0.00000000000E+00 0. -1.
         11    1    3    3    0    0 -0.18242345048E+02  0.57635241091E+00  0.26436385491E+01  0.18441913132E+02  0.51100000000E-03 0. -1.
        -11    1    3    3    0    0  0.70658260435E+00 -0.30079108193E+01  0.89310822548E+00  0.32162756469E+01  0.51100000000E-03 0.  1.
        -12    1    3    3    0    0 -0.15190107607E+02  0.22455947054E+02  0.99248156590E+01  0.28870588720E+02  0.00000000000E+00 0.  1.
</event>
<event>
 7    1  0.2432574E-011  0.5052886E+02  0.7816164E-02  0.1300439E+00
        -11   -1    0    0    0    0  0.00000000000E+00  0.00000000000E+00  0.45593999997E+02  0.45594000000E+02  0.51100000000E-03 0.  1.
         11   -1    0    0    0    0 -0.00000000000E+00 -0.00000000000E+00 -0.45593999997E+02  0.45594000000E+02  0.51100000000E-03 0. -1.
    9900012    2    1    2    0    0  0.15755767328E+02 -0.82014000459E+01  0.36574011339E+02  0.50528862378E+02  0.30000007683E+02 0.  0.
         12    1    1    2    0    0 -0.15755767328E+02  0.82014000459E+01 -0.36574011339E+02  0.40659137622E+02  0.00000000000E+00 0. -1.
         11    1    3    3    0    0  0.80727586157E+01  0.77878123276E+01  0.61134541671E+01  0.12774731881E+02  0.51100000000E-03 0. -1.
        -11    1    3    3    0    0  0.51648600408E+01 -0.11950593129E+00  0.13185177700E+02  0.14161178346E+02  0.51100000000E-03 0.  1.
         12    1    3    3    0    0  0.25181486716E+01 -0.15869706442E+02  0.17275379472E+02  0.23592952151E+02  0.00000000000E+00 0. -1.
</event>
<event>
 7    1  0.2432574E-011  0.5052889E+02  0.7816164E-02  0.1300439E+00
        -11   -1    0    0    0    0  0.00000000000E+00  0.00000000000E+00  0.45593999997E+02  0.45594000000E+02  0.51100000000E-03 0.  1.
         11   -1    0    0    0    0 -0.00000000000E+00 -0.00000000000E+00 -0.45593999997E+02  0.45594000000E+02  0.51100000000E-03 0. -1.
    9900012    2    1    2    0    0 -0.33475504408E+02  0.14652025068E+02  0.17828958489E+02  0.50528892843E+02  0.30000100285E+02 0.  0.
         12    1    1    2    0    0  0.33475504408E+02 -0.14652025068E+02 -0.17828958489E+02  0.40659107157E+02  0.00000000000E+00 0. -1.
         11    1    3    3    0    0 -0.97276481634E+01  0.30406849208E+01  0.16556630695E+02  0.19442091549E+02  0.51100000000E-03 0. -1.
        -11    1    3    3    0    0  0.12960161612E+01  0.27522056101E-01  0.31737136385E+01  0.34282464722E+01  0.51100000000E-03 0.  1.
        -12    1    3    3    0    0 -0.25043872406E+02  0.11583818091E+02 -0.19013858443E+01  0.27658554821E+02  0.00000000000E+00 0.  1.
</event>
<event>
 7    1  0.2432574E-011  0.5052887E+02  0.7816164E-02  0.1300439E+00
        -11   -1    0    0    0    0  0.00000000000E+00  0.00000000000E+00  0.45593999997E+02  0.45594000000E+02  0.51100000000E-03 0.  1.
         11   -1    0    0    0    0 -0.00000000000E+00 -0.00000000000E+00 -0.45593999997E+02  0.45594000000E+02  0.51100000000E-03 0. -1.
    9900012    2    1    2    0    0 -0.19620143195E+02 -0.14990631376E+02  0.32303183847E+02  0.50528871447E+02  0.30000035249E+02 0.  0.
         12    1    1    2    0    0  0.19620143195E+02  0.14990631376E+02 -0.32303183847E+02  0.40659128553E+02  0.00000000000E+00 0. -1.
         11    1    3    3    0    0 -0.82819489100E+01  0.19117806211E+01  0.22938529523E+02  0.24462659705E+02  0.51100000000E-03 0. -1.
        -11    1    3    3    0    0  0.28770810773E+01 -0.46950236013E+01  0.12470487981E+01  0.56458810746E+01  0.51100000000E-03 0.  1.
        -12    1    3    3    0    0 -0.14215275363E+02 -0.12207388396E+02  0.81176055261E+01  0.20420330667E+02  0.00000000000E+00 0.  1.
</event>
<event>
 7    1  0.2432574E-011  0.5052886E+02  0.7816164E-02  0.1300439E+00
        -11   -1    0    0    0    0  0.00000000000E+00  0.00000000000E+00  0.45593999997E+02  0.45594000000E+02  0.51100000000E-03 0. -1.
         11   -1    0    0    0    0 -0.00000000000E+00 -0.00000000000E+00 -0.45593999997E+02  0.45594000000E+02  0.51100000000E-03 0.  1.
    9900012    2    1    2    0    0  0.11147395607E+02 -0.32284168484E+02 -0.22059783271E+02  0.50528855869E+02  0.29999987899E+02 0.  0.
         12    1    1    2    0    0 -0.11147395607E+02  0.32284168484E+02  0.22059783271E+02  0.40659144131E+02  0.00000000000E+00 0. -1.
         11    1    3    3    0    0  0.11013762773E+02 -0.23620887838E+02 -0.21958501896E+01  0.26154752359E+02  0.51100000000E-03 0. -1.
        -11    1    3    3    0    0 -0.57602799285E+00 -0.85390950497E+01 -0.59081122011E+01  0.10399699157E+02  0.51100000000E-03 0.  1.
         12    1    3    3    0    0  0.70966082688E+00 -0.12418559577E+00 -0.13955820881E+02  0.13974404352E+02  0.00000000000E+00 0. -1.
</event>
<event>
 7    1  0.2432574E-011  0.5052887E+02  0.7816164E-02  0.1300439E+00
        -11   -1    0    0    0    0  0.00000000000E+00  0.00000000000E+00  0.45593999997E+02  0.45594000000E+02  0.51100000000E-03 0.  1.
         11   -1    0    0    0    0 -0.00000000000E+00 -0.00000000000E+00 -0.45593999997E+02  0.45594000000E+02  0.51100000000E-03 0. -1.
    9900012    2    1    2    0    0  0.28069067211E+02  0.22280578259E+02  0.19205941878E+02  0.50528869352E+02  0.30000028882E+02 0.  0.
         12    1    1    2    0    0 -0.28069067211E+02 -0.22280578259E+02 -0.19205941878E+02  0.40659130648E+02  0.00000000000E+00 0. -1.
         11    1    3    3    0    0  0.12247828380E+02  0.17093458272E+01  0.11529684034E+02  0.16907536112E+02  0.51100000000E-03 0. -1.
        -11    1    3    3    0    0  0.12617182576E+02  0.19422500657E+01 -0.10358119427E+01  0.12807753047E+02  0.51100000000E-03 0.  1.
         12    1    3    3    0    0  0.32040562541E+01  0.18628982366E+02  0.87120697865E+01  0.20813580193E+02  0.00000000000E+00 0. -1.
</event>
<event>
 7    1  0.2432574E-011  0.5052886E+02  0.7816164E-02  0.1300439E+00
        -11   -1    0    0    0    0  0.00000000000E+00  0.00000000000E+00  0.45593999997E+02  0.45594000000E+02  0.51100000000E-03 0.  1.
         11   -1    0    0    0    0 -0.00000000000E+00 -0.00000000000E+00 -0.45593999997E+02  0.45594000000E+02  0.51100000000E-03 0. -1.
    9900012    2    1    2    0    0  0.33127150973E+02  0.92634855798E+01 -0.21678228284E+02  0.50528857385E+02  0.29999992508E+02 0.  0.
         12    1    1    2    0    0 -0.33127150973E+02 -0.92634855798E+01  0.21678228284E+02  0.40659142615E+02  0.00000000000E+00 0. -1.
         11    1    3    3    0    0 -0.15136701430E+01  0.25536613555E+01  0.19854109751E+01  0.35713079707E+01  0.51100000000E-03 0. -1.
        -11    1    3    3    0    0  0.99203260192E+01 -0.26854652346E+01 -0.16702270738E+02  0.19610977536E+02  0.51100000000E-03 0.  1.
        -12    1    3    3    0    0  0.24720495096E+02  0.93952894590E+01 -0.69613685208E+01  0.27346571879E+02  0.00000000000E+00 0.  1.
</event>
<event>
 7    1  0.2432574E-011  0.5052888E+02  0.7816164E-02  0.1300439E+00
        -11   -1    0    0    0    0  0.00000000000E+00  0.00000000000E+00  0.45593999997E+02  0.45594000000E+02  0.51100000000E-03 0.  1.
         11   -1    0    0    0    0 -0.00000000000E+00 -0.00000000000E+00 -0.45593999997E+02  0.45594000000E+02  0.51100000000E-03 0. -1.
    9900012    2    1    2    0    0 -0.30775704401E+02  0.65369889832E+00  0.26562994323E+02  0.50528880838E+02  0.30000063796E+02 0.  0.
         12    1    1    2    0    0  0.30775704401E+02 -0.65369889832E+00 -0.26562994323E+02  0.40659119162E+02  0.00000000000E+00 0. -1.
         11    1    3    3    0    0 -0.19676497929E+02  0.14430703764E+02  0.16049681991E+02  0.29206199242E+02  0.51100000000E-03 0. -1.
        -11    1    3    3    0    0 -0.44002724886E+00 -0.17857936785E+01  0.31992613637E+01  0.36902515601E+01  0.51100000000E-03 0.  1.
         12    1    3    3    0    0 -0.10659179223E+02 -0.11991211187E+02  0.73140509679E+01  0.17632430036E+02  0.00000000000E+00 0. -1.
</event>
<event>
 7    1  0.2432574E-011  0.5052886E+02  0.7816164E-02  0.1300439E+00
        -11   -1    0    0    0    0  0.00000000000E+00  0.00000000000E+00  0.45593999997E+02  0.45594000000E+02  0.51100000000E-03 0.  1.
         11   -1    0    0    0    0 -0.00000000000E+00 -0.00000000000E+00 -0.45593999997E+02  0.45594000000E+02  0.51100000000E-03 0. -1.
    9900012    2    1    2    0    0 -0.30121900067E+02 -0.59138026259E+01  0.26662026112E+02  0.50528861279E+02  0.30000004344E+02 0.  0.
         12    1    1    2    0    0  0.30121900067E+02  0.59138026259E+01 -0.26662026112E+02  0.40659138721E+02  0.00000000000E+00 0. -1.
         11    1    3    3    0    0  0.13393582255E+01  0.10884272253E+01 -0.28947829967E+01  0.33702111418E+01  0.51100000000E-03 0. -1.
        -11    1    3    3    0    0 -0.71716380304E+01  0.46558544946E+00  0.17726880351E+02  0.19128289236E+02  0.51100000000E-03 0.  1.
         12    1    3    3    0    0 -0.24289620262E+02 -0.74678153007E+01  0.11829928757E+02  0.28030360901E+02  0.00000000000E+00 0. -1.
</event>
<event>
 7    1  0.2432574E-011  0.5052886E+02  0.7816164E-02  0.1300439E+00
        -11   -1    0    0    0    0  0.00000000000E+00  0.00000000000E+00  0.45593999997E+02  0.45594000000E+02  0.51100000000E-03 0.  1.
         11   -1    0    0    0    0 -0.00000000000E+00 -0.00000000000E+00 -0.45593999997E+02  0.45594000000E+02  0.51100000000E-03 0. -1.
    9900012    2    1    2    0    0 -0.16839674034E+02  0.34601598914E+02 -0.13127071377E+02  0.50528864841E+02  0.30000015171E+02 0.  0.
         12    1    1    2    0    0  0.16839674034E+02 -0.34601598914E+02  0.13127071377E+02  0.40659135159E+02  0.00000000000E+00 0. -1.
         11    1    3    3    0    0  0.33551311534E+01  0.12146268484E+02 -0.56420402921E+01  0.13806569525E+02  0.51100000000E-03 0. -1.
        -11    1    3    3    0    0 -0.22172611718E+02  0.23377540115E+02 -0.38051373487E+01  0.32444000412E+02  0.51100000000E-03 0.  1.
         12    1    3    3    0    0  0.19778065310E+01 -0.92220968480E+00 -0.36798937361E+01  0.42782949040E+01  0.00000000000E+00 0. -1.
</event>
<event>
 7    1  0.2432574E-011  0.5052886E+02  0.7816164E-02  0.1300439E+00
        -11   -1    0    0    0    0  0.00000000000E+00  0.00000000000E+00  0.45593999997E+02  0.45594000000E+02  0.51100000000E-03 0.  1.
         11   -1    0    0    0    0 -0.00000000000E+00 -0.00000000000E+00 -0.45593999997E+02  0.45594000000E+02  0.51100000000E-03 0. -1.
    9900012    2    1    2    0    0  0.28915763070E+02 -0.23530231876E+02 -0.16228756915E+02  0.50528859366E+02  0.29999998530E+02 0.  0.
         12    1    1    2    0    0 -0.28915763070E+02  0.23530231876E+02  0.16228756915E+02  0.40659140634E+02  0.00000000000E+00 0. -1.
         11    1    3    3    0    0  0.27136066597E+02 -0.29338814490E+02 -0.15068675718E+02  0.42710620860E+02  0.51100000000E-03 0. -1.
        -11    1    3    3    0    0  0.15667958043E+01  0.92231585198E+00 -0.21629524032E+01  0.28255758675E+01  0.51100000000E-03 0.  1.
         12    1    3    3    0    0  0.21290066864E+00  0.48862667628E+01  0.10028712064E+01  0.49926626391E+01  0.00000000000E+00 0. -1.
</event>
<event>
 7    1  0.2432574E-011  0.5052887E+02  0.7816164E-02  0.1300439E+00
        -11   -1    0    0    0    0  0.00000000000E+00  0.00000000000E+00  0.45593999997E+02  0.45594000000E+02  0.51100000000E-03 0. -1.
         11   -1    0    0    0    0 -0.00000000000E+00 -0.00000000000E+00 -0.45593999997E+02  0.45594000000E+02  0.51100000000E-03 0.  1.
    9900012    2    1    2    0    0  0.34814824576E+02  0.11158468938E+02 -0.17792742931E+02  0.50528866459E+02  0.30000020090E+02 0.  0.
         12    1    1    2    0    0 -0.34814824576E+02 -0.11158468938E+02  0.17792742931E+02  0.40659133541E+02  0.00000000000E+00 0. -1.
         11    1    3    3    0    0  0.12164042691E+01 -0.26649759726E+01 -0.10034716104E+02  0.10453576604E+02  0.51100000000E-03 0. -1.
        -11    1    3    3    0    0  0.23284418438E+02  0.11065609612E+02 -0.12188505152E+02  0.28516162368E+02  0.51100000000E-03 0.  1.
        -12    1    3    3    0    0  0.10314001869E+02  0.27578352989E+01  0.44304783253E+01  0.11559127488E+02  0.00000000000E+00 0.  1.
</event>
<event>
 7    1  0.2432574E-011  0.5052886E+02  0.7816164E-02  0.1300439E+00
        -11   -1    0    0    0    0  0.00000000000E+00  0.00000000000E+00  0.45593999997E+02  0.45594000000E+02  0.51100000000E-03 0. -1.
         11   -1    0    0    0    0 -0.00000000000E+00 -0.00000000000E+00 -0.45593999997E+02  0.45594000000E+02  0.51100000000E-03 0.  1.
    9900012    2    1    2    0    0 -0.75365815158E+01 -0.28976579244E+02 -0.27508603920E+02  0.50528862094E+02  0.30000006820E+02 0.  0.
         12    1    1    2    0    0  0.75365815158E+01  0.28976579244E+02  0.27508603920E+02  0.40659137906E+02  0.00000000000E+00 0. -1.
         11    1    3    3    0    0 -0.53151082522E+01 -0.37187824032E+01 -0.11347507327E+02  0.13070793438E+02  0.51100000000E-03 0. -1.
        -11    1    3    3    0    0  0.14895903035E+01 -0.18243282097E+02 -0.21238039693E+02  0.28037306418E+02  0.51100000000E-03 0.  1.
         12    1    3    3    0    0 -0.37110635670E+01 -0.70145147441E+01  0.50769431000E+01  0.94207622375E+01  0.00000000000E+00 0. -1.
</event>
<event>
 7    1  0.2432574E-011  0.5052884E+02  0.7816164E-02  0.1300439E+00
        -11   -1    0    0    0    0  0.00000000000E+00  0.00000000000E+00  0.45593999997E+02  0.45594000000E+02  0.51100000000E-03 0.  1.
         11   -1    0    0    0    0 -0.00000000000E+00 -0.00000000000E+00 -0.45593999997E+02  0.45594000000E+02  0.51100000000E-03 0. -1.
    9900012    2    1    2    0    0  0.28935567076E+02 -0.24645403704E+02  0.14439671909E+02  0.50528842476E+02  0.29999947189E+02 0.  0.
         12    1    1    2    0    0 -0.28935567076E+02  0.24645403704E+02 -0.14439671909E+02  0.40659157524E+02  0.00000000000E+00 0. -1.
         11    1    3    3    0    0  0.10257655839E+01 -0.81794510987E+01  0.98039229836E+01  0.12809079648E+02  0.51100000000E-03 0. -1.
        -11    1    3    3    0    0  0.19324014436E+02 -0.16885539144E+02  0.10051060699E+02  0.27560166682E+02  0.51100000000E-03 0.  1.
         12    1    3    3    0    0  0.85857870562E+01  0.41958653870E+00 -0.54153117729E+01  0.10159596145E+02  0.00000000000E+00 0. -1.
</event>
<event>
 7    1  0.2432574E-011  0.5052886E+02  0.7816164E-02  0.1300439E+00
        -11   -1    0    0    0    0  0.00000000000E+00  0.00000000000E+00  0.45593999997E+02  0.45594000000E+02  0.51100000000E-03 0.  1.
         11   -1    0    0    0    0 -0.00000000000E+00 -0.00000000000E+00 -0.45593999997E+02  0.45594000000E+02  0.51100000000E-03 0. -1.
    9900012    2    1    2    0    0  0.25024855396E+02  0.31668276369E+02  0.49033265856E+01  0.50528859240E+02  0.29999998145E+02 0.  0.
         12    1    1    2    0    0 -0.25024855396E+02 -0.31668276369E+02 -0.49033265856E+01  0.40659140760E+02  0.00000000000E+00 0. -1.
         11    1    3    3    0    0  0.81515342003E+01  0.12406205833E+02  0.63761203249E+00  0.14858263773E+02  0.51100000000E-03 0. -1.
        -11    1    3    3    0    0  0.12710787443E+02  0.93840371795E+01  0.14060706463E+02  0.21150123823E+02  0.51100000000E-03 0.  1.
         12    1    3    3    0    0  0.41625337522E+01  0.98780333566E+01 -0.97949919103E+01  0.14520471644E+02  0.00000000000E+00 0. -1.
</event>
<event>
 7    1  0.2432574E-011  0.5052887E+02  0.7816164E-02  0.1300439E+00
        -11   -1    0    0    0    0  0.00000000000E+00  0.00000000000E+00  0.45593999997E+02  0.45594000000E+02  0.51100000000E-03 0.  1.
         11   -1    0    0    0    0 -0.00000000000E+00 -0.00000000000E+00 -0.45593999997E+02  0.45594000000E+02  0.51100000000E-03 0. -1.
    9900012    2    1    2    0    0  0.20759085531E+02  0.22724194632E+02  0.26567583158E+02  0.50528866603E+02  0.30000020526E+02 0.  0.
         12    1    1    2    0    0 -0.20759085531E+02 -0.22724194632E+02 -0.26567583158E+02  0.40659133397E+02  0.00000000000E+00 0. -1.
         11    1    3    3    0    0  0.72011825660E+01  0.59466039077E+01 -0.19755278719E+01  0.95457759777E+01  0.51100000000E-03 0. -1.
        -11    1    3    3    0    0 -0.42308742056E+01  0.28182197585E+01  0.72646686674E+00  0.51352130940E+01  0.51100000000E-03 0.  1.
        -12    1    3    3    0    0  0.17788777170E+02  0.13959370966E+02  0.27816644163E+02  0.35847877531E+02  0.00000000000E+00 0.  1.
</event>
<event>
 7    1  0.2432574E-011  0.5052885E+02  0.7816164E-02  0.1300439E+00
        -11   -1    0    0    0    0  0.00000000000E+00  0.00000000000E+00  0.45593999997E+02  0.45594000000E+02  0.51100000000E-03 0.  1.
         11   -1    0    0    0    0 -0.00000000000E+00 -0.00000000000E+00 -0.45593999997E+02  0.45594000000E+02  0.51100000000E-03 0. -1.
    9900012    2    1    2    0    0 -0.32565205245E+02  0.24322650863E+02  0.10403703296E+01  0.50528852098E+02  0.29999976438E+02 0.  0.
         12    1    1    2    0    0  0.32565205245E+02 -0.24322650863E+02 -0.10403703296E+01  0.40659147902E+02  0.00000000000E+00 0. -1.
         11    1    3    3    0    0 -0.11884203527E+01  0.10354511337E+02  0.11231162596E+01  0.10482825876E+02  0.51100000000E-03 0.  1.
        -11    1    3    3    0    0 -0.47406610748E+01 -0.19126486540E+01  0.65749670845E+01  0.83284022911E+01  0.51100000000E-03 0. -1.
         12    1    3    3    0    0 -0.26636123817E+02  0.15880788181E+02 -0.66577130146E+01  0.31717623931E+02  0.00000000000E+00 0. -1.
</event>
<event>
 7    1  0.2432574E-011  0.5052885E+02  0.7816164E-02  0.1300439E+00
        -11   -1    0    0    0    0  0.00000000000E+00  0.00000000000E+00  0.45593999997E+02  0.45594000000E+02  0.51100000000E-03 0. -1.
         11   -1    0    0    0    0 -0.00000000000E+00 -0.00000000000E+00 -0.45593999997E+02  0.45594000000E+02  0.51100000000E-03 0.  1.
    9900012    2    1    2    0    0  0.98756076646E+01  0.34923493665E+02 -0.18329976476E+02  0.50528854975E+02  0.29999985183E+02 0.  0.
         12    1    1    2    0    0 -0.98756076646E+01 -0.34923493665E+02  0.18329976476E+02  0.40659145025E+02  0.00000000000E+00 0. -1.
         11    1    3    3    0    0  0.18286081713E+01 -0.13133272976E+01 -0.69969283332E+01  0.73502137925E+01  0.51100000000E-03 0. -1.
        -11    1    3    3    0    0  0.35134843977E+01  0.24199986172E+02 -0.16302533820E+02  0.29389734816E+02  0.51100000000E-03 0.  1.
         12    1    3    3    0    0  0.45335150956E+01  0.12036834790E+02  0.49694856770E+01  0.13788906367E+02  0.00000000000E+00 0. -1.
</event>
<event>
 7    1  0.2432574E-011  0.5052886E+02  0.7816164E-02  0.1300439E+00
        -11   -1    0    0    0    0  0.00000000000E+00  0.00000000000E+00  0.45593999997E+02  0.45594000000E+02  0.51100000000E-03 0. -1.
         11   -1    0    0    0    0 -0.00000000000E+00 -0.00000000000E+00 -0.45593999997E+02  0.45594000000E+02  0.51100000000E-03 0.  1.
    9900012    2    1    2    0    0  0.25816880609E+02 -0.44059314976E+01 -0.31100516068E+02  0.50528860112E+02  0.30000000797E+02 0.  0.
         12    1    1    2    0    0 -0.25816880609E+02  0.44059314976E+01  0.31100516068E+02  0.40659139888E+02  0.00000000000E+00 0. -1.
         11    1    3    3    0    0  0.32711789205E+00 -0.57157641544E+01 -0.12745028381E+01  0.58652641654E+01  0.51100000000E-03 0. -1.
        -11    1    3    3    0    0  0.22531625422E+02 -0.68805617494E+01 -0.16567471157E+02  0.28800996075E+02  0.51100000000E-03 0.  1.
         12    1    3    3    0    0  0.29581372954E+01  0.81903944063E+01 -0.13258542073E+02  0.15862599872E+02  0.00000000000E+00 0. -1.
</event>
<event>
 7    1  0.2432574E-011  0.5052887E+02  0.7816164E-02  0.1300439E+00
        -11   -1    0    0    0    0  0.00000000000E+00  0.00000000000E+00  0.45593999997E+02  0.45594000000E+02  0.51100000000E-03 0. -1.
         11   -1    0    0    0    0 -0.00000000000E+00 -0.00000000000E+00 -0.45593999997E+02  0.45594000000E+02  0.51100000000E-03 0.  1.
    9900012    2    1    2    0    0 -0.34328707328E+02  0.15100708391E+02 -0.15705827442E+02  0.50528873640E+02  0.30000041917E+02 0.  0.
         12    1    1    2    0    0  0.34328707328E+02 -0.15100708391E+02  0.15705827442E+02  0.40659126360E+02  0.00000000000E+00 0. -1.
         11    1    3    3    0    0  0.39377816764E+01  0.28403002954E+01 -0.15253775149E+01  0.50892246092E+01  0.51100000000E-03 0. -1.
        -11    1    3    3    0    0 -0.80659265473E+01  0.65150941680E+01  0.22094504840E+01  0.10601287412E+02  0.51100000000E-03 0.  1.
         12    1    3    3    0    0 -0.30200562457E+02  0.57453139274E+01 -0.16389900411E+02  0.34838361619E+02  0.00000000000E+00 0. -1.
</event>
<event>
 7    1  0.2432574E-011  0.5052886E+02  0.7816164E-02  0.1300439E+00
        -11   -1    0    0    0    0  0.00000000000E+00  0.00000000000E+00  0.45593999997E+02  0.45594000000E+02  0.51100000000E-03 0.  1.
         11   -1    0    0    0    0 -0.00000000000E+00 -0.00000000000E+00 -0.45593999997E+02  0.45594000000E+02  0.51100000000E-03 0. -1.
    9900012    2    1    2    0    0  0.13370552479E+02 -0.33843258214E+02  0.18139132657E+02  0.50528856703E+02  0.29999990434E+02 0.  0.
         12    1    1    2    0    0 -0.13370552479E+02  0.33843258214E+02 -0.18139132657E+02  0.40659143297E+02  0.00000000000E+00 0. -1.
         11    1    3    3    0    0  0.68224718103E+01 -0.20739146336E+02 -0.11485629899E+01  0.21862696759E+02  0.51100000000E-03 0. -1.
        -11    1    3    3    0    0  0.10960712048E+01  0.18726071243E+01 -0.13764360754E+01  0.25695536692E+01  0.51100000000E-03 0.  1.
        -12    1    3    3    0    0  0.54520094639E+01 -0.14976719002E+02  0.20664131722E+02  0.26096606275E+02  0.00000000000E+00 0.  1.
</event>
<event>
 7    1  0.2432574E-011  0.5052886E+02  0.7816164E-02  0.1300439E+00
        -11   -1    0    0    0    0  0.00000000000E+00  0.00000000000E+00  0.45593999997E+02  0.45594000000E+02  0.51100000000E-03 0.  1.
         11   -1    0    0    0    0 -0.00000000000E+00 -0.00000000000E+00 -0.45593999997E+02  0.45594000000E+02  0.51100000000E-03 0. -1.
    9900012    2    1    2    0    0 -0.32283817320E+02  0.15221427281E+02  0.19473811192E+02  0.50528855499E+02  0.29999986775E+02 0.  0.
         12    1    1    2    0    0  0.32283817320E+02 -0.15221427281E+02 -0.19473811192E+02  0.40659144501E+02  0.00000000000E+00 0. -1.
         11    1    3    3    0    0  0.24669801591E-01  0.18654435190E+01  0.69604362025E+01  0.72061196571E+01  0.51100000000E-03 0. -1.
        -11    1    3    3    0    0 -0.15119218006E+02 -0.30547034007E+01  0.12015569506E+02  0.19552388007E+02  0.51100000000E-03 0.  1.
        -12    1    3    3    0    0 -0.17189269115E+02  0.16410687163E+02  0.49780548397E+00  0.23770347835E+02  0.00000000000E+00 0.  1.
</event>
<event>
 7    1  0.2432574E-011  0.5052886E+02  0.7816164E-02  0.1300439E+00
        -11   -1    0    0    0    0  0.00000000000E+00  0.00000000000E+00  0.45593999997E+02  0.45594000000E+02  0.51100000000E-03 0. -1.
         11   -1    0    0    0    0 -0.00000000000E+00 -0.00000000000E+00 -0.45593999997E+02  0.45594000000E+02  0.51100000000E-03 0.  1.
    9900012    2    1    2    0    0 -0.26761616643E+02 -0.64188901144E+00 -0.30603425317E+02  0.50528858495E+02  0.29999995881E+02 0.  0.
         12    1    1    2    0    0  0.26761616643E+02  0.64188901144E+00  0.30603425317E+02  0.40659141505E+02  0.00000000000E+00 0. -1.
         11    1    3    3    0    0 -0.76040801784E+01  0.95614662949E+01 -0.94927417210E+01  0.15471128553E+02  0.51100000000E-03 0. -1.
        -11    1    3    3    0    0 -0.13475486570E+02 -0.64537966302E+00 -0.30228614176E+01  0.13825445548E+02  0.51100000000E-03 0.  1.
         12    1    3    3    0    0 -0.56820498945E+01 -0.95579756433E+01 -0.18087822178E+02  0.21232284393E+02  0.00000000000E+00 0. -1.
</event>
<event>
 7    1  0.2432574E-011  0.5052885E+02  0.7816164E-02  0.1300439E+00
        -11   -1    0    0    0    0  0.00000000000E+00  0.00000000000E+00  0.45593999997E+02  0.45594000000E+02  0.51100000000E-03 0. -1.
         11   -1    0    0    0    0 -0.00000000000E+00 -0.00000000000E+00 -0.45593999997E+02  0.45594000000E+02  0.51100000000E-03 0.  1.
    9900012    2    1    2    0    0 -0.32480229090E+02  0.82290634052E+01  0.23032226203E+02  0.50528853302E+02  0.29999980098E+02 0.  0.
         12    1    1    2    0    0  0.32480229090E+02 -0.82290634052E+01 -0.23032226203E+02  0.40659146698E+02  0.00000000000E+00 0. -1.
         11    1    3    3    0    0  0.16604360015E+01 -0.43681211106E+01 -0.22586594970E+00  0.46785195778E+01  0.51100000000E-03 0. -1.
        -11    1    3    3    0    0 -0.16931069443E+02  0.59953016501E+01  0.20429069536E+02  0.27202052068E+02  0.51100000000E-03 0.  1.
         12    1    3    3    0    0 -0.17209595649E+02  0.66018828657E+01  0.28290226172E+01  0.18648281657E+02  0.00000000000E+00 0. -1.
</event>
<event>
 7    1  0.2432574E-011  0.5052883E+02  0.7816164E-02  0.1300439E+00
        -11   -1    0    0    0    0  0.00000000000E+00  0.00000000000E+00  0.45593999997E+02  0.45594000000E+02  0.51100000000E-03 0.  1.
         11   -1    0    0    0    0 -0.00000000000E+00 -0.00000000000E+00 -0.45593999997E+02  0.45594000000E+02  0.51100000000E-03 0. -1.
    9900012    2    1    2    0    0 -0.39881482740E+02 -0.29019192526E+01  0.73630454535E+01  0.50528828351E+02  0.29999904254E+02 0.  0.
         12    1    1    2    0    0  0.39881482740E+02  0.29019192526E+01 -0.73630454535E+01  0.40659171649E+02  0.00000000000E+00 0. -1.
         11    1    3    3    0    0  0.71521822455E-01  0.17208313275E+01  0.82053256838E-02  0.17223366155E+01  0.51100000000E-03 0. -1.
        -11    1    3    3    0    0 -0.32410975393E+02 -0.59797598334E+01 -0.59134072402E+01  0.33484283464E+02  0.51100000000E-03 0.  1.
        -12    1    3    3    0    0 -0.75420291688E+01  0.13570092533E+01  0.13268247368E+02  0.15322208271E+02  0.00000000000E+00 0.  1.
</event>
<event>
 7    1  0.2432574E-011  0.5052887E+02  0.7816164E-02  0.1300439E+00
        -11   -1    0    0    0    0  0.00000000000E+00  0.00000000000E+00  0.45593999997E+02  0.45594000000E+02  0.51100000000E-03 0.  1.
         11   -1    0    0    0    0 -0.00000000000E+00 -0.00000000000E+00 -0.45593999997E+02  0.45594000000E+02  0.51100000000E-03 0. -1.
    9900012    2    1    2    0    0  0.22673865054E+02 -0.20591088559E+02  0.26740744992E+02  0.50528873998E+02  0.30000043004E+02 0.  0.
         12    1    1    2    0    0 -0.22673865054E+02  0.20591088559E+02 -0.26740744992E+02  0.40659126002E+02  0.00000000000E+00 0. -1.
         11    1    3    3    0    0 -0.34777102010E+01 -0.40455191834E+01 -0.16958108167E+01  0.55978985604E+01  0.51100000000E-03 0.  1.
        -11    1    3    3    0    0  0.64442766382E+01 -0.12527909076E+01 -0.66849057713E+00  0.65988685667E+01  0.51100000000E-03 0. -1.
        -12    1    3    3    0    0  0.19707298617E+02 -0.15292778468E+02  0.29105046385E+02  0.38332106871E+02  0.00000000000E+00 0.  1.
</event>
<event>
 7    1  0.2432574E-011  0.5052886E+02  0.7816164E-02  0.1300439E+00
        -11   -1    0    0    0    0  0.00000000000E+00  0.00000000000E+00  0.45593999997E+02  0.45594000000E+02  0.51100000000E-03 0. -1.
         11   -1    0    0    0    0 -0.00000000000E+00 -0.00000000000E+00 -0.45593999997E+02  0.45594000000E+02  0.51100000000E-03 0.  1.
    9900012    2    1    2    0    0  0.11871447568E+02 -0.41823260361E+01 -0.38661895841E+02  0.50528864392E+02  0.30000013805E+02 0.  0.
         12    1    1    2    0    0 -0.11871447568E+02  0.41823260361E+01  0.38661895841E+02  0.40659135608E+02  0.00000000000E+00 0. -1.
         11    1    3    3    0    0 -0.57996773172E+00  0.16792693017E+00  0.30405754673E+01  0.30999453959E+01  0.51100000000E-03 0. -1.
        -11    1    3    3    0    0 -0.28371004626E+01 -0.60685658813E+01 -0.17633252910E+02  0.18862879933E+02  0.51100000000E-03 0.  1.
        -12    1    3    3    0    0  0.15288515762E+02  0.17183129151E+01 -0.24069218398E+02  0.28566039063E+02  0.00000000000E+00 0.  1.
</event>
<event>
 7    1  0.2432574E-011  0.5052886E+02  0.7816164E-02  0.1300439E+00
        -11   -1    0    0    0    0  0.00000000000E+00  0.00000000000E+00  0.45593999997E+02  0.45594000000E+02  0.51100000000E-03 0.  1.
         11   -1    0    0    0    0 -0.00000000000E+00 -0.00000000000E+00 -0.45593999997E+02  0.45594000000E+02  0.51100000000E-03 0. -1.
    9900012    2    1    2    0    0  0.24999213231E+02 -0.32011101414E+02 -0.18692389617E+01  0.50528864123E+02  0.30000012989E+02 0.  0.
         12    1    1    2    0    0 -0.24999213231E+02  0.32011101414E+02  0.18692389617E+01  0.40659135877E+02  0.00000000000E+00 0. -1.
         11    1    3    3    0    0  0.34457093307E+01 -0.27682655980E+01 -0.42272040695E+01  0.61160004675E+01  0.51100000000E-03 0. -1.
        -11    1    3    3    0    0 -0.28336798651E+01 -0.88485986426E+00 -0.54486189209E+01  0.62048502772E+01  0.51100000000E-03 0.  1.
        -12    1    3    3    0    0  0.24387183766E+02 -0.28357975952E+02  0.78065840287E+01  0.38208013378E+02  0.00000000000E+00 0.  1.
</event>
<event>
 7    1  0.2432574E-011  0.5052886E+02  0.7816164E-02  0.1300439E+00
        -11   -1    0    0    0    0  0.00000000000E+00  0.00000000000E+00  0.45593999997E+02  0.45594000000E+02  0.51100000000E-03 0. -1.
         11   -1    0    0    0    0 -0.00000000000E+00 -0.00000000000E+00 -0.45593999997E+02  0.45594000000E+02  0.51100000000E-03 0.  1.
    9900012    2    1    2    0    0 -0.32945325984E+02 -0.90832940491E+01 -0.22028722494E+02  0.50528863884E+02  0.30000012261E+02 0.  0.
         12    1    1    2    0    0  0.32945325984E+02  0.90832940491E+01  0.22028722494E+02  0.40659136116E+02  0.00000000000E+00 0. -1.
         11    1    3    3    0    0 -0.21366185473E+02 -0.38948950772E+01 -0.11427126347E+02  0.24541053485E+02  0.51100000000E-03 0. -1.
        -11    1    3    3    0    0 -0.12005313471E+02  0.50526024258E+01 -0.34022703765E+01  0.13462235579E+02  0.51100000000E-03 0.  1.
        -12    1    3    3    0    0  0.42617296000E+00 -0.10241001398E+02 -0.71993257705E+01  0.12525574820E+02  0.00000000000E+00 0.  1.
</event>
<event>
 7    1  0.2432574E-011  0.5052886E+02  0.7816164E-02  0.1300439E+00
        -11   -1    0    0    0    0  0.00000000000E+00  0.00000000000E+00  0.45593999997E+02  0.45594000000E+02  0.51100000000E-03 0.  1.
         11   -1    0    0    0    0 -0.00000000000E+00 -0.00000000000E+00 -0.45593999997E+02  0.45594000000E+02  0.51100000000E-03 0. -1.
    9900012    2    1    2    0    0 -0.99417741912E+01  0.38642995559E+02  0.78131478580E+01  0.50528864996E+02  0.30000015641E+02 0.  0.
         12    1    1    2    0    0  0.99417741912E+01 -0.38642995559E+02 -0.78131478580E+01  0.40659135004E+02  0.00000000000E+00 0. -1.
         11    1    3    3    0    0 -0.42664056384E+01  0.17279113148E+02  0.54284972550E-01  0.17798115500E+02  0.51100000000E-03 0.  1.
        -11    1    3    3    0    0 -0.38264460889E+01  0.18749372048E+02  0.15324245162E+02  0.24515569174E+02  0.51100000000E-03 0. -1.
         12    1    3    3    0    0 -0.18489224639E+01  0.26145103634E+01 -0.75653822769E+01  0.82151803214E+01  0.00000000000E+00 0. -1.
</event>
<event>
 7    1  0.2432574E-011  0.5052886E+02  0.7816164E-02  0.1300439E+00
        -11   -1    0    0    0    0  0.00000000000E+00  0.00000000000E+00  0.45593999997E+02  0.45594000000E+02  0.51100000000E-03 0. -1.
         11   -1    0    0    0    0 -0.00000000000E+00 -0.00000000000E+00 -0.45593999997E+02  0.45594000000E+02  0.51100000000E-03 0.  1.
    9900012    2    1    2    0    0 -0.34328259717E+02 -0.64389873759E+01 -0.20815270259E+02  0.50528862656E+02  0.30000008528E+02 0.  0.
         12    1    1    2    0    0  0.34328259717E+02  0.64389873759E+01  0.20815270259E+02  0.40659137344E+02  0.00000000000E+00 0. -1.
         11    1    3    3    0    0 -0.63975815666E+00 -0.96224121794E+01 -0.70495547257E+01  0.11945556862E+02  0.51100000000E-03 0. -1.
        -11    1    3    3    0    0 -0.11235468979E+02 -0.42846382391E+01 -0.72457626230E+01  0.14039051402E+02  0.51100000000E-03 0.  1.
         12    1    3    3    0    0 -0.22453032581E+02  0.74680630427E+01 -0.65199529108E+01  0.24544254391E+02  0.00000000000E+00 0. -1.
</event>
<event>
 7    1  0.2432574E-011  0.5052885E+02  0.7816164E-02  0.1300439E+00
        -11   -1    0    0    0    0  0.00000000000E+00  0.00000000000E+00  0.45593999997E+02  0.45594000000E+02  0.51100000000E-03 0. -1.
         11   -1    0    0    0    0 -0.00000000000E+00 -0.00000000000E+00 -0.45593999997E+02  0.45594000000E+02  0.51100000000E-03 0.  1.
    9900012    2    1    2    0    0 -0.36695920878E+02  0.17505802962E+02  0.35018384964E+00  0.50528851273E+02  0.29999973929E+02 0.  0.
         12    1    1    2    0    0  0.36695920878E+02 -0.17505802962E+02 -0.35018384964E+00  0.40659148727E+02  0.00000000000E+00 0. -1.
         11    1    3    3    0    0 -0.38125902776E+01  0.13681826658E+02 -0.25120011695E+01  0.14423535470E+02  0.51100000000E-03 0. -1.
        -11    1    3    3    0    0 -0.17274218220E+02  0.80510716137E+01 -0.21398130836E+01  0.19178038730E+02  0.51100000000E-03 0.  1.
         12    1    3    3    0    0 -0.15609112381E+02 -0.42270953093E+01  0.50019981028E+01  0.16927277072E+02  0.00000000000E+00 0. -1.
</event>
<event>
 7    1  0.2432574E-011  0.5052886E+02  0.7816164E-02  0.1300439E+00
        -11   -1    0    0    0    0  0.00000000000E+00  0.00000000000E+00  0.45593999997E+02  0.45594000000E+02  0.51100000000E-03 0.  1.
         11   -1    0    0    0    0 -0.00000000000E+00 -0.00000000000E+00 -0.45593999997E+02  0.45594000000E+02  0.51100000000E-03 0. -1.
    9900012    2    1    2    0    0  0.44867582987E+01  0.36383886758E+01  0.40246703693E+02  0.50528855514E+02  0.29999986820E+02 0.  0.
         12    1    1    2    0    0 -0.44867582987E+01 -0.36383886758E+01 -0.40246703693E+02  0.40659144486E+02  0.00000000000E+00 0. -1.
         11    1    3    3    0    0  0.65014196809E+00  0.10097889304E+02  0.26714235886E+02  0.28566421761E+02  0.51100000000E-03 0. -1.
        -11    1    3    3    0    0  0.73502486895E+01  0.21505886037E+01  0.39796753402E+01  0.86307012006E+01  0.51100000000E-03 0.  1.
         12    1    3    3    0    0 -0.35136323588E+01 -0.86100892321E+01  0.95527924669E+01  0.13331732553E+02  0.00000000000E+00 0. -1.
</event>
<event>
 7    1  0.2432574E-011  0.5052886E+02  0.7816164E-02  0.1300439E+00
        -11   -1    0    0    0    0  0.00000000000E+00  0.00000000000E+00  0.45593999997E+02  0.45594000000E+02  0.51100000000E-03 0.  1.
         11   -1    0    0    0    0 -0.00000000000E+00 -0.00000000000E+00 -0.45593999997E+02  0.45594000000E+02  0.51100000000E-03 0. -1.
    9900012    2    1    2    0    0 -0.52254260915E+01  0.92785205702E+01  0.39239898626E+02  0.50528859994E+02  0.30000000439E+02 0.  0.
         12    1    1    2    0    0  0.52254260915E+01 -0.92785205702E+01 -0.39239898626E+02  0.40659140006E+02  0.00000000000E+00 0. -1.
         11    1    3    3    0    0  0.69076896831E+01 -0.53090126629E+01  0.66655942425E+01  0.10969591564E+02  0.51100000000E-03 0. -1.
        -11    1    3    3    0    0 -0.25014290205E+01  0.10730894044E+02  0.10747739804E+02  0.15392307991E+02  0.51100000000E-03 0.  1.
        -12    1    3    3    0    0 -0.96316867541E+01  0.38566391893E+01  0.21826564579E+02  0.24166960440E+02  0.00000000000E+00 0.  1.
</event>
<event>
 7    1  0.2432574E-011  0.5052885E+02  0.7816164E-02  0.1300439E+00
        -11   -1    0    0    0    0  0.00000000000E+00  0.00000000000E+00  0.45593999997E+02  0.45594000000E+02  0.51100000000E-03 0.  1.
         11   -1    0    0    0    0 -0.00000000000E+00 -0.00000000000E+00 -0.45593999997E+02  0.45594000000E+02  0.51100000000E-03 0. -1.
    9900012    2    1    2    0    0  0.23449925439E+02  0.13494091429E+02  0.30350902359E+02  0.50528846288E+02  0.29999958776E+02 0.  0.
         12    1    1    2    0    0 -0.23449925439E+02 -0.13494091429E+02 -0.30350902359E+02  0.40659153712E+02  0.00000000000E+00 0. -1.
         11    1    3    3    0    0  0.13883115357E+02  0.13444189802E+02  0.22130407956E+02  0.29380981740E+02  0.51100000000E-03 0. -1.
        -11    1    3    3    0    0  0.10774126832E+02  0.63076329323E+01  0.28316212652E+01  0.12801801492E+02  0.51100000000E-03 0.  1.
         12    1    3    3    0    0 -0.12073167499E+01 -0.62577313057E+01  0.53888731378E+01  0.83460630554E+01  0.00000000000E+00 0. -1.
</event>
<event>
 7    1  0.2432574E-011  0.5052885E+02  0.7816164E-02  0.1300439E+00
        -11   -1    0    0    0    0  0.00000000000E+00  0.00000000000E+00  0.45593999997E+02  0.45594000000E+02  0.51100000000E-03 0.  1.
         11   -1    0    0    0    0 -0.00000000000E+00 -0.00000000000E+00 -0.45593999997E+02  0.45594000000E+02  0.51100000000E-03 0. -1.
    9900012    2    1    2    0    0 -0.12625911537E+02 -0.37787442113E+02  0.81155268573E+01  0.50528853431E+02  0.29999980488E+02 0.  0.
         12    1    1    2    0    0  0.12625911537E+02  0.37787442113E+02 -0.81155268573E+01  0.40659146569E+02  0.00000000000E+00 0. -1.
         11    1    3    3    0    0  0.51493380706E+00  0.81734068229E+00 -0.24914924921E+01  0.26722158812E+01  0.51100000000E-03 0. -1.
        -11    1    3    3    0    0  0.11900245973E+01 -0.20636462963E+02 -0.33895653276E+01  0.20946811584E+02  0.51100000000E-03 0.  1.
        -12    1    3    3    0    0 -0.14330869942E+02 -0.17968319832E+02  0.13996584677E+02  0.26909825966E+02  0.00000000000E+00 0.  1.
</event>
<event>
 7    1  0.2432574E-011  0.5052886E+02  0.7816164E-02  0.1300439E+00
        -11   -1    0    0    0    0  0.00000000000E+00  0.00000000000E+00  0.45593999997E+02  0.45594000000E+02  0.51100000000E-03 0.  1.
         11   -1    0    0    0    0 -0.00000000000E+00 -0.00000000000E+00 -0.45593999997E+02  0.45594000000E+02  0.51100000000E-03 0. -1.
    9900012    2    1    2    0    0  0.18896188036E+01 -0.19521546957E+02  0.35616067071E+02  0.50528859719E+02  0.29999999602E+02 0.  0.
         12    1    1    2    0    0 -0.18896188036E+01  0.19521546957E+02 -0.35616067071E+02  0.40659140281E+02  0.00000000000E+00 0. -1.
         11    1    3    3    0    0 -0.50096176657E+01 -0.58986284541E+01 -0.60832510752E+00  0.77627409137E+01  0.51100000000E-03 0. -1.
        -11    1    3    3    0    0  0.13563190377E+01 -0.11790762242E+02  0.89258593055E+01  0.14850341417E+02  0.51100000000E-03 0.  1.
         12    1    3    3    0    0  0.55429174316E+01 -0.18321562603E+01  0.27298532873E+02  0.27915777389E+02  0.00000000000E+00 0. -1.
</event>
<event>
 7    1  0.2432574E-011  0.5052877E+02  0.7816164E-02  0.1300439E+00
        -11   -1    0    0    0    0  0.00000000000E+00  0.00000000000E+00  0.45593999997E+02  0.45594000000E+02  0.51100000000E-03 0.  1.
         11   -1    0    0    0    0 -0.00000000000E+00 -0.00000000000E+00 -0.45593999997E+02  0.45594000000E+02  0.51100000000E-03 0. -1.
    9900012    2    1    2    0    0 -0.10204895563E+02 -0.30543056506E+02  0.24822471492E+02  0.50528766299E+02  0.29999715641E+02 0.  0.
         12    1    1    2    0    0  0.10204895563E+02  0.30543056506E+02 -0.24822471492E+02  0.40659233701E+02  0.00000000000E+00 0. -1.
         11    1    3    3    0    0  0.18342361339E+01 -0.87973031919E+01  0.92761826650E+01  0.12915282836E+02  0.51100000000E-03 0. -1.
        -11    1    3    3    0    0  0.11808035556E+01 -0.94371638629E+01  0.17013216268E+02  0.19491123284E+02  0.51100000000E-03 0.  1.
        -12    1    3    3    0    0 -0.13219935252E+02 -0.12308589451E+02 -0.14669274411E+01  0.18122360179E+02  0.00000000000E+00 0.  1.
</event>
<event>
 7    1  0.2432574E-011  0.5052885E+02  0.7816164E-02  0.1300439E+00
        -11   -1    0    0    0    0  0.00000000000E+00  0.00000000000E+00  0.45593999997E+02  0.45594000000E+02  0.51100000000E-03 0.  1.
         11   -1    0    0    0    0 -0.00000000000E+00 -0.00000000000E+00 -0.45593999997E+02  0.45594000000E+02  0.51100000000E-03 0. -1.
    9900012    2    1    2    0    0 -0.95321056102E+01 -0.36051767031E+02  0.16204181854E+02  0.50528850317E+02  0.29999971022E+02 0.  0.
         12    1    1    2    0    0  0.95321056102E+01  0.36051767031E+02 -0.16204181854E+02  0.40659149683E+02  0.00000000000E+00 0. -1.
         11    1    3    3    0    0  0.32624161992E+01 -0.70621199817E+01 -0.39046225797E+01  0.87041930036E+01  0.51100000000E-03 0. -1.
        -11    1    3    3    0    0 -0.47408031725E+01  0.14275335605E+01  0.11287763816E+01  0.50781101965E+01  0.51100000000E-03 0.  1.
        -12    1    3    3    0    0 -0.80537186369E+01 -0.30417180610E+02  0.18980028052E+02  0.36746547117E+02  0.00000000000E+00 0.  1.
</event>
<event>
 7    1  0.2432574E-011  0.5052886E+02  0.7816164E-02  0.1300439E+00
        -11   -1    0    0    0    0  0.00000000000E+00  0.00000000000E+00  0.45593999997E+02  0.45594000000E+02  0.51100000000E-03 0.  1.
         11   -1    0    0    0    0 -0.00000000000E+00 -0.00000000000E+00 -0.45593999997E+02  0.45594000000E+02  0.51100000000E-03 0. -1.
    9900012    2    1    2    0    0  0.11059996881E+02  0.22622882029E+02  0.31922515718E+02  0.50528864101E+02  0.30000012920E+02 0.  0.
         12    1    1    2    0    0 -0.11059996881E+02 -0.22622882029E+02 -0.31922515718E+02  0.40659135899E+02  0.00000000000E+00 0. -1.
         11    1    3    3    0    0  0.81692951952E+01  0.62373801970E+01  0.17817631665E+01  0.10431537564E+02  0.51100000000E-03 0.  1.
        -11    1    3    3    0    0  0.41108119281E+00  0.16792123440E+02  0.94866833031E+01  0.19290970886E+02  0.51100000000E-03 0. -1.
         12    1    3    3    0    0  0.24796204926E+01 -0.40662160777E+00  0.20654069249E+02  0.20806355650E+02  0.00000000000E+00 0. -1.
</event>
<event>
 7    1  0.2432574E-011  0.5052886E+02  0.7816164E-02  0.1300439E+00
        -11   -1    0    0    0    0  0.00000000000E+00  0.00000000000E+00  0.45593999997E+02  0.45594000000E+02  0.51100000000E-03 0. -1.
         11   -1    0    0    0    0 -0.00000000000E+00 -0.00000000000E+00 -0.45593999997E+02  0.45594000000E+02  0.51100000000E-03 0.  1.
    9900012    2    1    2    0    0  0.30577276273E+01 -0.38587430097E+02  0.12442913211E+02  0.50528861435E+02  0.30000004817E+02 0.  0.
         12    1    1    2    0    0 -0.30577276273E+01  0.38587430097E+02 -0.12442913211E+02  0.40659138565E+02  0.00000000000E+00 0. -1.
         11    1    3    3    0    0  0.11938345320E+01 -0.11548311482E+02  0.18409123310E+01  0.11754900997E+02  0.51100000000E-03 0. -1.
        -11    1    3    3    0    0 -0.58618213169E+01 -0.12475798419E+02  0.16285607172E+02  0.21336060943E+02  0.51100000000E-03 0.  1.
         12    1    3    3    0    0  0.77257144122E+01 -0.14563320196E+02 -0.56836062925E+01  0.17437899495E+02  0.00000000000E+00 0. -1.
</event>
<event>
 7    1  0.2432574E-011  0.5052886E+02  0.7816164E-02  0.1300439E+00
        -11   -1    0    0    0    0  0.00000000000E+00  0.00000000000E+00  0.45593999997E+02  0.45594000000E+02  0.51100000000E-03 0. -1.
         11   -1    0    0    0    0 -0.00000000000E+00 -0.00000000000E+00 -0.45593999997E+02  0.45594000000E+02  0.51100000000E-03 0.  1.
    9900012    2    1    2    0    0  0.49899944542E+01  0.15917474668E+01 -0.40320368443E+02  0.50528858149E+02  0.29999994830E+02 0.  0.
         12    1    1    2    0    0 -0.49899944542E+01 -0.15917474668E+01  0.40320368443E+02  0.40659141851E+02  0.00000000000E+00 0. -1.
         11    1    3    3    0    0  0.27616903290E+01  0.54234850036E+01 -0.10151917604E+01  0.61702299495E+01  0.51100000000E-03 0. -1.
        -11    1    3    3    0    0  0.47980889674E+01  0.72589448887E+01 -0.21851577402E+02  0.23520318320E+02  0.51100000000E-03 0.  1.
         12    1    3    3    0    0 -0.25697848422E+01 -0.11090682426E+02 -0.17453599281E+02  0.20838309880E+02  0.00000000000E+00 0. -1.
</event>
<event>
 7    1  0.2432574E-011  0.5052886E+02  0.7816164E-02  0.1300439E+00
        -11   -1    0    0    0    0  0.00000000000E+00  0.00000000000E+00  0.45593999997E+02  0.45594000000E+02  0.51100000000E-03 0. -1.
         11   -1    0    0    0    0 -0.00000000000E+00 -0.00000000000E+00 -0.45593999997E+02  0.45594000000E+02  0.51100000000E-03 0.  1.
    9900012    2    1    2    0    0 -0.26590553048E+02  0.29582505732E+02  0.84251499628E+01  0.50528864389E+02  0.30000013795E+02 0.  0.
         12    1    1    2    0    0  0.26590553048E+02 -0.29582505732E+02 -0.84251499628E+01  0.40659135611E+02  0.00000000000E+00 0. -1.
         11    1    3    3    0    0 -0.43344217392E+01  0.33808853027E+01  0.82888782159E+01  0.99460092290E+01  0.51100000000E-03 0. -1.
        -11    1    3    3    0    0 -0.23284846242E+02  0.29235426656E+02 -0.30197035764E-01  0.37375060514E+02  0.51100000000E-03 0.  1.
         12    1    3    3    0    0  0.10287149332E+01 -0.30338062268E+01  0.16646878260E+00  0.32077946460E+01  0.00000000000E+00 0. -1.
</event>
<event>
 7    1  0.2432574E-011  0.5052883E+02  0.7816164E-02  0.1300439E+00
        -11   -1    0    0    0    0  0.00000000000E+00  0.00000000000E+00  0.45593999997E+02  0.45594000000E+02  0.51100000000E-03 0. -1.
         11   -1    0    0    0    0 -0.00000000000E+00 -0.00000000000E+00 -0.45593999997E+02  0.45594000000E+02  0.51100000000E-03 0.  1.
    9900012    2    1    2    0    0 -0.95828482862E+01  0.39461588294E+02 -0.20297610287E+01  0.50528832992E+02  0.29999918362E+02 0.  0.
         12    1    1    2    0    0  0.95828482862E+01 -0.39461588294E+02  0.20297610287E+01  0.40659167008E+02  0.00000000000E+00 0. -1.
         11    1    3    3    0    0 -0.44867723691E+01  0.88162253706E+01  0.17618820849E+01  0.10047944308E+02  0.51100000000E-03 0.  1.
        -11    1    3    3    0    0 -0.14804970932E+02  0.21191155211E+02 -0.65138323347E+01  0.26658624035E+02  0.51100000000E-03 0. -1.
         12    1    3    3    0    0  0.97088950147E+01  0.94542077124E+01  0.27221892211E+01  0.13822264649E+02  0.00000000000E+00 0. -1.
</event>
<event>
 7    1  0.2432574E-011  0.5052886E+02  0.7816164E-02  0.1300439E+00
        -11   -1    0    0    0    0  0.00000000000E+00  0.00000000000E+00  0.45593999997E+02  0.45594000000E+02  0.51100000000E-03 0. -1.
         11   -1    0    0    0    0 -0.00000000000E+00 -0.00000000000E+00 -0.45593999997E+02  0.45594000000E+02  0.51100000000E-03 0.  1.
    9900012    2    1    2    0    0 -0.35618261894E+02  0.43393471572E+01 -0.19122641430E+02  0.50528856756E+02  0.29999990594E+02 0.  0.
         12    1    1    2    0    0  0.35618261894E+02 -0.43393471572E+01  0.19122641430E+02  0.40659143244E+02  0.00000000000E+00 0. -1.
         11    1    3    3    0    0 -0.25998272022E+01  0.28952598982E+01  0.21502563535E+01  0.44458108379E+01  0.51100000000E-03 0. -1.
        -11    1    3    3    0    0 -0.29791863068E+02  0.57154160962E+01 -0.74165125103E+01  0.31228604585E+02  0.51100000000E-03 0.  1.
         12    1    3    3    0    0 -0.32265716238E+01 -0.42713288371E+01 -0.13856385273E+02  0.14854441333E+02  0.00000000000E+00 0. -1.
</event>
<event>
 7    1  0.2432574E-011  0.5052886E+02  0.7816164E-02  0.1300439E+00
        -11   -1    0    0    0    0  0.00000000000E+00  0.00000000000E+00  0.45593999997E+02  0.45594000000E+02  0.51100000000E-03 0.  1.
         11   -1    0    0    0    0 -0.00000000000E+00 -0.00000000000E+00 -0.45593999997E+02  0.45594000000E+02  0.51100000000E-03 0. -1.
    9900012    2    1    2    0    0  0.31935524723E+02 -0.13988163134E+02  0.20919355208E+02  0.50528857492E+02  0.29999992831E+02 0.  0.
         12    1    1    2    0    0 -0.31935524723E+02  0.13988163134E+02 -0.20919355208E+02  0.40659142508E+02  0.00000000000E+00 0. -1.
         11    1    3    3    0    0  0.22804016483E+01 -0.10048385302E+02  0.66514356488E+01  0.12264251926E+02  0.51100000000E-03 0. -1.
        -11    1    3    3    0    0  0.17845363517E+02 -0.10879362660E+02  0.12751880232E+02  0.24483218347E+02  0.51100000000E-03 0.  1.
        -12    1    3    3    0    0  0.11809759558E+02  0.69395848281E+01  0.15160393270E+01  0.13781387218E+02  0.00000000000E+00 0.  1.
</event>
<event>
 7    1  0.2432574E-011  0.5052886E+02  0.7816164E-02  0.1300439E+00
        -11   -1    0    0    0    0  0.00000000000E+00  0.00000000000E+00  0.45593999997E+02  0.45594000000E+02  0.51100000000E-03 0. -1.
         11   -1    0    0    0    0 -0.00000000000E+00 -0.00000000000E+00 -0.45593999997E+02  0.45594000000E+02  0.51100000000E-03 0.  1.
    9900012    2    1    2    0    0  0.15122364491E+01 -0.32677078093E+02 -0.24147197715E+02  0.50528862659E+02  0.30000008539E+02 0.  0.
         12    1    1    2    0    0 -0.15122364491E+01  0.32677078093E+02  0.24147197715E+02  0.40659137341E+02  0.00000000000E+00 0. -1.
         11    1    3    3    0    0 -0.10501379422E+02 -0.10790161086E+02 -0.20884481142E+01  0.15200926348E+02  0.51100000000E-03 0. -1.
        -11    1    3    3    0    0  0.31691468546E+01 -0.80419632781E+01 -0.15280068558E+02  0.17555545008E+02  0.51100000000E-03 0.  1.
        -12    1    3    3    0    0  0.88444690166E+01 -0.13844953729E+02 -0.67786810432E+01  0.17772391303E+02  0.00000000000E+00 0.  1.
</event>
<event>
 7    1  0.2432574E-011  0.5052887E+02  0.7816164E-02  0.1300439E+00
        -11   -1    0    0    0    0  0.00000000000E+00  0.00000000000E+00  0.45593999997E+02  0.45594000000E+02  0.51100000000E-03 0.  1.
         11   -1    0    0    0    0 -0.00000000000E+00 -0.00000000000E+00 -0.45593999997E+02  0.45594000000E+02  0.51100000000E-03 0. -1.
    9900012    2    1    2    0    0  0.10059420105E+02 -0.16516873822E+02  0.35765431514E+02  0.50528866400E+02  0.30000019911E+02 0.  0.
         12    1    1    2    0    0 -0.10059420105E+02  0.16516873822E+02 -0.35765431514E+02  0.40659133600E+02  0.00000000000E+00 0. -1.
         11    1    3    3    0    0 -0.27005077911E+01 -0.41206701822E+01 -0.39653260064E+01  0.63242766921E+01  0.51100000000E-03 0. -1.
        -11    1    3    3    0    0  0.71000538635E+01 -0.40964141019E+01  0.10661291864E+02  0.13448216158E+02  0.51100000000E-03 0.  1.
        -12    1    3    3    0    0  0.56598740325E+01 -0.82997895382E+01  0.29069465656E+02  0.30756373550E+02  0.00000000000E+00 0.  1.
</event>
<event>
 7    1  0.2432574E-011  0.5052886E+02  0.7816164E-02  0.1300439E+00
        -11   -1    0    0    0    0  0.00000000000E+00  0.00000000000E+00  0.45593999997E+02  0.45594000000E+02  0.51100000000E-03 0.  1.
         11   -1    0    0    0    0 -0.00000000000E+00 -0.00000000000E+00 -0.45593999997E+02  0.45594000000E+02  0.51100000000E-03 0. -1.
    9900012    2    1    2    0    0  0.20965969463E+02 -0.34580113354E+02 -0.42200902533E+01  0.50528864780E+02  0.30000014986E+02 0.  0.
         12    1    1    2    0    0 -0.20965969463E+02  0.34580113354E+02  0.42200902533E+01  0.40659135220E+02  0.00000000000E+00 0. -1.
         11    1    3    3    0    0  0.46498917867E+01  0.35699715948E+00 -0.19387620274E+01  0.50505186922E+01  0.51100000000E-03 0. -1.
        -11    1    3    3    0    0  0.28922164579E+01 -0.18017943556E+02  0.98184412300E+01  0.20722282559E+02  0.51100000000E-03 0.  1.
         12    1    3    3    0    0  0.13423861218E+02 -0.16919166958E+02 -0.12099769456E+02  0.24756063529E+02  0.00000000000E+00 0. -1.
</event>
<event>
 7    1  0.2432574E-011  0.5052887E+02  0.7816164E-02  0.1300439E+00
        -11   -1    0    0    0    0  0.00000000000E+00  0.00000000000E+00  0.45593999997E+02  0.45594000000E+02  0.51100000000E-03 0. -1.
         11   -1    0    0    0    0 -0.00000000000E+00 -0.00000000000E+00 -0.45593999997E+02  0.45594000000E+02  0.51100000000E-03 0.  1.
    9900012    2    1    2    0    0  0.12030681882E+02  0.31059396673E+02  0.23318272060E+02  0.50528865232E+02  0.30000016359E+02 0.  0.
         12    1    1    2    0    0 -0.12030681882E+02 -0.31059396673E+02 -0.23318272060E+02  0.40659134768E+02  0.00000000000E+00 0. -1.
         11    1    3    3    0    0  0.10926807446E+01  0.14241048891E+02  0.49871096550E+01  0.15128538848E+02  0.51100000000E-03 0.  1.
        -11    1    3    3    0    0  0.12340980454E+02  0.10964934542E+02  0.22624318202E+02  0.28006952038E+02  0.51100000000E-03 0. -1.
         12    1    3    3    0    0 -0.14029793168E+01  0.58534132400E+01 -0.42931557972E+01  0.73933743460E+01  0.00000000000E+00 0. -1.
</event>
<event>
 7    1  0.2432574E-011  0.5052886E+02  0.7816164E-02  0.1300439E+00
        -11   -1    0    0    0    0  0.00000000000E+00  0.00000000000E+00  0.45593999997E+02  0.45594000000E+02  0.51100000000E-03 0. -1.
         11   -1    0    0    0    0 -0.00000000000E+00 -0.00000000000E+00 -0.45593999997E+02  0.45594000000E+02  0.51100000000E-03 0.  1.
    9900012    2    1    2    0    0 -0.12592533654E+02 -0.31860502394E+02 -0.21897546445E+02  0.50528855187E+02  0.29999985825E+02 0.  0.
         12    1    1    2    0    0  0.12592533654E+02  0.31860502394E+02  0.21897546445E+02  0.40659144813E+02  0.00000000000E+00 0. -1.
         11    1    3    3    0    0 -0.46377535729E+01 -0.15657152310E+02 -0.24651193456E+02  0.29569181857E+02  0.51100000000E-03 0. -1.
        -11    1    3    3    0    0 -0.35242586153E+01 -0.99973786702E+01 -0.34308450914E+01  0.11141753783E+02  0.51100000000E-03 0.  1.
         12    1    3    3    0    0 -0.44305214656E+01 -0.62059714143E+01  0.61844921021E+01  0.98179195461E+01  0.00000000000E+00 0. -1.
</event>
<event>
 7    1  0.2432574E-011  0.5052886E+02  0.7816164E-02  0.1300439E+00
        -11   -1    0    0    0    0  0.00000000000E+00  0.00000000000E+00  0.45593999997E+02  0.45594000000E+02  0.51100000000E-03 0. -1.
         11   -1    0    0    0    0 -0.00000000000E+00 -0.00000000000E+00 -0.45593999997E+02  0.45594000000E+02  0.51100000000E-03 0.  1.
    9900012    2    1    2    0    0  0.46433603514E+01  0.14756532201E+02 -0.37601187028E+02  0.50528864447E+02  0.30000013974E+02 0.  0.
         12    1    1    2    0    0 -0.46433603514E+01 -0.14756532201E+02  0.37601187028E+02  0.40659135553E+02  0.00000000000E+00 0. -1.
         11    1    3    3    0    0 -0.86919934953E+01 -0.77842730983E+00 -0.13835132379E+02  0.16357493335E+02  0.51100000000E-03 0. -1.
        -11    1    3    3    0    0  0.47121984926E+01  0.41761772715E+01 -0.17492703275E+02  0.18591394229E+02  0.51100000000E-03 0.  1.
        -12    1    3    3    0    0  0.86231553541E+01  0.11358782239E+02 -0.62733513734E+01  0.15579976883E+02  0.00000000000E+00 0.  1.
</event>
<event>
 7    1  0.2432574E-011  0.5052886E+02  0.7816164E-02  0.1300439E+00
        -11   -1    0    0    0    0  0.00000000000E+00  0.00000000000E+00  0.45593999997E+02  0.45594000000E+02  0.51100000000E-03 0. -1.
         11   -1    0    0    0    0 -0.00000000000E+00 -0.00000000000E+00 -0.45593999997E+02  0.45594000000E+02  0.51100000000E-03 0.  1.
    9900012    2    1    2    0    0 -0.54831636298E+01  0.21994791391E+02 -0.33753955730E+02  0.50528862538E+02  0.30000008169E+02 0.  0.
         12    1    1    2    0    0  0.54831636298E+01 -0.21994791391E+02  0.33753955730E+02  0.40659137462E+02  0.00000000000E+00 0. -1.
         11    1    3    3    0    0 -0.28097914795E+01  0.29537115244E+01 -0.20890346737E+02  0.21284405723E+02  0.51100000000E-03 0. -1.
        -11    1    3    3    0    0 -0.64970481921E+01  0.18290034273E+02 -0.15242155774E+02  0.24679147105E+02  0.51100000000E-03 0.  1.
         12    1    3    3    0    0  0.38236760418E+01  0.75104559362E+00  0.23785467807E+01  0.45653097096E+01  0.00000000000E+00 0. -1.
</event>
<event>
 7    1  0.2432574E-011  0.5052886E+02  0.7816164E-02  0.1300439E+00
        -11   -1    0    0    0    0  0.00000000000E+00  0.00000000000E+00  0.45593999997E+02  0.45594000000E+02  0.51100000000E-03 0. -1.
         11   -1    0    0    0    0 -0.00000000000E+00 -0.00000000000E+00 -0.45593999997E+02  0.45594000000E+02  0.51100000000E-03 0.  1.
    9900012    2    1    2    0    0 -0.92139765337E+01 -0.34121322680E+02 -0.20099840143E+02  0.50528860821E+02  0.30000002952E+02 0.  0.
         12    1    1    2    0    0  0.92139765337E+01  0.34121322680E+02  0.20099840143E+02  0.40659139179E+02  0.00000000000E+00 0. -1.
         11    1    3    3    0    0 -0.10903820662E+02 -0.15920732777E+01 -0.10752158222E+02  0.15396003022E+02  0.51100000000E-03 0. -1.
        -11    1    3    3    0    0  0.31734628749E+01 -0.12920205392E+02 -0.77643146572E+01  0.15404127900E+02  0.51100000000E-03 0.  1.
        -12    1    3    3    0    0 -0.14836187462E+01 -0.19609044010E+02 -0.15833672641E+01  0.19728729900E+02  0.00000000000E+00 0.  1.
</event>
<event>
 7    1  0.2432574E-011  0.5052886E+02  0.7816164E-02  0.1300439E+00
        -11   -1    0    0    0    0  0.00000000000E+00  0.00000000000E+00  0.45593999997E+02  0.45594000000E+02  0.51100000000E-03 0.  1.
         11   -1    0    0    0    0 -0.00000000000E+00 -0.00000000000E+00 -0.45593999997E+02  0.45594000000E+02  0.51100000000E-03 0. -1.
    9900012    2    1    2    0    0 -0.15118646202E+02 -0.65213035446E+01 -0.37176130052E+02  0.50528861931E+02  0.30000006325E+02 0.  0.
         12    1    1    2    0    0  0.15118646202E+02  0.65213035446E+01  0.37176130052E+02  0.40659138069E+02  0.00000000000E+00 0. -1.
         11    1    3    3    0    0  0.27221342000E+01  0.49684952196E+01 -0.30686483752E+01  0.64430243257E+01  0.51100000000E-03 0. -1.
        -11    1    3    3    0    0 -0.15842313455E+02 -0.62744965689E+00 -0.25733311455E+02  0.30225418234E+02  0.51100000000E-03 0.  1.
         12    1    3    3    0    0 -0.19984669468E+01 -0.10862349107E+02 -0.83741702210E+01  0.13860419372E+02  0.00000000000E+00 0. -1.
</event>
<event>
 7    1  0.2432574E-011  0.5052886E+02  0.7816164E-02  0.1300439E+00
        -11   -1    0    0    0    0  0.00000000000E+00  0.00000000000E+00  0.45593999997E+02  0.45594000000E+02  0.51100000000E-03 0. -1.
         11   -1    0    0    0    0 -0.00000000000E+00 -0.00000000000E+00 -0.45593999997E+02  0.45594000000E+02  0.51100000000E-03 0.  1.
    9900012    2    1    2    0    0 -0.14332432598E+02 -0.33615787724E+02 -0.17824858826E+02  0.50528863257E+02  0.30000010357E+02 0.  0.
         12    1    1    2    0    0  0.14332432598E+02  0.33615787724E+02  0.17824858826E+02  0.40659136743E+02  0.00000000000E+00 0. -1.
         11    1    3    3    0    0 -0.23307041006E+00 -0.12309074743E+02  0.37485847018E+01  0.12869325172E+02  0.51100000000E-03 0. -1.
        -11    1    3    3    0    0 -0.93229101797E+01 -0.13719897060E+02 -0.27553530544E+01  0.16814999265E+02  0.51100000000E-03 0.  1.
        -12    1    3    3    0    0 -0.47764520078E+01 -0.75868159212E+01 -0.18818090473E+02  0.20844538821E+02  0.00000000000E+00 0.  1.
</event>
<event>
 7    1  0.2432574E-011  0.5052886E+02  0.7816164E-02  0.1300439E+00
        -11   -1    0    0    0    0  0.00000000000E+00  0.00000000000E+00  0.45593999997E+02  0.45594000000E+02  0.51100000000E-03 0.  1.
         11   -1    0    0    0    0 -0.00000000000E+00 -0.00000000000E+00 -0.45593999997E+02  0.45594000000E+02  0.51100000000E-03 0. -1.
    9900012    2    1    2    0    0 -0.21322702892E+02 -0.74885409527E+01  0.33799852158E+02  0.50528856992E+02  0.29999991314E+02 0.  0.
         12    1    1    2    0    0  0.21322702892E+02  0.74885409527E+01 -0.33799852158E+02  0.40659143008E+02  0.00000000000E+00 0. -1.
         11    1    3    3    0    0 -0.37366454926E+00 -0.27052002019E+00 -0.23895110966E+01  0.24336330492E+01  0.51100000000E-03 0. -1.
        -11    1    3    3    0    0 -0.10615446733E+02  0.75173725179E+01  0.10437656119E+02  0.16677627663E+02  0.51100000000E-03 0.  1.
         12    1    3    3    0    0 -0.10333591609E+02 -0.14735393450E+02  0.25751707135E+02  0.31417596281E+02  0.00000000000E+00 0. -1.
</event>
<event>
 7    1  0.2432574E-011  0.5052886E+02  0.7816164E-02  0.1300439E+00
        -11   -1    0    0    0    0  0.00000000000E+00  0.00000000000E+00  0.45593999997E+02  0.45594000000E+02  0.51100000000E-03 0. -1.
         11   -1    0    0    0    0 -0.00000000000E+00 -0.00000000000E+00 -0.45593999997E+02  0.45594000000E+02  0.51100000000E-03 0.  1.
    9900012    2    1    2    0    0  0.33583480816E+02 -0.22669311921E+02 -0.33790382140E+01  0.50528858520E+02  0.29999995957E+02 0.  0.
         12    1    1    2    0    0 -0.33583480816E+02  0.22669311921E+02  0.33790382140E+01  0.40659141480E+02  0.00000000000E+00 0. -1.
         11    1    3    3    0    0  0.20033938780E+02 -0.22554366384E+02 -0.15269143682E+01  0.30205787753E+02  0.51100000000E-03 0. -1.
        -11    1    3    3    0    0  0.15238450474E+02 -0.23875099426E+01  0.19880239127E+01  0.15551939298E+02  0.51100000000E-03 0.  1.
         12    1    3    3    0    0 -0.16889084389E+01  0.22725644054E+01 -0.38401477585E+01  0.47711314695E+01  0.00000000000E+00 0. -1.
</event>
<event>
 7    1  0.2432574E-011  0.5052884E+02  0.7816164E-02  0.1300439E+00
        -11   -1    0    0    0    0  0.00000000000E+00  0.00000000000E+00  0.45593999997E+02  0.45594000000E+02  0.51100000000E-03 0. -1.
         11   -1    0    0    0    0 -0.00000000000E+00 -0.00000000000E+00 -0.45593999997E+02  0.45594000000E+02  0.51100000000E-03 0.  1.
    9900012    2    1    2    0    0 -0.17495037795E+02  0.36119771129E+02 -0.65156069882E+01  0.50528839307E+02  0.29999937556E+02 0.  0.
         12    1    1    2    0    0  0.17495037795E+02 -0.36119771129E+02  0.65156069882E+01  0.40659160693E+02  0.00000000000E+00 0. -1.
         11    1    3    3    0    0 -0.64183900605E+01  0.31681496176E+01  0.18187126999E+01  0.73851620913E+01  0.51100000000E-03 0. -1.
        -11    1    3    3    0    0 -0.56796940074E+01 -0.25857822557E+01 -0.25264318137E+01  0.67326110731E+01  0.51100000000E-03 0.  1.
        -12    1    3    3    0    0 -0.53969537270E+01  0.35537403767E+02 -0.58078878745E+01  0.36411066142E+02  0.00000000000E+00 0.  1.
</event>
<event>
 7    1  0.2432574E-011  0.5052890E+02  0.7816164E-02  0.1300439E+00
        -11   -1    0    0    0    0  0.00000000000E+00  0.00000000000E+00  0.45593999997E+02  0.45594000000E+02  0.51100000000E-03 0.  1.
         11   -1    0    0    0    0 -0.00000000000E+00 -0.00000000000E+00 -0.45593999997E+02  0.45594000000E+02  0.51100000000E-03 0. -1.
    9900012    2    1    2    0    0  0.88390521130E+01 -0.20998536573E+01  0.39631096672E+02  0.50528904449E+02  0.30000135563E+02 0.  0.
         12    1    1    2    0    0 -0.88390521130E+01  0.20998536573E+01 -0.39631096672E+02  0.40659095551E+02  0.00000000000E+00 0. -1.
         11    1    3    3    0    0 -0.16341996177E+01 -0.10612427333E+02  0.10903139741E+02  0.15302701681E+02  0.51100000000E-03 0. -1.
        -11    1    3    3    0    0  0.65961045679E+01 -0.30028718692E+00  0.23205919695E+02  0.24127027936E+02  0.51100000000E-03 0.  1.
         12    1    3    3    0    0  0.38771471628E+01  0.88128608627E+01  0.55220372362E+01  0.11099174832E+02  0.00000000000E+00 0. -1.
</event>
<event>
 7    1  0.2432574E-011  0.5052886E+02  0.7816164E-02  0.1300439E+00
        -11   -1    0    0    0    0  0.00000000000E+00  0.00000000000E+00  0.45593999997E+02  0.45594000000E+02  0.51100000000E-03 0.  1.
         11   -1    0    0    0    0 -0.00000000000E+00 -0.00000000000E+00 -0.45593999997E+02  0.45594000000E+02  0.51100000000E-03 0. -1.
    9900012    2    1    2    0    0  0.25354294577E+02 -0.16263242668E+02  0.27309928015E+02  0.50528862236E+02  0.30000007252E+02 0.  0.
         12    1    1    2    0    0 -0.25354294577E+02  0.16263242668E+02 -0.27309928015E+02  0.40659137764E+02  0.00000000000E+00 0. -1.
         11    1    3    3    0    0  0.42785765370E+01 -0.12407492364E+01  0.31826454261E+00  0.44662029097E+01  0.51100000000E-03 0. -1.
        -11    1    3    3    0    0  0.23483645810E+02 -0.15820082899E+02  0.30574998922E+02  0.41672379375E+02  0.51100000000E-03 0.  1.
        -12    1    3    3    0    0 -0.24079277702E+01  0.79758946797E+00 -0.35833354495E+01  0.43902799511E+01  0.00000000000E+00 0.  1.
</event>
<event>
 7    1  0.2432574E-011  0.5052886E+02  0.7816164E-02  0.1300439E+00
        -11   -1    0    0    0    0  0.00000000000E+00  0.00000000000E+00  0.45593999997E+02  0.45594000000E+02  0.51100000000E-03 0.  1.
         11   -1    0    0    0    0 -0.00000000000E+00 -0.00000000000E+00 -0.45593999997E+02  0.45594000000E+02  0.51100000000E-03 0. -1.
    9900012    2    1    2    0    0 -0.23548276521E+00 -0.34105137053E+02  0.22134815430E+02  0.50528857367E+02  0.29999992453E+02 0.  0.
         12    1    1    2    0    0  0.23548276521E+00  0.34105137053E+02 -0.22134815430E+02  0.40659142633E+02  0.00000000000E+00 0. -1.
         11    1    3    3    0    0 -0.72737731347E+01 -0.15821267429E+02  0.16941088901E+02  0.24294459699E+02  0.51100000000E-03 0. -1.
        -11    1    3    3    0    0  0.41205725164E+01 -0.17043767181E+02  0.10217078397E+02  0.20294280199E+02  0.51100000000E-03 0.  1.
        -12    1    3    3    0    0  0.29177178531E+01 -0.12401024433E+01 -0.50233518685E+01  0.59401174681E+01  0.00000000000E+00 0.  1.
</event>
<event>
 7    1  0.2432574E-011  0.5052886E+02  0.7816164E-02  0.1300439E+00
        -11   -1    0    0    0    0  0.00000000000E+00  0.00000000000E+00  0.45593999997E+02  0.45594000000E+02  0.51100000000E-03 0.  1.
         11   -1    0    0    0    0 -0.00000000000E+00 -0.00000000000E+00 -0.45593999997E+02  0.45594000000E+02  0.51100000000E-03 0. -1.
    9900012    2    1    2    0    0 -0.12692656693E+02 -0.28196071967E+02  0.26401590020E+02  0.50528856331E+02  0.29999989305E+02 0.  0.
         12    1    1    2    0    0  0.12692656693E+02  0.28196071967E+02 -0.26401590020E+02  0.40659143669E+02  0.00000000000E+00 0. -1.
         11    1    3    3    0    0  0.31304830179E+01 -0.14025344498E+01  0.18053152738E+01  0.38763630258E+01  0.51100000000E-03 0. -1.
        -11    1    3    3    0    0 -0.44167572329E+01 -0.23479086846E+02  0.60777169063E+01  0.24651854021E+02  0.51100000000E-03 0.  1.
        -12    1    3    3    0    0 -0.11406382478E+02 -0.33144506708E+01  0.18518557840E+02  0.22000639285E+02  0.00000000000E+00 0.  1.
</event>
<event>
 7    1  0.2432574E-011  0.5052885E+02  0.7816164E-02  0.1300439E+00
        -11   -1    0    0    0    0  0.00000000000E+00  0.00000000000E+00  0.45593999997E+02  0.45594000000E+02  0.51100000000E-03 0. -1.
         11   -1    0    0    0    0 -0.00000000000E+00 -0.00000000000E+00 -0.45593999997E+02  0.45594000000E+02  0.51100000000E-03 0.  1.
    9900012    2    1    2    0    0 -0.12485007688E+02  0.38022113411E+02 -0.71840050163E+01  0.50528850313E+02  0.29999971010E+02 0.  0.
         12    1    1    2    0    0  0.12485007688E+02 -0.38022113411E+02  0.71840050163E+01  0.40659149687E+02  0.00000000000E+00 0. -1.
         11    1    3    3    0    0  0.47265833013E+01  0.13966741445E+02 -0.34457040510E+01  0.15142104642E+02  0.51100000000E-03 0.  1.
        -11    1    3    3    0    0 -0.52569204068E+01  0.15144355943E+02  0.65012592339E+01  0.17298933521E+02  0.51100000000E-03 0. -1.
         12    1    3    3    0    0 -0.11954670582E+02  0.89110160227E+01 -0.10239560199E+02  0.18087812150E+02  0.00000000000E+00 0. -1.
</event>
<event>
 7    1  0.2432574E-011  0.5052886E+02  0.7816164E-02  0.1300439E+00
        -11   -1    0    0    0    0  0.00000000000E+00  0.00000000000E+00  0.45593999997E+02  0.45594000000E+02  0.51100000000E-03 0.  1.
         11   -1    0    0    0    0 -0.00000000000E+00 -0.00000000000E+00 -0.45593999997E+02  0.45594000000E+02  0.51100000000E-03 0. -1.
    9900012    2    1    2    0    0  0.33924814879E+02  0.21920899961E+02  0.46633176397E+01  0.50528862638E+02  0.30000008473E+02 0.  0.
         12    1    1    2    0    0 -0.33924814879E+02 -0.21920899961E+02 -0.46633176397E+01  0.40659137362E+02  0.00000000000E+00 0. -1.
         11    1    3    3    0    0  0.76465196562E+01 -0.14263909176E+01 -0.19705652341E+01  0.80241498930E+01  0.51100000000E-03 0. -1.
        -11    1    3    3    0    0  0.31278057840E+01  0.45972242337E+01  0.11067242232E+02  0.12385535538E+02  0.51100000000E-03 0.  1.
        -12    1    3    3    0    0  0.23150489439E+02  0.18750066645E+02 -0.44333593581E+01  0.30119177207E+02  0.00000000000E+00 0.  1.
</event>
<event>
 7    1  0.2432574E-011  0.5052886E+02  0.7816164E-02  0.1300439E+00
        -11   -1    0    0    0    0  0.00000000000E+00  0.00000000000E+00  0.45593999997E+02  0.45594000000E+02  0.51100000000E-03 0. -1.
         11   -1    0    0    0    0 -0.00000000000E+00 -0.00000000000E+00 -0.45593999997E+02  0.45594000000E+02  0.51100000000E-03 0.  1.
    9900012    2    1    2    0    0  0.32039918887E+02  0.12344078007E+02  0.21776887476E+02  0.50528862131E+02  0.30000006933E+02 0.  0.
         12    1    1    2    0    0 -0.32039918887E+02 -0.12344078007E+02 -0.21776887476E+02  0.40659137869E+02  0.00000000000E+00 0. -1.
         11    1    3    3    0    0  0.16849487166E+02  0.14574611177E+01  0.11420436290E+02  0.20407248124E+02  0.51100000000E-03 0. -1.
        -11    1    3    3    0    0  0.17809952966E+02  0.11475825909E+02  0.19265045819E+01  0.21274407750E+02  0.51100000000E-03 0.  1.
         12    1    3    3    0    0 -0.26195212452E+01 -0.58920901909E+00  0.84299466037E+01  0.88472062575E+01  0.00000000000E+00 0. -1.
</event>
<event>
 7    1  0.2432574E-011  0.5052886E+02  0.7816164E-02  0.1300439E+00
        -11   -1    0    0    0    0  0.00000000000E+00  0.00000000000E+00  0.45593999997E+02  0.45594000000E+02  0.51100000000E-03 0.  1.
         11   -1    0    0    0    0 -0.00000000000E+00 -0.00000000000E+00 -0.45593999997E+02  0.45594000000E+02  0.51100000000E-03 0. -1.
    9900012    2    1    2    0    0  0.13393197100E+02 -0.29123997939E+02  0.25011617893E+02  0.50528855713E+02  0.29999987424E+02 0.  0.
         12    1    1    2    0    0 -0.13393197100E+02  0.29123997939E+02 -0.25011617893E+02  0.40659144287E+02  0.00000000000E+00 0. -1.
         11    1    3    3    0    0  0.70483636687E+01 -0.24752866127E+01  0.11597172576E+02  0.13794958725E+02  0.51100000000E-03 0. -1.
        -11    1    3    3    0    0  0.93604577671E+01 -0.18348138463E+02  0.17476629647E+02  0.27013051266E+02  0.51100000000E-03 0.  1.
         12    1    3    3    0    0 -0.30156243361E+01 -0.83005728639E+01 -0.40621843289E+01  0.97208457208E+01  0.00000000000E+00 0. -1.
</event>
<event>
 7    1  0.2432574E-011  0.5052884E+02  0.7816164E-02  0.1300439E+00
        -11   -1    0    0    0    0  0.00000000000E+00  0.00000000000E+00  0.45593999997E+02  0.45594000000E+02  0.51100000000E-03 0.  1.
         11   -1    0    0    0    0 -0.00000000000E+00 -0.00000000000E+00 -0.45593999997E+02  0.45594000000E+02  0.51100000000E-03 0. -1.
    9900012    2    1    2    0    0  0.20813948743E+02  0.21875637426E+02  0.27228717144E+02  0.50528843438E+02  0.29999950113E+02 0.  0.
         12    1    1    2    0    0 -0.20813948743E+02 -0.21875637426E+02 -0.27228717144E+02  0.40659156562E+02  0.00000000000E+00 0. -1.
         11    1    3    3    0    0 -0.27346264902E+01  0.15411379924E+01  0.66761702990E+01  0.73772988603E+01  0.51100000000E-03 0. -1.
        -11    1    3    3    0    0  0.17519194499E+02  0.27190091397E+01  0.38572141200E+01  0.18143684510E+02  0.51100000000E-03 0.  1.
         12    1    3    3    0    0  0.60293807341E+01  0.17615490294E+02  0.16695332725E+02  0.25007860067E+02  0.00000000000E+00 0. -1.
</event>
<event>
 7    1  0.2432574E-011  0.5052886E+02  0.7816164E-02  0.1300439E+00
        -11   -1    0    0    0    0  0.00000000000E+00  0.00000000000E+00  0.45593999997E+02  0.45594000000E+02  0.51100000000E-03 0. -1.
         11   -1    0    0    0    0 -0.00000000000E+00 -0.00000000000E+00 -0.45593999997E+02  0.45594000000E+02  0.51100000000E-03 0.  1.
    9900012    2    1    2    0    0  0.36294316577E+02  0.14416236300E+02 -0.11316384609E+02  0.50528857787E+02  0.29999993731E+02 0.  0.
         12    1    1    2    0    0 -0.36294316577E+02 -0.14416236300E+02  0.11316384609E+02  0.40659142213E+02  0.00000000000E+00 0. -1.
         11    1    3    3    0    0  0.34061178697E+01 -0.31276514692E+01 -0.23169003732E+00  0.46300672986E+01  0.51100000000E-03 0. -1.
        -11    1    3    3    0    0  0.12345995467E+01 -0.18145770083E+01 -0.84177376341E+01  0.86991512746E+01  0.51100000000E-03 0.  1.
        -12    1    3    3    0    0  0.31653599161E+02  0.19358464777E+02 -0.26669569377E+01  0.37199639214E+02  0.00000000000E+00 0.  1.
</event>
<event>
 7    1  0.2432574E-011  0.5052886E+02  0.7816164E-02  0.1300439E+00
        -11   -1    0    0    0    0  0.00000000000E+00  0.00000000000E+00  0.45593999997E+02  0.45594000000E+02  0.51100000000E-03 0. -1.
         11   -1    0    0    0    0 -0.00000000000E+00 -0.00000000000E+00 -0.45593999997E+02  0.45594000000E+02  0.51100000000E-03 0.  1.
    9900012    2    1    2    0    0  0.14734087787E+02 -0.28900777853E+02 -0.24511572209E+02  0.50528862336E+02  0.30000007556E+02 0.  0.
         12    1    1    2    0    0 -0.14734087787E+02  0.28900777853E+02  0.24511572209E+02  0.40659137664E+02  0.00000000000E+00 0. -1.
         11    1    3    3    0    0  0.82175856045E+01 -0.11013151822E+02 -0.32548147438E+01  0.14121332993E+02  0.51100000000E-03 0. -1.
        -11    1    3    3    0    0  0.69635208030E+01  0.80908971190E+00 -0.15217368798E+02  0.16754508692E+02  0.51100000000E-03 0.  1.
        -12    1    3    3    0    0 -0.44701862002E+00 -0.18696715743E+02 -0.60393886681E+01  0.19653020651E+02  0.00000000000E+00 0.  1.
</event>
<event>
 7    1  0.2432574E-011  0.5052888E+02  0.7816164E-02  0.1300439E+00
        -11   -1    0    0    0    0  0.00000000000E+00  0.00000000000E+00  0.45593999997E+02  0.45594000000E+02  0.51100000000E-03 0. -1.
         11   -1    0    0    0    0 -0.00000000000E+00 -0.00000000000E+00 -0.45593999997E+02  0.45594000000E+02  0.51100000000E-03 0.  1.
    9900012    2    1    2    0    0 -0.28136733157E+00  0.40328196479E+02  0.51693176326E+01  0.50528875026E+02  0.30000046130E+02 0.  0.
         12    1    1    2    0    0  0.28136733157E+00 -0.40328196479E+02 -0.51693176326E+01  0.40659124974E+02  0.00000000000E+00 0. -1.
         11    1    3    3    0    0  0.58642875319E+01  0.19215176954E+02 -0.20665361722E+01  0.20196125015E+02  0.51100000000E-03 0.  1.
        -11    1    3    3    0    0  0.27328465302E+01  0.11840118444E+02  0.11574217216E+02  0.16781518386E+02  0.51100000000E-03 0. -1.
        -12    1    3    3    0    0 -0.88785013937E+01  0.92729010816E+01 -0.43383634111E+01  0.13551231625E+02  0.00000000000E+00 0.  1.
</event>
<event>
 7    1  0.2432574E-011  0.5052886E+02  0.7816164E-02  0.1300439E+00
        -11   -1    0    0    0    0  0.00000000000E+00  0.00000000000E+00  0.45593999997E+02  0.45594000000E+02  0.51100000000E-03 0.  1.
         11   -1    0    0    0    0 -0.00000000000E+00 -0.00000000000E+00 -0.45593999997E+02  0.45594000000E+02  0.51100000000E-03 0. -1.
    9900012    2    1    2    0    0 -0.17938064598E+02 -0.33460504491E+02  0.14552879777E+02  0.50528857952E+02  0.29999994231E+02 0.  0.
         12    1    1    2    0    0  0.17938064598E+02  0.33460504491E+02 -0.14552879777E+02  0.40659142048E+02  0.00000000000E+00 0. -1.
         11    1    3    3    0    0  0.44548058705E+00  0.10441751240E+01 -0.43429064072E+00  0.12154683314E+01  0.51100000000E-03 0. -1.
        -11    1    3    3    0    0 -0.10981774966E+02 -0.11984469406E+02  0.19284742816E+02  0.25221581910E+02  0.51100000000E-03 0.  1.
         12    1    3    3    0    0 -0.74017702192E+01 -0.22520210209E+02 -0.42975723979E+01  0.24091807710E+02  0.00000000000E+00 0. -1.
</event>
<event>
 7    1  0.2432574E-011  0.5052887E+02  0.7816164E-02  0.1300439E+00
        -11   -1    0    0    0    0  0.00000000000E+00  0.00000000000E+00  0.45593999997E+02  0.45594000000E+02  0.51100000000E-03 0.  1.
         11   -1    0    0    0    0 -0.00000000000E+00 -0.00000000000E+00 -0.45593999997E+02  0.45594000000E+02  0.51100000000E-03 0. -1.
    9900012    2    1    2    0    0  0.71823315450E+01  0.32022175008E+02  0.24003325222E+02  0.50528865720E+02  0.30000017844E+02 0.  0.
         12    1    1    2    0    0 -0.71823315450E+01 -0.32022175008E+02 -0.24003325222E+02  0.40659134280E+02  0.00000000000E+00 0. -1.
         11    1    3    3    0    0 -0.72764875425E+01  0.26009030150E+01  0.10371724899E+02  0.12933856543E+02  0.51100000000E-03 0. -1.
        -11    1    3    3    0    0 -0.16271172085E+01  0.48190906719E+01  0.45641766845E+01  0.68339486670E+01  0.51100000000E-03 0.  1.
         12    1    3    3    0    0  0.16085936296E+02  0.24602181321E+02  0.90674236386E+01  0.30761060510E+02  0.00000000000E+00 0. -1.
</event>
<event>
 7    1  0.2432574E-011  0.5052885E+02  0.7816164E-02  0.1300439E+00
        -11   -1    0    0    0    0  0.00000000000E+00  0.00000000000E+00  0.45593999997E+02  0.45594000000E+02  0.51100000000E-03 0.  1.
         11   -1    0    0    0    0 -0.00000000000E+00 -0.00000000000E+00 -0.45593999997E+02  0.45594000000E+02  0.51100000000E-03 0. -1.
    9900012    2    1    2    0    0 -0.12321753844E+02  0.37410116033E+02  0.10090772775E+02  0.50528854724E+02  0.29999984418E+02 0.  0.
         12    1    1    2    0    0  0.12321753844E+02 -0.37410116033E+02 -0.10090772775E+02  0.40659145276E+02  0.00000000000E+00 0. -1.
         11    1    3    3    0    0 -0.10435934684E+02  0.79909960236E+01 -0.10102620224E+01  0.13182768290E+02  0.51100000000E-03 0. -1.
        -11    1    3    3    0    0 -0.41872879959E+01  0.74961843779E+01  0.12604779242E+02  0.15251446521E+02  0.51100000000E-03 0.  1.
        -12    1    3    3    0    0  0.23014688363E+01  0.21922935632E+02 -0.15037444439E+01  0.22094639912E+02  0.00000000000E+00 0.  1.
</event>
<event>
 7    1  0.2432574E-011  0.5052886E+02  0.7816164E-02  0.1300439E+00
        -11   -1    0    0    0    0  0.00000000000E+00  0.00000000000E+00  0.45593999997E+02  0.45594000000E+02  0.51100000000E-03 0.  1.
         11   -1    0    0    0    0 -0.00000000000E+00 -0.00000000000E+00 -0.45593999997E+02  0.45594000000E+02  0.51100000000E-03 0. -1.
    9900012    2    1    2    0    0  0.36339109479E+02  0.17185212136E+02 -0.61076123736E+01  0.50528864214E+02  0.30000013266E+02 0.  0.
         12    1    1    2    0    0 -0.36339109479E+02 -0.17185212136E+02  0.61076123736E+01  0.40659135786E+02  0.00000000000E+00 0. -1.
         11    1    3    3    0    0  0.46316501609E+01  0.12208816703E+02 -0.12060494375E+02  0.17775345660E+02  0.51100000000E-03 0. -1.
        -11    1    3    3    0    0  0.61950129977E+01  0.20630149162E+01  0.11527068950E+01  0.66304562463E+01  0.51100000000E-03 0.  1.
        -12    1    3    3    0    0  0.25512446321E+02  0.29133805172E+01  0.48001751065E+01  0.26123062308E+02  0.00000000000E+00 0.  1.
</event>
<event>
 7    1  0.2432574E-011  0.5052885E+02  0.7816164E-02  0.1300439E+00
        -11   -1    0    0    0    0  0.00000000000E+00  0.00000000000E+00  0.45593999997E+02  0.45594000000E+02  0.51100000000E-03 0.  1.
         11   -1    0    0    0    0 -0.00000000000E+00 -0.00000000000E+00 -0.45593999997E+02  0.45594000000E+02  0.51100000000E-03 0. -1.
    9900012    2    1    2    0    0 -0.32938252370E+02  0.59247700550E+01  0.23089717629E+02  0.50528850604E+02  0.29999971896E+02 0.  0.
         12    1    1    2    0    0  0.32938252370E+02 -0.59247700550E+01 -0.23089717629E+02  0.40659149396E+02  0.00000000000E+00 0. -1.
         11    1    3    3    0    0 -0.19217024449E+02 -0.36904765549E+01  0.75311333153E+01  0.20967394095E+02  0.51100000000E-03 0. -1.
        -11    1    3    3    0    0 -0.52885838340E+01  0.11261816341E+01  0.16688582216E+02  0.17542695935E+02  0.51100000000E-03 0.  1.
        -12    1    3    3    0    0 -0.84326440874E+01  0.84890649758E+01 -0.11299979023E+01  0.12018760574E+02  0.00000000000E+00 0.  1.
</event>
<event>
 7    1  0.2432574E-011  0.5052888E+02  0.7816164E-02  0.1300439E+00
        -11   -1    0    0    0    0  0.00000000000E+00  0.00000000000E+00  0.45593999997E+02  0.45594000000E+02  0.51100000000E-03 0.  1.
         11   -1    0    0    0    0 -0.00000000000E+00 -0.00000000000E+00 -0.45593999997E+02  0.45594000000E+02  0.51100000000E-03 0. -1.
    9900012    2    1    2    0    0 -0.21585666897E+02  0.27122870476E+02  0.21250253052E+02  0.50528875894E+02  0.30000048768E+02 0.  0.
         12    1    1    2    0    0  0.21585666897E+02 -0.27122870476E+02 -0.21250253052E+02  0.40659124106E+02  0.00000000000E+00 0. -1.
         11    1    3    3    0    0 -0.12278017164E+02  0.11103345272E+02  0.22155386292E+02  0.27656737402E+02  0.51100000000E-03 0. -1.
        -11    1    3    3    0    0 -0.33073959659E+01  0.11158585167E+02  0.54687460101E+01  0.12859240809E+02  0.51100000000E-03 0.  1.
         12    1    3    3    0    0 -0.60002537668E+01  0.48609400382E+01 -0.63738792502E+01  0.10012897683E+02  0.00000000000E+00 0. -1.
</event>
<event>
 7    1  0.2432574E-011  0.5052881E+02  0.7816164E-02  0.1300439E+00
        -11   -1    0    0    0    0  0.00000000000E+00  0.00000000000E+00  0.45593999997E+02  0.45594000000E+02  0.51100000000E-03 0. -1.
         11   -1    0    0    0    0 -0.00000000000E+00 -0.00000000000E+00 -0.45593999997E+02  0.45594000000E+02  0.51100000000E-03 0.  1.
    9900012    2    1    2    0    0 -0.19003217780E+02 -0.17153397220E+02 -0.31588103719E+02  0.50528811386E+02  0.29999852689E+02 0.  0.
         12    1    1    2    0    0  0.19003217780E+02  0.17153397220E+02  0.31588103719E+02  0.40659188614E+02  0.00000000000E+00 0. -1.
         11    1    3    3    0    0 -0.10880724882E+02  0.43868139394E+01 -0.15110170843E+02  0.19129860785E+02  0.51100000000E-03 0. -1.
        -11    1    3    3    0    0 -0.50866575841E+01 -0.90242982136E+01 -0.15285456781E+02  0.18465027292E+02  0.51100000000E-03 0.  1.
        -12    1    3    3    0    0 -0.30358353140E+01 -0.12515912946E+02 -0.11924760949E+01  0.12933923309E+02  0.00000000000E+00 0.  1.
</event>
<event>
 7    1  0.2432574E-011  0.5052887E+02  0.7816164E-02  0.1300439E+00
        -11   -1    0    0    0    0  0.00000000000E+00  0.00000000000E+00  0.45593999997E+02  0.45594000000E+02  0.51100000000E-03 0.  1.
         11   -1    0    0    0    0 -0.00000000000E+00 -0.00000000000E+00 -0.45593999997E+02  0.45594000000E+02  0.51100000000E-03 0. -1.
    9900012    2    1    2    0    0  0.16654286893E+02  0.21065791226E+02  0.30529206114E+02  0.50528865014E+02  0.30000015696E+02 0.  0.
         12    1    1    2    0    0 -0.16654286893E+02 -0.21065791226E+02 -0.30529206114E+02  0.40659134986E+02  0.00000000000E+00 0. -1.
         11    1    3    3    0    0  0.10002932578E+02  0.13873452695E+02  0.15085490895E+02  0.22805775269E+02  0.51100000000E-03 0. -1.
        -11    1    3    3    0    0 -0.34146594339E+01  0.11488244457E+02  0.68213715333E+01  0.13790241825E+02  0.51100000000E-03 0.  1.
         12    1    3    3    0    0  0.10066013749E+02 -0.42959059255E+01  0.86223436856E+01  0.13932847920E+02  0.00000000000E+00 0. -1.
</event>
<event>
 7    1  0.2432574E-011  0.5052886E+02  0.7816164E-02  0.1300439E+00
        -11   -1    0    0    0    0  0.00000000000E+00  0.00000000000E+00  0.45593999997E+02  0.45594000000E+02  0.51100000000E-03 0.  1.
         11   -1    0    0    0    0 -0.00000000000E+00 -0.00000000000E+00 -0.45593999997E+02  0.45594000000E+02  0.51100000000E-03 0. -1.
    9900012    2    1    2    0    0  0.21088628084E+02 -0.31858133039E+02  0.13910248354E+02  0.50528857308E+02  0.29999992272E+02 0.  0.
         12    1    1    2    0    0 -0.21088628084E+02  0.31858133039E+02 -0.13910248354E+02  0.40659142692E+02  0.00000000000E+00 0. -1.
         11    1    3    3    0    0  0.85590703564E+01 -0.18596480019E+02  0.15343198404E+02  0.25583207226E+02  0.51100000000E-03 0.  1.
        -11    1    3    3    0    0  0.12798360175E+02 -0.16859069212E+02 -0.21228902811E+01  0.21272820718E+02  0.51100000000E-03 0. -1.
        -12    1    3    3    0    0 -0.26880244750E+00  0.35974161919E+01  0.68994023109E+00  0.36728293639E+01  0.00000000000E+00 0.  1.
</event>
<event>
 7    1  0.2432574E-011  0.5052884E+02  0.7816164E-02  0.1300439E+00
        -11   -1    0    0    0    0  0.00000000000E+00  0.00000000000E+00  0.45593999997E+02  0.45594000000E+02  0.51100000000E-03 0.  1.
         11   -1    0    0    0    0 -0.00000000000E+00 -0.00000000000E+00 -0.45593999997E+02  0.45594000000E+02  0.51100000000E-03 0. -1.
    9900012    2    1    2    0    0 -0.32511281406E+02  0.34037292503E+01  0.24178470326E+02  0.50528840899E+02  0.29999942396E+02 0.  0.
         12    1    1    2    0    0  0.32511281406E+02 -0.34037292503E+01 -0.24178470326E+02  0.40659159101E+02  0.00000000000E+00 0. -1.
         11    1    3    3    0    0 -0.10326351630E+02  0.83081848606E+00 -0.63824217957E+01  0.12167954043E+02  0.51100000000E-03 0. -1.
        -11    1    3    3    0    0 -0.13372097058E+02  0.61904094595E+00  0.13234910337E+02  0.18824426772E+02  0.51100000000E-03 0.  1.
        -12    1    3    3    0    0 -0.88128327178E+01  0.19538698183E+01  0.17325981785E+02  0.19536460084E+02  0.00000000000E+00 0.  1.
</event>
<event>
 7    1  0.2432574E-011  0.5052887E+02  0.7816164E-02  0.1300439E+00
        -11   -1    0    0    0    0  0.00000000000E+00  0.00000000000E+00  0.45593999997E+02  0.45594000000E+02  0.51100000000E-03 0.  1.
         11   -1    0    0    0    0 -0.00000000000E+00 -0.00000000000E+00 -0.45593999997E+02  0.45594000000E+02  0.51100000000E-03 0. -1.
    9900012    2    1    2    0    0  0.24222077189E+01 -0.35893460338E+02 -0.18946176744E+02  0.50528865744E+02  0.30000017915E+02 0.  0.
         12    1    1    2    0    0 -0.24222077189E+01  0.35893460338E+02  0.18946176744E+02  0.40659134256E+02  0.00000000000E+00 0. -1.
         11    1    3    3    0    0  0.73929097025E+01 -0.14350228110E+02 -0.50628658301E+01  0.16917942291E+02  0.51100000000E-03 0.  1.
        -11    1    3    3    0    0 -0.80551230705E+01 -0.95654623994E+01  0.28272517346E+01  0.12820937221E+02  0.51100000000E-03 0. -1.
         12    1    3    3    0    0  0.30844210868E+01 -0.11977769829E+02 -0.16710562648E+02  0.20789986232E+02  0.00000000000E+00 0. -1.
</event>
<event>
 7    1  0.2432574E-011  0.5052886E+02  0.7816164E-02  0.1300439E+00
        -11   -1    0    0    0    0  0.00000000000E+00  0.00000000000E+00  0.45593999997E+02  0.45594000000E+02  0.51100000000E-03 0.  1.
         11   -1    0    0    0    0 -0.00000000000E+00 -0.00000000000E+00 -0.45593999997E+02  0.45594000000E+02  0.51100000000E-03 0. -1.
    9900012    2    1    2    0    0  0.27319775568E+02  0.28031607635E+02  0.11001114001E+02  0.50528859909E+02  0.30000000179E+02 0.  0.
         12    1    1    2    0    0 -0.27319775568E+02 -0.28031607635E+02 -0.11001114001E+02  0.40659140091E+02  0.00000000000E+00 0. -1.
         11    1    3    3    0    0  0.45300428115E+01  0.18592335347E+02 -0.14048266726E+01  0.19187750253E+02  0.51100000000E-03 0. -1.
        -11    1    3    3    0    0 -0.18699260174E+01 -0.60618073720E+00  0.18451249930E+01  0.26960276144E+01  0.51100000000E-03 0.  1.
         12    1    3    3    0    0  0.24659658774E+02  0.10045453025E+02  0.10560815681E+02  0.28645082041E+02  0.00000000000E+00 0. -1.
</event>
<event>
 7    1  0.2432574E-011  0.5052886E+02  0.7816164E-02  0.1300439E+00
        -11   -1    0    0    0    0  0.00000000000E+00  0.00000000000E+00  0.45593999997E+02  0.45594000000E+02  0.51100000000E-03 0.  1.
         11   -1    0    0    0    0 -0.00000000000E+00 -0.00000000000E+00 -0.45593999997E+02  0.45594000000E+02  0.51100000000E-03 0. -1.
    9900012    2    1    2    0    0  0.33026057072E+02 -0.81971521598E+01  0.22254264936E+02  0.50528855185E+02  0.29999985819E+02 0.  0.
         12    1    1    2    0    0 -0.33026057072E+02  0.81971521598E+01 -0.22254264936E+02  0.40659144815E+02  0.00000000000E+00 0. -1.
         11    1    3    3    0    0  0.16856001356E+02  0.22714543911E+01  0.17056987173E+02  0.24087862056E+02  0.51100000000E-03 0.  1.
        -11    1    3    3    0    0  0.43569014363E+01  0.34004348233E+01 -0.31938507778E+01  0.63832773843E+01  0.51100000000E-03 0. -1.
        -12    1    3    3    0    0  0.11813154280E+02 -0.13869041374E+02  0.83911285403E+01  0.20057715744E+02  0.00000000000E+00 0.  1.
</event>
<event>
 7    1  0.2432574E-011  0.5052885E+02  0.7816164E-02  0.1300439E+00
        -11   -1    0    0    0    0  0.00000000000E+00  0.00000000000E+00  0.45593999997E+02  0.45594000000E+02  0.51100000000E-03 0. -1.
         11   -1    0    0    0    0 -0.00000000000E+00 -0.00000000000E+00 -0.45593999997E+02  0.45594000000E+02  0.51100000000E-03 0.  1.
    9900012    2    1    2    0    0 -0.35716471882E+02  0.16685953211E+02  0.99538344945E+01  0.50528853189E+02  0.29999979754E+02 0.  0.
         12    1    1    2    0    0  0.35716471882E+02 -0.16685953211E+02 -0.99538344945E+01  0.40659146811E+02  0.00000000000E+00 0. -1.
         11    1    3    3    0    0 -0.15125886282E+02  0.42554946108E+01  0.69535586418E+01  0.17182946437E+02  0.51100000000E-03 0. -1.
        -11    1    3    3    0    0 -0.20282672886E+02  0.21228145003E+01 -0.41315423472E+01  0.20807758246E+02  0.51100000000E-03 0.  1.
        -12    1    3    3    0    0 -0.30791271379E+00  0.10307644100E+02  0.71318182000E+01  0.12538148507E+02  0.00000000000E+00 0.  1.
</event>
<event>
 7    1  0.2432574E-011  0.5052886E+02  0.7816164E-02  0.1300439E+00
        -11   -1    0    0    0    0  0.00000000000E+00  0.00000000000E+00  0.45593999997E+02  0.45594000000E+02  0.51100000000E-03 0.  1.
         11   -1    0    0    0    0 -0.00000000000E+00 -0.00000000000E+00 -0.45593999997E+02  0.45594000000E+02  0.51100000000E-03 0. -1.
    9900012    2    1    2    0    0 -0.35199484808E+02 -0.12771533527E+02  0.15844551722E+02  0.50528860577E+02  0.30000002209E+02 0.  0.
         12    1    1    2    0    0  0.35199484808E+02  0.12771533527E+02 -0.15844551722E+02  0.40659139423E+02  0.00000000000E+00 0. -1.
         11    1    3    3    0    0 -0.10552863965E+02  0.51481528335E+00  0.12718760460E+02  0.16534655743E+02  0.51100000000E-03 0. -1.
        -11    1    3    3    0    0 -0.21302546333E+02 -0.13377010792E+01  0.72835058440E+00  0.21356929070E+02  0.51100000000E-03 0.  1.
         12    1    3    3    0    0 -0.33440745105E+01 -0.11948647731E+02  0.23974406767E+01  0.12637275764E+02  0.00000000000E+00 0. -1.
</event>
<event>
 7    1  0.2432574E-011  0.5052887E+02  0.7816164E-02  0.1300439E+00
        -11   -1    0    0    0    0  0.00000000000E+00  0.00000000000E+00  0.45593999997E+02  0.45594000000E+02  0.51100000000E-03 0. -1.
         11   -1    0    0    0    0 -0.00000000000E+00 -0.00000000000E+00 -0.45593999997E+02  0.45594000000E+02  0.51100000000E-03 0.  1.
    9900012    2    1    2    0    0  0.24349524730E+02  0.31218306061E+02  0.92565013393E+01  0.50528870583E+02  0.30000032624E+02 0.  0.
         12    1    1    2    0    0 -0.24349524730E+02 -0.31218306061E+02 -0.92565013393E+01  0.40659129417E+02  0.00000000000E+00 0. -1.
         11    1    3    3    0    0 -0.47798494149E+01 -0.15151593465E+00 -0.10739280239E+01  0.49013507494E+01  0.51100000000E-03 0. -1.
        -11    1    3    3    0    0  0.54297282257E+01  0.10033298611E+02  0.74128904451E+01  0.13605145153E+02  0.51100000000E-03 0.  1.
        -12    1    3    3    0    0  0.23699645919E+02  0.21336523385E+02  0.29175389182E+01  0.32022374680E+02  0.00000000000E+00 0.  1.
</event>
<event>
 7    1  0.2432574E-011  0.5052891E+02  0.7816164E-02  0.1300439E+00
        -11   -1    0    0    0    0  0.00000000000E+00  0.00000000000E+00  0.45593999997E+02  0.45594000000E+02  0.51100000000E-03 0.  1.
         11   -1    0    0    0    0 -0.00000000000E+00 -0.00000000000E+00 -0.45593999997E+02  0.45594000000E+02  0.51100000000E-03 0. -1.
    9900012    2    1    2    0    0 -0.23183802469E+02 -0.35635353272E+01  0.33211048542E+02  0.50528914592E+02  0.30000166394E+02 0.  0.
         12    1    1    2    0    0  0.23183802469E+02  0.35635353272E+01 -0.33211048542E+02  0.40659085408E+02  0.00000000000E+00 0. -1.
         11    1    3    3    0    0 -0.18440530247E+01 -0.89439774385E+01  0.19633246441E+02  0.21653166744E+02  0.51100000000E-03 0.  1.
        -11    1    3    3    0    0 -0.53160179480E+01  0.75949552074E+01  0.57082293855E+01  0.10887023211E+02  0.51100000000E-03 0. -1.
        -12    1    3    3    0    0 -0.16023731497E+02 -0.22145130961E+01  0.78695727148E+01  0.17988724636E+02  0.00000000000E+00 0.  1.
</event>
<event>
 7    1  0.2432574E-011  0.5052887E+02  0.7816164E-02  0.1300439E+00
        -11   -1    0    0    0    0  0.00000000000E+00  0.00000000000E+00  0.45593999997E+02  0.45594000000E+02  0.51100000000E-03 0.  1.
         11   -1    0    0    0    0 -0.00000000000E+00 -0.00000000000E+00 -0.45593999997E+02  0.45594000000E+02  0.51100000000E-03 0. -1.
    9900012    2    1    2    0    0  0.36642934902E+02  0.17349606941E+02  0.30742786482E+01  0.50528871524E+02  0.30000035484E+02 0.  0.
         12    1    1    2    0    0 -0.36642934902E+02 -0.17349606941E+02 -0.30742786482E+01  0.40659128476E+02  0.00000000000E+00 0. -1.
         11    1    3    3    0    0  0.60101568913E+01 -0.49872316230E+01  0.70023334963E+01  0.10489382240E+02  0.51100000000E-03 0. -1.
        -11    1    3    3    0    0  0.58970782346E+01  0.11185520506E+02 -0.15888595945E+00  0.12645815343E+02  0.51100000000E-03 0.  1.
        -12    1    3    3    0    0  0.24735699776E+02  0.11151318058E+02 -0.37691688886E+01  0.27393673941E+02  0.00000000000E+00 0.  1.
</event>
<event>
 7    1  0.2432574E-011  0.5052883E+02  0.7816164E-02  0.1300439E+00
        -11   -1    0    0    0    0  0.00000000000E+00  0.00000000000E+00  0.45593999997E+02  0.45594000000E+02  0.51100000000E-03 0. -1.
         11   -1    0    0    0    0 -0.00000000000E+00 -0.00000000000E+00 -0.45593999997E+02  0.45594000000E+02  0.51100000000E-03 0.  1.
    9900012    2    1    2    0    0  0.13130650973E+02 -0.11934435436E+02 -0.36583098195E+02  0.50528833534E+02  0.29999920009E+02 0.  0.
         12    1    1    2    0    0 -0.13130650973E+02  0.11934435436E+02  0.36583098195E+02  0.40659166466E+02  0.00000000000E+00 0. -1.
         11    1    3    3    0    0 -0.26075265299E+01 -0.89675209313E+01 -0.13371928849E+01  0.94341778301E+01  0.51100000000E-03 0. -1.
        -11    1    3    3    0    0  0.15216315797E+01  0.39640989319E+01 -0.13858954370E+02  0.14494828715E+02  0.51100000000E-03 0.  1.
        -12    1    3    3    0    0  0.14216545924E+02 -0.69310134365E+01 -0.21386950941E+02  0.26599826988E+02  0.00000000000E+00 0.  1.
</event>
<event>
 7    1  0.2432574E-011  0.5052886E+02  0.7816164E-02  0.1300439E+00
        -11   -1    0    0    0    0  0.00000000000E+00  0.00000000000E+00  0.45593999997E+02  0.45594000000E+02  0.51100000000E-03 0.  1.
         11   -1    0    0    0    0 -0.00000000000E+00 -0.00000000000E+00 -0.45593999997E+02  0.45594000000E+02  0.51100000000E-03 0. -1.
    9900012    2    1    2    0    0  0.27724789801E+02 -0.22170890360E+02 -0.19823047516E+02  0.50528861277E+02  0.30000004337E+02 0.  0.
         12    1    1    2    0    0 -0.27724789801E+02  0.22170890360E+02  0.19823047516E+02  0.40659138723E+02  0.00000000000E+00 0. -1.
         11    1    3    3    0    0  0.51692640623E+00  0.32609291115E+01 -0.62193754752E+00  0.33597139988E+01  0.51100000000E-03 0. -1.
        -11    1    3    3    0    0  0.18112900561E+02 -0.98983324194E+01  0.28293354128E+00  0.20643018264E+02  0.51100000000E-03 0.  1.
        -12    1    3    3    0    0  0.90949628344E+01 -0.15533487052E+02 -0.19484043510E+02  0.26526129014E+02  0.00000000000E+00 0.  1.
</event>
<event>
 7    1  0.2432574E-011  0.5052887E+02  0.7816164E-02  0.1300439E+00
        -11   -1    0    0    0    0  0.00000000000E+00  0.00000000000E+00  0.45593999997E+02  0.45594000000E+02  0.51100000000E-03 0.  1.
         11   -1    0    0    0    0 -0.00000000000E+00 -0.00000000000E+00 -0.45593999997E+02  0.45594000000E+02  0.51100000000E-03 0. -1.
    9900012    2    1    2    0    0 -0.10799033629E+02  0.20251929919E+02  0.33561960602E+02  0.50528868280E+02  0.30000025624E+02 0.  0.
         12    1    1    2    0    0  0.10799033629E+02 -0.20251929919E+02 -0.33561960602E+02  0.40659131720E+02  0.00000000000E+00 0. -1.
         11    1    3    3    0    0  0.75355297953E+00  0.18768948651E+01 -0.18727536408E+01  0.27564076056E+01  0.51100000000E-03 0.  1.
        -11    1    3    3    0    0  0.28714823047E+01 -0.38794186380E+01  0.23428946563E+01  0.53651146518E+01  0.51100000000E-03 0. -1.
        -12    1    3    3    0    0 -0.14424068914E+02  0.22254453692E+02  0.33091819586E+02  0.42407346023E+02  0.00000000000E+00 0.  1.
</event>
<event>
 7    1  0.2432574E-011  0.5052886E+02  0.7816164E-02  0.1300439E+00
        -11   -1    0    0    0    0  0.00000000000E+00  0.00000000000E+00  0.45593999997E+02  0.45594000000E+02  0.51100000000E-03 0. -1.
         11   -1    0    0    0    0 -0.00000000000E+00 -0.00000000000E+00 -0.45593999997E+02  0.45594000000E+02  0.51100000000E-03 0.  1.
    9900012    2    1    2    0    0  0.33788768460E+02 -0.10717245043E+02 -0.19915454903E+02  0.50528861306E+02  0.30000004424E+02 0.  0.
         12    1    1    2    0    0 -0.33788768460E+02  0.10717245043E+02  0.19915454903E+02  0.40659138694E+02  0.00000000000E+00 0. -1.
         11    1    3    3    0    0  0.48922684214E+01  0.20101462986E+01 -0.12246865667E+01  0.54290732079E+01  0.51100000000E-03 0. -1.
        -11    1    3    3    0    0  0.29524645253E+02 -0.11702647303E+02 -0.23903905563E+02  0.39749884688E+02  0.51100000000E-03 0.  1.
         12    1    3    3    0    0 -0.62814521469E+00 -0.10247440387E+01  0.52131372265E+01  0.53499034101E+01  0.00000000000E+00 0. -1.
</event>
<event>
 7    1  0.2432574E-011  0.5052885E+02  0.7816164E-02  0.1300439E+00
        -11   -1    0    0    0    0  0.00000000000E+00  0.00000000000E+00  0.45593999997E+02  0.45594000000E+02  0.51100000000E-03 0.  1.
         11   -1    0    0    0    0 -0.00000000000E+00 -0.00000000000E+00 -0.45593999997E+02  0.45594000000E+02  0.51100000000E-03 0. -1.
    9900012    2    1    2    0    0 -0.37031922710E+02  0.16166157634E+02 -0.45230698582E+01  0.50528854495E+02  0.29999983724E+02 0.  0.
         12    1    1    2    0    0  0.37031922710E+02 -0.16166157634E+02  0.45230698582E+01  0.40659145505E+02  0.00000000000E+00 0. -1.
         11    1    3    3    0    0  0.24562465920E+01  0.20998439876E+01  0.78119978359E+00  0.33245699656E+01  0.51100000000E-03 0. -1.
        -11    1    3    3    0    0 -0.18854720346E+02  0.10442124860E+02  0.72996247554E+01  0.22755723956E+02  0.51100000000E-03 0.  1.
        -12    1    3    3    0    0 -0.20633448956E+02  0.36241887856E+01 -0.12603894397E+02  0.24448560574E+02  0.00000000000E+00 0.  1.
</event>
<event>
 7    1  0.2432574E-011  0.5052887E+02  0.7816164E-02  0.1300439E+00
        -11   -1    0    0    0    0  0.00000000000E+00  0.00000000000E+00  0.45593999997E+02  0.45594000000E+02  0.51100000000E-03 0.  1.
         11   -1    0    0    0    0 -0.00000000000E+00 -0.00000000000E+00 -0.45593999997E+02  0.45594000000E+02  0.51100000000E-03 0. -1.
    9900012    2    1    2    0    0 -0.33475063028E+02  0.11989545375E+02  0.19718923917E+02  0.50528868142E+02  0.30000025204E+02 0.  0.
         12    1    1    2    0    0  0.33475063028E+02 -0.11989545375E+02 -0.19718923917E+02  0.40659131858E+02  0.00000000000E+00 0. -1.
         11    1    3    3    0    0 -0.23213588038E+02 -0.15787009096E+01  0.76297342957E+01  0.24486237193E+02  0.51100000000E-03 0. -1.
        -11    1    3    3    0    0 -0.62658345735E+01 -0.22744634004E+01  0.43825119678E+01  0.79774856986E+01  0.51100000000E-03 0.  1.
        -12    1    3    3    0    0 -0.39956404163E+01  0.15842709684E+02  0.77066776531E+01  0.18065145251E+02  0.00000000000E+00 0.  1.
</event>
<event>
 7    1  0.2432574E-011  0.5052884E+02  0.7816164E-02  0.1300439E+00
        -11   -1    0    0    0    0  0.00000000000E+00  0.00000000000E+00  0.45593999997E+02  0.45594000000E+02  0.51100000000E-03 0. -1.
         11   -1    0    0    0    0 -0.00000000000E+00 -0.00000000000E+00 -0.45593999997E+02  0.45594000000E+02  0.51100000000E-03 0.  1.
    9900012    2    1    2    0    0 -0.23847269034E+02 -0.16325461612E+02 -0.28599906218E+02  0.50528836545E+02  0.29999929161E+02 0.  0.
         12    1    1    2    0    0  0.23847269034E+02  0.16325461612E+02  0.28599906218E+02  0.40659163455E+02  0.00000000000E+00 0. -1.
         11    1    3    3    0    0 -0.57237129219E+00  0.36746333408E+01  0.30088219179E+01  0.47836752273E+01  0.51100000000E-03 0. -1.
        -11    1    3    3    0    0 -0.35643289297E+01 -0.77319263738E+01 -0.32936926747E+01  0.91288300382E+01  0.51100000000E-03 0.  1.
         12    1    3    3    0    0 -0.19710568812E+02 -0.12268168579E+02 -0.28315035461E+02  0.36616331279E+02  0.00000000000E+00 0. -1.
</event>
<event>
 7    1  0.2432574E-011  0.5052888E+02  0.7816164E-02  0.1300439E+00
        -11   -1    0    0    0    0  0.00000000000E+00  0.00000000000E+00  0.45593999997E+02  0.45594000000E+02  0.51100000000E-03 0.  1.
         11   -1    0    0    0    0 -0.00000000000E+00 -0.00000000000E+00 -0.45593999997E+02  0.45594000000E+02  0.51100000000E-03 0. -1.
    9900012    2    1    2    0    0 -0.11424911771E+02  0.22982518394E+01  0.38953222565E+02  0.50528879023E+02  0.30000058277E+02 0.  0.
         12    1    1    2    0    0  0.11424911771E+02 -0.22982518394E+01 -0.38953222565E+02  0.40659120977E+02  0.00000000000E+00 0. -1.
         11    1    3    3    0    0 -0.10810881575E+02 -0.59635231839E+01  0.65585064344E+01  0.13980442629E+02  0.51100000000E-03 0. -1.
        -11    1    3    3    0    0 -0.22715143639E+01  0.41820987504E+01  0.10213401739E+01  0.48675315587E+01  0.51100000000E-03 0.  1.
        -12    1    3    3    0    0  0.16574841676E+01  0.40796762728E+01  0.31373375956E+02  0.31680904835E+02  0.00000000000E+00 0.  1.
</event>
<event>
 7    1  0.2432574E-011  0.5052885E+02  0.7816164E-02  0.1300439E+00
        -11   -1    0    0    0    0  0.00000000000E+00  0.00000000000E+00  0.45593999997E+02  0.45594000000E+02  0.51100000000E-03 0. -1.
         11   -1    0    0    0    0 -0.00000000000E+00 -0.00000000000E+00 -0.45593999997E+02  0.45594000000E+02  0.51100000000E-03 0.  1.
    9900012    2    1    2    0    0 -0.23167902288E+02  0.28506003142E+02 -0.17430511902E+02  0.50528847811E+02  0.29999963407E+02 0.  0.
         12    1    1    2    0    0  0.23167902288E+02 -0.28506003142E+02  0.17430511902E+02  0.40659152189E+02  0.00000000000E+00 0. -1.
         11    1    3    3    0    0 -0.99625207126E+01  0.67549436334E+01  0.28683869846E+01  0.12373711108E+02  0.51100000000E-03 0. -1.
        -11    1    3    3    0    0  0.24576711139E+01  0.74709652863E+01  0.12103966674E+01  0.79574198059E+01  0.51100000000E-03 0.  1.
        -12    1    3    3    0    0 -0.15663052689E+02  0.14280094222E+02 -0.21509295554E+02  0.30197716897E+02  0.00000000000E+00 0.  1.
</event>
<event>
 7    1  0.2432574E-011  0.5052881E+02  0.7816164E-02  0.1300439E+00
        -11   -1    0    0    0    0  0.00000000000E+00  0.00000000000E+00  0.45593999997E+02  0.45594000000E+02  0.51100000000E-03 0.  1.
         11   -1    0    0    0    0 -0.00000000000E+00 -0.00000000000E+00 -0.45593999997E+02  0.45594000000E+02  0.51100000000E-03 0. -1.
    9900012    2    1    2    0    0  0.33965975097E+02 -0.17786861043E+02 -0.13531811835E+02  0.50528808892E+02  0.29999845106E+02 0.  0.
         12    1    1    2    0    0 -0.33965975097E+02  0.17786861043E+02  0.13531811835E+02  0.40659191108E+02  0.00000000000E+00 0. -1.
         11    1    3    3    0    0  0.72379914475E+01 -0.49097353449E+01 -0.13770934938E+02  0.16313573204E+02  0.51100000000E-03 0. -1.
        -11    1    3    3    0    0  0.14187074842E+02 -0.15246255630E+02  0.33122594417E+01  0.21087732599E+02  0.51100000000E-03 0.  1.
         12    1    3    3    0    0  0.12540908808E+02  0.23691299328E+01 -0.30731363382E+01  0.13127503088E+02  0.00000000000E+00 0. -1.
</event>
<event>
 7    1  0.2432574E-011  0.5052874E+02  0.7816164E-02  0.1300439E+00
        -11   -1    0    0    0    0  0.00000000000E+00  0.00000000000E+00  0.45593999997E+02  0.45594000000E+02  0.51100000000E-03 0.  1.
         11   -1    0    0    0    0 -0.00000000000E+00 -0.00000000000E+00 -0.45593999997E+02  0.45594000000E+02  0.51100000000E-03 0. -1.
    9900012    2    1    2    0    0  0.10249543232E+02  0.15623492412E+02  0.36111336871E+02  0.50528741495E+02  0.29999640245E+02 0.  0.
         12    1    1    2    0    0 -0.10249543232E+02 -0.15623492412E+02 -0.36111336871E+02  0.40659258505E+02  0.00000000000E+00 0. -1.
         11    1    3    3    0    0 -0.25850933689E+01  0.62237159724E+01  0.17181131984E+01  0.69548013239E+01  0.51100000000E-03 0. -1.
        -11    1    3    3    0    0 -0.51905747317E+01  0.59293525706E+01  0.66684817065E+01  0.10323174729E+02  0.51100000000E-03 0.  1.
         12    1    3    3    0    0  0.18025211332E+02  0.34704238688E+01  0.27724741966E+02  0.33250765442E+02  0.00000000000E+00 0. -1.
</event>
<event>
 7    1  0.2432574E-011  0.5052885E+02  0.7816164E-02  0.1300439E+00
        -11   -1    0    0    0    0  0.00000000000E+00  0.00000000000E+00  0.45593999997E+02  0.45594000000E+02  0.51100000000E-03 0. -1.
         11   -1    0    0    0    0 -0.00000000000E+00 -0.00000000000E+00 -0.45593999997E+02  0.45594000000E+02  0.51100000000E-03 0.  1.
    9900012    2    1    2    0    0 -0.80124875736E+01 -0.20839356933E+02 -0.33980698682E+02  0.50528848048E+02  0.29999964127E+02 0.  0.
         12    1    1    2    0    0  0.80124875736E+01  0.20839356933E+02  0.33980698682E+02  0.40659151952E+02  0.00000000000E+00 0. -1.
         11    1    3    3    0    0 -0.98940385741E+00 -0.28026226343E+01 -0.36375390119E+01  0.46973720257E+01  0.51100000000E-03 0.  1.
        -11    1    3    3    0    0  0.67570432023E+01 -0.18590606543E+02 -0.12985743352E+02  0.23662159984E+02  0.51100000000E-03 0. -1.
        -12    1    3    3    0    0 -0.13780126918E+02  0.55387224355E+00 -0.17357416319E+02  0.22169316038E+02  0.00000000000E+00 0.  1.
</event>
<event>
 7    1  0.2432574E-011  0.5052885E+02  0.7816164E-02  0.1300439E+00
        -11   -1    0    0    0    0  0.00000000000E+00  0.00000000000E+00  0.45593999997E+02  0.45594000000E+02  0.51100000000E-03 0.  1.
         11   -1    0    0    0    0 -0.00000000000E+00 -0.00000000000E+00 -0.45593999997E+02  0.45594000000E+02  0.51100000000E-03 0. -1.
    9900012    2    1    2    0    0 -0.16840965334E+01 -0.23845852184E+02  0.32889294137E+02  0.50528849537E+02  0.29999968653E+02 0.  0.
         12    1    1    2    0    0  0.16840965334E+01  0.23845852184E+02 -0.32889294137E+02  0.40659150463E+02  0.00000000000E+00 0. -1.
         11    1    3    3    0    0 -0.68904942543E+01  0.15463569306E+01 -0.39864108036E-01  0.70619912371E+01  0.51100000000E-03 0. -1.
        -11    1    3    3    0    0  0.44687671666E+01 -0.55001726477E+01  0.15362678410E+02  0.16918441634E+02  0.51100000000E-03 0.  1.
        -12    1    3    3    0    0  0.73763055430E+00 -0.19892036467E+02  0.17566479835E+02  0.26548416665E+02  0.00000000000E+00 0.  1.
</event>
<event>
 7    1  0.2432574E-011  0.5052885E+02  0.7816164E-02  0.1300439E+00
        -11   -1    0    0    0    0  0.00000000000E+00  0.00000000000E+00  0.45593999997E+02  0.45594000000E+02  0.51100000000E-03 0.  1.
         11   -1    0    0    0    0 -0.00000000000E+00 -0.00000000000E+00 -0.45593999997E+02  0.45594000000E+02  0.51100000000E-03 0. -1.
    9900012    2    1    2    0    0  0.13696177555E+02 -0.30681069985E+02  0.22896582057E+02  0.50528845988E+02  0.29999957866E+02 0.  0.
         12    1    1    2    0    0 -0.13696177555E+02  0.30681069985E+02 -0.22896582057E+02  0.40659154012E+02  0.00000000000E+00 0. -1.
         11    1    3    3    0    0  0.61369109204E+00 -0.53409345301E+00  0.82858663571E+01  0.83257104274E+01  0.51100000000E-03 0. -1.
        -11    1    3    3    0    0  0.12739073146E+02 -0.30431731031E+02  0.18812711813E+02  0.37977524461E+02  0.51100000000E-03 0.  1.
         12    1    3    3    0    0  0.34341331729E+00  0.28475449940E+00 -0.42019961131E+01  0.42256110997E+01  0.00000000000E+00 0. -1.
</event>
<event>
 7    1  0.2432574E-011  0.5052886E+02  0.7816164E-02  0.1300439E+00
        -11   -1    0    0    0    0  0.00000000000E+00  0.00000000000E+00  0.45593999997E+02  0.45594000000E+02  0.51100000000E-03 0.  1.
         11   -1    0    0    0    0 -0.00000000000E+00 -0.00000000000E+00 -0.45593999997E+02  0.45594000000E+02  0.51100000000E-03 0. -1.
    9900012    2    1    2    0    0  0.11669322446E+02  0.17004398021E+02  0.35040585632E+02  0.50528864743E+02  0.30000014872E+02 0.  0.
         12    1    1    2    0    0 -0.11669322446E+02 -0.17004398021E+02 -0.35040585632E+02  0.40659135257E+02  0.00000000000E+00 0. -1.
         11    1    3    3    0    0  0.11433827684E+02  0.54431200096E+01  0.23130831565E+02  0.26370349639E+02  0.51100000000E-03 0.  1.
        -11    1    3    3    0    0  0.76516351197E+01  0.35225850100E+01  0.99677330149E+01  0.13050357347E+02  0.51100000000E-03 0. -1.
         12    1    3    3    0    0 -0.74161403578E+01  0.80386930015E+01  0.19420210523E+01  0.11108157757E+02  0.00000000000E+00 0. -1.
</event>
<event>
 7    1  0.2432574E-011  0.5052886E+02  0.7816164E-02  0.1300439E+00
        -11   -1    0    0    0    0  0.00000000000E+00  0.00000000000E+00  0.45593999997E+02  0.45594000000E+02  0.51100000000E-03 0.  1.
         11   -1    0    0    0    0 -0.00000000000E+00 -0.00000000000E+00 -0.45593999997E+02  0.45594000000E+02  0.51100000000E-03 0. -1.
    9900012    2    1    2    0    0 -0.12266780540E+02  0.11270169382E+01  0.38748182360E+02  0.50528859475E+02  0.29999998861E+02 0.  0.
         12    1    1    2    0    0  0.12266780540E+02 -0.11270169382E+01 -0.38748182360E+02  0.40659140525E+02  0.00000000000E+00 0. -1.
         11    1    3    3    0    0 -0.74270935237E+01  0.73701277457E+01  0.78725902026E+01  0.13094203983E+02  0.51100000000E-03 0. -1.
        -11    1    3    3    0    0 -0.39966510404E+01 -0.49769059775E+01 -0.13729286573E+00  0.63844860592E+01  0.51100000000E-03 0.  1.
        -12    1    3    3    0    0 -0.84303597550E+00 -0.12662048300E+01  0.31012885023E+02  0.31050169433E+02  0.00000000000E+00 0.  1.
</event>
<event>
 7    1  0.2432574E-011  0.5052886E+02  0.7816164E-02  0.1300439E+00
        -11   -1    0    0    0    0  0.00000000000E+00  0.00000000000E+00  0.45593999997E+02  0.45594000000E+02  0.51100000000E-03 0. -1.
         11   -1    0    0    0    0 -0.00000000000E+00 -0.00000000000E+00 -0.45593999997E+02  0.45594000000E+02  0.51100000000E-03 0.  1.
    9900012    2    1    2    0    0 -0.84427360026E+00  0.23650756337E+02  0.33061978856E+02  0.50528861801E+02  0.30000005929E+02 0.  0.
         12    1    1    2    0    0  0.84427360026E+00 -0.23650756337E+02 -0.33061978856E+02  0.40659138199E+02  0.00000000000E+00 0. -1.
         11    1    3    3    0    0 -0.99912827730E+01  0.15091946229E+02  0.18924480994E+02  0.26186419259E+02  0.51100000000E-03 0. -1.
        -11    1    3    3    0    0 -0.29106318061E+01  0.58933951154E+01  0.16427330517E+01  0.67751351010E+01  0.51100000000E-03 0.  1.
        -12    1    3    3    0    0  0.12057640979E+02  0.26654149927E+01  0.12494764810E+02  0.17567307441E+02  0.00000000000E+00 0.  1.
</event>
<event>
 7    1  0.2432574E-011  0.5052886E+02  0.7816164E-02  0.1300439E+00
        -11   -1    0    0    0    0  0.00000000000E+00  0.00000000000E+00  0.45593999997E+02  0.45594000000E+02  0.51100000000E-03 0.  1.
         11   -1    0    0    0    0 -0.00000000000E+00 -0.00000000000E+00 -0.45593999997E+02  0.45594000000E+02  0.51100000000E-03 0. -1.
    9900012    2    1    2    0    0 -0.69462371745E+01  0.34154232830E+02 -0.20938098699E+02  0.50528858245E+02  0.29999995122E+02 0.  0.
         12    1    1    2    0    0  0.69462371745E+01 -0.34154232830E+02  0.20938098699E+02  0.40659141755E+02  0.00000000000E+00 0. -1.
         11    1    3    3    0    0 -0.48231216690E+01  0.31503912128E+02 -0.99139952666E+01  0.33377331895E+02  0.51100000000E-03 0. -1.
        -11    1    3    3    0    0 -0.23339550984E+01  0.71004191208E+01 -0.10160592985E+02  0.12613522432E+02  0.51100000000E-03 0.  1.
         12    1    3    3    0    0  0.21083959284E+00 -0.44500984184E+01 -0.86351044784E+00  0.45380039181E+01  0.00000000000E+00 0. -1.
</event>
<event>
 7    1  0.2432574E-011  0.5052888E+02  0.7816164E-02  0.1300439E+00
        -11   -1    0    0    0    0  0.00000000000E+00  0.00000000000E+00  0.45593999997E+02  0.45594000000E+02  0.51100000000E-03 0. -1.
         11   -1    0    0    0    0 -0.00000000000E+00 -0.00000000000E+00 -0.45593999997E+02  0.45594000000E+02  0.51100000000E-03 0.  1.
    9900012    2    1    2    0    0 -0.24517235456E+02  0.27068253419E+02  0.17871170180E+02  0.50528881697E+02  0.30000066407E+02 0.  0.
         12    1    1    2    0    0  0.24517235456E+02 -0.27068253419E+02 -0.17871170180E+02  0.40659118303E+02  0.00000000000E+00 0. -1.
         11    1    3    3    0    0 -0.10035071073E+02 -0.40619542996E+01  0.97634263999E+00  0.10869929594E+02  0.51100000000E-03 0. -1.
        -11    1    3    3    0    0  0.31665913847E+00  0.82577107308E+01  0.16023503146E+01  0.84176948338E+01  0.51100000000E-03 0.  1.
        -12    1    3    3    0    0 -0.14798823521E+02  0.22872496988E+02  0.15292477226E+02  0.31241257269E+02  0.00000000000E+00 0.  1.
</event>
<event>
 7    1  0.2432574E-011  0.5052888E+02  0.7816164E-02  0.1300439E+00
        -11   -1    0    0    0    0  0.00000000000E+00  0.00000000000E+00  0.45593999997E+02  0.45594000000E+02  0.51100000000E-03 0.  1.
         11   -1    0    0    0    0 -0.00000000000E+00 -0.00000000000E+00 -0.45593999997E+02  0.45594000000E+02  0.51100000000E-03 0. -1.
    9900012    2    1    2    0    0  0.29485395638E+02 -0.24415552918E+02  0.13698770541E+02  0.50528879318E+02  0.30000059176E+02 0.  0.
         12    1    1    2    0    0 -0.29485395638E+02  0.24415552918E+02 -0.13698770541E+02  0.40659120682E+02  0.00000000000E+00 0. -1.
         11    1    3    3    0    0  0.55941757057E+01 -0.11857538626E+02  0.12672910026E+02  0.18234546139E+02  0.51100000000E-03 0. -1.
        -11    1    3    3    0    0  0.42426212557E+01  0.21154124655E+01  0.56118020493E+01  0.73462321989E+01  0.51100000000E-03 0.  1.
         12    1    3    3    0    0  0.19648598677E+02 -0.14673426758E+02 -0.45859415346E+01  0.24948100981E+02  0.00000000000E+00 0. -1.
</event>
<event>
 7    1  0.2432574E-011  0.5052886E+02  0.7816164E-02  0.1300439E+00
        -11   -1    0    0    0    0  0.00000000000E+00  0.00000000000E+00  0.45593999997E+02  0.45594000000E+02  0.51100000000E-03 0. -1.
         11   -1    0    0    0    0 -0.00000000000E+00 -0.00000000000E+00 -0.45593999997E+02  0.45594000000E+02  0.51100000000E-03 0.  1.
    9900012    2    1    2    0    0  0.15617880186E+01  0.86693492220E+01 -0.39693438422E+02  0.50528857713E+02  0.29999993505E+02 0.  0.
         12    1    1    2    0    0 -0.15617880186E+01 -0.86693492220E+01  0.39693438422E+02  0.40659142287E+02  0.00000000000E+00 0. -1.
         11    1    3    3    0    0 -0.36489893044E+01  0.83585495034E+01 -0.16368074617E+02  0.18737511566E+02  0.51100000000E-03 0. -1.
        -11    1    3    3    0    0  0.10825432591E+02  0.69812134265E+01 -0.13747617712E+02  0.18839435360E+02  0.51100000000E-03 0.  1.
         12    1    3    3    0    0 -0.56146552681E+01 -0.66704137080E+01 -0.95777460931E+01  0.12951910787E+02  0.00000000000E+00 0. -1.
</event>
<event>
 7    1  0.2432574E-011  0.5052886E+02  0.7816164E-02  0.1300439E+00
        -11   -1    0    0    0    0  0.00000000000E+00  0.00000000000E+00  0.45593999997E+02  0.45594000000E+02  0.51100000000E-03 0. -1.
         11   -1    0    0    0    0 -0.00000000000E+00 -0.00000000000E+00 -0.45593999997E+02  0.45594000000E+02  0.51100000000E-03 0.  1.
    9900012    2    1    2    0    0 -0.88319197083E+01  0.38737182555E+02 -0.86367763739E+01  0.50528855590E+02  0.29999987050E+02 0.  0.
         12    1    1    2    0    0  0.88319197083E+01 -0.38737182555E+02  0.86367763739E+01  0.40659144410E+02  0.00000000000E+00 0. -1.
         11    1    3    3    0    0  0.23371839246E+01 -0.15560974814E+01 -0.90369518354E-01  0.28092765937E+01  0.51100000000E-03 0. -1.
        -11    1    3    3    0    0 -0.99783478306E+00  0.19063492506E+01  0.52546774023E+01  0.56781578511E+01  0.51100000000E-03 0.  1.
        -12    1    3    3    0    0 -0.10171268850E+02  0.38386930786E+02 -0.13801084258E+02  0.42041421145E+02  0.00000000000E+00 0.  1.
</event>
<event>
 7    1  0.3301937E-011  0.5052886E+02  0.7816164E-02  0.1300439E+00
        -11   -1    0    0    0    0  0.00000000000E+00  0.00000000000E+00  0.45593999997E+02  0.45594000000E+02  0.51100000000E-03 0. -1.
         11   -1    0    0    0    0 -0.00000000000E+00 -0.00000000000E+00 -0.45593999997E+02  0.45594000000E+02  0.51100000000E-03 0.  1.
    9900012    2    1    2    0    0 -0.13014765424E+02  0.27216504467E+02 -0.27258817425E+02  0.50528863735E+02  0.30000011808E+02 0.  0.
         12    1    1    2    0    0  0.13014765424E+02 -0.27216504467E+02  0.27258817425E+02  0.40659136265E+02  0.00000000000E+00 0. -1.
         11    1    3    3    0    0 -0.12768859197E+01  0.52154615686E+01  0.32040490559E+01  0.62527919875E+01  0.51100000000E-03 0. -1.
        -11    1    3    3    0    0 -0.13675156232E+02  0.18440241042E+02 -0.13070632593E+02  0.26417680146E+02  0.51100000000E-03 0.  1.
        -12    1    3    3    0    0  0.19372767271E+01  0.35608018557E+01 -0.17392233888E+02  0.17858391601E+02  0.00000000000E+00 0.  1.
</event>
<event>
 7    1  0.2432574E-011  0.5052886E+02  0.7816164E-02  0.1300439E+00
        -11   -1    0    0    0    0  0.00000000000E+00  0.00000000000E+00  0.45593999997E+02  0.45594000000E+02  0.51100000000E-03 0.  1.
         11   -1    0    0    0    0 -0.00000000000E+00 -0.00000000000E+00 -0.45593999997E+02  0.45594000000E+02  0.51100000000E-03 0. -1.
    9900012    2    1    2    0    0 -0.31110439080E+02 -0.14794195695E+02  0.21597174014E+02  0.50528861157E+02  0.30000003974E+02 0.  0.
         12    1    1    2    0    0  0.31110439080E+02  0.14794195695E+02 -0.21597174014E+02  0.40659138843E+02  0.00000000000E+00 0. -1.
         11    1    3    3    0    0 -0.63200575334E+01  0.30856392038E+01  0.43003394192E+01  0.82436166762E+01  0.51100000000E-03 0. -1.
        -11    1    3    3    0    0  0.36924657609E+01 -0.47534394445E+01  0.70981997328E+01  0.93066604996E+01  0.51100000000E-03 0.  1.
        -12    1    3    3    0    0 -0.28482847308E+02 -0.13126395455E+02  0.10198634862E+02  0.32978583982E+02  0.00000000000E+00 0.  1.
</event>
<event>
 7    1  0.2432574E-011  0.5052877E+02  0.7816164E-02  0.1300439E+00
        -11   -1    0    0    0    0  0.00000000000E+00  0.00000000000E+00  0.45593999997E+02  0.45594000000E+02  0.51100000000E-03 0.  1.
         11   -1    0    0    0    0 -0.00000000000E+00 -0.00000000000E+00 -0.45593999997E+02  0.45594000000E+02  0.51100000000E-03 0. -1.
    9900012    2    1    2    0    0  0.20314152307E+02  0.36813950608E+01  0.35027923861E+02  0.50528770992E+02  0.29999729905E+02 0.  0.
         12    1    1    2    0    0 -0.20314152307E+02 -0.36813950608E+01 -0.35027923861E+02  0.40659229008E+02  0.00000000000E+00 0. -1.
         11    1    3    3    0    0 -0.23654391751E+01 -0.17518498686E+01 -0.14604553106E+01  0.32859108979E+01  0.51100000000E-03 0. -1.
        -11    1    3    3    0    0  0.12078635483E+00 -0.51069301952E+01  0.61817250482E+01  0.80192923749E+01  0.51100000000E-03 0.  1.
        -12    1    3    3    0    0  0.22558805128E+02  0.10540175125E+02  0.30306654123E+02  0.39223567719E+02  0.00000000000E+00 0.  1.
</event>
<event>
 7    1  0.2432574E-011  0.5052886E+02  0.7816164E-02  0.1300439E+00
        -11   -1    0    0    0    0  0.00000000000E+00  0.00000000000E+00  0.45593999997E+02  0.45594000000E+02  0.51100000000E-03 0.  1.
         11   -1    0    0    0    0 -0.00000000000E+00 -0.00000000000E+00 -0.45593999997E+02  0.45594000000E+02  0.51100000000E-03 0. -1.
    9900012    2    1    2    0    0 -0.37822189120E+02  0.91652146159E+01  0.11774828926E+02  0.50528859022E+02  0.29999997484E+02 0.  0.
         12    1    1    2    0    0  0.37822189120E+02 -0.91652146159E+01 -0.11774828926E+02  0.40659140978E+02  0.00000000000E+00 0. -1.
         11    1    3    3    0    0 -0.77497075689E+01 -0.72349647234E+01  0.22982438311E+01  0.10848253635E+02  0.51100000000E-03 0.  1.
        -11    1    3    3    0    0 -0.12875873369E+02 -0.21792469555E+01  0.49335677648E+01  0.13959846827E+02  0.51100000000E-03 0. -1.
         12    1    3    3    0    0 -0.17196608183E+02  0.18579426295E+02  0.45430173304E+01  0.25720758560E+02  0.00000000000E+00 0. -1.
</event>
<event>
 7    1  0.2432574E-011  0.5052886E+02  0.7816164E-02  0.1300439E+00
        -11   -1    0    0    0    0  0.00000000000E+00  0.00000000000E+00  0.45593999997E+02  0.45594000000E+02  0.51100000000E-03 0. -1.
         11   -1    0    0    0    0 -0.00000000000E+00 -0.00000000000E+00 -0.45593999997E+02  0.45594000000E+02  0.51100000000E-03 0.  1.
    9900012    2    1    2    0    0 -0.39570951551E+02 -0.61906994178E+01  0.69986421195E+01  0.50528856410E+02  0.29999989545E+02 0.  0.
         12    1    1    2    0    0  0.39570951551E+02  0.61906994178E+01 -0.69986421195E+01  0.40659143590E+02  0.00000000000E+00 0. -1.
         11    1    3    3    0    0 -0.25352462161E+02 -0.80135820381E+01  0.39031879330E+01  0.26873773665E+02  0.51100000000E-03 0. -1.
        -11    1    3    3    0    0 -0.13269437527E+02 -0.21197750683E+01 -0.52101069569E+01  0.14412377784E+02  0.51100000000E-03 0.  1.
         12    1    3    3    0    0 -0.94905186243E+00  0.39426576886E+01  0.83055611434E+01  0.92427049608E+01  0.00000000000E+00 0. -1.
</event>
<event>
 7    1  0.2432574E-011  0.5052886E+02  0.7816164E-02  0.1300439E+00
        -11   -1    0    0    0    0  0.00000000000E+00  0.00000000000E+00  0.45593999997E+02  0.45594000000E+02  0.51100000000E-03 0.  1.
         11   -1    0    0    0    0 -0.00000000000E+00 -0.00000000000E+00 -0.45593999997E+02  0.45594000000E+02  0.51100000000E-03 0. -1.
    9900012    2    1    2    0    0 -0.55152549790E+01  0.24638774691E+02  0.31869704025E+02  0.50528864614E+02  0.30000014480E+02 0.  0.
         12    1    1    2    0    0  0.55152549790E+01 -0.24638774691E+02 -0.31869704025E+02  0.40659135386E+02  0.00000000000E+00 0. -1.
         11    1    3    3    0    0  0.25537632567E+00  0.25285559141E+02  0.95294303592E+01  0.27022856277E+02  0.51100000000E-03 0. -1.
        -11    1    3    3    0    0 -0.15640603009E+01 -0.56012943941E+00  0.14778083635E+01  0.22234989171E+01  0.51100000000E-03 0.  1.
         12    1    3    3    0    0 -0.42065710037E+01 -0.86655011278E-01  0.20862465302E+02  0.21282509419E+02  0.00000000000E+00 0. -1.
</event>
<event>
 7    1  0.2432574E-011  0.5052886E+02  0.7816164E-02  0.1300439E+00
        -11   -1    0    0    0    0  0.00000000000E+00  0.00000000000E+00  0.45593999997E+02  0.45594000000E+02  0.51100000000E-03 0.  1.
         11   -1    0    0    0    0 -0.00000000000E+00 -0.00000000000E+00 -0.45593999997E+02  0.45594000000E+02  0.51100000000E-03 0. -1.
    9900012    2    1    2    0    0 -0.33752936824E+02  0.33342652598E+01  0.22422926972E+02  0.50528859293E+02  0.29999998308E+02 0.  0.
         12    1    1    2    0    0  0.33752936824E+02 -0.33342652598E+01 -0.22422926972E+02  0.40659140707E+02  0.00000000000E+00 0. -1.
         11    1    3    3    0    0 -0.59264235904E+01 -0.54098051963E+01 -0.15375491316E+01  0.81702231566E+01  0.51100000000E-03 0. -1.
        -11    1    3    3    0    0 -0.15946404564E+02 -0.48262419126E+01  0.13957738513E+02  0.21734739340E+02  0.51100000000E-03 0.  1.
        -12    1    3    3    0    0 -0.11880108669E+02  0.13570312369E+02  0.10002737590E+02  0.20623896796E+02  0.00000000000E+00 0.  1.
</event>
<event>
 7    1  0.2432574E-011  0.5052886E+02  0.7816164E-02  0.1300439E+00
        -11   -1    0    0    0    0  0.00000000000E+00  0.00000000000E+00  0.45593999997E+02  0.45594000000E+02  0.51100000000E-03 0. -1.
         11   -1    0    0    0    0 -0.00000000000E+00 -0.00000000000E+00 -0.45593999997E+02  0.45594000000E+02  0.51100000000E-03 0.  1.
    9900012    2    1    2    0    0 -0.20671046487E+02 -0.34959533632E+02  0.19247620078E+01  0.50528857567E+02  0.29999993059E+02 0.  0.
         12    1    1    2    0    0  0.20671046487E+02  0.34959533632E+02 -0.19247620078E+01  0.40659142433E+02  0.00000000000E+00 0. -1.
         11    1    3    3    0    0 -0.88815877626E+01 -0.13695050976E+02  0.52593830665E+01  0.17149289575E+02  0.51100000000E-03 0. -1.
        -11    1    3    3    0    0 -0.18503134410E+02 -0.17070717079E+02 -0.37507043523E+01  0.25452763072E+02  0.51100000000E-03 0.  1.
         12    1    3    3    0    0  0.67136756858E+01 -0.41937655766E+01  0.41608329364E+00  0.79268049196E+01  0.00000000000E+00 0. -1.
</event>
<event>
 7    1  0.2432574E-011  0.5052889E+02  0.7816164E-02  0.1300439E+00
        -11   -1    0    0    0    0  0.00000000000E+00  0.00000000000E+00  0.45593999997E+02  0.45594000000E+02  0.51100000000E-03 0.  1.
         11   -1    0    0    0    0 -0.00000000000E+00 -0.00000000000E+00 -0.45593999997E+02  0.45594000000E+02  0.51100000000E-03 0. -1.
    9900012    2    1    2    0    0 -0.14472231562E+02 -0.10878182431E+02  0.36405812600E+02  0.50528886256E+02  0.30000080264E+02 0.  0.
         12    1    1    2    0    0  0.14472231562E+02  0.10878182431E+02 -0.36405812600E+02  0.40659113744E+02  0.00000000000E+00 0. -1.
         11    1    3    3    0    0 -0.10965616028E+02 -0.94313610339E+01  0.35801643018E+02  0.38612859890E+02  0.51100000000E-03 0.  1.
        -11    1    3    3    0    0  0.34780835707E+01 -0.31916213725E+00  0.28339882620E+01  0.44978238655E+01  0.51100000000E-03 0. -1.
        -12    1    3    3    0    0 -0.69846991049E+01 -0.11276592601E+01 -0.22298186802E+01  0.74182025006E+01  0.00000000000E+00 0.  1.
</event>
<event>
 7    1  0.2432574E-011  0.5052895E+02  0.7816164E-02  0.1300438E+00
        -11   -1    0    0    0    0  0.00000000000E+00  0.00000000000E+00  0.45593999997E+02  0.45594000000E+02  0.51100000000E-03 0. -1.
         11   -1    0    0    0    0 -0.00000000000E+00 -0.00000000000E+00 -0.45593999997E+02  0.45594000000E+02  0.51100000000E-03 0.  1.
    9900012    2    1    2    0    0  0.23649613865E+02 -0.24134304235E+02 -0.22613913849E+02  0.50528954555E+02  0.30000287865E+02 0.  0.
         12    1    1    2    0    0 -0.23649613865E+02  0.24134304235E+02  0.22613913849E+02  0.40659045445E+02  0.00000000000E+00 0. -1.
         11    1    3    3    0    0  0.32642278882E+01  0.60364849337E+01 -0.30913356747E+01  0.75266653025E+01  0.51100000000E-03 0. -1.
        -11    1    3    3    0    0  0.87073327643E+00 -0.41897714234E+01 -0.69486989670E+01  0.81606849353E+01  0.51100000000E-03 0.  1.
         12    1    3    3    0    0  0.19514652701E+02 -0.25981017745E+02 -0.12573879208E+02  0.34841604318E+02  0.00000000000E+00 0. -1.
</event>
<event>
 7    1  0.2432574E-011  0.5052885E+02  0.7816164E-02  0.1300439E+00
        -11   -1    0    0    0    0  0.00000000000E+00  0.00000000000E+00  0.45593999997E+02  0.45594000000E+02  0.51100000000E-03 0.  1.
         11   -1    0    0    0    0 -0.00000000000E+00 -0.00000000000E+00 -0.45593999997E+02  0.45594000000E+02  0.51100000000E-03 0. -1.
    9900012    2    1    2    0    0 -0.21850914356E+01 -0.40411718818E+02  0.39096296505E+01  0.50528845478E+02  0.29999956316E+02 0.  0.
         12    1    1    2    0    0  0.21850914356E+01  0.40411718818E+02 -0.39096296505E+01  0.40659154522E+02  0.00000000000E+00 0. -1.
         11    1    3    3    0    0 -0.64348431267E+01 -0.13162967541E+02  0.15724366150E+01  0.14735789009E+02  0.51100000000E-03 0. -1.
        -11    1    3    3    0    0 -0.47589170369E+01  0.33389697122E+00 -0.38426576827E+01  0.61257486790E+01  0.51100000000E-03 0.  1.
        -12    1    3    3    0    0  0.90086687279E+01 -0.27582648248E+02  0.61798507182E+01  0.29667307790E+02  0.00000000000E+00 0.  1.
</event>
<event>
 7    1  0.2432574E-011  0.5052886E+02  0.7816164E-02  0.1300439E+00
        -11   -1    0    0    0    0  0.00000000000E+00  0.00000000000E+00  0.45593999997E+02  0.45594000000E+02  0.51100000000E-03 0.  1.
         11   -1    0    0    0    0 -0.00000000000E+00 -0.00000000000E+00 -0.45593999997E+02  0.45594000000E+02  0.51100000000E-03 0. -1.
    9900012    2    1    2    0    0 -0.18853420390E+02 -0.34500713156E+02  0.10364125529E+02  0.50528858757E+02  0.29999996678E+02 0.  0.
         12    1    1    2    0    0  0.18853420390E+02  0.34500713156E+02 -0.10364125529E+02  0.40659141243E+02  0.00000000000E+00 0. -1.
         11    1    3    3    0    0 -0.41505780875E+01  0.10770978265E+01  0.46752697173E+01  0.63439408398E+01  0.51100000000E-03 0. -1.
        -11    1    3    3    0    0 -0.89836495677E+01 -0.19233826503E+02  0.13533158317E+02  0.25175234175E+02  0.51100000000E-03 0.  1.
         12    1    3    3    0    0 -0.57191927342E+01 -0.16343984480E+02 -0.78443025044E+01  0.19009683742E+02  0.00000000000E+00 0. -1.
</event>
<event>
 7    1  0.2432574E-011  0.5052887E+02  0.7816164E-02  0.1300439E+00
        -11   -1    0    0    0    0  0.00000000000E+00  0.00000000000E+00  0.45593999997E+02  0.45594000000E+02  0.51100000000E-03 0.  1.
         11   -1    0    0    0    0 -0.00000000000E+00 -0.00000000000E+00 -0.45593999997E+02  0.45594000000E+02  0.51100000000E-03 0. -1.
    9900012    2    1    2    0    0 -0.19448816024E+02  0.35574069729E+02  0.30650083787E+01  0.50528866239E+02  0.30000019421E+02 0.  0.
         12    1    1    2    0    0  0.19448816024E+02 -0.35574069729E+02 -0.30650083787E+01  0.40659133761E+02  0.00000000000E+00 0. -1.
         11    1    3    3    0    0 -0.59112934268E+01 -0.11857916055E+01 -0.94392313629E+00  0.61024980834E+01  0.51100000000E-03 0. -1.
        -11    1    3    3    0    0 -0.17261459815E+02  0.36307244338E+02  0.22004191790E+01  0.40261840881E+02  0.51100000000E-03 0.  1.
         12    1    3    3    0    0  0.37239372182E+01  0.45261699696E+00  0.18085123359E+01  0.41645272745E+01  0.00000000000E+00 0. -1.
</event>
<event>
 7    1  0.2432574E-011  0.5052886E+02  0.7816164E-02  0.1300439E+00
        -11   -1    0    0    0    0  0.00000000000E+00  0.00000000000E+00  0.45593999997E+02  0.45594000000E+02  0.51100000000E-03 0.  1.
         11   -1    0    0    0    0 -0.00000000000E+00 -0.00000000000E+00 -0.45593999997E+02  0.45594000000E+02  0.51100000000E-03 0. -1.
    9900012    2    1    2    0    0 -0.34152987673E+02  0.13551543638E+02  0.17409606473E+02  0.50528864501E+02  0.30000014137E+02 0.  0.
         12    1    1    2    0    0  0.34152987673E+02 -0.13551543638E+02 -0.17409606473E+02  0.40659135499E+02  0.00000000000E+00 0. -1.
         11    1    3    3    0    0 -0.61932167692E+01  0.67767680063E+01 -0.21787579715E+01  0.94354387879E+01  0.51100000000E-03 0.  1.
        -11    1    3    3    0    0 -0.12960457859E+02 -0.44682652089E+01 -0.36776155411E+00  0.13714011475E+02  0.51100000000E-03 0. -1.
        -12    1    3    3    0    0 -0.14999313045E+02  0.11243040840E+02  0.19956125999E+02  0.27379414238E+02  0.00000000000E+00 0.  1.
</event>
<event>
 7    1  0.2560430E-011  0.5052886E+02  0.7816164E-02  0.1300439E+00
        -11   -1    0    0    0    0  0.00000000000E+00  0.00000000000E+00  0.45593999997E+02  0.45594000000E+02  0.51100000000E-03 0.  1.
         11   -1    0    0    0    0 -0.00000000000E+00 -0.00000000000E+00 -0.45593999997E+02  0.45594000000E+02  0.51100000000E-03 0. -1.
    9900012    2    1    2    0    0  0.20988807820E+02  0.31720038859E+02  0.14369219494E+02  0.50528863415E+02  0.30000010837E+02 0.  0.
         12    1    1    2    0    0 -0.20988807820E+02 -0.31720038859E+02 -0.14369219494E+02  0.40659136585E+02  0.00000000000E+00 0. -1.
         11    1    3    3    0    0  0.14537699781E+01 -0.39686514897E+01  0.35966594302E+01  0.55497388329E+01  0.51100000000E-03 0. -1.
        -11    1    3    3    0    0  0.10508571843E+02  0.85880433801E+01 -0.19476719224E+01  0.13710506827E+02  0.51100000000E-03 0.  1.
        -12    1    3    3    0    0  0.90264659997E+01  0.27100646968E+02  0.12720231987E+02  0.31268617756E+02  0.00000000000E+00 0.  1.
</event>
<event>
 7    1  0.2432574E-011  0.5052886E+02  0.7816164E-02  0.1300439E+00
        -11   -1    0    0    0    0  0.00000000000E+00  0.00000000000E+00  0.45593999997E+02  0.45594000000E+02  0.51100000000E-03 0.  1.
         11   -1    0    0    0    0 -0.00000000000E+00 -0.00000000000E+00 -0.45593999997E+02  0.45594000000E+02  0.51100000000E-03 0. -1.
    9900012    2    1    2    0    0 -0.28550932939E+02 -0.23597261640E+01  0.28852057554E+02  0.50528864442E+02  0.30000013958E+02 0.  0.
         12    1    1    2    0    0  0.28550932939E+02  0.23597261640E+01 -0.28852057554E+02  0.40659135558E+02  0.00000000000E+00 0. -1.
         11    1    3    3    0    0  0.43787035589E+01  0.28124857241E+01  0.70152308993E+01  0.87347916768E+01  0.51100000000E-03 0. -1.
        -11    1    3    3    0    0 -0.84504662867E+01 -0.11935080060E+01  0.12829159670E+02  0.15408509984E+02  0.51100000000E-03 0.  1.
         12    1    3    3    0    0 -0.24479170211E+02 -0.39787038821E+01  0.90076669839E+01  0.26385562781E+02  0.00000000000E+00 0. -1.
</event>
<event>
 7    1  0.2432574E-011  0.5052887E+02  0.7816164E-02  0.1300439E+00
        -11   -1    0    0    0    0  0.00000000000E+00  0.00000000000E+00  0.45593999997E+02  0.45594000000E+02  0.51100000000E-03 0.  1.
         11   -1    0    0    0    0 -0.00000000000E+00 -0.00000000000E+00 -0.45593999997E+02  0.45594000000E+02  0.51100000000E-03 0. -1.
    9900012    2    1    2    0    0  0.36296592770E+02 -0.98209310887E+01 -0.15468414144E+02  0.50528866090E+02  0.30000018968E+02 0.  0.
         12    1    1    2    0    0 -0.36296592770E+02  0.98209310887E+01  0.15468414144E+02  0.40659133910E+02  0.00000000000E+00 0. -1.
         11    1    3    3    0    0  0.83117013697E+01  0.74036995005E+00 -0.85168975189E+01  0.11923509170E+02  0.51100000000E-03 0. -1.
        -11    1    3    3    0    0  0.69662060060E+00  0.54279735715E+01  0.18485768877E+01  0.57762803018E+01  0.51100000000E-03 0.  1.
        -12    1    3    3    0    0  0.27288270799E+02 -0.15989274610E+02 -0.88000935130E+01  0.32829076618E+02  0.00000000000E+00 0.  1.
</event>
<event>
 7    1  0.2432574E-011  0.5052886E+02  0.7816164E-02  0.1300439E+00
        -11   -1    0    0    0    0  0.00000000000E+00  0.00000000000E+00  0.45593999997E+02  0.45594000000E+02  0.51100000000E-03 0. -1.
         11   -1    0    0    0    0 -0.00000000000E+00 -0.00000000000E+00 -0.45593999997E+02  0.45594000000E+02  0.51100000000E-03 0.  1.
    9900012    2    1    2    0    0  0.47925786287E+01 -0.39905703048E+02  0.61426242137E+01  0.50528858618E+02  0.29999996256E+02 0.  0.
         12    1    1    2    0    0 -0.47925786287E+01  0.39905703048E+02 -0.61426242137E+01  0.40659141382E+02  0.00000000000E+00 0. -1.
         11    1    3    3    0    0  0.39491729053E+00  0.10311710681E+01  0.19426506408E+01  0.22345391496E+01  0.51100000000E-03 0. -1.
        -11    1    3    3    0    0  0.13165760221E+02 -0.22689639864E+02 -0.38388221463E+01  0.26512139769E+02  0.51100000000E-03 0.  1.
         12    1    3    3    0    0 -0.87680988833E+01 -0.18247234252E+02  0.80387957192E+01  0.21782179700E+02  0.00000000000E+00 0. -1.
</event>
<event>
 7    1  0.2432574E-011  0.5052887E+02  0.7816164E-02  0.1300439E+00
        -11   -1    0    0    0    0  0.00000000000E+00  0.00000000000E+00  0.45593999997E+02  0.45594000000E+02  0.51100000000E-03 0. -1.
         11   -1    0    0    0    0 -0.00000000000E+00 -0.00000000000E+00 -0.45593999997E+02  0.45594000000E+02  0.51100000000E-03 0.  1.
    9900012    2    1    2    0    0  0.31883755371E+01  0.26461858241E+02 -0.30704549437E+02  0.50528867738E+02  0.30000023977E+02 0.  0.
         12    1    1    2    0    0 -0.31883755371E+01 -0.26461858241E+02  0.30704549437E+02  0.40659132262E+02  0.00000000000E+00 0. -1.
         11    1    3    3    0    0  0.28700241043E+01  0.73738979278E+01 -0.91497754424E+01  0.12096685493E+02  0.51100000000E-03 0. -1.
        -11    1    3    3    0    0  0.93021675031E+01  0.87692768344E+01 -0.21187750646E+02  0.24745733251E+02  0.51100000000E-03 0.  1.
         12    1    3    3    0    0 -0.89838160703E+01  0.10318683479E+02 -0.36702334877E+00  0.13686448994E+02  0.00000000000E+00 0. -1.
</event>
<event>
 7    1  0.2432574E-011  0.5052886E+02  0.7816164E-02  0.1300439E+00
        -11   -1    0    0    0    0  0.00000000000E+00  0.00000000000E+00  0.45593999997E+02  0.45594000000E+02  0.51100000000E-03 0.  1.
         11   -1    0    0    0    0 -0.00000000000E+00 -0.00000000000E+00 -0.45593999997E+02  0.45594000000E+02  0.51100000000E-03 0. -1.
    9900012    2    1    2    0    0  0.16282321200E+01  0.14694081901E+02  0.37876091278E+02  0.50528862364E+02  0.30000007643E+02 0.  0.
         12    1    1    2    0    0 -0.16282321200E+01 -0.14694081901E+02 -0.37876091278E+02  0.40659137636E+02  0.00000000000E+00 0. -1.
         11    1    3    3    0    0  0.35893107103E+01 -0.90693197425E+00  0.43710277937E+00  0.37278326252E+01  0.51100000000E-03 0. -1.
        -11    1    3    3    0    0  0.96865484230E+00  0.18688212229E+02  0.15059204821E+02  0.24020141935E+02  0.51100000000E-03 0.  1.
        -12    1    3    3    0    0 -0.29297334326E+01 -0.30871983530E+01  0.22379783678E+02  0.22780887804E+02  0.00000000000E+00 0.  1.
</event>
<event>
 7    1  0.2678543E-011  0.5052886E+02  0.7816164E-02  0.1300439E+00
        -11   -1    0    0    0    0  0.00000000000E+00  0.00000000000E+00  0.45593999997E+02  0.45594000000E+02  0.51100000000E-03 0.  1.
         11   -1    0    0    0    0 -0.00000000000E+00 -0.00000000000E+00 -0.45593999997E+02  0.45594000000E+02  0.51100000000E-03 0. -1.
    9900012    2    1    2    0    0  0.58161729093E+01  0.39857118377E+02  0.55450523856E+01  0.50528863775E+02  0.30000011930E+02 0.  0.
         12    1    1    2    0    0 -0.58161729093E+01 -0.39857118377E+02 -0.55450523856E+01  0.40659136225E+02  0.00000000000E+00 0. -1.
         11    1    3    3    0    0  0.89348666596E+01  0.14724582344E+02 -0.55182450694E+01  0.18085800960E+02  0.51100000000E-03 0. -1.
        -11    1    3    3    0    0  0.17728323862E+01  0.21418016880E+02  0.21224895986E+01  0.21595817746E+02  0.51100000000E-03 0.  1.
        -12    1    3    3    0    0 -0.48915261365E+01  0.37145191525E+01  0.89408078563E+01  0.10847245070E+02  0.00000000000E+00 0.  1.
</event>
<event>
 7    1  0.2432574E-011  0.5052886E+02  0.7816164E-02  0.1300439E+00
        -11   -1    0    0    0    0  0.00000000000E+00  0.00000000000E+00  0.45593999997E+02  0.45594000000E+02  0.51100000000E-03 0.  1.
         11   -1    0    0    0    0 -0.00000000000E+00 -0.00000000000E+00 -0.45593999997E+02  0.45594000000E+02  0.51100000000E-03 0. -1.
    9900012    2    1    2    0    0 -0.13950758801E+02  0.11678784147E+02  0.36361348811E+02  0.50528863787E+02  0.30000011965E+02 0.  0.
         12    1    1    2    0    0  0.13950758801E+02 -0.11678784147E+02 -0.36361348811E+02  0.40659136213E+02  0.00000000000E+00 0. -1.
         11    1    3    3    0    0 -0.32994876124E+01 -0.38709242718E+01  0.53629692032E+00  0.51145173643E+01  0.51100000000E-03 0. -1.
        -11    1    3    3    0    0 -0.67467719074E+00  0.27625530811E+00  0.23240022532E+02  0.23251454876E+02  0.51100000000E-03 0.  1.
        -12    1    3    3    0    0 -0.99765939979E+01  0.15273453111E+02  0.12585029359E+02  0.22162891546E+02  0.00000000000E+00 0.  1.
</event>
<event>
 7    1  0.2432574E-011  0.5052883E+02  0.7816164E-02  0.1300439E+00
        -11   -1    0    0    0    0  0.00000000000E+00  0.00000000000E+00  0.45593999997E+02  0.45594000000E+02  0.51100000000E-03 0. -1.
         11   -1    0    0    0    0 -0.00000000000E+00 -0.00000000000E+00 -0.45593999997E+02  0.45594000000E+02  0.51100000000E-03 0.  1.
    9900012    2    1    2    0    0  0.12806445158E+02 -0.23739525986E+02 -0.30423639068E+02  0.50528831960E+02  0.29999915224E+02 0.  0.
         12    1    1    2    0    0 -0.12806445158E+02  0.23739525986E+02  0.30423639068E+02  0.40659168040E+02  0.00000000000E+00 0. -1.
         11    1    3    3    0    0  0.12584740461E+02 -0.14991109992E+02 -0.56429134168E+01  0.20370359432E+02  0.51100000000E-03 0. -1.
        -11    1    3    3    0    0  0.71346826432E+01 -0.19949629302E+01 -0.90413381039E+01  0.11688856594E+02  0.51100000000E-03 0.  1.
        -12    1    3    3    0    0 -0.69129779471E+01 -0.67534530636E+01 -0.15739387547E+02  0.18469615934E+02  0.00000000000E+00 0.  1.
</event>
<event>
 7    1  0.2432574E-011  0.5052886E+02  0.7816164E-02  0.1300439E+00
        -11   -1    0    0    0    0  0.00000000000E+00  0.00000000000E+00  0.45593999997E+02  0.45594000000E+02  0.51100000000E-03 0.  1.
         11   -1    0    0    0    0 -0.00000000000E+00 -0.00000000000E+00 -0.45593999997E+02  0.45594000000E+02  0.51100000000E-03 0. -1.
    9900012    2    1    2    0    0 -0.12144428265E+02 -0.36580562351E+02  0.12943752868E+02  0.50528863042E+02  0.30000009703E+02 0.  0.
         12    1    1    2    0    0  0.12144428265E+02  0.36580562351E+02 -0.12943752868E+02  0.40659136958E+02  0.00000000000E+00 0. -1.
         11    1    3    3    0    0 -0.12477323440E+02 -0.65659796396E+01  0.76642930401E+01  0.16047961768E+02  0.51100000000E-03 0. -1.
        -11    1    3    3    0    0  0.36780820674E+01 -0.56462489259E+01  0.71350476315E+01  0.98141387596E+01  0.51100000000E-03 0.  1.
         12    1    3    3    0    0 -0.33451868928E+01 -0.24368333786E+02 -0.18555878032E+01  0.24666762514E+02  0.00000000000E+00 0. -1.
</event>
<event>
 7    1  0.2432574E-011  0.5052886E+02  0.7816164E-02  0.1300439E+00
        -11   -1    0    0    0    0  0.00000000000E+00  0.00000000000E+00  0.45593999997E+02  0.45594000000E+02  0.51100000000E-03 0.  1.
         11   -1    0    0    0    0 -0.00000000000E+00 -0.00000000000E+00 -0.45593999997E+02  0.45594000000E+02  0.51100000000E-03 0. -1.
    9900012    2    1    2    0    0 -0.27717968372E+02  0.27624460009E+02 -0.11034897580E+02  0.50528861716E+02  0.30000005671E+02 0.  0.
         12    1    1    2    0    0  0.27717968372E+02 -0.27624460009E+02  0.11034897580E+02  0.40659138284E+02  0.00000000000E+00 0. -1.
         11    1    3    3    0    0  0.13200892999E+01  0.58366171735E+01  0.35015346906E+00  0.59942758948E+01  0.51100000000E-03 0.  1.
        -11    1    3    3    0    0 -0.24043170108E+02  0.26525501058E+02 -0.73249952841E+01  0.36542191935E+02  0.51100000000E-03 0. -1.
         12    1    3    3    0    0 -0.49948875633E+01 -0.47376582233E+01 -0.40600557650E+01  0.79923938858E+01  0.00000000000E+00 0. -1.
</event>
<event>
 7    1  0.2432574E-011  0.5052884E+02  0.7816164E-02  0.1300439E+00
        -11   -1    0    0    0    0  0.00000000000E+00  0.00000000000E+00  0.45593999997E+02  0.45594000000E+02  0.51100000000E-03 0. -1.
         11   -1    0    0    0    0 -0.00000000000E+00 -0.00000000000E+00 -0.45593999997E+02  0.45594000000E+02  0.51100000000E-03 0.  1.
    9900012    2    1    2    0    0  0.17339166242E+02 -0.13728187542E+02 -0.34118281042E+02  0.50528844569E+02  0.29999953551E+02 0.  0.
         12    1    1    2    0    0 -0.17339166242E+02  0.13728187542E+02  0.34118281042E+02  0.40659155431E+02  0.00000000000E+00 0. -1.
         11    1    3    3    0    0  0.97937892678E+01  0.30308291172E+01 -0.78427367180E+01  0.12907856245E+02  0.51100000000E-03 0. -1.
        -11    1    3    3    0    0  0.57629136090E+01 -0.11333743119E+01 -0.19731075326E+02  0.20586671522E+02  0.51100000000E-03 0.  1.
         12    1    3    3    0    0  0.17824633653E+01 -0.15625642347E+02 -0.65444689979E+01  0.17034316801E+02  0.00000000000E+00 0. -1.
</event>
<event>
 7    1  0.2432574E-011  0.5052884E+02  0.7816164E-02  0.1300439E+00
        -11   -1    0    0    0    0  0.00000000000E+00  0.00000000000E+00  0.45593999997E+02  0.45594000000E+02  0.51100000000E-03 0.  1.
         11   -1    0    0    0    0 -0.00000000000E+00 -0.00000000000E+00 -0.45593999997E+02  0.45594000000E+02  0.51100000000E-03 0. -1.
    9900012    2    1    2    0    0 -0.31577306209E+02  0.73262737220E+01  0.24543166905E+02  0.50528836263E+02  0.29999928306E+02 0.  0.
         12    1    1    2    0    0  0.31577306209E+02 -0.73262737220E+01 -0.24543166905E+02  0.40659163737E+02  0.00000000000E+00 0. -1.
         11    1    3    3    0    0 -0.13725193818E+02 -0.76304305512E+01  0.61807368609E+01  0.16876194006E+02  0.51100000000E-03 0. -1.
        -11    1    3    3    0    0 -0.14238809514E+02  0.59677553622E+01  0.33698961509E+01  0.15802341623E+02  0.51100000000E-03 0.  1.
         12    1    3    3    0    0 -0.36133028775E+01  0.89889489109E+01  0.14992533893E+02  0.17850300634E+02  0.00000000000E+00 0. -1.
</event>
<event>
 7    1  0.2432574E-011  0.5052885E+02  0.7816164E-02  0.1300439E+00
        -11   -1    0    0    0    0  0.00000000000E+00  0.00000000000E+00  0.45593999997E+02  0.45594000000E+02  0.51100000000E-03 0. -1.
         11   -1    0    0    0    0 -0.00000000000E+00 -0.00000000000E+00 -0.45593999997E+02  0.45594000000E+02  0.51100000000E-03 0.  1.
    9900012    2    1    2    0    0  0.62762342275E+01 -0.37141565699E+02 -0.15306178846E+02  0.50528854294E+02  0.29999983112E+02 0.  0.
         12    1    1    2    0    0 -0.62762342275E+01  0.37141565699E+02  0.15306178846E+02  0.40659145706E+02  0.00000000000E+00 0. -1.
         11    1    3    3    0    0  0.15391461536E+01 -0.46949269017E+01  0.33980512829E+01  0.59965041714E+01  0.51100000000E-03 0. -1.
        -11    1    3    3    0    0 -0.83581976399E+01 -0.19234326095E+02 -0.14396219881E+02  0.25437568973E+02  0.51100000000E-03 0.  1.
         12    1    3    3    0    0  0.13095285714E+02 -0.13212312702E+02 -0.43080102480E+01  0.19094781150E+02  0.00000000000E+00 0. -1.
</event>
<event>
 7    1  0.2432574E-011  0.5052886E+02  0.7816164E-02  0.1300439E+00
        -11   -1    0    0    0    0  0.00000000000E+00  0.00000000000E+00  0.45593999997E+02  0.45594000000E+02  0.51100000000E-03 0.  1.
         11   -1    0    0    0    0 -0.00000000000E+00 -0.00000000000E+00 -0.45593999997E+02  0.45594000000E+02  0.51100000000E-03 0. -1.
    9900012    2    1    2    0    0 -0.13666758544E+02  0.35326365449E+02  0.14779482190E+02  0.50528862297E+02  0.30000007438E+02 0.  0.
         12    1    1    2    0    0  0.13666758544E+02 -0.35326365449E+02 -0.14779482190E+02  0.40659137703E+02  0.00000000000E+00 0. -1.
         11    1    3    3    0    0 -0.82956673828E+01  0.18546991424E+02 -0.28115276146E+01  0.20511306053E+02  0.51100000000E-03 0. -1.
        -11    1    3    3    0    0 -0.10651131685E+02  0.89597598174E+01  0.62292618859E+01  0.15248855893E+02  0.51100000000E-03 0.  1.
        -12    1    3    3    0    0  0.52800405232E+01  0.78196142082E+01  0.11361747919E+02  0.14768700351E+02  0.00000000000E+00 0.  1.
</event>
<event>
 7    1  0.2432574E-011  0.5052885E+02  0.7816164E-02  0.1300439E+00
        -11   -1    0    0    0    0  0.00000000000E+00  0.00000000000E+00  0.45593999997E+02  0.45594000000E+02  0.51100000000E-03 0. -1.
         11   -1    0    0    0    0 -0.00000000000E+00 -0.00000000000E+00 -0.45593999997E+02  0.45594000000E+02  0.51100000000E-03 0.  1.
    9900012    2    1    2    0    0 -0.13687906717E+02  0.12249633652E+01 -0.38266261938E+02  0.50528854310E+02  0.29999983161E+02 0.  0.
         12    1    1    2    0    0  0.13687906717E+02 -0.12249633652E+01  0.38266261938E+02  0.40659145690E+02  0.00000000000E+00 0. -1.
         11    1    3    3    0    0  0.72198833536E+01  0.17631145683E+01 -0.96980873386E+01  0.12218354509E+02  0.51100000000E-03 0. -1.
        -11    1    3    3    0    0 -0.10471181922E+02  0.65935492072E+01 -0.10325312890E+02  0.16116222527E+02  0.51100000000E-03 0.  1.
        -12    1    3    3    0    0 -0.10436608149E+02 -0.71317004103E+01 -0.18242861709E+02  0.22194277274E+02  0.00000000000E+00 0.  1.
</event>
<event>
 7    1  0.2432574E-011  0.5052886E+02  0.7816164E-02  0.1300439E+00
        -11   -1    0    0    0    0  0.00000000000E+00  0.00000000000E+00  0.45593999997E+02  0.45594000000E+02  0.51100000000E-03 0. -1.
         11   -1    0    0    0    0 -0.00000000000E+00 -0.00000000000E+00 -0.45593999997E+02  0.45594000000E+02  0.51100000000E-03 0.  1.
    9900012    2    1    2    0    0 -0.83877875778E+01 -0.38769385888E+02 -0.89300440516E+01  0.50528856510E+02  0.29999989847E+02 0.  0.
         12    1    1    2    0    0  0.83877875778E+01  0.38769385888E+02  0.89300440516E+01  0.40659143490E+02  0.00000000000E+00 0. -1.
         11    1    3    3    0    0 -0.37810538049E+01 -0.31958759145E+00 -0.68976408625E+01  0.78724807928E+01  0.51100000000E-03 0. -1.
        -11    1    3    3    0    0 -0.32036167443E+01 -0.16407513273E+01  0.39433505333E+01  0.53390297669E+01  0.51100000000E-03 0.  1.
        -12    1    3    3    0    0 -0.14031170286E+01 -0.36809046970E+02 -0.59757537225E+01  0.37317345950E+02  0.00000000000E+00 0.  1.
</event>
<event>
 7    1  0.2432574E-011  0.5052886E+02  0.7816164E-02  0.1300439E+00
        -11   -1    0    0    0    0  0.00000000000E+00  0.00000000000E+00  0.45593999997E+02  0.45594000000E+02  0.51100000000E-03 0. -1.
         11   -1    0    0    0    0 -0.00000000000E+00 -0.00000000000E+00 -0.45593999997E+02  0.45594000000E+02  0.51100000000E-03 0.  1.
    9900012    2    1    2    0    0  0.36446309451E+01  0.31681952500E+02 -0.25221743500E+02  0.50528858419E+02  0.29999995650E+02 0.  0.
         12    1    1    2    0    0 -0.36446309451E+01 -0.31681952500E+02  0.25221743500E+02  0.40659141581E+02  0.00000000000E+00 0. -1.
         11    1    3    3    0    0  0.51108815174E+00  0.19032998787E+02 -0.22057502499E+02  0.29138456903E+02  0.51100000000E-03 0.  1.
        -11    1    3    3    0    0 -0.21950606063E+00 -0.37341690264E+01 -0.27847433046E+01  0.46633675345E+01  0.51100000000E-03 0. -1.
         12    1    3    3    0    0  0.33530488539E+01  0.16383122740E+02 -0.37949769585E+00  0.16727033982E+02  0.00000000000E+00 0. -1.
</event>
<event>
 7    1  0.2432574E-011  0.5052886E+02  0.7816164E-02  0.1300439E+00
        -11   -1    0    0    0    0  0.00000000000E+00  0.00000000000E+00  0.45593999997E+02  0.45594000000E+02  0.51100000000E-03 0. -1.
         11   -1    0    0    0    0 -0.00000000000E+00 -0.00000000000E+00 -0.45593999997E+02  0.45594000000E+02  0.51100000000E-03 0.  1.
    9900012    2    1    2    0    0  0.25611317475E+02  0.16876747456E+02 -0.26690846365E+02  0.50528862439E+02  0.30000007870E+02 0.  0.
         12    1    1    2    0    0 -0.25611317475E+02 -0.16876747456E+02  0.26690846365E+02  0.40659137561E+02  0.00000000000E+00 0. -1.
         11    1    3    3    0    0 -0.37213608412E+01 -0.17535987849E+01 -0.75846518159E+01  0.86284748732E+01  0.51100000000E-03 0. -1.
        -11    1    3    3    0    0  0.44321160635E+01  0.81478959153E+01 -0.93650278086E+01  0.13180880349E+02  0.51100000000E-03 0.  1.
         12    1    3    3    0    0  0.24900562253E+02  0.10482450326E+02 -0.97411667407E+01  0.28719507217E+02  0.00000000000E+00 0. -1.
</event>
<event>
 7    1  0.2432574E-011  0.5052885E+02  0.7816164E-02  0.1300439E+00
        -11   -1    0    0    0    0  0.00000000000E+00  0.00000000000E+00  0.45593999997E+02  0.45594000000E+02  0.51100000000E-03 0.  1.
         11   -1    0    0    0    0 -0.00000000000E+00 -0.00000000000E+00 -0.45593999997E+02  0.45594000000E+02  0.51100000000E-03 0. -1.
    9900012    2    1    2    0    0 -0.37486377564E+02  0.23954353064E+01  0.15562776268E+02  0.50528848283E+02  0.29999964842E+02 0.  0.
         12    1    1    2    0    0  0.37486377564E+02 -0.23954353064E+01 -0.15562776268E+02  0.40659151717E+02  0.00000000000E+00 0. -1.
         11    1    3    3    0    0 -0.73677036256E+01 -0.44046559776E+01 -0.57132333768E+00  0.86029333144E+01  0.51100000000E-03 0. -1.
        -11    1    3    3    0    0 -0.82500706114E+01 -0.54503106608E+01 -0.30649809082E+01  0.10351988197E+02  0.51100000000E-03 0.  1.
        -12    1    3    3    0    0 -0.21868603327E+02  0.12250401945E+02  0.19199080514E+02  0.31573926773E+02  0.00000000000E+00 0.  1.
</event>
<event>
 7    1  0.2432574E-011  0.5052885E+02  0.7816164E-02  0.1300439E+00
        -11   -1    0    0    0    0  0.00000000000E+00  0.00000000000E+00  0.45593999997E+02  0.45594000000E+02  0.51100000000E-03 0.  1.
         11   -1    0    0    0    0 -0.00000000000E+00 -0.00000000000E+00 -0.45593999997E+02  0.45594000000E+02  0.51100000000E-03 0. -1.
    9900012    2    1    2    0    0  0.36361221272E+02 -0.15950549724E+02  0.87526155632E+01  0.50528846934E+02  0.29999960739E+02 0.  0.
         12    1    1    2    0    0 -0.36361221272E+02  0.15950549724E+02 -0.87526155632E+01  0.40659153066E+02  0.00000000000E+00 0. -1.
         11    1    3    3    0    0  0.30924068957E+02 -0.10237693297E+02  0.75514653084E+01  0.33438496280E+02  0.51100000000E-03 0. -1.
        -11    1    3    3    0    0  0.38239190391E+01 -0.36371958851E+00  0.76485750144E+01  0.85589338570E+01  0.51100000000E-03 0.  1.
        -12    1    3    3    0    0  0.16132332752E+01 -0.53491368389E+01 -0.64474247596E+01  0.85314167963E+01  0.00000000000E+00 0.  1.
</event>
<event>
 7    1  0.2432574E-011  0.5052886E+02  0.7816164E-02  0.1300439E+00
        -11   -1    0    0    0    0  0.00000000000E+00  0.00000000000E+00  0.45593999997E+02  0.45594000000E+02  0.51100000000E-03 0. -1.
         11   -1    0    0    0    0 -0.00000000000E+00 -0.00000000000E+00 -0.45593999997E+02  0.45594000000E+02  0.51100000000E-03 0.  1.
    9900012    2    1    2    0    0  0.18526742475E+02  0.35514347819E+02  0.69754457311E+01  0.50528856736E+02  0.29999990536E+02 0.  0.
         12    1    1    2    0    0 -0.18526742475E+02 -0.35514347819E+02 -0.69754457311E+01  0.40659143264E+02  0.00000000000E+00 0. -1.
         11    1    3    3    0    0  0.74157444965E+01  0.41081032920E+00 -0.11627582531E+01  0.75175819637E+01  0.51100000000E-03 0. -1.
        -11    1    3    3    0    0  0.11091750829E+01  0.89827825224E+01 -0.67824099942E+01  0.11310249193E+02  0.51100000000E-03 0.  1.
         12    1    3    3    0    0  0.10001822896E+02  0.26120754968E+02  0.14920613978E+02  0.31701025580E+02  0.00000000000E+00 0. -1.
</event>
<event>
 7    1  0.2432574E-011  0.5052885E+02  0.7816164E-02  0.1300439E+00
        -11   -1    0    0    0    0  0.00000000000E+00  0.00000000000E+00  0.45593999997E+02  0.45594000000E+02  0.51100000000E-03 0.  1.
         11   -1    0    0    0    0 -0.00000000000E+00 -0.00000000000E+00 -0.45593999997E+02  0.45594000000E+02  0.51100000000E-03 0. -1.
    9900012    2    1    2    0    0 -0.44857461035E+01 -0.32945232549E+02  0.23402056412E+02  0.50528849614E+02  0.29999968886E+02 0.  0.
         12    1    1    2    0    0  0.44857461035E+01  0.32945232549E+02 -0.23402056412E+02  0.40659150386E+02  0.00000000000E+00 0. -1.
         11    1    3    3    0    0  0.40667741081E+00 -0.95788031709E+01 -0.85235942786E+00  0.96252466752E+01  0.51100000000E-03 0. -1.
        -11    1    3    3    0    0 -0.16627216796E+01  0.44723792240E+01  0.22686802620E+01  0.52833445562E+01  0.51100000000E-03 0.  1.
        -12    1    3    3    0    0 -0.32297018346E+01 -0.27838808602E+02  0.21985735578E+02  0.35620258382E+02  0.00000000000E+00 0.  1.
</event>
<event>
 7    1  0.2432574E-011  0.5052886E+02  0.7816164E-02  0.1300439E+00
        -11   -1    0    0    0    0  0.00000000000E+00  0.00000000000E+00  0.45593999997E+02  0.45594000000E+02  0.51100000000E-03 0. -1.
         11   -1    0    0    0    0 -0.00000000000E+00 -0.00000000000E+00 -0.45593999997E+02  0.45594000000E+02  0.51100000000E-03 0.  1.
    9900012    2    1    2    0    0  0.27009865893E+02 -0.29405717816E+02 -0.76769981328E+01  0.50528863313E+02  0.30000010526E+02 0.  0.
         12    1    1    2    0    0 -0.27009865893E+02  0.29405717816E+02  0.76769981328E+01  0.40659136687E+02  0.00000000000E+00 0. -1.
         11    1    3    3    0    0  0.97406960970E+01 -0.77365525406E+01  0.71556804680E+01  0.14350580786E+02  0.51100000000E-03 0. -1.
        -11    1    3    3    0    0  0.19289857017E+02 -0.13596045203E+02 -0.14798932222E+02  0.27856048250E+02  0.51100000000E-03 0.  1.
         12    1    3    3    0    0 -0.20206872216E+01 -0.80731200725E+01 -0.33746378540E-01  0.83222342775E+01  0.00000000000E+00 0. -1.
</event>
<event>
 7    1  0.2432574E-011  0.5052887E+02  0.7816164E-02  0.1300439E+00
        -11   -1    0    0    0    0  0.00000000000E+00  0.00000000000E+00  0.45593999997E+02  0.45594000000E+02  0.51100000000E-03 0.  1.
         11   -1    0    0    0    0 -0.00000000000E+00 -0.00000000000E+00 -0.45593999997E+02  0.45594000000E+02  0.51100000000E-03 0. -1.
    9900012    2    1    2    0    0 -0.23960330690E+01 -0.28224053022E+02  0.29168932909E+02  0.50528870760E+02  0.30000033163E+02 0.  0.
         12    1    1    2    0    0  0.23960330690E+01  0.28224053022E+02 -0.29168932909E+02  0.40659129240E+02  0.00000000000E+00 0. -1.
         11    1    3    3    0    0  0.68457925054E+01 -0.46925329078E+01  0.18165045015E+01  0.84961420058E+01  0.51100000000E-03 0. -1.
        -11    1    3    3    0    0 -0.16877284330E+01 -0.36149009766E+01  0.18567433399E+02  0.18991195845E+02  0.51100000000E-03 0.  1.
         12    1    3    3    0    0 -0.75540971415E+01 -0.19916619138E+02  0.87849950086E+01  0.23041532909E+02  0.00000000000E+00 0. -1.
</event>
<event>
 7    1  0.2432574E-011  0.5052887E+02  0.7816164E-02  0.1300439E+00
        -11   -1    0    0    0    0  0.00000000000E+00  0.00000000000E+00  0.45593999997E+02  0.45594000000E+02  0.51100000000E-03 0.  1.
         11   -1    0    0    0    0 -0.00000000000E+00 -0.00000000000E+00 -0.45593999997E+02  0.45594000000E+02  0.51100000000E-03 0. -1.
    9900012    2    1    2    0    0 -0.17928093479E+02 -0.29258350476E+02  0.21810482754E+02  0.50528871058E+02  0.30000034067E+02 0.  0.
         12    1    1    2    0    0  0.17928093479E+02  0.29258350476E+02 -0.21810482754E+02  0.40659128942E+02  0.00000000000E+00 0. -1.
         11    1    3    3    0    0  0.39134697027E+00  0.13141017414E+01 -0.12703550538E+00  0.13770091208E+01  0.51100000000E-03 0. -1.
        -11    1    3    3    0    0 -0.16396005012E+02 -0.17727327571E+02  0.57892563750E+00  0.24154135843E+02  0.51100000000E-03 0.  1.
         12    1    3    3    0    0 -0.19234354371E+01 -0.12845124646E+02  0.21358592622E+02  0.24997726094E+02  0.00000000000E+00 0. -1.
</event>
<event>
 7    1  0.2432574E-011  0.5052886E+02  0.7816164E-02  0.1300439E+00
        -11   -1    0    0    0    0  0.00000000000E+00  0.00000000000E+00  0.45593999997E+02  0.45594000000E+02  0.51100000000E-03 0. -1.
         11   -1    0    0    0    0 -0.00000000000E+00 -0.00000000000E+00 -0.45593999997E+02  0.45594000000E+02  0.51100000000E-03 0.  1.
    9900012    2    1    2    0    0 -0.33243321407E+02  0.11138735869E+02 -0.20590678054E+02  0.50528857391E+02  0.29999992526E+02 0.  0.
         12    1    1    2    0    0  0.33243321407E+02 -0.11138735869E+02  0.20590678054E+02  0.40659142609E+02  0.00000000000E+00 0. -1.
         11    1    3    3    0    0  0.70302470477E+00  0.59111696441E+01  0.40216981242E+01  0.71840257766E+01  0.51100000000E-03 0. -1.
        -11    1    3    3    0    0 -0.12313814031E+02 -0.10292487067E+01 -0.13263339073E+02  0.18127480038E+02  0.51100000000E-03 0.  1.
        -12    1    3    3    0    0 -0.21632532081E+02  0.62568149314E+01 -0.11349037105E+02  0.25217351577E+02  0.00000000000E+00 0.  1.
</event>
<event>
 7    1  0.2432574E-011  0.5052886E+02  0.7816164E-02  0.1300439E+00
        -11   -1    0    0    0    0  0.00000000000E+00  0.00000000000E+00  0.45593999997E+02  0.45594000000E+02  0.51100000000E-03 0. -1.
         11   -1    0    0    0    0 -0.00000000000E+00 -0.00000000000E+00 -0.45593999997E+02  0.45594000000E+02  0.51100000000E-03 0.  1.
    9900012    2    1    2    0    0 -0.98836659483E+01 -0.37352800280E+02 -0.12658864300E+02  0.50528863429E+02  0.30000010878E+02 0.  0.
         12    1    1    2    0    0  0.98836659483E+01  0.37352800280E+02  0.12658864300E+02  0.40659136571E+02  0.00000000000E+00 0. -1.
         11    1    3    3    0    0  0.19340431337E+01 -0.30041676049E+01 -0.50705930523E+01  0.62029396260E+01  0.51100000000E-03 0. -1.
        -11    1    3    3    0    0  0.55274045472E+01 -0.10636398614E+02  0.41554731879E+01  0.12686730634E+02  0.51100000000E-03 0.  1.
        -12    1    3    3    0    0 -0.17345113629E+02 -0.23712234062E+02 -0.11743744435E+02  0.31639193169E+02  0.00000000000E+00 0.  1.
</event>
<event>
 7    1  0.2432574E-011  0.5052886E+02  0.7816164E-02  0.1300439E+00
        -11   -1    0    0    0    0  0.00000000000E+00  0.00000000000E+00  0.45593999997E+02  0.45594000000E+02  0.51100000000E-03 0.  1.
         11   -1    0    0    0    0 -0.00000000000E+00 -0.00000000000E+00 -0.45593999997E+02  0.45594000000E+02  0.51100000000E-03 0. -1.
    9900012    2    1    2    0    0 -0.31716636382E+02 -0.25104339729E+02 -0.41222415558E+01  0.50528858690E+02  0.29999996473E+02 0.  0.
         12    1    1    2    0    0  0.31716636382E+02  0.25104339729E+02  0.41222415558E+01  0.40659141310E+02  0.00000000000E+00 0. -1.
         11    1    3    3    0    0 -0.31860053409E+01  0.40529443606E+01  0.80943659869E+00  0.52184457352E+01  0.51100000000E-03 0. -1.
        -11    1    3    3    0    0 -0.11183724031E+02 -0.10110738228E+02  0.73474253968E+01  0.16771623980E+02  0.51100000000E-03 0.  1.
         12    1    3    3    0    0 -0.17346907010E+02 -0.19046545862E+02 -0.12279103551E+02  0.28538788974E+02  0.00000000000E+00 0. -1.
</event>
<event>
 7    1  0.2432574E-011  0.5052886E+02  0.7816164E-02  0.1300439E+00
        -11   -1    0    0    0    0  0.00000000000E+00  0.00000000000E+00  0.45593999997E+02  0.45594000000E+02  0.51100000000E-03 0. -1.
         11   -1    0    0    0    0 -0.00000000000E+00 -0.00000000000E+00 -0.45593999997E+02  0.45594000000E+02  0.51100000000E-03 0.  1.
    9900012    2    1    2    0    0  0.22658915924E+02 -0.50353736071E+00 -0.33756264454E+02  0.50528863135E+02  0.30000009984E+02 0.  0.
         12    1    1    2    0    0 -0.22658915924E+02  0.50353736071E+00  0.33756264454E+02  0.40659136865E+02  0.00000000000E+00 0. -1.
         11    1    3    3    0    0  0.94445523794E+01 -0.57229563401E+01 -0.88369197035E+01  0.14143654020E+02  0.51100000000E-03 0. -1.
        -11    1    3    3    0    0 -0.25779198017E+01 -0.56148460537E+01 -0.19490752569E+01  0.64785076468E+01  0.51100000000E-03 0.  1.
        -12    1    3    3    0    0  0.15792283346E+02  0.10834265033E+02 -0.22970269494E+02  0.29906701468E+02  0.00000000000E+00 0.  1.
</event>
<event>
 7    1  0.2432574E-011  0.5052885E+02  0.7816164E-02  0.1300439E+00
        -11   -1    0    0    0    0  0.00000000000E+00  0.00000000000E+00  0.45593999997E+02  0.45594000000E+02  0.51100000000E-03 0.  1.
         11   -1    0    0    0    0 -0.00000000000E+00 -0.00000000000E+00 -0.45593999997E+02  0.45594000000E+02  0.51100000000E-03 0. -1.
    9900012    2    1    2    0    0 -0.85495907915E+01 -0.33774798538E+02  0.20960288279E+02  0.50528853382E+02  0.29999980339E+02 0.  0.
         12    1    1    2    0    0  0.85495907915E+01  0.33774798538E+02 -0.20960288279E+02  0.40659146618E+02  0.00000000000E+00 0. -1.
         11    1    3    3    0    0 -0.19704494928E+01  0.26521157185E+01 -0.89965781361E+00  0.34242916684E+01  0.51100000000E-03 0. -1.
        -11    1    3    3    0    0 -0.11971894226E+02 -0.25207559536E+02  0.92845519612E+01  0.29410035948E+02  0.51100000000E-03 0.  1.
        -12    1    3    3    0    0  0.53927529275E+01 -0.11219354721E+02  0.12575394131E+02  0.17694525765E+02  0.00000000000E+00 0.  1.
</event>
<event>
 7    1  0.2432574E-011  0.5052887E+02  0.7816164E-02  0.1300439E+00
        -11   -1    0    0    0    0  0.00000000000E+00  0.00000000000E+00  0.45593999997E+02  0.45594000000E+02  0.51100000000E-03 0. -1.
         11   -1    0    0    0    0 -0.00000000000E+00 -0.00000000000E+00 -0.45593999997E+02  0.45594000000E+02  0.51100000000E-03 0.  1.
    9900012    2    1    2    0    0  0.10557354565E+01  0.30149629203E+02 -0.27258945472E+02  0.50528870316E+02  0.30000031811E+02 0.  0.
         12    1    1    2    0    0 -0.10557354565E+01 -0.30149629203E+02  0.27258945472E+02  0.40659129684E+02  0.00000000000E+00 0. -1.
         11    1    3    3    0    0 -0.21147785634E+01  0.21648981884E+02 -0.16331516344E+02  0.27200535497E+02  0.51100000000E-03 0. -1.
        -11    1    3    3    0    0 -0.70858419812E+01  0.40638172753E+01 -0.73170047550E+00  0.82011677996E+01  0.51100000000E-03 0.  1.
        -12    1    3    3    0    0  0.10256356001E+02  0.44368300440E+01 -0.10195728653E+02  0.15127167019E+02  0.00000000000E+00 0.  1.
</event>
<event>
 7    1  0.2432574E-011  0.5052886E+02  0.7816164E-02  0.1300439E+00
        -11   -1    0    0    0    0  0.00000000000E+00  0.00000000000E+00  0.45593999997E+02  0.45594000000E+02  0.51100000000E-03 0. -1.
         11   -1    0    0    0    0 -0.00000000000E+00 -0.00000000000E+00 -0.45593999997E+02  0.45594000000E+02  0.51100000000E-03 0.  1.
    9900012    2    1    2    0    0 -0.21889889880E+02  0.13951455033E+02 -0.31294657971E+02  0.50528855960E+02  0.29999988177E+02 0.  0.
         12    1    1    2    0    0  0.21889889880E+02 -0.13951455033E+02  0.31294657971E+02  0.40659144040E+02  0.00000000000E+00 0. -1.
         11    1    3    3    0    0  0.89031237320E+00  0.40364748043E+01 -0.17526977380E+02  0.18007796126E+02  0.51100000000E-03 0. -1.
        -11    1    3    3    0    0 -0.30694254851E+01 -0.41793094205E+01 -0.17462808368E+01  0.54715168887E+01  0.51100000000E-03 0.  1.
        -12    1    3    3    0    0 -0.19710776768E+02  0.14094289650E+02 -0.12021399754E+02  0.27049542946E+02  0.00000000000E+00 0.  1.
</event>
<event>
 7    1  0.2432574E-011  0.5052888E+02  0.7816164E-02  0.1300439E+00
        -11   -1    0    0    0    0  0.00000000000E+00  0.00000000000E+00  0.45593999997E+02  0.45594000000E+02  0.51100000000E-03 0.  1.
         11   -1    0    0    0    0 -0.00000000000E+00 -0.00000000000E+00 -0.45593999997E+02  0.45594000000E+02  0.51100000000E-03 0. -1.
    9900012    2    1    2    0    0 -0.35724179991E+02  0.19373749530E+02 -0.12668796342E+01  0.50528878134E+02  0.30000055577E+02 0.  0.
         12    1    1    2    0    0  0.35724179991E+02 -0.19373749530E+02  0.12668796342E+01  0.40659121866E+02  0.00000000000E+00 0. -1.
         11    1    3    3    0    0  0.24850167409E+00  0.63196578195E+01  0.55748647898E+01  0.84308330385E+01  0.51100000000E-03 0.  1.
        -11    1    3    3    0    0 -0.73153603396E+01  0.10244480362E+02 -0.37660739222E+01  0.13139527687E+02  0.51100000000E-03 0. -1.
         12    1    3    3    0    0 -0.28657321325E+02  0.28096113489E+01 -0.30756705019E+01  0.28958517409E+02  0.00000000000E+00 0. -1.
</event>
<event>
 7    1  0.2432574E-011  0.5052886E+02  0.7816164E-02  0.1300439E+00
        -11   -1    0    0    0    0  0.00000000000E+00  0.00000000000E+00  0.45593999997E+02  0.45594000000E+02  0.51100000000E-03 0.  1.
         11   -1    0    0    0    0 -0.00000000000E+00 -0.00000000000E+00 -0.45593999997E+02  0.45594000000E+02  0.51100000000E-03 0. -1.
    9900012    2    1    2    0    0  0.27215364055E+02  0.30108232300E+02 -0.24462834235E+01  0.50528855943E+02  0.29999988125E+02 0.  0.
         12    1    1    2    0    0 -0.27215364055E+02 -0.30108232300E+02  0.24462834235E+01  0.40659144057E+02  0.00000000000E+00 0. -1.
         11    1    3    3    0    0 -0.37863702651E+01  0.41669046783E+01 -0.57118764513E+00  0.56591474596E+01  0.51100000000E-03 0. -1.
        -11    1    3    3    0    0  0.11467821815E+02  0.14983849145E+02 -0.96092553837E+01  0.21174618336E+02  0.51100000000E-03 0.  1.
        -12    1    3    3    0    0  0.19533912505E+02  0.10957478476E+02  0.77341596053E+01  0.23695090147E+02  0.00000000000E+00 0.  1.
</event>
<event>
 7    1  0.2432574E-011  0.5052886E+02  0.7816164E-02  0.1300439E+00
        -11   -1    0    0    0    0  0.00000000000E+00  0.00000000000E+00  0.45593999997E+02  0.45594000000E+02  0.51100000000E-03 0.  1.
         11   -1    0    0    0    0 -0.00000000000E+00 -0.00000000000E+00 -0.45593999997E+02  0.45594000000E+02  0.51100000000E-03 0. -1.
    9900012    2    1    2    0    0  0.80654716033E+01  0.37350726190E+02  0.13893774842E+02  0.50528861317E+02  0.30000004459E+02 0.  0.
         12    1    1    2    0    0 -0.80654716033E+01 -0.37350726190E+02 -0.13893774842E+02  0.40659138683E+02  0.00000000000E+00 0. -1.
         11    1    3    3    0    0  0.48293037820E+01  0.10432160277E+02  0.20138151868E+01  0.11670800955E+02  0.51100000000E-03 0. -1.
        -11    1    3    3    0    0 -0.36006291576E+01  0.28533786546E+02  0.13307291674E+02  0.31689517461E+02  0.51100000000E-03 0.  1.
         12    1    3    3    0    0  0.68367969788E+01 -0.16152206330E+01 -0.14273320190E+01  0.71685429004E+01  0.00000000000E+00 0. -1.
</event>
<event>
 7    1  0.2432574E-011  0.5052887E+02  0.7816164E-02  0.1300439E+00
        -11   -1    0    0    0    0  0.00000000000E+00  0.00000000000E+00  0.45593999997E+02  0.45594000000E+02  0.51100000000E-03 0.  1.
         11   -1    0    0    0    0 -0.00000000000E+00 -0.00000000000E+00 -0.45593999997E+02  0.45594000000E+02  0.51100000000E-03 0. -1.
    9900012    2    1    2    0    0  0.17535918291E+02 -0.27996999960E+02  0.23702829442E+02  0.50528873587E+02  0.30000041755E+02 0.  0.
         12    1    1    2    0    0 -0.17535918291E+02  0.27996999960E+02 -0.23702829442E+02  0.40659126413E+02  0.00000000000E+00 0. -1.
         11    1    3    3    0    0  0.14819872638E+02 -0.10955337956E+01  0.76352831965E+01  0.16707075419E+02  0.51100000000E-03 0. -1.
        -11    1    3    3    0    0  0.74401913964E+01 -0.12187482196E+02  0.84589689167E+01  0.16596545595E+02  0.51100000000E-03 0.  1.
         12    1    3    3    0    0 -0.47241457429E+01 -0.14713983968E+02  0.76085773291E+01  0.17225252573E+02  0.00000000000E+00 0. -1.
</event>
<event>
 7    1  0.2432574E-011  0.5052880E+02  0.7816164E-02  0.1300439E+00
        -11   -1    0    0    0    0  0.00000000000E+00  0.00000000000E+00  0.45593999997E+02  0.45594000000E+02  0.51100000000E-03 0.  1.
         11   -1    0    0    0    0 -0.00000000000E+00 -0.00000000000E+00 -0.45593999997E+02  0.45594000000E+02  0.51100000000E-03 0. -1.
    9900012    2    1    2    0    0 -0.97982976506E+00 -0.29152384018E+02  0.28325766627E+02  0.50528799131E+02  0.29999815437E+02 0.  0.
         12    1    1    2    0    0  0.97982976506E+00  0.29152384018E+02 -0.28325766627E+02  0.40659200869E+02  0.00000000000E+00 0. -1.
         11    1    3    3    0    0 -0.38999554015E+00 -0.11551055067E+01  0.98743835469E+01  0.99493625899E+01  0.51100000000E-03 0. -1.
        -11    1    3    3    0    0 -0.11237562374E+02 -0.11546348332E+02  0.11466125144E+02  0.19775565580E+02  0.51100000000E-03 0.  1.
         12    1    3    3    0    0  0.10647728149E+02 -0.16450930180E+02  0.69852579357E+01  0.20803870961E+02  0.00000000000E+00 0. -1.
</event>
<event>
 7    1  0.2432574E-011  0.5052886E+02  0.7816164E-02  0.1300439E+00
        -11   -1    0    0    0    0  0.00000000000E+00  0.00000000000E+00  0.45593999997E+02  0.45594000000E+02  0.51100000000E-03 0.  1.
         11   -1    0    0    0    0 -0.00000000000E+00 -0.00000000000E+00 -0.45593999997E+02  0.45594000000E+02  0.51100000000E-03 0. -1.
    9900012    2    1    2    0    0 -0.13270829586E+02 -0.18306329008E+02  0.33792437008E+02  0.50528863283E+02  0.30000010436E+02 0.  0.
         12    1    1    2    0    0  0.13270829586E+02  0.18306329008E+02 -0.33792437008E+02  0.40659136717E+02  0.00000000000E+00 0. -1.
         11    1    3    3    0    0  0.61989223120E+01 -0.78338482411E+01  0.15585065378E+02  0.18511890211E+02  0.51100000000E-03 0. -1.
        -11    1    3    3    0    0 -0.20948581365E+01 -0.82369321023E+01  0.36913105629E+01  0.92661348470E+01  0.51100000000E-03 0.  1.
        -12    1    3    3    0    0 -0.17374893761E+02 -0.22355486646E+01  0.14516061067E+02  0.22750838225E+02  0.00000000000E+00 0.  1.
</event>
<event>
 7    1  0.2432574E-011  0.5052886E+02  0.7816164E-02  0.1300439E+00
        -11   -1    0    0    0    0  0.00000000000E+00  0.00000000000E+00  0.45593999997E+02  0.45594000000E+02  0.51100000000E-03 0.  1.
         11   -1    0    0    0    0 -0.00000000000E+00 -0.00000000000E+00 -0.45593999997E+02  0.45594000000E+02  0.51100000000E-03 0. -1.
    9900012    2    1    2    0    0 -0.11425763780E+02 -0.32866972376E+02  0.21032832751E+02  0.50528855830E+02  0.29999987781E+02 0.  0.
         12    1    1    2    0    0  0.11425763780E+02  0.32866972376E+02 -0.21032832751E+02  0.40659144170E+02  0.00000000000E+00 0. -1.
         11    1    3    3    0    0 -0.69600666664E+01  0.47092340378E+00  0.13710172030E+02  0.15382883806E+02  0.51100000000E-03 0. -1.
        -11    1    3    3    0    0  0.11428192723E+01 -0.14310412277E+02  0.48627297844E+01  0.15157179046E+02  0.51100000000E-03 0.  1.
        -12    1    3    3    0    0 -0.56085163860E+01 -0.19027483503E+02  0.24599309369E+01  0.19988792978E+02  0.00000000000E+00 0.  1.
</event>
<event>
 7    1  0.2432574E-011  0.5052885E+02  0.7816164E-02  0.1300439E+00
        -11   -1    0    0    0    0  0.00000000000E+00  0.00000000000E+00  0.45593999997E+02  0.45594000000E+02  0.51100000000E-03 0.  1.
         11   -1    0    0    0    0 -0.00000000000E+00 -0.00000000000E+00 -0.45593999997E+02  0.45594000000E+02  0.51100000000E-03 0. -1.
    9900012    2    1    2    0    0  0.37389960193E+00 -0.64033067484E+01  0.40150020879E+02  0.50528852015E+02  0.29999976186E+02 0.  0.
         12    1    1    2    0    0 -0.37389960193E+00  0.64033067484E+01 -0.40150020879E+02  0.40659147985E+02  0.00000000000E+00 0. -1.
         11    1    3    3    0    0  0.23391683148E+01 -0.98781670897E+01  0.15711592969E+02  0.18705722316E+02  0.51100000000E-03 0.  1.
        -11    1    3    3    0    0  0.89193367431E+01 -0.10631689941E-01  0.97949360855E+01  0.13247469726E+02  0.51100000000E-03 0. -1.
         12    1    3    3    0    0 -0.10884605456E+02  0.34854920312E+01  0.14643491824E+02  0.18575659973E+02  0.00000000000E+00 0. -1.
</event>
<event>
 7    1  0.2432574E-011  0.5052886E+02  0.7816164E-02  0.1300439E+00
        -11   -1    0    0    0    0  0.00000000000E+00  0.00000000000E+00  0.45593999997E+02  0.45594000000E+02  0.51100000000E-03 0. -1.
         11   -1    0    0    0    0 -0.00000000000E+00 -0.00000000000E+00 -0.45593999997E+02  0.45594000000E+02  0.51100000000E-03 0.  1.
    9900012    2    1    2    0    0  0.38966209321E+02  0.54952701343E+01  0.10227506305E+02  0.50528863906E+02  0.30000012330E+02 0.  0.
         12    1    1    2    0    0 -0.38966209321E+02 -0.54952701343E+01 -0.10227506305E+02  0.40659136094E+02  0.00000000000E+00 0. -1.
         11    1    3    3    0    0 -0.11409088876E+01  0.49245786244E+01  0.28049374962E+01  0.57810744968E+01  0.51100000000E-03 0. -1.
        -11    1    3    3    0    0  0.88882064201E+01  0.45659283507E+01 -0.46716915656E+01  0.11030531148E+02  0.51100000000E-03 0.  1.
         12    1    3    3    0    0  0.31218911788E+02 -0.39952368409E+01  0.12094260374E+02  0.33717258261E+02  0.00000000000E+00 0. -1.
</event>
<event>
 7    1  0.2432574E-011  0.5052879E+02  0.7816164E-02  0.1300439E+00
        -11   -1    0    0    0    0  0.00000000000E+00  0.00000000000E+00  0.45593999997E+02  0.45594000000E+02  0.51100000000E-03 0.  1.
         11   -1    0    0    0    0 -0.00000000000E+00 -0.00000000000E+00 -0.45593999997E+02  0.45594000000E+02  0.51100000000E-03 0. -1.
    9900012    2    1    2    0    0 -0.39657870859E+02 -0.99366090657E+00  0.89127569638E+01  0.50528790468E+02  0.29999789105E+02 0.  0.
         12    1    1    2    0    0  0.39657870859E+02  0.99366090657E+00 -0.89127569638E+01  0.40659209532E+02  0.00000000000E+00 0. -1.
         11    1    3    3    0    0 -0.17233058291E+00  0.42598223599E+01  0.31043887731E+01  0.52738045359E+01  0.51100000000E-03 0. -1.
        -11    1    3    3    0    0 -0.23146430343E+02  0.73046702252E+01  0.29644825926E+01  0.24452067438E+02  0.51100000000E-03 0.  1.
         12    1    3    3    0    0 -0.16339109934E+02 -0.12558153492E+02  0.28438855982E+01  0.20802918493E+02  0.00000000000E+00 0. -1.
</event>
<event>
 7    1  0.2432574E-011  0.5052883E+02  0.7816164E-02  0.1300439E+00
        -11   -1    0    0    0    0  0.00000000000E+00  0.00000000000E+00  0.45593999997E+02  0.45594000000E+02  0.51100000000E-03 0. -1.
         11   -1    0    0    0    0 -0.00000000000E+00 -0.00000000000E+00 -0.45593999997E+02  0.45594000000E+02  0.51100000000E-03 0.  1.
    9900012    2    1    2    0    0  0.18933468907E+02 -0.21993888132E+02 -0.28477369780E+02  0.50528831913E+02  0.29999915082E+02 0.  0.
         12    1    1    2    0    0 -0.18933468907E+02  0.21993888132E+02  0.28477369780E+02  0.40659168087E+02  0.00000000000E+00 0. -1.
         11    1    3    3    0    0 -0.11279757534E+01 -0.45322089141E+00 -0.10172388609E+02  0.10244765920E+02  0.51100000000E-03 0. -1.
        -11    1    3    3    0    0  0.17163980145E+02 -0.23290158307E+02 -0.21169913517E+02  0.35849671225E+02  0.51100000000E-03 0.  1.
         12    1    3    3    0    0  0.28974645152E+01  0.17494910667E+01  0.28649323461E+01  0.44343947678E+01  0.00000000000E+00 0. -1.
</event>
<event>
 7    1  0.2432574E-011  0.5052886E+02  0.7816164E-02  0.1300439E+00
        -11   -1    0    0    0    0  0.00000000000E+00  0.00000000000E+00  0.45593999997E+02  0.45594000000E+02  0.51100000000E-03 0.  1.
         11   -1    0    0    0    0 -0.00000000000E+00 -0.00000000000E+00 -0.45593999997E+02  0.45594000000E+02  0.51100000000E-03 0. -1.
    9900012    2    1    2    0    0 -0.31436935477E+02 -0.22955077042E+02  0.11745186142E+02  0.50528857465E+02  0.29999992750E+02 0.  0.
         12    1    1    2    0    0  0.31436935477E+02  0.22955077042E+02 -0.11745186142E+02  0.40659142535E+02  0.00000000000E+00 0. -1.
         11    1    3    3    0    0 -0.72055506084E+01 -0.82774051466E+01 -0.53396859637E+01  0.12204410759E+02  0.51100000000E-03 0. -1.
        -11    1    3    3    0    0 -0.30190937443E+01 -0.12559462734E+02  0.52642796112E+01  0.13948751603E+02  0.51100000000E-03 0.  1.
        -12    1    3    3    0    0 -0.21212291124E+02 -0.21182091615E+01  0.11820592495E+02  0.24375695102E+02  0.00000000000E+00 0.  1.
</event>
<event>
 7    1  0.2432574E-011  0.5052885E+02  0.7816164E-02  0.1300439E+00
        -11   -1    0    0    0    0  0.00000000000E+00  0.00000000000E+00  0.45593999997E+02  0.45594000000E+02  0.51100000000E-03 0.  1.
         11   -1    0    0    0    0 -0.00000000000E+00 -0.00000000000E+00 -0.45593999997E+02  0.45594000000E+02  0.51100000000E-03 0. -1.
    9900012    2    1    2    0    0 -0.21304310281E+02  0.24093296307E+02  0.24875816200E+02  0.50528846110E+02  0.29999958235E+02 0.  0.
         12    1    1    2    0    0  0.21304310281E+02 -0.24093296307E+02 -0.24875816200E+02  0.40659153890E+02  0.00000000000E+00 0. -1.
         11    1    3    3    0    0  0.16743254374E-01 -0.64897448745E+00 -0.11301672437E+01  0.13033520176E+01  0.51100000000E-03 0. -1.
        -11    1    3    3    0    0 -0.24122287526E+02  0.14629618791E+02  0.96962067480E+01  0.29831643049E+02  0.51100000000E-03 0.  1.
         12    1    3    3    0    0  0.28012339910E+01  0.10112652003E+02  0.16309776696E+02  0.19393851043E+02  0.00000000000E+00 0. -1.
</event>
<event>
 7    1  0.2432574E-011  0.5052886E+02  0.7816164E-02  0.1300439E+00
        -11   -1    0    0    0    0  0.00000000000E+00  0.00000000000E+00  0.45593999997E+02  0.45594000000E+02  0.51100000000E-03 0.  1.
         11   -1    0    0    0    0 -0.00000000000E+00 -0.00000000000E+00 -0.45593999997E+02  0.45594000000E+02  0.51100000000E-03 0. -1.
    9900012    2    1    2    0    0 -0.39586621673E+02 -0.10371157950E+00  0.92765415753E+01  0.50528860865E+02  0.30000003087E+02 0.  0.
         12    1    1    2    0    0  0.39586621673E+02  0.10371157950E+00 -0.92765415753E+01  0.40659139135E+02  0.00000000000E+00 0. -1.
         11    1    3    3    0    0 -0.93120341440E+01  0.52600176521E+01 -0.61644142042E+01  0.12344301047E+02  0.51100000000E-03 0. -1.
        -11    1    3    3    0    0 -0.15636955478E+02  0.51349027619E+01  0.43242635034E+01  0.17017075486E+02  0.51100000000E-03 0.  1.
        -12    1    3    3    0    0 -0.14637632051E+02 -0.10498631994E+02  0.11116692276E+02  0.21167484332E+02  0.00000000000E+00 0.  1.
</event>
<event>
 7    1  0.2432574E-011  0.5052886E+02  0.7816164E-02  0.1300439E+00
        -11   -1    0    0    0    0  0.00000000000E+00  0.00000000000E+00  0.45593999997E+02  0.45594000000E+02  0.51100000000E-03 0.  1.
         11   -1    0    0    0    0 -0.00000000000E+00 -0.00000000000E+00 -0.45593999997E+02  0.45594000000E+02  0.51100000000E-03 0. -1.
    9900012    2    1    2    0    0 -0.96961739688E+00  0.22644149377E+02  0.33756005271E+02  0.50528861412E+02  0.30000004748E+02 0.  0.
         12    1    1    2    0    0  0.96961739688E+00 -0.22644149377E+02 -0.33756005271E+02  0.40659138588E+02  0.00000000000E+00 0. -1.
         11    1    3    3    0    0  0.17807768798E+01  0.96708711074E+01  0.29381587407E+02  0.30983456765E+02  0.51100000000E-03 0. -1.
        -11    1    3    3    0    0 -0.35467795253E+01 -0.52178290334E+00  0.48349496006E+01  0.60190232016E+01  0.51100000000E-03 0.  1.
         12    1    3    3    0    0  0.79638524865E+00  0.13495061173E+02 -0.46053173739E+00  0.13526381445E+02  0.00000000000E+00 0. -1.
</event>
<event>
 7    1  0.2432574E-011  0.5052885E+02  0.7816164E-02  0.1300439E+00
        -11   -1    0    0    0    0  0.00000000000E+00  0.00000000000E+00  0.45593999997E+02  0.45594000000E+02  0.51100000000E-03 0. -1.
         11   -1    0    0    0    0 -0.00000000000E+00 -0.00000000000E+00 -0.45593999997E+02  0.45594000000E+02  0.51100000000E-03 0.  1.
    9900012    2    1    2    0    0 -0.33984288181E+02  0.22300719938E+02 -0.95506827161E+00  0.50528854555E+02  0.29999983906E+02 0.  0.
         12    1    1    2    0    0  0.33984288181E+02 -0.22300719938E+02  0.95506827161E+00  0.40659145445E+02  0.00000000000E+00 0. -1.
         11    1    3    3    0    0 -0.48557296960E+00  0.41899010956E+01 -0.24394267663E+01  0.48725614936E+01  0.51100000000E-03 0. -1.
        -11    1    3    3    0    0 -0.32405798673E+02  0.23553753530E+02  0.87012540249E+00  0.40070839914E+02  0.51100000000E-03 0.  1.
         12    1    3    3    0    0 -0.10929165385E+01 -0.54429346873E+01  0.61423309223E+00  0.55854531474E+01  0.00000000000E+00 0. -1.
</event>
<event>
 7    1  0.2432574E-011  0.5052886E+02  0.7816164E-02  0.1300439E+00
        -11   -1    0    0    0    0  0.00000000000E+00  0.00000000000E+00  0.45593999997E+02  0.45594000000E+02  0.51100000000E-03 0.  1.
         11   -1    0    0    0    0 -0.00000000000E+00 -0.00000000000E+00 -0.45593999997E+02  0.45594000000E+02  0.51100000000E-03 0. -1.
    9900012    2    1    2    0    0 -0.16712061538E+02  0.35850499075E+02  0.94135302949E+01  0.50528857887E+02  0.29999994034E+02 0.  0.
         12    1    1    2    0    0  0.16712061538E+02 -0.35850499075E+02 -0.94135302949E+01  0.40659142113E+02  0.00000000000E+00 0. -1.
         11    1    3    3    0    0 -0.21528130377E+01  0.79578234631E+01  0.14747806923E+02  0.16895542831E+02  0.51100000000E-03 0. -1.
        -11    1    3    3    0    0 -0.26880138706E+01  0.11083566605E+02  0.23906233989E+01  0.11652722761E+02  0.51100000000E-03 0.  1.
         12    1    3    3    0    0 -0.11871234630E+02  0.16809109007E+02 -0.77249000269E+01  0.21980592296E+02  0.00000000000E+00 0. -1.
</event>
<event>
 7    1  0.2432574E-011  0.5052886E+02  0.7816164E-02  0.1300439E+00
        -11   -1    0    0    0    0  0.00000000000E+00  0.00000000000E+00  0.45593999997E+02  0.45594000000E+02  0.51100000000E-03 0.  1.
         11   -1    0    0    0    0 -0.00000000000E+00 -0.00000000000E+00 -0.45593999997E+02  0.45594000000E+02  0.51100000000E-03 0. -1.
    9900012    2    1    2    0    0  0.29454663721E+02  0.32087409835E+01  0.27844076554E+02  0.50528857944E+02  0.29999994206E+02 0.  0.
         12    1    1    2    0    0 -0.29454663721E+02 -0.32087409835E+01 -0.27844076554E+02  0.40659142056E+02  0.00000000000E+00 0. -1.
         11    1    3    3    0    0  0.17119228738E+02 -0.26678550994E+01 -0.39710059785E+00  0.17330410628E+02  0.51100000000E-03 0. -1.
        -11    1    3    3    0    0  0.89427599247E+01  0.18921223484E+01  0.75496162669E+01  0.11855369589E+02  0.51100000000E-03 0.  1.
        -12    1    3    3    0    0  0.33926750586E+01  0.39844737345E+01  0.20691560885E+02  0.21343077726E+02  0.00000000000E+00 0.  1.
</event>
<event>
 7    1  0.2432574E-011  0.5052886E+02  0.7816164E-02  0.1300439E+00
        -11   -1    0    0    0    0  0.00000000000E+00  0.00000000000E+00  0.45593999997E+02  0.45594000000E+02  0.51100000000E-03 0.  1.
         11   -1    0    0    0    0 -0.00000000000E+00 -0.00000000000E+00 -0.45593999997E+02  0.45594000000E+02  0.51100000000E-03 0. -1.
    9900012    2    1    2    0    0 -0.21393223021E+02 -0.32927851869E+02  0.10547621928E+02  0.50528858983E+02  0.29999997364E+02 0.  0.
         12    1    1    2    0    0  0.21393223021E+02  0.32927851869E+02 -0.10547621928E+02  0.40659141017E+02  0.00000000000E+00 0. -1.
         11    1    3    3    0    0 -0.26163151736E+01 -0.18089116267E+02 -0.59195336475E+01  0.19212030379E+02  0.51100000000E-03 0. -1.
        -11    1    3    3    0    0 -0.82549280620E+01 -0.80495789947E+01  0.12315003430E+01  0.11595522957E+02  0.51100000000E-03 0.  1.
         12    1    3    3    0    0 -0.10521979785E+02 -0.67891566070E+01  0.15235655232E+02  0.19721305647E+02  0.00000000000E+00 0. -1.
</event>
<event>
 7    1  0.2432574E-011  0.5052886E+02  0.7816164E-02  0.1300439E+00
        -11   -1    0    0    0    0  0.00000000000E+00  0.00000000000E+00  0.45593999997E+02  0.45594000000E+02  0.51100000000E-03 0.  1.
         11   -1    0    0    0    0 -0.00000000000E+00 -0.00000000000E+00 -0.45593999997E+02  0.45594000000E+02  0.51100000000E-03 0. -1.
    9900012    2    1    2    0    0 -0.98043970923E+01 -0.27878730843E+02 -0.27925184182E+02  0.50528858994E+02  0.29999997398E+02 0.  0.
         12    1    1    2    0    0  0.98043970923E+01  0.27878730843E+02  0.27925184182E+02  0.40659141006E+02  0.00000000000E+00 0. -1.
         11    1    3    3    0    0 -0.11633758969E+02 -0.64670055714E+01 -0.18867800106E+02  0.23090266129E+02  0.51100000000E-03 0. -1.
        -11    1    3    3    0    0 -0.52219806236E+01 -0.11511297641E+02 -0.85744560514E+01  0.15274172706E+02  0.51100000000E-03 0.  1.
        -12    1    3    3    0    0  0.70513425009E+01 -0.99004276302E+01 -0.48292802545E+00  0.12164420159E+02  0.00000000000E+00 0.  1.
</event>
<event>
 7    1  0.2432574E-011  0.5052886E+02  0.7816164E-02  0.1300439E+00
        -11   -1    0    0    0    0  0.00000000000E+00  0.00000000000E+00  0.45593999997E+02  0.45594000000E+02  0.51100000000E-03 0. -1.
         11   -1    0    0    0    0 -0.00000000000E+00 -0.00000000000E+00 -0.45593999997E+02  0.45594000000E+02  0.51100000000E-03 0.  1.
    9900012    2    1    2    0    0  0.22931612502E+02 -0.30930377946E+02 -0.13062093455E+02  0.50528863053E+02  0.30000009736E+02 0.  0.
         12    1    1    2    0    0 -0.22931612502E+02  0.30930377946E+02  0.13062093455E+02  0.40659136947E+02  0.00000000000E+00 0. -1.
         11    1    3    3    0    0  0.22366264827E+02 -0.10210753817E+02 -0.11638463687E+02  0.27202263382E+02  0.51100000000E-03 0. -1.
        -11    1    3    3    0    0 -0.70992389005E+00 -0.14775014125E+02 -0.57438565111E+01  0.15868110227E+02  0.51100000000E-03 0.  1.
        -12    1    3    3    0    0  0.12752715650E+01 -0.59446100041E+01  0.43202267436E+01  0.74584894437E+01  0.00000000000E+00 0.  1.
</event>
<event>
 7    1  0.2432574E-011  0.5052886E+02  0.7816164E-02  0.1300439E+00
        -11   -1    0    0    0    0  0.00000000000E+00  0.00000000000E+00  0.45593999997E+02  0.45594000000E+02  0.51100000000E-03 0.  1.
         11   -1    0    0    0    0 -0.00000000000E+00 -0.00000000000E+00 -0.45593999997E+02  0.45594000000E+02  0.51100000000E-03 0. -1.
    9900012    2    1    2    0    0 -0.26781715451E+02 -0.29841965802E+02 -0.67351686324E+01  0.50528859552E+02  0.29999999096E+02 0.  0.
         12    1    1    2    0    0  0.26781715451E+02  0.29841965802E+02  0.67351686324E+01  0.40659140448E+02  0.00000000000E+00 0. -1.
         11    1    3    3    0    0  0.61726058621E+00 -0.64737810752E+01  0.41656821562E+01  0.77229372734E+01  0.51100000000E-03 0. -1.
        -11    1    3    3    0    0 -0.21370581689E+02 -0.26936598071E+02 -0.93038366340E+01  0.35620828931E+02  0.51100000000E-03 0.  1.
         12    1    3    3    0    0 -0.60283943483E+01  0.35684133439E+01 -0.15970141546E+01  0.71850933481E+01  0.00000000000E+00 0. -1.
</event>
<event>
 7    1  0.2432574E-011  0.5052886E+02  0.7816164E-02  0.1300439E+00
        -11   -1    0    0    0    0  0.00000000000E+00  0.00000000000E+00  0.45593999997E+02  0.45594000000E+02  0.51100000000E-03 0.  1.
         11   -1    0    0    0    0 -0.00000000000E+00 -0.00000000000E+00 -0.45593999997E+02  0.45594000000E+02  0.51100000000E-03 0. -1.
    9900012    2    1    2    0    0  0.14067700015E+02 -0.29637900559E+02 -0.24017918121E+02  0.50528859280E+02  0.29999998267E+02 0.  0.
         12    1    1    2    0    0 -0.14067700015E+02  0.29637900559E+02  0.24017918121E+02  0.40659140720E+02  0.00000000000E+00 0. -1.
         11    1    3    3    0    0 -0.50379360093E+01 -0.13929888115E+02 -0.14152495142E+02  0.20486964176E+02  0.51100000000E-03 0. -1.
        -11    1    3    3    0    0  0.74922911106E+01 -0.11448961126E+02 -0.11088906822E+02  0.17611842372E+02  0.51100000000E-03 0.  1.
         12    1    3    3    0    0  0.11613344914E+02 -0.42590513178E+01  0.12234838441E+01  0.12430052732E+02  0.00000000000E+00 0. -1.
</event>
<event>
 7    1  0.2432574E-011  0.5052888E+02  0.7816164E-02  0.1300439E+00
        -11   -1    0    0    0    0  0.00000000000E+00  0.00000000000E+00  0.45593999997E+02  0.45594000000E+02  0.51100000000E-03 0.  1.
         11   -1    0    0    0    0 -0.00000000000E+00 -0.00000000000E+00 -0.45593999997E+02  0.45594000000E+02  0.51100000000E-03 0. -1.
    9900012    2    1    2    0    0  0.95276597862E+01  0.39416382693E+02  0.29556992855E+01  0.50528884370E+02  0.30000074530E+02 0.  0.
         12    1    1    2    0    0 -0.95276597862E+01 -0.39416382693E+02 -0.29556992855E+01  0.40659115630E+02  0.00000000000E+00 0. -1.
         11    1    3    3    0    0  0.38956415661E+01  0.48566343030E+01 -0.60656545011E+01  0.86922427918E+01  0.51100000000E-03 0. -1.
        -11    1    3    3    0    0  0.12151595458E+02  0.11349923327E+02  0.52394405676E+01  0.17433696379E+02  0.51100000000E-03 0.  1.
        -12    1    3    3    0    0 -0.65195772380E+01  0.23209825063E+02  0.37819132189E+01  0.24402945199E+02  0.00000000000E+00 0.  1.
</event>
<event>
 7    1  0.2432574E-011  0.5052886E+02  0.7816164E-02  0.1300439E+00
        -11   -1    0    0    0    0  0.00000000000E+00  0.00000000000E+00  0.45593999997E+02  0.45594000000E+02  0.51100000000E-03 0. -1.
         11   -1    0    0    0    0 -0.00000000000E+00 -0.00000000000E+00 -0.45593999997E+02  0.45594000000E+02  0.51100000000E-03 0.  1.
    9900012    2    1    2    0    0  0.21151911949E+02  0.21643777848E+02 -0.27153439532E+02  0.50528858629E+02  0.29999996289E+02 0.  0.
         12    1    1    2    0    0 -0.21151911949E+02 -0.21643777848E+02  0.27153439532E+02  0.40659141371E+02  0.00000000000E+00 0. -1.
         11    1    3    3    0    0  0.79958116518E+01  0.11238343045E+00 -0.12049598044E+02  0.14461619802E+02  0.51100000000E-03 0. -1.
        -11    1    3    3    0    0  0.89600967826E+01  0.19748872539E+02 -0.19912058938E+02  0.29441321171E+02  0.51100000000E-03 0.  1.
        -12    1    3    3    0    0  0.41960035148E+01  0.17825218780E+01  0.48082174496E+01  0.66259176560E+01  0.00000000000E+00 0.  1.
</event>
<event>
 7    1  0.2432574E-011  0.5052886E+02  0.7816164E-02  0.1300439E+00
        -11   -1    0    0    0    0  0.00000000000E+00  0.00000000000E+00  0.45593999997E+02  0.45594000000E+02  0.51100000000E-03 0. -1.
         11   -1    0    0    0    0 -0.00000000000E+00 -0.00000000000E+00 -0.45593999997E+02  0.45594000000E+02  0.51100000000E-03 0.  1.
    9900012    2    1    2    0    0  0.10660755298E+02 -0.19344661583E+01 -0.39188923164E+02  0.50528861278E+02  0.30000004340E+02 0.  0.
         12    1    1    2    0    0 -0.10660755298E+02  0.19344661583E+01  0.39188923164E+02  0.40659138722E+02  0.00000000000E+00 0. -1.
         11    1    3    3    0    0 -0.19081611698E+01 -0.30264675332E+01 -0.30907338538E+02  0.31113729454E+02  0.51100000000E-03 0. -1.
        -11    1    3    3    0    0  0.64226297258E+01 -0.30076453307E+01 -0.95742573926E+01  0.11914802051E+02  0.51100000000E-03 0.  1.
         12    1    3    3    0    0  0.61462867417E+01  0.40996467055E+01  0.12926727663E+01  0.75003297729E+01  0.00000000000E+00 0. -1.
</event>
<event>
 7    1  0.2432574E-011  0.5052897E+02  0.7816164E-02  0.1300438E+00
        -11   -1    0    0    0    0  0.00000000000E+00  0.00000000000E+00  0.45593999997E+02  0.45594000000E+02  0.51100000000E-03 0.  1.
         11   -1    0    0    0    0 -0.00000000000E+00 -0.00000000000E+00 -0.45593999997E+02  0.45594000000E+02  0.51100000000E-03 0. -1.
    9900012    2    1    2    0    0 -0.37737158401E+02  0.14812310926E+02  0.31078516080E+01  0.50528973686E+02  0.30000346015E+02 0.  0.
         12    1    1    2    0    0  0.37737158401E+02 -0.14812310926E+02 -0.31078516080E+01  0.40659026314E+02  0.00000000000E+00 0. -1.
         11    1    3    3    0    0 -0.30867428350E+02  0.10220775788E+02  0.32300500372E+01  0.32675611917E+02  0.51100000000E-03 0. -1.
        -11    1    3    3    0    0 -0.78552808285E+01 -0.36114225420E+01 -0.29279114548E+01  0.91280050077E+01  0.51100000000E-03 0.  1.
         12    1    3    3    0    0  0.98555077735E+00  0.82029576803E+01  0.28057130255E+01  0.87253567618E+01  0.00000000000E+00 0. -1.
</event>
<event>
 7    1  0.2432574E-011  0.5052889E+02  0.7816164E-02  0.1300439E+00
        -11   -1    0    0    0    0  0.00000000000E+00  0.00000000000E+00  0.45593999997E+02  0.45594000000E+02  0.51100000000E-03 0. -1.
         11   -1    0    0    0    0 -0.00000000000E+00 -0.00000000000E+00 -0.45593999997E+02  0.45594000000E+02  0.51100000000E-03 0.  1.
    9900012    2    1    2    0    0 -0.15180581719E+02 -0.31528516263E+02 -0.20704247595E+02  0.50528889489E+02  0.30000090090E+02 0.  0.
         12    1    1    2    0    0  0.15180581719E+02  0.31528516263E+02  0.20704247595E+02  0.40659110511E+02  0.00000000000E+00 0. -1.
         11    1    3    3    0    0  0.56433681307E+01 -0.52124884907E+01 -0.35886987810E+01  0.84791744484E+01  0.51100000000E-03 0. -1.
        -11    1    3    3    0    0 -0.58618591719E+01  0.14132207041E+01 -0.63405553322E+01  0.87499273078E+01  0.51100000000E-03 0.  1.
         12    1    3    3    0    0 -0.14962090677E+02 -0.27729248477E+02 -0.10774993482E+02  0.33299787733E+02  0.00000000000E+00 0. -1.
</event>
<event>
 7    1  0.2432574E-011  0.5052886E+02  0.7816164E-02  0.1300439E+00
        -11   -1    0    0    0    0  0.00000000000E+00  0.00000000000E+00  0.45593999997E+02  0.45594000000E+02  0.51100000000E-03 0. -1.
         11   -1    0    0    0    0 -0.00000000000E+00 -0.00000000000E+00 -0.45593999997E+02  0.45594000000E+02  0.51100000000E-03 0.  1.
    9900012    2    1    2    0    0 -0.41209302711E+01 -0.10177061147E+02 -0.39148573431E+02  0.50528862754E+02  0.30000008827E+02 0.  0.
         12    1    1    2    0    0  0.41209302711E+01  0.10177061147E+02  0.39148573431E+02  0.40659137246E+02  0.00000000000E+00 0. -1.
         11    1    3    3    0    0 -0.71426358918E+01 -0.20525702672E+01 -0.16290414850E+02  0.17905527315E+02  0.51100000000E-03 0. -1.
        -11    1    3    3    0    0  0.30295991412E+01 -0.63878279069E+01 -0.27117288819E+02  0.28023742960E+02  0.51100000000E-03 0.  1.
         12    1    3    3    0    0 -0.78935204883E-02 -0.17366629729E+01  0.42591302379E+01  0.45995924790E+01  0.00000000000E+00 0. -1.
</event>
<event>
 7    1  0.2432574E-011  0.5052886E+02  0.7816164E-02  0.1300439E+00
        -11   -1    0    0    0    0  0.00000000000E+00  0.00000000000E+00  0.45593999997E+02  0.45594000000E+02  0.51100000000E-03 0. -1.
         11   -1    0    0    0    0 -0.00000000000E+00 -0.00000000000E+00 -0.45593999997E+02  0.45594000000E+02  0.51100000000E-03 0.  1.
    9900012    2    1    2    0    0 -0.38734811157E+02  0.45615779096E+01 -0.11487919610E+02  0.50528857297E+02  0.29999992241E+02 0.  0.
         12    1    1    2    0    0  0.38734811157E+02 -0.45615779096E+01  0.11487919610E+02  0.40659142703E+02  0.00000000000E+00 0. -1.
         11    1    3    3    0    0 -0.18596962022E+02  0.14185751763E+02 -0.96936068518E+00  0.23409874198E+02  0.51100000000E-03 0. -1.
        -11    1    3    3    0    0 -0.84463215469E+01 -0.11652113957E+01  0.10938415622E+01  0.85961942099E+01  0.51100000000E-03 0.  1.
         12    1    3    3    0    0 -0.11691527587E+02 -0.84589624580E+01 -0.11612400487E+02  0.18522788890E+02  0.00000000000E+00 0. -1.
</event>
<event>
 7    1  0.2432574E-011  0.5052886E+02  0.7816164E-02  0.1300439E+00
        -11   -1    0    0    0    0  0.00000000000E+00  0.00000000000E+00  0.45593999997E+02  0.45594000000E+02  0.51100000000E-03 0. -1.
         11   -1    0    0    0    0 -0.00000000000E+00 -0.00000000000E+00 -0.45593999997E+02  0.45594000000E+02  0.51100000000E-03 0.  1.
    9900012    2    1    2    0    0  0.27808714624E+02  0.18766654229E+02 -0.22970715322E+02  0.50528859793E+02  0.29999999826E+02 0.  0.
         12    1    1    2    0    0 -0.27808714624E+02 -0.18766654229E+02  0.22970715322E+02  0.40659140207E+02  0.00000000000E+00 0. -1.
         11    1    3    3    0    0  0.18397227859E+02  0.22137226608E+02 -0.94835955447E+01  0.30305995768E+02  0.51100000000E-03 0. -1.
        -11    1    3    3    0    0  0.61582957058E+01 -0.14321987575E+01 -0.11374348925E+00  0.63236648491E+01  0.51100000000E-03 0.  1.
        -12    1    3    3    0    0  0.32531910587E+01 -0.19383736211E+01 -0.13373376288E+02  0.13899199175E+02  0.00000000000E+00 0.  1.
</event>
<event>
 7    1  0.2432574E-011  0.5052882E+02  0.7816164E-02  0.1300439E+00
        -11   -1    0    0    0    0  0.00000000000E+00  0.00000000000E+00  0.45593999997E+02  0.45594000000E+02  0.51100000000E-03 0.  1.
         11   -1    0    0    0    0 -0.00000000000E+00 -0.00000000000E+00 -0.45593999997E+02  0.45594000000E+02  0.51100000000E-03 0. -1.
    9900012    2    1    2    0    0 -0.49847024504E+01  0.35935737361E+02  0.18356050398E+02  0.50528818202E+02  0.29999873408E+02 0.  0.
         12    1    1    2    0    0  0.49847024504E+01 -0.35935737361E+02 -0.18356050398E+02  0.40659181798E+02  0.00000000000E+00 0. -1.
         11    1    3    3    0    0 -0.24512847272E+01  0.17257357985E+02  0.38545718633E+00  0.17434843818E+02  0.51100000000E-03 0. -1.
        -11    1    3    3    0    0 -0.65466441562E+01  0.21720461680E+02  0.15573006764E+02  0.27516459533E+02  0.51100000000E-03 0.  1.
         12    1    3    3    0    0  0.40132264330E+01 -0.30420823040E+01  0.23975864485E+01  0.55775148520E+01  0.00000000000E+00 0. -1.
</event>
<event>
 7    1  0.2432574E-011  0.5052884E+02  0.7816164E-02  0.1300439E+00
        -11   -1    0    0    0    0  0.00000000000E+00  0.00000000000E+00  0.45593999997E+02  0.45594000000E+02  0.51100000000E-03 0.  1.
         11   -1    0    0    0    0 -0.00000000000E+00 -0.00000000000E+00 -0.45593999997E+02  0.45594000000E+02  0.51100000000E-03 0. -1.
    9900012    2    1    2    0    0  0.47993436730E+01 -0.25069240640E+02  0.31649122025E+02  0.50528838044E+02  0.29999933720E+02 0.  0.
         12    1    1    2    0    0 -0.47993436730E+01  0.25069240640E+02 -0.31649122025E+02  0.40659161956E+02  0.00000000000E+00 0. -1.
         11    1    3    3    0    0  0.23505016738E+01 -0.26333643639E+02  0.25015572686E+02  0.36397314770E+02  0.51100000000E-03 0.  1.
        -11    1    3    3    0    0  0.51255192874E+00 -0.43551017216E+01 -0.95937837367E+00  0.44888782129E+01  0.51100000000E-03 0. -1.
        -12    1    3    3    0    0  0.19362900705E+01  0.56195047198E+01  0.75929277123E+01  0.96426450613E+01  0.00000000000E+00 0.  1.
</event>
<event>
 7    1  0.2432574E-011  0.5052885E+02  0.7816164E-02  0.1300439E+00
        -11   -1    0    0    0    0  0.00000000000E+00  0.00000000000E+00  0.45593999997E+02  0.45594000000E+02  0.51100000000E-03 0.  1.
         11   -1    0    0    0    0 -0.00000000000E+00 -0.00000000000E+00 -0.45593999997E+02  0.45594000000E+02  0.51100000000E-03 0. -1.
    9900012    2    1    2    0    0  0.11983465394E+02 -0.18126537353E+02  0.34365561048E+02  0.50528848688E+02  0.29999966072E+02 0.  0.
         12    1    1    2    0    0 -0.11983465394E+02  0.18126537353E+02 -0.34365561048E+02  0.40659151312E+02  0.00000000000E+00 0. -1.
         11    1    3    3    0    0  0.93792309835E+00 -0.47801720303E+01 -0.14905443893E+01  0.50942582596E+01  0.51100000000E-03 0. -1.
        -11    1    3    3    0    0 -0.40968497225E+01 -0.11967205221E+02  0.14934553952E+02  0.19571384224E+02  0.51100000000E-03 0.  1.
        -12    1    3    3    0    0  0.15142392018E+02 -0.13791601019E+01  0.20921551485E+02  0.25863206205E+02  0.00000000000E+00 0.  1.
</event>
<event>
 7    1  0.2432574E-011  0.5052885E+02  0.7816164E-02  0.1300439E+00
        -11   -1    0    0    0    0  0.00000000000E+00  0.00000000000E+00  0.45593999997E+02  0.45594000000E+02  0.51100000000E-03 0.  1.
         11   -1    0    0    0    0 -0.00000000000E+00 -0.00000000000E+00 -0.45593999997E+02  0.45594000000E+02  0.51100000000E-03 0. -1.
    9900012    2    1    2    0    0 -0.50156278227E+00  0.74140125134E+01  0.39974329277E+02  0.50528854068E+02  0.29999982424E+02 0.  0.
         12    1    1    2    0    0  0.50156278227E+00 -0.74140125134E+01 -0.39974329277E+02  0.40659145932E+02  0.00000000000E+00 0. -1.
         11    1    3    3    0    0  0.39123152849E+01 -0.56007896451E-01 -0.33535921548E+01  0.51532444513E+01  0.51100000000E-03 0. -1.
        -11    1    3    3    0    0  0.23760752029E+01 -0.10348170952E+01  0.87056285996E+01  0.90832014932E+01  0.51100000000E-03 0.  1.
         12    1    3    3    0    0 -0.67899532700E+01  0.85048375051E+01  0.34622292833E+02  0.36292408123E+02  0.00000000000E+00 0. -1.
</event>
<event>
 7    1  0.2432574E-011  0.5052885E+02  0.7816164E-02  0.1300439E+00
        -11   -1    0    0    0    0  0.00000000000E+00  0.00000000000E+00  0.45593999997E+02  0.45594000000E+02  0.51100000000E-03 0.  1.
         11   -1    0    0    0    0 -0.00000000000E+00 -0.00000000000E+00 -0.45593999997E+02  0.45594000000E+02  0.51100000000E-03 0. -1.
    9900012    2    1    2    0    0  0.12708409992E+02 -0.21089461709E+02  0.32355795203E+02  0.50528848965E+02  0.29999966913E+02 0.  0.
         12    1    1    2    0    0 -0.12708409992E+02  0.21089461709E+02 -0.32355795203E+02  0.40659151035E+02  0.00000000000E+00 0. -1.
         11    1    3    3    0    0  0.10403176914E+02 -0.30813555926E+01  0.12289029596E+01  0.10919296907E+02  0.51100000000E-03 0. -1.
        -11    1    3    3    0    0  0.78191242546E+01 -0.14360449050E+02  0.15036563868E+02  0.22213947291E+02  0.51100000000E-03 0.  1.
        -12    1    3    3    0    0 -0.55138911768E+01 -0.36476570664E+01  0.16090328375E+02  0.17395604767E+02  0.00000000000E+00 0.  1.
</event>
<event>
 7    1  0.2432574E-011  0.5052886E+02  0.7816164E-02  0.1300439E+00
        -11   -1    0    0    0    0  0.00000000000E+00  0.00000000000E+00  0.45593999997E+02  0.45594000000E+02  0.51100000000E-03 0.  1.
         11   -1    0    0    0    0 -0.00000000000E+00 -0.00000000000E+00 -0.45593999997E+02  0.45594000000E+02  0.51100000000E-03 0. -1.
    9900012    2    1    2    0    0  0.14435070992E+02 -0.17484523562E+02  0.33750351043E+02  0.50528855466E+02  0.29999986674E+02 0.  0.
         12    1    1    2    0    0 -0.14435070992E+02  0.17484523562E+02 -0.33750351043E+02  0.40659144534E+02  0.00000000000E+00 0. -1.
         11    1    3    3    0    0  0.43351687043E+00 -0.16786331637E+02  0.17575859990E+02  0.24308017635E+02  0.51100000000E-03 0. -1.
        -11    1    3    3    0    0 -0.16537834720E-01  0.16918838783E+01  0.10936233815E+02  0.11066343338E+02  0.51100000000E-03 0.  1.
         12    1    3    3    0    0  0.14018091956E+02 -0.23900758030E+01  0.52382572386E+01  0.15154494493E+02  0.00000000000E+00 0. -1.
</event>
<event>
 7    1  0.2432574E-011  0.5052891E+02  0.7816164E-02  0.1300439E+00
        -11   -1    0    0    0    0  0.00000000000E+00  0.00000000000E+00  0.45593999997E+02  0.45594000000E+02  0.51100000000E-03 0. -1.
         11   -1    0    0    0    0 -0.00000000000E+00 -0.00000000000E+00 -0.45593999997E+02  0.45594000000E+02  0.51100000000E-03 0.  1.
    9900012    2    1    2    0    0  0.39345649372E+00  0.38301464571E+02 -0.13638348887E+02  0.50528910529E+02  0.30000154042E+02 0.  0.
         12    1    1    2    0    0 -0.39345649372E+00 -0.38301464571E+02  0.13638348887E+02  0.40659089471E+02  0.00000000000E+00 0. -1.
         11    1    3    3    0    0 -0.32697238030E+01 -0.19881890091E+01 -0.49296768956E+01  0.62406493124E+01  0.51100000000E-03 0. -1.
        -11    1    3    3    0    0 -0.46315303515E+01  0.15036472452E+02 -0.81103784759E+01  0.17700983489E+02  0.51100000000E-03 0.  1.
         12    1    3    3    0    0  0.82947106482E+01  0.25253181128E+02 -0.59829351588E+00  0.26587277727E+02  0.00000000000E+00 0. -1.
</event>
<event>
 7    1  0.2432574E-011  0.5052886E+02  0.7816164E-02  0.1300439E+00
        -11   -1    0    0    0    0  0.00000000000E+00  0.00000000000E+00  0.45593999997E+02  0.45594000000E+02  0.51100000000E-03 0. -1.
         11   -1    0    0    0    0 -0.00000000000E+00 -0.00000000000E+00 -0.45593999997E+02  0.45594000000E+02  0.51100000000E-03 0.  1.
    9900012    2    1    2    0    0 -0.29538603605E+02 -0.26510043729E+02 -0.88234994873E+01  0.50528860011E+02  0.30000000490E+02 0.  0.
         12    1    1    2    0    0  0.29538603605E+02  0.26510043729E+02  0.88234994873E+01  0.40659139989E+02  0.00000000000E+00 0. -1.
         11    1    3    3    0    0 -0.11144247721E+02 -0.17648945098E+02 -0.41178301338E+00  0.20876998967E+02  0.51100000000E-03 0. -1.
        -11    1    3    3    0    0 -0.13352594005E+02 -0.14281249002E+02 -0.16409034596E+01  0.19619847200E+02  0.51100000000E-03 0.  1.
         12    1    3    3    0    0 -0.50417618789E+01  0.54201503718E+01 -0.67708130143E+01  0.10032013844E+02  0.00000000000E+00 0. -1.
</event>
<event>
 7    1  0.2432574E-011  0.5052884E+02  0.7816164E-02  0.1300439E+00
        -11   -1    0    0    0    0  0.00000000000E+00  0.00000000000E+00  0.45593999997E+02  0.45594000000E+02  0.51100000000E-03 0. -1.
         11   -1    0    0    0    0 -0.00000000000E+00 -0.00000000000E+00 -0.45593999997E+02  0.45594000000E+02  0.51100000000E-03 0.  1.
    9900012    2    1    2    0    0 -0.72589333801E+00 -0.36724299251E+02 -0.17434621084E+02  0.50528842496E+02  0.29999947251E+02 0.  0.
         12    1    1    2    0    0  0.72589333801E+00  0.36724299251E+02  0.17434621084E+02  0.40659157504E+02  0.00000000000E+00 0. -1.
         11    1    3    3    0    0  0.92055968618E+00 -0.17546406460E+02 -0.86944537206E+01  0.19604013251E+02  0.51100000000E-03 0.  1.
        -11    1    3    3    0    0 -0.82688985245E+00 -0.10113721540E+01  0.68489863298E+01  0.69724625828E+01  0.51100000000E-03 0. -1.
         12    1    3    3    0    0 -0.81956317175E+00 -0.18166520637E+02 -0.15589153693E+02  0.23952366662E+02  0.00000000000E+00 0. -1.
</event>
<event>
 7    1  0.2432574E-011  0.5052873E+02  0.7816164E-02  0.1300439E+00
        -11   -1    0    0    0    0  0.00000000000E+00  0.00000000000E+00  0.45593999997E+02  0.45594000000E+02  0.51100000000E-03 0. -1.
         11   -1    0    0    0    0 -0.00000000000E+00 -0.00000000000E+00 -0.45593999997E+02  0.45594000000E+02  0.51100000000E-03 0.  1.
    9900012    2    1    2    0    0  0.15315776402E+02  0.30745318689E+02 -0.21756107939E+02  0.50528734626E+02  0.29999619366E+02 0.  0.
         12    1    1    2    0    0 -0.15315776402E+02 -0.30745318689E+02  0.21756107939E+02  0.40659265374E+02  0.00000000000E+00 0. -1.
         11    1    3    3    0    0  0.84886671260E+01  0.91429335668E+01 -0.12241300048E+02  0.17478562038E+02  0.51100000000E-03 0. -1.
        -11    1    3    3    0    0  0.12717597521E+02  0.13050855616E+02 -0.12673540383E+02  0.22196412888E+02  0.51100000000E-03 0.  1.
         12    1    3    3    0    0 -0.58904882447E+01  0.85515295068E+01  0.31587324914E+01  0.10853759700E+02  0.00000000000E+00 0. -1.
</event>
<event>
 7    1  0.2432574E-011  0.5052887E+02  0.7816164E-02  0.1300439E+00
        -11   -1    0    0    0    0  0.00000000000E+00  0.00000000000E+00  0.45593999997E+02  0.45594000000E+02  0.51100000000E-03 0.  1.
         11   -1    0    0    0    0 -0.00000000000E+00 -0.00000000000E+00 -0.45593999997E+02  0.45594000000E+02  0.51100000000E-03 0. -1.
    9900012    2    1    2    0    0 -0.26673672473E+01 -0.75762159857E+01  0.39857884287E+02  0.50528870194E+02  0.30000031443E+02 0.  0.
         12    1    1    2    0    0  0.26673672473E+01  0.75762159857E+01 -0.39857884287E+02  0.40659129806E+02  0.00000000000E+00 0. -1.
         11    1    3    3    0    0 -0.11752528231E+02 -0.77372887479E+01  0.11502015844E+02  0.18173715243E+02  0.51100000000E-03 0. -1.
        -11    1    3    3    0    0  0.94237306959E+00 -0.46049518822E+01  0.16755322512E+02  0.17402140143E+02  0.51100000000E-03 0.  1.
        -12    1    3    3    0    0  0.81427879146E+01  0.47660246445E+01  0.11600545932E+02  0.14953014808E+02  0.00000000000E+00 0.  1.
</event>
<event>
 7    1  0.2432574E-011  0.5052886E+02  0.7816164E-02  0.1300439E+00
        -11   -1    0    0    0    0  0.00000000000E+00  0.00000000000E+00  0.45593999997E+02  0.45594000000E+02  0.51100000000E-03 0.  1.
         11   -1    0    0    0    0 -0.00000000000E+00 -0.00000000000E+00 -0.45593999997E+02  0.45594000000E+02  0.51100000000E-03 0. -1.
    9900012    2    1    2    0    0 -0.44061641081E+01 -0.27871511109E+02  0.29273367660E+02  0.50528862432E+02  0.30000007848E+02 0.  0.
         12    1    1    2    0    0  0.44061641081E+01  0.27871511109E+02 -0.29273367660E+02  0.40659137568E+02  0.00000000000E+00 0. -1.
         11    1    3    3    0    0 -0.31844514117E+01 -0.19967141195E+02  0.33430914144E+01  0.20493992260E+02  0.51100000000E-03 0. -1.
        -11    1    3    3    0    0 -0.46636974866E+01 -0.84727507831E+01  0.10756064892E+02  0.14464802532E+02  0.51100000000E-03 0.  1.
         12    1    3    3    0    0  0.34419847901E+01  0.56838086899E+00  0.15174211354E+02  0.15570067640E+02  0.00000000000E+00 0. -1.
</event>
<event>
 7    1  0.2432574E-011  0.5052886E+02  0.7816164E-02  0.1300439E+00
        -11   -1    0    0    0    0  0.00000000000E+00  0.00000000000E+00  0.45593999997E+02  0.45594000000E+02  0.51100000000E-03 0.  1.
         11   -1    0    0    0    0 -0.00000000000E+00 -0.00000000000E+00 -0.45593999997E+02  0.45594000000E+02  0.51100000000E-03 0. -1.
    9900012    2    1    2    0    0  0.71236380561E+01  0.30918712879E+02  0.25425428773E+02  0.50528862607E+02  0.30000008380E+02 0.  0.
         12    1    1    2    0    0 -0.71236380561E+01 -0.30918712879E+02 -0.25425428773E+02  0.40659137393E+02  0.00000000000E+00 0. -1.
         11    1    3    3    0    0  0.92038102916E+00 -0.30425235183E+01  0.14924922643E+01  0.35116355190E+01  0.51100000000E-03 0. -1.
        -11    1    3    3    0    0  0.42906934802E+01  0.69446035529E+01 -0.31175050935E+01  0.87382153394E+01  0.51100000000E-03 0.  1.
         12    1    3    3    0    0  0.19125635467E+01  0.27016632845E+02  0.27050441602E+02  0.38279011749E+02  0.00000000000E+00 0. -1.
</event>
<event>
 7    1  0.2432574E-011  0.5052886E+02  0.7816164E-02  0.1300439E+00
        -11   -1    0    0    0    0  0.00000000000E+00  0.00000000000E+00  0.45593999997E+02  0.45594000000E+02  0.51100000000E-03 0. -1.
         11   -1    0    0    0    0 -0.00000000000E+00 -0.00000000000E+00 -0.45593999997E+02  0.45594000000E+02  0.51100000000E-03 0.  1.
    9900012    2    1    2    0    0  0.23328901914E+02  0.93980758628E+00  0.33287307439E+02  0.50528859093E+02  0.29999997698E+02 0.  0.
         12    1    1    2    0    0 -0.23328901914E+02 -0.93980758628E+00 -0.33287307439E+02  0.40659140907E+02  0.00000000000E+00 0. -1.
         11    1    3    3    0    0  0.16793765015E+01 -0.97839486418E+01  0.17990379728E+02  0.20547499105E+02  0.51100000000E-03 0. -1.
        -11    1    3    3    0    0  0.85659442468E+01  0.32649454451E+01  0.11001960222E+02  0.14320558599E+02  0.51100000000E-03 0.  1.
        -12    1    3    3    0    0  0.13083581165E+02  0.74588107830E+01  0.42949674898E+01  0.15660801389E+02  0.00000000000E+00 0.  1.
</event>
<event>
 7    1  0.2432574E-011  0.5052887E+02  0.7816164E-02  0.1300439E+00
        -11   -1    0    0    0    0  0.00000000000E+00  0.00000000000E+00  0.45593999997E+02  0.45594000000E+02  0.51100000000E-03 0.  1.
         11   -1    0    0    0    0 -0.00000000000E+00 -0.00000000000E+00 -0.45593999997E+02  0.45594000000E+02  0.51100000000E-03 0. -1.
    9900012    2    1    2    0    0 -0.15743207162E+02  0.13728274164E+02  0.34883388002E+02  0.50528870131E+02  0.30000031250E+02 0.  0.
         12    1    1    2    0    0  0.15743207162E+02 -0.13728274164E+02 -0.34883388002E+02  0.40659129869E+02  0.00000000000E+00 0. -1.
         11    1    3    3    0    0 -0.97138587655E+00  0.52666446845E+00 -0.27893401695E+01  0.30002307954E+01  0.51100000000E-03 0. -1.
        -11    1    3    3    0    0 -0.12744964921E+02  0.96915007423E+01  0.85999384359E+01  0.18174659800E+02  0.51100000000E-03 0.  1.
         12    1    3    3    0    0 -0.20268563640E+01  0.35101089529E+01  0.29072789735E+02  0.29353979535E+02  0.00000000000E+00 0. -1.
</event>
<event>
 7    1  0.2432574E-011  0.5052882E+02  0.7816164E-02  0.1300439E+00
        -11   -1    0    0    0    0  0.00000000000E+00  0.00000000000E+00  0.45593999997E+02  0.45594000000E+02  0.51100000000E-03 0.  1.
         11   -1    0    0    0    0 -0.00000000000E+00 -0.00000000000E+00 -0.45593999997E+02  0.45594000000E+02  0.51100000000E-03 0. -1.
    9900012    2    1    2    0    0  0.15263209192E+02 -0.13790628145E+02  0.35071667522E+02  0.50528820935E+02  0.29999881714E+02 0.  0.
         12    1    1    2    0    0 -0.15263209192E+02  0.13790628145E+02 -0.35071667522E+02  0.40659179065E+02  0.00000000000E+00 0. -1.
         11    1    3    3    0    0  0.92580646855E+01 -0.25073920865E+01  0.15223914173E+02  0.17993508268E+02  0.51100000000E-03 0. -1.
        -11    1    3    3    0    0  0.82552210444E+01  0.38286765340E+01  0.25378936708E+01  0.94471341178E+01  0.51100000000E-03 0.  1.
        -12    1    3    3    0    0 -0.22500765379E+01 -0.15111912593E+02  0.17309859678E+02  0.23088178549E+02  0.00000000000E+00 0.  1.
</event>
<event>
 7    1  0.2432574E-011  0.5052885E+02  0.7816164E-02  0.1300439E+00
        -11   -1    0    0    0    0  0.00000000000E+00  0.00000000000E+00  0.45593999997E+02  0.45594000000E+02  0.51100000000E-03 0.  1.
         11   -1    0    0    0    0 -0.00000000000E+00 -0.00000000000E+00 -0.45593999997E+02  0.45594000000E+02  0.51100000000E-03 0. -1.
    9900012    2    1    2    0    0 -0.25876060026E+02 -0.18142140877E+02  0.25582385103E+02  0.50528853604E+02  0.29999981014E+02 0.  0.
         12    1    1    2    0    0  0.25876060026E+02  0.18142140877E+02 -0.25582385103E+02  0.40659146396E+02  0.00000000000E+00 0. -1.
         11    1    3    3    0    0 -0.15976211135E+01 -0.65799447655E+01 -0.21024953059E+01  0.70900319542E+01  0.51100000000E-03 0. -1.
        -11    1    3    3    0    0 -0.26004010389E+01 -0.10412007249E+02  0.14501827513E+02  0.18040925198E+02  0.51100000000E-03 0.  1.
        -12    1    3    3    0    0 -0.21678037874E+02 -0.11501888621E+01  0.13183052896E+02  0.25397896451E+02  0.00000000000E+00 0.  1.
</event>
<event>
 7    1  0.2432574E-011  0.5052887E+02  0.7816164E-02  0.1300439E+00
        -11   -1    0    0    0    0  0.00000000000E+00  0.00000000000E+00  0.45593999997E+02  0.45594000000E+02  0.51100000000E-03 0.  1.
         11   -1    0    0    0    0 -0.00000000000E+00 -0.00000000000E+00 -0.45593999997E+02  0.45594000000E+02  0.51100000000E-03 0. -1.
    9900012    2    1    2    0    0  0.21029335733E+02 -0.33211736037E+02 -0.10388111334E+02  0.50528865367E+02  0.30000016771E+02 0.  0.
         12    1    1    2    0    0 -0.21029335733E+02  0.33211736037E+02  0.10388111334E+02  0.40659134633E+02  0.00000000000E+00 0. -1.
         11    1    3    3    0    0  0.48077206983E+01 -0.20663317023E+01 -0.94121707768E+01  0.10769069784E+02  0.51100000000E-03 0. -1.
        -11    1    3    3    0    0 -0.24318131086E+01 -0.14313505516E+02  0.10286107335E+01  0.14555005856E+02  0.51100000000E-03 0.  1.
         12    1    3    3    0    0  0.18653428144E+02 -0.16831898819E+02 -0.20045512904E+01  0.25204789728E+02  0.00000000000E+00 0. -1.
</event>
<event>
 7    1  0.2432574E-011  0.5052885E+02  0.7816164E-02  0.1300439E+00
        -11   -1    0    0    0    0  0.00000000000E+00  0.00000000000E+00  0.45593999997E+02  0.45594000000E+02  0.51100000000E-03 0.  1.
         11   -1    0    0    0    0 -0.00000000000E+00 -0.00000000000E+00 -0.45593999997E+02  0.45594000000E+02  0.51100000000E-03 0. -1.
    9900012    2    1    2    0    0  0.23872120342E+02  0.25839588184E+02 -0.20386362994E+02  0.50528852895E+02  0.29999978861E+02 0.  0.
         12    1    1    2    0    0 -0.23872120342E+02 -0.25839588184E+02  0.20386362994E+02  0.40659147105E+02  0.00000000000E+00 0. -1.
         11    1    3    3    0    0 -0.15637144237E+00  0.14954737132E+01  0.18377337413E+01  0.23744808317E+01  0.51100000000E-03 0. -1.
        -11    1    3    3    0    0  0.20792748124E+02  0.62897318833E+01 -0.36089621526E+01  0.22020983397E+02  0.51100000000E-03 0.  1.
        -12    1    3    3    0    0  0.32357436605E+01  0.18054382588E+02 -0.18615134583E+02  0.26133388667E+02  0.00000000000E+00 0.  1.
</event>
<event>
 7    1  0.2432574E-011  0.5052886E+02  0.7816164E-02  0.1300439E+00
        -11   -1    0    0    0    0  0.00000000000E+00  0.00000000000E+00  0.45593999997E+02  0.45594000000E+02  0.51100000000E-03 0.  1.
         11   -1    0    0    0    0 -0.00000000000E+00 -0.00000000000E+00 -0.45593999997E+02  0.45594000000E+02  0.51100000000E-03 0. -1.
    9900012    2    1    2    0    0  0.37483395286E+02  0.12028583688E+02  0.10172214239E+02  0.50528859696E+02  0.29999999533E+02 0.  0.
         12    1    1    2    0    0 -0.37483395286E+02 -0.12028583688E+02 -0.10172214239E+02  0.40659140304E+02  0.00000000000E+00 0. -1.
         11    1    3    3    0    0  0.95999188761E+01  0.12878802159E+02  0.16307624401E+01  0.16145630179E+02  0.51100000000E-03 0. -1.
        -11    1    3    3    0    0  0.17010869376E+02  0.48750659292E+01  0.12280070113E+02  0.21539175170E+02  0.51100000000E-03 0.  1.
         12    1    3    3    0    0  0.10872607034E+02 -0.57252844008E+01 -0.37386183142E+01  0.12844054348E+02  0.00000000000E+00 0. -1.
</event>
<event>
 7    1  0.2432574E-011  0.5052886E+02  0.7816164E-02  0.1300439E+00
        -11   -1    0    0    0    0  0.00000000000E+00  0.00000000000E+00  0.45593999997E+02  0.45594000000E+02  0.51100000000E-03 0.  1.
         11   -1    0    0    0    0 -0.00000000000E+00 -0.00000000000E+00 -0.45593999997E+02  0.45594000000E+02  0.51100000000E-03 0. -1.
    9900012    2    1    2    0    0  0.11272706123E+02 -0.24734134482E+02  0.30237629610E+02  0.50528861343E+02  0.30000004538E+02 0.  0.
         12    1    1    2    0    0 -0.11272706123E+02  0.24734134482E+02 -0.30237629610E+02  0.40659138657E+02  0.00000000000E+00 0. -1.
         11    1    3    3    0    0 -0.29374627079E+01 -0.41593746976E+01  0.25200591723E+01  0.56815300341E+01  0.51100000000E-03 0. -1.
        -11    1    3    3    0    0  0.91466897709E+01 -0.62742160702E+01 -0.21957550713E+01  0.11307035936E+02  0.51100000000E-03 0.  1.
        -12    1    3    3    0    0  0.50634790604E+01 -0.14300543714E+02  0.29913325509E+02  0.33540295373E+02  0.00000000000E+00 0.  1.
</event>
<event>
 7    1  0.2432574E-011  0.5052887E+02  0.7816164E-02  0.1300439E+00
        -11   -1    0    0    0    0  0.00000000000E+00  0.00000000000E+00  0.45593999997E+02  0.45594000000E+02  0.51100000000E-03 0. -1.
         11   -1    0    0    0    0 -0.00000000000E+00 -0.00000000000E+00 -0.45593999997E+02  0.45594000000E+02  0.51100000000E-03 0.  1.
    9900012    2    1    2    0    0  0.34002094089E+01 -0.34248291661E+02  0.21648507401E+02  0.50528870909E+02  0.30000033615E+02 0.  0.
         12    1    1    2    0    0 -0.34002094089E+01  0.34248291661E+02 -0.21648507401E+02  0.40659129091E+02  0.00000000000E+00 0. -1.
         11    1    3    3    0    0  0.94975570613E+01 -0.23111887857E+02  0.17195615318E+02  0.30332361215E+02  0.51100000000E-03 0. -1.
        -11    1    3    3    0    0  0.22877967565E+00 -0.11470088225E+02  0.69203583834E+01  0.13398008227E+02  0.51100000000E-03 0.  1.
         12    1    3    3    0    0 -0.63261273281E+01  0.33368442044E+00 -0.24674662997E+01  0.67985014675E+01  0.00000000000E+00 0. -1.
</event>
<event>
 7    1  0.2432574E-011  0.5052884E+02  0.7816164E-02  0.1300439E+00
        -11   -1    0    0    0    0  0.00000000000E+00  0.00000000000E+00  0.45593999997E+02  0.45594000000E+02  0.51100000000E-03 0. -1.
         11   -1    0    0    0    0 -0.00000000000E+00 -0.00000000000E+00 -0.45593999997E+02  0.45594000000E+02  0.51100000000E-03 0.  1.
    9900012    2    1    2    0    0  0.11534592366E+01  0.15954634699E+02 -0.37380295027E+02  0.50528839988E+02  0.29999939628E+02 0.  0.
         12    1    1    2    0    0 -0.11534592366E+01 -0.15954634699E+02  0.37380295027E+02  0.40659160012E+02  0.00000000000E+00 0. -1.
         11    1    3    3    0    0  0.42249479972E+00  0.12798942936E+01 -0.24138030297E+01  0.27646114710E+01  0.51100000000E-03 0. -1.
        -11    1    3    3    0    0 -0.14042805840E+02  0.91586821645E+01 -0.18355093357E+02  0.24859430952E+02  0.51100000000E-03 0.  1.
         12    1    3    3    0    0  0.14773770277E+02  0.55160582407E+01 -0.16611398640E+02  0.22904797565E+02  0.00000000000E+00 0. -1.
</event>
<event>
 7    1  0.2432574E-011  0.5052886E+02  0.7816164E-02  0.1300439E+00
        -11   -1    0    0    0    0  0.00000000000E+00  0.00000000000E+00  0.45593999997E+02  0.45594000000E+02  0.51100000000E-03 0.  1.
         11   -1    0    0    0    0 -0.00000000000E+00 -0.00000000000E+00 -0.45593999997E+02  0.45594000000E+02  0.51100000000E-03 0. -1.
    9900012    2    1    2    0    0 -0.10002890207E+01  0.36946104788E+02  0.16945505236E+02  0.50528863452E+02  0.30000010949E+02 0.  0.
         12    1    1    2    0    0  0.10002890207E+01 -0.36946104788E+02 -0.16945505236E+02  0.40659136548E+02  0.00000000000E+00 0. -1.
         11    1    3    3    0    0 -0.40575278977E+01  0.16487946318E+01  0.13931880881E+02  0.14604087151E+02  0.51100000000E-03 0.  1.
        -11    1    3    3    0    0 -0.14173515557E+01  0.91977679436E+01  0.11833534375E+01  0.93812657033E+01  0.51100000000E-03 0. -1.
        -12    1    3    3    0    0  0.44745904327E+01  0.26099542212E+02  0.18302709180E+01  0.26543510598E+02  0.00000000000E+00 0.  1.
</event>
<event>
 7    1  0.2432574E-011  0.5052885E+02  0.7816164E-02  0.1300439E+00
        -11   -1    0    0    0    0  0.00000000000E+00  0.00000000000E+00  0.45593999997E+02  0.45594000000E+02  0.51100000000E-03 0. -1.
         11   -1    0    0    0    0 -0.00000000000E+00 -0.00000000000E+00 -0.45593999997E+02  0.45594000000E+02  0.51100000000E-03 0.  1.
    9900012    2    1    2    0    0 -0.78847029976E+01  0.31767971000E+02 -0.24120406040E+02  0.50528849611E+02  0.29999968877E+02 0.  0.
         12    1    1    2    0    0  0.78847029976E+01 -0.31767971000E+02  0.24120406040E+02  0.40659150389E+02  0.00000000000E+00 0. -1.
         11    1    3    3    0    0 -0.26836213760E+01 -0.12222913572E+01 -0.61131133898E+01  0.67871920136E+01  0.51100000000E-03 0. -1.
        -11    1    3    3    0    0  0.30758034710E+01  0.57041161800E+01  0.40938632336E+01  0.76653261394E+01  0.51100000000E-03 0.  1.
        -12    1    3    3    0    0 -0.82768850927E+01  0.27286146177E+02 -0.22101155884E+02  0.36076331458E+02  0.00000000000E+00 0.  1.
</event>
<event>
 7    1  0.2432574E-011  0.5052886E+02  0.7816164E-02  0.1300439E+00
        -11   -1    0    0    0    0  0.00000000000E+00  0.00000000000E+00  0.45593999997E+02  0.45594000000E+02  0.51100000000E-03 0.  1.
         11   -1    0    0    0    0 -0.00000000000E+00 -0.00000000000E+00 -0.45593999997E+02  0.45594000000E+02  0.51100000000E-03 0. -1.
    9900012    2    1    2    0    0  0.17567115579E+02 -0.28806441833E+02 -0.22688124807E+02  0.50528860215E+02  0.30000001109E+02 0.  0.
         12    1    1    2    0    0 -0.17567115579E+02  0.28806441833E+02  0.22688124807E+02  0.40659139785E+02  0.00000000000E+00 0. -1.
         11    1    3    3    0    0 -0.29698774764E+01 -0.43541906244E+01 -0.94535362771E+01  0.10823515909E+02  0.51100000000E-03 0. -1.
        -11    1    3    3    0    0  0.24324163269E+01 -0.42831450244E+01  0.50162332253E+01  0.70302614830E+01  0.51100000000E-03 0.  1.
         12    1    3    3    0    0  0.18104576728E+02 -0.20169106184E+02 -0.18250821755E+02  0.32675082823E+02  0.00000000000E+00 0. -1.
</event>
<event>
 7    1  0.2432574E-011  0.5052886E+02  0.7816164E-02  0.1300439E+00
        -11   -1    0    0    0    0  0.00000000000E+00  0.00000000000E+00  0.45593999997E+02  0.45594000000E+02  0.51100000000E-03 0. -1.
         11   -1    0    0    0    0 -0.00000000000E+00 -0.00000000000E+00 -0.45593999997E+02  0.45594000000E+02  0.51100000000E-03 0.  1.
    9900012    2    1    2    0    0  0.33782387039E+02 -0.92610082519E+00 -0.22606605679E+02  0.50528856415E+02  0.29999989559E+02 0.  0.
         12    1    1    2    0    0 -0.33782387039E+02  0.92610082519E+00  0.22606605679E+02  0.40659143585E+02  0.00000000000E+00 0. -1.
         11    1    3    3    0    0 -0.20874793340E+01 -0.80972401669E+01 -0.41330738110E+01  0.93276560656E+01  0.51100000000E-03 0. -1.
        -11    1    3    3    0    0  0.13289448287E+02  0.57605083543E+00 -0.68678438143E+01  0.14970255484E+02  0.51100000000E-03 0.  1.
        -12    1    3    3    0    0  0.22580418085E+02  0.65950885063E+01 -0.11605688054E+02  0.26230944865E+02  0.00000000000E+00 0.  1.
</event>
<event>
 7    1  0.2432574E-011  0.5052887E+02  0.7816164E-02  0.1300439E+00
        -11   -1    0    0    0    0  0.00000000000E+00  0.00000000000E+00  0.45593999997E+02  0.45594000000E+02  0.51100000000E-03 0. -1.
         11   -1    0    0    0    0 -0.00000000000E+00 -0.00000000000E+00 -0.45593999997E+02  0.45594000000E+02  0.51100000000E-03 0.  1.
    9900012    2    1    2    0    0  0.26982247143E+02  0.29657332135E+02 -0.67502304110E+01  0.50528872847E+02  0.30000039505E+02 0.  0.
         12    1    1    2    0    0 -0.26982247143E+02 -0.29657332135E+02  0.67502304110E+01  0.40659127153E+02  0.00000000000E+00 0. -1.
         11    1    3    3    0    0  0.65633061397E+00 -0.92695179967E+00  0.59048710553E+01  0.60131116699E+01  0.51100000000E-03 0. -1.
        -11    1    3    3    0    0  0.11255149009E+02  0.37216368977E+01 -0.41761412415E+01  0.12568576544E+02  0.51100000000E-03 0.  1.
        -12    1    3    3    0    0  0.15070767520E+02  0.26862647037E+02 -0.84789602248E+01  0.31947184633E+02  0.00000000000E+00 0.  1.
</event>
<event>
 7    1  0.2432574E-011  0.5052886E+02  0.7816164E-02  0.1300439E+00
        -11   -1    0    0    0    0  0.00000000000E+00  0.00000000000E+00  0.45593999997E+02  0.45594000000E+02  0.51100000000E-03 0. -1.
         11   -1    0    0    0    0 -0.00000000000E+00 -0.00000000000E+00 -0.45593999997E+02  0.45594000000E+02  0.51100000000E-03 0.  1.
    9900012    2    1    2    0    0  0.54971762667E+01 -0.35922749279E+02 -0.18234654851E+02  0.50528862033E+02  0.30000006636E+02 0.  0.
         12    1    1    2    0    0 -0.54971762667E+01  0.35922749279E+02  0.18234654851E+02  0.40659137967E+02  0.00000000000E+00 0. -1.
         11    1    3    3    0    0  0.42221277427E+01 -0.78545392337E+00 -0.11208517683E+02  0.12003089996E+02  0.51100000000E-03 0. -1.
        -11    1    3    3    0    0  0.10443637305E+01 -0.13719217519E+02  0.41431697826E+01  0.14369185121E+02  0.51100000000E-03 0.  1.
        -12    1    3    3    0    0  0.23068479353E+00 -0.21418077836E+02 -0.11169306951E+02  0.24156586916E+02  0.00000000000E+00 0.  1.
</event>
<event>
 7    1  0.2432574E-011  0.5052887E+02  0.7816164E-02  0.1300439E+00
        -11   -1    0    0    0    0  0.00000000000E+00  0.00000000000E+00  0.45593999997E+02  0.45594000000E+02  0.51100000000E-03 0. -1.
         11   -1    0    0    0    0 -0.00000000000E+00 -0.00000000000E+00 -0.45593999997E+02  0.45594000000E+02  0.51100000000E-03 0.  1.
    9900012    2    1    2    0    0  0.13956718048E+02  0.33048233225E+02 -0.19136069769E+02  0.50528869855E+02  0.30000030410E+02 0.  0.
         12    1    1    2    0    0 -0.13956718048E+02 -0.33048233225E+02  0.19136069769E+02  0.40659130145E+02  0.00000000000E+00 0. -1.
         11    1    3    3    0    0 -0.31140242971E+01  0.29973038741E+01  0.18305182963E+01  0.46938017993E+01  0.51100000000E-03 0. -1.
        -11    1    3    3    0    0  0.91945291103E+00  0.17706158912E+01 -0.11848436491E+02  0.12015237070E+02  0.51100000000E-03 0.  1.
        -12    1    3    3    0    0  0.16151289434E+02  0.28280313460E+02 -0.91181515736E+01  0.33819830986E+02  0.00000000000E+00 0.  1.
</event>
<event>
 7    1  0.2432574E-011  0.5052893E+02  0.7816164E-02  0.1300439E+00
        -11   -1    0    0    0    0  0.00000000000E+00  0.00000000000E+00  0.45593999997E+02  0.45594000000E+02  0.51100000000E-03 0.  1.
         11   -1    0    0    0    0 -0.00000000000E+00 -0.00000000000E+00 -0.45593999997E+02  0.45594000000E+02  0.51100000000E-03 0. -1.
    9900012    2    1    2    0    0  0.36816906520E+02 -0.15622074195E+02  0.73229920678E+01  0.50528929417E+02  0.30000211456E+02 0.  0.
         12    1    1    2    0    0 -0.36816906520E+02  0.15622074195E+02 -0.73229920678E+01  0.40659070583E+02  0.00000000000E+00 0. -1.
         11    1    3    3    0    0  0.18758991316E+02 -0.49886556402E+01  0.10907321719E+02  0.22265581233E+02  0.51100000000E-03 0. -1.
        -11    1    3    3    0    0  0.20973452403E+02 -0.56190272913E+01 -0.55649592940E+00  0.21720240823E+02  0.51100000000E-03 0.  1.
         12    1    3    3    0    0 -0.29155371997E+01 -0.50143912634E+01 -0.30278337214E+01  0.65431073619E+01  0.00000000000E+00 0. -1.
</event>
<event>
 7    1  0.2432574E-011  0.5052884E+02  0.7816164E-02  0.1300439E+00
        -11   -1    0    0    0    0  0.00000000000E+00  0.00000000000E+00  0.45593999997E+02  0.45594000000E+02  0.51100000000E-03 0. -1.
         11   -1    0    0    0    0 -0.00000000000E+00 -0.00000000000E+00 -0.45593999997E+02  0.45594000000E+02  0.51100000000E-03 0.  1.
    9900012    2    1    2    0    0 -0.63046719021E+01 -0.18587361899E+02 -0.35607977230E+02  0.50528844173E+02  0.29999952348E+02 0.  0.
         12    1    1    2    0    0  0.63046719021E+01  0.18587361899E+02  0.35607977230E+02  0.40659155827E+02  0.00000000000E+00 0. -1.
         11    1    3    3    0    0  0.33805273581E+01 -0.11596732744E+02 -0.24797031405E+02  0.27582692804E+02  0.51100000000E-03 0. -1.
        -11    1    3    3    0    0 -0.13243000831E+01 -0.59373036684E+01 -0.12901493022E+02  0.14263725601E+02  0.51100000000E-03 0.  1.
         12    1    3    3    0    0 -0.83608991771E+01 -0.10533254868E+01  0.20905471972E+01  0.86824257679E+01  0.00000000000E+00 0. -1.
</event>
<event>
 7    1  0.2432574E-011  0.5052887E+02  0.7816164E-02  0.1300439E+00
        -11   -1    0    0    0    0  0.00000000000E+00  0.00000000000E+00  0.45593999997E+02  0.45594000000E+02  0.51100000000E-03 0.  1.
         11   -1    0    0    0    0 -0.00000000000E+00 -0.00000000000E+00 -0.45593999997E+02  0.45594000000E+02  0.51100000000E-03 0. -1.
    9900012    2    1    2    0    0  0.23816324241E+02  0.58018027977E+01  0.32438972603E+02  0.50528866221E+02  0.30000019367E+02 0.  0.
         12    1    1    2    0    0 -0.23816324241E+02 -0.58018027977E+01 -0.32438972603E+02  0.40659133779E+02  0.00000000000E+00 0. -1.
         11    1    3    3    0    0  0.53053245186E+01 -0.72655745390E+01  0.25862691379E+01  0.93607601157E+01  0.51100000000E-03 0. -1.
        -11    1    3    3    0    0  0.15115244663E+02  0.10200895661E+01  0.20747859686E+02  0.25690170995E+02  0.51100000000E-03 0.  1.
        -12    1    3    3    0    0  0.33957550602E+01  0.12047287771E+02  0.91048437795E+01  0.15477935111E+02  0.00000000000E+00 0.  1.
</event>
<event>
 7    1  0.2432574E-011  0.5052886E+02  0.7816164E-02  0.1300439E+00
        -11   -1    0    0    0    0  0.00000000000E+00  0.00000000000E+00  0.45593999997E+02  0.45594000000E+02  0.51100000000E-03 0.  1.
         11   -1    0    0    0    0 -0.00000000000E+00 -0.00000000000E+00 -0.45593999997E+02  0.45594000000E+02  0.51100000000E-03 0. -1.
    9900012    2    1    2    0    0  0.35878981668E+02 -0.16698677579E+02  0.93283905364E+01  0.50528855538E+02  0.29999986892E+02 0.  0.
         12    1    1    2    0    0 -0.35878981668E+02  0.16698677579E+02 -0.93283905364E+01  0.40659144462E+02  0.00000000000E+00 0. -1.
         11    1    3    3    0    0  0.41545587163E+01 -0.64659503954E+01 -0.18751775088E+01  0.79110785354E+01  0.51100000000E-03 0. -1.
        -11    1    3    3    0    0  0.63435897250E+01 -0.81473947837E+01  0.13558562661E+02  0.17042763686E+02  0.51100000000E-03 0.  1.
         12    1    3    3    0    0  0.25380833227E+02 -0.20853323997E+01 -0.23549946153E+01  0.25575013317E+02  0.00000000000E+00 0. -1.
</event>
<event>
 7    1  0.2432574E-011  0.5052886E+02  0.7816164E-02  0.1300439E+00
        -11   -1    0    0    0    0  0.00000000000E+00  0.00000000000E+00  0.45593999997E+02  0.45594000000E+02  0.51100000000E-03 0. -1.
         11   -1    0    0    0    0 -0.00000000000E+00 -0.00000000000E+00 -0.45593999997E+02  0.45594000000E+02  0.51100000000E-03 0.  1.
    9900012    2    1    2    0    0 -0.27517098540E+02 -0.62101232536E+01 -0.29281556211E+02  0.50528857399E+02  0.29999992549E+02 0.  0.
         12    1    1    2    0    0  0.27517098540E+02  0.62101232536E+01  0.29281556211E+02  0.40659142601E+02  0.00000000000E+00 0. -1.
         11    1    3    3    0    0 -0.49161985191E+01 -0.52775588292E+01 -0.42994383141E+01  0.83968330430E+01  0.51100000000E-03 0. -1.
        -11    1    3    3    0    0  0.47749634735E+01  0.44558660971E+00 -0.95236708925E+01  0.10662979468E+02  0.51100000000E-03 0.  1.
        -12    1    3    3    0    0 -0.27375863495E+02 -0.13781510341E+01 -0.15458447005E+02  0.31469044888E+02  0.00000000000E+00 0.  1.
</event>
<event>
 7    1  0.2432574E-011  0.5052886E+02  0.7816164E-02  0.1300439E+00
        -11   -1    0    0    0    0  0.00000000000E+00  0.00000000000E+00  0.45593999997E+02  0.45594000000E+02  0.51100000000E-03 0.  1.
         11   -1    0    0    0    0 -0.00000000000E+00 -0.00000000000E+00 -0.45593999997E+02  0.45594000000E+02  0.51100000000E-03 0. -1.
    9900012    2    1    2    0    0 -0.84726530667E+00  0.26147422993E+02  0.31124905727E+02  0.50528863952E+02  0.30000012468E+02 0.  0.
         12    1    1    2    0    0  0.84726530667E+00 -0.26147422993E+02 -0.31124905727E+02  0.40659136048E+02  0.00000000000E+00 0. -1.
         11    1    3    3    0    0 -0.44963930145E+00  0.13633492284E+02  0.18203268766E+02  0.22747159853E+02  0.51100000000E-03 0.  1.
        -11    1    3    3    0    0 -0.17938230545E+01  0.14648159882E+02  0.15044522690E+00  0.14758354350E+02  0.51100000000E-03 0. -1.
        -12    1    3    3    0    0  0.13961970493E+01 -0.21342291733E+01  0.12771191734E+02  0.13023349749E+02  0.00000000000E+00 0.  1.
</event>
<event>
 7    1  0.2432574E-011  0.5052886E+02  0.7816164E-02  0.1300439E+00
        -11   -1    0    0    0    0  0.00000000000E+00  0.00000000000E+00  0.45593999997E+02  0.45594000000E+02  0.51100000000E-03 0. -1.
         11   -1    0    0    0    0 -0.00000000000E+00 -0.00000000000E+00 -0.45593999997E+02  0.45594000000E+02  0.51100000000E-03 0.  1.
    9900012    2    1    2    0    0 -0.37958065400E+02 -0.28289420542E+01 -0.14295031679E+02  0.50528861140E+02  0.30000003923E+02 0.  0.
         12    1    1    2    0    0  0.37958065400E+02  0.28289420542E+01  0.14295031679E+02  0.40659138860E+02  0.00000000000E+00 0. -1.
         11    1    3    3    0    0 -0.53267563963E+01 -0.31362755025E+01 -0.44354297164E+01  0.76081268893E+01  0.51100000000E-03 0. -1.
        -11    1    3    3    0    0 -0.31353680743E+02  0.87008467950E+01 -0.11014716833E+02  0.34352321876E+02  0.51100000000E-03 0.  1.
         12    1    3    3    0    0 -0.12776282613E+01 -0.83935133466E+01  0.11551148703E+01  0.85684123756E+01  0.00000000000E+00 0. -1.
</event>
<event>
 7    1  0.2432574E-011  0.5052887E+02  0.7816164E-02  0.1300439E+00
        -11   -1    0    0    0    0  0.00000000000E+00  0.00000000000E+00  0.45593999997E+02  0.45594000000E+02  0.51100000000E-03 0.  1.
         11   -1    0    0    0    0 -0.00000000000E+00 -0.00000000000E+00 -0.45593999997E+02  0.45594000000E+02  0.51100000000E-03 0. -1.
    9900012    2    1    2    0    0  0.10983282052E+02 -0.30177159819E+02  0.24937356503E+02  0.50528865618E+02  0.30000017531E+02 0.  0.
         12    1    1    2    0    0 -0.10983282052E+02  0.30177159819E+02 -0.24937356503E+02  0.40659134382E+02  0.00000000000E+00 0. -1.
         11    1    3    3    0    0  0.73881974383E+01 -0.39448074600E+01  0.49787361498E+01  0.97434481163E+01  0.51100000000E-03 0. -1.
        -11    1    3    3    0    0  0.11415812397E+02 -0.11398246962E+02  0.20676089678E+01  0.16263942130E+02  0.51100000000E-03 0.  1.
        -12    1    3    3    0    0 -0.78207277838E+01 -0.14834105397E+02  0.17891011385E+02  0.24521475371E+02  0.00000000000E+00 0.  1.
</event>
<event>
 7    1  0.2432574E-011  0.5052886E+02  0.7816164E-02  0.1300439E+00
        -11   -1    0    0    0    0  0.00000000000E+00  0.00000000000E+00  0.45593999997E+02  0.45594000000E+02  0.51100000000E-03 0.  1.
         11   -1    0    0    0    0 -0.00000000000E+00 -0.00000000000E+00 -0.45593999997E+02  0.45594000000E+02  0.51100000000E-03 0. -1.
    9900012    2    1    2    0    0 -0.16296274888E+02  0.31882848983E+02  0.19263462704E+02  0.50528860439E+02  0.30000001790E+02 0.  0.
         12    1    1    2    0    0  0.16296274888E+02 -0.31882848983E+02 -0.19263462704E+02  0.40659139561E+02  0.00000000000E+00 0. -1.
         11    1    3    3    0    0 -0.17476395515E+02  0.16246639764E+02  0.12889565302E+02  0.27120446120E+02  0.51100000000E-03 0. -1.
        -11    1    3    3    0    0 -0.94230539599E+00  0.11448563896E+02  0.11639733498E+02  0.16353621951E+02  0.51100000000E-03 0.  1.
         12    1    3    3    0    0  0.21224260235E+01  0.41876453220E+01 -0.52658360953E+01  0.70547923676E+01  0.00000000000E+00 0. -1.
</event>
<event>
 7    1  0.2432574E-011  0.5052887E+02  0.7816164E-02  0.1300439E+00
        -11   -1    0    0    0    0  0.00000000000E+00  0.00000000000E+00  0.45593999997E+02  0.45594000000E+02  0.51100000000E-03 0.  1.
         11   -1    0    0    0    0 -0.00000000000E+00 -0.00000000000E+00 -0.45593999997E+02  0.45594000000E+02  0.51100000000E-03 0. -1.
    9900012    2    1    2    0    0 -0.25625232747E+02 -0.11196092723E+02  0.29515412338E+02  0.50528872967E+02  0.30000039872E+02 0.  0.
         12    1    1    2    0    0  0.25625232747E+02  0.11196092723E+02 -0.29515412338E+02  0.40659127033E+02  0.00000000000E+00 0. -1.
         11    1    3    3    0    0 -0.11280298068E+02 -0.98781704983E+00  0.58681463670E+01  0.12753668063E+02  0.51100000000E-03 0. -1.
        -11    1    3    3    0    0 -0.12594814439E+02 -0.17722074733E+02  0.17613172489E+02  0.27980799291E+02  0.51100000000E-03 0.  1.
         12    1    3    3    0    0 -0.17501202398E+01  0.75137990596E+01  0.60340934822E+01  0.97944056131E+01  0.00000000000E+00 0. -1.
</event>
<event>
 7    1  0.2432574E-011  0.5052887E+02  0.7816164E-02  0.1300439E+00
        -11   -1    0    0    0    0  0.00000000000E+00  0.00000000000E+00  0.45593999997E+02  0.45594000000E+02  0.51100000000E-03 0.  1.
         11   -1    0    0    0    0 -0.00000000000E+00 -0.00000000000E+00 -0.45593999997E+02  0.45594000000E+02  0.51100000000E-03 0. -1.
    9900012    2    1    2    0    0  0.45266715191E+01 -0.18173751641E+02  0.36088630281E+02  0.50528865241E+02  0.30000016387E+02 0.  0.
         12    1    1    2    0    0 -0.45266715191E+01  0.18173751641E+02 -0.36088630281E+02  0.40659134759E+02  0.00000000000E+00 0. -1.
         11    1    3    3    0    0 -0.40976357782E+01 -0.54858067637E+01 -0.69899212540E-01  0.68475967302E+01  0.51100000000E-03 0. -1.
        -11    1    3    3    0    0 -0.11480287130E+01 -0.11471894029E+02  0.29816998114E+02  0.31968354655E+02  0.51100000000E-03 0.  1.
         12    1    3    3    0    0  0.97723360103E+01 -0.12160508483E+01  0.63415313798E+01  0.11712913856E+02  0.00000000000E+00 0. -1.
</event>
<event>
 7    1  0.2432574E-011  0.5052887E+02  0.7816164E-02  0.1300439E+00
        -11   -1    0    0    0    0  0.00000000000E+00  0.00000000000E+00  0.45593999997E+02  0.45594000000E+02  0.51100000000E-03 0.  1.
         11   -1    0    0    0    0 -0.00000000000E+00 -0.00000000000E+00 -0.45593999997E+02  0.45594000000E+02  0.51100000000E-03 0. -1.
    9900012    2    1    2    0    0 -0.14153157702E+02 -0.33824720952E+02 -0.17571027247E+02  0.50528872871E+02  0.30000039578E+02 0.  0.
         12    1    1    2    0    0  0.14153157702E+02  0.33824720952E+02  0.17571027247E+02  0.40659127129E+02  0.00000000000E+00 0. -1.
         11    1    3    3    0    0 -0.39264463980E+01  0.39548302563E+01 -0.29325962192E+01  0.62974426967E+01  0.51100000000E-03 0. -1.
        -11    1    3    3    0    0 -0.15313134146E+01 -0.74372570557E+01 -0.96448308465E+01  0.12275197579E+02  0.51100000000E-03 0.  1.
        -12    1    3    3    0    0 -0.86953978893E+01 -0.30342294152E+02 -0.49936001813E+01  0.31956232595E+02  0.00000000000E+00 0.  1.
</event>
<event>
 7    1  0.2432574E-011  0.5052887E+02  0.7816164E-02  0.1300439E+00
        -11   -1    0    0    0    0  0.00000000000E+00  0.00000000000E+00  0.45593999997E+02  0.45594000000E+02  0.51100000000E-03 0.  1.
         11   -1    0    0    0    0 -0.00000000000E+00 -0.00000000000E+00 -0.45593999997E+02  0.45594000000E+02  0.51100000000E-03 0. -1.
    9900012    2    1    2    0    0  0.16213821831E+02 -0.26945096135E+02  0.25772825451E+02  0.50528871188E+02  0.30000034462E+02 0.  0.
         12    1    1    2    0    0 -0.16213821831E+02  0.26945096135E+02 -0.25772825451E+02  0.40659128812E+02  0.00000000000E+00 0. -1.
         11    1    3    3    0    0  0.20264943527E+01 -0.17780072250E+02  0.16233408212E+02  0.24161150449E+02  0.51100000000E-03 0. -1.
        -11    1    3    3    0    0  0.15944321109E+02 -0.58462997832E+01  0.12901681748E+02  0.21327306182E+02  0.51100000000E-03 0.  1.
         12    1    3    3    0    0 -0.17569936306E+01 -0.33187241018E+01 -0.33622645092E+01  0.50404145575E+01  0.00000000000E+00 0. -1.
</event>
<event>
 7    1  0.2432574E-011  0.5052885E+02  0.7816164E-02  0.1300439E+00
        -11   -1    0    0    0    0  0.00000000000E+00  0.00000000000E+00  0.45593999997E+02  0.45594000000E+02  0.51100000000E-03 0. -1.
         11   -1    0    0    0    0 -0.00000000000E+00 -0.00000000000E+00 -0.45593999997E+02  0.45594000000E+02  0.51100000000E-03 0.  1.
    9900012    2    1    2    0    0 -0.39360568640E+02  0.10191782715E+02 -0.19912418146E+00  0.50528850365E+02  0.29999971171E+02 0.  0.
         12    1    1    2    0    0  0.39360568640E+02 -0.10191782715E+02  0.19912418146E+00  0.40659149635E+02  0.00000000000E+00 0. -1.
         11    1    3    3    0    0 -0.36876677413E+01 -0.48533481584E+01 -0.32217806232E+01  0.68944725949E+01  0.51100000000E-03 0. -1.
        -11    1    3    3    0    0 -0.27976972033E+02  0.32453949804E+01 -0.29788363817E+01  0.28321670487E+02  0.51100000000E-03 0.  1.
        -12    1    3    3    0    0 -0.76959288653E+01  0.11799735893E+02  0.60014928234E+01  0.15312707283E+02  0.00000000000E+00 0.  1.
</event>
<event>
 7    1  0.2432574E-011  0.5052886E+02  0.7816164E-02  0.1300439E+00
        -11   -1    0    0    0    0  0.00000000000E+00  0.00000000000E+00  0.45593999997E+02  0.45594000000E+02  0.51100000000E-03 0. -1.
         11   -1    0    0    0    0 -0.00000000000E+00 -0.00000000000E+00 -0.45593999997E+02  0.45594000000E+02  0.51100000000E-03 0.  1.
    9900012    2    1    2    0    0 -0.36325231951E+02  0.15478023839E+02  0.96991820748E+01  0.50528857963E+02  0.29999994265E+02 0.  0.
         12    1    1    2    0    0  0.36325231951E+02 -0.15478023839E+02 -0.96991820748E+01  0.40659142037E+02  0.00000000000E+00 0. -1.
         11    1    3    3    0    0 -0.20757874049E+01 -0.35624837643E+01 -0.50934315790E+01  0.65531083794E+01  0.51100000000E-03 0. -1.
        -11    1    3    3    0    0 -0.22909752800E+02  0.59230206535E+01  0.11566885073E+02  0.26338788461E+02  0.51100000000E-03 0.  1.
        -12    1    3    3    0    0 -0.11339691746E+02  0.13117486950E+02  0.32257285810E+01  0.17636961123E+02  0.00000000000E+00 0.  1.
</event>
<event>
 7    1  0.2698060E-011  0.5052894E+02  0.7816164E-02  0.1300439E+00
        -11   -1    0    0    0    0  0.00000000000E+00  0.00000000000E+00  0.45593999997E+02  0.45594000000E+02  0.51100000000E-03 0.  1.
         11   -1    0    0    0    0 -0.00000000000E+00 -0.00000000000E+00 -0.45593999997E+02  0.45594000000E+02  0.51100000000E-03 0. -1.
    9900012    2    1    2    0    0  0.40222647807E+02  0.42090030417E+01 -0.41930808286E+01  0.50528941599E+02  0.30000248484E+02 0.  0.
         12    1    1    2    0    0 -0.40222647807E+02 -0.42090030417E+01  0.41930808286E+01  0.40659058401E+02  0.00000000000E+00 0. -1.
         11    1    3    3    0    0  0.35483769071E+01 -0.67010375853E+01 -0.30121216049E+00  0.75885184602E+01  0.51100000000E-03 0. -1.
        -11    1    3    3    0    0  0.26296401576E+02 -0.17963573028E+01 -0.24503348340E+01  0.26471338773E+02  0.51100000000E-03 0.  1.
        -12    1    3    3    0    0  0.10377869324E+02  0.12706397930E+02 -0.14415338341E+01  0.16469084366E+02  0.00000000000E+00 0.  1.
</event>
<event>
 7    1  0.2432574E-011  0.5052885E+02  0.7816164E-02  0.1300439E+00
        -11   -1    0    0    0    0  0.00000000000E+00  0.00000000000E+00  0.45593999997E+02  0.45594000000E+02  0.51100000000E-03 0.  1.
         11   -1    0    0    0    0 -0.00000000000E+00 -0.00000000000E+00 -0.45593999997E+02  0.45594000000E+02  0.51100000000E-03 0. -1.
    9900012    2    1    2    0    0  0.18620289272E+02 -0.33486074516E+02  0.13606393516E+02  0.50528852154E+02  0.29999976608E+02 0.  0.
         12    1    1    2    0    0 -0.18620289272E+02  0.33486074516E+02 -0.13606393516E+02  0.40659147846E+02  0.00000000000E+00 0. -1.
         11    1    3    3    0    0 -0.30941677936E+01 -0.11730985122E+02  0.24656121240E+01  0.12380191020E+02  0.51100000000E-03 0. -1.
        -11    1    3    3    0    0  0.19008870198E+01 -0.15320448633E+02  0.67989868073E+01  0.16868780028E+02  0.51100000000E-03 0.  1.
         12    1    3    3    0    0  0.19813570046E+02 -0.64346407601E+01  0.43417945842E+01  0.21279881106E+02  0.00000000000E+00 0. -1.
</event>
<event>
 7    1  0.2432574E-011  0.5052885E+02  0.7816164E-02  0.1300439E+00
        -11   -1    0    0    0    0  0.00000000000E+00  0.00000000000E+00  0.45593999997E+02  0.45594000000E+02  0.51100000000E-03 0.  1.
         11   -1    0    0    0    0 -0.00000000000E+00 -0.00000000000E+00 -0.45593999997E+02  0.45594000000E+02  0.51100000000E-03 0. -1.
    9900012    2    1    2    0    0 -0.10850561266E+02 -0.26779357054E+02  0.28605909127E+02  0.50528847513E+02  0.29999962500E+02 0.  0.
         12    1    1    2    0    0  0.10850561266E+02  0.26779357054E+02 -0.28605909127E+02  0.40659152487E+02  0.00000000000E+00 0. -1.
         11    1    3    3    0    0 -0.87426135763E+01 -0.85234713528E+01  0.22946865171E+01  0.12423704863E+02  0.51100000000E-03 0. -1.
        -11    1    3    3    0    0  0.58164539871E+01 -0.34240589615E+01 -0.15180942721E+00  0.67511749436E+01  0.51100000000E-03 0.  1.
        -12    1    3    3    0    0 -0.79244016771E+01 -0.14831826739E+02  0.26463032037E+02  0.31353967707E+02  0.00000000000E+00 0.  1.
</event>
<event>
 7    1  0.2432574E-011  0.5052886E+02  0.7816164E-02  0.1300439E+00
        -11   -1    0    0    0    0  0.00000000000E+00  0.00000000000E+00  0.45593999997E+02  0.45594000000E+02  0.51100000000E-03 0.  1.
         11   -1    0    0    0    0 -0.00000000000E+00 -0.00000000000E+00 -0.45593999997E+02  0.45594000000E+02  0.51100000000E-03 0. -1.
    9900012    2    1    2    0    0 -0.37652747600E+02  0.76974048880E+01  0.13273505052E+02  0.50528863509E+02  0.30000011122E+02 0.  0.
         12    1    1    2    0    0  0.37652747600E+02 -0.76974048880E+01 -0.13273505052E+02  0.40659136491E+02  0.00000000000E+00 0. -1.
         11    1    3    3    0    0 -0.24598636375E+02 -0.45222700283E+01  0.32901993526E+01  0.25226360217E+02  0.51100000000E-03 0.  1.
        -11    1    3    3    0    0 -0.14929997631E+01 -0.14622055620E+01  0.67943644819E+01  0.71084796105E+01  0.51100000000E-03 0. -1.
        -12    1    3    3    0    0 -0.11561111461E+02  0.13681880478E+02  0.31889412173E+01  0.18194023682E+02  0.00000000000E+00 0.  1.
</event>
<event>
 7    1  0.2432574E-011  0.5052887E+02  0.7816164E-02  0.1300439E+00
        -11   -1    0    0    0    0  0.00000000000E+00  0.00000000000E+00  0.45593999997E+02  0.45594000000E+02  0.51100000000E-03 0.  1.
         11   -1    0    0    0    0 -0.00000000000E+00 -0.00000000000E+00 -0.45593999997E+02  0.45594000000E+02  0.51100000000E-03 0. -1.
    9900012    2    1    2    0    0  0.19044108386E+02  0.19209837504E+02  0.30355712753E+02  0.50528865505E+02  0.30000017190E+02 0.  0.
         12    1    1    2    0    0 -0.19044108386E+02 -0.19209837504E+02 -0.30355712753E+02  0.40659134495E+02  0.00000000000E+00 0. -1.
         11    1    3    3    0    0 -0.72002943353E+01  0.20154594615E+01  0.41229393892E+01  0.85384392499E+01  0.51100000000E-03 0. -1.
        -11    1    3    3    0    0  0.28280494643E+01  0.59617567476E+01  0.73689164385E+01  0.98914780003E+01  0.51100000000E-03 0.  1.
        -12    1    3    3    0    0  0.23416353257E+02  0.11232621295E+02  0.18863856925E+02  0.32098948255E+02  0.00000000000E+00 0.  1.
</event>
<event>
 7    1  0.2450789E-011  0.5052883E+02  0.7816164E-02  0.1300439E+00
        -11   -1    0    0    0    0  0.00000000000E+00  0.00000000000E+00  0.45593999997E+02  0.45594000000E+02  0.51100000000E-03 0.  1.
         11   -1    0    0    0    0 -0.00000000000E+00 -0.00000000000E+00 -0.45593999997E+02  0.45594000000E+02  0.51100000000E-03 0. -1.
    9900012    2    1    2    0    0 -0.37496942519E+02  0.72823975875E+01  0.13932481989E+02  0.50528830465E+02  0.29999910681E+02 0.  0.
         12    1    1    2    0    0  0.37496942519E+02 -0.72823975875E+01 -0.13932481989E+02  0.40659169535E+02  0.00000000000E+00 0. -1.
         11    1    3    3    0    0 -0.22546264235E+00  0.66525632477E+01 -0.26698338440E+00  0.66617348759E+01  0.51100000000E-03 0. -1.
        -11    1    3    3    0    0 -0.15947872870E+02  0.31853300719E+01  0.15346099802E+02  0.22360316548E+02  0.51100000000E-03 0.  1.
         12    1    3    3    0    0 -0.21323607006E+02 -0.25554957321E+01 -0.11466344283E+01  0.21506779041E+02  0.00000000000E+00 0. -1.
</event>
<event>
 7    1  0.2432574E-011  0.5052892E+02  0.7816164E-02  0.1300439E+00
        -11   -1    0    0    0    0  0.00000000000E+00  0.00000000000E+00  0.45593999997E+02  0.45594000000E+02  0.51100000000E-03 0.  1.
         11   -1    0    0    0    0 -0.00000000000E+00 -0.00000000000E+00 -0.45593999997E+02  0.45594000000E+02  0.51100000000E-03 0. -1.
    9900012    2    1    2    0    0  0.35850225108E+02  0.18647362937E+02 -0.44941788536E+01  0.50528924403E+02  0.30000196216E+02 0.  0.
         12    1    1    2    0    0 -0.35850225108E+02 -0.18647362937E+02  0.44941788536E+01  0.40659075597E+02  0.00000000000E+00 0. -1.
         11    1    3    3    0    0 -0.11776139551E+01  0.28108145847E+01 -0.24397893894E+01  0.39038475614E+01  0.51100000000E-03 0. -1.
        -11    1    3    3    0    0  0.47020133055E+01  0.86931755453E+01 -0.83351768229E+01  0.12928859312E+02  0.51100000000E-03 0.  1.
        -12    1    3    3    0    0  0.32325825758E+02  0.71433728069E+01  0.62807873586E+01  0.33696217530E+02  0.00000000000E+00 0.  1.
</event>
<event>
 7    1  0.2432574E-011  0.5052874E+02  0.7816164E-02  0.1300439E+00
        -11   -1    0    0    0    0  0.00000000000E+00  0.00000000000E+00  0.45593999997E+02  0.45594000000E+02  0.51100000000E-03 0. -1.
         11   -1    0    0    0    0 -0.00000000000E+00 -0.00000000000E+00 -0.45593999997E+02  0.45594000000E+02  0.51100000000E-03 0.  1.
    9900012    2    1    2    0    0 -0.25317206129E+02  0.16247338189E+02 -0.27353946956E+02  0.50528741049E+02  0.29999638889E+02 0.  0.
         12    1    1    2    0    0  0.25317206129E+02 -0.16247338189E+02  0.27353946956E+02  0.40659258951E+02  0.00000000000E+00 0. -1.
         11    1    3    3    0    0 -0.98482082305E+01  0.88576363812E+01 -0.52790528089E+01  0.14258798211E+02  0.51100000000E-03 0. -1.
        -11    1    3    3    0    0  0.14477240053E+01  0.11000251151E+02 -0.11580231459E+02  0.16037555646E+02  0.51100000000E-03 0.  1.
         12    1    3    3    0    0 -0.16916721904E+02 -0.36105493432E+01 -0.10494662688E+02  0.20232387191E+02  0.00000000000E+00 0. -1.
</event>
<event>
 7    1  0.2432574E-011  0.5052886E+02  0.7816164E-02  0.1300439E+00
        -11   -1    0    0    0    0  0.00000000000E+00  0.00000000000E+00  0.45593999997E+02  0.45594000000E+02  0.51100000000E-03 0. -1.
         11   -1    0    0    0    0 -0.00000000000E+00 -0.00000000000E+00 -0.45593999997E+02  0.45594000000E+02  0.51100000000E-03 0.  1.
    9900012    2    1    2    0    0  0.41371048988E+01  0.26171374135E+02 -0.30840053395E+02  0.50528863826E+02  0.30000012084E+02 0.  0.
         12    1    1    2    0    0 -0.41371048988E+01 -0.26171374135E+02  0.30840053395E+02  0.40659136174E+02  0.00000000000E+00 0. -1.
         11    1    3    3    0    0  0.91152422354E+01  0.16312034206E+02 -0.88208199656E+01  0.20663420967E+02  0.51100000000E-03 0. -1.
        -11    1    3    3    0    0  0.55376742963E+01  0.46971614543E+01 -0.13673550772E+02  0.15482091374E+02  0.51100000000E-03 0.  1.
         12    1    3    3    0    0 -0.10515811633E+02  0.51621784742E+01 -0.83456826575E+01  0.14383351484E+02  0.00000000000E+00 0. -1.
</event>
<event>
 7    1  0.2432574E-011  0.5052891E+02  0.7816164E-02  0.1300439E+00
        -11   -1    0    0    0    0  0.00000000000E+00  0.00000000000E+00  0.45593999997E+02  0.45594000000E+02  0.51100000000E-03 0.  1.
         11   -1    0    0    0    0 -0.00000000000E+00 -0.00000000000E+00 -0.45593999997E+02  0.45594000000E+02  0.51100000000E-03 0. -1.
    9900012    2    1    2    0    0 -0.35181373784E+02  0.36831969019E+01 -0.20046605443E+02  0.50528912571E+02  0.30000160251E+02 0.  0.
         12    1    1    2    0    0  0.35181373784E+02 -0.36831969019E+01  0.20046605443E+02  0.40659087429E+02  0.00000000000E+00 0. -1.
         11    1    3    3    0    0 -0.11418863934E+02 -0.17842544145E-01  0.74232668789E+01  0.13619679267E+02  0.51100000000E-03 0. -1.
        -11    1    3    3    0    0 -0.52476552404E+01 -0.11906380481E+01 -0.45900538941E+01  0.70727716982E+01  0.51100000000E-03 0.  1.
        -12    1    3    3    0    0 -0.18514854609E+02  0.48916774941E+01 -0.22879818428E+02  0.29836461606E+02  0.00000000000E+00 0.  1.
</event>
<event>
 7    1  0.2432574E-011  0.5052885E+02  0.7816164E-02  0.1300439E+00
        -11   -1    0    0    0    0  0.00000000000E+00  0.00000000000E+00  0.45593999997E+02  0.45594000000E+02  0.51100000000E-03 0. -1.
         11   -1    0    0    0    0 -0.00000000000E+00 -0.00000000000E+00 -0.45593999997E+02  0.45594000000E+02  0.51100000000E-03 0.  1.
    9900012    2    1    2    0    0 -0.33944405154E+02 -0.11051277842E+02 -0.19463126892E+02  0.50528847382E+02  0.29999962104E+02 0.  0.
         12    1    1    2    0    0  0.33944405154E+02  0.11051277842E+02  0.19463126892E+02  0.40659152618E+02  0.00000000000E+00 0. -1.
         11    1    3    3    0    0 -0.84670050852E+01  0.20770336943E+01 -0.78609131408E+01  0.11738747793E+02  0.51100000000E-03 0.  1.
        -11    1    3    3    0    0 -0.17419083824E+02  0.12258605036E+01  0.18110469442E+01  0.17555828278E+02  0.51100000000E-03 0. -1.
         12    1    3    3    0    0 -0.80583162447E+01 -0.14354172040E+02 -0.13413260695E+02  0.21234271311E+02  0.00000000000E+00 0. -1.
</event>
<event>
 7    1  0.2432574E-011  0.5052886E+02  0.7816164E-02  0.1300439E+00
        -11   -1    0    0    0    0  0.00000000000E+00  0.00000000000E+00  0.45593999997E+02  0.45594000000E+02  0.51100000000E-03 0.  1.
         11   -1    0    0    0    0 -0.00000000000E+00 -0.00000000000E+00 -0.45593999997E+02  0.45594000000E+02  0.51100000000E-03 0. -1.
    9900012    2    1    2    0    0  0.22752469256E+02  0.17149824003E+02  0.29006452656E+02  0.50528860606E+02  0.30000002298E+02 0.  0.
         12    1    1    2    0    0 -0.22752469256E+02 -0.17149824003E+02 -0.29006452656E+02  0.40659139394E+02  0.00000000000E+00 0. -1.
         11    1    3    3    0    0  0.11433854813E+02  0.13223406073E+02  0.17656122517E+01  0.17570113572E+02  0.51100000000E-03 0. -1.
        -11    1    3    3    0    0  0.12292142349E+02  0.72275799651E+01  0.17187497119E+02  0.22332593516E+02  0.51100000000E-03 0.  1.
        -12    1    3    3    0    0 -0.97352790712E+00 -0.33011620345E+01  0.10053343285E+02  0.10626153517E+02  0.00000000000E+00 0.  1.
</event>
<event>
 7    1  0.2432574E-011  0.5052886E+02  0.7816164E-02  0.1300439E+00
        -11   -1    0    0    0    0  0.00000000000E+00  0.00000000000E+00  0.45593999997E+02  0.45594000000E+02  0.51100000000E-03 0.  1.
         11   -1    0    0    0    0 -0.00000000000E+00 -0.00000000000E+00 -0.45593999997E+02  0.45594000000E+02  0.51100000000E-03 0. -1.
    9900012    2    1    2    0    0 -0.13687703175E+02 -0.26516541203E+02 -0.27616760809E+02  0.50528860152E+02  0.30000000918E+02 0.  0.
         12    1    1    2    0    0  0.13687703175E+02  0.26516541203E+02  0.27616760809E+02  0.40659139848E+02  0.00000000000E+00 0. -1.
         11    1    3    3    0    0 -0.13425285893E+02 -0.17133286354E+02 -0.66278255301E+01  0.22753370610E+02  0.51100000000E-03 0.  1.
        -11    1    3    3    0    0 -0.73417276652E+01 -0.68319883839E+01 -0.82771892717E+01  0.13003418508E+02  0.51100000000E-03 0. -1.
         12    1    3    3    0    0  0.70793103834E+01 -0.25512664648E+01 -0.12711746007E+02  0.14772071034E+02  0.00000000000E+00 0. -1.
</event>
<event>
 7    1  0.2921353E-011  0.5052886E+02  0.7816164E-02  0.1300439E+00
        -11   -1    0    0    0    0  0.00000000000E+00  0.00000000000E+00  0.45593999997E+02  0.45594000000E+02  0.51100000000E-03 0.  1.
         11   -1    0    0    0    0 -0.00000000000E+00 -0.00000000000E+00 -0.45593999997E+02  0.45594000000E+02  0.51100000000E-03 0. -1.
    9900012    2    1    2    0    0 -0.32875524693E+02  0.18266212838E+02  0.15450275531E+02  0.50528859954E+02  0.30000000316E+02 0.  0.
         12    1    1    2    0    0  0.32875524693E+02 -0.18266212838E+02 -0.15450275531E+02  0.40659140046E+02  0.00000000000E+00 0. -1.
         11    1    3    3    0    0 -0.55375495841E+01  0.91526512250E+00 -0.50225147638E+01  0.75317873346E+01  0.51100000000E-03 0. -1.
        -11    1    3    3    0    0 -0.29652734764E+02  0.13794229456E+02  0.14760225472E+02  0.35880770637E+02  0.51100000000E-03 0.  1.
         12    1    3    3    0    0  0.23147596552E+01  0.35567182597E+01  0.57125648232E+01  0.71163019820E+01  0.00000000000E+00 0. -1.
</event>
<event>
 7    1  0.2432574E-011  0.5052885E+02  0.7816164E-02  0.1300439E+00
        -11   -1    0    0    0    0  0.00000000000E+00  0.00000000000E+00  0.45593999997E+02  0.45594000000E+02  0.51100000000E-03 0. -1.
         11   -1    0    0    0    0 -0.00000000000E+00 -0.00000000000E+00 -0.45593999997E+02  0.45594000000E+02  0.51100000000E-03 0.  1.
    9900012    2    1    2    0    0 -0.19450565470E+02 -0.32295665698E+02 -0.15226027170E+02  0.50528850681E+02  0.29999972129E+02 0.  0.
         12    1    1    2    0    0  0.19450565470E+02  0.32295665698E+02  0.15226027170E+02  0.40659149319E+02  0.00000000000E+00 0. -1.
         11    1    3    3    0    0  0.27939986817E+01 -0.14268870804E+02 -0.89364255887E+00  0.14567281831E+02  0.51100000000E-03 0. -1.
        -11    1    3    3    0    0 -0.77823618173E+01 -0.16111985297E+02 -0.47681094644E+01  0.18517453761E+02  0.51100000000E-03 0.  1.
        -12    1    3    3    0    0 -0.14462202334E+02 -0.19148095974E+01 -0.95642751472E+01  0.17444115089E+02  0.00000000000E+00 0.  1.
</event>
<event>
 7    1  0.2432574E-011  0.5052887E+02  0.7816164E-02  0.1300439E+00
        -11   -1    0    0    0    0  0.00000000000E+00  0.00000000000E+00  0.45593999997E+02  0.45594000000E+02  0.51100000000E-03 0. -1.
         11   -1    0    0    0    0 -0.00000000000E+00 -0.00000000000E+00 -0.45593999997E+02  0.45594000000E+02  0.51100000000E-03 0.  1.
    9900012    2    1    2    0    0 -0.39124541638E+02 -0.10463270081E+02 -0.35992766597E+01  0.50528873451E+02  0.30000041343E+02 0.  0.
         12    1    1    2    0    0  0.39124541638E+02  0.10463270081E+02  0.35992766597E+01  0.40659126549E+02  0.00000000000E+00 0. -1.
         11    1    3    3    0    0 -0.10451415422E+02  0.12859983827E+01  0.21383832704E+01  0.10745164468E+02  0.51100000000E-03 0. -1.
        -11    1    3    3    0    0 -0.29561576191E+02 -0.50416194138E+01 -0.10203305758E+02  0.31676681674E+02  0.51100000000E-03 0.  1.
         12    1    3    3    0    0  0.88844997463E+00 -0.67076490502E+01  0.44656458282E+01  0.81070273098E+01  0.00000000000E+00 0. -1.
</event>
<event>
 7    1  0.2432574E-011  0.5052885E+02  0.7816164E-02  0.1300439E+00
        -11   -1    0    0    0    0  0.00000000000E+00  0.00000000000E+00  0.45593999997E+02  0.45594000000E+02  0.51100000000E-03 0. -1.
         11   -1    0    0    0    0 -0.00000000000E+00 -0.00000000000E+00 -0.45593999997E+02  0.45594000000E+02  0.51100000000E-03 0.  1.
    9900012    2    1    2    0    0  0.29952791406E+02 -0.17457080773E+02  0.21242571954E+02  0.50528852870E+02  0.29999978782E+02 0.  0.
         12    1    1    2    0    0 -0.29952791406E+02  0.17457080773E+02 -0.21242571954E+02  0.40659147130E+02  0.00000000000E+00 0. -1.
         11    1    3    3    0    0  0.10415539597E+02 -0.17918980031E+02  0.12614352472E+02  0.24263041833E+02  0.51100000000E-03 0.  1.
        -11    1    3    3    0    0  0.16425277190E+01  0.11596544673E+01  0.81041235980E+01  0.83498212762E+01  0.51100000000E-03 0. -1.
         12    1    3    3    0    0  0.17894724090E+02 -0.69775520982E+00  0.52409588419E+00  0.17915989760E+02  0.00000000000E+00 0. -1.
</event>
<event>
 7    1  0.2432574E-011  0.5052886E+02  0.7816164E-02  0.1300439E+00
        -11   -1    0    0    0    0  0.00000000000E+00  0.00000000000E+00  0.45593999997E+02  0.45594000000E+02  0.51100000000E-03 0. -1.
         11   -1    0    0    0    0 -0.00000000000E+00 -0.00000000000E+00 -0.45593999997E+02  0.45594000000E+02  0.51100000000E-03 0.  1.
    9900012    2    1    2    0    0 -0.21922922270E+02  0.33784299556E+02 -0.55832372926E+01  0.50528856428E+02  0.29999989599E+02 0.  0.
         12    1    1    2    0    0  0.21922922270E+02 -0.33784299556E+02  0.55832372926E+01  0.40659143572E+02  0.00000000000E+00 0. -1.
         11    1    3    3    0    0 -0.59720357879E+00  0.20116288950E+02 -0.52004291424E+01  0.20786202077E+02  0.51100000000E-03 0. -1.
        -11    1    3    3    0    0 -0.13929372448E+01 -0.20969665101E+01 -0.33127263777E+01  0.41607329916E+01  0.51100000000E-03 0.  1.
        -12    1    3    3    0    0 -0.19932781446E+02  0.15764977116E+02  0.29299182274E+01  0.25581921360E+02  0.00000000000E+00 0.  1.
</event>
<event>
 7    1  0.2432574E-011  0.5052885E+02  0.7816164E-02  0.1300439E+00
        -11   -1    0    0    0    0  0.00000000000E+00  0.00000000000E+00  0.45593999997E+02  0.45594000000E+02  0.51100000000E-03 0.  1.
         11   -1    0    0    0    0 -0.00000000000E+00 -0.00000000000E+00 -0.45593999997E+02  0.45594000000E+02  0.51100000000E-03 0. -1.
    9900012    2    1    2    0    0  0.23163821771E+02  0.31300317651E+00  0.33414161712E+02  0.50528845890E+02  0.29999957567E+02 0.  0.
         12    1    1    2    0    0 -0.23163821771E+02 -0.31300317651E+00 -0.33414161712E+02  0.40659154110E+02  0.00000000000E+00 0. -1.
         11    1    3    3    0    0  0.10073255440E+02 -0.38897061826E+01  0.21294435002E+02  0.23875787980E+02  0.51100000000E-03 0.  1.
        -11    1    3    3    0    0  0.90804284411E+01 -0.71327048639E+01  0.43593304071E+01  0.12342342614E+02  0.51100000000E-03 0. -1.
        -12    1    3    3    0    0  0.40101378900E+01  0.11335414223E+02  0.77603963029E+01  0.14310715296E+02  0.00000000000E+00 0.  1.
</event>
<event>
 7    1  0.2432574E-011  0.5052884E+02  0.7816164E-02  0.1300439E+00
        -11   -1    0    0    0    0  0.00000000000E+00  0.00000000000E+00  0.45593999997E+02  0.45594000000E+02  0.51100000000E-03 0. -1.
         11   -1    0    0    0    0 -0.00000000000E+00 -0.00000000000E+00 -0.45593999997E+02  0.45594000000E+02  0.51100000000E-03 0.  1.
    9900012    2    1    2    0    0 -0.18480333191E+02  0.36113428231E+02  0.27322083440E+01  0.50528838967E+02  0.29999936525E+02 0.  0.
         12    1    1    2    0    0  0.18480333191E+02 -0.36113428231E+02 -0.27322083440E+01  0.40659161033E+02  0.00000000000E+00 0. -1.
         11    1    3    3    0    0 -0.11752437226E+02  0.41428908405E+01 -0.21044383694E+01  0.12637720775E+02  0.51100000000E-03 0. -1.
        -11    1    3    3    0    0 -0.37379661871E+01  0.45025189252E+01  0.81817137992E+01  0.10059100797E+02  0.51100000000E-03 0.  1.
        -12    1    3    3    0    0 -0.29899297772E+01  0.27468018465E+02 -0.33450670858E+01  0.27832017395E+02  0.00000000000E+00 0.  1.
</event>
<event>
 7    1  0.2432574E-011  0.5052886E+02  0.7816164E-02  0.1300439E+00
        -11   -1    0    0    0    0  0.00000000000E+00  0.00000000000E+00  0.45593999997E+02  0.45594000000E+02  0.51100000000E-03 0.  1.
         11   -1    0    0    0    0 -0.00000000000E+00 -0.00000000000E+00 -0.45593999997E+02  0.45594000000E+02  0.51100000000E-03 0. -1.
    9900012    2    1    2    0    0 -0.23690751390E+02  0.12313445770E+02  0.30664192036E+02  0.50528864232E+02  0.30000013319E+02 0.  0.
         12    1    1    2    0    0  0.23690751390E+02 -0.12313445770E+02 -0.30664192036E+02  0.40659135768E+02  0.00000000000E+00 0. -1.
         11    1    3    3    0    0 -0.53313479433E+01  0.55258976119E+01  0.85633264986E+01  0.11501711885E+02  0.51100000000E-03 0.  1.
        -11    1    3    3    0    0 -0.13967633416E+02  0.86490129893E+01  0.11504136727E-01  0.16428643935E+02  0.51100000000E-03 0. -1.
         12    1    3    3    0    0 -0.43917700312E+01 -0.18614648312E+01  0.22089361401E+02  0.22598508412E+02  0.00000000000E+00 0. -1.
</event>
<event>
 7    1  0.2432574E-011  0.5052886E+02  0.7816164E-02  0.1300439E+00
        -11   -1    0    0    0    0  0.00000000000E+00  0.00000000000E+00  0.45593999997E+02  0.45594000000E+02  0.51100000000E-03 0.  1.
         11   -1    0    0    0    0 -0.00000000000E+00 -0.00000000000E+00 -0.45593999997E+02  0.45594000000E+02  0.51100000000E-03 0. -1.
    9900012    2    1    2    0    0  0.48049621638E+01  0.14218252339E+02  0.37787816804E+02  0.50528862530E+02  0.30000008146E+02 0.  0.
         12    1    1    2    0    0 -0.48049621638E+01 -0.14218252339E+02 -0.37787816804E+02  0.40659137470E+02  0.00000000000E+00 0. -1.
         11    1    3    3    0    0  0.95203284492E+01  0.31353144603E+00  0.82475662708E+01  0.12599893071E+02  0.51100000000E-03 0. -1.
        -11    1    3    3    0    0 -0.15311813206E+01 -0.46844849282E+01  0.63215911118E+01  0.80156989543E+01  0.51100000000E-03 0.  1.
         12    1    3    3    0    0 -0.31841849649E+01  0.18589205821E+02  0.23218659422E+02  0.29913270505E+02  0.00000000000E+00 0. -1.
</event>
<event>
 7    1  0.2432574E-011  0.5052885E+02  0.7816164E-02  0.1300439E+00
        -11   -1    0    0    0    0  0.00000000000E+00  0.00000000000E+00  0.45593999997E+02  0.45594000000E+02  0.51100000000E-03 0. -1.
         11   -1    0    0    0    0 -0.00000000000E+00 -0.00000000000E+00 -0.45593999997E+02  0.45594000000E+02  0.51100000000E-03 0.  1.
    9900012    2    1    2    0    0 -0.15124458583E+02 -0.30913186957E+02 -0.21651613810E+02  0.50528846592E+02  0.29999959702E+02 0.  0.
         12    1    1    2    0    0  0.15124458583E+02  0.30913186957E+02  0.21651613810E+02  0.40659153408E+02  0.00000000000E+00 0. -1.
         11    1    3    3    0    0  0.55750669194E+01 -0.73929559315E+01 -0.62622232301E+01  0.11178220279E+02  0.51100000000E-03 0. -1.
        -11    1    3    3    0    0 -0.24590958285E+01 -0.13047157985E+02  0.19732155513E-01  0.13276892460E+02  0.51100000000E-03 0.  1.
        -12    1    3    3    0    0 -0.18240429673E+02 -0.10473073041E+02 -0.15409122736E+02  0.26073733854E+02  0.00000000000E+00 0.  1.
</event>
<event>
 7    1  0.2432574E-011  0.5052886E+02  0.7816164E-02  0.1300439E+00
        -11   -1    0    0    0    0  0.00000000000E+00  0.00000000000E+00  0.45593999997E+02  0.45594000000E+02  0.51100000000E-03 0.  1.
         11   -1    0    0    0    0 -0.00000000000E+00 -0.00000000000E+00 -0.45593999997E+02  0.45594000000E+02  0.51100000000E-03 0. -1.
    9900012    2    1    2    0    0 -0.38580368892E+02  0.73190760778E+01  0.10542879377E+02  0.50528855346E+02  0.29999986308E+02 0.  0.
         12    1    1    2    0    0  0.38580368892E+02 -0.73190760778E+01 -0.10542879377E+02  0.40659144654E+02  0.00000000000E+00 0. -1.
         11    1    3    3    0    0 -0.68548992634E+01  0.26836489436E+01  0.11822001649E+02  0.13926641333E+02  0.51100000000E-03 0. -1.
        -11    1    3    3    0    0 -0.17875033457E+02 -0.53374374405E+01 -0.46027165331E+01  0.19214319120E+02  0.51100000000E-03 0.  1.
         12    1    3    3    0    0 -0.13850436172E+02  0.99728645746E+01  0.33235942611E+01  0.17387894892E+02  0.00000000000E+00 0. -1.
</event>
<event>
 7    1  0.2432574E-011  0.5052886E+02  0.7816164E-02  0.1300439E+00
        -11   -1    0    0    0    0  0.00000000000E+00  0.00000000000E+00  0.45593999997E+02  0.45594000000E+02  0.51100000000E-03 0.  1.
         11   -1    0    0    0    0 -0.00000000000E+00 -0.00000000000E+00 -0.45593999997E+02  0.45594000000E+02  0.51100000000E-03 0. -1.
    9900012    2    1    2    0    0 -0.24081901013E+02 -0.26471859002E+02  0.19299433924E+02  0.50528862955E+02  0.30000009439E+02 0.  0.
         12    1    1    2    0    0  0.24081901013E+02  0.26471859002E+02 -0.19299433924E+02  0.40659137045E+02  0.00000000000E+00 0. -1.
         11    1    3    3    0    0 -0.81092814416E+01 -0.12225881294E+02 -0.55185531683E+01  0.15674407429E+02  0.51100000000E-03 0. -1.
        -11    1    3    3    0    0 -0.77506817757E+01  0.21452612041E+00  0.65746520843E+01  0.10165881159E+02  0.51100000000E-03 0.  1.
        -12    1    3    3    0    0 -0.82219377960E+01 -0.14460503829E+02  0.18243335008E+02  0.24688574368E+02  0.00000000000E+00 0.  1.
</event>
<event>
 7    1  0.2432574E-011  0.5052886E+02  0.7816164E-02  0.1300439E+00
        -11   -1    0    0    0    0  0.00000000000E+00  0.00000000000E+00  0.45593999997E+02  0.45594000000E+02  0.51100000000E-03 0.  1.
         11   -1    0    0    0    0 -0.00000000000E+00 -0.00000000000E+00 -0.45593999997E+02  0.45594000000E+02  0.51100000000E-03 0. -1.
    9900012    2    1    2    0    0  0.11075981810E+02  0.62504690619E+01  0.38618904815E+02  0.50528861474E+02  0.30000004938E+02 0.  0.
         12    1    1    2    0    0 -0.11075981810E+02 -0.62504690619E+01 -0.38618904815E+02  0.40659138526E+02  0.00000000000E+00 0. -1.
         11    1    3    3    0    0  0.15165598160E+02 -0.23844178119E+01  0.74631373145E+01  0.17069834056E+02  0.51100000000E-03 0.  1.
        -11    1    3    3    0    0 -0.36538764165E+00  0.84575263562E+01  0.21160824223E+02  0.22791308481E+02  0.51100000000E-03 0. -1.
        -12    1    3    3    0    0 -0.37242287087E+01  0.17736051754E+00  0.99949432773E+01  0.10667718938E+02  0.00000000000E+00 0.  1.
</event>
<event>
 7    1  0.2432574E-011  0.5052886E+02  0.7816164E-02  0.1300439E+00
        -11   -1    0    0    0    0  0.00000000000E+00  0.00000000000E+00  0.45593999997E+02  0.45594000000E+02  0.51100000000E-03 0.  1.
         11   -1    0    0    0    0 -0.00000000000E+00 -0.00000000000E+00 -0.45593999997E+02  0.45594000000E+02  0.51100000000E-03 0. -1.
    9900012    2    1    2    0    0 -0.37610224729E+02 -0.83113021988E+01  0.13021479110E+02  0.50528859986E+02  0.30000000415E+02 0.  0.
         12    1    1    2    0    0  0.37610224729E+02  0.83113021988E+01 -0.13021479110E+02  0.40659140014E+02  0.00000000000E+00 0. -1.
         11    1    3    3    0    0 -0.12225935382E+02  0.34658246835E-01  0.16198652850E+02  0.20294606465E+02  0.51100000000E-03 0.  1.
        -11    1    3    3    0    0 -0.13845089880E+01 -0.54368448528E+01  0.10051812021E+01  0.56996961850E+01  0.51100000000E-03 0. -1.
         12    1    3    3    0    0 -0.23999780359E+02 -0.29091155928E+01 -0.41823549421E+01  0.24534557336E+02  0.00000000000E+00 0. -1.
</event>
<event>
 7    1  0.2432574E-011  0.5052886E+02  0.7816164E-02  0.1300439E+00
        -11   -1    0    0    0    0  0.00000000000E+00  0.00000000000E+00  0.45593999997E+02  0.45594000000E+02  0.51100000000E-03 0.  1.
         11   -1    0    0    0    0 -0.00000000000E+00 -0.00000000000E+00 -0.45593999997E+02  0.45594000000E+02  0.51100000000E-03 0. -1.
    9900012    2    1    2    0    0  0.39289907185E+02  0.74378664088E+00  0.10436278961E+02  0.50528856579E+02  0.29999990059E+02 0.  0.
         12    1    1    2    0    0 -0.39289907185E+02 -0.74378664088E+00 -0.10436278961E+02  0.40659143421E+02  0.00000000000E+00 0. -1.
         11    1    3    3    0    0 -0.42175309649E+01  0.39365293740E+00  0.30019669047E+01  0.51917565075E+01  0.51100000000E-03 0. -1.
        -11    1    3    3    0    0  0.25444482084E+02 -0.15860057693E+01  0.91585284474E+01  0.27089033323E+02  0.51100000000E-03 0.  1.
        -12    1    3    3    0    0  0.18062956066E+02  0.19361394728E+01 -0.17242163912E+01  0.18248066748E+02  0.00000000000E+00 0.  1.
</event>
<event>
 7    1  0.2432574E-011  0.5052886E+02  0.7816164E-02  0.1300439E+00
        -11   -1    0    0    0    0  0.00000000000E+00  0.00000000000E+00  0.45593999997E+02  0.45594000000E+02  0.51100000000E-03 0.  1.
         11   -1    0    0    0    0 -0.00000000000E+00 -0.00000000000E+00 -0.45593999997E+02  0.45594000000E+02  0.51100000000E-03 0. -1.
    9900012    2    1    2    0    0 -0.33508692494E+02  0.15219079739E+01  0.22978615469E+02  0.50528862707E+02  0.30000008683E+02 0.  0.
         12    1    1    2    0    0  0.33508692494E+02 -0.15219079739E+01 -0.22978615469E+02  0.40659137293E+02  0.00000000000E+00 0. -1.
         11    1    3    3    0    0 -0.16746820384E+02  0.78185132364E+00 -0.22417292724E+01  0.16914273110E+02  0.51100000000E-03 0. -1.
        -11    1    3    3    0    0  0.26323237046E+01 -0.68067277426E+00  0.39439750008E+01  0.47903426370E+01  0.51100000000E-03 0.  1.
         12    1    3    3    0    0 -0.19394195815E+02  0.14207294246E+01  0.21276369741E+02  0.28824246959E+02  0.00000000000E+00 0. -1.
</event>
<event>
 7    1  0.2432574E-011  0.5052887E+02  0.7816164E-02  0.1300439E+00
        -11   -1    0    0    0    0  0.00000000000E+00  0.00000000000E+00  0.45593999997E+02  0.45594000000E+02  0.51100000000E-03 0. -1.
         11   -1    0    0    0    0 -0.00000000000E+00 -0.00000000000E+00 -0.45593999997E+02  0.45594000000E+02  0.51100000000E-03 0.  1.
    9900012    2    1    2    0    0 -0.18451907309E+01 -0.15027646728E+01 -0.40589431817E+02  0.50528868114E+02  0.30000025121E+02 0.  0.
         12    1    1    2    0    0  0.18451907309E+01  0.15027646728E+01  0.40589431817E+02  0.40659131886E+02  0.00000000000E+00 0. -1.
         11    1    3    3    0    0 -0.31657122410E+01 -0.20002314216E+01 -0.93251651127E+00  0.38590474262E+01  0.51100000000E-03 0. -1.
        -11    1    3    3    0    0 -0.67539141786E+01  0.78087724944E+01 -0.31246617467E+02  0.32908105202E+02  0.51100000000E-03 0.  1.
         12    1    3    3    0    0  0.80744356887E+01 -0.73113057457E+01 -0.84102978386E+01  0.13761715487E+02  0.00000000000E+00 0. -1.
</event>
<event>
 7    1  0.2432574E-011  0.5052885E+02  0.7816164E-02  0.1300439E+00
        -11   -1    0    0    0    0  0.00000000000E+00  0.00000000000E+00  0.45593999997E+02  0.45594000000E+02  0.51100000000E-03 0.  1.
         11   -1    0    0    0    0 -0.00000000000E+00 -0.00000000000E+00 -0.45593999997E+02  0.45594000000E+02  0.51100000000E-03 0. -1.
    9900012    2    1    2    0    0 -0.33479060703E+02  0.61983381021E+01  0.22223844036E+02  0.50528854110E+02  0.29999982552E+02 0.  0.
         12    1    1    2    0    0  0.33479060703E+02 -0.61983381021E+01 -0.22223844036E+02  0.40659145890E+02  0.00000000000E+00 0. -1.
         11    1    3    3    0    0 -0.15020753875E+02  0.11152054554E+01  0.73543072914E-01  0.15062275360E+02  0.51100000000E-03 0. -1.
        -11    1    3    3    0    0 -0.15196872540E+02  0.35186960110E+01  0.25913849066E+02  0.30246549064E+02  0.51100000000E-03 0.  1.
         12    1    3    3    0    0 -0.32614342884E+01  0.15644366358E+01 -0.37635481022E+01  0.52200296860E+01  0.00000000000E+00 0. -1.
</event>
<event>
 7    1  0.2432574E-011  0.5052886E+02  0.7816164E-02  0.1300439E+00
        -11   -1    0    0    0    0  0.00000000000E+00  0.00000000000E+00  0.45593999997E+02  0.45594000000E+02  0.51100000000E-03 0. -1.
         11   -1    0    0    0    0 -0.00000000000E+00 -0.00000000000E+00 -0.45593999997E+02  0.45594000000E+02  0.51100000000E-03 0.  1.
    9900012    2    1    2    0    0  0.83743772537E+01  0.28829777194E+02 -0.27420414057E+02  0.50528863825E+02  0.30000012082E+02 0.  0.
         12    1    1    2    0    0 -0.83743772537E+01 -0.28829777194E+02  0.27420414057E+02  0.40659136175E+02  0.00000000000E+00 0. -1.
         11    1    3    3    0    0  0.13657849045E+02  0.13860880820E+02 -0.42086357366E+01  0.19909130384E+02  0.51100000000E-03 0. -1.
        -11    1    3    3    0    0  0.10985218716E+01  0.31394481444E+01  0.49982248902E+00  0.33634368933E+01  0.51100000000E-03 0.  1.
        -12    1    3    3    0    0 -0.63819936625E+01  0.11829448230E+02 -0.23711600810E+02  0.27256296548E+02  0.00000000000E+00 0.  1.
</event>
<event>
 7    1  0.2432574E-011  0.5052886E+02  0.7816164E-02  0.1300439E+00
        -11   -1    0    0    0    0  0.00000000000E+00  0.00000000000E+00  0.45593999997E+02  0.45594000000E+02  0.51100000000E-03 0. -1.
         11   -1    0    0    0    0 -0.00000000000E+00 -0.00000000000E+00 -0.45593999997E+02  0.45594000000E+02  0.51100000000E-03 0.  1.
    9900012    2    1    2    0    0 -0.54195820163E+01 -0.26080337055E+02 -0.30718236975E+02  0.50528856711E+02  0.29999990459E+02 0.  0.
         12    1    1    2    0    0  0.54195820163E+01  0.26080337055E+02  0.30718236975E+02  0.40659143289E+02  0.00000000000E+00 0. -1.
         11    1    3    3    0    0 -0.55513922722E+01 -0.20094593327E+02 -0.16405909716E+02  0.26528560289E+02  0.51100000000E-03 0. -1.
        -11    1    3    3    0    0  0.14959165734E+01 -0.85580740529E+01 -0.17588551140E+02  0.19617225323E+02  0.51100000000E-03 0.  1.
         12    1    3    3    0    0 -0.13641063174E+01  0.25723303247E+01  0.32762238812E+01  0.43830710996E+01  0.00000000000E+00 0. -1.
</event>
<event>
 7    1  0.2432574E-011  0.5052887E+02  0.7816164E-02  0.1300439E+00
        -11   -1    0    0    0    0  0.00000000000E+00  0.00000000000E+00  0.45593999997E+02  0.45594000000E+02  0.51100000000E-03 0.  1.
         11   -1    0    0    0    0 -0.00000000000E+00 -0.00000000000E+00 -0.45593999997E+02  0.45594000000E+02  0.51100000000E-03 0. -1.
    9900012    2    1    2    0    0  0.19354899733E+02  0.28951659649E+02  0.20984612658E+02  0.50528871769E+02  0.30000036229E+02 0.  0.
         12    1    1    2    0    0 -0.19354899733E+02 -0.28951659649E+02 -0.20984612658E+02  0.40659128231E+02  0.00000000000E+00 0. -1.
         11    1    3    3    0    0  0.67281623665E+01  0.38520949274E-01 -0.37684941424E+01  0.77117573260E+01  0.51100000000E-03 0. -1.
        -11    1    3    3    0    0  0.13465222008E+02  0.19845494340E+02  0.11150781748E+02  0.26447982591E+02  0.51100000000E-03 0.  1.
         12    1    3    3    0    0 -0.83848464155E+00  0.90676443602E+01  0.13602325053E+02  0.16369131852E+02  0.00000000000E+00 0. -1.
</event>
<event>
 7    1  0.2432574E-011  0.5052885E+02  0.7816164E-02  0.1300439E+00
        -11   -1    0    0    0    0  0.00000000000E+00  0.00000000000E+00  0.45593999997E+02  0.45594000000E+02  0.51100000000E-03 0.  1.
         11   -1    0    0    0    0 -0.00000000000E+00 -0.00000000000E+00 -0.45593999997E+02  0.45594000000E+02  0.51100000000E-03 0. -1.
    9900012    2    1    2    0    0  0.21519993261E+01  0.14542045329E+02  0.37908631078E+02  0.50528849817E+02  0.29999969503E+02 0.  0.
         12    1    1    2    0    0 -0.21519993261E+01 -0.14542045329E+02 -0.37908631078E+02  0.40659150183E+02  0.00000000000E+00 0. -1.
         11    1    3    3    0    0 -0.86425647843E+00  0.13026454178E+01 -0.33097855609E+01  0.36603968453E+01  0.51100000000E-03 0. -1.
        -11    1    3    3    0    0  0.34713751824E+01  0.12286619786E+02  0.11658405131E+02  0.17289588830E+02  0.51100000000E-03 0.  1.
        -12    1    3    3    0    0 -0.45511937787E+00  0.95278012497E+00  0.29560011507E+02  0.29578864142E+02  0.00000000000E+00 0.  1.
</event>
<event>
 7    1  0.2432574E-011  0.5052885E+02  0.7816164E-02  0.1300439E+00
        -11   -1    0    0    0    0  0.00000000000E+00  0.00000000000E+00  0.45593999997E+02  0.45594000000E+02  0.51100000000E-03 0.  1.
         11   -1    0    0    0    0 -0.00000000000E+00 -0.00000000000E+00 -0.45593999997E+02  0.45594000000E+02  0.51100000000E-03 0. -1.
    9900012    2    1    2    0    0 -0.57515089009E+01  0.24943976341E+02  0.31589312424E+02  0.50528850110E+02  0.29999970396E+02 0.  0.
         12    1    1    2    0    0  0.57515089009E+01 -0.24943976341E+02 -0.31589312424E+02  0.40659149890E+02  0.00000000000E+00 0. -1.
         11    1    3    3    0    0  0.33770713081E+01  0.13218992605E+02 -0.19954551582E-01  0.13643561652E+02  0.51100000000E-03 0. -1.
        -11    1    3    3    0    0 -0.28320758001E+01  0.12073803334E+02  0.17688695384E+02  0.21602947135E+02  0.51100000000E-03 0.  1.
        -12    1    3    3    0    0 -0.62965044089E+01 -0.34881959812E+00  0.13920571592E+02  0.15282341323E+02  0.00000000000E+00 0.  1.
</event>
<event>
 7    1  0.2432574E-011  0.5052885E+02  0.7816164E-02  0.1300439E+00
        -11   -1    0    0    0    0  0.00000000000E+00  0.00000000000E+00  0.45593999997E+02  0.45594000000E+02  0.51100000000E-03 0.  1.
         11   -1    0    0    0    0 -0.00000000000E+00 -0.00000000000E+00 -0.45593999997E+02  0.45594000000E+02  0.51100000000E-03 0. -1.
    9900012    2    1    2    0    0 -0.17724586017E+02  0.13941951610E+02  0.33832338874E+02  0.50528854438E+02  0.29999983549E+02 0.  0.
         12    1    1    2    0    0  0.17724586017E+02 -0.13941951610E+02 -0.33832338874E+02  0.40659145562E+02  0.00000000000E+00 0. -1.
         11    1    3    3    0    0  0.25793815483E+01 -0.43859599645E+01  0.11285546233E+02  0.12379556051E+02  0.51100000000E-03 0. -1.
        -11    1    3    3    0    0 -0.59259552872E+01  0.86782570321E+01  0.16964904081E+02  0.19955877879E+02  0.51100000000E-03 0.  1.
        -12    1    3    3    0    0 -0.14378012278E+02  0.96496545420E+01  0.55818885591E+01  0.18193420507E+02  0.00000000000E+00 0.  1.
</event>
<event>
 7    1  0.2432574E-011  0.5052885E+02  0.7816164E-02  0.1300439E+00
        -11   -1    0    0    0    0  0.00000000000E+00  0.00000000000E+00  0.45593999997E+02  0.45594000000E+02  0.51100000000E-03 0. -1.
         11   -1    0    0    0    0 -0.00000000000E+00 -0.00000000000E+00 -0.45593999997E+02  0.45594000000E+02  0.51100000000E-03 0.  1.
    9900012    2    1    2    0    0 -0.10688622189E+02  0.12580231065E+02 -0.37157196679E+02  0.50528854375E+02  0.29999983358E+02 0.  0.
         12    1    1    2    0    0  0.10688622189E+02 -0.12580231065E+02  0.37157196679E+02  0.40659145625E+02  0.00000000000E+00 0. -1.
         11    1    3    3    0    0  0.68530836928E+01  0.33531756204E+01 -0.11818584936E+02  0.14067248949E+02  0.51100000000E-03 0.  1.
        -11    1    3    3    0    0 -0.76132627489E+01  0.13369712685E+02 -0.13543381237E+02  0.20497174502E+02  0.51100000000E-03 0. -1.
         12    1    3    3    0    0 -0.99284431327E+01 -0.41426572405E+01 -0.11795230506E+02  0.15964430924E+02  0.00000000000E+00 0. -1.
</event>
<event>
 7    1  0.2432574E-011  0.5052885E+02  0.7816164E-02  0.1300439E+00
        -11   -1    0    0    0    0  0.00000000000E+00  0.00000000000E+00  0.45593999997E+02  0.45594000000E+02  0.51100000000E-03 0.  1.
         11   -1    0    0    0    0 -0.00000000000E+00 -0.00000000000E+00 -0.45593999997E+02  0.45594000000E+02  0.51100000000E-03 0. -1.
    9900012    2    1    2    0    0  0.16401776024E+02  0.25671957099E+02  0.26927652590E+02  0.50528854509E+02  0.29999983765E+02 0.  0.
         12    1    1    2    0    0 -0.16401776024E+02 -0.25671957099E+02 -0.26927652590E+02  0.40659145491E+02  0.00000000000E+00 0. -1.
         11    1    3    3    0    0 -0.33416684764E+01 -0.24260492290E+01  0.90089928408E+01  0.99103186293E+01  0.51100000000E-03 0. -1.
        -11    1    3    3    0    0  0.32010848137E+01  0.13669192145E+02  0.10188021640E+02  0.17346167966E+02  0.51100000000E-03 0.  1.
        -12    1    3    3    0    0  0.16542359687E+02  0.14428814183E+02  0.77306381091E+01  0.23272367914E+02  0.00000000000E+00 0.  1.
</event>
<event>
 7    1  0.2432574E-011  0.5052886E+02  0.7816164E-02  0.1300439E+00
        -11   -1    0    0    0    0  0.00000000000E+00  0.00000000000E+00  0.45593999997E+02  0.45594000000E+02  0.51100000000E-03 0. -1.
         11   -1    0    0    0    0 -0.00000000000E+00 -0.00000000000E+00 -0.45593999997E+02  0.45594000000E+02  0.51100000000E-03 0.  1.
    9900012    2    1    2    0    0 -0.21230186338E+02  0.12048330462E+02 -0.32515883426E+02  0.50528858914E+02  0.29999997155E+02 0.  0.
         12    1    1    2    0    0  0.21230186338E+02 -0.12048330462E+02  0.32515883426E+02  0.40659141086E+02  0.00000000000E+00 0. -1.
         11    1    3    3    0    0  0.11219307662E+01  0.27217123632E+01  0.16889867875E+00  0.29487241066E+01  0.51100000000E-03 0. -1.
        -11    1    3    3    0    0 -0.67923282244E+01  0.11813919660E+02 -0.28001713501E+02  0.31141618129E+02  0.51100000000E-03 0.  1.
         12    1    3    3    0    0 -0.15559788880E+02 -0.24873015605E+01 -0.46830686037E+01  0.16438516678E+02  0.00000000000E+00 0. -1.
</event>
<event>
 7    1  0.2432574E-011  0.5052886E+02  0.7816164E-02  0.1300439E+00
        -11   -1    0    0    0    0  0.00000000000E+00  0.00000000000E+00  0.45593999997E+02  0.45594000000E+02  0.51100000000E-03 0. -1.
         11   -1    0    0    0    0 -0.00000000000E+00 -0.00000000000E+00 -0.45593999997E+02  0.45594000000E+02  0.51100000000E-03 0.  1.
    9900012    2    1    2    0    0  0.16876455825E+02 -0.11333323168E+02 -0.35212304421E+02  0.50528863783E+02  0.30000011955E+02 0.  0.
         12    1    1    2    0    0 -0.16876455825E+02  0.11333323168E+02  0.35212304421E+02  0.40659136217E+02  0.00000000000E+00 0. -1.
         11    1    3    3    0    0  0.62569995182E+01 -0.33790601368E+01 -0.79960376748E+01  0.10700687321E+02  0.51100000000E-03 0. -1.
        -11    1    3    3    0    0  0.45481917770E+01  0.66783054366E+01 -0.21530416623E+02  0.22996622625E+02  0.51100000000E-03 0.  1.
         12    1    3    3    0    0  0.60712645298E+01 -0.14632568468E+02 -0.56858501239E+01  0.16831553837E+02  0.00000000000E+00 0. -1.
</event>
<event>
 7    1  0.2432574E-011  0.5052887E+02  0.7816164E-02  0.1300439E+00
        -11   -1    0    0    0    0  0.00000000000E+00  0.00000000000E+00  0.45593999997E+02  0.45594000000E+02  0.51100000000E-03 0.  1.
         11   -1    0    0    0    0 -0.00000000000E+00 -0.00000000000E+00 -0.45593999997E+02  0.45594000000E+02  0.51100000000E-03 0. -1.
    9900012    2    1    2    0    0 -0.11548502263E+02 -0.38500229954E+02  0.61260995510E+01  0.50528871791E+02  0.30000036295E+02 0.  0.
         12    1    1    2    0    0  0.11548502263E+02  0.38500229954E+02 -0.61260995510E+01  0.40659128209E+02  0.00000000000E+00 0. -1.
         11    1    3    3    0    0 -0.53981189485E+01 -0.89730206926E+01 -0.40963200766E+01  0.11244315318E+02  0.51100000000E-03 0. -1.
        -11    1    3    3    0    0  0.61414606361E+01 -0.15868527216E+02 -0.21227797636E+01  0.17147416393E+02  0.51100000000E-03 0.  1.
        -12    1    3    3    0    0 -0.12291843951E+02 -0.13658682045E+02  0.12345199391E+02  0.22137140080E+02  0.00000000000E+00 0.  1.
</event>
<event>
 7    1  0.2432574E-011  0.5052886E+02  0.7816164E-02  0.1300439E+00
        -11   -1    0    0    0    0  0.00000000000E+00  0.00000000000E+00  0.45593999997E+02  0.45594000000E+02  0.51100000000E-03 0. -1.
         11   -1    0    0    0    0 -0.00000000000E+00 -0.00000000000E+00 -0.45593999997E+02  0.45594000000E+02  0.51100000000E-03 0.  1.
    9900012    2    1    2    0    0 -0.25384662522E+02 -0.44379456591E+01 -0.31449794620E+02  0.50528855461E+02  0.29999986659E+02 0.  0.
         12    1    1    2    0    0  0.25384662522E+02  0.44379456591E+01  0.31449794620E+02  0.40659144539E+02  0.00000000000E+00 0. -1.
         11    1    3    3    0    0 -0.27149483846E+00 -0.54239405458E+01 -0.31710116922E+00  0.54399810574E+01  0.51100000000E-03 0. -1.
        -11    1    3    3    0    0 -0.22041401422E+02 -0.65851478506E+01 -0.16431689256E+02  0.28269912644E+02  0.51100000000E-03 0.  1.
        -12    1    3    3    0    0 -0.30717662615E+01  0.75711427373E+01 -0.14701004195E+02  0.16818961759E+02  0.00000000000E+00 0.  1.
</event>
<event>
 7    1  0.2432574E-011  0.5052884E+02  0.7816164E-02  0.1300439E+00
        -11   -1    0    0    0    0  0.00000000000E+00  0.00000000000E+00  0.45593999997E+02  0.45594000000E+02  0.51100000000E-03 0.  1.
         11   -1    0    0    0    0 -0.00000000000E+00 -0.00000000000E+00 -0.45593999997E+02  0.45594000000E+02  0.51100000000E-03 0. -1.
    9900012    2    1    2    0    0  0.22506334633E+02  0.31516331935E+01  0.33714970789E+02  0.50528841797E+02  0.29999945127E+02 0.  0.
         12    1    1    2    0    0 -0.22506334633E+02 -0.31516331935E+01 -0.33714970789E+02  0.40659158203E+02  0.00000000000E+00 0. -1.
         11    1    3    3    0    0  0.11314959982E+02  0.59767483523E+01  0.36394027186E+01  0.13303950266E+02  0.51100000000E-03 0. -1.
        -11    1    3    3    0    0  0.63604735242E+01  0.78524856941E+01  0.15795814347E+02  0.18751664090E+02  0.51100000000E-03 0.  1.
        -12    1    3    3    0    0  0.48309011272E+01 -0.10677600853E+02  0.14279753724E+02  0.18473227441E+02  0.00000000000E+00 0.  1.
</event>
<event>
 7    1  0.2432574E-011  0.5052884E+02  0.7816164E-02  0.1300439E+00
        -11   -1    0    0    0    0  0.00000000000E+00  0.00000000000E+00  0.45593999997E+02  0.45594000000E+02  0.51100000000E-03 0.  1.
         11   -1    0    0    0    0 -0.00000000000E+00 -0.00000000000E+00 -0.45593999997E+02  0.45594000000E+02  0.51100000000E-03 0. -1.
    9900012    2    1    2    0    0 -0.36476585545E+02 -0.12590304186E+02  0.12810550041E+02  0.50528840578E+02  0.29999941422E+02 0.  0.
         12    1    1    2    0    0  0.36476585545E+02  0.12590304186E+02 -0.12810550041E+02  0.40659159422E+02  0.00000000000E+00 0. -1.
         11    1    3    3    0    0 -0.25906652378E+02 -0.90361201002E+01  0.59251377795E+01  0.28069794475E+02  0.51100000000E-03 0. -1.
        -11    1    3    3    0    0 -0.12192874467E+02  0.32914848246E+01  0.20588741439E-01  0.12629350113E+02  0.51100000000E-03 0.  1.
        -12    1    3    3    0    0  0.16229413006E+01 -0.68456689103E+01  0.68648235199E+01  0.98296959899E+01  0.00000000000E+00 0.  1.
</event>
<event>
 7    1  0.2432574E-011  0.5052886E+02  0.7816164E-02  0.1300439E+00
        -11   -1    0    0    0    0  0.00000000000E+00  0.00000000000E+00  0.45593999997E+02  0.45594000000E+02  0.51100000000E-03 0.  1.
         11   -1    0    0    0    0 -0.00000000000E+00 -0.00000000000E+00 -0.45593999997E+02  0.45594000000E+02  0.51100000000E-03 0. -1.
    9900012    2    1    2    0    0  0.32019564049E+02  0.24988976947E+02 -0.18612004723E+01  0.50528861815E+02  0.30000005973E+02 0.  0.
         12    1    1    2    0    0 -0.32019564049E+02 -0.24988976947E+02  0.18612004723E+01  0.40659138185E+02  0.00000000000E+00 0. -1.
         11    1    3    3    0    0  0.92467882546E+01  0.30705356995E+01 -0.27746492426E+01  0.10130644658E+02  0.51100000000E-03 0. -1.
        -11    1    3    3    0    0  0.35665229477E+01 -0.56283374651E+01  0.14210912703E+01  0.68130587270E+01  0.51100000000E-03 0.  1.
        -12    1    3    3    0    0  0.19206252846E+02  0.27546778713E+02 -0.50764250005E+00  0.33585158430E+02  0.00000000000E+00 0.  1.
</event>
<event>
 7    1  0.2432574E-011  0.5052885E+02  0.7816164E-02  0.1300439E+00
        -11   -1    0    0    0    0  0.00000000000E+00  0.00000000000E+00  0.45593999997E+02  0.45594000000E+02  0.51100000000E-03 0.  1.
         11   -1    0    0    0    0 -0.00000000000E+00 -0.00000000000E+00 -0.45593999997E+02  0.45594000000E+02  0.51100000000E-03 0. -1.
    9900012    2    1    2    0    0  0.37225161078E+02 -0.15132342693E+02  0.62021127387E+01  0.50528848323E+02  0.29999964963E+02 0.  0.
         12    1    1    2    0    0 -0.37225161078E+02  0.15132342693E+02 -0.62021127387E+01  0.40659151677E+02  0.00000000000E+00 0. -1.
         11    1    3    3    0    0  0.18461790283E-01 -0.85309240584E+01  0.57205547907E+00  0.85501025643E+01  0.51100000000E-03 0. -1.
        -11    1    3    3    0    0  0.13037553695E+02 -0.44540858485E+00  0.10279128338E+02  0.16608331488E+02  0.51100000000E-03 0.  1.
         12    1    3    3    0    0  0.24169145593E+02 -0.61560100496E+01 -0.46490710780E+01  0.25370414271E+02  0.00000000000E+00 0. -1.
</event>
<event>
 7    1  0.2432574E-011  0.5052885E+02  0.7816164E-02  0.1300439E+00
        -11   -1    0    0    0    0  0.00000000000E+00  0.00000000000E+00  0.45593999997E+02  0.45594000000E+02  0.51100000000E-03 0. -1.
         11   -1    0    0    0    0 -0.00000000000E+00 -0.00000000000E+00 -0.45593999997E+02  0.45594000000E+02  0.51100000000E-03 0.  1.
    9900012    2    1    2    0    0 -0.92674169447E+01  0.37342132369E+02  0.13147100127E+02  0.50528854554E+02  0.29999983901E+02 0.  0.
         12    1    1    2    0    0  0.92674169447E+01 -0.37342132369E+02 -0.13147100127E+02  0.40659145446E+02  0.00000000000E+00 0. -1.
         11    1    3    3    0    0  0.28320523912E+00  0.27553424889E+01 -0.64781903402E+01  0.70454998250E+01  0.51100000000E-03 0. -1.
        -11    1    3    3    0    0 -0.71062341739E+01  0.12592994236E+02  0.88783574923E+00  0.14486901689E+02  0.51100000000E-03 0.  1.
         12    1    3    3    0    0 -0.24443880099E+01  0.21993795644E+02  0.18737454718E+02  0.28996453040E+02  0.00000000000E+00 0. -1.
</event>
<event>
 7    1  0.2432574E-011  0.5052888E+02  0.7816164E-02  0.1300439E+00
        -11   -1    0    0    0    0  0.00000000000E+00  0.00000000000E+00  0.45593999997E+02  0.45594000000E+02  0.51100000000E-03 0. -1.
         11   -1    0    0    0    0 -0.00000000000E+00 -0.00000000000E+00 -0.45593999997E+02  0.45594000000E+02  0.51100000000E-03 0.  1.
    9900012    2    1    2    0    0 -0.26122142875E+02 -0.23233946948E+02 -0.20760098562E+02  0.50528876406E+02  0.30000050322E+02 0.  0.
         12    1    1    2    0    0  0.26122142875E+02  0.23233946948E+02  0.20760098562E+02  0.40659123594E+02  0.00000000000E+00 0. -1.
         11    1    3    3    0    0 -0.16380787232E+01 -0.23415784525E+01  0.38158300478E+01  0.47672686905E+01  0.51100000000E-03 0. -1.
        -11    1    3    3    0    0 -0.55529351355E+01  0.30146890876E+01  0.41868698465E+00  0.63323564308E+01  0.51100000000E-03 0.  1.
        -12    1    3    3    0    0 -0.18931129016E+02 -0.23907057584E+02 -0.24994615594E+02  0.39429251284E+02  0.00000000000E+00 0.  1.
</event>
<event>
 7    1  0.2432574E-011  0.5052883E+02  0.7816164E-02  0.1300439E+00
        -11   -1    0    0    0    0  0.00000000000E+00  0.00000000000E+00  0.45593999997E+02  0.45594000000E+02  0.51100000000E-03 0. -1.
         11   -1    0    0    0    0 -0.00000000000E+00 -0.00000000000E+00 -0.45593999997E+02  0.45594000000E+02  0.51100000000E-03 0.  1.
    9900012    2    1    2    0    0  0.28210528529E+02  0.16418599206E+02 -0.24243840924E+02  0.50528829540E+02  0.29999907868E+02 0.  0.
         12    1    1    2    0    0 -0.28210528529E+02 -0.16418599206E+02  0.24243840924E+02  0.40659170460E+02  0.00000000000E+00 0. -1.
         11    1    3    3    0    0  0.42075051970E+01  0.57055953817E+01  0.24966717917E+01  0.75160021912E+01  0.51100000000E-03 0. -1.
        -11    1    3    3    0    0  0.27739593128E+02  0.10731638769E+02 -0.22099704066E+02  0.37054689550E+02  0.51100000000E-03 0.  1.
         12    1    3    3    0    0 -0.37365697961E+01 -0.18634943974E-01 -0.46408086494E+01  0.59581377982E+01  0.00000000000E+00 0. -1.
</event>
<event>
 7    1  0.2432574E-011  0.5052886E+02  0.7816164E-02  0.1300439E+00
        -11   -1    0    0    0    0  0.00000000000E+00  0.00000000000E+00  0.45593999997E+02  0.45594000000E+02  0.51100000000E-03 0.  1.
         11   -1    0    0    0    0 -0.00000000000E+00 -0.00000000000E+00 -0.45593999997E+02  0.45594000000E+02  0.51100000000E-03 0. -1.
    9900012    2    1    2    0    0  0.13441104644E+02 -0.33135953464E+02  0.19352285887E+02  0.50528859882E+02  0.30000000099E+02 0.  0.
         12    1    1    2    0    0 -0.13441104644E+02  0.33135953464E+02 -0.19352285887E+02  0.40659140118E+02  0.00000000000E+00 0. -1.
         11    1    3    3    0    0  0.40744006138E+01  0.14666483449E+01  0.43199409528E+00  0.43518291429E+01  0.51100000000E-03 0.  1.
        -11    1    3    3    0    0  0.96233803441E+01 -0.37487259959E+02  0.19314058126E+02  0.43254328686E+02  0.51100000000E-03 0. -1.
         12    1    3    3    0    0 -0.25667631421E+00  0.28846581497E+01 -0.39376633405E+00  0.29227020540E+01  0.00000000000E+00 0. -1.
</event>
<event>
 7    1  0.2432574E-011  0.5052886E+02  0.7816164E-02  0.1300439E+00
        -11   -1    0    0    0    0  0.00000000000E+00  0.00000000000E+00  0.45593999997E+02  0.45594000000E+02  0.51100000000E-03 0.  1.
         11   -1    0    0    0    0 -0.00000000000E+00 -0.00000000000E+00 -0.45593999997E+02  0.45594000000E+02  0.51100000000E-03 0. -1.
    9900012    2    1    2    0    0  0.17767775795E+02 -0.35891026116E+02  0.70218311086E+01  0.50528859275E+02  0.29999998253E+02 0.  0.
         12    1    1    2    0    0 -0.17767775795E+02  0.35891026116E+02 -0.70218311086E+01  0.40659140725E+02  0.00000000000E+00 0. -1.
         11    1    3    3    0    0  0.30267782610E-01 -0.43332587946E+01  0.63121775865E+01  0.76564766091E+01  0.51100000000E-03 0. -1.
        -11    1    3    3    0    0  0.11681456864E+02 -0.25692344654E+02  0.10353959224E+02  0.30062559441E+02  0.51100000000E-03 0.  1.
         12    1    3    3    0    0  0.60560511488E+01 -0.58654226675E+01 -0.96443057021E+01  0.12809823225E+02  0.00000000000E+00 0. -1.
</event>
<event>
 7    1  0.2432574E-011  0.5052885E+02  0.7816164E-02  0.1300439E+00
        -11   -1    0    0    0    0  0.00000000000E+00  0.00000000000E+00  0.45593999997E+02  0.45594000000E+02  0.51100000000E-03 0.  1.
         11   -1    0    0    0    0 -0.00000000000E+00 -0.00000000000E+00 -0.45593999997E+02  0.45594000000E+02  0.51100000000E-03 0. -1.
    9900012    2    1    2    0    0  0.18607325625E+02 -0.21586051695E+02  0.28999586552E+02  0.50528853245E+02  0.29999979922E+02 0.  0.
         12    1    1    2    0    0 -0.18607325625E+02  0.21586051695E+02 -0.28999586552E+02  0.40659146755E+02  0.00000000000E+00 0. -1.
         11    1    3    3    0    0 -0.39656131308E+01 -0.17814490580E+01  0.30825000752E+01  0.53293015700E+01  0.51100000000E-03 0. -1.
        -11    1    3    3    0    0  0.15792877111E+02 -0.85084855229E+01  0.26512696854E+02  0.32011441518E+02  0.51100000000E-03 0.  1.
         12    1    3    3    0    0  0.67800616453E+01 -0.11296117114E+02 -0.59561037790E+00  0.13188110156E+02  0.00000000000E+00 0. -1.
</event>
<event>
 7    1  0.2432574E-011  0.5052887E+02  0.7816164E-02  0.1300439E+00
        -11   -1    0    0    0    0  0.00000000000E+00  0.00000000000E+00  0.45593999997E+02  0.45594000000E+02  0.51100000000E-03 0.  1.
         11   -1    0    0    0    0 -0.00000000000E+00 -0.00000000000E+00 -0.45593999997E+02  0.45594000000E+02  0.51100000000E-03 0. -1.
    9900012    2    1    2    0    0  0.96099362393E+01  0.39507003162E+02  0.10427484585E+00  0.50528867611E+02  0.30000023591E+02 0.  0.
         12    1    1    2    0    0 -0.96099362393E+01 -0.39507003162E+02 -0.10427484585E+00  0.40659132389E+02  0.00000000000E+00 0. -1.
         11    1    3    3    0    0 -0.37037412300E+01  0.36566678598E+01  0.65938299676E+01  0.84004471809E+01  0.51100000000E-03 0.  1.
        -11    1    3    3    0    0 -0.10618607739E+01  0.11799888397E+02 -0.76197433358E+01  0.14086355215E+02  0.51100000000E-03 0. -1.
         12    1    3    3    0    0  0.14375538243E+02  0.24050446905E+02  0.11301882141E+01  0.28042065215E+02  0.00000000000E+00 0. -1.
</event>
<event>
 7    1  0.2432574E-011  0.5052886E+02  0.7816164E-02  0.1300439E+00
        -11   -1    0    0    0    0  0.00000000000E+00  0.00000000000E+00  0.45593999997E+02  0.45594000000E+02  0.51100000000E-03 0. -1.
         11   -1    0    0    0    0 -0.00000000000E+00 -0.00000000000E+00 -0.45593999997E+02  0.45594000000E+02  0.51100000000E-03 0.  1.
    9900012    2    1    2    0    0 -0.46157935899E+01 -0.34862614977E+02 -0.20407307852E+02  0.50528859732E+02  0.29999999642E+02 0.  0.
         12    1    1    2    0    0  0.46157935899E+01  0.34862614977E+02  0.20407307852E+02  0.40659140268E+02  0.00000000000E+00 0. -1.
         11    1    3    3    0    0 -0.12710161067E+01 -0.15243765240E+02 -0.38736336643E+01  0.15779508822E+02  0.51100000000E-03 0. -1.
        -11    1    3    3    0    0  0.24068083798E+01 -0.16572848606E+02 -0.20997044816E+02  0.26857548823E+02  0.51100000000E-03 0.  1.
        -12    1    3    3    0    0 -0.57515858630E+01 -0.30460011317E+01  0.44633706279E+01  0.78918020879E+01  0.00000000000E+00 0.  1.
</event>
<event>
 7    1  0.2432574E-011  0.5052886E+02  0.7816164E-02  0.1300439E+00
        -11   -1    0    0    0    0  0.00000000000E+00  0.00000000000E+00  0.45593999997E+02  0.45594000000E+02  0.51100000000E-03 0. -1.
         11   -1    0    0    0    0 -0.00000000000E+00 -0.00000000000E+00 -0.45593999997E+02  0.45594000000E+02  0.51100000000E-03 0.  1.
    9900012    2    1    2    0    0 -0.40216937455E+02  0.56860286140E+01 -0.18528294476E+01  0.50528856420E+02  0.29999989575E+02 0.  0.
         12    1    1    2    0    0  0.40216937455E+02 -0.56860286140E+01  0.18528294476E+01  0.40659143580E+02  0.00000000000E+00 0. -1.
         11    1    3    3    0    0 -0.94260539704E+01 -0.19357315234E+01  0.30509736902E+01  0.10094849712E+02  0.51100000000E-03 0. -1.
        -11    1    3    3    0    0 -0.32624529293E+02  0.59517952773E+01 -0.10107851624E+02  0.34669185789E+02  0.51100000000E-03 0.  1.
         12    1    3    3    0    0  0.18336458077E+01  0.16699648601E+01  0.52040484862E+01  0.57648209191E+01  0.00000000000E+00 0. -1.
</event>
<event>
 7    1  0.2432574E-011  0.5052886E+02  0.7816164E-02  0.1300439E+00
        -11   -1    0    0    0    0  0.00000000000E+00  0.00000000000E+00  0.45593999997E+02  0.45594000000E+02  0.51100000000E-03 0.  1.
         11   -1    0    0    0    0 -0.00000000000E+00 -0.00000000000E+00 -0.45593999997E+02  0.45594000000E+02  0.51100000000E-03 0. -1.
    9900012    2    1    2    0    0 -0.25939560500E+02  0.31309514558E+02 -0.13967942685E+00  0.50528855751E+02  0.29999987539E+02 0.  0.
         12    1    1    2    0    0  0.25939560500E+02 -0.31309514558E+02  0.13967942685E+00  0.40659144249E+02  0.00000000000E+00 0. -1.
         11    1    3    3    0    0  0.47471688842E+01  0.72364387605E+01  0.18070282470E+01  0.88412108727E+01  0.51100000000E-03 0. -1.
        -11    1    3    3    0    0  0.10038410097E+01 -0.49055745946E+00 -0.11220753413E+01  0.15834761528E+01  0.51100000000E-03 0.  1.
        -12    1    3    3    0    0 -0.31690570393E+02  0.24563633257E+02 -0.82463233252E+00  0.40104168725E+02  0.00000000000E+00 0.  1.
</event>
<event>
 7    1  0.2432574E-011  0.5052884E+02  0.7816164E-02  0.1300439E+00
        -11   -1    0    0    0    0  0.00000000000E+00  0.00000000000E+00  0.45593999997E+02  0.45594000000E+02  0.51100000000E-03 0.  1.
         11   -1    0    0    0    0 -0.00000000000E+00 -0.00000000000E+00 -0.45593999997E+02  0.45594000000E+02  0.51100000000E-03 0. -1.
    9900012    2    1    2    0    0  0.27939568350E+02 -0.29476575491E+02  0.19182219764E+01  0.50528836731E+02  0.29999929726E+02 0.  0.
         12    1    1    2    0    0 -0.27939568350E+02  0.29476575491E+02 -0.19182219764E+01  0.40659163269E+02  0.00000000000E+00 0. -1.
         11    1    3    3    0    0 -0.13767853615E+01 -0.38275374971E+01 -0.51619753216E+01  0.65720294206E+01  0.51100000000E-03 0. -1.
        -11    1    3    3    0    0  0.23498012363E+01 -0.13357330525E+02  0.41153135305E+01  0.14173060725E+02  0.51100000000E-03 0.  1.
         12    1    3    3    0    0  0.26966552475E+02 -0.12291707468E+02  0.29648837674E+01  0.29783746585E+02  0.00000000000E+00 0. -1.
</event>
<event>
 7    1  0.2432574E-011  0.5052886E+02  0.7816164E-02  0.1300439E+00
        -11   -1    0    0    0    0  0.00000000000E+00  0.00000000000E+00  0.45593999997E+02  0.45594000000E+02  0.51100000000E-03 0.  1.
         11   -1    0    0    0    0 -0.00000000000E+00 -0.00000000000E+00 -0.45593999997E+02  0.45594000000E+02  0.51100000000E-03 0. -1.
    9900012    2    1    2    0    0 -0.31533592034E+02 -0.11154919147E+02  0.23116353996E+02  0.50528862407E+02  0.30000007772E+02 0.  0.
         12    1    1    2    0    0  0.31533592034E+02  0.11154919147E+02 -0.23116353996E+02  0.40659137593E+02  0.00000000000E+00 0. -1.
         11    1    3    3    0    0 -0.12423710376E+02 -0.44628801916E+01  0.18472322743E+02  0.22704461828E+02  0.51100000000E-03 0.  1.
        -11    1    3    3    0    0  0.13958712798E+00 -0.73217543198E+01  0.44392276466E+01  0.85635456001E+01  0.51100000000E-03 0. -1.
         12    1    3    3    0    0 -0.19249468786E+02  0.62971536432E+00  0.20480360629E+00  0.19260854979E+02  0.00000000000E+00 0. -1.
</event>
<event>
 7    1  0.2432574E-011  0.5052885E+02  0.7816164E-02  0.1300439E+00
        -11   -1    0    0    0    0  0.00000000000E+00  0.00000000000E+00  0.45593999997E+02  0.45594000000E+02  0.51100000000E-03 0.  1.
         11   -1    0    0    0    0 -0.00000000000E+00 -0.00000000000E+00 -0.45593999997E+02  0.45594000000E+02  0.51100000000E-03 0. -1.
    9900012    2    1    2    0    0 -0.20783767251E+01  0.59949343304E+01  0.40161020417E+02  0.50528850373E+02  0.29999971195E+02 0.  0.
         12    1    1    2    0    0  0.20783767251E+01 -0.59949343304E+01 -0.40161020417E+02  0.40659149627E+02  0.00000000000E+00 0. -1.
         11    1    3    3    0    0  0.53223803229E+01  0.41681916229E+01  0.12423384634E+01  0.68734968411E+01  0.51100000000E-03 0. -1.
        -11    1    3    3    0    0 -0.23416747975E+01  0.76019501009E+01  0.33043994234E+02  0.33987919051E+02  0.51100000000E-03 0.  1.
        -12    1    3    3    0    0 -0.50590822505E+01 -0.57752073934E+01  0.58746877194E+01  0.96674344816E+01  0.00000000000E+00 0.  1.
</event>
<event>
 7    1  0.2432574E-011  0.5052886E+02  0.7816164E-02  0.1300439E+00
        -11   -1    0    0    0    0  0.00000000000E+00  0.00000000000E+00  0.45593999997E+02  0.45594000000E+02  0.51100000000E-03 0.  1.
         11   -1    0    0    0    0 -0.00000000000E+00 -0.00000000000E+00 -0.45593999997E+02  0.45594000000E+02  0.51100000000E-03 0. -1.
    9900012    2    1    2    0    0 -0.40185666023E+02  0.51929663893E+01  0.33632442761E+01  0.50528855079E+02  0.29999985499E+02 0.  0.
         12    1    1    2    0    0  0.40185666023E+02 -0.51929663893E+01 -0.33632442761E+01  0.40659144921E+02  0.00000000000E+00 0. -1.
         11    1    3    3    0    0 -0.25296839032E+02 -0.65544616638E+00  0.73394695854E+01  0.26348197068E+02  0.51100000000E-03 0. -1.
        -11    1    3    3    0    0 -0.97816961449E+01  0.59995845180E+01  0.60170946294E+01  0.12956929493E+02  0.51100000000E-03 0.  1.
         12    1    3    3    0    0 -0.51071308463E+01 -0.15117196236E+00 -0.99933199387E+01  0.11223728518E+02  0.00000000000E+00 0. -1.
</event>
<event>
 7    1  0.2432574E-011  0.5052887E+02  0.7816164E-02  0.1300439E+00
        -11   -1    0    0    0    0  0.00000000000E+00  0.00000000000E+00  0.45593999997E+02  0.45594000000E+02  0.51100000000E-03 0.  1.
         11   -1    0    0    0    0 -0.00000000000E+00 -0.00000000000E+00 -0.45593999997E+02  0.45594000000E+02  0.51100000000E-03 0. -1.
    9900012    2    1    2    0    0 -0.19572804603E+02 -0.28334417642E+02  0.21615526727E+02  0.50528869428E+02  0.30000029115E+02 0.  0.
         12    1    1    2    0    0  0.19572804603E+02  0.28334417642E+02 -0.21615526727E+02  0.40659130572E+02  0.00000000000E+00 0. -1.
         11    1    3    3    0    0  0.21901797565E+01 -0.60211361696E+01  0.35005658308E+01  0.73010224993E+01  0.51100000000E-03 0. -1.
        -11    1    3    3    0    0 -0.65908707606E+01 -0.23920044779E+01 -0.54206350353E+01  0.88625361636E+01  0.51100000000E-03 0.  1.
        -12    1    3    3    0    0 -0.15172113599E+02 -0.19921276995E+02  0.23535595931E+02  0.34365310765E+02  0.00000000000E+00 0.  1.
</event>
<event>
 7    1  0.2432574E-011  0.5052885E+02  0.7816164E-02  0.1300439E+00
        -11   -1    0    0    0    0  0.00000000000E+00  0.00000000000E+00  0.45593999997E+02  0.45594000000E+02  0.51100000000E-03 0.  1.
         11   -1    0    0    0    0 -0.00000000000E+00 -0.00000000000E+00 -0.45593999997E+02  0.45594000000E+02  0.51100000000E-03 0. -1.
    9900012    2    1    2    0    0 -0.11995746799E+02  0.37746812077E+02  0.91894737974E+01  0.50528853527E+02  0.29999980780E+02 0.  0.
         12    1    1    2    0    0  0.11995746799E+02 -0.37746812077E+02 -0.91894737974E+01  0.40659146473E+02  0.00000000000E+00 0. -1.
         11    1    3    3    0    0  0.51431186569E+01  0.90529897912E+01 -0.29964072490E+01  0.10834516618E+02  0.51100000000E-03 0. -1.
        -11    1    3    3    0    0 -0.37405916527E+01  0.21684686480E+02  0.35748641470E+01  0.22293436424E+02  0.51100000000E-03 0.  1.
        -12    1    3    3    0    0 -0.13398273803E+02  0.70091358062E+01  0.86110168994E+01  0.17400900485E+02  0.00000000000E+00 0.  1.
</event>
<event>
 7    1  0.2432574E-011  0.5052885E+02  0.7816164E-02  0.1300439E+00
        -11   -1    0    0    0    0  0.00000000000E+00  0.00000000000E+00  0.45593999997E+02  0.45594000000E+02  0.51100000000E-03 0.  1.
         11   -1    0    0    0    0 -0.00000000000E+00 -0.00000000000E+00 -0.45593999997E+02  0.45594000000E+02  0.51100000000E-03 0. -1.
    9900012    2    1    2    0    0 -0.27845441504E+02  0.27226291767E+02  0.11684472275E+02  0.50528850128E+02  0.29999970449E+02 0.  0.
         12    1    1    2    0    0  0.27845441504E+02 -0.27226291767E+02 -0.11684472275E+02  0.40659149872E+02  0.00000000000E+00 0. -1.
         11    1    3    3    0    0 -0.71627614543E+00  0.16549526223E+02  0.10105559178E+02  0.19404179867E+02  0.51100000000E-03 0. -1.
        -11    1    3    3    0    0 -0.14100633729E+02  0.95568025833E+01  0.47203748182E+01  0.17676037052E+02  0.51100000000E-03 0.  1.
        -12    1    3    3    0    0 -0.13028531630E+02  0.11199629608E+01 -0.31414617213E+01  0.13448633210E+02  0.00000000000E+00 0.  1.
</event>
<event>
 7    1  0.2432574E-011  0.5052886E+02  0.7816164E-02  0.1300439E+00
        -11   -1    0    0    0    0  0.00000000000E+00  0.00000000000E+00  0.45593999997E+02  0.45594000000E+02  0.51100000000E-03 0. -1.
         11   -1    0    0    0    0 -0.00000000000E+00 -0.00000000000E+00 -0.45593999997E+02  0.45594000000E+02  0.51100000000E-03 0.  1.
    9900012    2    1    2    0    0 -0.12054128160E+02  0.25536524458E+02 -0.29253195258E+02  0.50528861791E+02  0.30000005900E+02 0.  0.
         12    1    1    2    0    0  0.12054128160E+02 -0.25536524458E+02  0.29253195258E+02  0.40659138209E+02  0.00000000000E+00 0. -1.
         11    1    3    3    0    0  0.16493775992E+01 -0.34852967407E+01  0.22056312266E+00  0.38621740235E+01  0.51100000000E-03 0. -1.
        -11    1    3    3    0    0  0.32303494874E+01  0.10754756158E+02 -0.81178557504E+01  0.13856389142E+02  0.51100000000E-03 0.  1.
        -12    1    3    3    0    0 -0.16933855247E+02  0.18267065041E+02 -0.21355902630E+02  0.32810298625E+02  0.00000000000E+00 0.  1.
</event>
<event>
 7    1  0.2432574E-011  0.5052886E+02  0.7816164E-02  0.1300439E+00
        -11   -1    0    0    0    0  0.00000000000E+00  0.00000000000E+00  0.45593999997E+02  0.45594000000E+02  0.51100000000E-03 0. -1.
         11   -1    0    0    0    0 -0.00000000000E+00 -0.00000000000E+00 -0.45593999997E+02  0.45594000000E+02  0.51100000000E-03 0.  1.
    9900012    2    1    2    0    0  0.24483155012E+02 -0.31580679051E+02 -0.75100930539E+01  0.50528859990E+02  0.30000000425E+02 0.  0.
         12    1    1    2    0    0 -0.24483155012E+02  0.31580679051E+02  0.75100930539E+01  0.40659140010E+02  0.00000000000E+00 0. -1.
         11    1    3    3    0    0 -0.13427945372E+01 -0.36667345543E+01  0.34757380691E+01  0.52276949841E+01  0.51100000000E-03 0. -1.
        -11    1    3    3    0    0  0.21907578042E+01 -0.42817466809E+01 -0.10860491077E+02  0.11877838233E+02  0.51100000000E-03 0.  1.
        -12    1    3    3    0    0  0.23635191745E+02 -0.23632197816E+02 -0.12534004622E+00  0.33423326773E+02  0.00000000000E+00 0.  1.
</event>
<event>
 7    1  0.2432574E-011  0.5052885E+02  0.7816164E-02  0.1300439E+00
        -11   -1    0    0    0    0  0.00000000000E+00  0.00000000000E+00  0.45593999997E+02  0.45594000000E+02  0.51100000000E-03 0.  1.
         11   -1    0    0    0    0 -0.00000000000E+00 -0.00000000000E+00 -0.45593999997E+02  0.45594000000E+02  0.51100000000E-03 0. -1.
    9900012    2    1    2    0    0  0.11967594588E+02  0.26379432507E+02  0.28531883597E+02  0.50528853904E+02  0.29999981928E+02 0.  0.
         12    1    1    2    0    0 -0.11967594588E+02 -0.26379432507E+02 -0.28531883597E+02  0.40659146096E+02  0.00000000000E+00 0. -1.
         11    1    3    3    0    0  0.42190292458E+01  0.10269796425E+02  0.12213070399E+02  0.16505393519E+02  0.51100000000E-03 0. -1.
        -11    1    3    3    0    0  0.59417642066E+01  0.91539142616E+00  0.17667983262E+02  0.18662800866E+02  0.51100000000E-03 0.  1.
         12    1    3    3    0    0  0.18068011357E+01  0.15194244656E+02 -0.13491700638E+01  0.15360659520E+02  0.00000000000E+00 0. -1.
</event>
<event>
 7    1  0.2432574E-011  0.5052882E+02  0.7816164E-02  0.1300439E+00
        -11   -1    0    0    0    0  0.00000000000E+00  0.00000000000E+00  0.45593999997E+02  0.45594000000E+02  0.51100000000E-03 0.  1.
         11   -1    0    0    0    0 -0.00000000000E+00 -0.00000000000E+00 -0.45593999997E+02  0.45594000000E+02  0.51100000000E-03 0. -1.
    9900012    2    1    2    0    0 -0.17626000496E+02 -0.33967197378E+02 -0.13737623340E+02  0.50528822854E+02  0.29999887547E+02 0.  0.
         12    1    1    2    0    0  0.17626000496E+02  0.33967197378E+02  0.13737623340E+02  0.40659177146E+02  0.00000000000E+00 0. -1.
         11    1    3    3    0    0  0.75360867326E+00 -0.27935445855E+00 -0.28145351565E+01  0.29270417412E+01  0.51100000000E-03 0. -1.
        -11    1    3    3    0    0 -0.52214764510E+01 -0.42850811894E+01  0.78197198335E+01  0.10333138713E+02  0.51100000000E-03 0.  1.
         12    1    3    3    0    0 -0.13158132718E+02 -0.29402761730E+02 -0.18742808017E+02  0.37268642400E+02  0.00000000000E+00 0. -1.
</event>
<event>
 7    1  0.2432574E-011  0.5052885E+02  0.7816164E-02  0.1300439E+00
        -11   -1    0    0    0    0  0.00000000000E+00  0.00000000000E+00  0.45593999997E+02  0.45594000000E+02  0.51100000000E-03 0.  1.
         11   -1    0    0    0    0 -0.00000000000E+00 -0.00000000000E+00 -0.45593999997E+02  0.45594000000E+02  0.51100000000E-03 0. -1.
    9900012    2    1    2    0    0  0.99485668772E+01 -0.19054960095E+02  0.34512331548E+02  0.50528849541E+02  0.29999968665E+02 0.  0.
         12    1    1    2    0    0 -0.99485668772E+01  0.19054960095E+02 -0.34512331548E+02  0.40659150459E+02  0.00000000000E+00 0. -1.
         11    1    3    3    0    0 -0.38297761450E+01  0.25809004698E+01  0.33136565047E+01  0.56840612460E+01  0.51100000000E-03 0. -1.
        -11    1    3    3    0    0 -0.22075717944E+01 -0.90926205884E+01  0.18910166827E+02  0.21098424872E+02  0.51100000000E-03 0.  1.
         12    1    3    3    0    0  0.15985914817E+02 -0.12543239977E+02  0.12288508216E+02  0.23746363423E+02  0.00000000000E+00 0. -1.
</event>
<event>
 7    1  0.2432574E-011  0.5052885E+02  0.7816164E-02  0.1300439E+00
        -11   -1    0    0    0    0  0.00000000000E+00  0.00000000000E+00  0.45593999997E+02  0.45594000000E+02  0.51100000000E-03 0.  1.
         11   -1    0    0    0    0 -0.00000000000E+00 -0.00000000000E+00 -0.45593999997E+02  0.45594000000E+02  0.51100000000E-03 0. -1.
    9900012    2    1    2    0    0 -0.82304683857E+00 -0.17338519340E+02  0.36767711339E+02  0.50528852737E+02  0.29999978380E+02 0.  0.
         12    1    1    2    0    0  0.82304683857E+00  0.17338519340E+02 -0.36767711339E+02  0.40659147263E+02  0.00000000000E+00 0. -1.
         11    1    3    3    0    0 -0.19534791089E+01 -0.10087687992E+02  0.23687615989E+01  0.10544598685E+02  0.51100000000E-03 0. -1.
        -11    1    3    3    0    0  0.73721355803E+01 -0.10730041940E+02  0.19307942236E+02  0.23286880785E+02  0.51100000000E-03 0.  1.
         12    1    3    3    0    0 -0.62417033099E+01  0.34792105914E+01  0.15091007504E+02  0.16697373268E+02  0.00000000000E+00 0. -1.
</event>
<event>
 7    1  0.2432574E-011  0.5052886E+02  0.7816164E-02  0.1300439E+00
        -11   -1    0    0    0    0  0.00000000000E+00  0.00000000000E+00  0.45593999997E+02  0.45594000000E+02  0.51100000000E-03 0.  1.
         11   -1    0    0    0    0 -0.00000000000E+00 -0.00000000000E+00 -0.45593999997E+02  0.45594000000E+02  0.51100000000E-03 0. -1.
    9900012    2    1    2    0    0  0.18513298436E+01 -0.61693326153E+01  0.40145706371E+02  0.50528858013E+02  0.29999994415E+02 0.  0.
         12    1    1    2    0    0 -0.18513298436E+01  0.61693326153E+01 -0.40145706371E+02  0.40659141987E+02  0.00000000000E+00 0. -1.
         11    1    3    3    0    0  0.22303586760E+00  0.39997788462E+01  0.35131468128E+01  0.53282432946E+01  0.51100000000E-03 0.  1.
        -11    1    3    3    0    0  0.26475967984E+01 -0.13514764122E+02  0.71608922392E+01  0.15522145342E+02  0.51100000000E-03 0. -1.
         12    1    3    3    0    0 -0.10193028224E+01  0.33456526605E+01  0.29471667319E+02  0.29678469377E+02  0.00000000000E+00 0. -1.
</event>
<event>
 7    1  0.2432574E-011  0.5052886E+02  0.7816164E-02  0.1300439E+00
        -11   -1    0    0    0    0  0.00000000000E+00  0.00000000000E+00  0.45593999997E+02  0.45594000000E+02  0.51100000000E-03 0. -1.
         11   -1    0    0    0    0 -0.00000000000E+00 -0.00000000000E+00 -0.45593999997E+02  0.45594000000E+02  0.51100000000E-03 0.  1.
    9900012    2    1    2    0    0 -0.17055566234E+02  0.40769746461E+01 -0.36683127956E+02  0.50528856644E+02  0.29999990256E+02 0.  0.
         12    1    1    2    0    0  0.17055566234E+02 -0.40769746461E+01  0.36683127956E+02  0.40659143356E+02  0.00000000000E+00 0. -1.
         11    1    3    3    0    0  0.20199381828E+01 -0.14768714031E+00 -0.25014803548E+01  0.32185968962E+01  0.51100000000E-03 0. -1.
        -11    1    3    3    0    0 -0.16568514043E+02  0.47390251216E+01 -0.38561799142E+02  0.42237262814E+02  0.51100000000E-03 0.  1.
         12    1    3    3    0    0 -0.25069903729E+01 -0.51436333519E+00  0.43801515408E+01  0.50729969339E+01  0.00000000000E+00 0. -1.
</event>
<event>
 7    1  0.2432574E-011  0.5052880E+02  0.7816164E-02  0.1300439E+00
        -11   -1    0    0    0    0  0.00000000000E+00  0.00000000000E+00  0.45593999997E+02  0.45594000000E+02  0.51100000000E-03 0.  1.
         11   -1    0    0    0    0 -0.00000000000E+00 -0.00000000000E+00 -0.45593999997E+02  0.45594000000E+02  0.51100000000E-03 0. -1.
    9900012    2    1    2    0    0  0.14380583951E+02 -0.24937978725E+02  0.28713531965E+02  0.50528795684E+02  0.29999804962E+02 0.  0.
         12    1    1    2    0    0 -0.14380583951E+02  0.24937978725E+02 -0.28713531965E+02  0.40659204316E+02  0.00000000000E+00 0. -1.
         11    1    3    3    0    0  0.17194575994E+02 -0.50474317361E+01  0.86036972527E+01  0.19878471204E+02  0.51100000000E-03 0. -1.
        -11    1    3    3    0    0 -0.28079927741E+01 -0.15557145134E+02  0.78562236878E+01  0.17653040504E+02  0.51100000000E-03 0.  1.
        -12    1    3    3    0    0 -0.59992682848E-02 -0.43334018551E+01  0.12253611025E+02  0.12997283977E+02  0.00000000000E+00 0.  1.
</event>
<event>
 7    1  0.2432574E-011  0.5052885E+02  0.7816164E-02  0.1300439E+00
        -11   -1    0    0    0    0  0.00000000000E+00  0.00000000000E+00  0.45593999997E+02  0.45594000000E+02  0.51100000000E-03 0.  1.
         11   -1    0    0    0    0 -0.00000000000E+00 -0.00000000000E+00 -0.45593999997E+02  0.45594000000E+02  0.51100000000E-03 0. -1.
    9900012    2    1    2    0    0  0.32706274288E+02  0.72183624526E+01  0.23051271136E+02  0.50528852994E+02  0.29999979159E+02 0.  0.
         12    1    1    2    0    0 -0.32706274288E+02 -0.72183624526E+01 -0.23051271136E+02  0.40659147006E+02  0.00000000000E+00 0. -1.
         11    1    3    3    0    0  0.36703186136E+00  0.37413781367E+01 -0.10786073114E+01  0.39110122401E+01  0.51100000000E-03 0. -1.
        -11    1    3    3    0    0  0.15251704409E+02  0.92041969011E+01  0.17731343373E+01  0.17901836040E+02  0.51100000000E-03 0.  1.
         12    1    3    3    0    0  0.17087538019E+02 -0.57272125851E+01  0.22356744110E+02  0.28716004714E+02  0.00000000000E+00 0. -1.
</event>
<event>
 7    1  0.2432574E-011  0.5052886E+02  0.7816164E-02  0.1300439E+00
        -11   -1    0    0    0    0  0.00000000000E+00  0.00000000000E+00  0.45593999997E+02  0.45594000000E+02  0.51100000000E-03 0.  1.
         11   -1    0    0    0    0 -0.00000000000E+00 -0.00000000000E+00 -0.45593999997E+02  0.45594000000E+02  0.51100000000E-03 0. -1.
    9900012    2    1    2    0    0  0.71598717052E+01  0.18051152862E+02  0.35721950250E+02  0.50528860657E+02  0.30000002452E+02 0.  0.
         12    1    1    2    0    0 -0.71598717052E+01 -0.18051152862E+02 -0.35721950250E+02  0.40659139343E+02  0.00000000000E+00 0. -1.
         11    1    3    3    0    0 -0.16681162972E+01  0.68618765246E+01  0.52998793173E+01  0.88293081529E+01  0.51100000000E-03 0. -1.
        -11    1    3    3    0    0 -0.75456666665E+01  0.85659387032E+01  0.86026887173E+01  0.14294007302E+02  0.51100000000E-03 0.  1.
         12    1    3    3    0    0  0.16373654669E+02  0.26233376342E+01  0.21819382215E+02  0.27405545202E+02  0.00000000000E+00 0. -1.
</event>
<event>
 7    1  0.2432574E-011  0.5052889E+02  0.7816164E-02  0.1300439E+00
        -11   -1    0    0    0    0  0.00000000000E+00  0.00000000000E+00  0.45593999997E+02  0.45594000000E+02  0.51100000000E-03 0.  1.
         11   -1    0    0    0    0 -0.00000000000E+00 -0.00000000000E+00 -0.45593999997E+02  0.45594000000E+02  0.51100000000E-03 0. -1.
    9900012    2    1    2    0    0 -0.47095730796E+01  0.26087765962E+02  0.30828749481E+02  0.50528887786E+02  0.30000084914E+02 0.  0.
         12    1    1    2    0    0  0.47095730796E+01 -0.26087765962E+02 -0.30828749481E+02  0.40659112214E+02  0.00000000000E+00 0. -1.
         11    1    3    3    0    0 -0.39004640141E+01  0.24284426571E+02  0.16166151167E+02  0.29432829242E+02  0.51100000000E-03 0. -1.
        -11    1    3    3    0    0 -0.71172967662E+01  0.31723133561E+01  0.11542414794E+02  0.13926479269E+02  0.51100000000E-03 0.  1.
         12    1    3    3    0    0  0.63081877007E+01 -0.13689739644E+01  0.31201835196E+01  0.71695792749E+01  0.00000000000E+00 0. -1.
</event>
<event>
 7    1  0.2432574E-011  0.5052888E+02  0.7816164E-02  0.1300439E+00
        -11   -1    0    0    0    0  0.00000000000E+00  0.00000000000E+00  0.45593999997E+02  0.45594000000E+02  0.51100000000E-03 0.  1.
         11   -1    0    0    0    0 -0.00000000000E+00 -0.00000000000E+00 -0.45593999997E+02  0.45594000000E+02  0.51100000000E-03 0. -1.
    9900012    2    1    2    0    0  0.30375644160E+02  0.24523672067E+02  0.11361078572E+02  0.50528876103E+02  0.30000049402E+02 0.  0.
         12    1    1    2    0    0 -0.30375644160E+02 -0.24523672067E+02 -0.11361078572E+02  0.40659123897E+02  0.00000000000E+00 0. -1.
         11    1    3    3    0    0  0.21308299340E+02  0.72902145831E+00  0.78278830993E+01  0.22712350102E+02  0.51100000000E-03 0. -1.
        -11    1    3    3    0    0 -0.19738668760E-01 -0.10462572659E+01  0.59303141207E+00  0.12028010635E+01  0.51100000000E-03 0.  1.
        -12    1    3    3    0    0  0.90870834883E+01  0.24840907874E+02  0.29401640612E+01  0.26613724938E+02  0.00000000000E+00 0.  1.
</event>
<event>
 7    1  0.2432574E-011  0.5052886E+02  0.7816164E-02  0.1300439E+00
        -11   -1    0    0    0    0  0.00000000000E+00  0.00000000000E+00  0.45593999997E+02  0.45594000000E+02  0.51100000000E-03 0.  1.
         11   -1    0    0    0    0 -0.00000000000E+00 -0.00000000000E+00 -0.45593999997E+02  0.45594000000E+02  0.51100000000E-03 0. -1.
    9900012    2    1    2    0    0 -0.23089117107E+01 -0.16776546966E+02  0.36964600859E+02  0.50528864273E+02  0.30000013445E+02 0.  0.
         12    1    1    2    0    0  0.23089117107E+01  0.16776546966E+02 -0.36964600859E+02  0.40659135727E+02  0.00000000000E+00 0. -1.
         11    1    3    3    0    0  0.80317376384E+01 -0.60031339690E+01  0.85157308182E+01  0.13155382874E+02  0.51100000000E-03 0. -1.
        -11    1    3    3    0    0 -0.16479254812E+01  0.54166590039E+01  0.47882636042E+01  0.74150739552E+01  0.51100000000E-03 0.  1.
        -12    1    3    3    0    0 -0.86927238679E+01 -0.16190072001E+02  0.23660606436E+02  0.29958407444E+02  0.00000000000E+00 0.  1.
</event>
<event>
 7    1  0.2432574E-011  0.5052887E+02  0.7816164E-02  0.1300439E+00
        -11   -1    0    0    0    0  0.00000000000E+00  0.00000000000E+00  0.45593999997E+02  0.45594000000E+02  0.51100000000E-03 0. -1.
         11   -1    0    0    0    0 -0.00000000000E+00 -0.00000000000E+00 -0.45593999997E+02  0.45594000000E+02  0.51100000000E-03 0.  1.
    9900012    2    1    2    0    0  0.37492434130E+02  0.63842385281E+01 -0.14377898050E+02  0.50528867312E+02  0.30000022681E+02 0.  0.
         12    1    1    2    0    0 -0.37492434130E+02 -0.63842385281E+01  0.14377898050E+02  0.40659132688E+02  0.00000000000E+00 0. -1.
         11    1    3    3    0    0  0.16508713568E+02 -0.57773852489E+01 -0.47914147136E+01  0.18134868602E+02  0.51100000000E-03 0. -1.
        -11    1    3    3    0    0  0.78747485555E+01  0.32085454717E+01 -0.13582033127E+02  0.16024295709E+02  0.51100000000E-03 0.  1.
         12    1    3    3    0    0  0.13108972007E+02  0.89530783053E+01  0.39955497902E+01  0.16369703001E+02  0.00000000000E+00 0. -1.
</event>
<event>
 7    1  0.4226249E-011  0.5052886E+02  0.7816164E-02  0.1300439E+00
        -11   -1    0    0    0    0  0.00000000000E+00  0.00000000000E+00  0.45593999997E+02  0.45594000000E+02  0.51100000000E-03 0. -1.
         11   -1    0    0    0    0 -0.00000000000E+00 -0.00000000000E+00 -0.45593999997E+02  0.45594000000E+02  0.51100000000E-03 0.  1.
    9900012    2    1    2    0    0  0.12047823342E+02 -0.32298264177E+02 -0.21560089057E+02  0.50528863804E+02  0.30000012017E+02 0.  0.
         12    1    1    2    0    0 -0.12047823342E+02  0.32298264177E+02  0.21560089057E+02  0.40659136196E+02  0.00000000000E+00 0. -1.
         11    1    3    3    0    0 -0.57725805294E+01 -0.41196492444E+01  0.10386307877E+01  0.71674925908E+01  0.51100000000E-03 0. -1.
        -11    1    3    3    0    0  0.92608623082E+01 -0.12673514769E+02 -0.14310296357E+01  0.15761643105E+02  0.51100000000E-03 0.  1.
        -12    1    3    3    0    0  0.85595415632E+01 -0.15505100163E+02 -0.21167690208E+02  0.27599728107E+02  0.00000000000E+00 0.  1.
</event>
<event>
 7    1  0.2432574E-011  0.5052886E+02  0.7816164E-02  0.1300439E+00
        -11   -1    0    0    0    0  0.00000000000E+00  0.00000000000E+00  0.45593999997E+02  0.45594000000E+02  0.51100000000E-03 0.  1.
         11   -1    0    0    0    0 -0.00000000000E+00 -0.00000000000E+00 -0.45593999997E+02  0.45594000000E+02  0.51100000000E-03 0. -1.
    9900012    2    1    2    0    0 -0.25949976262E+02 -0.19456876271E+02  0.24519262249E+02  0.50528861747E+02  0.30000005767E+02 0.  0.
         12    1    1    2    0    0  0.25949976262E+02  0.19456876271E+02 -0.24519262249E+02  0.40659138253E+02  0.00000000000E+00 0. -1.
         11    1    3    3    0    0 -0.70715724176E+01  0.35063793536E+01 -0.10926834075E+01  0.79684245569E+01  0.51100000000E-03 0. -1.
        -11    1    3    3    0    0 -0.13644461785E+02 -0.42409303256E+01  0.82687759336E+01  0.16508467014E+02  0.51100000000E-03 0.  1.
         12    1    3    3    0    0 -0.52339420594E+01 -0.18722325299E+02  0.17343169722E+02  0.26051970177E+02  0.00000000000E+00 0. -1.
</event>
<event>
 7    1  0.2432574E-011  0.5052887E+02  0.7816164E-02  0.1300439E+00
        -11   -1    0    0    0    0  0.00000000000E+00  0.00000000000E+00  0.45593999997E+02  0.45594000000E+02  0.51100000000E-03 0. -1.
         11   -1    0    0    0    0 -0.00000000000E+00 -0.00000000000E+00 -0.45593999997E+02  0.45594000000E+02  0.51100000000E-03 0.  1.
    9900012    2    1    2    0    0 -0.17908870176E+02 -0.34095467857E+02 -0.13035951459E+02  0.50528873229E+02  0.30000040666E+02 0.  0.
         12    1    1    2    0    0  0.17908870176E+02  0.34095467857E+02  0.13035951459E+02  0.40659126771E+02  0.00000000000E+00 0. -1.
         11    1    3    3    0    0 -0.48545761877E+01  0.34329996483E+01 -0.23158268444E+01  0.63808659900E+01  0.51100000000E-03 0. -1.
        -11    1    3    3    0    0 -0.81863099279E+01 -0.26228711393E+02 -0.14770148567E+02  0.31194843492E+02  0.51100000000E-03 0.  1.
         12    1    3    3    0    0 -0.48679840605E+01 -0.11299756113E+02  0.40500239532E+01  0.12953163746E+02  0.00000000000E+00 0. -1.
</event>
<event>
 7    1  0.2432574E-011  0.5052886E+02  0.7816164E-02  0.1300439E+00
        -11   -1    0    0    0    0  0.00000000000E+00  0.00000000000E+00  0.45593999997E+02  0.45594000000E+02  0.51100000000E-03 0.  1.
         11   -1    0    0    0    0 -0.00000000000E+00 -0.00000000000E+00 -0.45593999997E+02  0.45594000000E+02  0.51100000000E-03 0. -1.
    9900012    2    1    2    0    0 -0.59398793170E+01 -0.38554832799E+02 -0.11463354681E+02  0.50528858359E+02  0.29999995467E+02 0.  0.
         12    1    1    2    0    0  0.59398793170E+01  0.38554832799E+02  0.11463354681E+02  0.40659141641E+02  0.00000000000E+00 0. -1.
         11    1    3    3    0    0 -0.52617128610E+01  0.10780006785E+01 -0.43962995216E+01  0.69408326186E+01  0.51100000000E-03 0. -1.
        -11    1    3    3    0    0  0.35425410185E+01 -0.55869961861E+01  0.37653965287E+01  0.76119862409E+01  0.51100000000E-03 0.  1.
        -12    1    3    3    0    0 -0.42207074745E+01 -0.34045837292E+02 -0.10832451688E+02  0.35976039499E+02  0.00000000000E+00 0.  1.
</event>
<event>
 7    1  0.2432574E-011  0.5052887E+02  0.7816164E-02  0.1300439E+00
        -11   -1    0    0    0    0  0.00000000000E+00  0.00000000000E+00  0.45593999997E+02  0.45594000000E+02  0.51100000000E-03 0.  1.
         11   -1    0    0    0    0 -0.00000000000E+00 -0.00000000000E+00 -0.45593999997E+02  0.45594000000E+02  0.51100000000E-03 0. -1.
    9900012    2    1    2    0    0  0.22192642536E+02  0.13019180057E+02  0.31482571099E+02  0.50528871688E+02  0.30000035983E+02 0.  0.
         12    1    1    2    0    0 -0.22192642536E+02 -0.13019180057E+02 -0.31482571099E+02  0.40659128312E+02  0.00000000000E+00 0. -1.
         11    1    3    3    0    0 -0.14470996448E+01  0.12753139600E+01  0.84337826215E+01  0.86515439458E+01  0.51100000000E-03 0. -1.
        -11    1    3    3    0    0  0.38371060075E+01  0.10862330396E+02  0.18085874466E+02  0.21443238086E+02  0.51100000000E-03 0.  1.
        -12    1    3    3    0    0  0.19802636173E+02  0.88153570097E+00  0.49629140114E+01  0.20434089656E+02  0.00000000000E+00 0.  1.
</event>
<event>
 7    1  0.2432574E-011  0.5052889E+02  0.7816164E-02  0.1300439E+00
        -11   -1    0    0    0    0  0.00000000000E+00  0.00000000000E+00  0.45593999997E+02  0.45594000000E+02  0.51100000000E-03 0. -1.
         11   -1    0    0    0    0 -0.00000000000E+00 -0.00000000000E+00 -0.45593999997E+02  0.45594000000E+02  0.51100000000E-03 0.  1.
    9900012    2    1    2    0    0  0.33183541171E+02 -0.22996905289E+02 -0.48122794382E+01  0.50528891662E+02  0.30000096695E+02 0.  0.
         12    1    1    2    0    0 -0.33183541171E+02  0.22996905289E+02  0.48122794382E+01  0.40659108338E+02  0.00000000000E+00 0. -1.
         11    1    3    3    0    0  0.11505024026E+02 -0.11643509073E+02  0.89396466910E+01  0.18650848897E+02  0.51100000000E-03 0. -1.
        -11    1    3    3    0    0  0.67237216762E+01  0.26391553132E+01 -0.25117463822E-01  0.72231714014E+01  0.51100000000E-03 0.  1.
        -12    1    3    3    0    0  0.14954795468E+02 -0.13992551529E+02 -0.13726808665E+02  0.24654871363E+02  0.00000000000E+00 0.  1.
</event>
<event>
 7    1  0.2432574E-011  0.5052886E+02  0.7816164E-02  0.1300439E+00
        -11   -1    0    0    0    0  0.00000000000E+00  0.00000000000E+00  0.45593999997E+02  0.45594000000E+02  0.51100000000E-03 0.  1.
         11   -1    0    0    0    0 -0.00000000000E+00 -0.00000000000E+00 -0.45593999997E+02  0.45594000000E+02  0.51100000000E-03 0. -1.
    9900012    2    1    2    0    0  0.11678213487E+02 -0.91657747661E+01  0.37851998104E+02  0.50528857636E+02  0.29999993271E+02 0.  0.
         12    1    1    2    0    0 -0.11678213487E+02  0.91657747661E+01 -0.37851998104E+02  0.40659142364E+02  0.00000000000E+00 0. -1.
         11    1    3    3    0    0 -0.12728689604E+01  0.40314233887E+01 -0.10076158914E+01  0.43460165641E+01  0.51100000000E-03 0. -1.
        -11    1    3    3    0    0 -0.74787245085E-02 -0.67125065034E+01  0.25856060461E+02  0.26713173947E+02  0.51100000000E-03 0.  1.
        -12    1    3    3    0    0  0.12958561172E+02 -0.64846916515E+01  0.13003553534E+02  0.19469667125E+02  0.00000000000E+00 0.  1.
</event>
<event>
 7    1  0.2432574E-011  0.5052886E+02  0.7816164E-02  0.1300439E+00
        -11   -1    0    0    0    0  0.00000000000E+00  0.00000000000E+00  0.45593999997E+02  0.45594000000E+02  0.51100000000E-03 0.  1.
         11   -1    0    0    0    0 -0.00000000000E+00 -0.00000000000E+00 -0.45593999997E+02  0.45594000000E+02  0.51100000000E-03 0. -1.
    9900012    2    1    2    0    0  0.88787278920E+01 -0.20185739207E+02  0.34159477076E+02  0.50528858956E+02  0.29999997283E+02 0.  0.
         12    1    1    2    0    0 -0.88787278920E+01  0.20185739207E+02 -0.34159477076E+02  0.40659141044E+02  0.00000000000E+00 0. -1.
         11    1    3    3    0    0 -0.71120461860E+00  0.15447535510E+00  0.14220058505E+02  0.14238670542E+02  0.51100000000E-03 0. -1.
        -11    1    3    3    0    0  0.59202682222E+01 -0.22639430789E-01  0.13372897640E+02  0.14624789910E+02  0.51100000000E-03 0.  1.
         12    1    3    3    0    0  0.36696642884E+01 -0.20317575131E+02  0.65665209312E+01  0.21665398504E+02  0.00000000000E+00 0. -1.
</event>
<event>
 7    1  0.2432574E-011  0.5052886E+02  0.7816164E-02  0.1300439E+00
        -11   -1    0    0    0    0  0.00000000000E+00  0.00000000000E+00  0.45593999997E+02  0.45594000000E+02  0.51100000000E-03 0. -1.
         11   -1    0    0    0    0 -0.00000000000E+00 -0.00000000000E+00 -0.45593999997E+02  0.45594000000E+02  0.51100000000E-03 0.  1.
    9900012    2    1    2    0    0  0.38419563381E+02  0.13020075998E+02 -0.27532374772E+01  0.50528861471E+02  0.30000004926E+02 0.  0.
         12    1    1    2    0    0 -0.38419563381E+02 -0.13020075998E+02  0.27532374772E+01  0.40659138529E+02  0.00000000000E+00 0. -1.
         11    1    3    3    0    0  0.97435161933E+01  0.48534654390E+01 -0.47932179789E+01  0.11893997370E+02  0.51100000000E-03 0. -1.
        -11    1    3    3    0    0  0.18026527943E+02  0.13805507995E+02 -0.67860408252E+01  0.23698061334E+02  0.51100000000E-03 0.  1.
         12    1    3    3    0    0  0.10649519244E+02 -0.56388974354E+01  0.88260213268E+01  0.14936802766E+02  0.00000000000E+00 0. -1.
</event>
<event>
 7    1  0.2432574E-011  0.5052886E+02  0.7816164E-02  0.1300439E+00
        -11   -1    0    0    0    0  0.00000000000E+00  0.00000000000E+00  0.45593999997E+02  0.45594000000E+02  0.51100000000E-03 0.  1.
         11   -1    0    0    0    0 -0.00000000000E+00 -0.00000000000E+00 -0.45593999997E+02  0.45594000000E+02  0.51100000000E-03 0. -1.
    9900012    2    1    2    0    0 -0.38068271013E+01 -0.26689944279E+02  0.30435513280E+02  0.50528861706E+02  0.30000005642E+02 0.  0.
         12    1    1    2    0    0  0.38068271013E+01  0.26689944279E+02 -0.30435513280E+02  0.40659138294E+02  0.00000000000E+00 0. -1.
         11    1    3    3    0    0 -0.92487414313E+00  0.35824181092E+01  0.61275810771E+00  0.37502779163E+01  0.51100000000E-03 0. -1.
        -11    1    3    3    0    0  0.36509269875E+01  0.65294226329E+00  0.64924388366E+00  0.37652515651E+01  0.51100000000E-03 0.  1.
        -12    1    3    3    0    0 -0.65328799457E+01 -0.30925304651E+02  0.29173511289E+02  0.43013332225E+02  0.00000000000E+00 0.  1.
</event>
<event>
 7    1  0.2432574E-011  0.5052886E+02  0.7816164E-02  0.1300439E+00
        -11   -1    0    0    0    0  0.00000000000E+00  0.00000000000E+00  0.45593999997E+02  0.45594000000E+02  0.51100000000E-03 0.  1.
         11   -1    0    0    0    0 -0.00000000000E+00 -0.00000000000E+00 -0.45593999997E+02  0.45594000000E+02  0.51100000000E-03 0. -1.
    9900012    2    1    2    0    0 -0.26506925158E+02  0.23747025662E+02  0.19662839557E+02  0.50528861193E+02  0.30000004081E+02 0.  0.
         12    1    1    2    0    0  0.26506925158E+02 -0.23747025662E+02 -0.19662839557E+02  0.40659138807E+02  0.00000000000E+00 0. -1.
         11    1    3    3    0    0 -0.12033520093E+02  0.19567555249E+02  0.16882965486E+02  0.28508408375E+02  0.51100000000E-03 0.  1.
        -11    1    3    3    0    0 -0.15924243043E+02  0.14891271084E+01  0.64489978388E+01  0.17244958377E+02  0.51100000000E-03 0. -1.
        -12    1    3    3    0    0  0.14508379773E+01  0.26903433046E+01 -0.36691237676E+01  0.47754944409E+01  0.00000000000E+00 0.  1.
</event>
<event>
 7    1  0.2432574E-011  0.5052881E+02  0.7816164E-02  0.1300439E+00
        -11   -1    0    0    0    0  0.00000000000E+00  0.00000000000E+00  0.45593999997E+02  0.45594000000E+02  0.51100000000E-03 0.  1.
         11   -1    0    0    0    0 -0.00000000000E+00 -0.00000000000E+00 -0.45593999997E+02  0.45594000000E+02  0.51100000000E-03 0. -1.
    9900012    2    1    2    0    0  0.43061531357E+00 -0.33606280800E+02  0.22882348364E+02  0.50528814009E+02  0.29999860662E+02 0.  0.
         12    1    1    2    0    0 -0.43061531357E+00  0.33606280800E+02 -0.22882348364E+02  0.40659185991E+02  0.00000000000E+00 0. -1.
         11    1    3    3    0    0 -0.17286595450E+01  0.14530288023E+01  0.91628505735E+01  0.94370221689E+01  0.51100000000E-03 0. -1.
        -11    1    3    3    0    0  0.35799267532E+01 -0.10519409589E+01 -0.12126842808E+01  0.39233988792E+01  0.51100000000E-03 0.  1.
        -12    1    3    3    0    0 -0.14206518947E+01 -0.34007368644E+02  0.14932182071E+02  0.37168392961E+02  0.00000000000E+00 0.  1.
</event>
<event>
 7    1  0.2432574E-011  0.5052886E+02  0.7816164E-02  0.1300439E+00
        -11   -1    0    0    0    0  0.00000000000E+00  0.00000000000E+00  0.45593999997E+02  0.45594000000E+02  0.51100000000E-03 0.  1.
         11   -1    0    0    0    0 -0.00000000000E+00 -0.00000000000E+00 -0.45593999997E+02  0.45594000000E+02  0.51100000000E-03 0. -1.
    9900012    2    1    2    0    0 -0.19893307794E+02  0.14668929828E+02  0.32283815547E+02  0.50528856581E+02  0.29999990065E+02 0.  0.
         12    1    1    2    0    0  0.19893307794E+02 -0.14668929828E+02 -0.32283815547E+02  0.40659143419E+02  0.00000000000E+00 0. -1.
         11    1    3    3    0    0  0.36746845415E+01 -0.22606884375E+01  0.44870941583E+01  0.62247917987E+01  0.51100000000E-03 0. -1.
        -11    1    3    3    0    0 -0.10520892242E+02 -0.22095601164E+01  0.12774382414E+02  0.16695992806E+02  0.51100000000E-03 0.  1.
         12    1    3    3    0    0 -0.13047100094E+02  0.19139178382E+02  0.15022338975E+02  0.27608071976E+02  0.00000000000E+00 0. -1.
</event>
<event>
 7    1  0.2432574E-011  0.5052885E+02  0.7816164E-02  0.1300439E+00
        -11   -1    0    0    0    0  0.00000000000E+00  0.00000000000E+00  0.45593999997E+02  0.45594000000E+02  0.51100000000E-03 0.  1.
         11   -1    0    0    0    0 -0.00000000000E+00 -0.00000000000E+00 -0.45593999997E+02  0.45594000000E+02  0.51100000000E-03 0. -1.
    9900012    2    1    2    0    0 -0.25941577261E+01  0.56946232490E+01  0.40174716819E+02  0.50528852693E+02  0.29999978245E+02 0.  0.
         12    1    1    2    0    0  0.25941577261E+01 -0.56946232490E+01 -0.40174716819E+02  0.40659147307E+02  0.00000000000E+00 0. -1.
         11    1    3    3    0    0  0.82584982244E+01  0.62132972336E+01  0.49566319038E+01  0.11461939431E+02  0.51100000000E-03 0. -1.
        -11    1    3    3    0    0  0.79013436773E+00  0.40968654043E+01  0.11702952559E+02  0.12424480566E+02  0.51100000000E-03 0.  1.
         12    1    3    3    0    0 -0.11642790318E+02 -0.46155393889E+01  0.23515132356E+02  0.26642432696E+02  0.00000000000E+00 0. -1.
</event>
<event>
 7    1  0.2432574E-011  0.5052887E+02  0.7816164E-02  0.1300439E+00
        -11   -1    0    0    0    0  0.00000000000E+00  0.00000000000E+00  0.45593999997E+02  0.45594000000E+02  0.51100000000E-03 0. -1.
         11   -1    0    0    0    0 -0.00000000000E+00 -0.00000000000E+00 -0.45593999997E+02  0.45594000000E+02  0.51100000000E-03 0.  1.
    9900012    2    1    2    0    0 -0.29373831522E+02 -0.15645363360E+02 -0.23357335461E+02  0.50528874422E+02  0.30000044292E+02 0.  0.
         12    1    1    2    0    0  0.29373831522E+02  0.15645363360E+02  0.23357335461E+02  0.40659125578E+02  0.00000000000E+00 0. -1.
         11    1    3    3    0    0 -0.80790961083E+01 -0.12340863643E+02 -0.43867403335E+01  0.15388703662E+02  0.51100000000E-03 0. -1.
        -11    1    3    3    0    0 -0.62842810409E+01  0.32945091714E+00  0.40028167956E+01  0.74581008754E+01  0.51100000000E-03 0.  1.
        -12    1    3    3    0    0 -0.15010454372E+02 -0.36339506346E+01 -0.22973411923E+02  0.27682069884E+02  0.00000000000E+00 0.  1.
</event>
<event>
 7    1  0.2432574E-011  0.5052886E+02  0.7816164E-02  0.1300439E+00
        -11   -1    0    0    0    0  0.00000000000E+00  0.00000000000E+00  0.45593999997E+02  0.45594000000E+02  0.51100000000E-03 0. -1.
         11   -1    0    0    0    0 -0.00000000000E+00 -0.00000000000E+00 -0.45593999997E+02  0.45594000000E+02  0.51100000000E-03 0.  1.
    9900012    2    1    2    0    0  0.32189379632E+02  0.21318152095E+02 -0.12749345795E+02  0.50528860953E+02  0.30000003354E+02 0.  0.
         12    1    1    2    0    0 -0.32189379632E+02 -0.21318152095E+02  0.12749345795E+02  0.40659139047E+02  0.00000000000E+00 0. -1.
         11    1    3    3    0    0  0.67573032079E+01  0.15764280307E+02 -0.33427708566E+01  0.17474203773E+02  0.51100000000E-03 0. -1.
        -11    1    3    3    0    0  0.12553903194E+02  0.10305757042E+00  0.44964934692E+01  0.13335275027E+02  0.51100000000E-03 0.  1.
        -12    1    3    3    0    0  0.12878173230E+02  0.54508142174E+01 -0.13903068408E+02  0.19719382154E+02  0.00000000000E+00 0.  1.
</event>
<event>
 7    1  0.2432574E-011  0.5052886E+02  0.7816164E-02  0.1300439E+00
        -11   -1    0    0    0    0  0.00000000000E+00  0.00000000000E+00  0.45593999997E+02  0.45594000000E+02  0.51100000000E-03 0.  1.
         11   -1    0    0    0    0 -0.00000000000E+00 -0.00000000000E+00 -0.45593999997E+02  0.45594000000E+02  0.51100000000E-03 0. -1.
    9900012    2    1    2    0    0 -0.33839380888E+02 -0.17576488387E+02  0.14111315022E+02  0.50528857676E+02  0.29999993393E+02 0.  0.
         12    1    1    2    0    0  0.33839380888E+02  0.17576488387E+02 -0.14111315022E+02  0.40659142324E+02  0.00000000000E+00 0. -1.
         11    1    3    3    0    0 -0.35153648071E+01 -0.12259802288E+02  0.30055117247E+01  0.13103192087E+02  0.51100000000E-03 0. -1.
        -11    1    3    3    0    0 -0.10586622721E+02 -0.51673267667E+01 -0.41385314404E+01  0.12486203959E+02  0.51100000000E-03 0.  1.
         12    1    3    3    0    0 -0.19737393360E+02 -0.14935933156E+00  0.15244334738E+02  0.24939461631E+02  0.00000000000E+00 0. -1.
</event>
<event>
 7    1  0.2432574E-011  0.5052886E+02  0.7816164E-02  0.1300439E+00
        -11   -1    0    0    0    0  0.00000000000E+00  0.00000000000E+00  0.45593999997E+02  0.45594000000E+02  0.51100000000E-03 0. -1.
         11   -1    0    0    0    0 -0.00000000000E+00 -0.00000000000E+00 -0.45593999997E+02  0.45594000000E+02  0.51100000000E-03 0.  1.
    9900012    2    1    2    0    0  0.31556797735E+01  0.27656113505E+02 -0.29636911192E+02  0.50528862847E+02  0.30000009109E+02 0.  0.
         12    1    1    2    0    0 -0.31556797735E+01 -0.27656113505E+02  0.29636911192E+02  0.40659137153E+02  0.00000000000E+00 0. -1.
         11    1    3    3    0    0  0.69486082915E+01  0.34320632191E+01 -0.46851976807E+01  0.90561190748E+01  0.51100000000E-03 0. -1.
        -11    1    3    3    0    0  0.13904076214E+01  0.26242078352E+02 -0.15510537429E+02  0.30514860006E+02  0.51100000000E-03 0.  1.
        -12    1    3    3    0    0 -0.51833361394E+01 -0.20180280665E+01 -0.94411760826E+01  0.10957883766E+02  0.00000000000E+00 0.  1.
</event>
<event>
 7    1  0.2432574E-011  0.5052887E+02  0.7816164E-02  0.1300439E+00
        -11   -1    0    0    0    0  0.00000000000E+00  0.00000000000E+00  0.45593999997E+02  0.45594000000E+02  0.51100000000E-03 0. -1.
         11   -1    0    0    0    0 -0.00000000000E+00 -0.00000000000E+00 -0.45593999997E+02  0.45594000000E+02  0.51100000000E-03 0.  1.
    9900012    2    1    2    0    0  0.29372144524E+02  0.17046201785E+02 -0.22357755846E+02  0.50528866761E+02  0.30000021008E+02 0.  0.
         12    1    1    2    0    0 -0.29372144524E+02 -0.17046201785E+02  0.22357755846E+02  0.40659133239E+02  0.00000000000E+00 0. -1.
         11    1    3    3    0    0 -0.24387033349E+00 -0.46865958685E+01 -0.17240269965E+00  0.46961022696E+01  0.51100000000E-03 0. -1.
        -11    1    3    3    0    0  0.32236111154E+01  0.89058021799E+01 -0.76517002194E+00  0.95021295778E+01  0.51100000000E-03 0.  1.
         12    1    3    3    0    0  0.26392403742E+02  0.12826995474E+02 -0.21420183125E+02  0.36330634914E+02  0.00000000000E+00 0. -1.
</event>
<event>
 7    1  0.2432574E-011  0.5052886E+02  0.7816164E-02  0.1300439E+00
        -11   -1    0    0    0    0  0.00000000000E+00  0.00000000000E+00  0.45593999997E+02  0.45594000000E+02  0.51100000000E-03 0.  1.
         11   -1    0    0    0    0 -0.00000000000E+00 -0.00000000000E+00 -0.45593999997E+02  0.45594000000E+02  0.51100000000E-03 0. -1.
    9900012    2    1    2    0    0 -0.81809269636E+01 -0.37275864394E+02  0.14026699273E+02  0.50528856812E+02  0.29999990765E+02 0.  0.
         12    1    1    2    0    0  0.81809269636E+01  0.37275864394E+02 -0.14026699273E+02  0.40659143188E+02  0.00000000000E+00 0. -1.
         11    1    3    3    0    0  0.58227409533E+01 -0.76676059970E+01  0.13197983171E+02  0.16336561878E+02  0.51100000000E-03 0. -1.
        -11    1    3    3    0    0 -0.14488282857E+01 -0.70008371030E+00 -0.19791054058E+01  0.25507016821E+01  0.51100000000E-03 0.  1.
        -12    1    3    3    0    0 -0.12554839631E+02 -0.28908174687E+02  0.28078215077E+01  0.31641593252E+02  0.00000000000E+00 0.  1.
</event>
<event>
 7    1  0.2432574E-011  0.5052886E+02  0.7816164E-02  0.1300439E+00
        -11   -1    0    0    0    0  0.00000000000E+00  0.00000000000E+00  0.45593999997E+02  0.45594000000E+02  0.51100000000E-03 0.  1.
         11   -1    0    0    0    0 -0.00000000000E+00 -0.00000000000E+00 -0.45593999997E+02  0.45594000000E+02  0.51100000000E-03 0. -1.
    9900012    2    1    2    0    0  0.40372046662E+02  0.32728578951E+01  0.35429091084E+01  0.50528856435E+02  0.29999989621E+02 0.  0.
         12    1    1    2    0    0 -0.40372046662E+02 -0.32728578951E+01 -0.35429091084E+01  0.40659143565E+02  0.00000000000E+00 0. -1.
         11    1    3    3    0    0  0.32390165873E+02  0.25260714275E+01  0.42936794542E+00  0.32491356378E+02  0.51100000000E-03 0.  1.
        -11    1    3    3    0    0  0.95158978171E+01 -0.38653337016E+01  0.64624773497E+01  0.12134938387E+02  0.51100000000E-03 0. -1.
         12    1    3    3    0    0 -0.15340170289E+01  0.46121201692E+01 -0.33489361867E+01  0.59025616712E+01  0.00000000000E+00 0. -1.
</event>
<event>
 7    1  0.2432574E-011  0.5052886E+02  0.7816164E-02  0.1300439E+00
        -11   -1    0    0    0    0  0.00000000000E+00  0.00000000000E+00  0.45593999997E+02  0.45594000000E+02  0.51100000000E-03 0.  1.
         11   -1    0    0    0    0 -0.00000000000E+00 -0.00000000000E+00 -0.45593999997E+02  0.45594000000E+02  0.51100000000E-03 0. -1.
    9900012    2    1    2    0    0  0.11482592894E+02 -0.34420728960E+02 -0.18344733267E+02  0.50528858834E+02  0.29999996912E+02 0.  0.
         12    1    1    2    0    0 -0.11482592894E+02  0.34420728960E+02  0.18344733267E+02  0.40659141166E+02  0.00000000000E+00 0. -1.
         11    1    3    3    0    0 -0.25436525440E+01  0.20044753906E+01 -0.17148296210E+01  0.36645232632E+01  0.51100000000E-03 0. -1.
        -11    1    3    3    0    0  0.14019856846E+02 -0.17530362370E+02 -0.16685858849E+02  0.27969409657E+02  0.51100000000E-03 0.  1.
         12    1    3    3    0    0  0.63885926268E-02 -0.18894841981E+02  0.55955202657E-01  0.18894925913E+02  0.00000000000E+00 0. -1.
</event>
<event>
 7    1  0.2432574E-011  0.5052886E+02  0.7816164E-02  0.1300439E+00
        -11   -1    0    0    0    0  0.00000000000E+00  0.00000000000E+00  0.45593999997E+02  0.45594000000E+02  0.51100000000E-03 0.  1.
         11   -1    0    0    0    0 -0.00000000000E+00 -0.00000000000E+00 -0.45593999997E+02  0.45594000000E+02  0.51100000000E-03 0. -1.
    9900012    2    1    2    0    0  0.26759204546E+02 -0.30411255773E+02 -0.35023271898E+01  0.50528858329E+02  0.29999995378E+02 0.  0.
         12    1    1    2    0    0 -0.26759204546E+02  0.30411255773E+02  0.35023271898E+01  0.40659141671E+02  0.00000000000E+00 0. -1.
         11    1    3    3    0    0  0.12955081572E+02 -0.12696798898E+02 -0.12688821358E+02  0.22137051035E+02  0.51100000000E-03 0. -1.
        -11    1    3    3    0    0  0.31483592995E+01 -0.14622068030E+02  0.18058010093E+01  0.15065787643E+02  0.51100000000E-03 0.  1.
        -12    1    3    3    0    0  0.10655763675E+02 -0.30923888446E+01  0.73806931588E+01  0.13326019652E+02  0.00000000000E+00 0.  1.
</event>
<event>
 7    1  0.2876944E-011  0.5052885E+02  0.7816164E-02  0.1300439E+00
        -11   -1    0    0    0    0  0.00000000000E+00  0.00000000000E+00  0.45593999997E+02  0.45594000000E+02  0.51100000000E-03 0.  1.
         11   -1    0    0    0    0 -0.00000000000E+00 -0.00000000000E+00 -0.45593999997E+02  0.45594000000E+02  0.51100000000E-03 0. -1.
    9900012    2    1    2    0    0  0.33690547277E+02  0.22739362617E+01  0.22648244033E+02  0.50528847037E+02  0.29999961052E+02 0.  0.
         12    1    1    2    0    0 -0.33690547277E+02 -0.22739362617E+01 -0.22648244033E+02  0.40659152963E+02  0.00000000000E+00 0. -1.
         11    1    3    3    0    0  0.76825861050E+01  0.16372840413E+01 -0.54421903161E+01  0.95561636649E+01  0.51100000000E-03 0. -1.
        -11    1    3    3    0    0 -0.14966330345E+01 -0.31920171781E+00  0.44030860607E+01  0.46614340386E+01  0.51100000000E-03 0.  1.
        -12    1    3    3    0    0  0.27504594207E+02  0.95585393822E+00  0.23687348288E+02  0.36311249333E+02  0.00000000000E+00 0.  1.
</event>
<event>
 7    1  0.2432574E-011  0.5052886E+02  0.7816164E-02  0.1300439E+00
        -11   -1    0    0    0    0  0.00000000000E+00  0.00000000000E+00  0.45593999997E+02  0.45594000000E+02  0.51100000000E-03 0.  1.
         11   -1    0    0    0    0 -0.00000000000E+00 -0.00000000000E+00 -0.45593999997E+02  0.45594000000E+02  0.51100000000E-03 0. -1.
    9900012    2    1    2    0    0 -0.12936640823E+02  0.44274821877E+01  0.38291077363E+02  0.50528857364E+02  0.29999992443E+02 0.  0.
         12    1    1    2    0    0  0.12936640823E+02 -0.44274821877E+01 -0.38291077363E+02  0.40659142636E+02  0.00000000000E+00 0. -1.
         11    1    3    3    0    0 -0.98639896848E+01  0.12284611451E+01  0.16276081899E+01  0.10072562632E+02  0.51100000000E-03 0. -1.
        -11    1    3    3    0    0 -0.94648722605E+01 -0.59571120767E+00  0.23453631209E+02  0.25298448488E+02  0.51100000000E-03 0.  1.
        -12    1    3    3    0    0  0.63922211226E+01  0.37947322503E+01  0.13209837964E+02  0.15157846244E+02  0.00000000000E+00 0.  1.
</event>
<event>
 7    1  0.2432574E-011  0.5052890E+02  0.7816164E-02  0.1300439E+00
        -11   -1    0    0    0    0  0.00000000000E+00  0.00000000000E+00  0.45593999997E+02  0.45594000000E+02  0.51100000000E-03 0.  1.
         11   -1    0    0    0    0 -0.00000000000E+00 -0.00000000000E+00 -0.45593999997E+02  0.45594000000E+02  0.51100000000E-03 0. -1.
    9900012    2    1    2    0    0  0.22177834967E+02  0.34052949561E+02  0.13048451925E+01  0.50528900667E+02  0.30000124067E+02 0.  0.
         12    1    1    2    0    0 -0.22177834967E+02 -0.34052949561E+02 -0.13048451925E+01  0.40659099333E+02  0.00000000000E+00 0. -1.
         11    1    3    3    0    0 -0.27781311858E+01  0.46584839446E+01 -0.27986446778E+01  0.61034332831E+01  0.51100000000E-03 0. -1.
        -11    1    3    3    0    0  0.13704085258E+02  0.24626419066E+02 -0.57065508943E+01  0.28754602973E+02  0.51100000000E-03 0.  1.
        -12    1    3    3    0    0  0.11251880894E+02  0.47680465501E+01  0.98100407646E+01  0.15670864410E+02  0.00000000000E+00 0.  1.
</event>
<event>
 7    1  0.2432574E-011  0.5052885E+02  0.7816164E-02  0.1300439E+00
        -11   -1    0    0    0    0  0.00000000000E+00  0.00000000000E+00  0.45593999997E+02  0.45594000000E+02  0.51100000000E-03 0.  1.
         11   -1    0    0    0    0 -0.00000000000E+00 -0.00000000000E+00 -0.45593999997E+02  0.45594000000E+02  0.51100000000E-03 0. -1.
    9900012    2    1    2    0    0  0.10225386589E+02  0.16149992556E+02  0.35885726815E+02  0.50528853679E+02  0.29999981244E+02 0.  0.
         12    1    1    2    0    0 -0.10225386589E+02 -0.16149992556E+02 -0.35885726815E+02  0.40659146321E+02  0.00000000000E+00 0. -1.
         11    1    3    3    0    0 -0.25655480597E+00  0.14114388918E+02  0.91346175907E+01  0.16814369857E+02  0.51100000000E-03 0. -1.
        -11    1    3    3    0    0  0.10762181809E+02  0.58133486082E+01  0.27273167411E+02  0.29890554365E+02  0.51100000000E-03 0.  1.
         12    1    3    3    0    0 -0.28024041438E+00 -0.37777449698E+01 -0.52205818689E+00  0.38239294577E+01  0.00000000000E+00 0. -1.
</event>
<event>
 7    1  0.4028201E-011  0.5052886E+02  0.7816164E-02  0.1300439E+00
        -11   -1    0    0    0    0  0.00000000000E+00  0.00000000000E+00  0.45593999997E+02  0.45594000000E+02  0.51100000000E-03 0.  1.
         11   -1    0    0    0    0 -0.00000000000E+00 -0.00000000000E+00 -0.45593999997E+02  0.45594000000E+02  0.51100000000E-03 0. -1.
    9900012    2    1    2    0    0  0.11207031748E+02 -0.38679355149E+02  0.56103363594E+01  0.50528856509E+02  0.29999989846E+02 0.  0.
         12    1    1    2    0    0 -0.11207031748E+02  0.38679355149E+02 -0.56103363594E+01  0.40659143491E+02  0.00000000000E+00 0. -1.
         11    1    3    3    0    0  0.50262552685E+01 -0.81609208218E+01 -0.79835180414E+01  0.12473990190E+02  0.51100000000E-03 0. -1.
        -11    1    3    3    0    0  0.12036326429E+02 -0.17866195645E+02  0.71671852256E+01  0.22703361977E+02  0.51100000000E-03 0.  1.
        -12    1    3    3    0    0 -0.58555499500E+01 -0.12652238682E+02  0.64266691751E+01  0.15351504342E+02  0.00000000000E+00 0.  1.
</event>
<event>
 7    1  0.2432574E-011  0.5052886E+02  0.7816164E-02  0.1300439E+00
        -11   -1    0    0    0    0  0.00000000000E+00  0.00000000000E+00  0.45593999997E+02  0.45594000000E+02  0.51100000000E-03 0.  1.
         11   -1    0    0    0    0 -0.00000000000E+00 -0.00000000000E+00 -0.45593999997E+02  0.45594000000E+02  0.51100000000E-03 0. -1.
    9900012    2    1    2    0    0  0.10942086760E+02 -0.41442940758E+01  0.38939198556E+02  0.50528860557E+02  0.30000002150E+02 0.  0.
         12    1    1    2    0    0 -0.10942086760E+02  0.41442940758E+01 -0.38939198556E+02  0.40659139443E+02  0.00000000000E+00 0. -1.
         11    1    3    3    0    0 -0.22684626982E+01 -0.55803056321E+01 -0.23158121159E+01  0.64535819494E+01  0.51100000000E-03 0. -1.
        -11    1    3    3    0    0  0.83029456710E+00 -0.23856049553E+01  0.78057034898E+01  0.82042371554E+01  0.51100000000E-03 0.  1.
         12    1    3    3    0    0  0.12380254892E+02  0.38216165116E+01  0.33449307182E+02  0.35871041452E+02  0.00000000000E+00 0. -1.
</event>
<event>
 7    1  0.2432574E-011  0.5052886E+02  0.7816164E-02  0.1300439E+00
        -11   -1    0    0    0    0  0.00000000000E+00  0.00000000000E+00  0.45593999997E+02  0.45594000000E+02  0.51100000000E-03 0. -1.
         11   -1    0    0    0    0 -0.00000000000E+00 -0.00000000000E+00 -0.45593999997E+02  0.45594000000E+02  0.51100000000E-03 0.  1.
    9900012    2    1    2    0    0  0.36152032737E+02 -0.12463802054E+02 -0.13814849154E+02  0.50528857242E+02  0.29999992074E+02 0.  0.
         12    1    1    2    0    0 -0.36152032737E+02  0.12463802054E+02  0.13814849154E+02  0.40659142758E+02  0.00000000000E+00 0. -1.
         11    1    3    3    0    0  0.12632858315E+00  0.31008894009E+01 -0.36082851317E+01  0.47593272466E+01  0.51100000000E-03 0. -1.
        -11    1    3    3    0    0  0.28892900680E+02 -0.23857113696E+01 -0.10350290326E+02  0.30783434482E+02  0.51100000000E-03 0.  1.
         12    1    3    3    0    0  0.71328034739E+01 -0.13178980086E+02  0.14372630409E+00  0.14986095514E+02  0.00000000000E+00 0. -1.
</event>
<event>
 7    1  0.2432574E-011  0.5052892E+02  0.7816164E-02  0.1300439E+00
        -11   -1    0    0    0    0  0.00000000000E+00  0.00000000000E+00  0.45593999997E+02  0.45594000000E+02  0.51100000000E-03 0. -1.
         11   -1    0    0    0    0 -0.00000000000E+00 -0.00000000000E+00 -0.45593999997E+02  0.45594000000E+02  0.51100000000E-03 0.  1.
    9900012    2    1    2    0    0 -0.36127710340E+02  0.15596700120E+02 -0.10231938677E+02  0.50528916413E+02  0.30000171930E+02 0.  0.
         12    1    1    2    0    0  0.36127710340E+02 -0.15596700120E+02  0.10231938677E+02  0.40659083587E+02  0.00000000000E+00 0. -1.
         11    1    3    3    0    0 -0.26705385767E+02  0.66790412844E+01 -0.50793611901E+01  0.27992626383E+02  0.51100000000E-03 0. -1.
        -11    1    3    3    0    0 -0.10504920236E+02  0.66973386705E+01  0.39776397206E+01  0.13077817572E+02  0.51100000000E-03 0.  1.
        -12    1    3    3    0    0  0.10825956633E+01  0.22203201647E+01 -0.91302172074E+01  0.94584724590E+01  0.00000000000E+00 0.  1.
</event>
<event>
 7    1  0.2432574E-011  0.5052885E+02  0.7816164E-02  0.1300439E+00
        -11   -1    0    0    0    0  0.00000000000E+00  0.00000000000E+00  0.45593999997E+02  0.45594000000E+02  0.51100000000E-03 0. -1.
         11   -1    0    0    0    0 -0.00000000000E+00 -0.00000000000E+00 -0.45593999997E+02  0.45594000000E+02  0.51100000000E-03 0.  1.
    9900012    2    1    2    0    0 -0.13544171844E+02  0.36066834717E+02  0.12996343151E+02  0.50528854746E+02  0.29999984487E+02 0.  0.
         12    1    1    2    0    0  0.13544171844E+02 -0.36066834717E+02 -0.12996343151E+02  0.40659145254E+02  0.00000000000E+00 0. -1.
         11    1    3    3    0    0  0.29138938076E+01  0.75936328740E+01  0.28991454919E+01  0.86347601120E+01  0.51100000000E-03 0. -1.
        -11    1    3    3    0    0 -0.18749909536E+02  0.27877393564E+02  0.14735918046E+02  0.36685902748E+02  0.51100000000E-03 0.  1.
         12    1    3    3    0    0  0.22918438842E+01  0.59580827971E+00 -0.46387203872E+01  0.52081918865E+01  0.00000000000E+00 0. -1.
</event>
<event>
 7    1  0.2432574E-011  0.5052888E+02  0.7816164E-02  0.1300439E+00
        -11   -1    0    0    0    0  0.00000000000E+00  0.00000000000E+00  0.45593999997E+02  0.45594000000E+02  0.51100000000E-03 0. -1.
         11   -1    0    0    0    0 -0.00000000000E+00 -0.00000000000E+00 -0.45593999997E+02  0.45594000000E+02  0.51100000000E-03 0.  1.
    9900012    2    1    2    0    0  0.99444747587E+01 -0.41256282822E+01 -0.39207790598E+02  0.50528877647E+02  0.30000054096E+02 0.  0.
         12    1    1    2    0    0 -0.99444747587E+01  0.41256282822E+01  0.39207790598E+02  0.40659122353E+02  0.00000000000E+00 0. -1.
         11    1    3    3    0    0  0.56238767846E+00  0.62447520665E+01 -0.43562888958E+01  0.76348190206E+01  0.51100000000E-03 0. -1.
        -11    1    3    3    0    0  0.40841948592E+01 -0.39418167117E+01  0.12766645241E+01  0.58179411482E+01  0.51100000000E-03 0.  1.
        -12    1    3    3    0    0  0.52978922211E+01 -0.64285636370E+01 -0.36128166226E+02  0.37076117478E+02  0.00000000000E+00 0.  1.
</event>
<event>
 7    1  0.2432574E-011  0.5052886E+02  0.7816164E-02  0.1300439E+00
        -11   -1    0    0    0    0  0.00000000000E+00  0.00000000000E+00  0.45593999997E+02  0.45594000000E+02  0.51100000000E-03 0.  1.
         11   -1    0    0    0    0 -0.00000000000E+00 -0.00000000000E+00 -0.45593999997E+02  0.45594000000E+02  0.51100000000E-03 0. -1.
    9900012    2    1    2    0    0 -0.11750181457E+02  0.29214256287E+02  0.25722093331E+02  0.50528860560E+02  0.30000002157E+02 0.  0.
         12    1    1    2    0    0  0.11750181457E+02 -0.29214256287E+02 -0.25722093331E+02  0.40659139440E+02  0.00000000000E+00 0. -1.
         11    1    3    3    0    0  0.59022387837E+01  0.27752130652E+01  0.48023761481E+00  0.65397904129E+01  0.51100000000E-03 0. -1.
        -11    1    3    3    0    0 -0.39232267615E+01  0.20448234012E+02  0.12229221071E+02  0.24146963178E+02  0.51100000000E-03 0.  1.
         12    1    3    3    0    0 -0.13729193479E+02  0.59908092102E+01  0.13012634645E+02  0.19842106969E+02  0.00000000000E+00 0. -1.
</event>
<event>
 7    1  0.2432574E-011  0.5052886E+02  0.7816164E-02  0.1300439E+00
        -11   -1    0    0    0    0  0.00000000000E+00  0.00000000000E+00  0.45593999997E+02  0.45594000000E+02  0.51100000000E-03 0.  1.
         11   -1    0    0    0    0 -0.00000000000E+00 -0.00000000000E+00 -0.45593999997E+02  0.45594000000E+02  0.51100000000E-03 0. -1.
    9900012    2    1    2    0    0 -0.35473049653E+02 -0.42409701081E+01  0.19412440831E+02  0.50528856647E+02  0.29999990264E+02 0.  0.
         12    1    1    2    0    0  0.35473049653E+02  0.42409701081E+01 -0.19412440831E+02  0.40659143353E+02  0.00000000000E+00 0. -1.
         11    1    3    3    0    0 -0.23973548312E+02  0.12710734413E+01  0.76817402853E+01  0.25206264706E+02  0.51100000000E-03 0.  1.
        -11    1    3    3    0    0 -0.77008746558E+01 -0.69568602611E+01  0.16226970897E+02  0.19261774579E+02  0.51100000000E-03 0. -1.
         12    1    3    3    0    0 -0.37986266857E+01  0.14448167116E+01 -0.44962703514E+01  0.60608173624E+01  0.00000000000E+00 0. -1.
</event>
<event>
 7    1  0.2432574E-011  0.5052880E+02  0.7816164E-02  0.1300439E+00
        -11   -1    0    0    0    0  0.00000000000E+00  0.00000000000E+00  0.45593999997E+02  0.45594000000E+02  0.51100000000E-03 0.  1.
         11   -1    0    0    0    0 -0.00000000000E+00 -0.00000000000E+00 -0.45593999997E+02  0.45594000000E+02  0.51100000000E-03 0. -1.
    9900012    2    1    2    0    0  0.21006519902E+02 -0.24102330805E+01  0.34728770359E+02  0.50528799410E+02  0.29999816287E+02 0.  0.
         12    1    1    2    0    0 -0.21006519902E+02  0.24102330805E+01 -0.34728770359E+02  0.40659200590E+02  0.00000000000E+00 0. -1.
         11    1    3    3    0    0  0.14080215873E+01 -0.11666212840E+01 -0.23048437406E+01  0.29420800364E+01  0.51100000000E-03 0. -1.
        -11    1    3    3    0    0  0.18748608858E+02  0.64271691632E+01  0.16977799273E+02  0.26097212609E+02  0.51100000000E-03 0.  1.
         12    1    3    3    0    0  0.84988945752E+00 -0.76707809597E+01  0.20055814827E+02  0.21489506765E+02  0.00000000000E+00 0. -1.
</event>
<event>
 7    1  0.2432574E-011  0.5052886E+02  0.7816164E-02  0.1300439E+00
        -11   -1    0    0    0    0  0.00000000000E+00  0.00000000000E+00  0.45593999997E+02  0.45594000000E+02  0.51100000000E-03 0. -1.
         11   -1    0    0    0    0 -0.00000000000E+00 -0.00000000000E+00 -0.45593999997E+02  0.45594000000E+02  0.51100000000E-03 0.  1.
    9900012    2    1    2    0    0 -0.36903400040E+02 -0.17066714812E+02  0.17967711300E+00  0.50528856221E+02  0.29999988970E+02 0.  0.
         12    1    1    2    0    0  0.36903400040E+02  0.17066714812E+02 -0.17967711300E+00  0.40659143779E+02  0.00000000000E+00 0. -1.
         11    1    3    3    0    0 -0.18122456635E+02 -0.47076387090E+01  0.49490297563E+01  0.19366935547E+02  0.51100000000E-03 0. -1.
        -11    1    3    3    0    0 -0.10536319111E+02 -0.13447410454E+02  0.55005135212E+01  0.17947214759E+02  0.51100000000E-03 0.  1.
        -12    1    3    3    0    0 -0.82446242936E+01  0.10883343507E+01 -0.10269866165E+02  0.13214705916E+02  0.00000000000E+00 0.  1.
</event>
<event>
 7    1  0.2432574E-011  0.5052887E+02  0.7816164E-02  0.1300439E+00
        -11   -1    0    0    0    0  0.00000000000E+00  0.00000000000E+00  0.45593999997E+02  0.45594000000E+02  0.51100000000E-03 0.  1.
         11   -1    0    0    0    0 -0.00000000000E+00 -0.00000000000E+00 -0.45593999997E+02  0.45594000000E+02  0.51100000000E-03 0. -1.
    9900012    2    1    2    0    0 -0.19083053708E+02  0.26156176531E+02  0.24593822776E+02  0.50528872755E+02  0.30000039227E+02 0.  0.
         12    1    1    2    0    0  0.19083053708E+02 -0.26156176531E+02 -0.24593822776E+02  0.40659127245E+02  0.00000000000E+00 0. -1.
         11    1    3    3    0    0 -0.77029730687E+01 -0.27503850145E+01  0.27784508269E+00  0.81839849692E+01  0.51100000000E-03 0. -1.
        -11    1    3    3    0    0 -0.75600927129E+01  0.12709728196E+02  0.26471129011E+01  0.15023295232E+02  0.51100000000E-03 0.  1.
         12    1    3    3    0    0 -0.38199879265E+01  0.16196833349E+02  0.21668864793E+02  0.27321592554E+02  0.00000000000E+00 0. -1.
</event>
<event>
 7    1  0.2432574E-011  0.5052886E+02  0.7816164E-02  0.1300439E+00
        -11   -1    0    0    0    0  0.00000000000E+00  0.00000000000E+00  0.45593999997E+02  0.45594000000E+02  0.51100000000E-03 0.  1.
         11   -1    0    0    0    0 -0.00000000000E+00 -0.00000000000E+00 -0.45593999997E+02  0.45594000000E+02  0.51100000000E-03 0. -1.
    9900012    2    1    2    0    0  0.84597204113E+01  0.27839410639E+02  0.28400107694E+02  0.50528858701E+02  0.29999996507E+02 0.  0.
         12    1    1    2    0    0 -0.84597204113E+01 -0.27839410639E+02 -0.28400107694E+02  0.40659141299E+02  0.00000000000E+00 0. -1.
         11    1    3    3    0    0  0.90687756070E+01  0.39040391434E+01  0.43048812449E+01  0.10771082371E+02  0.51100000000E-03 0. -1.
        -11    1    3    3    0    0  0.87719687452E+01  0.18863585546E+02  0.14019050088E+02  0.25086172704E+02  0.51100000000E-03 0.  1.
         12    1    3    3    0    0 -0.93810239410E+01  0.50717859496E+01  0.10076176361E+02  0.14671603626E+02  0.00000000000E+00 0. -1.
</event>
<event>
 7    1  0.2432574E-011  0.5052886E+02  0.7816164E-02  0.1300439E+00
        -11   -1    0    0    0    0  0.00000000000E+00  0.00000000000E+00  0.45593999997E+02  0.45594000000E+02  0.51100000000E-03 0.  1.
         11   -1    0    0    0    0 -0.00000000000E+00 -0.00000000000E+00 -0.45593999997E+02  0.45594000000E+02  0.51100000000E-03 0. -1.
    9900012    2    1    2    0    0  0.26349284290E+02  0.30223889328E+02  0.67377370144E+01  0.50528863650E+02  0.30000011550E+02 0.  0.
         12    1    1    2    0    0 -0.26349284290E+02 -0.30223889328E+02 -0.67377370144E+01  0.40659136350E+02  0.00000000000E+00 0. -1.
         11    1    3    3    0    0  0.80974110758E+01  0.20142237001E+02  0.63899786609E+01  0.22629838821E+02  0.51100000000E-03 0. -1.
        -11    1    3    3    0    0  0.33049042144E+01  0.10753159211E+02  0.48846022026E+01  0.12264263689E+02  0.51100000000E-03 0.  1.
         12    1    3    3    0    0  0.14946969000E+02 -0.67150688494E+00 -0.45368438491E+01  0.15634761139E+02  0.00000000000E+00 0. -1.
</event>
<event>
 7    1  0.2432574E-011  0.5052886E+02  0.7816164E-02  0.1300439E+00
        -11   -1    0    0    0    0  0.00000000000E+00  0.00000000000E+00  0.45593999997E+02  0.45594000000E+02  0.51100000000E-03 0.  1.
         11   -1    0    0    0    0 -0.00000000000E+00 -0.00000000000E+00 -0.45593999997E+02  0.45594000000E+02  0.51100000000E-03 0. -1.
    9900012    2    1    2    0    0 -0.12152768631E+02  0.24894282757E+02  0.29761566142E+02  0.50528856887E+02  0.29999990995E+02 0.  0.
         12    1    1    2    0    0  0.12152768631E+02 -0.24894282757E+02 -0.29761566142E+02  0.40659143113E+02  0.00000000000E+00 0. -1.
         11    1    3    3    0    0  0.43583937611E+00 -0.19810102154E+01  0.34879516145E+01  0.40348685432E+01  0.51100000000E-03 0. -1.
        -11    1    3    3    0    0 -0.63573378396E+01  0.12869164729E+02  0.27597585850E+02  0.31107199974E+02  0.51100000000E-03 0.  1.
        -12    1    3    3    0    0 -0.62312701676E+01  0.14006128243E+02 -0.13239713221E+01  0.15386788370E+02  0.00000000000E+00 0.  1.
</event>
<event>
 7    1  0.2432574E-011  0.5052886E+02  0.7816164E-02  0.1300439E+00
        -11   -1    0    0    0    0  0.00000000000E+00  0.00000000000E+00  0.45593999997E+02  0.45594000000E+02  0.51100000000E-03 0.  1.
         11   -1    0    0    0    0 -0.00000000000E+00 -0.00000000000E+00 -0.45593999997E+02  0.45594000000E+02  0.51100000000E-03 0. -1.
    9900012    2    1    2    0    0  0.29693804971E+02 -0.19369621798E+02  0.19906307906E+02  0.50528863306E+02  0.30000010505E+02 0.  0.
         12    1    1    2    0    0 -0.29693804971E+02  0.19369621798E+02 -0.19906307906E+02  0.40659136694E+02  0.00000000000E+00 0. -1.
         11    1    3    3    0    0  0.79950990483E+01 -0.85424004187E+01 -0.16374948011E+01  0.11814211916E+02  0.51100000000E-03 0. -1.
        -11    1    3    3    0    0  0.14802077168E+02 -0.11313045808E+02  0.24844246734E+02  0.31053551970E+02  0.51100000000E-03 0.  1.
         12    1    3    3    0    0  0.68966287544E+01  0.48582442801E+00 -0.33004440269E+01  0.76610994202E+01  0.00000000000E+00 0. -1.
</event>
<event>
 7    1  0.2966733E-011  0.5052900E+02  0.7816164E-02  0.1300438E+00
        -11   -1    0    0    0    0  0.00000000000E+00  0.00000000000E+00  0.45593999997E+02  0.45594000000E+02  0.51100000000E-03 0.  1.
         11   -1    0    0    0    0 -0.00000000000E+00 -0.00000000000E+00 -0.45593999997E+02  0.45594000000E+02  0.51100000000E-03 0. -1.
    9900012    2    1    2    0    0  0.39439827425E+02  0.59233822690E+01 -0.79100004661E+01  0.50528996665E+02  0.30000415859E+02 0.  0.
         12    1    1    2    0    0 -0.39439827425E+02 -0.59233822690E+01  0.79100004661E+01  0.40659003335E+02  0.00000000000E+00 0. -1.
         11    1    3    3    0    0  0.73313225120E+01 -0.79340505050E+00 -0.11444494324E+02  0.13614486107E+02  0.51100000000E-03 0. -1.
        -11    1    3    3    0    0  0.54174719497E+01  0.77343014701E+01  0.38618761781E+01  0.10202083583E+02  0.51100000000E-03 0.  1.
        -12    1    3    3    0    0  0.26691032964E+02 -0.10175141506E+01 -0.32738232007E+00  0.26712426975E+02  0.00000000000E+00 0.  1.
</event>
<event>
 7    1  0.2432574E-011  0.5052886E+02  0.7816164E-02  0.1300439E+00
        -11   -1    0    0    0    0  0.00000000000E+00  0.00000000000E+00  0.45593999997E+02  0.45594000000E+02  0.51100000000E-03 0.  1.
         11   -1    0    0    0    0 -0.00000000000E+00 -0.00000000000E+00 -0.45593999997E+02  0.45594000000E+02  0.51100000000E-03 0. -1.
    9900012    2    1    2    0    0  0.59186439864E+01  0.15764799190E+02  0.37008195870E+02  0.50528858325E+02  0.29999995365E+02 0.  0.
         12    1    1    2    0    0 -0.59186439864E+01 -0.15764799190E+02 -0.37008195870E+02  0.40659141675E+02  0.00000000000E+00 0. -1.
         11    1    3    3    0    0  0.21064015996E+01 -0.15221553501E+01  0.17222065871E+02  0.17417044460E+02  0.51100000000E-03 0. -1.
        -11    1    3    3    0    0 -0.84061720906E+00  0.10435486580E+02  0.22149571058E+02  0.24499173778E+02  0.51100000000E-03 0.  1.
         12    1    3    3    0    0  0.46528595958E+01  0.68514679609E+01 -0.23634410589E+01  0.86126400875E+01  0.00000000000E+00 0. -1.
</event>
<event>
 7    1  0.2432574E-011  0.5052886E+02  0.7816164E-02  0.1300439E+00
        -11   -1    0    0    0    0  0.00000000000E+00  0.00000000000E+00  0.45593999997E+02  0.45594000000E+02  0.51100000000E-03 0.  1.
         11   -1    0    0    0    0 -0.00000000000E+00 -0.00000000000E+00 -0.45593999997E+02  0.45594000000E+02  0.51100000000E-03 0. -1.
    9900012    2    1    2    0    0  0.33103009073E+02  0.23432786243E+02 -0.28742397533E+01  0.50528856687E+02  0.29999990385E+02 0.  0.
         12    1    1    2    0    0 -0.33103009073E+02 -0.23432786243E+02  0.28742397533E+01  0.40659143313E+02  0.00000000000E+00 0. -1.
         11    1    3    3    0    0  0.18084060573E+02  0.12243050384E+02  0.71874860629E+01  0.22990987053E+02  0.51100000000E-03 0. -1.
        -11    1    3    3    0    0  0.17396586571E+02  0.11047013043E+02 -0.39560027007E+01  0.20983986254E+02  0.51100000000E-03 0.  1.
         12    1    3    3    0    0 -0.23776380703E+01  0.14272281632E+00 -0.61057231156E+01  0.65538833801E+01  0.00000000000E+00 0. -1.
</event>
<event>
 7    1  0.2432574E-011  0.5052887E+02  0.7816164E-02  0.1300439E+00
        -11   -1    0    0    0    0  0.00000000000E+00  0.00000000000E+00  0.45593999997E+02  0.45594000000E+02  0.51100000000E-03 0. -1.
         11   -1    0    0    0    0 -0.00000000000E+00 -0.00000000000E+00 -0.45593999997E+02  0.45594000000E+02  0.51100000000E-03 0.  1.
    9900012    2    1    2    0    0  0.98402409664E+01  0.39225880937E+02  0.42029435000E+01  0.50528870501E+02  0.30000032373E+02 0.  0.
         12    1    1    2    0    0 -0.98402409664E+01 -0.39225880937E+02 -0.42029435000E+01  0.40659129499E+02  0.00000000000E+00 0. -1.
         11    1    3    3    0    0  0.99564427197E+01  0.58560426918E+01  0.69048467579E+01  0.13457373319E+02  0.51100000000E-03 0. -1.
        -11    1    3    3    0    0  0.41211210657E+01  0.15776359501E+02 -0.80728503926E+01  0.18194726480E+02  0.51100000000E-03 0.  1.
         12    1    3    3    0    0 -0.42373228189E+01  0.17593478744E+02  0.53709471348E+01  0.18876770702E+02  0.00000000000E+00 0. -1.
</event>
<event>
 7    1  0.2432574E-011  0.5052886E+02  0.7816164E-02  0.1300439E+00
        -11   -1    0    0    0    0  0.00000000000E+00  0.00000000000E+00  0.45593999997E+02  0.45594000000E+02  0.51100000000E-03 0. -1.
         11   -1    0    0    0    0 -0.00000000000E+00 -0.00000000000E+00 -0.45593999997E+02  0.45594000000E+02  0.51100000000E-03 0.  1.
    9900012    2    1    2    0    0  0.67329091577E+01 -0.40094344065E+02 -0.52650528602E+00  0.50528859582E+02  0.29999999184E+02 0.  0.
         12    1    1    2    0    0 -0.67329091577E+01  0.40094344065E+02  0.52650528602E+00  0.40659140418E+02  0.00000000000E+00 0. -1.
         11    1    3    3    0    0  0.21477697897E+01 -0.60351218377E-02  0.56903921093E+01  0.60822293702E+01  0.51100000000E-03 0. -1.
        -11    1    3    3    0    0  0.25832728290E+01 -0.21122444554E+02  0.56087206423E+01  0.22006560612E+02  0.51100000000E-03 0.  1.
         12    1    3    3    0    0  0.20018665390E+01 -0.18965864389E+02 -0.11825618038E+02  0.22440069600E+02  0.00000000000E+00 0. -1.
</event>
<event>
 7    1  0.2432574E-011  0.5052886E+02  0.7816164E-02  0.1300439E+00
        -11   -1    0    0    0    0  0.00000000000E+00  0.00000000000E+00  0.45593999997E+02  0.45594000000E+02  0.51100000000E-03 0.  1.
         11   -1    0    0    0    0 -0.00000000000E+00 -0.00000000000E+00 -0.45593999997E+02  0.45594000000E+02  0.51100000000E-03 0. -1.
    9900012    2    1    2    0    0 -0.87075278637E+01 -0.27408908659E+02 -0.28741898215E+02  0.50528855538E+02  0.29999986894E+02 0.  0.
         12    1    1    2    0    0  0.87075278637E+01  0.27408908659E+02  0.28741898215E+02  0.40659144462E+02  0.00000000000E+00 0. -1.
         11    1    3    3    0    0 -0.19809414406E+01 -0.80301554807E+00 -0.51224836146E+01  0.55505676831E+01  0.51100000000E-03 0. -1.
        -11    1    3    3    0    0 -0.91031966145E+01 -0.28702479817E+02 -0.11145362866E+02  0.32107937491E+02  0.51100000000E-03 0.  1.
        -12    1    3    3    0    0  0.23766101913E+01  0.20965867063E+01 -0.12474051735E+02  0.12870350364E+02  0.00000000000E+00 0.  1.
</event>
<event>
 7    1  0.2432574E-011  0.5052884E+02  0.7816164E-02  0.1300439E+00
        -11   -1    0    0    0    0  0.00000000000E+00  0.00000000000E+00  0.45593999997E+02  0.45594000000E+02  0.51100000000E-03 0. -1.
         11   -1    0    0    0    0 -0.00000000000E+00 -0.00000000000E+00 -0.45593999997E+02  0.45594000000E+02  0.51100000000E-03 0.  1.
    9900012    2    1    2    0    0 -0.33189732574E+02 -0.16854823157E+01 -0.23425806088E+02  0.50528836336E+02  0.29999928527E+02 0.  0.
         12    1    1    2    0    0  0.33189732574E+02  0.16854823157E+01  0.23425806088E+02  0.40659163664E+02  0.00000000000E+00 0. -1.
         11    1    3    3    0    0 -0.15749559377E+02 -0.64922905937E+01 -0.10592376697E+02  0.20059833052E+02  0.51100000000E-03 0.  1.
        -11    1    3    3    0    0 -0.20281857084E+02  0.76886637071E+01 -0.59628848099E+01  0.22495005487E+02  0.51100000000E-03 0. -1.
         12    1    3    3    0    0  0.28416838865E+01 -0.28818554291E+01 -0.68705445806E+01  0.79739977965E+01  0.00000000000E+00 0. -1.
</event>
<event>
 7    1  0.2432574E-011  0.5052886E+02  0.7816164E-02  0.1300439E+00
        -11   -1    0    0    0    0  0.00000000000E+00  0.00000000000E+00  0.45593999997E+02  0.45594000000E+02  0.51100000000E-03 0.  1.
         11   -1    0    0    0    0 -0.00000000000E+00 -0.00000000000E+00 -0.45593999997E+02  0.45594000000E+02  0.51100000000E-03 0. -1.
    9900012    2    1    2    0    0 -0.40784522207E+01  0.73992668951E+01  0.39771633928E+02  0.50528858489E+02  0.29999995862E+02 0.  0.
         12    1    1    2    0    0  0.40784522207E+01 -0.73992668951E+01 -0.39771633928E+02  0.40659141511E+02  0.00000000000E+00 0. -1.
         11    1    3    3    0    0  0.13970280187E+01 -0.51049359072E+01  0.25686980280E+01  0.58830491858E+01  0.51100000000E-03 0. -1.
        -11    1    3    3    0    0  0.20452995629E+01  0.64516080834E+01  0.60385575454E+00  0.67949348192E+01  0.51100000000E-03 0.  1.
         12    1    3    3    0    0 -0.75207798023E+01  0.60525947189E+01  0.36599080146E+02  0.37850874484E+02  0.00000000000E+00 0. -1.
</event>
<event>
 7    1  0.2432574E-011  0.5052884E+02  0.7816164E-02  0.1300439E+00
        -11   -1    0    0    0    0  0.00000000000E+00  0.00000000000E+00  0.45593999997E+02  0.45594000000E+02  0.51100000000E-03 0.  1.
         11   -1    0    0    0    0 -0.00000000000E+00 -0.00000000000E+00 -0.45593999997E+02  0.45594000000E+02  0.51100000000E-03 0. -1.
    9900012    2    1    2    0    0  0.45366756854E-01 -0.37517899488E+02  0.15670750216E+02  0.50528840485E+02  0.29999941138E+02 0.  0.
         12    1    1    2    0    0 -0.45366756854E-01  0.37517899488E+02 -0.15670750216E+02  0.40659159515E+02  0.00000000000E+00 0. -1.
         11    1    3    3    0    0 -0.89418376672E+01 -0.79414113555E+01 -0.25997127594E+01  0.12238504070E+02  0.51100000000E-03 0. -1.
        -11    1    3    3    0    0  0.11143070853E+01 -0.20842635496E+02  0.70327165163E+01  0.22025354403E+02  0.51100000000E-03 0.  1.
         12    1    3    3    0    0  0.78728973388E+01 -0.87338526365E+01  0.11237746459E+02  0.16264982012E+02  0.00000000000E+00 0. -1.
</event>
<event>
 7    1  0.2432574E-011  0.5052884E+02  0.7816164E-02  0.1300439E+00
        -11   -1    0    0    0    0  0.00000000000E+00  0.00000000000E+00  0.45593999997E+02  0.45594000000E+02  0.51100000000E-03 0.  1.
         11   -1    0    0    0    0 -0.00000000000E+00 -0.00000000000E+00 -0.45593999997E+02  0.45594000000E+02  0.51100000000E-03 0. -1.
    9900012    2    1    2    0    0  0.27904757877E+02 -0.28314143842E+02  0.85323752997E+01  0.50528835204E+02  0.29999925085E+02 0.  0.
         12    1    1    2    0    0 -0.27904757877E+02  0.28314143842E+02 -0.85323752997E+01  0.40659164796E+02  0.00000000000E+00 0. -1.
         11    1    3    3    0    0  0.35148115299E+01 -0.11095377613E+02  0.56605170215E+01  0.12942285643E+02  0.51100000000E-03 0. -1.
        -11    1    3    3    0    0  0.24947332191E+02 -0.21466509652E+02  0.10426360226E+01  0.32928217538E+02  0.51100000000E-03 0.  1.
         12    1    3    3    0    0 -0.55738584400E+00  0.42477434232E+01  0.18292222555E+01  0.46583320222E+01  0.00000000000E+00 0. -1.
</event>
<event>
 7    1  0.2432574E-011  0.5052885E+02  0.7816164E-02  0.1300439E+00
        -11   -1    0    0    0    0  0.00000000000E+00  0.00000000000E+00  0.45593999997E+02  0.45594000000E+02  0.51100000000E-03 0.  1.
         11   -1    0    0    0    0 -0.00000000000E+00 -0.00000000000E+00 -0.45593999997E+02  0.45594000000E+02  0.51100000000E-03 0. -1.
    9900012    2    1    2    0    0 -0.29109308803E+02  0.24390706796E+02  0.14522664173E+02  0.50528853283E+02  0.29999980040E+02 0.  0.
         12    1    1    2    0    0  0.29109308803E+02 -0.24390706796E+02 -0.14522664173E+02  0.40659146717E+02  0.00000000000E+00 0. -1.
         11    1    3    3    0    0 -0.10447470789E+02  0.14722039301E+02  0.13980797257E+02  0.22833107087E+02  0.51100000000E-03 0. -1.
        -11    1    3    3    0    0 -0.17576158559E+02  0.69917633081E+01  0.73551178651E+01  0.20295414825E+02  0.51100000000E-03 0.  1.
         12    1    3    3    0    0 -0.10856794548E+01  0.26769041874E+01 -0.68132509485E+01  0.74003313706E+01  0.00000000000E+00 0. -1.
</event>
<event>
 7    1  0.2432574E-011  0.5052886E+02  0.7816164E-02  0.1300439E+00
        -11   -1    0    0    0    0  0.00000000000E+00  0.00000000000E+00  0.45593999997E+02  0.45594000000E+02  0.51100000000E-03 0.  1.
         11   -1    0    0    0    0 -0.00000000000E+00 -0.00000000000E+00 -0.45593999997E+02  0.45594000000E+02  0.51100000000E-03 0. -1.
    9900012    2    1    2    0    0 -0.17972132421E+01 -0.21873590677E+02  0.34226915811E+02  0.50528859447E+02  0.29999998776E+02 0.  0.
         12    1    1    2    0    0  0.17972132421E+01  0.21873590677E+02 -0.34226915811E+02  0.40659140553E+02  0.00000000000E+00 0. -1.
         11    1    3    3    0    0 -0.46811289634E+00 -0.17409587637E+01 -0.26183059510E+01  0.31789296021E+01  0.51100000000E-03 0. -1.
        -11    1    3    3    0    0 -0.10394585473E+02 -0.14118613806E+02  0.15540765584E+02  0.23428573541E+02  0.51100000000E-03 0.  1.
        -12    1    3    3    0    0  0.90654851275E+01 -0.60140181076E+01  0.21304456178E+02  0.23921356304E+02  0.00000000000E+00 0.  1.
</event>
<event>
 7    1  0.2432574E-011  0.5052884E+02  0.7816164E-02  0.1300439E+00
        -11   -1    0    0    0    0  0.00000000000E+00  0.00000000000E+00  0.45593999997E+02  0.45594000000E+02  0.51100000000E-03 0.  1.
         11   -1    0    0    0    0 -0.00000000000E+00 -0.00000000000E+00 -0.45593999997E+02  0.45594000000E+02  0.51100000000E-03 0. -1.
    9900012    2    1    2    0    0 -0.30240524919E+02 -0.90170052115E+01  0.25639250359E+02  0.50528844951E+02  0.29999954712E+02 0.  0.
         12    1    1    2    0    0  0.30240524919E+02  0.90170052115E+01 -0.25639250359E+02  0.40659155049E+02  0.00000000000E+00 0. -1.
         11    1    3    3    0    0  0.14563215591E+01 -0.45843876697E+00 -0.16974171973E+01  0.22830383241E+01  0.51100000000E-03 0. -1.
        -11    1    3    3    0    0 -0.21448675828E+02 -0.16260256773E+02  0.17819190756E+02  0.32279485816E+02  0.51100000000E-03 0.  1.
         12    1    3    3    0    0 -0.10248170650E+02  0.77016903280E+01  0.95174768010E+01  0.15966320811E+02  0.00000000000E+00 0. -1.
</event>
<event>
 7    1  0.2432574E-011  0.5052900E+02  0.7816164E-02  0.1300438E+00
        -11   -1    0    0    0    0  0.00000000000E+00  0.00000000000E+00  0.45593999997E+02  0.45594000000E+02  0.51100000000E-03 0.  1.
         11   -1    0    0    0    0 -0.00000000000E+00 -0.00000000000E+00 -0.45593999997E+02  0.45594000000E+02  0.51100000000E-03 0. -1.
    9900012    2    1    2    0    0 -0.82847798799E+01 -0.39591076904E+02 -0.41307528877E+01  0.50529002625E+02  0.30000433977E+02 0.  0.
         12    1    1    2    0    0  0.82847798799E+01  0.39591076904E+02  0.41307528877E+01  0.40658997375E+02  0.00000000000E+00 0. -1.
         11    1    3    3    0    0  0.43863522124E+01 -0.13841624229E+02 -0.31572320551E+01  0.14859298824E+02  0.51100000000E-03 0. -1.
        -11    1    3    3    0    0 -0.20797051648E+01 -0.10724535289E+02  0.95307131949E+01  0.14497424772E+02  0.51100000000E-03 0.  1.
        -12    1    3    3    0    0 -0.10591426927E+02 -0.15024917385E+02 -0.10504234028E+02  0.21172279029E+02  0.00000000000E+00 0.  1.
</event>
<event>
 7    1  0.2432574E-011  0.5052886E+02  0.7816164E-02  0.1300439E+00
        -11   -1    0    0    0    0  0.00000000000E+00  0.00000000000E+00  0.45593999997E+02  0.45594000000E+02  0.51100000000E-03 0.  1.
         11   -1    0    0    0    0 -0.00000000000E+00 -0.00000000000E+00 -0.45593999997E+02  0.45594000000E+02  0.51100000000E-03 0. -1.
    9900012    2    1    2    0    0 -0.15763383600E+02  0.10783126546E+02  0.35894371826E+02  0.50528855771E+02  0.29999987602E+02 0.  0.
         12    1    1    2    0    0  0.15763383600E+02 -0.10783126546E+02 -0.35894371826E+02  0.40659144229E+02  0.00000000000E+00 0. -1.
         11    1    3    3    0    0  0.29254862560E+01  0.29455838710E+01  0.70823375185E+01  0.82094116210E+01  0.51100000000E-03 0. -1.
        -11    1    3    3    0    0 -0.18493211529E+02  0.77253234973E+01  0.32738745626E+02  0.38386260058E+02  0.51100000000E-03 0.  1.
         12    1    3    3    0    0 -0.19565832706E+00  0.11221917751E+00 -0.39267113185E+01  0.39331840923E+01  0.00000000000E+00 0. -1.
</event>
<event>
 7    1  0.2432574E-011  0.5052884E+02  0.7816164E-02  0.1300439E+00
        -11   -1    0    0    0    0  0.00000000000E+00  0.00000000000E+00  0.45593999997E+02  0.45594000000E+02  0.51100000000E-03 0.  1.
         11   -1    0    0    0    0 -0.00000000000E+00 -0.00000000000E+00 -0.45593999997E+02  0.45594000000E+02  0.51100000000E-03 0. -1.
    9900012    2    1    2    0    0 -0.10996271196E+02 -0.30560786982E+02  0.24459915896E+02  0.50528841539E+02  0.29999944342E+02 0.  0.
         12    1    1    2    0    0  0.10996271196E+02  0.30560786982E+02 -0.24459915896E+02  0.40659158461E+02  0.00000000000E+00 0. -1.
         11    1    3    3    0    0  0.36189086672E+01 -0.12701441449E+02  0.41916066031E-01  0.13207000872E+02  0.51100000000E-03 0. -1.
        -11    1    3    3    0    0 -0.41099238021E+01  0.22990781289E+01  0.12672112803E+01  0.48767877329E+01  0.51100000000E-03 0.  1.
         12    1    3    3    0    0 -0.10505256061E+02 -0.20158423662E+02  0.23150788549E+02  0.32445052934E+02  0.00000000000E+00 0. -1.
</event>
<event>
 7    1  0.2432574E-011  0.5052886E+02  0.7816164E-02  0.1300439E+00
        -11   -1    0    0    0    0  0.00000000000E+00  0.00000000000E+00  0.45593999997E+02  0.45594000000E+02  0.51100000000E-03 0.  1.
         11   -1    0    0    0    0 -0.00000000000E+00 -0.00000000000E+00 -0.45593999997E+02  0.45594000000E+02  0.51100000000E-03 0. -1.
    9900012    2    1    2    0    0 -0.29165642743E+02 -0.23189791349E+02  0.16271576649E+02  0.50528863929E+02  0.30000012397E+02 0.  0.
         12    1    1    2    0    0  0.29165642743E+02  0.23189791349E+02 -0.16271576649E+02  0.40659136071E+02  0.00000000000E+00 0. -1.
         11    1    3    3    0    0 -0.13872141825E+02 -0.15919880358E+02  0.20186120685E+01  0.21212112209E+02  0.51100000000E-03 0. -1.
        -11    1    3    3    0    0 -0.12896554857E+02 -0.12724796803E+02  0.14715301287E+02  0.23340558543E+02  0.51100000000E-03 0.  1.
         12    1    3    3    0    0 -0.23969460605E+01  0.54548858127E+01 -0.46233670623E+00  0.59761931759E+01  0.00000000000E+00 0. -1.
</event>
<event>
 7    1  0.2432574E-011  0.5052886E+02  0.7816164E-02  0.1300439E+00
        -11   -1    0    0    0    0  0.00000000000E+00  0.00000000000E+00  0.45593999997E+02  0.45594000000E+02  0.51100000000E-03 0.  1.
         11   -1    0    0    0    0 -0.00000000000E+00 -0.00000000000E+00 -0.45593999997E+02  0.45594000000E+02  0.51100000000E-03 0. -1.
    9900012    2    1    2    0    0 -0.37373466740E+01 -0.39834642920E+02  0.72387263578E+01  0.50528859625E+02  0.29999999317E+02 0.  0.
         12    1    1    2    0    0  0.37373466740E+01  0.39834642920E+02 -0.72387263578E+01  0.40659140375E+02  0.00000000000E+00 0. -1.
         11    1    3    3    0    0  0.48300826381E+01 -0.41991764911E+01 -0.37792558353E+01  0.74327354604E+01  0.51100000000E-03 0. -1.
        -11    1    3    3    0    0  0.43244456668E+01 -0.23704280299E+02  0.66139557828E+01  0.24986759417E+02  0.51100000000E-03 0.  1.
        -12    1    3    3    0    0 -0.12891874979E+02 -0.11931186130E+02  0.44040264102E+01  0.18109364748E+02  0.00000000000E+00 0.  1.
</event>
<event>
 7    1  0.2432574E-011  0.5052887E+02  0.7816164E-02  0.1300439E+00
        -11   -1    0    0    0    0  0.00000000000E+00  0.00000000000E+00  0.45593999997E+02  0.45594000000E+02  0.51100000000E-03 0.  1.
         11   -1    0    0    0    0 -0.00000000000E+00 -0.00000000000E+00 -0.45593999997E+02  0.45594000000E+02  0.51100000000E-03 0. -1.
    9900012    2    1    2    0    0 -0.26047538982E+02 -0.69049311823E+01  0.30446885128E+02  0.50528866024E+02  0.30000018767E+02 0.  0.
         12    1    1    2    0    0  0.26047538982E+02  0.69049311823E+01 -0.30446885128E+02  0.40659133976E+02  0.00000000000E+00 0. -1.
         11    1    3    3    0    0  0.88787937673E-01  0.38185941876E+01  0.21333470514E+01  0.43750102594E+01  0.51100000000E-03 0. -1.
        -11    1    3    3    0    0 -0.20761902768E+02  0.20464204918E+01  0.98520833104E+01  0.23071800735E+02  0.51100000000E-03 0.  1.
         12    1    3    3    0    0 -0.53744241524E+01 -0.12769945862E+02  0.18461454766E+02  0.23082055029E+02  0.00000000000E+00 0. -1.
</event>
<event>
 7    1  0.2432574E-011  0.5052885E+02  0.7816164E-02  0.1300439E+00
        -11   -1    0    0    0    0  0.00000000000E+00  0.00000000000E+00  0.45593999997E+02  0.45594000000E+02  0.51100000000E-03 0.  1.
         11   -1    0    0    0    0 -0.00000000000E+00 -0.00000000000E+00 -0.45593999997E+02  0.45594000000E+02  0.51100000000E-03 0. -1.
    9900012    2    1    2    0    0 -0.20043503112E+02 -0.34816600471E+02 -0.62632906052E+01  0.50528849805E+02  0.29999969468E+02 0.  0.
         12    1    1    2    0    0  0.20043503112E+02  0.34816600471E+02  0.62632906052E+01  0.40659150195E+02  0.00000000000E+00 0. -1.
         11    1    3    3    0    0  0.21100259238E+01  0.29428266051E+00  0.10818046240E+01  0.23893750624E+01  0.51100000000E-03 0. -1.
        -11    1    3    3    0    0  0.30210783979E+00 -0.21109387029E+02 -0.34247035516E+01  0.21387521702E+02  0.51100000000E-03 0.  1.
         12    1    3    3    0    0 -0.22455636875E+02 -0.14001496103E+02 -0.39203916777E+01  0.26751953041E+02  0.00000000000E+00 0. -1.
</event>
<event>
 7    1  0.2432574E-011  0.5052886E+02  0.7816164E-02  0.1300439E+00
        -11   -1    0    0    0    0  0.00000000000E+00  0.00000000000E+00  0.45593999997E+02  0.45594000000E+02  0.51100000000E-03 0.  1.
         11   -1    0    0    0    0 -0.00000000000E+00 -0.00000000000E+00 -0.45593999997E+02  0.45594000000E+02  0.51100000000E-03 0. -1.
    9900012    2    1    2    0    0 -0.28555184665E+02  0.20922325032E+02  0.20000592096E+02  0.50528856622E+02  0.29999990189E+02 0.  0.
         12    1    1    2    0    0  0.28555184665E+02 -0.20922325032E+02 -0.20000592096E+02  0.40659143378E+02  0.00000000000E+00 0. -1.
         11    1    3    3    0    0 -0.54387196293E+01  0.30067551528E+00  0.38648861254E+01  0.66788787977E+01  0.51100000000E-03 0.  1.
        -11    1    3    3    0    0 -0.20303231699E+02  0.18318771749E+02  0.37072342522E-01  0.27345931881E+02  0.51100000000E-03 0. -1.
        -12    1    3    3    0    0 -0.28132333369E+01  0.23028777680E+01  0.16098633628E+02  0.16504045944E+02  0.00000000000E+00 0.  1.
</event>
<event>
 7    1  0.2432574E-011  0.5052886E+02  0.7816164E-02  0.1300439E+00
        -11   -1    0    0    0    0  0.00000000000E+00  0.00000000000E+00  0.45593999997E+02  0.45594000000E+02  0.51100000000E-03 0.  1.
         11   -1    0    0    0    0 -0.00000000000E+00 -0.00000000000E+00 -0.45593999997E+02  0.45594000000E+02  0.51100000000E-03 0. -1.
    9900012    2    1    2    0    0 -0.13936387832E+02 -0.33766741071E+01  0.38046560743E+02  0.50528860582E+02  0.30000002225E+02 0.  0.
         12    1    1    2    0    0  0.13936387832E+02  0.33766741071E+01 -0.38046560743E+02  0.40659139418E+02  0.00000000000E+00 0. -1.
         11    1    3    3    0    0 -0.22964649652E+00 -0.16353138060E+01 -0.39206053415E+01  0.42541903180E+01  0.51100000000E-03 0. -1.
        -11    1    3    3    0    0 -0.87312045512E+01 -0.17860418921E+01  0.80970375926E+01  0.12041008952E+02  0.51100000000E-03 0.  1.
        -12    1    3    3    0    0 -0.49755367847E+01  0.44681590962E-01  0.33870128492E+02  0.34233661312E+02  0.00000000000E+00 0.  1.
</event>
<event>
 7    1  0.2432574E-011  0.5052888E+02  0.7816164E-02  0.1300439E+00
        -11   -1    0    0    0    0  0.00000000000E+00  0.00000000000E+00  0.45593999997E+02  0.45594000000E+02  0.51100000000E-03 0. -1.
         11   -1    0    0    0    0 -0.00000000000E+00 -0.00000000000E+00 -0.45593999997E+02  0.45594000000E+02  0.51100000000E-03 0.  1.
    9900012    2    1    2    0    0  0.26047364711E+02 -0.28464282378E+02  0.12825099633E+02  0.50528883429E+02  0.30000071672E+02 0.  0.
         12    1    1    2    0    0 -0.26047364711E+02  0.28464282378E+02 -0.12825099633E+02  0.40659116571E+02  0.00000000000E+00 0. -1.
         11    1    3    3    0    0 -0.38416591456E+01 -0.45950288464E+01  0.27993606812E+01  0.66112824455E+01  0.51100000000E-03 0. -1.
        -11    1    3    3    0    0  0.20858574564E+02 -0.26029276132E+02  0.91689809706E+01  0.34592969822E+02  0.51100000000E-03 0.  1.
         12    1    3    3    0    0  0.90304492929E+01  0.21600226004E+01  0.85675798073E+00  0.93246311617E+01  0.00000000000E+00 0. -1.
</event>
<event>
 7    1  0.2432574E-011  0.5052885E+02  0.7816164E-02  0.1300439E+00
        -11   -1    0    0    0    0  0.00000000000E+00  0.00000000000E+00  0.45593999997E+02  0.45594000000E+02  0.51100000000E-03 0. -1.
         11   -1    0    0    0    0 -0.00000000000E+00 -0.00000000000E+00 -0.45593999997E+02  0.45594000000E+02  0.51100000000E-03 0.  1.
    9900012    2    1    2    0    0  0.25488856695E+02  0.90593626706E+01 -0.30354782946E+02  0.50528847090E+02  0.29999961216E+02 0.  0.
         12    1    1    2    0    0 -0.25488856695E+02 -0.90593626706E+01  0.30354782946E+02  0.40659152910E+02  0.00000000000E+00 0. -1.
         11    1    3    3    0    0 -0.23939490803E+01  0.27728146507E+01 -0.60955418154E+01  0.71116189135E+01  0.51100000000E-03 0. -1.
        -11    1    3    3    0    0  0.15744029386E+02  0.24754904110E+01 -0.26080457842E+02  0.30564567649E+02  0.51100000000E-03 0.  1.
         12    1    3    3    0    0  0.12138776390E+02  0.38110576088E+01  0.18212167112E+01  0.12852660528E+02  0.00000000000E+00 0. -1.
</event>
<event>
 7    1  0.2432574E-011  0.5052885E+02  0.7816164E-02  0.1300439E+00
        -11   -1    0    0    0    0  0.00000000000E+00  0.00000000000E+00  0.45593999997E+02  0.45594000000E+02  0.51100000000E-03 0. -1.
         11   -1    0    0    0    0 -0.00000000000E+00 -0.00000000000E+00 -0.45593999997E+02  0.45594000000E+02  0.51100000000E-03 0.  1.
    9900012    2    1    2    0    0  0.40299161703E+02 -0.45699530389E+01 -0.28738985256E+01  0.50528853459E+02  0.29999980573E+02 0.  0.
         12    1    1    2    0    0 -0.40299161703E+02  0.45699530389E+01  0.28738985256E+01  0.40659146541E+02  0.00000000000E+00 0. -1.
         11    1    3    3    0    0  0.12997555090E+02 -0.11450405780E+02 -0.17989562398E+01  0.17415064589E+02  0.51100000000E-03 0. -1.
        -11    1    3    3    0    0  0.19088593568E+02 -0.54225455536E+00 -0.72636882355E+01  0.20431094230E+02  0.51100000000E-03 0.  1.
         12    1    3    3    0    0  0.82130130454E+01  0.74227072961E+01  0.61887459497E+01  0.12682694639E+02  0.00000000000E+00 0. -1.
</event>
<event>
 7    1  0.2432574E-011  0.5052886E+02  0.7816164E-02  0.1300439E+00
        -11   -1    0    0    0    0  0.00000000000E+00  0.00000000000E+00  0.45593999997E+02  0.45594000000E+02  0.51100000000E-03 0.  1.
         11   -1    0    0    0    0 -0.00000000000E+00 -0.00000000000E+00 -0.45593999997E+02  0.45594000000E+02  0.51100000000E-03 0. -1.
    9900012    2    1    2    0    0  0.28584986298E+02 -0.20922551386E+02 -0.19957723616E+02  0.50528864125E+02  0.30000012994E+02 0.  0.
         12    1    1    2    0    0 -0.28584986298E+02  0.20922551386E+02  0.19957723616E+02  0.40659135875E+02  0.00000000000E+00 0. -1.
         11    1    3    3    0    0 -0.23569896869E+01 -0.11419144169E+02 -0.81328664250E+01  0.14216039198E+02  0.51100000000E-03 0. -1.
        -11    1    3    3    0    0  0.11338831844E+02 -0.10883020797E+01 -0.95393274509E+01  0.14857734601E+02  0.51100000000E-03 0.  1.
        -12    1    3    3    0    0  0.19603144141E+02 -0.84151051372E+01 -0.22855297405E+01  0.21455090325E+02  0.00000000000E+00 0.  1.
</event>
<event>
 7    1  0.2432574E-011  0.5052886E+02  0.7816164E-02  0.1300439E+00
        -11   -1    0    0    0    0  0.00000000000E+00  0.00000000000E+00  0.45593999997E+02  0.45594000000E+02  0.51100000000E-03 0.  1.
         11   -1    0    0    0    0 -0.00000000000E+00 -0.00000000000E+00 -0.45593999997E+02  0.45594000000E+02  0.51100000000E-03 0. -1.
    9900012    2    1    2    0    0 -0.28950884825E+02 -0.18833831920E+02  0.21454576479E+02  0.50528858238E+02  0.29999995101E+02 0.  0.
         12    1    1    2    0    0  0.28950884825E+02  0.18833831920E+02 -0.21454576479E+02  0.40659141762E+02  0.00000000000E+00 0. -1.
         11    1    3    3    0    0 -0.94449125271E+01  0.66433834019E+01  0.86242556338E+01  0.14412449520E+02  0.51100000000E-03 0. -1.
        -11    1    3    3    0    0 -0.69863137619E+00 -0.72940292496E+01  0.47684361033E+01  0.87423641897E+01  0.51100000000E-03 0.  1.
        -12    1    3    3    0    0 -0.18807340922E+02 -0.18183186072E+02  0.80618847416E+01  0.27374044529E+02  0.00000000000E+00 0.  1.
</event>
<event>
 7    1  0.2432574E-011  0.5052886E+02  0.7816164E-02  0.1300439E+00
        -11   -1    0    0    0    0  0.00000000000E+00  0.00000000000E+00  0.45593999997E+02  0.45594000000E+02  0.51100000000E-03 0.  1.
         11   -1    0    0    0    0 -0.00000000000E+00 -0.00000000000E+00 -0.45593999997E+02  0.45594000000E+02  0.51100000000E-03 0. -1.
    9900012    2    1    2    0    0 -0.23697003594E+02 -0.20018808962E+02  0.26284311130E+02  0.50528859537E+02  0.29999999050E+02 0.  0.
         12    1    1    2    0    0  0.23697003594E+02  0.20018808962E+02 -0.26284311130E+02  0.40659140463E+02  0.00000000000E+00 0. -1.
         11    1    3    3    0    0 -0.46368218392E+01  0.19208906982E+01  0.77017179778E+01  0.91927361495E+01  0.51100000000E-03 0. -1.
        -11    1    3    3    0    0 -0.13460228702E+02 -0.15390977344E+02  0.23710671825E+02  0.31309038615E+02  0.51100000000E-03 0.  1.
         12    1    3    3    0    0 -0.55999530532E+01 -0.65487223162E+01 -0.51280786734E+01  0.10027084773E+02  0.00000000000E+00 0. -1.
</event>
<event>
 7    1  0.2432574E-011  0.5052886E+02  0.7816164E-02  0.1300439E+00
        -11   -1    0    0    0    0  0.00000000000E+00  0.00000000000E+00  0.45593999997E+02  0.45594000000E+02  0.51100000000E-03 0.  1.
         11   -1    0    0    0    0 -0.00000000000E+00 -0.00000000000E+00 -0.45593999997E+02  0.45594000000E+02  0.51100000000E-03 0. -1.
    9900012    2    1    2    0    0 -0.14170099533E+02 -0.37278209027E+02  0.79189263971E+01  0.50528856080E+02  0.29999988540E+02 0.  0.
         12    1    1    2    0    0  0.14170099533E+02  0.37278209027E+02 -0.79189263971E+01  0.40659143920E+02  0.00000000000E+00 0. -1.
         11    1    3    3    0    0  0.74557395211E+01 -0.13432350550E+02  0.65648196843E+01  0.16706673842E+02  0.51100000000E-03 0. -1.
        -11    1    3    3    0    0 -0.24180957997E+00  0.84548187341E+00  0.74489858283E+00  0.11524693623E+01  0.51100000000E-03 0.  1.
        -12    1    3    3    0    0 -0.21384029474E+02 -0.24691340351E+02  0.60920813003E+00  0.32669712876E+02  0.00000000000E+00 0.  1.
</event>
<event>
 7    1  0.2432574E-011  0.5052886E+02  0.7816164E-02  0.1300439E+00
        -11   -1    0    0    0    0  0.00000000000E+00  0.00000000000E+00  0.45593999997E+02  0.45594000000E+02  0.51100000000E-03 0.  1.
         11   -1    0    0    0    0 -0.00000000000E+00 -0.00000000000E+00 -0.45593999997E+02  0.45594000000E+02  0.51100000000E-03 0. -1.
    9900012    2    1    2    0    0  0.25509793896E+02  0.12429317199E+01  0.31636549036E+02  0.50528859591E+02  0.29999999213E+02 0.  0.
         12    1    1    2    0    0 -0.25509793896E+02 -0.12429317199E+01 -0.31636549036E+02  0.40659140409E+02  0.00000000000E+00 0. -1.
         11    1    3    3    0    0 -0.14670098842E+01  0.27753175121E+01  0.79494706658E+01  0.85468467531E+01  0.51100000000E-03 0. -1.
        -11    1    3    3    0    0  0.38815902531E+01  0.45751746119E+01 -0.25316202174E+01  0.65121476341E+01  0.51100000000E-03 0.  1.
        -12    1    3    3    0    0  0.23095213527E+02 -0.61075604042E+01  0.26218698587E+02  0.35469865204E+02  0.00000000000E+00 0.  1.
</event>
<event>
 7    1  0.2432574E-011  0.5052886E+02  0.7816164E-02  0.1300439E+00
        -11   -1    0    0    0    0  0.00000000000E+00  0.00000000000E+00  0.45593999997E+02  0.45594000000E+02  0.51100000000E-03 0.  1.
         11   -1    0    0    0    0 -0.00000000000E+00 -0.00000000000E+00 -0.45593999997E+02  0.45594000000E+02  0.51100000000E-03 0. -1.
    9900012    2    1    2    0    0 -0.15493829189E+02 -0.36911158836E+02 -0.71185302402E+01  0.50528857580E+02  0.29999993099E+02 0.  0.
         12    1    1    2    0    0  0.15493829189E+02  0.36911158836E+02  0.71185302402E+01  0.40659142420E+02  0.00000000000E+00 0. -1.
         11    1    3    3    0    0  0.18145717995E+01 -0.47775359413E+01 -0.87882912103E+01  0.10166198067E+02  0.51100000000E-03 0. -1.
        -11    1    3    3    0    0  0.30449052925E+01 -0.90723628990E+01  0.38431297063E+00  0.95774168507E+01  0.51100000000E-03 0.  1.
         12    1    3    3    0    0 -0.20353306281E+02 -0.23061259996E+02  0.12854479995E+01  0.30785242662E+02  0.00000000000E+00 0. -1.
</event>
<event>
 7    1  0.2432574E-011  0.5052886E+02  0.7816164E-02  0.1300439E+00
        -11   -1    0    0    0    0  0.00000000000E+00  0.00000000000E+00  0.45593999997E+02  0.45594000000E+02  0.51100000000E-03 0. -1.
         11   -1    0    0    0    0 -0.00000000000E+00 -0.00000000000E+00 -0.45593999997E+02  0.45594000000E+02  0.51100000000E-03 0.  1.
    9900012    2    1    2    0    0 -0.38858128351E+02 -0.58190144293E+01 -0.10457096389E+02  0.50528856714E+02  0.29999990469E+02 0.  0.
         12    1    1    2    0    0  0.38858128351E+02  0.58190144293E+01  0.10457096389E+02  0.40659143286E+02  0.00000000000E+00 0. -1.
         11    1    3    3    0    0 -0.17431192843E+02 -0.11762241806E+02 -0.21820763600E+01  0.21141387697E+02  0.51100000000E-03 0. -1.
        -11    1    3    3    0    0 -0.61059588806E+01 -0.39970149084E+01 -0.83954711270E+01  0.11123974008E+02  0.51100000000E-03 0.  1.
        -12    1    3    3    0    0 -0.15320976627E+02  0.99402422854E+01  0.12045109845E+00  0.18263495010E+02  0.00000000000E+00 0.  1.
</event>
<event>
 7    1  0.2432574E-011  0.5052886E+02  0.7816164E-02  0.1300439E+00
        -11   -1    0    0    0    0  0.00000000000E+00  0.00000000000E+00  0.45593999997E+02  0.45594000000E+02  0.51100000000E-03 0.  1.
         11   -1    0    0    0    0 -0.00000000000E+00 -0.00000000000E+00 -0.45593999997E+02  0.45594000000E+02  0.51100000000E-03 0. -1.
    9900012    2    1    2    0    0  0.25919261274E+02 -0.10622490855E+02  0.29470671937E+02  0.50528856854E+02  0.29999990893E+02 0.  0.
         12    1    1    2    0    0 -0.25919261274E+02  0.10622490855E+02 -0.29470671937E+02  0.40659143146E+02  0.00000000000E+00 0. -1.
         11    1    3    3    0    0  0.22825589712E+02 -0.76116027821E+01  0.21170479138E+02  0.32048919324E+02  0.51100000000E-03 0. -1.
        -11    1    3    3    0    0 -0.15489450935E+01 -0.79718211386E+01  0.84013989797E+01  0.11684719434E+02  0.51100000000E-03 0.  1.
         12    1    3    3    0    0  0.46426166551E+01  0.49609330655E+01 -0.10120618086E+00  0.67952180964E+01  0.00000000000E+00 0. -1.
</event>
<event>
 7    1  0.2432574E-011  0.5052887E+02  0.7816164E-02  0.1300439E+00
        -11   -1    0    0    0    0  0.00000000000E+00  0.00000000000E+00  0.45593999997E+02  0.45594000000E+02  0.51100000000E-03 0.  1.
         11   -1    0    0    0    0 -0.00000000000E+00 -0.00000000000E+00 -0.45593999997E+02  0.45594000000E+02  0.51100000000E-03 0. -1.
    9900012    2    1    2    0    0 -0.27702496386E+02  0.15759073945E+02  0.25246551466E+02  0.50528867219E+02  0.30000022398E+02 0.  0.
         12    1    1    2    0    0  0.27702496386E+02 -0.15759073945E+02 -0.25246551466E+02  0.40659132781E+02  0.00000000000E+00 0. -1.
         11    1    3    3    0    0 -0.14577511607E+02  0.12598228202E+02  0.77056906230E+01  0.20750828097E+02  0.51100000000E-03 0.  1.
        -11    1    3    3    0    0 -0.18187583927E+02  0.56024295004E+00  0.11760099679E+02  0.21665687757E+02  0.51100000000E-03 0. -1.
         12    1    3    3    0    0  0.50625991484E+01  0.26006027925E+01  0.57807611635E+01  0.81123513639E+01  0.00000000000E+00 0. -1.
</event>
<event>
 7    1  0.2432574E-011  0.5052885E+02  0.7816164E-02  0.1300439E+00
        -11   -1    0    0    0    0  0.00000000000E+00  0.00000000000E+00  0.45593999997E+02  0.45594000000E+02  0.51100000000E-03 0.  1.
         11   -1    0    0    0    0 -0.00000000000E+00 -0.00000000000E+00 -0.45593999997E+02  0.45594000000E+02  0.51100000000E-03 0. -1.
    9900012    2    1    2    0    0 -0.11394857679E+02 -0.38422373902E+02  0.68589331474E+01  0.50528848979E+02  0.29999966958E+02 0.  0.
         12    1    1    2    0    0  0.11394857679E+02  0.38422373902E+02 -0.68589331474E+01  0.40659151021E+02  0.00000000000E+00 0. -1.
         11    1    3    3    0    0  0.28477656078E+01 -0.39409297201E+01  0.56037196498E+01  0.74190545348E+01  0.51100000000E-03 0. -1.
        -11    1    3    3    0    0  0.27062602875E+01 -0.21490146735E+02  0.19165193379E+01  0.21744500410E+02  0.51100000000E-03 0.  1.
         12    1    3    3    0    0 -0.16948883575E+02 -0.12991297447E+02 -0.66130584021E+00  0.21365294035E+02  0.00000000000E+00 0. -1.
</event>
<event>
 7    1  0.2432574E-011  0.5052888E+02  0.7816164E-02  0.1300439E+00
        -11   -1    0    0    0    0  0.00000000000E+00  0.00000000000E+00  0.45593999997E+02  0.45594000000E+02  0.51100000000E-03 0.  1.
         11   -1    0    0    0    0 -0.00000000000E+00 -0.00000000000E+00 -0.45593999997E+02  0.45594000000E+02  0.51100000000E-03 0. -1.
    9900012    2    1    2    0    0 -0.19273760975E+02 -0.16186810161E+02  0.31932328464E+02  0.50528876959E+02  0.30000052006E+02 0.  0.
         12    1    1    2    0    0  0.19273760975E+02  0.16186810161E+02 -0.31932328464E+02  0.40659123041E+02  0.00000000000E+00 0. -1.
         11    1    3    3    0    0  0.31979670374E+01  0.23068120016E+01  0.45115829110E+01  0.59918908040E+01  0.51100000000E-03 0. -1.
        -11    1    3    3    0    0  0.29366053976E+01 -0.47477883273E+01  0.16418745968E+01  0.58190117472E+01  0.51100000000E-03 0.  1.
         12    1    3    3    0    0 -0.25408333410E+02 -0.13745833835E+02  0.25778870956E+02  0.38717974408E+02  0.00000000000E+00 0. -1.
</event>
<event>
 7    1  0.2432574E-011  0.5052886E+02  0.7816164E-02  0.1300439E+00
        -11   -1    0    0    0    0  0.00000000000E+00  0.00000000000E+00  0.45593999997E+02  0.45594000000E+02  0.51100000000E-03 0.  1.
         11   -1    0    0    0    0 -0.00000000000E+00 -0.00000000000E+00 -0.45593999997E+02  0.45594000000E+02  0.51100000000E-03 0. -1.
    9900012    2    1    2    0    0 -0.24833596197E+02 -0.10686690837E+02  0.30368610228E+02  0.50528863901E+02  0.30000012314E+02 0.  0.
         12    1    1    2    0    0  0.24833596197E+02  0.10686690837E+02 -0.30368610228E+02  0.40659136099E+02  0.00000000000E+00 0. -1.
         11    1    3    3    0    0 -0.12229729091E+02 -0.12390233400E+02  0.19545535719E+02  0.26174646591E+02  0.51100000000E-03 0. -1.
        -11    1    3    3    0    0 -0.11138008482E+02 -0.64184870276E+01  0.35062980245E+01  0.13324651394E+02  0.51100000000E-03 0.  1.
        -12    1    3    3    0    0 -0.14658586237E+01  0.81220295908E+01  0.73167764853E+01  0.11029565917E+02  0.00000000000E+00 0.  1.
</event>
<event>
 7    1  0.2432574E-011  0.5052886E+02  0.7816164E-02  0.1300439E+00
        -11   -1    0    0    0    0  0.00000000000E+00  0.00000000000E+00  0.45593999997E+02  0.45594000000E+02  0.51100000000E-03 0.  1.
         11   -1    0    0    0    0 -0.00000000000E+00 -0.00000000000E+00 -0.45593999997E+02  0.45594000000E+02  0.51100000000E-03 0. -1.
    9900012    2    1    2    0    0 -0.17174037280E+01 -0.62024811238E+01  0.40146549845E+02  0.50528859427E+02  0.29999998714E+02 0.  0.
         12    1    1    2    0    0  0.17174037280E+01  0.62024811238E+01 -0.40146549845E+02  0.40659140573E+02  0.00000000000E+00 0. -1.
         11    1    3    3    0    0  0.55920011526E+01  0.58558109480E+00  0.41684071763E+01  0.69992142957E+01  0.51100000000E-03 0. -1.
        -11    1    3    3    0    0  0.29141437889E+01 -0.56407660847E+01  0.31797083848E+02  0.32424759329E+02  0.51100000000E-03 0.  1.
         12    1    3    3    0    0 -0.10223548669E+02 -0.11472961339E+01  0.41810588209E+01  0.11104885802E+02  0.00000000000E+00 0. -1.
</event>
<event>
 7    1  0.2432574E-011  0.5052886E+02  0.7816164E-02  0.1300439E+00
        -11   -1    0    0    0    0  0.00000000000E+00  0.00000000000E+00  0.45593999997E+02  0.45594000000E+02  0.51100000000E-03 0.  1.
         11   -1    0    0    0    0 -0.00000000000E+00 -0.00000000000E+00 -0.45593999997E+02  0.45594000000E+02  0.51100000000E-03 0. -1.
    9900012    2    1    2    0    0  0.46579021539E+01 -0.36719793429E+02  0.16826368842E+02  0.50528856252E+02  0.29999989063E+02 0.  0.
         12    1    1    2    0    0 -0.46579021539E+01  0.36719793429E+02 -0.16826368842E+02  0.40659143748E+02  0.00000000000E+00 0. -1.
         11    1    3    3    0    0  0.21466999875E+01 -0.35652332207E+01 -0.39994915958E+01  0.57719270647E+01  0.51100000000E-03 0. -1.
        -11    1    3    3    0    0  0.11856603216E+02 -0.18278645902E+02  0.89632298014E+01  0.23559020025E+02  0.51100000000E-03 0.  1.
         12    1    3    3    0    0 -0.93454010493E+01 -0.14875914306E+02  0.11862630636E+02  0.21197909162E+02  0.00000000000E+00 0. -1.
</event>
<event>
 7    1  0.2432574E-011  0.5052886E+02  0.7816164E-02  0.1300439E+00
        -11   -1    0    0    0    0  0.00000000000E+00  0.00000000000E+00  0.45593999997E+02  0.45594000000E+02  0.51100000000E-03 0. -1.
         11   -1    0    0    0    0 -0.00000000000E+00 -0.00000000000E+00 -0.45593999997E+02  0.45594000000E+02  0.51100000000E-03 0.  1.
    9900012    2    1    2    0    0  0.36798068934E+02 -0.59299325983E+01  0.16245119931E+02  0.50528857124E+02  0.29999991714E+02 0.  0.
         12    1    1    2    0    0 -0.36798068934E+02  0.59299325983E+01 -0.16245119931E+02  0.40659142876E+02  0.00000000000E+00 0. -1.
         11    1    3    3    0    0  0.44438758864E+01 -0.12654250757E+02  0.33963399967E+01  0.13835216686E+02  0.51100000000E-03 0. -1.
        -11    1    3    3    0    0  0.25485664034E+02  0.26849000324E+01  0.12975377744E+02  0.28724348336E+02  0.51100000000E-03 0.  1.
        -12    1    3    3    0    0  0.68685290126E+01  0.40394181265E+01 -0.12659780985E+00  0.79692921018E+01  0.00000000000E+00 0.  1.
</event>
<event>
 7    1  0.2432574E-011  0.5052886E+02  0.7816164E-02  0.1300439E+00
        -11   -1    0    0    0    0  0.00000000000E+00  0.00000000000E+00  0.45593999997E+02  0.45594000000E+02  0.51100000000E-03 0. -1.
         11   -1    0    0    0    0 -0.00000000000E+00 -0.00000000000E+00 -0.45593999997E+02  0.45594000000E+02  0.51100000000E-03 0.  1.
    9900012    2    1    2    0    0 -0.60182510852E+01 -0.33107918485E+02 -0.22821307876E+02  0.50528859506E+02  0.29999998954E+02 0.  0.
         12    1    1    2    0    0  0.60182510852E+01  0.33107918485E+02  0.22821307876E+02  0.40659140494E+02  0.00000000000E+00 0. -1.
         11    1    3    3    0    0  0.36597522686E+01 -0.22151218142E+02 -0.18592310941E+02  0.29150373552E+02  0.51100000000E-03 0. -1.
        -11    1    3    3    0    0 -0.18611707275E+01 -0.12537751263E+02 -0.80882750624E+00  0.12700919864E+02  0.51100000000E-03 0.  1.
         12    1    3    3    0    0 -0.78168326264E+01  0.15810509190E+01 -0.34201694292E+01  0.86775660897E+01  0.00000000000E+00 0. -1.
</event>
<event>
 7    1  0.2432574E-011  0.5052887E+02  0.7816164E-02  0.1300439E+00
        -11   -1    0    0    0    0  0.00000000000E+00  0.00000000000E+00  0.45593999997E+02  0.45594000000E+02  0.51100000000E-03 0. -1.
         11   -1    0    0    0    0 -0.00000000000E+00 -0.00000000000E+00 -0.45593999997E+02  0.45594000000E+02  0.51100000000E-03 0.  1.
    9900012    2    1    2    0    0 -0.32087210254E+02  0.23134120351E+02 -0.94015170796E+01  0.50528866835E+02  0.30000021232E+02 0.  0.
         12    1    1    2    0    0  0.32087210254E+02 -0.23134120351E+02  0.94015170796E+01  0.40659133165E+02  0.00000000000E+00 0. -1.
         11    1    3    3    0    0 -0.13025552580E+01 -0.26941622863E+01 -0.67044393526E+01  0.73419798364E+01  0.51100000000E-03 0. -1.
        -11    1    3    3    0    0 -0.14084122002E+02  0.55994833776E+01  0.48110279760E+01  0.15901657056E+02  0.51100000000E-03 0.  1.
         12    1    3    3    0    0 -0.16700532994E+02  0.20228799260E+02 -0.75081057030E+01  0.27285229943E+02  0.00000000000E+00 0. -1.
</event>
<event>
 7    1  0.2432574E-011  0.5052886E+02  0.7816164E-02  0.1300439E+00
        -11   -1    0    0    0    0  0.00000000000E+00  0.00000000000E+00  0.45593999997E+02  0.45594000000E+02  0.51100000000E-03 0.  1.
         11   -1    0    0    0    0 -0.00000000000E+00 -0.00000000000E+00 -0.45593999997E+02  0.45594000000E+02  0.51100000000E-03 0. -1.
    9900012    2    1    2    0    0  0.10104954956E+02 -0.39218754938E+02  0.35979437655E+01  0.50528855237E+02  0.29999985978E+02 0.  0.
         12    1    1    2    0    0 -0.10104954956E+02  0.39218754938E+02 -0.35979437655E+01  0.40659144763E+02  0.00000000000E+00 0. -1.
         11    1    3    3    0    0  0.95277823300E+00  0.29274828279E+01 -0.58377245006E+00  0.31334856954E+01  0.51100000000E-03 0. -1.
        -11    1    3    3    0    0 -0.34351234936E+01 -0.23093202198E+02 -0.28045198583E+01  0.23515131151E+02  0.51100000000E-03 0.  1.
        -12    1    3    3    0    0  0.12587300217E+02 -0.19053035568E+02  0.69862360739E+01  0.23880238390E+02  0.00000000000E+00 0.  1.
</event>
<event>
 7    1  0.2432574E-011  0.5052886E+02  0.7816164E-02  0.1300439E+00
        -11   -1    0    0    0    0  0.00000000000E+00  0.00000000000E+00  0.45593999997E+02  0.45594000000E+02  0.51100000000E-03 0. -1.
         11   -1    0    0    0    0 -0.00000000000E+00 -0.00000000000E+00 -0.45593999997E+02  0.45594000000E+02  0.51100000000E-03 0.  1.
    9900012    2    1    2    0    0 -0.35774923016E+02 -0.96961441237E+01 -0.16712433267E+02  0.50528858920E+02  0.29999997174E+02 0.  0.
         12    1    1    2    0    0  0.35774923016E+02  0.96961441237E+01  0.16712433267E+02  0.40659141080E+02  0.00000000000E+00 0. -1.
         11    1    3    3    0    0 -0.53075352605E+01  0.49954075409E+01 -0.21378709610E+01  0.75956908539E+01  0.51100000000E-03 0. -1.
        -11    1    3    3    0    0 -0.77570645401E+01 -0.49116833275E+01 -0.15692768196E+02  0.18181299659E+02  0.51100000000E-03 0.  1.
        -12    1    3    3    0    0 -0.22710323215E+02 -0.97798683370E+01  0.11182058904E+01  0.24751868407E+02  0.00000000000E+00 0.  1.
</event>
<event>
 7    1  0.2432574E-011  0.5052887E+02  0.7816164E-02  0.1300439E+00
        -11   -1    0    0    0    0  0.00000000000E+00  0.00000000000E+00  0.45593999997E+02  0.45594000000E+02  0.51100000000E-03 0. -1.
         11   -1    0    0    0    0 -0.00000000000E+00 -0.00000000000E+00 -0.45593999997E+02  0.45594000000E+02  0.51100000000E-03 0.  1.
    9900012    2    1    2    0    0  0.39480309001E+02 -0.33767037242E+01 -0.91141706992E+01  0.50528867761E+02  0.30000024048E+02 0.  0.
         12    1    1    2    0    0 -0.39480309001E+02  0.33767037242E+01  0.91141706992E+01  0.40659132239E+02  0.00000000000E+00 0. -1.
         11    1    3    3    0    0 -0.12929690813E+00  0.27064312756E+01 -0.12250355634E+01  0.29735837524E+01  0.51100000000E-03 0. -1.
        -11    1    3    3    0    0  0.22824363959E+02 -0.14529602756E+02 -0.95472550383E+01  0.28691654281E+02  0.51100000000E-03 0.  1.
         12    1    3    3    0    0  0.16785241950E+02  0.84464677564E+01  0.16581199025E+01  0.18863629728E+02  0.00000000000E+00 0. -1.
</event>
<event>
 7    1  0.2432574E-011  0.5052890E+02  0.7816164E-02  0.1300439E+00
        -11   -1    0    0    0    0  0.00000000000E+00  0.00000000000E+00  0.45593999997E+02  0.45594000000E+02  0.51100000000E-03 0.  1.
         11   -1    0    0    0    0 -0.00000000000E+00 -0.00000000000E+00 -0.45593999997E+02  0.45594000000E+02  0.51100000000E-03 0. -1.
    9900012    2    1    2    0    0  0.68257547713E+01 -0.26656990025E+02  0.29932859502E+02  0.50528903560E+02  0.30000132859E+02 0.  0.
         12    1    1    2    0    0 -0.68257547713E+01  0.26656990025E+02 -0.29932859502E+02  0.40659096440E+02  0.00000000000E+00 0. -1.
         11    1    3    3    0    0  0.78676950628E+01 -0.73535169554E+01  0.84926047689E+01  0.13714925200E+02  0.51100000000E-03 0. -1.
        -11    1    3    3    0    0  0.94000691137E+01 -0.97932139536E+01  0.17506210989E+02  0.22152556565E+02  0.51100000000E-03 0.  1.
         12    1    3    3    0    0 -0.10442009405E+02 -0.95102591162E+01  0.39340437433E+01  0.14661421795E+02  0.00000000000E+00 0. -1.
</event>
<event>
 7    1  0.2432574E-011  0.5052885E+02  0.7816164E-02  0.1300439E+00
        -11   -1    0    0    0    0  0.00000000000E+00  0.00000000000E+00  0.45593999997E+02  0.45594000000E+02  0.51100000000E-03 0.  1.
         11   -1    0    0    0    0 -0.00000000000E+00 -0.00000000000E+00 -0.45593999997E+02  0.45594000000E+02  0.51100000000E-03 0. -1.
    9900012    2    1    2    0    0 -0.16886164324E+01  0.36070866299E+02  0.18687093205E+02  0.50528852524E+02  0.29999977733E+02 0.  0.
         12    1    1    2    0    0  0.16886164324E+01 -0.36070866299E+02 -0.18687093205E+02  0.40659147476E+02  0.00000000000E+00 0. -1.
         11    1    3    3    0    0  0.31606499824E+01  0.39106577201E+01 -0.50579454166E+01  0.71320238512E+01  0.51100000000E-03 0. -1.
        -11    1    3    3    0    0  0.48240030742E+01  0.35397412462E+01  0.53486199612E+01  0.80254912311E+01  0.51100000000E-03 0.  1.
        -12    1    3    3    0    0 -0.96732694890E+01  0.28620467332E+02  0.18396418660E+02  0.35371337442E+02  0.00000000000E+00 0.  1.
</event>
<event>
 7    1  0.2432574E-011  0.5052885E+02  0.7816164E-02  0.1300439E+00
        -11   -1    0    0    0    0  0.00000000000E+00  0.00000000000E+00  0.45593999997E+02  0.45594000000E+02  0.51100000000E-03 0.  1.
         11   -1    0    0    0    0 -0.00000000000E+00 -0.00000000000E+00 -0.45593999997E+02  0.45594000000E+02  0.51100000000E-03 0. -1.
    9900012    2    1    2    0    0  0.29036599030E+02  0.28415776360E+02 -0.16081624893E+01  0.50528848312E+02  0.29999964930E+02 0.  0.
         12    1    1    2    0    0 -0.29036599030E+02 -0.28415776360E+02  0.16081624893E+01  0.40659151688E+02  0.00000000000E+00 0. -1.
         11    1    3    3    0    0  0.98558027241E+00  0.42648379214E+00  0.64051213981E+01  0.64945236379E+01  0.51100000000E-03 0. -1.
        -11    1    3    3    0    0  0.16829418044E+02  0.58870648683E+01  0.46866843511E+00  0.17835540217E+02  0.51100000000E-03 0.  1.
        -12    1    3    3    0    0  0.11221600714E+02  0.22102227700E+02 -0.84819523225E+01  0.26198784458E+02  0.00000000000E+00 0.  1.
</event>
<event>
 7    1  0.2432574E-011  0.5052887E+02  0.7816164E-02  0.1300439E+00
        -11   -1    0    0    0    0  0.00000000000E+00  0.00000000000E+00  0.45593999997E+02  0.45594000000E+02  0.51100000000E-03 0.  1.
         11   -1    0    0    0    0 -0.00000000000E+00 -0.00000000000E+00 -0.45593999997E+02  0.45594000000E+02  0.51100000000E-03 0. -1.
    9900012    2    1    2    0    0 -0.62118033757E+01  0.40172204083E+02 -0.87891205957E+00  0.50528868572E+02  0.30000026511E+02 0.  0.
         12    1    1    2    0    0  0.62118033757E+01 -0.40172204083E+02  0.87891205957E+00  0.40659131428E+02  0.00000000000E+00 0. -1.
         11    1    3    3    0    0  0.94297766567E+01  0.15419017585E+02 -0.37255099236E+01  0.18453894319E+02  0.51100000000E-03 0. -1.
        -11    1    3    3    0    0 -0.28602353768E+01  0.15414043665E+02 -0.12401801878E+01  0.15726148151E+02  0.51100000000E-03 0.  1.
         12    1    3    3    0    0 -0.12781344656E+02  0.93391428335E+01  0.40867780517E+01  0.16348826102E+02  0.00000000000E+00 0. -1.
</event>
<event>
 7    1  0.2432574E-011  0.5052875E+02  0.7816164E-02  0.1300439E+00
        -11   -1    0    0    0    0  0.00000000000E+00  0.00000000000E+00  0.45593999997E+02  0.45594000000E+02  0.51100000000E-03 0. -1.
         11   -1    0    0    0    0 -0.00000000000E+00 -0.00000000000E+00 -0.45593999997E+02  0.45594000000E+02  0.51100000000E-03 0.  1.
    9900012    2    1    2    0    0 -0.15505017078E+02 -0.12916723082E+02 -0.35297692424E+02  0.50528752833E+02  0.29999674708E+02 0.  0.
         12    1    1    2    0    0  0.15505017078E+02  0.12916723082E+02  0.35297692424E+02  0.40659247167E+02  0.00000000000E+00 0. -1.
         11    1    3    3    0    0  0.22554545740E+01 -0.69718100511E+01 -0.13013802260E+02  0.14934934223E+02  0.51100000000E-03 0. -1.
        -11    1    3    3    0    0 -0.89315281080E+01  0.35708833773E+00 -0.23046931231E+02  0.24719642915E+02  0.51100000000E-03 0.  1.
         12    1    3    3    0    0 -0.88289435443E+01 -0.63020013685E+01  0.76304106725E+00  0.10874175694E+02  0.00000000000E+00 0. -1.
</event>
<event>
 7    1  0.2432574E-011  0.5052886E+02  0.7816164E-02  0.1300439E+00
        -11   -1    0    0    0    0  0.00000000000E+00  0.00000000000E+00  0.45593999997E+02  0.45594000000E+02  0.51100000000E-03 0.  1.
         11   -1    0    0    0    0 -0.00000000000E+00 -0.00000000000E+00 -0.45593999997E+02  0.45594000000E+02  0.51100000000E-03 0. -1.
    9900012    2    1    2    0    0  0.25008930731E+02 -0.30560008026E+02  0.96852761739E+01  0.50528864724E+02  0.30000014815E+02 0.  0.
         12    1    1    2    0    0 -0.25008930731E+02  0.30560008026E+02 -0.96852761739E+01  0.40659135276E+02  0.00000000000E+00 0. -1.
         11    1    3    3    0    0  0.11945849761E+02 -0.16786967673E+02 -0.20236248322E+01  0.20702672965E+02  0.51100000000E-03 0. -1.
        -11    1    3    3    0    0  0.16934015601E+02 -0.54950371987E+01  0.50077370422E+01  0.18494154448E+02  0.51100000000E-03 0.  1.
         12    1    3    3    0    0 -0.38709346321E+01 -0.82780031545E+01  0.67011639638E+01  0.11332037311E+02  0.00000000000E+00 0. -1.
</event>
<event>
 7    1  0.2432574E-011  0.5052885E+02  0.7816164E-02  0.1300439E+00
        -11   -1    0    0    0    0  0.00000000000E+00  0.00000000000E+00  0.45593999997E+02  0.45594000000E+02  0.51100000000E-03 0.  1.
         11   -1    0    0    0    0 -0.00000000000E+00 -0.00000000000E+00 -0.45593999997E+02  0.45594000000E+02  0.51100000000E-03 0. -1.
    9900012    2    1    2    0    0  0.31396780513E+02 -0.25824234438E+02 -0.71949802719E+00  0.50528848653E+02  0.29999965964E+02 0.  0.
         12    1    1    2    0    0 -0.31396780513E+02  0.25824234438E+02  0.71949802719E+00  0.40659151347E+02  0.00000000000E+00 0. -1.
         11    1    3    3    0    0  0.11900141223E+02 -0.77382021614E+01 -0.11293136531E+02  0.18139130817E+02  0.51100000000E-03 0. -1.
        -11    1    3    3    0    0  0.47844159895E+01  0.53612472437E+00  0.68412636514E+01  0.83654620129E+01  0.51100000000E-03 0.  1.
        -12    1    3    3    0    0  0.14712223300E+02 -0.18622157001E+02  0.37323748524E+01  0.24024255823E+02  0.00000000000E+00 0.  1.
</event>
<event>
 7    1  0.2432574E-011  0.5052887E+02  0.7816164E-02  0.1300439E+00
        -11   -1    0    0    0    0  0.00000000000E+00  0.00000000000E+00  0.45593999997E+02  0.45594000000E+02  0.51100000000E-03 0.  1.
         11   -1    0    0    0    0 -0.00000000000E+00 -0.00000000000E+00 -0.45593999997E+02  0.45594000000E+02  0.51100000000E-03 0. -1.
    9900012    2    1    2    0    0  0.43006646077E+00  0.35000630446E+02  0.20686616290E+02  0.50528865943E+02  0.30000018520E+02 0.  0.
         12    1    1    2    0    0 -0.43006646077E+00 -0.35000630446E+02 -0.20686616290E+02  0.40659134057E+02  0.00000000000E+00 0. -1.
         11    1    3    3    0    0  0.51095802934E+01  0.32074440700E+01 -0.27967213438E+01  0.66495983919E+01  0.51100000000E-03 0.  1.
        -11    1    3    3    0    0  0.28078012687E+01  0.20918415016E+01  0.96581404916E+01  0.10273228648E+02  0.51100000000E-03 0. -1.
        -12    1    3    3    0    0 -0.74873151013E+01  0.29701344874E+02  0.13825197142E+02  0.33606038903E+02  0.00000000000E+00 0.  1.
</event>
<event>
 7    1  0.2432574E-011  0.5052886E+02  0.7816164E-02  0.1300439E+00
        -11   -1    0    0    0    0  0.00000000000E+00  0.00000000000E+00  0.45593999997E+02  0.45594000000E+02  0.51100000000E-03 0.  1.
         11   -1    0    0    0    0 -0.00000000000E+00 -0.00000000000E+00 -0.45593999997E+02  0.45594000000E+02  0.51100000000E-03 0. -1.
    9900012    2    1    2    0    0 -0.13709056963E+02 -0.31712961821E+02  0.21436321402E+02  0.50528855081E+02  0.29999985504E+02 0.  0.
         12    1    1    2    0    0  0.13709056963E+02  0.31712961821E+02 -0.21436321402E+02  0.40659144919E+02  0.00000000000E+00 0. -1.
         11    1    3    3    0    0 -0.49091433899E+00 -0.50226739769E+01 -0.34521450844E+01  0.61143729614E+01  0.51100000000E-03 0. -1.
        -11    1    3    3    0    0 -0.17332169421E+02 -0.15270950838E+02  0.99112007858E+01  0.25136386726E+02  0.51100000000E-03 0.  1.
        -12    1    3    3    0    0  0.41140267973E+01 -0.11419337006E+02  0.14977265701E+02  0.19278095394E+02  0.00000000000E+00 0.  1.
</event>
<event>
 7    1  0.2432574E-011  0.5052883E+02  0.7816164E-02  0.1300439E+00
        -11   -1    0    0    0    0  0.00000000000E+00  0.00000000000E+00  0.45593999997E+02  0.45594000000E+02  0.51100000000E-03 0.  1.
         11   -1    0    0    0    0 -0.00000000000E+00 -0.00000000000E+00 -0.45593999997E+02  0.45594000000E+02  0.51100000000E-03 0. -1.
    9900012    2    1    2    0    0 -0.16972632716E+02  0.29813739939E+02  0.21822890584E+02  0.50528832474E+02  0.29999916787E+02 0.  0.
         12    1    1    2    0    0  0.16972632716E+02 -0.29813739939E+02 -0.21822890584E+02  0.40659167526E+02  0.00000000000E+00 0. -1.
         11    1    3    3    0    0 -0.57277338491E+01  0.24237215054E+02  0.73558998851E+01  0.25968419128E+02  0.51100000000E-03 0. -1.
        -11    1    3    3    0    0 -0.16362747899E+01  0.79356490036E+01  0.11798622313E+02  0.14312910572E+02  0.51100000000E-03 0.  1.
         12    1    3    3    0    0 -0.96086240775E+01 -0.23591241184E+01  0.26683683866E+01  0.10247502775E+02  0.00000000000E+00 0. -1.
</event>
<event>
 7    1  0.2432574E-011  0.5052888E+02  0.7816164E-02  0.1300439E+00
        -11   -1    0    0    0    0  0.00000000000E+00  0.00000000000E+00  0.45593999997E+02  0.45594000000E+02  0.51100000000E-03 0.  1.
         11   -1    0    0    0    0 -0.00000000000E+00 -0.00000000000E+00 -0.45593999997E+02  0.45594000000E+02  0.51100000000E-03 0. -1.
    9900012    2    1    2    0    0  0.33104844049E+02  0.12916636859E+02  0.19758391130E+02  0.50528877687E+02  0.30000054216E+02 0.  0.
         12    1    1    2    0    0 -0.33104844049E+02 -0.12916636859E+02 -0.19758391130E+02  0.40659122313E+02  0.00000000000E+00 0. -1.
         11    1    3    3    0    0  0.15965050056E+02  0.18859303747E+01  0.18338599590E+02  0.24387369515E+02  0.51100000000E-03 0. -1.
        -11    1    3    3    0    0  0.57599956320E+01  0.10919264198E+02  0.61798897236E+01  0.13805756682E+02  0.51100000000E-03 0.  1.
         12    1    3    3    0    0  0.11379798361E+02  0.11144228627E+00 -0.47600981832E+01  0.12335751490E+02  0.00000000000E+00 0. -1.
</event>
<event>
 7    1  0.2432574E-011  0.5052886E+02  0.7816164E-02  0.1300439E+00
        -11   -1    0    0    0    0  0.00000000000E+00  0.00000000000E+00  0.45593999997E+02  0.45594000000E+02  0.51100000000E-03 0.  1.
         11   -1    0    0    0    0 -0.00000000000E+00 -0.00000000000E+00 -0.45593999997E+02  0.45594000000E+02  0.51100000000E-03 0. -1.
    9900012    2    1    2    0    0  0.18205708840E+01 -0.22981919259E+02  0.33491533489E+02  0.50528857035E+02  0.29999991445E+02 0.  0.
         12    1    1    2    0    0 -0.18205708840E+01  0.22981919259E+02 -0.33491533489E+02  0.40659142965E+02  0.00000000000E+00 0. -1.
         11    1    3    3    0    0  0.27233690216E+01 -0.17475770766E+01  0.14584084906E+01  0.35493267042E+01  0.51100000000E-03 0. -1.
        -11    1    3    3    0    0 -0.14822447246E+01 -0.26056181352E+02  0.32953712827E+02  0.42036517760E+02  0.51100000000E-03 0.  1.
        -12    1    3    3    0    0  0.57944658700E+00  0.48218391696E+01 -0.92058782894E+00  0.49430125708E+01  0.00000000000E+00 0.  1.
</event>
<event>
 7    1  0.2432574E-011  0.5052885E+02  0.7816164E-02  0.1300439E+00
        -11   -1    0    0    0    0  0.00000000000E+00  0.00000000000E+00  0.45593999997E+02  0.45594000000E+02  0.51100000000E-03 0. -1.
         11   -1    0    0    0    0 -0.00000000000E+00 -0.00000000000E+00 -0.45593999997E+02  0.45594000000E+02  0.51100000000E-03 0.  1.
    9900012    2    1    2    0    0  0.68368231201E+01 -0.39855665913E+02  0.42367615261E+01  0.50528850919E+02  0.29999972853E+02 0.  0.
         12    1    1    2    0    0 -0.68368231201E+01  0.39855665913E+02 -0.42367615261E+01  0.40659149081E+02  0.00000000000E+00 0. -1.
         11    1    3    3    0    0 -0.17886219456E+01 -0.14465492672E+01 -0.11285738847E+01  0.25622943861E+01  0.51100000000E-03 0. -1.
        -11    1    3    3    0    0  0.69831255281E+01 -0.18602347042E+02  0.15921989708E+02  0.25462150619E+02  0.51100000000E-03 0.  1.
        -12    1    3    3    0    0  0.16423195376E+01 -0.19806769604E+02 -0.10556654297E+02  0.22504405914E+02  0.00000000000E+00 0.  1.
</event>
<event>
 7    1  0.2432574E-011  0.5052886E+02  0.7816164E-02  0.1300439E+00
        -11   -1    0    0    0    0  0.00000000000E+00  0.00000000000E+00  0.45593999997E+02  0.45594000000E+02  0.51100000000E-03 0. -1.
         11   -1    0    0    0    0 -0.00000000000E+00 -0.00000000000E+00 -0.45593999997E+02  0.45594000000E+02  0.51100000000E-03 0.  1.
    9900012    2    1    2    0    0 -0.62980501176E+01  0.39001193516E+02 -0.96128524381E+01  0.50528862492E+02  0.30000008029E+02 0.  0.
         12    1    1    2    0    0  0.62980501176E+01 -0.39001193516E+02  0.96128524381E+01  0.40659137508E+02  0.00000000000E+00 0. -1.
         11    1    3    3    0    0 -0.75749692112E+01  0.98919962794E+01 -0.43931319905E+01  0.13211031674E+02  0.51100000000E-03 0. -1.
        -11    1    3    3    0    0  0.19354556164E+01  0.32804228065E+02 -0.61945792017E+01  0.33440038563E+02  0.51100000000E-03 0.  1.
         12    1    3    3    0    0 -0.65853652285E+00 -0.36950308286E+01  0.97485875414E+00  0.38777922542E+01  0.00000000000E+00 0. -1.
</event>
<event>
 7    1  0.2432574E-011  0.5052885E+02  0.7816164E-02  0.1300439E+00
        -11   -1    0    0    0    0  0.00000000000E+00  0.00000000000E+00  0.45593999997E+02  0.45594000000E+02  0.51100000000E-03 0. -1.
         11   -1    0    0    0    0 -0.00000000000E+00 -0.00000000000E+00 -0.45593999997E+02  0.45594000000E+02  0.51100000000E-03 0.  1.
    9900012    2    1    2    0    0  0.35344013730E+02  0.59444176906E+01 -0.19199772601E+02  0.50528847572E+02  0.29999962679E+02 0.  0.
         12    1    1    2    0    0 -0.35344013730E+02 -0.59444176906E+01  0.19199772601E+02  0.40659152428E+02  0.00000000000E+00 0. -1.
         11    1    3    3    0    0  0.92448437150E+01 -0.26505524427E+01 -0.32602028526E+01  0.10154875010E+02  0.51100000000E-03 0. -1.
        -11    1    3    3    0    0  0.76960115406E+01  0.11692834334E+01 -0.18777660322E+02  0.20327231607E+02  0.51100000000E-03 0.  1.
         12    1    3    3    0    0  0.18403158475E+02  0.74256866999E+01  0.28380905731E+01  0.20046740955E+02  0.00000000000E+00 0. -1.
</event>
<event>
 7    1  0.2432574E-011  0.5052890E+02  0.7816164E-02  0.1300439E+00
        -11   -1    0    0    0    0  0.00000000000E+00  0.00000000000E+00  0.45593999997E+02  0.45594000000E+02  0.51100000000E-03 0.  1.
         11   -1    0    0    0    0 -0.00000000000E+00 -0.00000000000E+00 -0.45593999997E+02  0.45594000000E+02  0.51100000000E-03 0. -1.
    9900012    2    1    2    0    0  0.33946592806E+02  0.14853471980E+02  0.16738154950E+02  0.50528897401E+02  0.30000114140E+02 0.  0.
         12    1    1    2    0    0 -0.33946592806E+02 -0.14853471980E+02 -0.16738154950E+02  0.40659102599E+02  0.00000000000E+00 0. -1.
         11    1    3    3    0    0 -0.23141093866E+01 -0.34602104277E+01 -0.39633671583E+00  0.41815357837E+01  0.51100000000E-03 0. -1.
        -11    1    3    3    0    0  0.58597921964E+01  0.23405624325E+00  0.78128067933E+01  0.97689250771E+01  0.51100000000E-03 0.  1.
        -12    1    3    3    0    0  0.30400909997E+02  0.18079626164E+02  0.93216848723E+01  0.36578436540E+02  0.00000000000E+00 0.  1.
</event>
<event>
 7    1  0.2432574E-011  0.5052887E+02  0.7816164E-02  0.1300439E+00
        -11   -1    0    0    0    0  0.00000000000E+00  0.00000000000E+00  0.45593999997E+02  0.45594000000E+02  0.51100000000E-03 0. -1.
         11   -1    0    0    0    0 -0.00000000000E+00 -0.00000000000E+00 -0.45593999997E+02  0.45594000000E+02  0.51100000000E-03 0.  1.
    9900012    2    1    2    0    0  0.13179713390E+02  0.36979703158E+02  0.10581205355E+02  0.50528865756E+02  0.30000017952E+02 0.  0.
         12    1    1    2    0    0 -0.13179713390E+02 -0.36979703158E+02 -0.10581205355E+02  0.40659134244E+02  0.00000000000E+00 0. -1.
         11    1    3    3    0    0 -0.23173073238E+01  0.12115379449E+01  0.35086078726E+00  0.26383405728E+01  0.51100000000E-03 0. -1.
        -11    1    3    3    0    0  0.59166633734E+01  0.36067033225E+02  0.47693582537E+01  0.36858982210E+02  0.51100000000E-03 0.  1.
        -12    1    3    3    0    0  0.95803573403E+01 -0.29886801164E+00  0.54609863140E+01  0.11031542974E+02  0.00000000000E+00 0.  1.
</event>
<event>
 7    1  0.2432574E-011  0.5052886E+02  0.7816164E-02  0.1300439E+00
        -11   -1    0    0    0    0  0.00000000000E+00  0.00000000000E+00  0.45593999997E+02  0.45594000000E+02  0.51100000000E-03 0.  1.
         11   -1    0    0    0    0 -0.00000000000E+00 -0.00000000000E+00 -0.45593999997E+02  0.45594000000E+02  0.51100000000E-03 0. -1.
    9900012    2    1    2    0    0  0.18028619268E+02  0.15222350069E+02  0.33112150295E+02  0.50528861402E+02  0.30000004719E+02 0.  0.
         12    1    1    2    0    0 -0.18028619268E+02 -0.15222350069E+02 -0.33112150295E+02  0.40659138598E+02  0.00000000000E+00 0. -1.
         11    1    3    3    0    0 -0.77412035813E+00  0.19355013286E+01  0.13845761344E+00  0.20891621511E+01  0.51100000000E-03 0. -1.
        -11    1    3    3    0    0  0.22214742759E+02  0.18622250841E+02  0.25176033536E+02  0.38394214240E+02  0.51100000000E-03 0.  1.
        -12    1    3    3    0    0 -0.34120031331E+01 -0.53354021010E+01  0.77976591457E+01  0.10045485011E+02  0.00000000000E+00 0.  1.
</event>
<event>
 7    1  0.2432574E-011  0.5052887E+02  0.7816164E-02  0.1300439E+00
        -11   -1    0    0    0    0  0.00000000000E+00  0.00000000000E+00  0.45593999997E+02  0.45594000000E+02  0.51100000000E-03 0.  1.
         11   -1    0    0    0    0 -0.00000000000E+00 -0.00000000000E+00 -0.45593999997E+02  0.45594000000E+02  0.51100000000E-03 0. -1.
    9900012    2    1    2    0    0 -0.34699960664E+02  0.10817837130E+02  0.18222283693E+02  0.50528874416E+02  0.30000044275E+02 0.  0.
         12    1    1    2    0    0  0.34699960664E+02 -0.10817837130E+02 -0.18222283693E+02  0.40659125584E+02  0.00000000000E+00 0. -1.
         11    1    3    3    0    0 -0.10791101218E+01  0.19493532659E+01  0.64123839928E+01  0.67884553134E+01  0.51100000000E-03 0. -1.
        -11    1    3    3    0    0 -0.27606466033E+02  0.93205473300E+00  0.17077587278E+02  0.32475062438E+02  0.51100000000E-03 0.  1.
         12    1    3    3    0    0 -0.60143845089E+01  0.79364291309E+01 -0.52676875773E+01  0.11265356665E+02  0.00000000000E+00 0. -1.
</event>
<event>
 7    1  0.2432574E-011  0.5052886E+02  0.7816164E-02  0.1300439E+00
        -11   -1    0    0    0    0  0.00000000000E+00  0.00000000000E+00  0.45593999997E+02  0.45594000000E+02  0.51100000000E-03 0.  1.
         11   -1    0    0    0    0 -0.00000000000E+00 -0.00000000000E+00 -0.45593999997E+02  0.45594000000E+02  0.51100000000E-03 0. -1.
    9900012    2    1    2    0    0 -0.24267472495E+02  0.11259822092E+00  0.32622733889E+02  0.50528859993E+02  0.30000000436E+02 0.  0.
         12    1    1    2    0    0  0.24267472495E+02 -0.11259822092E+00 -0.32622733889E+02  0.40659140007E+02  0.00000000000E+00 0. -1.
         11    1    3    3    0    0 -0.13403970344E+02  0.85180323966E+00  0.59473428681E+01  0.14688869160E+02  0.51100000000E-03 0. -1.
        -11    1    3    3    0    0 -0.13070103983E+02  0.77187669672E+01  0.17547573935E+02  0.23201817447E+02  0.51100000000E-03 0.  1.
        -12    1    3    3    0    0  0.22066018320E+01 -0.84579719860E+01  0.91278170867E+01  0.12638173386E+02  0.00000000000E+00 0.  1.
</event>
<event>
 7    1  0.2432574E-011  0.5052882E+02  0.7816164E-02  0.1300439E+00
        -11   -1    0    0    0    0  0.00000000000E+00  0.00000000000E+00  0.45593999997E+02  0.45594000000E+02  0.51100000000E-03 0.  1.
         11   -1    0    0    0    0 -0.00000000000E+00 -0.00000000000E+00 -0.45593999997E+02  0.45594000000E+02  0.51100000000E-03 0. -1.
    9900012    2    1    2    0    0 -0.45931241264E+00  0.24347020805E+02  0.32560418126E+02  0.50528816307E+02  0.29999867648E+02 0.  0.
         12    1    1    2    0    0  0.45931241264E+00 -0.24347020805E+02 -0.32560418126E+02  0.40659183693E+02  0.00000000000E+00 0. -1.
         11    1    3    3    0    0  0.61458625903E+01  0.11772613939E+02 -0.60314166767E+00  0.13293977812E+02  0.51100000000E-03 0. -1.
        -11    1    3    3    0    0 -0.10329184538E+01 -0.14774385441E+01  0.31440931624E+01  0.36242333339E+01  0.51100000000E-03 0.  1.
        -12    1    3    3    0    0 -0.55722565492E+01  0.14051845411E+02  0.30019466632E+02  0.33610605162E+02  0.00000000000E+00 0.  1.
</event>
<event>
 7    1  0.2432574E-011  0.5052886E+02  0.7816164E-02  0.1300439E+00
        -11   -1    0    0    0    0  0.00000000000E+00  0.00000000000E+00  0.45593999997E+02  0.45594000000E+02  0.51100000000E-03 0.  1.
         11   -1    0    0    0    0 -0.00000000000E+00 -0.00000000000E+00 -0.45593999997E+02  0.45594000000E+02  0.51100000000E-03 0. -1.
    9900012    2    1    2    0    0 -0.21165527517E+02  0.11913470054E+02  0.32607596063E+02  0.50528860255E+02  0.30000001231E+02 0.  0.
         12    1    1    2    0    0  0.21165527517E+02 -0.11913470054E+02 -0.32607596063E+02  0.40659139745E+02  0.00000000000E+00 0. -1.
         11    1    3    3    0    0  0.87996031175E+00  0.57679840440E+01  0.42110964509E+01  0.71956447704E+01  0.51100000000E-03 0. -1.
        -11    1    3    3    0    0 -0.11810093125E+01 -0.22061479344E+01  0.18683257200E+02  0.18850092084E+02  0.51100000000E-03 0.  1.
        -12    1    3    3    0    0 -0.20864478516E+02  0.83516339444E+01  0.97132424123E+01  0.24483123401E+02  0.00000000000E+00 0.  1.
</event>
<event>
 7    1  0.2432574E-011  0.5052885E+02  0.7816164E-02  0.1300439E+00
        -11   -1    0    0    0    0  0.00000000000E+00  0.00000000000E+00  0.45593999997E+02  0.45594000000E+02  0.51100000000E-03 0.  1.
         11   -1    0    0    0    0 -0.00000000000E+00 -0.00000000000E+00 -0.45593999997E+02  0.45594000000E+02  0.51100000000E-03 0. -1.
    9900012    2    1    2    0    0  0.19555246880E+02  0.35617513462E+02 -0.14667275386E+01  0.50528852992E+02  0.29999979154E+02 0.  0.
         12    1    1    2    0    0 -0.19555246880E+02 -0.35617513462E+02  0.14667275386E+01  0.40659147008E+02  0.00000000000E+00 0. -1.
         11    1    3    3    0    0  0.51800529635E+00  0.39811281336E+01 -0.16839108230E+01  0.43535349573E+01  0.51100000000E-03 0. -1.
        -11    1    3    3    0    0  0.85308425007E+01  0.34078588830E+02  0.22372232164E+01  0.35201287738E+02  0.51100000000E-03 0.  1.
        -12    1    3    3    0    0  0.10506399083E+02 -0.24422035014E+01 -0.20200399320E+01  0.10974030297E+02  0.00000000000E+00 0.  1.
</event>
<event>
 7    1  0.2432574E-011  0.5052887E+02  0.7816164E-02  0.1300439E+00
        -11   -1    0    0    0    0  0.00000000000E+00  0.00000000000E+00  0.45593999997E+02  0.45594000000E+02  0.51100000000E-03 0.  1.
         11   -1    0    0    0    0 -0.00000000000E+00 -0.00000000000E+00 -0.45593999997E+02  0.45594000000E+02  0.51100000000E-03 0. -1.
    9900012    2    1    2    0    0  0.29086630387E+02 -0.13819353506E+02  0.24822532296E+02  0.50528871773E+02  0.30000036242E+02 0.  0.
         12    1    1    2    0    0 -0.29086630387E+02  0.13819353506E+02 -0.24822532296E+02  0.40659128227E+02  0.00000000000E+00 0. -1.
         11    1    3    3    0    0  0.74006655477E+01  0.10910628176E+01  0.13613833908E+02  0.15533729190E+02  0.51100000000E-03 0.  1.
        -11    1    3    3    0    0  0.15926114700E+01 -0.12648102459E+02  0.25581168935E+01  0.13002110190E+02  0.51100000000E-03 0. -1.
         12    1    3    3    0    0  0.20093353369E+02 -0.22623138651E+01  0.86505814948E+01  0.21993032393E+02  0.00000000000E+00 0. -1.
</event>
<event>
 7    1  0.2432574E-011  0.5052887E+02  0.7816164E-02  0.1300439E+00
        -11   -1    0    0    0    0  0.00000000000E+00  0.00000000000E+00  0.45593999997E+02  0.45594000000E+02  0.51100000000E-03 0. -1.
         11   -1    0    0    0    0 -0.00000000000E+00 -0.00000000000E+00 -0.45593999997E+02  0.45594000000E+02  0.51100000000E-03 0.  1.
    9900012    2    1    2    0    0 -0.36921292526E+01  0.37458651384E+02  0.15374746256E+02  0.50528865671E+02  0.30000017695E+02 0.  0.
         12    1    1    2    0    0  0.36921292526E+01 -0.37458651384E+02 -0.15374746256E+02  0.40659134329E+02  0.00000000000E+00 0. -1.
         11    1    3    3    0    0  0.32925647453E+01 -0.91663450431E+00 -0.40247365915E+01  0.52801237020E+01  0.51100000000E-03 0. -1.
        -11    1    3    3    0    0  0.27894094804E+01  0.12074121938E+02  0.30037775519E+01  0.12750996262E+02  0.51100000000E-03 0.  1.
        -12    1    3    3    0    0 -0.97741034782E+01  0.26301163949E+02  0.16395705296E+02  0.32497745707E+02  0.00000000000E+00 0.  1.
</event>
<event>
 7    1  0.2432574E-011  0.5052885E+02  0.7816164E-02  0.1300439E+00
        -11   -1    0    0    0    0  0.00000000000E+00  0.00000000000E+00  0.45593999997E+02  0.45594000000E+02  0.51100000000E-03 0.  1.
         11   -1    0    0    0    0 -0.00000000000E+00 -0.00000000000E+00 -0.45593999997E+02  0.45594000000E+02  0.51100000000E-03 0. -1.
    9900012    2    1    2    0    0  0.10417109955E+02 -0.23187705515E+02  0.31732952324E+02  0.50528854288E+02  0.29999983093E+02 0.  0.
         12    1    1    2    0    0 -0.10417109955E+02  0.23187705515E+02 -0.31732952324E+02  0.40659145712E+02  0.00000000000E+00 0. -1.
         11    1    3    3    0    0  0.48805507288E+01 -0.14539020802E+02 -0.79932483454E+00  0.15357142370E+02  0.51100000000E-03 0. -1.
        -11    1    3    3    0    0 -0.96819163933E+00 -0.48761684451E+01  0.72191008537E+01  0.87652627543E+01  0.51100000000E-03 0.  1.
        -12    1    3    3    0    0  0.65047508658E+01 -0.37725162678E+01  0.25313176304E+02  0.26406449164E+02  0.00000000000E+00 0.  1.
</event>
<event>
 7    1  0.2432574E-011  0.5052886E+02  0.7816164E-02  0.1300439E+00
        -11   -1    0    0    0    0  0.00000000000E+00  0.00000000000E+00  0.45593999997E+02  0.45594000000E+02  0.51100000000E-03 0. -1.
         11   -1    0    0    0    0 -0.00000000000E+00 -0.00000000000E+00 -0.45593999997E+02  0.45594000000E+02  0.51100000000E-03 0.  1.
    9900012    2    1    2    0    0 -0.33050045549E+02 -0.23636130721E+02  0.14811343597E+01  0.50528856560E+02  0.29999990001E+02 0.  0.
         12    1    1    2    0    0  0.33050045549E+02  0.23636130721E+02 -0.14811343597E+01  0.40659143440E+02  0.00000000000E+00 0. -1.
         11    1    3    3    0    0  0.58092163313E-01  0.39247092682E+01  0.37496875241E+01  0.54283399238E+01  0.51100000000E-03 0. -1.
        -11    1    3    3    0    0 -0.52855669187E+01 -0.11766277057E+02 -0.23277254318E+01  0.13107280396E+02  0.51100000000E-03 0.  1.
        -12    1    3    3    0    0 -0.27822570794E+02 -0.15794562932E+02  0.59172267450E-01  0.31993236241E+02  0.00000000000E+00 0.  1.
</event>
<event>
 7    1  0.2432574E-011  0.5052886E+02  0.7816164E-02  0.1300439E+00
        -11   -1    0    0    0    0  0.00000000000E+00  0.00000000000E+00  0.45593999997E+02  0.45594000000E+02  0.51100000000E-03 0.  1.
         11   -1    0    0    0    0 -0.00000000000E+00 -0.00000000000E+00 -0.45593999997E+02  0.45594000000E+02  0.51100000000E-03 0. -1.
    9900012    2    1    2    0    0  0.95630782227E+00  0.86209259589E+01  0.39723180458E+02  0.50528856444E+02  0.29999989646E+02 0.  0.
         12    1    1    2    0    0 -0.95630782227E+00 -0.86209259589E+01 -0.39723180458E+02  0.40659143556E+02  0.00000000000E+00 0. -1.
         11    1    3    3    0    0  0.14822498821E+01 -0.25160139412E+00 -0.47877515617E+00  0.15778446964E+01  0.51100000000E-03 0. -1.
        -11    1    3    3    0    0  0.61570571956E+01  0.16543390362E+02  0.27485285998E+02  0.32665487363E+02  0.51100000000E-03 0.  1.
         12    1    3    3    0    0 -0.66829992555E+01 -0.76708630094E+01  0.12716669616E+02  0.16285524385E+02  0.00000000000E+00 0. -1.
</event>
<event>
 7    1  0.2432574E-011  0.5052886E+02  0.7816164E-02  0.1300439E+00
        -11   -1    0    0    0    0  0.00000000000E+00  0.00000000000E+00  0.45593999997E+02  0.45594000000E+02  0.51100000000E-03 0.  1.
         11   -1    0    0    0    0 -0.00000000000E+00 -0.00000000000E+00 -0.45593999997E+02  0.45594000000E+02  0.51100000000E-03 0. -1.
    9900012    2    1    2    0    0  0.32921197283E+02 -0.18401533535E+02  0.15190255093E+02  0.50528861829E+02  0.30000006017E+02 0.  0.
         12    1    1    2    0    0 -0.32921197283E+02  0.18401533535E+02 -0.15190255093E+02  0.40659138171E+02  0.00000000000E+00 0. -1.
         11    1    3    3    0    0  0.44167012650E+00  0.39040960080E+01  0.28910367740E+00  0.39396217252E+01  0.51100000000E-03 0. -1.
        -11    1    3    3    0    0  0.18477117161E+02 -0.18371197314E+02  0.41180112867E+00  0.26059054660E+02  0.51100000000E-03 0.  1.
         12    1    3    3    0    0  0.14002409995E+02 -0.39344322285E+01  0.14489350287E+02  0.20530185444E+02  0.00000000000E+00 0. -1.
</event>
<event>
 7    1  0.2432574E-011  0.5052885E+02  0.7816164E-02  0.1300439E+00
        -11   -1    0    0    0    0  0.00000000000E+00  0.00000000000E+00  0.45593999997E+02  0.45594000000E+02  0.51100000000E-03 0.  1.
         11   -1    0    0    0    0 -0.00000000000E+00 -0.00000000000E+00 -0.45593999997E+02  0.45594000000E+02  0.51100000000E-03 0. -1.
    9900012    2    1    2    0    0 -0.39651553218E+02  0.57222430896E+01  0.69409237506E+01  0.50528853906E+02  0.29999981933E+02 0.  0.
         12    1    1    2    0    0  0.39651553218E+02 -0.57222430896E+01 -0.69409237506E+01  0.40659146094E+02  0.00000000000E+00 0. -1.
         11    1    3    3    0    0  0.27394817535E+01 -0.17638731783E+01 -0.12104466802E+00  0.32604694355E+01  0.51100000000E-03 0. -1.
        -11    1    3    3    0    0 -0.34517545227E+02  0.49388900180E+01  0.12859037470E+02  0.37164612308E+02  0.51100000000E-03 0.  1.
         12    1    3    3    0    0 -0.78734897447E+01  0.25472262499E+01 -0.57970690513E+01  0.10103772163E+02  0.00000000000E+00 0. -1.
</event>
<event>
 7    1  0.2432574E-011  0.5052884E+02  0.7816164E-02  0.1300439E+00
        -11   -1    0    0    0    0  0.00000000000E+00  0.00000000000E+00  0.45593999997E+02  0.45594000000E+02  0.51100000000E-03 0.  1.
         11   -1    0    0    0    0 -0.00000000000E+00 -0.00000000000E+00 -0.45593999997E+02  0.45594000000E+02  0.51100000000E-03 0. -1.
    9900012    2    1    2    0    0 -0.38505630295E+02  0.68846322243E+01 -0.11094408263E+02  0.50528835966E+02  0.29999927402E+02 0.  0.
         12    1    1    2    0    0  0.38505630295E+02 -0.68846322243E+01  0.11094408263E+02  0.40659164034E+02  0.00000000000E+00 0. -1.
         11    1    3    3    0    0 -0.22693185132E+02  0.11968708703E+02 -0.91238006967E+01  0.27230027155E+02  0.51100000000E-03 0. -1.
        -11    1    3    3    0    0 -0.14806629677E+02 -0.17316153667E+01  0.48131851929E+01  0.15665296873E+02  0.51100000000E-03 0.  1.
         12    1    3    3    0    0 -0.10058154858E+01 -0.33524611119E+01 -0.67837927594E+01  0.76335119375E+01  0.00000000000E+00 0. -1.
</event>
<event>
 7    1  0.2432574E-011  0.5052887E+02  0.7816164E-02  0.1300439E+00
        -11   -1    0    0    0    0  0.00000000000E+00  0.00000000000E+00  0.45593999997E+02  0.45594000000E+02  0.51100000000E-03 0. -1.
         11   -1    0    0    0    0 -0.00000000000E+00 -0.00000000000E+00 -0.45593999997E+02  0.45594000000E+02  0.51100000000E-03 0.  1.
    9900012    2    1    2    0    0  0.21830570601E+02 -0.30872052993E+02  0.14950176249E+02  0.50528865250E+02  0.30000016414E+02 0.  0.
         12    1    1    2    0    0 -0.21830570601E+02  0.30872052993E+02 -0.14950176249E+02  0.40659134750E+02  0.00000000000E+00 0. -1.
         11    1    3    3    0    0  0.14719240515E+02 -0.12675517470E+02 -0.48999942913E+01  0.20033340430E+02  0.51100000000E-03 0. -1.
        -11    1    3    3    0    0 -0.67031511947E+00 -0.58008134773E+01  0.79026738101E-02  0.58394196690E+01  0.51100000000E-03 0.  1.
        -12    1    3    3    0    0  0.77816452049E+01 -0.12395722046E+02  0.19842267866E+02  0.24656105151E+02  0.00000000000E+00 0.  1.
</event>
<event>
 7    1  0.2432574E-011  0.5052886E+02  0.7816164E-02  0.1300439E+00
        -11   -1    0    0    0    0  0.00000000000E+00  0.00000000000E+00  0.45593999997E+02  0.45594000000E+02  0.51100000000E-03 0.  1.
         11   -1    0    0    0    0 -0.00000000000E+00 -0.00000000000E+00 -0.45593999997E+02  0.45594000000E+02  0.51100000000E-03 0. -1.
    9900012    2    1    2    0    0 -0.15973468993E+02  0.50047823526E+01  0.37053554600E+02  0.50528862447E+02  0.30000007894E+02 0.  0.
         12    1    1    2    0    0  0.15973468993E+02 -0.50047823526E+01 -0.37053554600E+02  0.40659137553E+02  0.00000000000E+00 0. -1.
         11    1    3    3    0    0 -0.99642235372E+01  0.10097917587E+02  0.10254047920E+02  0.17504262032E+02  0.51100000000E-03 0. -1.
        -11    1    3    3    0    0 -0.54664006364E+01  0.41714769579E+00  0.26933725111E+02  0.27486016385E+02  0.51100000000E-03 0.  1.
        -12    1    3    3    0    0 -0.54284481962E+00 -0.55102829299E+01 -0.13421843113E+00  0.55385840296E+01  0.00000000000E+00 0.  1.
</event>
<event>
 7    1  0.2432574E-011  0.5052887E+02  0.7816164E-02  0.1300439E+00
        -11   -1    0    0    0    0  0.00000000000E+00  0.00000000000E+00  0.45593999997E+02  0.45594000000E+02  0.51100000000E-03 0.  1.
         11   -1    0    0    0    0 -0.00000000000E+00 -0.00000000000E+00 -0.45593999997E+02  0.45594000000E+02  0.51100000000E-03 0. -1.
    9900012    2    1    2    0    0  0.35580346003E+02 -0.18958383752E+02  0.52710247608E+01  0.50528867715E+02  0.30000023906E+02 0.  0.
         12    1    1    2    0    0 -0.35580346003E+02  0.18958383752E+02 -0.52710247608E+01  0.40659132285E+02  0.00000000000E+00 0. -1.
         11    1    3    3    0    0 -0.98007713423E+00 -0.11853193938E+01  0.78536353732E+01  0.80028196338E+01  0.51100000000E-03 0. -1.
        -11    1    3    3    0    0  0.75915107419E+01  0.12387479798E+01  0.68286756917E+00  0.77221655175E+01  0.51100000000E-03 0.  1.
         12    1    3    3    0    0  0.28968912395E+02 -0.19011812338E+02 -0.32654781816E+01  0.34803882563E+02  0.00000000000E+00 0. -1.
</event>
<event>
 7    1  0.2432574E-011  0.5052886E+02  0.7816164E-02  0.1300439E+00
        -11   -1    0    0    0    0  0.00000000000E+00  0.00000000000E+00  0.45593999997E+02  0.45594000000E+02  0.51100000000E-03 0.  1.
         11   -1    0    0    0    0 -0.00000000000E+00 -0.00000000000E+00 -0.45593999997E+02  0.45594000000E+02  0.51100000000E-03 0. -1.
    9900012    2    1    2    0    0  0.36515973710E+02  0.17824059301E+02  0.14325209123E+01  0.50528861518E+02  0.30000005070E+02 0.  0.
         12    1    1    2    0    0 -0.36515973710E+02 -0.17824059301E+02 -0.14325209123E+01  0.40659138482E+02  0.00000000000E+00 0. -1.
         11    1    3    3    0    0  0.23942976302E+02 -0.40276799194E+01 -0.26027757979E+01  0.24418492211E+02  0.51100000000E-03 0. -1.
        -11    1    3    3    0    0  0.57044390946E+01  0.50350278301E+01  0.69360049608E+00  0.76402364193E+01  0.51100000000E-03 0.  1.
         12    1    3    3    0    0  0.68685583128E+01  0.16816711391E+02  0.33416962141E+01  0.18470132887E+02  0.00000000000E+00 0. -1.
</event>
<event>
 7    1  0.2432574E-011  0.5052886E+02  0.7816164E-02  0.1300439E+00
        -11   -1    0    0    0    0  0.00000000000E+00  0.00000000000E+00  0.45593999997E+02  0.45594000000E+02  0.51100000000E-03 0. -1.
         11   -1    0    0    0    0 -0.00000000000E+00 -0.00000000000E+00 -0.45593999997E+02  0.45594000000E+02  0.51100000000E-03 0.  1.
    9900012    2    1    2    0    0  0.17271011148E+02  0.57520185525E+01 -0.36356457988E+02  0.50528861040E+02  0.30000003617E+02 0.  0.
         12    1    1    2    0    0 -0.17271011148E+02 -0.57520185525E+01  0.36356457988E+02  0.40659138960E+02  0.00000000000E+00 0. -1.
         11    1    3    3    0    0  0.38750139402E+01 -0.28439261526E+01  0.35130736105E+01  0.59535985297E+01  0.51100000000E-03 0. -1.
        -11    1    3    3    0    0  0.69316897179E+01  0.76247389010E+01 -0.11409025704E+02  0.15373705911E+02  0.51100000000E-03 0.  1.
        -12    1    3    3    0    0  0.64643074901E+01  0.97120580414E+00 -0.28460505895E+02  0.29201556599E+02  0.00000000000E+00 0.  1.
</event>
<event>
 7    1  0.2432574E-011  0.5052885E+02  0.7816164E-02  0.1300439E+00
        -11   -1    0    0    0    0  0.00000000000E+00  0.00000000000E+00  0.45593999997E+02  0.45594000000E+02  0.51100000000E-03 0.  1.
         11   -1    0    0    0    0 -0.00000000000E+00 -0.00000000000E+00 -0.45593999997E+02  0.45594000000E+02  0.51100000000E-03 0. -1.
    9900012    2    1    2    0    0 -0.27156658254E+02  0.14991571206E+02  0.26285639700E+02  0.50528854053E+02  0.29999982378E+02 0.  0.
         12    1    1    2    0    0  0.27156658254E+02 -0.14991571206E+02 -0.26285639700E+02  0.40659145947E+02  0.00000000000E+00 0. -1.
         11    1    3    3    0    0 -0.13094338133E+02  0.16001638356E+01  0.29008770705E+01  0.13506935384E+02  0.51100000000E-03 0. -1.
        -11    1    3    3    0    0 -0.38302323014E+01 -0.52576966594E+01  0.98675841820E+01  0.11818767765E+02  0.51100000000E-03 0.  1.
         12    1    3    3    0    0 -0.10232087820E+02  0.18649104029E+02  0.13517178448E+02  0.25203150903E+02  0.00000000000E+00 0. -1.
</event>
<event>
 7    1  0.2432574E-011  0.5052885E+02  0.7816164E-02  0.1300439E+00
        -11   -1    0    0    0    0  0.00000000000E+00  0.00000000000E+00  0.45593999997E+02  0.45594000000E+02  0.51100000000E-03 0.  1.
         11   -1    0    0    0    0 -0.00000000000E+00 -0.00000000000E+00 -0.45593999997E+02  0.45594000000E+02  0.51100000000E-03 0. -1.
    9900012    2    1    2    0    0  0.23677950467E+02  0.31024278111E+01  0.32907389656E+02  0.50528847394E+02  0.29999962139E+02 0.  0.
         12    1    1    2    0    0 -0.23677950467E+02 -0.31024278111E+01 -0.32907389656E+02  0.40659152606E+02  0.00000000000E+00 0. -1.
         11    1    3    3    0    0  0.50173520418E+01  0.17422333944E+01 -0.31648455089E+01  0.61826730521E+01  0.51100000000E-03 0. -1.
        -11    1    3    3    0    0  0.17162584659E+02  0.62044591145E+01  0.18220560207E+02  0.25788339218E+02  0.51100000000E-03 0.  1.
        -12    1    3    3    0    0  0.14980137661E+01 -0.48442646978E+01  0.17851674958E+02  0.18557835124E+02  0.00000000000E+00 0.  1.
</event>
<event>
 7    1  0.2722537E-011  0.5052886E+02  0.7816164E-02  0.1300439E+00
        -11   -1    0    0    0    0  0.00000000000E+00  0.00000000000E+00  0.45593999997E+02  0.45594000000E+02  0.51100000000E-03 0. -1.
         11   -1    0    0    0    0 -0.00000000000E+00 -0.00000000000E+00 -0.45593999997E+02  0.45594000000E+02  0.51100000000E-03 0.  1.
    9900012    2    1    2    0    0 -0.54914828782E+01  0.30074095398E+02 -0.26805940817E+02  0.50528855134E+02  0.29999985664E+02 0.  0.
         12    1    1    2    0    0  0.54914828782E+01 -0.30074095398E+02  0.26805940817E+02  0.40659144866E+02  0.00000000000E+00 0. -1.
         11    1    3    3    0    0  0.63739885078E+01  0.74523373058E+00 -0.22274796294E+01  0.67929940800E+01  0.51100000000E-03 0. -1.
        -11    1    3    3    0    0 -0.21949282539E+00  0.20647616058E+02 -0.92745006398E+01  0.22636002040E+02  0.51100000000E-03 0.  1.
        -12    1    3    3    0    0 -0.11645978561E+02  0.86812456094E+01 -0.15303960548E+02  0.21099859014E+02  0.00000000000E+00 0.  1.
</event>
<event>
 7    1  0.2432574E-011  0.5052886E+02  0.7816164E-02  0.1300439E+00
        -11   -1    0    0    0    0  0.00000000000E+00  0.00000000000E+00  0.45593999997E+02  0.45594000000E+02  0.51100000000E-03 0.  1.
         11   -1    0    0    0    0 -0.00000000000E+00 -0.00000000000E+00 -0.45593999997E+02  0.45594000000E+02  0.51100000000E-03 0. -1.
    9900012    2    1    2    0    0  0.13096837644E+02 -0.26623230840E+02  0.27800034719E+02  0.50528861950E+02  0.30000006383E+02 0.  0.
         12    1    1    2    0    0 -0.13096837644E+02  0.26623230840E+02 -0.27800034719E+02  0.40659138050E+02  0.00000000000E+00 0. -1.
         11    1    3    3    0    0  0.14581907977E+02 -0.19819337726E+02  0.17894094201E+02  0.30424279707E+02  0.51100000000E-03 0. -1.
        -11    1    3    3    0    0  0.50573587391E+01 -0.67630105815E+01  0.10569070857E+02  0.13528505039E+02  0.51100000000E-03 0.  1.
         12    1    3    3    0    0 -0.65424290722E+01 -0.40882532181E-01 -0.66313033989E+00  0.65760772041E+01  0.00000000000E+00 0. -1.
</event>
<event>
 7    1  0.2432574E-011  0.5052885E+02  0.7816164E-02  0.1300439E+00
        -11   -1    0    0    0    0  0.00000000000E+00  0.00000000000E+00  0.45593999997E+02  0.45594000000E+02  0.51100000000E-03 0.  1.
         11   -1    0    0    0    0 -0.00000000000E+00 -0.00000000000E+00 -0.45593999997E+02  0.45594000000E+02  0.51100000000E-03 0. -1.
    9900012    2    1    2    0    0  0.92984421804E+01 -0.92018259993E+01  0.38497168134E+02  0.50528848717E+02  0.29999966161E+02 0.  0.
         12    1    1    2    0    0 -0.92984421804E+01  0.92018259993E+01 -0.38497168134E+02  0.40659151283E+02  0.00000000000E+00 0. -1.
         11    1    3    3    0    0  0.14527592750E+02 -0.12314637788E+01  0.24921166733E+02  0.28872686154E+02  0.51100000000E-03 0. -1.
        -11    1    3    3    0    0  0.33685982213E+01 -0.59898775222E+01  0.21104770310E+01  0.71888942312E+01  0.51100000000E-03 0.  1.
        -12    1    3    3    0    0 -0.85977487912E+01 -0.19804846983E+01  0.11465524370E+02  0.14467268332E+02  0.00000000000E+00 0.  1.
</event>
<event>
 7    1  0.2432574E-011  0.5052886E+02  0.7816164E-02  0.1300439E+00
        -11   -1    0    0    0    0  0.00000000000E+00  0.00000000000E+00  0.45593999997E+02  0.45594000000E+02  0.51100000000E-03 0.  1.
         11   -1    0    0    0    0 -0.00000000000E+00 -0.00000000000E+00 -0.45593999997E+02  0.45594000000E+02  0.51100000000E-03 0. -1.
    9900012    2    1    2    0    0 -0.10806579599E+02  0.37272542864E+02  0.12130154497E+02  0.50528864958E+02  0.30000015528E+02 0.  0.
         12    1    1    2    0    0  0.10806579599E+02 -0.37272542864E+02 -0.12130154497E+02  0.40659135042E+02  0.00000000000E+00 0. -1.
         11    1    3    3    0    0 -0.94296340166E+01  0.24605543643E+02  0.16272535495E+02  0.30970085362E+02  0.51100000000E-03 0.  1.
        -11    1    3    3    0    0 -0.71991201644E+01  0.63850472662E+01  0.82414911786E+00  0.96579180863E+01  0.51100000000E-03 0. -1.
        -12    1    3    3    0    0  0.58221745823E+01  0.62819519554E+01 -0.49665301164E+01  0.99008615097E+01  0.00000000000E+00 0.  1.
</event>
<event>
 7    1  0.2432574E-011  0.5052886E+02  0.7816164E-02  0.1300439E+00
        -11   -1    0    0    0    0  0.00000000000E+00  0.00000000000E+00  0.45593999997E+02  0.45594000000E+02  0.51100000000E-03 0. -1.
         11   -1    0    0    0    0 -0.00000000000E+00 -0.00000000000E+00 -0.45593999997E+02  0.45594000000E+02  0.51100000000E-03 0.  1.
    9900012    2    1    2    0    0  0.34865828509E+02 -0.17591758292E+02 -0.11316775738E+02  0.50528863628E+02  0.30000011484E+02 0.  0.
         12    1    1    2    0    0 -0.34865828509E+02  0.17591758292E+02  0.11316775738E+02  0.40659136372E+02  0.00000000000E+00 0. -1.
         11    1    3    3    0    0  0.72915316518E+01 -0.21890584523E+01  0.45275623757E+01  0.88576087103E+01  0.51100000000E-03 0. -1.
        -11    1    3    3    0    0  0.45608483509E+01  0.37574723140E+01 -0.93006415074E+01  0.11019159159E+02  0.51100000000E-03 0.  1.
        -12    1    3    3    0    0  0.23013448506E+02 -0.19160172153E+02 -0.65436966067E+01  0.30652095758E+02  0.00000000000E+00 0.  1.
</event>
<event>
 7    1  0.2432574E-011  0.5052887E+02  0.7816164E-02  0.1300439E+00
        -11   -1    0    0    0    0  0.00000000000E+00  0.00000000000E+00  0.45593999997E+02  0.45594000000E+02  0.51100000000E-03 0. -1.
         11   -1    0    0    0    0 -0.00000000000E+00 -0.00000000000E+00 -0.45593999997E+02  0.45594000000E+02  0.51100000000E-03 0.  1.
    9900012    2    1    2    0    0 -0.29754069059E+02 -0.10834638356E+02 -0.25504325358E+02  0.50528872785E+02  0.30000039319E+02 0.  0.
         12    1    1    2    0    0  0.29754069059E+02  0.10834638356E+02  0.25504325358E+02  0.40659127215E+02  0.00000000000E+00 0. -1.
         11    1    3    3    0    0  0.12269883255E+01 -0.82322982816E+00  0.18665042874E+01  0.23805558630E+01  0.51100000000E-03 0. -1.
        -11    1    3    3    0    0 -0.13505611742E+02 -0.12789891844E+02 -0.43320458459E+01  0.19098416253E+02  0.51100000000E-03 0.  1.
         12    1    3    3    0    0 -0.17475445643E+02  0.27784833160E+01 -0.23038783800E+02  0.29049900670E+02  0.00000000000E+00 0. -1.
</event>
<event>
 7    1  0.2432574E-011  0.5052885E+02  0.7816164E-02  0.1300439E+00
        -11   -1    0    0    0    0  0.00000000000E+00  0.00000000000E+00  0.45593999997E+02  0.45594000000E+02  0.51100000000E-03 0.  1.
         11   -1    0    0    0    0 -0.00000000000E+00 -0.00000000000E+00 -0.45593999997E+02  0.45594000000E+02  0.51100000000E-03 0. -1.
    9900012    2    1    2    0    0  0.24776908718E+02 -0.15597022934E+02  0.28213539363E+02  0.50528854246E+02  0.29999982967E+02 0.  0.
         12    1    1    2    0    0 -0.24776908718E+02  0.15597022934E+02 -0.28213539363E+02  0.40659145754E+02  0.00000000000E+00 0. -1.
         11    1    3    3    0    0 -0.32506710676E+01 -0.38389941232E+01  0.15093149823E+01  0.52519301447E+01  0.51100000000E-03 0. -1.
        -11    1    3    3    0    0 -0.31767969968E+01 -0.70047843694E-01  0.16037270965E+01  0.35593379609E+01  0.51100000000E-03 0.  1.
        -12    1    3    3    0    0  0.31204376782E+02 -0.11687980967E+02  0.25100497284E+02  0.41717586141E+02  0.00000000000E+00 0.  1.
</event>
<event>
 7    1  0.2432574E-011  0.5052886E+02  0.7816164E-02  0.1300439E+00
        -11   -1    0    0    0    0  0.00000000000E+00  0.00000000000E+00  0.45593999997E+02  0.45594000000E+02  0.51100000000E-03 0. -1.
         11   -1    0    0    0    0 -0.00000000000E+00 -0.00000000000E+00 -0.45593999997E+02  0.45594000000E+02  0.51100000000E-03 0.  1.
    9900012    2    1    2    0    0  0.15756672262E+02 -0.20403212164E+02 -0.31442040932E+02  0.50528859264E+02  0.29999998220E+02 0.  0.
         12    1    1    2    0    0 -0.15756672262E+02  0.20403212164E+02  0.31442040932E+02  0.40659140736E+02  0.00000000000E+00 0. -1.
         11    1    3    3    0    0  0.16045872273E+02 -0.10678022830E+02 -0.12390315894E+02  0.22913099239E+02  0.51100000000E-03 0. -1.
        -11    1    3    3    0    0 -0.38865090788E+00  0.42827266437E+01 -0.10136991310E+02  0.11011420894E+02  0.51100000000E-03 0.  1.
         12    1    3    3    0    0  0.99450896937E-01 -0.14007915978E+02 -0.89147337288E+01  0.16604339131E+02  0.00000000000E+00 0. -1.
</event>
<event>
 7    1  0.2432574E-011  0.5052886E+02  0.7816164E-02  0.1300439E+00
        -11   -1    0    0    0    0  0.00000000000E+00  0.00000000000E+00  0.45593999997E+02  0.45594000000E+02  0.51100000000E-03 0. -1.
         11   -1    0    0    0    0 -0.00000000000E+00 -0.00000000000E+00 -0.45593999997E+02  0.45594000000E+02  0.51100000000E-03 0.  1.
    9900012    2    1    2    0    0 -0.11878767115E+00 -0.38389601720E+02 -0.13393663240E+02  0.50528857784E+02  0.29999993720E+02 0.  0.
         12    1    1    2    0    0  0.11878767115E+00  0.38389601720E+02  0.13393663240E+02  0.40659142216E+02  0.00000000000E+00 0. -1.
         11    1    3    3    0    0 -0.16543298574E+01 -0.19629678679E+02  0.53894344841E+01  0.20423199961E+02  0.51100000000E-03 0. -1.
        -11    1    3    3    0    0  0.56833703411E+00 -0.16468063309E+02 -0.67311759254E+01  0.17799686675E+02  0.51100000000E-03 0.  1.
         12    1    3    3    0    0  0.96720515215E+00 -0.22918597317E+01 -0.12051921799E+02  0.12305971148E+02  0.00000000000E+00 0. -1.
</event>
<event>
 7    1  0.2432574E-011  0.5052886E+02  0.7816164E-02  0.1300439E+00
        -11   -1    0    0    0    0  0.00000000000E+00  0.00000000000E+00  0.45593999997E+02  0.45594000000E+02  0.51100000000E-03 0.  1.
         11   -1    0    0    0    0 -0.00000000000E+00 -0.00000000000E+00 -0.45593999997E+02  0.45594000000E+02  0.51100000000E-03 0. -1.
    9900012    2    1    2    0    0 -0.81724932049E+01  0.32646635504E+02 -0.22816078819E+02  0.50528857023E+02  0.29999991408E+02 0.  0.
         12    1    1    2    0    0  0.81724932049E+01 -0.32646635504E+02  0.22816078819E+02  0.40659142977E+02  0.00000000000E+00 0. -1.
         11    1    3    3    0    0 -0.62858804986E+01  0.81086695498E+00 -0.10280545897E+02  0.12077227458E+02  0.51100000000E-03 0. -1.
        -11    1    3    3    0    0  0.54557957148E+01  0.45083851802E+01 -0.63018861535E+01  0.94765506999E+01  0.51100000000E-03 0.  1.
         12    1    3    3    0    0 -0.73424084211E+01  0.27327383369E+02 -0.62336467683E+01  0.28975078865E+02  0.00000000000E+00 0. -1.
</event>
<event>
 7    1  0.2432574E-011  0.5052886E+02  0.7816164E-02  0.1300439E+00
        -11   -1    0    0    0    0  0.00000000000E+00  0.00000000000E+00  0.45593999997E+02  0.45594000000E+02  0.51100000000E-03 0.  1.
         11   -1    0    0    0    0 -0.00000000000E+00 -0.00000000000E+00 -0.45593999997E+02  0.45594000000E+02  0.51100000000E-03 0. -1.
    9900012    2    1    2    0    0 -0.22188809852E+02 -0.11161137664E+02  0.32190864574E+02  0.50528855412E+02  0.29999986511E+02 0.  0.
         12    1    1    2    0    0  0.22188809852E+02  0.11161137664E+02 -0.32190864574E+02  0.40659144588E+02  0.00000000000E+00 0. -1.
         11    1    3    3    0    0 -0.13653688152E+02 -0.42650864446E+01  0.13102426593E+02  0.19398137679E+02  0.51100000000E-03 0.  1.
        -11    1    3    3    0    0 -0.68853273084E+01 -0.93589883875E+01 -0.19523103468E+00  0.11620521124E+02  0.51100000000E-03 0. -1.
         12    1    3    3    0    0 -0.16497943911E+01  0.24629371678E+01  0.19283669015E+02  0.19510196609E+02  0.00000000000E+00 0. -1.
</event>
<event>
 7    1  0.2432574E-011  0.5052885E+02  0.7816164E-02  0.1300439E+00
        -11   -1    0    0    0    0  0.00000000000E+00  0.00000000000E+00  0.45593999997E+02  0.45594000000E+02  0.51100000000E-03 0.  1.
         11   -1    0    0    0    0 -0.00000000000E+00 -0.00000000000E+00 -0.45593999997E+02  0.45594000000E+02  0.51100000000E-03 0. -1.
    9900012    2    1    2    0    0  0.35494530998E+01 -0.35008837631E+02  0.20370298129E+02  0.50528851270E+02  0.29999973920E+02 0.  0.
         12    1    1    2    0    0 -0.35494530998E+01  0.35008837631E+02 -0.20370298129E+02  0.40659148730E+02  0.00000000000E+00 0. -1.
         11    1    3    3    0    0  0.63658858931E+01 -0.34173265493E+01  0.13768752763E+01  0.73551621149E+01  0.51100000000E-03 0. -1.
        -11    1    3    3    0    0  0.11834467757E+01 -0.31641361658E+02  0.97962756979E+01  0.33144280527E+02  0.51100000000E-03 0.  1.
         12    1    3    3    0    0 -0.39998795690E+01  0.49850575689E-01  0.91971471547E+01  0.10029408628E+02  0.00000000000E+00 0. -1.
</event>
<event>
 7    1  0.2432574E-011  0.5052886E+02  0.7816164E-02  0.1300439E+00
        -11   -1    0    0    0    0  0.00000000000E+00  0.00000000000E+00  0.45593999997E+02  0.45594000000E+02  0.51100000000E-03 0.  1.
         11   -1    0    0    0    0 -0.00000000000E+00 -0.00000000000E+00 -0.45593999997E+02  0.45594000000E+02  0.51100000000E-03 0. -1.
    9900012    2    1    2    0    0  0.21421557991E+02  0.24797955642E+01  0.34469304735E+02  0.50528862014E+02  0.30000006578E+02 0.  0.
         12    1    1    2    0    0 -0.21421557991E+02 -0.24797955642E+01 -0.34469304735E+02  0.40659137986E+02  0.00000000000E+00 0. -1.
         11    1    3    3    0    0  0.85891649117E+01 -0.23162323338E+01 -0.39682744242E+00  0.89048390431E+01  0.51100000000E-03 0. -1.
        -11    1    3    3    0    0  0.14459544253E+02 -0.63790745293E-01  0.13959923614E+02  0.20098804861E+02  0.51100000000E-03 0.  1.
        -12    1    3    3    0    0 -0.16271511733E+01  0.48598186433E+01  0.20906208564E+02  0.21525218110E+02  0.00000000000E+00 0.  1.
</event>
<event>
 7    1  0.2432574E-011  0.5052886E+02  0.7816164E-02  0.1300439E+00
        -11   -1    0    0    0    0  0.00000000000E+00  0.00000000000E+00  0.45593999997E+02  0.45594000000E+02  0.51100000000E-03 0.  1.
         11   -1    0    0    0    0 -0.00000000000E+00 -0.00000000000E+00 -0.45593999997E+02  0.45594000000E+02  0.51100000000E-03 0. -1.
    9900012    2    1    2    0    0 -0.33118647909E+02  0.10276045738E+01  0.23564064650E+02  0.50528856461E+02  0.29999989700E+02 0.  0.
         12    1    1    2    0    0  0.33118647909E+02 -0.10276045738E+01 -0.23564064650E+02  0.40659143539E+02  0.00000000000E+00 0. -1.
         11    1    3    3    0    0 -0.62869916242E+01  0.11095447667E+02  0.36985945781E+01  0.13278359264E+02  0.51100000000E-03 0. -1.
        -11    1    3    3    0    0 -0.21129305483E+02 -0.18813818073E+01  0.15918408298E+02  0.26521366305E+02  0.51100000000E-03 0.  1.
        -12    1    3    3    0    0 -0.57023508017E+01 -0.81864612863E+01  0.39470617739E+01  0.10729130892E+02  0.00000000000E+00 0.  1.
</event>
<event>
 7    1  0.2432574E-011  0.5052886E+02  0.7816164E-02  0.1300439E+00
        -11   -1    0    0    0    0  0.00000000000E+00  0.00000000000E+00  0.45593999997E+02  0.45594000000E+02  0.51100000000E-03 0.  1.
         11   -1    0    0    0    0 -0.00000000000E+00 -0.00000000000E+00 -0.45593999997E+02  0.45594000000E+02  0.51100000000E-03 0. -1.
    9900012    2    1    2    0    0  0.19738253048E+02  0.72429379341E+01  0.34800964230E+02  0.50528857183E+02  0.29999991893E+02 0.  0.
         12    1    1    2    0    0 -0.19738253048E+02 -0.72429379341E+01 -0.34800964230E+02  0.40659142817E+02  0.00000000000E+00 0. -1.
         11    1    3    3    0    0 -0.23850845218E+01  0.18795063437E+01  0.11129027894E+02  0.11535875970E+02  0.51100000000E-03 0.  1.
        -11    1    3    3    0    0  0.13564649851E+02 -0.44642342889E+01  0.21456118376E+02  0.25773904039E+02  0.51100000000E-03 0. -1.
         12    1    3    3    0    0  0.85586877186E+01  0.98276658794E+01  0.22158179597E+01  0.13219077174E+02  0.00000000000E+00 0. -1.
</event>
<event>
 7    1  0.2432574E-011  0.5052885E+02  0.7816164E-02  0.1300439E+00
        -11   -1    0    0    0    0  0.00000000000E+00  0.00000000000E+00  0.45593999997E+02  0.45594000000E+02  0.51100000000E-03 0.  1.
         11   -1    0    0    0    0 -0.00000000000E+00 -0.00000000000E+00 -0.45593999997E+02  0.45594000000E+02  0.51100000000E-03 0. -1.
    9900012    2    1    2    0    0 -0.89763782869E+01  0.12786765150E+02  0.37537842038E+02  0.50528852013E+02  0.29999976177E+02 0.  0.
         12    1    1    2    0    0  0.89763782869E+01 -0.12786765150E+02 -0.37537842038E+02  0.40659147987E+02  0.00000000000E+00 0. -1.
         11    1    3    3    0    0 -0.26127625229E+01  0.38805596593E+01 -0.23061270401E+01  0.52156968333E+01  0.51100000000E-03 0. -1.
        -11    1    3    3    0    0 -0.13167945837E+01 -0.36428691822E+01  0.24726211965E+02  0.25027784605E+02  0.51100000000E-03 0.  1.
         12    1    3    3    0    0 -0.50468211802E+01  0.12549074673E+02  0.15117757114E+02  0.20285370574E+02  0.00000000000E+00 0. -1.
</event>
<event>
 7    1  0.2432574E-011  0.5052884E+02  0.7816164E-02  0.1300439E+00
        -11   -1    0    0    0    0  0.00000000000E+00  0.00000000000E+00  0.45593999997E+02  0.45594000000E+02  0.51100000000E-03 0.  1.
         11   -1    0    0    0    0 -0.00000000000E+00 -0.00000000000E+00 -0.45593999997E+02  0.45594000000E+02  0.51100000000E-03 0. -1.
    9900012    2    1    2    0    0 -0.35380101740E+02  0.65710038112E+01  0.18927161198E+02  0.50528842099E+02  0.29999946043E+02 0.  0.
         12    1    1    2    0    0  0.35380101740E+02 -0.65710038112E+01 -0.18927161198E+02  0.40659157901E+02  0.00000000000E+00 0. -1.
         11    1    3    3    0    0 -0.34923936638E+01  0.12644543761E+02  0.75696325013E+01  0.15145317326E+02  0.51100000000E-03 0. -1.
        -11    1    3    3    0    0 -0.31267940945E+00 -0.29388012532E-01 -0.91879940685E+00  0.97099159601E+00  0.51100000000E-03 0.  1.
        -12    1    3    3    0    0 -0.31575028667E+02 -0.60441519373E+01  0.12276328104E+02  0.34412533177E+02  0.00000000000E+00 0.  1.
</event>
<event>
 7    1  0.2432574E-011  0.5052886E+02  0.7816164E-02  0.1300439E+00
        -11   -1    0    0    0    0  0.00000000000E+00  0.00000000000E+00  0.45593999997E+02  0.45594000000E+02  0.51100000000E-03 0.  1.
         11   -1    0    0    0    0 -0.00000000000E+00 -0.00000000000E+00 -0.45593999997E+02  0.45594000000E+02  0.51100000000E-03 0. -1.
    9900012    2    1    2    0    0 -0.20200556091E+02  0.19949879891E+02  0.29105075315E+02  0.50528861014E+02  0.30000003537E+02 0.  0.
         12    1    1    2    0    0  0.20200556091E+02 -0.19949879891E+02 -0.29105075315E+02  0.40659138986E+02  0.00000000000E+00 0. -1.
         11    1    3    3    0    0 -0.19265047180E+02  0.20131529747E+02  0.14774142390E+02  0.31538798589E+02  0.51100000000E-03 0. -1.
        -11    1    3    3    0    0 -0.65950264295E+01 -0.10234227042E+01  0.67513806187E+01  0.94933085991E+01  0.51100000000E-03 0.  1.
         12    1    3    3    0    0  0.56595175185E+01  0.84177284821E+00  0.75795523062E+01  0.94967538261E+01  0.00000000000E+00 0. -1.
</event>
<event>
 7    1  0.2432574E-011  0.5052886E+02  0.7816164E-02  0.1300439E+00
        -11   -1    0    0    0    0  0.00000000000E+00  0.00000000000E+00  0.45593999997E+02  0.45594000000E+02  0.51100000000E-03 0.  1.
         11   -1    0    0    0    0 -0.00000000000E+00 -0.00000000000E+00 -0.45593999997E+02  0.45594000000E+02  0.51100000000E-03 0. -1.
    9900012    2    1    2    0    0  0.89195583057E+01  0.26602040058E+02  0.29426836323E+02  0.50528858942E+02  0.29999997241E+02 0.  0.
         12    1    1    2    0    0 -0.89195583057E+01 -0.26602040058E+02 -0.29426836323E+02  0.40659141058E+02  0.00000000000E+00 0. -1.
         11    1    3    3    0    0  0.59750732046E+01  0.54326359630E+01  0.32821124276E+01  0.87170692067E+01  0.51100000000E-03 0. -1.
        -11    1    3    3    0    0 -0.40566339561E+01  0.20536824461E+02  0.80999084272E+01  0.22446067691E+02  0.51100000000E-03 0.  1.
        -12    1    3    3    0    0  0.70011190572E+01  0.63257963375E+00  0.18044815468E+02  0.19365722045E+02  0.00000000000E+00 0.  1.
</event>
<event>
 7    1  0.2432574E-011  0.5052887E+02  0.7816164E-02  0.1300439E+00
        -11   -1    0    0    0    0  0.00000000000E+00  0.00000000000E+00  0.45593999997E+02  0.45594000000E+02  0.51100000000E-03 0.  1.
         11   -1    0    0    0    0 -0.00000000000E+00 -0.00000000000E+00 -0.45593999997E+02  0.45594000000E+02  0.51100000000E-03 0. -1.
    9900012    2    1    2    0    0  0.27939640147E+02  0.19115890846E+02  0.22519418173E+02  0.50528868563E+02  0.30000026483E+02 0.  0.
         12    1    1    2    0    0 -0.27939640147E+02 -0.19115890846E+02 -0.22519418173E+02  0.40659131437E+02  0.00000000000E+00 0. -1.
         11    1    3    3    0    0  0.76568704014E+01  0.15401386885E+02  0.21157794215E+01  0.17329365399E+02  0.51100000000E-03 0. -1.
        -11    1    3    3    0    0  0.39290660232E+01  0.58187938682E+01  0.13711654567E+02  0.15404719833E+02  0.51100000000E-03 0.  1.
         12    1    3    3    0    0  0.16353703723E+02 -0.21042899070E+01  0.66919841842E+01  0.17794783331E+02  0.00000000000E+00 0. -1.
</event>
<event>
 7    1  0.2432574E-011  0.5052881E+02  0.7816164E-02  0.1300439E+00
        -11   -1    0    0    0    0  0.00000000000E+00  0.00000000000E+00  0.45593999997E+02  0.45594000000E+02  0.51100000000E-03 0.  1.
         11   -1    0    0    0    0 -0.00000000000E+00 -0.00000000000E+00 -0.45593999997E+02  0.45594000000E+02  0.51100000000E-03 0. -1.
    9900012    2    1    2    0    0  0.31293734732E+02  0.25933072588E+02 -0.11607724130E+01  0.50528813093E+02  0.29999857877E+02 0.  0.
         12    1    1    2    0    0 -0.31293734732E+02 -0.25933072588E+02  0.11607724130E+01  0.40659186907E+02  0.00000000000E+00 0. -1.
         11    1    3    3    0    0  0.16859865086E+02  0.23464694053E+01 -0.52179670124E+01  0.17804161013E+02  0.51100000000E-03 0. -1.
        -11    1    3    3    0    0  0.63064112395E+01  0.82717782339E-01  0.46699502668E+01  0.78476812314E+01  0.51100000000E-03 0.  1.
        -12    1    3    3    0    0  0.81274584069E+01  0.23503885400E+02 -0.61275566748E+00  0.24876970848E+02  0.00000000000E+00 0.  1.
</event>
<event>
 7    1  0.2432574E-011  0.5052887E+02  0.7816164E-02  0.1300439E+00
        -11   -1    0    0    0    0  0.00000000000E+00  0.00000000000E+00  0.45593999997E+02  0.45594000000E+02  0.51100000000E-03 0.  1.
         11   -1    0    0    0    0 -0.00000000000E+00 -0.00000000000E+00 -0.45593999997E+02  0.45594000000E+02  0.51100000000E-03 0. -1.
    9900012    2    1    2    0    0  0.20073734948E+02  0.11306909768E+02  0.33501699863E+02  0.50528868959E+02  0.30000027689E+02 0.  0.
         12    1    1    2    0    0 -0.20073734948E+02 -0.11306909768E+02 -0.33501699863E+02  0.40659131041E+02  0.00000000000E+00 0. -1.
         11    1    3    3    0    0  0.12476728934E+02  0.17451176395E+01  0.22394595322E+02  0.25694982008E+02  0.51100000000E-03 0. -1.
        -11    1    3    3    0    0  0.49099974388E+00 -0.55046487970E+01  0.33028862864E+01  0.64382681840E+01  0.51100000000E-03 0.  1.
         12    1    3    3    0    0  0.71060062700E+01  0.15066440926E+02  0.78042182548E+01  0.18395618768E+02  0.00000000000E+00 0. -1.
</event>
<event>
 7    1  0.2432574E-011  0.5052886E+02  0.7816164E-02  0.1300439E+00
        -11   -1    0    0    0    0  0.00000000000E+00  0.00000000000E+00  0.45593999997E+02  0.45594000000E+02  0.51100000000E-03 0.  1.
         11   -1    0    0    0    0 -0.00000000000E+00 -0.00000000000E+00 -0.45593999997E+02  0.45594000000E+02  0.51100000000E-03 0. -1.
    9900012    2    1    2    0    0 -0.21679877878E+02  0.20638303033E+02  0.27517427307E+02  0.50528862497E+02  0.30000008047E+02 0.  0.
         12    1    1    2    0    0  0.21679877878E+02 -0.20638303033E+02 -0.27517427307E+02  0.40659137503E+02  0.00000000000E+00 0. -1.
         11    1    3    3    0    0 -0.65454932700E+01  0.58390287825E+01  0.46146148246E+01  0.99112264383E+01  0.51100000000E-03 0. -1.
        -11    1    3    3    0    0 -0.40342049874E+01  0.41331701283E+00 -0.55402943669E+01  0.68658941709E+01  0.51100000000E-03 0.  1.
         12    1    3    3    0    0 -0.11100179620E+02  0.14385957238E+02  0.28443106849E+02  0.33751741888E+02  0.00000000000E+00 0. -1.
</event>
<event>
 7    1  0.2432574E-011  0.5052887E+02  0.7816164E-02  0.1300439E+00
        -11   -1    0    0    0    0  0.00000000000E+00  0.00000000000E+00  0.45593999997E+02  0.45594000000E+02  0.51100000000E-03 0.  1.
         11   -1    0    0    0    0 -0.00000000000E+00 -0.00000000000E+00 -0.45593999997E+02  0.45594000000E+02  0.51100000000E-03 0. -1.
    9900012    2    1    2    0    0  0.14681313714E+02  0.35483540126E+02  0.13361984960E+02  0.50528865303E+02  0.30000016575E+02 0.  0.
         12    1    1    2    0    0 -0.14681313714E+02 -0.35483540126E+02 -0.13361984960E+02  0.40659134697E+02  0.00000000000E+00 0. -1.
         11    1    3    3    0    0  0.16769643712E+02  0.23768682251E+02  0.13512523774E+01  0.29120389582E+02  0.51100000000E-03 0. -1.
        -11    1    3    3    0    0  0.44607589590E+01  0.30607661885E+00  0.21099634222E+01  0.49440873062E+01  0.51100000000E-03 0.  1.
         12    1    3    3    0    0 -0.65490889569E+01  0.11408781257E+02  0.99007691602E+01  0.16464388415E+02  0.00000000000E+00 0. -1.
</event>
<event>
 7    1  0.2432574E-011  0.5052886E+02  0.7816164E-02  0.1300439E+00
        -11   -1    0    0    0    0  0.00000000000E+00  0.00000000000E+00  0.45593999997E+02  0.45594000000E+02  0.51100000000E-03 0.  1.
         11   -1    0    0    0    0 -0.00000000000E+00 -0.00000000000E+00 -0.45593999997E+02  0.45594000000E+02  0.51100000000E-03 0. -1.
    9900012    2    1    2    0    0 -0.40175957645E+02  0.32272921862E+01  0.53518771010E+01  0.50528861101E+02  0.30000003802E+02 0.  0.
         12    1    1    2    0    0  0.40175957645E+02 -0.32272921862E+01 -0.53518771010E+01  0.40659138899E+02  0.00000000000E+00 0. -1.
         11    1    3    3    0    0 -0.63832857344E+01 -0.99904752125E+01 -0.11364847290E+01  0.11909976051E+02  0.51100000000E-03 0. -1.
        -11    1    3    3    0    0 -0.20233484315E+02  0.17741985699E+01  0.40216161126E+01  0.20705435627E+02  0.51100000000E-03 0.  1.
        -12    1    3    3    0    0 -0.13559187596E+02  0.11443568829E+02  0.24667457173E+01  0.17913449423E+02  0.00000000000E+00 0.  1.
</event>
<event>
 7    1  0.2432574E-011  0.5052887E+02  0.7816164E-02  0.1300439E+00
        -11   -1    0    0    0    0  0.00000000000E+00  0.00000000000E+00  0.45593999997E+02  0.45594000000E+02  0.51100000000E-03 0. -1.
         11   -1    0    0    0    0 -0.00000000000E+00 -0.00000000000E+00 -0.45593999997E+02  0.45594000000E+02  0.51100000000E-03 0.  1.
    9900012    2    1    2    0    0  0.36979807894E+02  0.14240411158E+02  0.91032548598E+01  0.50528871248E+02  0.30000034644E+02 0.  0.
         12    1    1    2    0    0 -0.36979807894E+02 -0.14240411158E+02 -0.91032548598E+01  0.40659128752E+02  0.00000000000E+00 0. -1.
         11    1    3    3    0    0  0.50926577561E+01  0.89934949437E+01 -0.39322663136E+01  0.11058066420E+02  0.51100000000E-03 0. -1.
        -11    1    3    3    0    0  0.18650704619E+02  0.12088897529E+02  0.61795766739E+01  0.23068970379E+02  0.51100000000E-03 0.  1.
        -12    1    3    3    0    0  0.13236445520E+02 -0.68419813141E+01  0.68559444995E+01  0.16401834449E+02  0.00000000000E+00 0.  1.
</event>
<event>
 7    1  0.2432574E-011  0.5052886E+02  0.7816164E-02  0.1300439E+00
        -11   -1    0    0    0    0  0.00000000000E+00  0.00000000000E+00  0.45593999997E+02  0.45594000000E+02  0.51100000000E-03 0.  1.
         11   -1    0    0    0    0 -0.00000000000E+00 -0.00000000000E+00 -0.45593999997E+02  0.45594000000E+02  0.51100000000E-03 0. -1.
    9900012    2    1    2    0    0  0.24840952656E+02  0.74169088159E+00  0.32179845375E+02  0.50528862250E+02  0.30000007294E+02 0.  0.
         12    1    1    2    0    0 -0.24840952656E+02 -0.74169088159E+00 -0.32179845375E+02  0.40659137750E+02  0.00000000000E+00 0. -1.
         11    1    3    3    0    0  0.25577126334E+02 -0.47770932490E+01  0.32942521174E+02  0.41978800757E+02  0.51100000000E-03 0.  1.
        -11    1    3    3    0    0  0.15225731213E+01  0.48740012059E+01  0.14654795534E+01  0.53124144461E+01  0.51100000000E-03 0. -1.
        -12    1    3    3    0    0 -0.22587467995E+01  0.64478292466E+00 -0.22281553524E+01  0.32376470466E+01  0.00000000000E+00 0.  1.
</event>
<event>
 7    1  0.2432574E-011  0.5052886E+02  0.7816164E-02  0.1300439E+00
        -11   -1    0    0    0    0  0.00000000000E+00  0.00000000000E+00  0.45593999997E+02  0.45594000000E+02  0.51100000000E-03 0.  1.
         11   -1    0    0    0    0 -0.00000000000E+00 -0.00000000000E+00 -0.45593999997E+02  0.45594000000E+02  0.51100000000E-03 0. -1.
    9900012    2    1    2    0    0 -0.12941825652E+02  0.37635442457E+02  0.83215661656E+01  0.50528857811E+02  0.29999993801E+02 0.  0.
         12    1    1    2    0    0  0.12941825652E+02 -0.37635442457E+02 -0.83215661656E+01  0.40659142189E+02  0.00000000000E+00 0. -1.
         11    1    3    3    0    0  0.15629485537E+01  0.10708920898E+02  0.12007076102E+02  0.16164580780E+02  0.51100000000E-03 0. -1.
        -11    1    3    3    0    0 -0.22716741319E+01 -0.16915079364E+01  0.74224880816E+00  0.29279064218E+01  0.51100000000E-03 0.  1.
        -12    1    3    3    0    0 -0.12233100074E+02  0.28618029495E+02 -0.44277587449E+01  0.31436370609E+02  0.00000000000E+00 0.  1.
</event>
<event>
 7    1  0.2432574E-011  0.5052883E+02  0.7816164E-02  0.1300439E+00
        -11   -1    0    0    0    0  0.00000000000E+00  0.00000000000E+00  0.45593999997E+02  0.45594000000E+02  0.51100000000E-03 0. -1.
         11   -1    0    0    0    0 -0.00000000000E+00 -0.00000000000E+00 -0.45593999997E+02  0.45594000000E+02  0.51100000000E-03 0.  1.
    9900012    2    1    2    0    0  0.13984342765E+02 -0.18912476138E+02 -0.33165113253E+02  0.50528827193E+02  0.29999900736E+02 0.  0.
         12    1    1    2    0    0 -0.13984342765E+02  0.18912476138E+02  0.33165113253E+02  0.40659172807E+02  0.00000000000E+00 0. -1.
         11    1    3    3    0    0  0.12159142762E+02 -0.18162957485E+02 -0.20150599285E+02  0.29728512057E+02  0.51100000000E-03 0. -1.
        -11    1    3    3    0    0  0.20649527999E+01 -0.58294598180E+01  0.65159754591E+00  0.62186181309E+01  0.51100000000E-03 0.  1.
        -12    1    3    3    0    0 -0.23975279671E+00  0.50799411646E+01 -0.13666111514E+02  0.14581697006E+02  0.00000000000E+00 0.  1.
</event>
<event>
 7    1  0.2432574E-011  0.5052885E+02  0.7816164E-02  0.1300439E+00
        -11   -1    0    0    0    0  0.00000000000E+00  0.00000000000E+00  0.45593999997E+02  0.45594000000E+02  0.51100000000E-03 0.  1.
         11   -1    0    0    0    0 -0.00000000000E+00 -0.00000000000E+00 -0.45593999997E+02  0.45594000000E+02  0.51100000000E-03 0. -1.
    9900012    2    1    2    0    0 -0.15049941891E+02  0.28191475608E+02  0.25137746897E+02  0.50528851375E+02  0.29999974240E+02 0.  0.
         12    1    1    2    0    0  0.15049941891E+02 -0.28191475608E+02 -0.25137746897E+02  0.40659148625E+02  0.00000000000E+00 0. -1.
         11    1    3    3    0    0 -0.98619237051E+01  0.16639418003E+02  0.25787824650E+02  0.32235689399E+02  0.51100000000E-03 0.  1.
        -11    1    3    3    0    0 -0.48683838100E+01 -0.15413557366E+01  0.57426195560E+00  0.51387464894E+01  0.51100000000E-03 0. -1.
         12    1    3    3    0    0 -0.31963437588E+00  0.13093413341E+02 -0.12243397085E+01  0.13154415486E+02  0.00000000000E+00 0. -1.
</event>
<event>
 7    1  0.2432574E-011  0.5052886E+02  0.7816164E-02  0.1300439E+00
        -11   -1    0    0    0    0  0.00000000000E+00  0.00000000000E+00  0.45593999997E+02  0.45594000000E+02  0.51100000000E-03 0.  1.
         11   -1    0    0    0    0 -0.00000000000E+00 -0.00000000000E+00 -0.45593999997E+02  0.45594000000E+02  0.51100000000E-03 0. -1.
    9900012    2    1    2    0    0  0.16017249274E+02 -0.26138166899E+02  0.26709736451E+02  0.50528855095E+02  0.29999985547E+02 0.  0.
         12    1    1    2    0    0 -0.16017249274E+02  0.26138166899E+02 -0.26709736451E+02  0.40659144905E+02  0.00000000000E+00 0. -1.
         11    1    3    3    0    0 -0.43413002837E+01  0.85476763037E+00  0.77848655302E+01  0.89544205529E+01  0.51100000000E-03 0. -1.
        -11    1    3    3    0    0  0.13847098786E+01 -0.11985870259E+02  0.10387057911E+02  0.15920724846E+02  0.51100000000E-03 0.  1.
         12    1    3    3    0    0  0.18973839679E+02 -0.15007064271E+02  0.85378130095E+01  0.25653709696E+02  0.00000000000E+00 0. -1.
</event>
<event>
 7    1  0.2432574E-011  0.5052886E+02  0.7816164E-02  0.1300439E+00
        -11   -1    0    0    0    0  0.00000000000E+00  0.00000000000E+00  0.45593999997E+02  0.45594000000E+02  0.51100000000E-03 0.  1.
         11   -1    0    0    0    0 -0.00000000000E+00 -0.00000000000E+00 -0.45593999997E+02  0.45594000000E+02  0.51100000000E-03 0. -1.
    9900012    2    1    2    0    0  0.30044478615E+02  0.17064310650E+02  0.21431376365E+02  0.50528864666E+02  0.30000014640E+02 0.  0.
         12    1    1    2    0    0 -0.30044478615E+02 -0.17064310650E+02 -0.21431376365E+02  0.40659135334E+02  0.00000000000E+00 0. -1.
         11    1    3    3    0    0  0.44528240257E+01  0.15972015674E+02  0.12502600831E+01  0.16628171187E+02  0.51100000000E-03 0. -1.
        -11    1    3    3    0    0  0.36928743239E+01 -0.19884068659E+01  0.69874541663E+01  0.81495765917E+01  0.51100000000E-03 0.  1.
        -12    1    3    3    0    0  0.21898780265E+02  0.30807018418E+01  0.13193662115E+02  0.25751116888E+02  0.00000000000E+00 0.  1.
</event>
<event>
 7    1  0.2432574E-011  0.5052886E+02  0.7816164E-02  0.1300439E+00
        -11   -1    0    0    0    0  0.00000000000E+00  0.00000000000E+00  0.45593999997E+02  0.45594000000E+02  0.51100000000E-03 0.  1.
         11   -1    0    0    0    0 -0.00000000000E+00 -0.00000000000E+00 -0.45593999997E+02  0.45594000000E+02  0.51100000000E-03 0. -1.
    9900012    2    1    2    0    0  0.16601592559E+02 -0.25771683566E+02  0.26709041131E+02  0.50528862928E+02  0.30000009355E+02 0.  0.
         12    1    1    2    0    0 -0.16601592559E+02  0.25771683566E+02 -0.26709041131E+02  0.40659137072E+02  0.00000000000E+00 0. -1.
         11    1    3    3    0    0  0.55019906251E+00 -0.18236007537E+02  0.14087977239E+02  0.23050505262E+02  0.51100000000E-03 0. -1.
        -11    1    3    3    0    0  0.42341953801E+01 -0.41431168696E+01  0.13907573488E+02  0.15116693703E+02  0.51100000000E-03 0.  1.
         12    1    3    3    0    0  0.11817198117E+02 -0.33925591596E+01 -0.12865095966E+01  0.12361663962E+02  0.00000000000E+00 0. -1.
</event>
<event>
 7    1  0.2432574E-011  0.5052891E+02  0.7816164E-02  0.1300439E+00
        -11   -1    0    0    0    0  0.00000000000E+00  0.00000000000E+00  0.45593999997E+02  0.45594000000E+02  0.51100000000E-03 0. -1.
         11   -1    0    0    0    0 -0.00000000000E+00 -0.00000000000E+00 -0.45593999997E+02  0.45594000000E+02  0.51100000000E-03 0.  1.
    9900012    2    1    2    0    0 -0.15375823560E+02  0.29951436994E+02 -0.22795994582E+02  0.50528906341E+02  0.30000141315E+02 0.  0.
         12    1    1    2    0    0  0.15375823560E+02 -0.29951436994E+02  0.22795994582E+02  0.40659093659E+02  0.00000000000E+00 0. -1.
         11    1    3    3    0    0  0.45253087399E+01  0.42776920864E+01 -0.84869742935E+01  0.10526433475E+02  0.51100000000E-03 0. -1.
        -11    1    3    3    0    0 -0.85714788003E+01  0.11949695290E+02 -0.16464675338E+02  0.22076027736E+02  0.51100000000E-03 0.  1.
         12    1    3    3    0    0 -0.11329653500E+02  0.13724049618E+02  0.21556550500E+01  0.17926445131E+02  0.00000000000E+00 0. -1.
</event>
<event>
 7    1  0.2432574E-011  0.5052885E+02  0.7816164E-02  0.1300439E+00
        -11   -1    0    0    0    0  0.00000000000E+00  0.00000000000E+00  0.45593999997E+02  0.45594000000E+02  0.51100000000E-03 0. -1.
         11   -1    0    0    0    0 -0.00000000000E+00 -0.00000000000E+00 -0.45593999997E+02  0.45594000000E+02  0.51100000000E-03 0.  1.
    9900012    2    1    2    0    0 -0.34141055685E+02  0.20463844791E+02 -0.82937366015E+01  0.50528847356E+02  0.29999962023E+02 0.  0.
         12    1    1    2    0    0  0.34141055685E+02 -0.20463844791E+02  0.82937366015E+01  0.40659152644E+02  0.00000000000E+00 0. -1.
         11    1    3    3    0    0 -0.66212053919E+01 -0.39042865092E+01  0.38741138048E+01  0.86077042248E+01  0.51100000000E-03 0. -1.
        -11    1    3    3    0    0 -0.41597300986E+01  0.11184103098E+02 -0.89270159411E+01  0.14902319634E+02  0.51100000000E-03 0.  1.
        -12    1    3    3    0    0 -0.23360120194E+02  0.13184028203E+02 -0.32408344652E+01  0.27018823497E+02  0.00000000000E+00 0.  1.
</event>
<event>
 7    1  0.2432574E-011  0.5052883E+02  0.7816164E-02  0.1300439E+00
        -11   -1    0    0    0    0  0.00000000000E+00  0.00000000000E+00  0.45593999997E+02  0.45594000000E+02  0.51100000000E-03 0.  1.
         11   -1    0    0    0    0 -0.00000000000E+00 -0.00000000000E+00 -0.45593999997E+02  0.45594000000E+02  0.51100000000E-03 0. -1.
    9900012    2    1    2    0    0  0.19799387652E+02 -0.35396487585E+02 -0.28707024270E+01  0.50528831081E+02  0.29999912554E+02 0.  0.
         12    1    1    2    0    0 -0.19799387652E+02  0.35396487585E+02  0.28707024270E+01  0.40659168919E+02  0.00000000000E+00 0. -1.
         11    1    3    3    0    0 -0.76917495286E+00 -0.68081622951E+01 -0.22677932899E+00  0.68552266971E+01  0.51100000000E-03 0. -1.
        -11    1    3    3    0    0  0.18500778716E+02 -0.25978161480E+02 -0.11741780074E+02  0.33985483468E+02  0.51100000000E-03 0.  1.
        -12    1    3    3    0    0  0.20677838891E+01 -0.26101638102E+01  0.90978569762E+01  0.96881209162E+01  0.00000000000E+00 0.  1.
</event>
<event>
 7    1  0.2432574E-011  0.5052886E+02  0.7816164E-02  0.1300439E+00
        -11   -1    0    0    0    0  0.00000000000E+00  0.00000000000E+00  0.45593999997E+02  0.45594000000E+02  0.51100000000E-03 0. -1.
         11   -1    0    0    0    0 -0.00000000000E+00 -0.00000000000E+00 -0.45593999997E+02  0.45594000000E+02  0.51100000000E-03 0.  1.
    9900012    2    1    2    0    0  0.76786025104E+01  0.19810154713E+02 -0.34666448051E+02  0.50528858509E+02  0.29999995925E+02 0.  0.
         12    1    1    2    0    0 -0.76786025104E+01 -0.19810154713E+02  0.34666448051E+02  0.40659141491E+02  0.00000000000E+00 0. -1.
         11    1    3    3    0    0 -0.24667854430E+01  0.32306743518E+01 -0.27147150063E+02  0.27449773113E+02  0.51100000000E-03 0. -1.
        -11    1    3    3    0    0  0.34329185454E+01  0.32629092519E+01 -0.66193778943E+01  0.81392671964E+01  0.51100000000E-03 0.  1.
         12    1    3    3    0    0  0.67124694080E+01  0.13316571109E+02 -0.89992009418E+00  0.14939818200E+02  0.00000000000E+00 0. -1.
</event>
<event>
 7    1  0.2432574E-011  0.5052885E+02  0.7816164E-02  0.1300439E+00
        -11   -1    0    0    0    0  0.00000000000E+00  0.00000000000E+00  0.45593999997E+02  0.45594000000E+02  0.51100000000E-03 0. -1.
         11   -1    0    0    0    0 -0.00000000000E+00 -0.00000000000E+00 -0.45593999997E+02  0.45594000000E+02  0.51100000000E-03 0.  1.
    9900012    2    1    2    0    0  0.14088104620E+02  0.37273623196E+02  0.80851001292E+01  0.50528849468E+02  0.29999968442E+02 0.  0.
         12    1    1    2    0    0 -0.14088104620E+02 -0.37273623196E+02 -0.80851001292E+01  0.40659150532E+02  0.00000000000E+00 0. -1.
         11    1    3    3    0    0 -0.31002863382E+01  0.36275752219E+01 -0.20162828423E+01  0.51803932409E+01  0.51100000000E-03 0. -1.
        -11    1    3    3    0    0  0.65643681468E+01  0.32479947975E+02  0.10164079312E+02  0.34660445152E+02  0.51100000000E-03 0.  1.
         12    1    3    3    0    0  0.10624022811E+02  0.11660999988E+01 -0.62696340370E-01  0.10688011074E+02  0.00000000000E+00 0. -1.
</event>
<event>
 7    1  0.2432574E-011  0.5052884E+02  0.7816164E-02  0.1300439E+00
        -11   -1    0    0    0    0  0.00000000000E+00  0.00000000000E+00  0.45593999997E+02  0.45594000000E+02  0.51100000000E-03 0. -1.
         11   -1    0    0    0    0 -0.00000000000E+00 -0.00000000000E+00 -0.45593999997E+02  0.45594000000E+02  0.51100000000E-03 0.  1.
    9900012    2    1    2    0    0 -0.35568744883E+02 -0.13031341073E+02  0.14772117360E+02  0.50528844647E+02  0.29999953788E+02 0.  0.
         12    1    1    2    0    0  0.35568744883E+02  0.13031341073E+02 -0.14772117360E+02  0.40659155353E+02  0.00000000000E+00 0. -1.
         11    1    3    3    0    0 -0.25676256245E+02 -0.39332313156E+01 -0.50477648378E+01  0.26461677450E+02  0.51100000000E-03 0.  1.
        -11    1    3    3    0    0 -0.50366005470E+01 -0.48459448230E+01  0.81960312008E+01  0.10771511222E+02  0.51100000000E-03 0. -1.
        -12    1    3    3    0    0 -0.48558880911E+01 -0.42521649343E+01  0.11623850997E+02  0.13295655974E+02  0.00000000000E+00 0.  1.
</event>
<event>
 7    1  0.2432574E-011  0.5052886E+02  0.7816164E-02  0.1300439E+00
        -11   -1    0    0    0    0  0.00000000000E+00  0.00000000000E+00  0.45593999997E+02  0.45594000000E+02  0.51100000000E-03 0.  1.
         11   -1    0    0    0    0 -0.00000000000E+00 -0.00000000000E+00 -0.45593999997E+02  0.45594000000E+02  0.51100000000E-03 0. -1.
    9900012    2    1    2    0    0  0.29262071508E+02  0.25369888787E+01  0.28115126331E+02  0.50528862403E+02  0.30000007760E+02 0.  0.
         12    1    1    2    0    0 -0.29262071508E+02 -0.25369888787E+01 -0.28115126331E+02  0.40659137597E+02  0.00000000000E+00 0. -1.
         11    1    3    3    0    0  0.38595495527E+01  0.44732692664E+01 -0.45761840836E+01  0.74731333260E+01  0.51100000000E-03 0. -1.
        -11    1    3    3    0    0  0.14096559095E+02  0.33762684744E+01  0.11697243840E+02  0.18626263201E+02  0.51100000000E-03 0.  1.
        -12    1    3    3    0    0  0.11305962860E+02 -0.53125488621E+01  0.20994066575E+02  0.24429465876E+02  0.00000000000E+00 0.  1.
</event>
<event>
 7    1  0.2432574E-011  0.5052886E+02  0.7816164E-02  0.1300439E+00
        -11   -1    0    0    0    0  0.00000000000E+00  0.00000000000E+00  0.45593999997E+02  0.45594000000E+02  0.51100000000E-03 0.  1.
         11   -1    0    0    0    0 -0.00000000000E+00 -0.00000000000E+00 -0.45593999997E+02  0.45594000000E+02  0.51100000000E-03 0. -1.
    9900012    2    1    2    0    0 -0.22515651254E+02  0.19602463904E+02  0.27603526487E+02  0.50528858137E+02  0.29999994792E+02 0.  0.
         12    1    1    2    0    0  0.22515651254E+02 -0.19602463904E+02 -0.27603526487E+02  0.40659141863E+02  0.00000000000E+00 0. -1.
         11    1    3    3    0    0 -0.25244309199E+01  0.12659540037E+02  0.79515664267E+01  0.15161270208E+02  0.51100000000E-03 0. -1.
        -11    1    3    3    0    0 -0.98606617392E+01  0.48695913076E+01 -0.21791455515E+01  0.11211344479E+02  0.51100000000E-03 0.  1.
        -12    1    3    3    0    0 -0.10130558595E+02  0.20733325600E+01  0.21831105612E+02  0.24156243450E+02  0.00000000000E+00 0.  1.
</event>
<event>
 7    1  0.2432574E-011  0.5052883E+02  0.7816164E-02  0.1300439E+00
        -11   -1    0    0    0    0  0.00000000000E+00  0.00000000000E+00  0.45593999997E+02  0.45594000000E+02  0.51100000000E-03 0.  1.
         11   -1    0    0    0    0 -0.00000000000E+00 -0.00000000000E+00 -0.45593999997E+02  0.45594000000E+02  0.51100000000E-03 0. -1.
    9900012    2    1    2    0    0 -0.27984383771E+02  0.21084495462E+01  0.29421027372E+02  0.50528829495E+02  0.29999907733E+02 0.  0.
         12    1    1    2    0    0  0.27984383771E+02 -0.21084495462E+01 -0.29421027372E+02  0.40659170505E+02  0.00000000000E+00 0. -1.
         11    1    3    3    0    0  0.39243545018E+01  0.27479704209E+01  0.85429047031E+00  0.48663859443E+01  0.51100000000E-03 0. -1.
        -11    1    3    3    0    0 -0.10239400773E+02 -0.16090428852E+01  0.19638189186E+02  0.22205693459E+02  0.51100000000E-03 0.  1.
         12    1    3    3    0    0 -0.21669337499E+02  0.96952201052E+00  0.89285477154E+01  0.23456750092E+02  0.00000000000E+00 0. -1.
</event>
<event>
 7    1  0.2432574E-011  0.5052886E+02  0.7816164E-02  0.1300439E+00
        -11   -1    0    0    0    0  0.00000000000E+00  0.00000000000E+00  0.45593999997E+02  0.45594000000E+02  0.51100000000E-03 0.  1.
         11   -1    0    0    0    0 -0.00000000000E+00 -0.00000000000E+00 -0.45593999997E+02  0.45594000000E+02  0.51100000000E-03 0. -1.
    9900012    2    1    2    0    0 -0.14765219422E+02 -0.33802637336E+01  0.37732313082E+02  0.50528864028E+02  0.30000012698E+02 0.  0.
         12    1    1    2    0    0  0.14765219422E+02  0.33802637336E+01 -0.37732313082E+02  0.40659135972E+02  0.00000000000E+00 0. -1.
         11    1    3    3    0    0 -0.13517690467E+02 -0.11680591891E+02  0.19852390357E+02  0.26707332057E+02  0.51100000000E-03 0. -1.
        -11    1    3    3    0    0  0.37360853222E+01 -0.20376832955E+01  0.44902645606E+01  0.61865145949E+01  0.51100000000E-03 0.  1.
        -12    1    3    3    0    0 -0.49836142778E+01  0.10338011453E+02  0.13389658165E+02  0.17635017376E+02  0.00000000000E+00 0.  1.
</event>
<event>
 7    1  0.2432574E-011  0.5052886E+02  0.7816164E-02  0.1300439E+00
        -11   -1    0    0    0    0  0.00000000000E+00  0.00000000000E+00  0.45593999997E+02  0.45594000000E+02  0.51100000000E-03 0.  1.
         11   -1    0    0    0    0 -0.00000000000E+00 -0.00000000000E+00 -0.45593999997E+02  0.45594000000E+02  0.51100000000E-03 0. -1.
    9900012    2    1    2    0    0  0.40025712648E+02  0.70624689392E+01 -0.11089651382E+01  0.50528856573E+02  0.29999990040E+02 0.  0.
         12    1    1    2    0    0 -0.40025712648E+02 -0.70624689392E+01  0.11089651382E+01  0.40659143427E+02  0.00000000000E+00 0. -1.
         11    1    3    3    0    0  0.63760805794E+01 -0.54377897396E+01  0.24005306969E+00  0.83834113906E+01  0.51100000000E-03 0. -1.
        -11    1    3    3    0    0  0.27181472475E+02  0.42505588893E+01  0.74016673685E+01  0.28490075059E+02  0.51100000000E-03 0.  1.
        -12    1    3    3    0    0  0.64681595938E+01  0.82496997895E+01 -0.87506855764E+01  0.13655370123E+02  0.00000000000E+00 0.  1.
</event>
<event>
 7    1  0.2432574E-011  0.5052886E+02  0.7816164E-02  0.1300439E+00
        -11   -1    0    0    0    0  0.00000000000E+00  0.00000000000E+00  0.45593999997E+02  0.45594000000E+02  0.51100000000E-03 0.  1.
         11   -1    0    0    0    0 -0.00000000000E+00 -0.00000000000E+00 -0.45593999997E+02  0.45594000000E+02  0.51100000000E-03 0. -1.
    9900012    2    1    2    0    0 -0.86295236290E+01 -0.38531222935E+02 -0.96975370072E+01  0.50528855359E+02  0.29999986351E+02 0.  0.
         12    1    1    2    0    0  0.86295236290E+01  0.38531222935E+02  0.96975370072E+01  0.40659144641E+02  0.00000000000E+00 0. -1.
         11    1    3    3    0    0 -0.20155653492E+01 -0.27030543664E+02 -0.74627527829E+01  0.28114150776E+02  0.51100000000E-03 0.  1.
        -11    1    3    3    0    0 -0.65000002576E+01 -0.12547587986E+02  0.50859478792E+01  0.15018616238E+02  0.51100000000E-03 0. -1.
         12    1    3    3    0    0 -0.11395802218E+00  0.10469087157E+01 -0.73207321035E+01  0.73960883459E+01  0.00000000000E+00 0. -1.
</event>
<event>
 7    1  0.2432574E-011  0.5052886E+02  0.7816164E-02  0.1300439E+00
        -11   -1    0    0    0    0  0.00000000000E+00  0.00000000000E+00  0.45593999997E+02  0.45594000000E+02  0.51100000000E-03 0.  1.
         11   -1    0    0    0    0 -0.00000000000E+00 -0.00000000000E+00 -0.45593999997E+02  0.45594000000E+02  0.51100000000E-03 0. -1.
    9900012    2    1    2    0    0  0.33949645961E+02 -0.13511503845E+02  0.17833286907E+02  0.50528864262E+02  0.30000013411E+02 0.  0.
         12    1    1    2    0    0 -0.33949645961E+02  0.13511503845E+02 -0.17833286907E+02  0.40659135738E+02  0.00000000000E+00 0. -1.
         11    1    3    3    0    0  0.45109659481E+01  0.30655829430E+01 -0.32340279430E+01  0.63407846173E+01  0.51100000000E-03 0. -1.
        -11    1    3    3    0    0  0.68145199852E+01 -0.14320002858E+01  0.14643807200E+02  0.16215097811E+02  0.51100000000E-03 0.  1.
        -12    1    3    3    0    0  0.22624160028E+02 -0.15145086503E+02  0.64235076497E+01  0.27972981834E+02  0.00000000000E+00 0.  1.
</event>
<event>
 7    1  0.2432574E-011  0.5052886E+02  0.7816164E-02  0.1300439E+00
        -11   -1    0    0    0    0  0.00000000000E+00  0.00000000000E+00  0.45593999997E+02  0.45594000000E+02  0.51100000000E-03 0. -1.
         11   -1    0    0    0    0 -0.00000000000E+00 -0.00000000000E+00 -0.45593999997E+02  0.45594000000E+02  0.51100000000E-03 0.  1.
    9900012    2    1    2    0    0 -0.60021227621E+01  0.31790145995E+02 -0.24627768493E+02  0.50528857842E+02  0.29999993897E+02 0.  0.
         12    1    1    2    0    0  0.60021227621E+01 -0.31790145995E+02  0.24627768493E+02  0.40659142158E+02  0.00000000000E+00 0. -1.
         11    1    3    3    0    0  0.46915914163E-01 -0.22030199271E+01  0.20709161306E+01  0.30239364714E+01  0.51100000000E-03 0. -1.
        -11    1    3    3    0    0 -0.49393615142E+01  0.19219250121E+01 -0.10028473841E+02  0.11342899795E+02  0.51100000000E-03 0.  1.
        -12    1    3    3    0    0 -0.11096771621E+01  0.32071240910E+02 -0.16670210783E+02  0.36162021576E+02  0.00000000000E+00 0.  1.
</event>
<event>
 7    1  0.2432574E-011  0.5052882E+02  0.7816164E-02  0.1300439E+00
        -11   -1    0    0    0    0  0.00000000000E+00  0.00000000000E+00  0.45593999997E+02  0.45594000000E+02  0.51100000000E-03 0. -1.
         11   -1    0    0    0    0 -0.00000000000E+00 -0.00000000000E+00 -0.45593999997E+02  0.45594000000E+02  0.51100000000E-03 0.  1.
    9900012    2    1    2    0    0  0.30051111042E+01  0.93718831708E+00 -0.40537140128E+02  0.50528822138E+02  0.29999885370E+02 0.  0.
         12    1    1    2    0    0 -0.30051111042E+01 -0.93718831708E+00  0.40537140128E+02  0.40659177862E+02  0.00000000000E+00 0. -1.
         11    1    3    3    0    0  0.31390424350E+01  0.28106269535E+01 -0.97852149327E+00  0.43255884980E+01  0.51100000000E-03 0. -1.
        -11    1    3    3    0    0  0.54036432154E+01 -0.11428613646E+02 -0.18220402023E+02  0.22176465453E+02  0.51100000000E-03 0.  1.
         12    1    3    3    0    0 -0.55375745462E+01  0.95551750095E+01 -0.21338216612E+02  0.24026768186E+02  0.00000000000E+00 0. -1.
</event>
<event>
 7    1  0.2432574E-011  0.5052885E+02  0.7816164E-02  0.1300439E+00
        -11   -1    0    0    0    0  0.00000000000E+00  0.00000000000E+00  0.45593999997E+02  0.45594000000E+02  0.51100000000E-03 0. -1.
         11   -1    0    0    0    0 -0.00000000000E+00 -0.00000000000E+00 -0.45593999997E+02  0.45594000000E+02  0.51100000000E-03 0.  1.
    9900012    2    1    2    0    0 -0.35645468341E+01  0.34846537389E+02 -0.20644116708E+02  0.50528847073E+02  0.29999961162E+02 0.  0.
         12    1    1    2    0    0  0.35645468341E+01 -0.34846537389E+02  0.20644116708E+02  0.40659152927E+02  0.00000000000E+00 0. -1.
         11    1    3    3    0    0  0.83686118226E+01  0.51449845044E+01 -0.72087795152E+01  0.12184868967E+02  0.51100000000E-03 0. -1.
        -11    1    3    3    0    0 -0.63758870026E+01  0.16908722499E+02 -0.16030978375E+02  0.24156760949E+02  0.51100000000E-03 0.  1.
         12    1    3    3    0    0 -0.55572716541E+01  0.12792830385E+02  0.25956411817E+01  0.14187217157E+02  0.00000000000E+00 0. -1.
</event>
<event>
 7    1  0.2432574E-011  0.5052885E+02  0.7816164E-02  0.1300439E+00
        -11   -1    0    0    0    0  0.00000000000E+00  0.00000000000E+00  0.45593999997E+02  0.45594000000E+02  0.51100000000E-03 0.  1.
         11   -1    0    0    0    0 -0.00000000000E+00 -0.00000000000E+00 -0.45593999997E+02  0.45594000000E+02  0.51100000000E-03 0. -1.
    9900012    2    1    2    0    0  0.40622228335E+02  0.10373844098E+01  0.13873237856E+01  0.50528852584E+02  0.29999977915E+02 0.  0.
         12    1    1    2    0    0 -0.40622228335E+02 -0.10373844098E+01 -0.13873237856E+01  0.40659147416E+02  0.00000000000E+00 0. -1.
         11    1    3    3    0    0  0.31772940720E+01 -0.46085277266E+01  0.41001378708E+01  0.69386494541E+01  0.51100000000E-03 0.  1.
        -11    1    3    3    0    0  0.30134123232E+02  0.74962055655E+00 -0.10419455680E+02  0.31893453418E+02  0.51100000000E-03 0. -1.
         12    1    3    3    0    0  0.73108110303E+01  0.48962915798E+01  0.77066415952E+01  0.11696749712E+02  0.00000000000E+00 0. -1.
</event>
<event>
 7    1  0.2432574E-011  0.5052885E+02  0.7816164E-02  0.1300439E+00
        -11   -1    0    0    0    0  0.00000000000E+00  0.00000000000E+00  0.45593999997E+02  0.45594000000E+02  0.51100000000E-03 0.  1.
         11   -1    0    0    0    0 -0.00000000000E+00 -0.00000000000E+00 -0.45593999997E+02  0.45594000000E+02  0.51100000000E-03 0. -1.
    9900012    2    1    2    0    0  0.28941118336E+02  0.28278896896E+02 -0.39852442699E+01  0.50528849590E+02  0.29999968814E+02 0.  0.
         12    1    1    2    0    0 -0.28941118336E+02 -0.28278896896E+02  0.39852442699E+01  0.40659150410E+02  0.00000000000E+00 0. -1.
         11    1    3    3    0    0  0.24124191188E+02  0.18283878219E+02  0.26031392164E+01  0.30381789566E+02  0.51100000000E-03 0. -1.
        -11    1    3    3    0    0  0.10417828550E+02  0.71127552592E+01 -0.32882525743E+01  0.13035913636E+02  0.51100000000E-03 0.  1.
         12    1    3    3    0    0 -0.56009014014E+01  0.28822634174E+01 -0.33001309120E+01  0.71111463880E+01  0.00000000000E+00 0. -1.
</event>
<event>
 7    1  0.2432574E-011  0.5052886E+02  0.7816164E-02  0.1300439E+00
        -11   -1    0    0    0    0  0.00000000000E+00  0.00000000000E+00  0.45593999997E+02  0.45594000000E+02  0.51100000000E-03 0.  1.
         11   -1    0    0    0    0 -0.00000000000E+00 -0.00000000000E+00 -0.45593999997E+02  0.45594000000E+02  0.51100000000E-03 0. -1.
    9900012    2    1    2    0    0 -0.24308649209E+01 -0.22003010147E+01  0.40526722058E+02  0.50528860442E+02  0.30000001799E+02 0.  0.
         12    1    1    2    0    0  0.24308649209E+01  0.22003010147E+01 -0.40526722058E+02  0.40659139558E+02  0.00000000000E+00 0. -1.
         11    1    3    3    0    0  0.38415953997E+01  0.22874061951E+00  0.14380685407E+01  0.41083109516E+01  0.51100000000E-03 0. -1.
        -11    1    3    3    0    0  0.49146765069E+01 -0.10250701186E+02  0.16827043722E+02  0.20307149496E+02  0.51100000000E-03 0.  1.
        -12    1    3    3    0    0 -0.11187136828E+02  0.78216595521E+01  0.22261609796E+02  0.26113399994E+02  0.00000000000E+00 0.  1.
</event>
<event>
 7    1  0.2432574E-011  0.5052883E+02  0.7816164E-02  0.1300439E+00
        -11   -1    0    0    0    0  0.00000000000E+00  0.00000000000E+00  0.45593999997E+02  0.45594000000E+02  0.51100000000E-03 0. -1.
         11   -1    0    0    0    0 -0.00000000000E+00 -0.00000000000E+00 -0.45593999997E+02  0.45594000000E+02  0.51100000000E-03 0.  1.
    9900012    2    1    2    0    0  0.38369387671E+02 -0.62471081259E+01 -0.11913527797E+02  0.50528826192E+02  0.29999897692E+02 0.  0.
         12    1    1    2    0    0 -0.38369387671E+02  0.62471081259E+01  0.11913527797E+02  0.40659173808E+02  0.00000000000E+00 0. -1.
         11    1    3    3    0    0  0.16416140709E+02  0.26491435917E+01 -0.11922411133E+02  0.20460975662E+02  0.51100000000E-03 0. -1.
        -11    1    3    3    0    0  0.21506697128E+02 -0.10351729149E+02 -0.53807645757E+01  0.24467303599E+02  0.51100000000E-03 0.  1.
         12    1    3    3    0    0  0.44654983407E+00  0.14554774316E+01  0.53896479118E+01  0.56005469305E+01  0.00000000000E+00 0. -1.
</event>
<event>
 7    1  0.2432574E-011  0.5052886E+02  0.7816164E-02  0.1300439E+00
        -11   -1    0    0    0    0  0.00000000000E+00  0.00000000000E+00  0.45593999997E+02  0.45594000000E+02  0.51100000000E-03 0.  1.
         11   -1    0    0    0    0 -0.00000000000E+00 -0.00000000000E+00 -0.45593999997E+02  0.45594000000E+02  0.51100000000E-03 0. -1.
    9900012    2    1    2    0    0 -0.33398851812E+02  0.13796609617E+02  0.18636950983E+02  0.50528859807E+02  0.29999999871E+02 0.  0.
         12    1    1    2    0    0  0.33398851812E+02 -0.13796609617E+02 -0.18636950983E+02  0.40659140193E+02  0.00000000000E+00 0. -1.
         11    1    3    3    0    0 -0.56451581338E+01  0.15062449240E+00 -0.39505879606E+01  0.68918534219E+01  0.51100000000E-03 0. -1.
        -11    1    3    3    0    0 -0.16971504256E+02 -0.24855295710E+01  0.61973141668E+01  0.18237777198E+02  0.51100000000E-03 0.  1.
         12    1    3    3    0    0 -0.10782189421E+02  0.16131514695E+02  0.16390224777E+02  0.25399229188E+02  0.00000000000E+00 0. -1.
</event>
<event>
 7    1  0.2432574E-011  0.5052886E+02  0.7816164E-02  0.1300439E+00
        -11   -1    0    0    0    0  0.00000000000E+00  0.00000000000E+00  0.45593999997E+02  0.45594000000E+02  0.51100000000E-03 0.  1.
         11   -1    0    0    0    0 -0.00000000000E+00 -0.00000000000E+00 -0.45593999997E+02  0.45594000000E+02  0.51100000000E-03 0. -1.
    9900012    2    1    2    0    0 -0.29145443469E+02  0.22635082861E+02 -0.17069328820E+02  0.50528857885E+02  0.29999994027E+02 0.  0.
         12    1    1    2    0    0  0.29145443469E+02 -0.22635082861E+02  0.17069328820E+02  0.40659142115E+02  0.00000000000E+00 0. -1.
         11    1    3    3    0    0 -0.11547735779E+02  0.17843801614E+02 -0.75745211644E+01  0.22563794645E+02  0.51100000000E-03 0. -1.
        -11    1    3    3    0    0  0.40660623287E+01  0.71175529601E+00 -0.25520756674E+01  0.48530968397E+01  0.51100000000E-03 0.  1.
        -12    1    3    3    0    0 -0.21663770019E+02  0.40795259518E+01 -0.69427319887E+01  0.23111966401E+02  0.00000000000E+00 0.  1.
</event>
<event>
 7    1  0.2432574E-011  0.5052886E+02  0.7816164E-02  0.1300439E+00
        -11   -1    0    0    0    0  0.00000000000E+00  0.00000000000E+00  0.45593999997E+02  0.45594000000E+02  0.51100000000E-03 0. -1.
         11   -1    0    0    0    0 -0.00000000000E+00 -0.00000000000E+00 -0.45593999997E+02  0.45594000000E+02  0.51100000000E-03 0.  1.
    9900012    2    1    2    0    0  0.16354881795E+02  0.32532637610E+02 -0.18091742607E+02  0.50528858114E+02  0.29999994723E+02 0.  0.
         12    1    1    2    0    0 -0.16354881795E+02 -0.32532637610E+02  0.18091742607E+02  0.40659141886E+02  0.00000000000E+00 0. -1.
         11    1    3    3    0    0  0.55105373842E+01  0.68228951941E+00 -0.63485689168E+01  0.84342082499E+01  0.51100000000E-03 0. -1.
        -11    1    3    3    0    0  0.76919475643E+01  0.34920034654E+02 -0.11918235622E+02  0.37691102639E+02  0.51100000000E-03 0.  1.
         12    1    3    3    0    0  0.31523968467E+01 -0.30696865637E+01  0.17506193224E+00  0.44035472245E+01  0.00000000000E+00 0. -1.
</event>
<event>
 7    1  0.2432574E-011  0.5052886E+02  0.7816164E-02  0.1300439E+00
        -11   -1    0    0    0    0  0.00000000000E+00  0.00000000000E+00  0.45593999997E+02  0.45594000000E+02  0.51100000000E-03 0. -1.
         11   -1    0    0    0    0 -0.00000000000E+00 -0.00000000000E+00 -0.45593999997E+02  0.45594000000E+02  0.51100000000E-03 0.  1.
    9900012    2    1    2    0    0 -0.26538905494E+02 -0.28321858821E+02 -0.12112973672E+02  0.50528864211E+02  0.30000013257E+02 0.  0.
         12    1    1    2    0    0  0.26538905494E+02  0.28321858821E+02  0.12112973672E+02  0.40659135789E+02  0.00000000000E+00 0. -1.
         11    1    3    3    0    0 -0.67624901358E+01 -0.20962611742E+02 -0.83229175366E+01  0.23546407804E+02  0.51100000000E-03 0. -1.
        -11    1    3    3    0    0 -0.10606704832E+02 -0.64357369683E+01 -0.99446691085E+01  0.15900230868E+02  0.51100000000E-03 0.  1.
         12    1    3    3    0    0 -0.91697105266E+01 -0.92351011011E+00  0.61546129727E+01  0.11082225540E+02  0.00000000000E+00 0. -1.
</event>
<event>
 7    1  0.2432574E-011  0.5052886E+02  0.7816164E-02  0.1300439E+00
        -11   -1    0    0    0    0  0.00000000000E+00  0.00000000000E+00  0.45593999997E+02  0.45594000000E+02  0.51100000000E-03 0. -1.
         11   -1    0    0    0    0 -0.00000000000E+00 -0.00000000000E+00 -0.45593999997E+02  0.45594000000E+02  0.51100000000E-03 0.  1.
    9900012    2    1    2    0    0  0.78519998417E-01  0.28745747558E+02 -0.28754848655E+02  0.50528862168E+02  0.30000007045E+02 0.  0.
         12    1    1    2    0    0 -0.78519998417E-01 -0.28745747558E+02  0.28754848655E+02  0.40659137832E+02  0.00000000000E+00 0. -1.
         11    1    3    3    0    0  0.35047621375E+00 -0.19461011125E+00  0.47067420218E+01  0.47237831652E+01  0.51100000000E-03 0. -1.
        -11    1    3    3    0    0 -0.12729027074E+01  0.27301535401E+01  0.32779585304E+00  0.30300940642E+01  0.51100000000E-03 0.  1.
        -12    1    3    3    0    0  0.10009464921E+01  0.26210204129E+02 -0.33789386530E+02  0.42774984938E+02  0.00000000000E+00 0.  1.
</event>
<event>
 7    1  0.2432574E-011  0.5052886E+02  0.7816164E-02  0.1300439E+00
        -11   -1    0    0    0    0  0.00000000000E+00  0.00000000000E+00  0.45593999997E+02  0.45594000000E+02  0.51100000000E-03 0. -1.
         11   -1    0    0    0    0 -0.00000000000E+00 -0.00000000000E+00 -0.45593999997E+02  0.45594000000E+02  0.51100000000E-03 0.  1.
    9900012    2    1    2    0    0 -0.25951813236E+02  0.12248902496E+02 -0.28803361960E+02  0.50528857328E+02  0.29999992335E+02 0.  0.
         12    1    1    2    0    0  0.25951813236E+02 -0.12248902496E+02  0.28803361960E+02  0.40659142672E+02  0.00000000000E+00 0. -1.
         11    1    3    3    0    0  0.32953198874E+01 -0.10526717471E+01  0.71207237929E-01  0.34601042902E+01  0.51100000000E-03 0. -1.
        -11    1    3    3    0    0 -0.20148987719E+02  0.47639014428E+00 -0.99900901679E+01  0.22494678382E+02  0.51100000000E-03 0.  1.
        -12    1    3    3    0    0 -0.90981454042E+01  0.12825184099E+02 -0.18884479030E+02  0.24574074656E+02  0.00000000000E+00 0.  1.
</event>
<event>
 7    1  0.2432574E-011  0.5052886E+02  0.7816164E-02  0.1300439E+00
        -11   -1    0    0    0    0  0.00000000000E+00  0.00000000000E+00  0.45593999997E+02  0.45594000000E+02  0.51100000000E-03 0. -1.
         11   -1    0    0    0    0 -0.00000000000E+00 -0.00000000000E+00 -0.45593999997E+02  0.45594000000E+02  0.51100000000E-03 0.  1.
    9900012    2    1    2    0    0 -0.11484816178E+02 -0.35353713052E+02 -0.16473611991E+02  0.50528856856E+02  0.29999990898E+02 0.  0.
         12    1    1    2    0    0  0.11484816178E+02  0.35353713052E+02  0.16473611991E+02  0.40659143144E+02  0.00000000000E+00 0. -1.
         11    1    3    3    0    0 -0.28171378207E+01 -0.39299938844E+01  0.33425666987E+01  0.58782539779E+01  0.51100000000E-03 0. -1.
        -11    1    3    3    0    0 -0.13169244766E+02 -0.91042304252E+01 -0.13707870353E+02  0.21076568250E+02  0.51100000000E-03 0.  1.
         12    1    3    3    0    0  0.45015664090E+01 -0.22319488743E+02 -0.61083083369E+01  0.23574034627E+02  0.00000000000E+00 0. -1.
</event>
<event>
 7    1  0.2432574E-011  0.5052885E+02  0.7816164E-02  0.1300439E+00
        -11   -1    0    0    0    0  0.00000000000E+00  0.00000000000E+00  0.45593999997E+02  0.45594000000E+02  0.51100000000E-03 0.  1.
         11   -1    0    0    0    0 -0.00000000000E+00 -0.00000000000E+00 -0.45593999997E+02  0.45594000000E+02  0.51100000000E-03 0. -1.
    9900012    2    1    2    0    0  0.10134167526E+02  0.39260050021E+01  0.39179731699E+02  0.50528852902E+02  0.29999978881E+02 0.  0.
         12    1    1    2    0    0 -0.10134167526E+02 -0.39260050021E+01 -0.39179731699E+02  0.40659147098E+02  0.00000000000E+00 0. -1.
         11    1    3    3    0    0  0.51663154650E+01  0.16502777611E+01  0.19214480969E+02  0.19965232564E+02  0.51100000000E-03 0.  1.
        -11    1    3    3    0    0 -0.54603418411E+01 -0.36755072447E+01  0.16951156707E+02  0.18184234944E+02  0.51100000000E-03 0. -1.
         12    1    3    3    0    0  0.10428193902E+02  0.59512344856E+01  0.30140940233E+01  0.12379385394E+02  0.00000000000E+00 0. -1.
</event>
<event>
 7    1  0.2432574E-011  0.5052886E+02  0.7816164E-02  0.1300439E+00
        -11   -1    0    0    0    0  0.00000000000E+00  0.00000000000E+00  0.45593999997E+02  0.45594000000E+02  0.51100000000E-03 0.  1.
         11   -1    0    0    0    0 -0.00000000000E+00 -0.00000000000E+00 -0.45593999997E+02  0.45594000000E+02  0.51100000000E-03 0. -1.
    9900012    2    1    2    0    0 -0.17852691754E+02 -0.35567355352E+02  0.83313017196E+01  0.50528856404E+02  0.29999989526E+02 0.  0.
         12    1    1    2    0    0  0.17852691754E+02  0.35567355352E+02 -0.83313017196E+01  0.40659143596E+02  0.00000000000E+00 0. -1.
         11    1    3    3    0    0 -0.69574428915E+01 -0.10331383933E+02  0.38562195547E-01  0.12455721290E+02  0.51100000000E-03 0.  1.
        -11    1    3    3    0    0 -0.82227008894E+01 -0.42612241753E+00  0.10127696336E+02  0.13052379997E+02  0.51100000000E-03 0. -1.
         12    1    3    3    0    0 -0.26725479733E+01 -0.24809849002E+02 -0.18349568122E+01  0.25020755118E+02  0.00000000000E+00 0. -1.
</event>
<event>
 7    1  0.2432574E-011  0.5052886E+02  0.7816164E-02  0.1300439E+00
        -11   -1    0    0    0    0  0.00000000000E+00  0.00000000000E+00  0.45593999997E+02  0.45594000000E+02  0.51100000000E-03 0.  1.
         11   -1    0    0    0    0 -0.00000000000E+00 -0.00000000000E+00 -0.45593999997E+02  0.45594000000E+02  0.51100000000E-03 0. -1.
    9900012    2    1    2    0    0  0.21412146533E+00 -0.40609724910E+02 -0.19925499347E+01  0.50528857602E+02  0.29999993168E+02 0.  0.
         12    1    1    2    0    0 -0.21412146533E+00  0.40609724910E+02  0.19925499347E+01  0.40659142398E+02  0.00000000000E+00 0. -1.
         11    1    3    3    0    0  0.25924471636E+01 -0.40758866467E+01 -0.99804264153E+01  0.11087945975E+02  0.51100000000E-03 0. -1.
        -11    1    3    3    0    0  0.47155190835E+01 -0.98655292976E+01  0.10392558526E+01  0.10983844570E+02  0.51100000000E-03 0.  1.
         12    1    3    3    0    0 -0.70938447817E+01 -0.26668308966E+02  0.69486206281E+01  0.28457067057E+02  0.00000000000E+00 0. -1.
</event>
<event>
 7    1  0.2432574E-011  0.5052886E+02  0.7816164E-02  0.1300439E+00
        -11   -1    0    0    0    0  0.00000000000E+00  0.00000000000E+00  0.45593999997E+02  0.45594000000E+02  0.51100000000E-03 0.  1.
         11   -1    0    0    0    0 -0.00000000000E+00 -0.00000000000E+00 -0.45593999997E+02  0.45594000000E+02  0.51100000000E-03 0. -1.
    9900012    2    1    2    0    0 -0.25941535190E+02 -0.19824802123E+02  0.24231785078E+02  0.50528862831E+02  0.30000009061E+02 0.  0.
         12    1    1    2    0    0  0.25941535190E+02  0.19824802123E+02 -0.24231785078E+02  0.40659137169E+02  0.00000000000E+00 0. -1.
         11    1    3    3    0    0 -0.25573233923E+01 -0.11321645774E+02  0.74859072653E+01  0.13811530465E+02  0.51100000000E-03 0.  1.
        -11    1    3    3    0    0 -0.62354859581E+01  0.18995333049E+01  0.15273230901E+02  0.16606055953E+02  0.51100000000E-03 0. -1.
         12    1    3    3    0    0 -0.17148725840E+02 -0.10402689655E+02  0.14726469117E+01  0.20111276412E+02  0.00000000000E+00 0. -1.
</event>
<event>
 7    1  0.2432574E-011  0.5052887E+02  0.7816164E-02  0.1300439E+00
        -11   -1    0    0    0    0  0.00000000000E+00  0.00000000000E+00  0.45593999997E+02  0.45594000000E+02  0.51100000000E-03 0.  1.
         11   -1    0    0    0    0 -0.00000000000E+00 -0.00000000000E+00 -0.45593999997E+02  0.45594000000E+02  0.51100000000E-03 0. -1.
    9900012    2    1    2    0    0  0.77770905190E+01  0.39405343240E+02 -0.63167222960E+01  0.50528865807E+02  0.30000018106E+02 0.  0.
         12    1    1    2    0    0 -0.77770905190E+01 -0.39405343240E+02  0.63167222960E+01  0.40659134193E+02  0.00000000000E+00 0. -1.
         11    1    3    3    0    0  0.10081957543E+02  0.21294935640E+02  0.49260050782E+01  0.24070431615E+02  0.51100000000E-03 0.  1.
        -11    1    3    3    0    0 -0.33483775821E+01  0.12177197954E+02  0.11476054685E+01  0.12681197933E+02  0.51100000000E-03 0. -1.
         12    1    3    3    0    0  0.10435105578E+01  0.59332096457E+01 -0.12390332843E+02  0.13777236259E+02  0.00000000000E+00 0. -1.
</event>
<event>
 7    1  0.2432574E-011  0.5052887E+02  0.7816164E-02  0.1300439E+00
        -11   -1    0    0    0    0  0.00000000000E+00  0.00000000000E+00  0.45593999997E+02  0.45594000000E+02  0.51100000000E-03 0.  1.
         11   -1    0    0    0    0 -0.00000000000E+00 -0.00000000000E+00 -0.45593999997E+02  0.45594000000E+02  0.51100000000E-03 0. -1.
    9900012    2    1    2    0    0  0.10577519500E+02 -0.33927223161E+02  0.19754099031E+02  0.50528870413E+02  0.30000032109E+02 0.  0.
         12    1    1    2    0    0 -0.10577519500E+02  0.33927223161E+02 -0.19754099031E+02  0.40659129587E+02  0.00000000000E+00 0. -1.
         11    1    3    3    0    0  0.82757908682E+01 -0.27504378224E+02  0.56116001931E+01  0.29265501755E+02  0.51100000000E-03 0. -1.
        -11    1    3    3    0    0  0.24884433298E+01 -0.90109544270E+01  0.15674180395E+02  0.18250194004E+02  0.51100000000E-03 0.  1.
        -12    1    3    3    0    0 -0.18671469828E+00  0.25881094893E+01 -0.15316815567E+01  0.30131746545E+01  0.00000000000E+00 0.  1.
</event>
<event>
 7    1  0.2432574E-011  0.5052886E+02  0.7816164E-02  0.1300439E+00
        -11   -1    0    0    0    0  0.00000000000E+00  0.00000000000E+00  0.45593999997E+02  0.45594000000E+02  0.51100000000E-03 0.  1.
         11   -1    0    0    0    0 -0.00000000000E+00 -0.00000000000E+00 -0.45593999997E+02  0.45594000000E+02  0.51100000000E-03 0. -1.
    9900012    2    1    2    0    0  0.19765578384E+02  0.13684847653E+02  0.32790431063E+02  0.50528861871E+02  0.30000006142E+02 0.  0.
         12    1    1    2    0    0 -0.19765578384E+02 -0.13684847653E+02 -0.32790431063E+02  0.40659138129E+02  0.00000000000E+00 0. -1.
         11    1    3    3    0    0  0.22692394270E+01  0.15478225625E+02  0.86886776223E+01  0.17894637050E+02  0.51100000000E-03 0. -1.
        -11    1    3    3    0    0  0.66174993771E+01  0.50470866612E+01  0.14005975187E+02  0.16292075465E+02  0.51100000000E-03 0.  1.
         12    1    3    3    0    0  0.10878839580E+02 -0.68404646332E+01  0.10095778254E+02  0.16342149355E+02  0.00000000000E+00 0. -1.
</event>
<event>
 7    1  0.2432574E-011  0.5052886E+02  0.7816164E-02  0.1300439E+00
        -11   -1    0    0    0    0  0.00000000000E+00  0.00000000000E+00  0.45593999997E+02  0.45594000000E+02  0.51100000000E-03 0.  1.
         11   -1    0    0    0    0 -0.00000000000E+00 -0.00000000000E+00 -0.45593999997E+02  0.45594000000E+02  0.51100000000E-03 0. -1.
    9900012    2    1    2    0    0  0.35499129190E+01  0.40488934192E+02  0.11001468594E+01  0.50528855925E+02  0.29999988071E+02 0.  0.
         12    1    1    2    0    0 -0.35499129190E+01 -0.40488934192E+02 -0.11001468594E+01  0.40659144075E+02  0.00000000000E+00 0. -1.
         11    1    3    3    0    0  0.58505738139E+01  0.40090178183E+02 -0.58100360346E+01  0.40929306367E+02  0.51100000000E-03 0. -1.
        -11    1    3    3    0    0 -0.24700493247E+01  0.19091054358E+01  0.69104632978E+00  0.31974009011E+01  0.51100000000E-03 0.  1.
         12    1    3    3    0    0  0.16938842978E+00 -0.15103494261E+01  0.62191365642E+01  0.64021486576E+01  0.00000000000E+00 0. -1.
</event>
<event>
 7    1  0.2432574E-011  0.5052886E+02  0.7816164E-02  0.1300439E+00
        -11   -1    0    0    0    0  0.00000000000E+00  0.00000000000E+00  0.45593999997E+02  0.45594000000E+02  0.51100000000E-03 0.  1.
         11   -1    0    0    0    0 -0.00000000000E+00 -0.00000000000E+00 -0.45593999997E+02  0.45594000000E+02  0.51100000000E-03 0. -1.
    9900012    2    1    2    0    0  0.39523245903E+02  0.72433773240E+01  0.62138942249E+01  0.50528856339E+02  0.29999989329E+02 0.  0.
         12    1    1    2    0    0 -0.39523245903E+02 -0.72433773240E+01 -0.62138942249E+01  0.40659143661E+02  0.00000000000E+00 0. -1.
         11    1    3    3    0    0 -0.34280610303E+00 -0.38506231381E+01  0.74383198768E+00  0.39367627390E+01  0.51100000000E-03 0. -1.
        -11    1    3    3    0    0  0.34394950101E+02  0.75971459804E+01 -0.36326898464E+01  0.35410812689E+02  0.51100000000E-03 0.  1.
         12    1    3    3    0    0  0.54711019054E+01  0.34968544818E+01  0.91027520835E+01  0.11181280911E+02  0.00000000000E+00 0. -1.
</event>
<event>
 7    1  0.2432574E-011  0.5052885E+02  0.7816164E-02  0.1300439E+00
        -11   -1    0    0    0    0  0.00000000000E+00  0.00000000000E+00  0.45593999997E+02  0.45594000000E+02  0.51100000000E-03 0.  1.
         11   -1    0    0    0    0 -0.00000000000E+00 -0.00000000000E+00 -0.45593999997E+02  0.45594000000E+02  0.51100000000E-03 0. -1.
    9900012    2    1    2    0    0 -0.51964854377E+01  0.14938337551E+01  0.40298030036E+02  0.50528853120E+02  0.29999979544E+02 0.  0.
         12    1    1    2    0    0  0.51964854377E+01 -0.14938337551E+01 -0.40298030036E+02  0.40659146880E+02  0.00000000000E+00 0. -1.
         11    1    3    3    0    0  0.57769427912E+00  0.30652237682E+01  0.25003031452E+02  0.25196843245E+02  0.51100000000E-03 0.  1.
        -11    1    3    3    0    0 -0.66555339712E+01 -0.87748639686E+01  0.14234644872E+02  0.17997763333E+02  0.51100000000E-03 0. -1.
         12    1    3    3    0    0  0.88135425442E+00  0.72034739556E+01  0.10603537121E+01  0.73342465424E+01  0.00000000000E+00 0. -1.
</event>
<event>
 7    1  0.2432574E-011  0.5052886E+02  0.7816164E-02  0.1300439E+00
        -11   -1    0    0    0    0  0.00000000000E+00  0.00000000000E+00  0.45593999997E+02  0.45594000000E+02  0.51100000000E-03 0.  1.
         11   -1    0    0    0    0 -0.00000000000E+00 -0.00000000000E+00 -0.45593999997E+02  0.45594000000E+02  0.51100000000E-03 0. -1.
    9900012    2    1    2    0    0  0.36373826949E+02  0.59942469852E+00  0.18159042404E+02  0.50528863045E+02  0.30000009711E+02 0.  0.
         12    1    1    2    0    0 -0.36373826949E+02 -0.59942469852E+00 -0.18159042404E+02  0.40659136955E+02  0.00000000000E+00 0. -1.
         11    1    3    3    0    0  0.23678423652E+01 -0.35660052633E+01  0.82465610800E+01  0.92913314929E+01  0.51100000000E-03 0. -1.
        -11    1    3    3    0    0  0.89761478748E+01 -0.71204438625E+01 -0.13983967105E+01  0.11542420244E+02  0.51100000000E-03 0.  1.
         12    1    3    3    0    0  0.25029836709E+02  0.11285873824E+02  0.11310878035E+02  0.29695111308E+02  0.00000000000E+00 0. -1.
</event>
<event>
 7    1  0.2432574E-011  0.5052888E+02  0.7816164E-02  0.1300439E+00
        -11   -1    0    0    0    0  0.00000000000E+00  0.00000000000E+00  0.45593999997E+02  0.45594000000E+02  0.51100000000E-03 0. -1.
         11   -1    0    0    0    0 -0.00000000000E+00 -0.00000000000E+00 -0.45593999997E+02  0.45594000000E+02  0.51100000000E-03 0.  1.
    9900012    2    1    2    0    0  0.15746177340E+02  0.29001580623E+02 -0.23751421877E+02  0.50528882688E+02  0.30000069417E+02 0.  0.
         12    1    1    2    0    0 -0.15746177340E+02 -0.29001580623E+02  0.23751421877E+02  0.40659117312E+02  0.00000000000E+00 0. -1.
         11    1    3    3    0    0 -0.36109116831E+01  0.18610985381E+01 -0.32180110091E+01  0.51824671796E+01  0.51100000000E-03 0. -1.
        -11    1    3    3    0    0  0.30680462660E+01  0.33848244300E+01  0.50583149471E+01  0.68159001370E+01  0.51100000000E-03 0.  1.
        -12    1    3    3    0    0  0.16289042757E+02  0.23755657655E+02 -0.25591725815E+02  0.38530515371E+02  0.00000000000E+00 0.  1.
</event>
<event>
 7    1  0.2432574E-011  0.5052886E+02  0.7816164E-02  0.1300439E+00
        -11   -1    0    0    0    0  0.00000000000E+00  0.00000000000E+00  0.45593999997E+02  0.45594000000E+02  0.51100000000E-03 0.  1.
         11   -1    0    0    0    0 -0.00000000000E+00 -0.00000000000E+00 -0.45593999997E+02  0.45594000000E+02  0.51100000000E-03 0. -1.
    9900012    2    1    2    0    0  0.16350782295E+02 -0.27827826548E+02  0.24727100216E+02  0.50528862071E+02  0.30000006751E+02 0.  0.
         12    1    1    2    0    0 -0.16350782295E+02  0.27827826548E+02 -0.24727100216E+02  0.40659137929E+02  0.00000000000E+00 0. -1.
         11    1    3    3    0    0  0.70380691643E+01  0.44342340974E+01  0.37196718089E+01  0.91122339862E+01  0.51100000000E-03 0. -1.
        -11    1    3    3    0    0  0.46379891289E+01 -0.54565910577E+01  0.94421961985E+01  0.11850755185E+02  0.51100000000E-03 0.  1.
         12    1    3    3    0    0  0.46747240015E+01 -0.26805469588E+02  0.11565232209E+02  0.29565872900E+02  0.00000000000E+00 0. -1.
</event>
<event>
 7    1  0.2432574E-011  0.5052888E+02  0.7816164E-02  0.1300439E+00
        -11   -1    0    0    0    0  0.00000000000E+00  0.00000000000E+00  0.45593999997E+02  0.45594000000E+02  0.51100000000E-03 0.  1.
         11   -1    0    0    0    0 -0.00000000000E+00 -0.00000000000E+00 -0.45593999997E+02  0.45594000000E+02  0.51100000000E-03 0. -1.
    9900012    2    1    2    0    0  0.31374432919E+02  0.86019316062E+01  0.24388844630E+02  0.50528880349E+02  0.30000062310E+02 0.  0.
         12    1    1    2    0    0 -0.31374432919E+02 -0.86019316062E+01 -0.24388844630E+02  0.40659119651E+02  0.00000000000E+00 0. -1.
         11    1    3    3    0    0  0.72302882789E+01  0.13268486869E+02  0.55640452639E+01  0.16102434982E+02  0.51100000000E-03 0. -1.
        -11    1    3    3    0    0  0.93316699395E+01  0.79250746548E+00  0.15778875158E+02  0.18348870086E+02  0.51100000000E-03 0.  1.
        -12    1    3    3    0    0  0.14812474701E+02 -0.54590627282E+01  0.30459242087E+01  0.16077575281E+02  0.00000000000E+00 0.  1.
</event>
<event>
 7    1  0.2432574E-011  0.5052884E+02  0.7816164E-02  0.1300439E+00
        -11   -1    0    0    0    0  0.00000000000E+00  0.00000000000E+00  0.45593999997E+02  0.45594000000E+02  0.51100000000E-03 0.  1.
         11   -1    0    0    0    0 -0.00000000000E+00 -0.00000000000E+00 -0.45593999997E+02  0.45594000000E+02  0.51100000000E-03 0. -1.
    9900012    2    1    2    0    0  0.19162194750E+02  0.11650199809E+02  0.33915347455E+02  0.50528835520E+02  0.29999926047E+02 0.  0.
         12    1    1    2    0    0 -0.19162194750E+02 -0.11650199809E+02 -0.33915347455E+02  0.40659164480E+02  0.00000000000E+00 0. -1.
         11    1    3    3    0    0 -0.39607988154E+01  0.25588358264E+01 -0.65994249397E-01  0.47159223430E+01  0.51100000000E-03 0. -1.
        -11    1    3    3    0    0  0.52566945938E+01 -0.18774967218E+01  0.19625922774E+02  0.20404280850E+02  0.51100000000E-03 0.  1.
         12    1    3    3    0    0  0.17866298972E+02  0.10968860704E+02  0.14355418930E+02  0.25408632328E+02  0.00000000000E+00 0. -1.
</event>
<event>
 7    1  0.2432574E-011  0.5052887E+02  0.7816164E-02  0.1300439E+00
        -11   -1    0    0    0    0  0.00000000000E+00  0.00000000000E+00  0.45593999997E+02  0.45594000000E+02  0.51100000000E-03 0.  1.
         11   -1    0    0    0    0 -0.00000000000E+00 -0.00000000000E+00 -0.45593999997E+02  0.45594000000E+02  0.51100000000E-03 0. -1.
    9900012    2    1    2    0    0  0.48331591633E+01 -0.16781117509E+02  0.36717838384E+02  0.50528868333E+02  0.30000025784E+02 0.  0.
         12    1    1    2    0    0 -0.48331591633E+01  0.16781117509E+02 -0.36717838384E+02  0.40659131667E+02  0.00000000000E+00 0. -1.
         11    1    3    3    0    0 -0.41982032215E+01 -0.12064544739E+02  0.22461687915E+02  0.25839999503E+02  0.51100000000E-03 0.  1.
        -11    1    3    3    0    0  0.21190812699E+01  0.31659521510E+01  0.13667333488E+02  0.14188367186E+02  0.51100000000E-03 0. -1.
         12    1    3    3    0    0  0.69122811150E+01 -0.78825249209E+01  0.58881698052E+00  0.10500501644E+02  0.00000000000E+00 0. -1.
</event>
<event>
 7    1  0.2432574E-011  0.5052886E+02  0.7816164E-02  0.1300439E+00
        -11   -1    0    0    0    0  0.00000000000E+00  0.00000000000E+00  0.45593999997E+02  0.45594000000E+02  0.51100000000E-03 0.  1.
         11   -1    0    0    0    0 -0.00000000000E+00 -0.00000000000E+00 -0.45593999997E+02  0.45594000000E+02  0.51100000000E-03 0. -1.
    9900012    2    1    2    0    0 -0.31162940665E+02 -0.11463906902E+02  0.23465198660E+02  0.50528861045E+02  0.30000003634E+02 0.  0.
         12    1    1    2    0    0  0.31162940665E+02  0.11463906902E+02 -0.23465198660E+02  0.40659138955E+02  0.00000000000E+00 0. -1.
         11    1    3    3    0    0  0.28092446625E+01 -0.80722235875E+01  0.54436093578E+01  0.10133387011E+02  0.51100000000E-03 0. -1.
        -11    1    3    3    0    0 -0.82122699593E+01 -0.43777658469E+01  0.93635247698E+01  0.13201583544E+02  0.51100000000E-03 0.  1.
         12    1    3    3    0    0 -0.25759915368E+02  0.98608253195E+00  0.86580645327E+01  0.27193890490E+02  0.00000000000E+00 0. -1.
</event>
<event>
 7    1  0.2432574E-011  0.5052885E+02  0.7816164E-02  0.1300439E+00
        -11   -1    0    0    0    0  0.00000000000E+00  0.00000000000E+00  0.45593999997E+02  0.45594000000E+02  0.51100000000E-03 0. -1.
         11   -1    0    0    0    0 -0.00000000000E+00 -0.00000000000E+00 -0.45593999997E+02  0.45594000000E+02  0.51100000000E-03 0.  1.
    9900012    2    1    2    0    0  0.18564883307E+02 -0.20565352699E+02 -0.29758663567E+02  0.50528847511E+02  0.29999962494E+02 0.  0.
         12    1    1    2    0    0 -0.18564883307E+02  0.20565352699E+02  0.29758663567E+02  0.40659152489E+02  0.00000000000E+00 0. -1.
         11    1    3    3    0    0  0.11117501745E+01  0.25951401732E+01  0.26870666258E+01  0.38975721009E+01  0.51100000000E-03 0. -1.
        -11    1    3    3    0    0  0.22882760225E+01  0.11186729027E+01 -0.98151698785E+01  0.10140275944E+02  0.51100000000E-03 0.  1.
        -12    1    3    3    0    0  0.15164857110E+02 -0.24279165775E+02 -0.22630560314E+02  0.36490999466E+02  0.00000000000E+00 0.  1.
</event>
<event>
 7    1  0.2432574E-011  0.5052886E+02  0.7816164E-02  0.1300439E+00
        -11   -1    0    0    0    0  0.00000000000E+00  0.00000000000E+00  0.45593999997E+02  0.45594000000E+02  0.51100000000E-03 0.  1.
         11   -1    0    0    0    0 -0.00000000000E+00 -0.00000000000E+00 -0.45593999997E+02  0.45594000000E+02  0.51100000000E-03 0. -1.
    9900012    2    1    2    0    0 -0.38047949979E+01  0.24985694615E+01  0.40403541444E+02  0.50528862337E+02  0.30000007558E+02 0.  0.
         12    1    1    2    0    0  0.38047949979E+01 -0.24985694615E+01 -0.40403541444E+02  0.40659137663E+02  0.00000000000E+00 0. -1.
         11    1    3    3    0    0 -0.58243120990E+01 -0.88801685847E+01  0.98149003082E+01  0.14460714845E+02  0.51100000000E-03 0. -1.
        -11    1    3    3    0    0  0.33875629830E+00  0.80683133501E+00  0.22831677627E+02  0.22848440563E+02  0.51100000000E-03 0.  1.
         12    1    3    3    0    0  0.16807608028E+01  0.10571906711E+02  0.77569635083E+01  0.13219706928E+02  0.00000000000E+00 0. -1.
</event>
<event>
 7    1  0.2432574E-011  0.5052887E+02  0.7816164E-02  0.1300439E+00
        -11   -1    0    0    0    0  0.00000000000E+00  0.00000000000E+00  0.45593999997E+02  0.45594000000E+02  0.51100000000E-03 0.  1.
         11   -1    0    0    0    0 -0.00000000000E+00 -0.00000000000E+00 -0.45593999997E+02  0.45594000000E+02  0.51100000000E-03 0. -1.
    9900012    2    1    2    0    0  0.13095123926E+02 -0.28020339667E+02  0.26392100341E+02  0.50528872291E+02  0.30000037815E+02 0.  0.
         12    1    1    2    0    0 -0.13095123926E+02  0.28020339667E+02 -0.26392100341E+02  0.40659127709E+02  0.00000000000E+00 0. -1.
         11    1    3    3    0    0 -0.48024879200E+01 -0.13578154364E+02  0.13446666152E+02  0.19703882791E+02  0.51100000000E-03 0. -1.
        -11    1    3    3    0    0  0.10746368596E+02 -0.86436129534E+01  0.16001319483E+02  0.21124362910E+02  0.51100000000E-03 0.  1.
        -12    1    3    3    0    0  0.71512432500E+01 -0.57985723490E+01 -0.30558852943E+01  0.97006265900E+01  0.00000000000E+00 0.  1.
</event>
<event>
 7    1  0.2432574E-011  0.5052886E+02  0.7816164E-02  0.1300439E+00
        -11   -1    0    0    0    0  0.00000000000E+00  0.00000000000E+00  0.45593999997E+02  0.45594000000E+02  0.51100000000E-03 0.  1.
         11   -1    0    0    0    0 -0.00000000000E+00 -0.00000000000E+00 -0.45593999997E+02  0.45594000000E+02  0.51100000000E-03 0. -1.
    9900012    2    1    2    0    0  0.37500636426E+02 -0.23888540617E+01 -0.15529360016E+02  0.50528863529E+02  0.30000011182E+02 0.  0.
         12    1    1    2    0    0 -0.37500636426E+02  0.23888540617E+01  0.15529360016E+02  0.40659136471E+02  0.00000000000E+00 0. -1.
         11    1    3    3    0    0  0.16208828024E+01  0.44048248951E+01  0.29275621492E+01  0.55317595586E+01  0.51100000000E-03 0.  1.
        -11    1    3    3    0    0  0.59889822201E+01  0.11378133749E+01  0.35375198878E+01  0.70481610741E+01  0.51100000000E-03 0. -1.
         12    1    3    3    0    0  0.29890771404E+02 -0.79314923317E+01 -0.21994442053E+02  0.37948942896E+02  0.00000000000E+00 0. -1.
</event>
<event>
 7    1  0.2432574E-011  0.5052885E+02  0.7816164E-02  0.1300439E+00
        -11   -1    0    0    0    0  0.00000000000E+00  0.00000000000E+00  0.45593999997E+02  0.45594000000E+02  0.51100000000E-03 0. -1.
         11   -1    0    0    0    0 -0.00000000000E+00 -0.00000000000E+00 -0.45593999997E+02  0.45594000000E+02  0.51100000000E-03 0.  1.
    9900012    2    1    2    0    0  0.60290843481E+01  0.36792699164E+02 -0.16220773925E+02  0.50528854945E+02  0.29999985091E+02 0.  0.
         12    1    1    2    0    0 -0.60290843481E+01 -0.36792699164E+02  0.16220773925E+02  0.40659145055E+02  0.00000000000E+00 0. -1.
         11    1    3    3    0    0 -0.52073785991E+00 -0.15871381055E+01  0.81706963581E+00  0.18595102408E+01  0.51100000000E-03 0. -1.
        -11    1    3    3    0    0 -0.56720923191E+01  0.17456316986E+02 -0.16107021000E+02  0.24419904991E+02  0.51100000000E-03 0.  1.
         12    1    3    3    0    0  0.12221914527E+02  0.20923520283E+02 -0.93082256075E+00  0.24249439713E+02  0.00000000000E+00 0. -1.
</event>
<event>
 7    1  0.2432574E-011  0.5052886E+02  0.7816164E-02  0.1300439E+00
        -11   -1    0    0    0    0  0.00000000000E+00  0.00000000000E+00  0.45593999997E+02  0.45594000000E+02  0.51100000000E-03 0.  1.
         11   -1    0    0    0    0 -0.00000000000E+00 -0.00000000000E+00 -0.45593999997E+02  0.45594000000E+02  0.51100000000E-03 0. -1.
    9900012    2    1    2    0    0  0.11728539223E+02 -0.34062797187E+02  0.18850277743E+02  0.50528858894E+02  0.29999997094E+02 0.  0.
         12    1    1    2    0    0 -0.11728539223E+02  0.34062797187E+02 -0.18850277743E+02  0.40659141106E+02  0.00000000000E+00 0. -1.
         11    1    3    3    0    0 -0.40071941980E+01  0.18711881994E+01  0.23585077994E+01  0.50121362630E+01  0.51100000000E-03 0. -1.
        -11    1    3    3    0    0  0.21266303733E+01 -0.18422376967E+01  0.70845076881E+01  0.76227715380E+01  0.51100000000E-03 0.  1.
         12    1    3    3    0    0  0.13609103047E+02 -0.34091747690E+02  0.94072622557E+01  0.37893951093E+02  0.00000000000E+00 0. -1.
</event>
<event>
 7    1  0.2432574E-011  0.5052884E+02  0.7816164E-02  0.1300439E+00
        -11   -1    0    0    0    0  0.00000000000E+00  0.00000000000E+00  0.45593999997E+02  0.45594000000E+02  0.51100000000E-03 0.  1.
         11   -1    0    0    0    0 -0.00000000000E+00 -0.00000000000E+00 -0.45593999997E+02  0.45594000000E+02  0.51100000000E-03 0. -1.
    9900012    2    1    2    0    0  0.25363678263E+02  0.13756045336E+02  0.28646511744E+02  0.50528836292E+02  0.29999928394E+02 0.  0.
         12    1    1    2    0    0 -0.25363678263E+02 -0.13756045336E+02 -0.28646511744E+02  0.40659163708E+02  0.00000000000E+00 0. -1.
         11    1    3    3    0    0 -0.31470061558E+01  0.10002187301E+01  0.70675053152E+00  0.33769189844E+01  0.51100000000E-03 0. -1.
        -11    1    3    3    0    0  0.20452602461E+02  0.32945939832E+01  0.53926565194E+01  0.21406635456E+02  0.51100000000E-03 0.  1.
        -12    1    3    3    0    0  0.80580819572E+01  0.94612326223E+01  0.22547104693E+02  0.25745281852E+02  0.00000000000E+00 0.  1.
</event>
<event>
 7    1  0.2432574E-011  0.5052886E+02  0.7816164E-02  0.1300439E+00
        -11   -1    0    0    0    0  0.00000000000E+00  0.00000000000E+00  0.45593999997E+02  0.45594000000E+02  0.51100000000E-03 0.  1.
         11   -1    0    0    0    0 -0.00000000000E+00 -0.00000000000E+00 -0.45593999997E+02  0.45594000000E+02  0.51100000000E-03 0. -1.
    9900012    2    1    2    0    0 -0.40782282318E+01  0.40314851491E+02 -0.33535332462E+01  0.50528863493E+02  0.30000011074E+02 0.  0.
         12    1    1    2    0    0  0.40782282318E+01 -0.40314851491E+02  0.33535332462E+01  0.40659136507E+02  0.00000000000E+00 0. -1.
         11    1    3    3    0    0 -0.14944659432E+02  0.10536433178E+02  0.10405781287E+01  0.18315077744E+02  0.51100000000E-03 0.  1.
        -11    1    3    3    0    0  0.43920731625E+01  0.11296851677E+02 -0.34772837490E+01  0.12609546661E+02  0.51100000000E-03 0. -1.
        -12    1    3    3    0    0  0.64743580380E+01  0.18481566636E+02 -0.91682762597E+00  0.19604239088E+02  0.00000000000E+00 0.  1.
</event>
<event>
 7    1  0.2432574E-011  0.5052886E+02  0.7816164E-02  0.1300439E+00
        -11   -1    0    0    0    0  0.00000000000E+00  0.00000000000E+00  0.45593999997E+02  0.45594000000E+02  0.51100000000E-03 0.  1.
         11   -1    0    0    0    0 -0.00000000000E+00 -0.00000000000E+00 -0.45593999997E+02  0.45594000000E+02  0.51100000000E-03 0. -1.
    9900012    2    1    2    0    0  0.15658716794E+02  0.28847081852E+02  0.23996175440E+02  0.50528856148E+02  0.29999988749E+02 0.  0.
         12    1    1    2    0    0 -0.15658716794E+02 -0.28847081852E+02 -0.23996175440E+02  0.40659143852E+02  0.00000000000E+00 0. -1.
         11    1    3    3    0    0  0.72733818266E+01  0.46955179778E+01 -0.14245039493E+01  0.87737782077E+01  0.51100000000E-03 0. -1.
        -11    1    3    3    0    0 -0.31502034423E+01  0.20402835316E+02  0.18873145236E+02  0.27971326068E+02  0.51100000000E-03 0.  1.
         12    1    3    3    0    0  0.11535538409E+02  0.37487285584E+01  0.65475341529E+01  0.13783751872E+02  0.00000000000E+00 0. -1.
</event>
<event>
 7    1  0.2432574E-011  0.5052885E+02  0.7816164E-02  0.1300439E+00
        -11   -1    0    0    0    0  0.00000000000E+00  0.00000000000E+00  0.45593999997E+02  0.45594000000E+02  0.51100000000E-03 0.  1.
         11   -1    0    0    0    0 -0.00000000000E+00 -0.00000000000E+00 -0.45593999997E+02  0.45594000000E+02  0.51100000000E-03 0. -1.
    9900012    2    1    2    0    0  0.41427320592E+01 -0.28035959631E+02  0.29154568243E+02  0.50528854524E+02  0.29999983812E+02 0.  0.
         12    1    1    2    0    0 -0.41427320592E+01  0.28035959631E+02 -0.29154568243E+02  0.40659145476E+02  0.00000000000E+00 0. -1.
         11    1    3    3    0    0  0.11558598821E+02 -0.10643530021E+02  0.97178466993E+01  0.18474914959E+02  0.51100000000E-03 0. -1.
        -11    1    3    3    0    0  0.11965322180E+01 -0.16776466102E+02  0.13631288731E+02  0.21649331097E+02  0.51100000000E-03 0.  1.
         12    1    3    3    0    0 -0.86123989795E+01 -0.61596350779E+00  0.58054328133E+01  0.10404608468E+02  0.00000000000E+00 0. -1.
</event>
<event>
 7    1  0.2432574E-011  0.5052886E+02  0.7816164E-02  0.1300439E+00
        -11   -1    0    0    0    0  0.00000000000E+00  0.00000000000E+00  0.45593999997E+02  0.45594000000E+02  0.51100000000E-03 0.  1.
         11   -1    0    0    0    0 -0.00000000000E+00 -0.00000000000E+00 -0.45593999997E+02  0.45594000000E+02  0.51100000000E-03 0. -1.
    9900012    2    1    2    0    0  0.38025044934E+02  0.13736989011E+02 -0.43077574379E+01  0.50528859780E+02  0.29999999786E+02 0.  0.
         12    1    1    2    0    0 -0.38025044934E+02 -0.13736989011E+02  0.43077574379E+01  0.40659140220E+02  0.00000000000E+00 0. -1.
         11    1    3    3    0    0  0.12640300597E+02 -0.52017499534E+01  0.50588069877E+01  0.14574873247E+02  0.51100000000E-03 0. -1.
        -11    1    3    3    0    0  0.14320706956E+02  0.63782569296E+01  0.18783253422E+01  0.15789012494E+02  0.51100000000E-03 0.  1.
         12    1    3    3    0    0  0.11064037381E+02  0.12560482035E+02 -0.11244889768E+02  0.20164974039E+02  0.00000000000E+00 0. -1.
</event>
<event>
 7    1  0.2432574E-011  0.5052884E+02  0.7816164E-02  0.1300439E+00
        -11   -1    0    0    0    0  0.00000000000E+00  0.00000000000E+00  0.45593999997E+02  0.45594000000E+02  0.51100000000E-03 0.  1.
         11   -1    0    0    0    0 -0.00000000000E+00 -0.00000000000E+00 -0.45593999997E+02  0.45594000000E+02  0.51100000000E-03 0. -1.
    9900012    2    1    2    0    0 -0.11812834685E+02 -0.10456157789E+02  0.37473897428E+02  0.50528840055E+02  0.29999939830E+02 0.  0.
         12    1    1    2    0    0  0.11812834685E+02  0.10456157789E+02 -0.37473897428E+02  0.40659159945E+02  0.00000000000E+00 0. -1.
         11    1    3    3    0    0 -0.51093163323E+01 -0.82206153210E+01  0.79194467991E+01  0.12506049236E+02  0.51100000000E-03 0. -1.
        -11    1    3    3    0    0 -0.14891500036E+02 -0.62129786412E-01  0.14714621729E+02  0.20935155273E+02  0.51100000000E-03 0.  1.
         12    1    3    3    0    0  0.81879816835E+01 -0.21734126814E+01  0.14839828900E+02  0.17087635545E+02  0.00000000000E+00 0. -1.
</event>
<event>
 7    1  0.2432574E-011  0.5052883E+02  0.7816164E-02  0.1300439E+00
        -11   -1    0    0    0    0  0.00000000000E+00  0.00000000000E+00  0.45593999997E+02  0.45594000000E+02  0.51100000000E-03 0.  1.
         11   -1    0    0    0    0 -0.00000000000E+00 -0.00000000000E+00 -0.45593999997E+02  0.45594000000E+02  0.51100000000E-03 0. -1.
    9900012    2    1    2    0    0 -0.33630329980E+02  0.63093771027E+01  0.21962709727E+02  0.50528831876E+02  0.29999914969E+02 0.  0.
         12    1    1    2    0    0  0.33630329980E+02 -0.63093771027E+01 -0.21962709727E+02  0.40659168124E+02  0.00000000000E+00 0. -1.
         11    1    3    3    0    0 -0.51837020675E+00 -0.29915371027E+01  0.72863000490E+01  0.78935524686E+01  0.51100000000E-03 0. -1.
        -11    1    3    3    0    0  0.12798003826E+01  0.25138074065E+01 -0.23431170888E+01  0.36670580373E+01  0.51100000000E-03 0.  1.
        -12    1    3    3    0    0 -0.34391760156E+02  0.67871067989E+01  0.17019526767E+02  0.38968221370E+02  0.00000000000E+00 0.  1.
</event>
<event>
 7    1  0.2432574E-011  0.5052887E+02  0.7816164E-02  0.1300439E+00
        -11   -1    0    0    0    0  0.00000000000E+00  0.00000000000E+00  0.45593999997E+02  0.45594000000E+02  0.51100000000E-03 0.  1.
         11   -1    0    0    0    0 -0.00000000000E+00 -0.00000000000E+00 -0.45593999997E+02  0.45594000000E+02  0.51100000000E-03 0. -1.
    9900012    2    1    2    0    0  0.12451692229E+02 -0.17003187961E+02  0.34770852313E+02  0.50528865593E+02  0.30000017456E+02 0.  0.
         12    1    1    2    0    0 -0.12451692229E+02  0.17003187961E+02 -0.34770852313E+02  0.40659134407E+02  0.00000000000E+00 0. -1.
         11    1    3    3    0    0 -0.20929382657E+01 -0.80838210913E+01  0.67065606214E+01  0.10710112495E+02  0.51100000000E-03 0. -1.
        -11    1    3    3    0    0  0.80041146272E+01 -0.99565370139E+01  0.30256677717E+02  0.32843036202E+02  0.51100000000E-03 0.  1.
        -12    1    3    3    0    0  0.65405158678E+01  0.10371701445E+01 -0.21923860253E+01  0.69757168957E+01  0.00000000000E+00 0.  1.
</event>
<event>
 7    1  0.2432574E-011  0.5052887E+02  0.7816164E-02  0.1300439E+00
        -11   -1    0    0    0    0  0.00000000000E+00  0.00000000000E+00  0.45593999997E+02  0.45594000000E+02  0.51100000000E-03 0. -1.
         11   -1    0    0    0    0 -0.00000000000E+00 -0.00000000000E+00 -0.45593999997E+02  0.45594000000E+02  0.51100000000E-03 0.  1.
    9900012    2    1    2    0    0 -0.21179651439E+02 -0.29616854531E+02 -0.18095001161E+02  0.50528870958E+02  0.30000033765E+02 0.  0.
         12    1    1    2    0    0  0.21179651439E+02  0.29616854531E+02  0.18095001161E+02  0.40659129042E+02  0.00000000000E+00 0. -1.
         11    1    3    3    0    0 -0.84723253631E+00 -0.75274967244E+01  0.38386477439E+01  0.84921273348E+01  0.51100000000E-03 0. -1.
        -11    1    3    3    0    0  0.50810421394E+00 -0.11191298232E+02 -0.23824867010E+01  0.11453364971E+02  0.51100000000E-03 0.  1.
         12    1    3    3    0    0 -0.20840523117E+02 -0.10898059574E+02 -0.19551162204E+02  0.30583378653E+02  0.00000000000E+00 0. -1.
</event>
<event>
 7    1  0.2432574E-011  0.5052886E+02  0.7816164E-02  0.1300439E+00
        -11   -1    0    0    0    0  0.00000000000E+00  0.00000000000E+00  0.45593999997E+02  0.45594000000E+02  0.51100000000E-03 0. -1.
         11   -1    0    0    0    0 -0.00000000000E+00 -0.00000000000E+00 -0.45593999997E+02  0.45594000000E+02  0.51100000000E-03 0.  1.
    9900012    2    1    2    0    0  0.65185323124E+01  0.39442288509E+02  0.74148751448E+01  0.50528858842E+02  0.29999996935E+02 0.  0.
         12    1    1    2    0    0 -0.65185323124E+01 -0.39442288509E+02 -0.74148751448E+01  0.40659141158E+02  0.00000000000E+00 0. -1.
         11    1    3    3    0    0 -0.33497115887E+00  0.16165262743E+02  0.92273560853E+01  0.18616445037E+02  0.51100000000E-03 0. -1.
        -11    1    3    3    0    0 -0.62185921585E+01  0.23964260384E+01  0.20589024792E+01  0.69751577667E+01  0.51100000000E-03 0.  1.
         12    1    3    3    0    0  0.13072095630E+02  0.20880599727E+02 -0.38713834197E+01  0.24937256038E+02  0.00000000000E+00 0. -1.
</event>
<event>
 7    1  0.2432574E-011  0.5052888E+02  0.7816164E-02  0.1300439E+00
        -11   -1    0    0    0    0  0.00000000000E+00  0.00000000000E+00  0.45593999997E+02  0.45594000000E+02  0.51100000000E-03 0.  1.
         11   -1    0    0    0    0 -0.00000000000E+00 -0.00000000000E+00 -0.45593999997E+02  0.45594000000E+02  0.51100000000E-03 0. -1.
    9900012    2    1    2    0    0  0.18638395723E+02 -0.30314843207E+02 -0.19666847660E+02  0.50528875432E+02  0.30000047362E+02 0.  0.
         12    1    1    2    0    0 -0.18638395723E+02  0.30314843207E+02  0.19666847660E+02  0.40659124568E+02  0.00000000000E+00 0. -1.
         11    1    3    3    0    0  0.60509534699E+01  0.12832688615E+01 -0.97069933871E+01  0.11510279655E+02  0.51100000000E-03 0. -1.
        -11    1    3    3    0    0  0.13321452996E+01 -0.10510913540E+02 -0.10762052806E+02  0.15102175188E+02  0.51100000000E-03 0.  1.
        -12    1    3    3    0    0  0.11255296954E+02 -0.21087198528E+02  0.80219853276E+00  0.23916420589E+02  0.00000000000E+00 0.  1.
</event>
<event>
 7    1  0.2432574E-011  0.5052889E+02  0.7816164E-02  0.1300439E+00
        -11   -1    0    0    0    0  0.00000000000E+00  0.00000000000E+00  0.45593999997E+02  0.45594000000E+02  0.51100000000E-03 0.  1.
         11   -1    0    0    0    0 -0.00000000000E+00 -0.00000000000E+00 -0.45593999997E+02  0.45594000000E+02  0.51100000000E-03 0. -1.
    9900012    2    1    2    0    0 -0.34000541448E+02 -0.15948810738E+02  0.15580826888E+02  0.50528886025E+02  0.30000079561E+02 0.  0.
         12    1    1    2    0    0  0.34000541448E+02  0.15948810738E+02 -0.15580826888E+02  0.40659113975E+02  0.00000000000E+00 0. -1.
         11    1    3    3    0    0 -0.12481674810E+02 -0.60684949628E+01  0.11039918791E+02  0.17734109630E+02  0.51100000000E-03 0.  1.
        -11    1    3    3    0    0 -0.13351737175E+02 -0.14983183992E+02 -0.33473600842E+01  0.20346240634E+02  0.51100000000E-03 0. -1.
         12    1    3    3    0    0 -0.81671294630E+01  0.51028682169E+01  0.78882681812E+01  0.12448535761E+02  0.00000000000E+00 0. -1.
</event>
<event>
 7    1  0.2432574E-011  0.5052886E+02  0.7816164E-02  0.1300439E+00
        -11   -1    0    0    0    0  0.00000000000E+00  0.00000000000E+00  0.45593999997E+02  0.45594000000E+02  0.51100000000E-03 0.  1.
         11   -1    0    0    0    0 -0.00000000000E+00 -0.00000000000E+00 -0.45593999997E+02  0.45594000000E+02  0.51100000000E-03 0. -1.
    9900012    2    1    2    0    0 -0.20423285064E+02  0.12071075537E+02  0.33020354784E+02  0.50528864895E+02  0.30000015334E+02 0.  0.
         12    1    1    2    0    0  0.20423285064E+02 -0.12071075537E+02 -0.33020354784E+02  0.40659135105E+02  0.00000000000E+00 0. -1.
         11    1    3    3    0    0  0.27865786084E+01  0.17126648696E+01 -0.11278497682E+01  0.34598102053E+01  0.51100000000E-03 0. -1.
        -11    1    3    3    0    0 -0.11388063006E+02  0.12034404093E+02  0.81593317037E+01  0.18468609992E+02  0.51100000000E-03 0.  1.
        -12    1    3    3    0    0 -0.11821800666E+02 -0.16759934260E+01  0.25988872849E+02  0.28600444698E+02  0.00000000000E+00 0.  1.
</event>
<event>
 7    1  0.3082275E-011  0.5052890E+02  0.7816164E-02  0.1300439E+00
        -11   -1    0    0    0    0  0.00000000000E+00  0.00000000000E+00  0.45593999997E+02  0.45594000000E+02  0.51100000000E-03 0.  1.
         11   -1    0    0    0    0 -0.00000000000E+00 -0.00000000000E+00 -0.45593999997E+02  0.45594000000E+02  0.51100000000E-03 0. -1.
    9900012    2    1    2    0    0 -0.39124322672E+02 -0.11065657985E+02  0.28537277704E-01  0.50528902303E+02  0.30000129039E+02 0.  0.
         12    1    1    2    0    0  0.39124322672E+02  0.11065657985E+02 -0.28537277704E-01  0.40659097697E+02  0.00000000000E+00 0. -1.
         11    1    3    3    0    0 -0.30226097265E-01  0.71241796410E+00  0.57853667201E+01  0.58291441327E+01  0.51100000000E-03 0.  1.
        -11    1    3    3    0    0 -0.56176507113E+01 -0.33059567025E+01 -0.77302188158E+01  0.10111559347E+02  0.51100000000E-03 0. -1.
        -12    1    3    3    0    0 -0.33476445863E+02 -0.84721192470E+01  0.19733893735E+01  0.34588198823E+02  0.00000000000E+00 0.  1.
</event>
<event>
 7    1  0.2432574E-011  0.5052886E+02  0.7816164E-02  0.1300439E+00
        -11   -1    0    0    0    0  0.00000000000E+00  0.00000000000E+00  0.45593999997E+02  0.45594000000E+02  0.51100000000E-03 0. -1.
         11   -1    0    0    0    0 -0.00000000000E+00 -0.00000000000E+00 -0.45593999997E+02  0.45594000000E+02  0.51100000000E-03 0.  1.
    9900012    2    1    2    0    0 -0.20332487389E+02 -0.33267047737E+02 -0.11535126239E+02  0.50528860241E+02  0.30000001190E+02 0.  0.
         12    1    1    2    0    0  0.20332487389E+02  0.33267047737E+02  0.11535126239E+02  0.40659139759E+02  0.00000000000E+00 0. -1.
         11    1    3    3    0    0 -0.16838586501E+02 -0.13784764830E+02 -0.99856242822E+01  0.23943066414E+02  0.51100000000E-03 0. -1.
        -11    1    3    3    0    0  0.35530247618E+01 -0.16269165087E+02 -0.59432435001E+01  0.17681398733E+02  0.51100000000E-03 0.  1.
         12    1    3    3    0    0 -0.70469256501E+01 -0.32131178206E+01  0.43937415437E+01  0.89043950945E+01  0.00000000000E+00 0. -1.
</event>
<event>
 7    1  0.2432574E-011  0.5052885E+02  0.7816164E-02  0.1300439E+00
        -11   -1    0    0    0    0  0.00000000000E+00  0.00000000000E+00  0.45593999997E+02  0.45594000000E+02  0.51100000000E-03 0.  1.
         11   -1    0    0    0    0 -0.00000000000E+00 -0.00000000000E+00 -0.45593999997E+02  0.45594000000E+02  0.51100000000E-03 0. -1.
    9900012    2    1    2    0    0 -0.12589711905E+02 -0.19665771060E+02  0.33285479959E+02  0.50528848837E+02  0.29999966524E+02 0.  0.
         12    1    1    2    0    0  0.12589711905E+02  0.19665771060E+02 -0.33285479959E+02  0.40659151163E+02  0.00000000000E+00 0. -1.
         11    1    3    3    0    0 -0.31557764413E+01  0.15748517200E+01 -0.45453968976E+01  0.57532352729E+01  0.51100000000E-03 0.  1.
        -11    1    3    3    0    0 -0.62974483938E+00 -0.80458306935E+01  0.11928750139E+02  0.14402327946E+02  0.51100000000E-03 0. -1.
        -12    1    3    3    0    0 -0.88041906244E+01 -0.13194792087E+02  0.25902126717E+02  0.30373285618E+02  0.00000000000E+00 0.  1.
</event>
<event>
 7    1  0.2432574E-011  0.5052885E+02  0.7816164E-02  0.1300439E+00
        -11   -1    0    0    0    0  0.00000000000E+00  0.00000000000E+00  0.45593999997E+02  0.45594000000E+02  0.51100000000E-03 0. -1.
         11   -1    0    0    0    0 -0.00000000000E+00 -0.00000000000E+00 -0.45593999997E+02  0.45594000000E+02  0.51100000000E-03 0.  1.
    9900012    2    1    2    0    0 -0.11995707516E+02 -0.30193740927E+02 -0.24446004508E+02  0.50528854333E+02  0.29999983231E+02 0.  0.
         12    1    1    2    0    0  0.11995707516E+02  0.30193740927E+02  0.24446004508E+02  0.40659145667E+02  0.00000000000E+00 0. -1.
         11    1    3    3    0    0 -0.11953913755E+02 -0.14874838257E+02 -0.85755965580E+01  0.20921226633E+02  0.51100000000E-03 0.  1.
        -11    1    3    3    0    0 -0.12212957733E+01  0.42039374063E+01  0.66620704316E-01  0.43782521240E+01  0.51100000000E-03 0. -1.
        -12    1    3    3    0    0  0.11795020125E+01 -0.19522840076E+02 -0.15937028655E+02  0.25229375577E+02  0.00000000000E+00 0.  1.
</event>
<event>
 7    1  0.2432574E-011  0.5052887E+02  0.7816164E-02  0.1300439E+00
        -11   -1    0    0    0    0  0.00000000000E+00  0.00000000000E+00  0.45593999997E+02  0.45594000000E+02  0.51100000000E-03 0.  1.
         11   -1    0    0    0    0 -0.00000000000E+00 -0.00000000000E+00 -0.45593999997E+02  0.45594000000E+02  0.51100000000E-03 0. -1.
    9900012    2    1    2    0    0 -0.58724966845E+00 -0.16369396544E+02  0.37213750510E+02  0.50528865326E+02  0.30000016645E+02 0.  0.
         12    1    1    2    0    0  0.58724966845E+00  0.16369396544E+02 -0.37213750510E+02  0.40659134674E+02  0.00000000000E+00 0. -1.
         11    1    3    3    0    0  0.39342785059E+01 -0.42175115313E+01 -0.28360839451E+01  0.64272329414E+01  0.51100000000E-03 0. -1.
        -11    1    3    3    0    0 -0.61521487787E+01 -0.32472726482E+01  0.71367795564E+01  0.99663100968E+01  0.51100000000E-03 0.  1.
         12    1    3    3    0    0  0.16306206043E+01 -0.89046123641E+01  0.32913054899E+02  0.34135322288E+02  0.00000000000E+00 0. -1.
</event>
<event>
 7    1  0.2432574E-011  0.5052886E+02  0.7816164E-02  0.1300439E+00
        -11   -1    0    0    0    0  0.00000000000E+00  0.00000000000E+00  0.45593999997E+02  0.45594000000E+02  0.51100000000E-03 0.  1.
         11   -1    0    0    0    0 -0.00000000000E+00 -0.00000000000E+00 -0.45593999997E+02  0.45594000000E+02  0.51100000000E-03 0. -1.
    9900012    2    1    2    0    0 -0.17817984608E+01 -0.82448534736E+01  0.39774528666E+02  0.50528861481E+02  0.30000004956E+02 0.  0.
         12    1    1    2    0    0  0.17817984608E+01  0.82448534736E+01 -0.39774528666E+02  0.40659138519E+02  0.00000000000E+00 0. -1.
         11    1    3    3    0    0 -0.60160313746E+01  0.14131157087E+01  0.26529085948E+02  0.27239345275E+02  0.51100000000E-03 0. -1.
        -11    1    3    3    0    0  0.79870085761E+01  0.66646284737E+00  0.70697695174E+01  0.10687287776E+02  0.51100000000E-03 0.  1.
        -12    1    3    3    0    0 -0.37527756623E+01 -0.10324432030E+02  0.61756732002E+01  0.12602228429E+02  0.00000000000E+00 0.  1.
</event>
<event>
 7    1  0.2432574E-011  0.5052885E+02  0.7816164E-02  0.1300439E+00
        -11   -1    0    0    0    0  0.00000000000E+00  0.00000000000E+00  0.45593999997E+02  0.45594000000E+02  0.51100000000E-03 0. -1.
         11   -1    0    0    0    0 -0.00000000000E+00 -0.00000000000E+00 -0.45593999997E+02  0.45594000000E+02  0.51100000000E-03 0.  1.
    9900012    2    1    2    0    0  0.39502719063E+01  0.30701326840E+02 -0.26362662373E+02  0.50528854839E+02  0.29999984768E+02 0.  0.
         12    1    1    2    0    0 -0.39502719063E+01 -0.30701326840E+02  0.26362662373E+02  0.40659145161E+02  0.00000000000E+00 0. -1.
         11    1    3    3    0    0 -0.45420347680E+01  0.89762239573E+01  0.27880840422E+01  0.10439161329E+02  0.51100000000E-03 0. -1.
        -11    1    3    3    0    0  0.94220751516E+01  0.15972629088E+02 -0.12282216527E+02  0.22243048875E+02  0.51100000000E-03 0.  1.
         12    1    3    3    0    0 -0.92976847737E+00  0.57524737942E+01 -0.16868529887E+02  0.17846644635E+02  0.00000000000E+00 0. -1.
</event>
<event>
 7    1  0.2432574E-011  0.5052886E+02  0.7816164E-02  0.1300439E+00
        -11   -1    0    0    0    0  0.00000000000E+00  0.00000000000E+00  0.45593999997E+02  0.45594000000E+02  0.51100000000E-03 0. -1.
         11   -1    0    0    0    0 -0.00000000000E+00 -0.00000000000E+00 -0.45593999997E+02  0.45594000000E+02  0.51100000000E-03 0.  1.
    9900012    2    1    2    0    0 -0.37228863607E+02  0.35126563969E+01 -0.15963677706E+02  0.50528855318E+02  0.29999986223E+02 0.  0.
         12    1    1    2    0    0  0.37228863607E+02 -0.35126563969E+01  0.15963677706E+02  0.40659144682E+02  0.00000000000E+00 0. -1.
         11    1    3    3    0    0 -0.22617516006E+02  0.71443391525E+01 -0.20501636175E+01  0.23807494268E+02  0.51100000000E-03 0. -1.
        -11    1    3    3    0    0  0.32530047945E+01  0.23040273868E+01 -0.22878699916E+01  0.45961866533E+01  0.51100000000E-03 0.  1.
        -12    1    3    3    0    0 -0.17864352396E+02 -0.59357101424E+01 -0.11625644096E+02  0.22125174396E+02  0.00000000000E+00 0.  1.
</event>
<event>
 7    1  0.2432574E-011  0.5052887E+02  0.7816164E-02  0.1300439E+00
        -11   -1    0    0    0    0  0.00000000000E+00  0.00000000000E+00  0.45593999997E+02  0.45594000000E+02  0.51100000000E-03 0.  1.
         11   -1    0    0    0    0 -0.00000000000E+00 -0.00000000000E+00 -0.45593999997E+02  0.45594000000E+02  0.51100000000E-03 0. -1.
    9900012    2    1    2    0    0  0.34317757665E+01  0.37570420590E+02  0.15160838590E+02  0.50528872919E+02  0.30000039724E+02 0.  0.
         12    1    1    2    0    0 -0.34317757665E+01 -0.37570420590E+02 -0.15160838590E+02  0.40659127081E+02  0.00000000000E+00 0. -1.
         11    1    3    3    0    0  0.70722563132E+01  0.12587455755E+01  0.46911937149E+01  0.85795424421E+01  0.51100000000E-03 0. -1.
        -11    1    3    3    0    0 -0.15514026171E+01  0.20371085137E+01 -0.39492189236E+01  0.47066964576E+01  0.51100000000E-03 0.  1.
        -12    1    3    3    0    0 -0.20890779296E+01  0.34274566501E+02  0.14418863799E+02  0.37242634019E+02  0.00000000000E+00 0.  1.
</event>
<event>
 7    1  0.2432574E-011  0.5052886E+02  0.7816164E-02  0.1300439E+00
        -11   -1    0    0    0    0  0.00000000000E+00  0.00000000000E+00  0.45593999997E+02  0.45594000000E+02  0.51100000000E-03 0.  1.
         11   -1    0    0    0    0 -0.00000000000E+00 -0.00000000000E+00 -0.45593999997E+02  0.45594000000E+02  0.51100000000E-03 0. -1.
    9900012    2    1    2    0    0  0.20867769741E+02 -0.31503429241E+02  0.15007853340E+02  0.50528861670E+02  0.30000005532E+02 0.  0.
         12    1    1    2    0    0 -0.20867769741E+02  0.31503429241E+02 -0.15007853340E+02  0.40659138330E+02  0.00000000000E+00 0. -1.
         11    1    3    3    0    0 -0.27547354323E+01 -0.98129094559E+00  0.22325846362E+01  0.36791213137E+01  0.51100000000E-03 0. -1.
        -11    1    3    3    0    0  0.13424765321E+02 -0.97800923655E+00  0.65982861535E+01  0.14990603938E+02  0.51100000000E-03 0.  1.
        -12    1    3    3    0    0  0.10197739852E+02 -0.29544129058E+02  0.61769825502E+01  0.31859136418E+02  0.00000000000E+00 0.  1.
</event>
<event>
 7    1  0.2677488E-011  0.5052890E+02  0.7816164E-02  0.1300439E+00
        -11   -1    0    0    0    0  0.00000000000E+00  0.00000000000E+00  0.45593999997E+02  0.45594000000E+02  0.51100000000E-03 0. -1.
         11   -1    0    0    0    0 -0.00000000000E+00 -0.00000000000E+00 -0.45593999997E+02  0.45594000000E+02  0.51100000000E-03 0.  1.
    9900012    2    1    2    0    0 -0.16384773859E+02 -0.10113386198E+01 -0.37197829155E+02  0.50528903674E+02  0.30000133207E+02 0.  0.
         12    1    1    2    0    0  0.16384773859E+02  0.10113386198E+01  0.37197829155E+02  0.40659096326E+02  0.00000000000E+00 0. -1.
         11    1    3    3    0    0 -0.58109818253E+01 -0.24159654132E+01 -0.33216952135E+00  0.63019628295E+01  0.51100000000E-03 0. -1.
        -11    1    3    3    0    0  0.33286475219E+01 -0.66306313439E+01 -0.64418359704E+01  0.98256000974E+01  0.51100000000E-03 0.  1.
        -12    1    3    3    0    0 -0.13902439555E+02  0.80352581373E+01 -0.30423823663E+02  0.34401340747E+02  0.00000000000E+00 0.  1.
</event>
<event>
 7    1  0.2432574E-011  0.5052886E+02  0.7816164E-02  0.1300439E+00
        -11   -1    0    0    0    0  0.00000000000E+00  0.00000000000E+00  0.45593999997E+02  0.45594000000E+02  0.51100000000E-03 0.  1.
         11   -1    0    0    0    0 -0.00000000000E+00 -0.00000000000E+00 -0.45593999997E+02  0.45594000000E+02  0.51100000000E-03 0. -1.
    9900012    2    1    2    0    0  0.27781731440E+02 -0.30151646159E+01  0.29533873774E+02  0.50528861794E+02  0.30000005911E+02 0.  0.
         12    1    1    2    0    0 -0.27781731440E+02  0.30151646159E+01 -0.29533873774E+02  0.40659138206E+02  0.00000000000E+00 0. -1.
         11    1    3    3    0    0  0.37305160209E+01 -0.62456739479E+01  0.99354937491E+01  0.12314188124E+02  0.51100000000E-03 0. -1.
        -11    1    3    3    0    0  0.55230398072E+01 -0.67432004853E+01 -0.99414949947E+00  0.87728589972E+01  0.51100000000E-03 0.  1.
        -12    1    3    3    0    0  0.18528175612E+02  0.99737098173E+01  0.20592529525E+02  0.29441814674E+02  0.00000000000E+00 0.  1.
</event>
<event>
 7    1  0.2432574E-011  0.5052886E+02  0.7816164E-02  0.1300439E+00
        -11   -1    0    0    0    0  0.00000000000E+00  0.00000000000E+00  0.45593999997E+02  0.45594000000E+02  0.51100000000E-03 0. -1.
         11   -1    0    0    0    0 -0.00000000000E+00 -0.00000000000E+00 -0.45593999997E+02  0.45594000000E+02  0.51100000000E-03 0.  1.
    9900012    2    1    2    0    0  0.21338404799E+02 -0.23158320912E+02 -0.25720227974E+02  0.50528862357E+02  0.30000007620E+02 0.  0.
         12    1    1    2    0    0 -0.21338404799E+02  0.23158320912E+02  0.25720227974E+02  0.40659137643E+02  0.00000000000E+00 0. -1.
         11    1    3    3    0    0 -0.45298671396E+01  0.19719210280E+00 -0.13785666648E+01  0.47390956245E+01  0.51100000000E-03 0. -1.
        -11    1    3    3    0    0  0.14846564283E+02 -0.38895662917E+01 -0.47836150490E+01  0.16075825644E+02  0.51100000000E-03 0.  1.
         12    1    3    3    0    0  0.11021707656E+02 -0.19465946723E+02 -0.19558046260E+02  0.29713941088E+02  0.00000000000E+00 0. -1.
</event>
<event>
 7    1  0.2432574E-011  0.5052886E+02  0.7816164E-02  0.1300439E+00
        -11   -1    0    0    0    0  0.00000000000E+00  0.00000000000E+00  0.45593999997E+02  0.45594000000E+02  0.51100000000E-03 0. -1.
         11   -1    0    0    0    0 -0.00000000000E+00 -0.00000000000E+00 -0.45593999997E+02  0.45594000000E+02  0.51100000000E-03 0.  1.
    9900012    2    1    2    0    0 -0.46936528123E+01 -0.32482685462E+02 -0.24000210002E+02  0.50528864351E+02  0.30000013682E+02 0.  0.
         12    1    1    2    0    0  0.46936528123E+01  0.32482685462E+02  0.24000210002E+02  0.40659135649E+02  0.00000000000E+00 0. -1.
         11    1    3    3    0    0 -0.96088543529E+01 -0.17823445057E+02 -0.94816850947E+01  0.22358614183E+02  0.51100000000E-03 0. -1.
        -11    1    3    3    0    0  0.12893804351E+01 -0.12636120383E+02 -0.18484845603E+02  0.22428186674E+02  0.51100000000E-03 0.  1.
         12    1    3    3    0    0  0.36258211056E+01 -0.20231200222E+01  0.39663206959E+01  0.57420634947E+01  0.00000000000E+00 0. -1.
</event>
<event>
 7    1  0.2432574E-011  0.5052886E+02  0.7816164E-02  0.1300439E+00
        -11   -1    0    0    0    0  0.00000000000E+00  0.00000000000E+00  0.45593999997E+02  0.45594000000E+02  0.51100000000E-03 0.  1.
         11   -1    0    0    0    0 -0.00000000000E+00 -0.00000000000E+00 -0.45593999997E+02  0.45594000000E+02  0.51100000000E-03 0. -1.
    9900012    2    1    2    0    0 -0.28302111575E+01 -0.37046442629E+02  0.16514136507E+02  0.50528859438E+02  0.29999998748E+02 0.  0.
         12    1    1    2    0    0  0.28302111575E+01  0.37046442629E+02 -0.16514136507E+02  0.40659140562E+02  0.00000000000E+00 0. -1.
         11    1    3    3    0    0 -0.89163477265E+01 -0.83336829551E+01 -0.34744434348E+01  0.12689495097E+02  0.51100000000E-03 0. -1.
        -11    1    3    3    0    0  0.80819806944E+00 -0.13556221063E+02  0.19913465482E+01  0.13725515472E+02  0.51100000000E-03 0.  1.
        -12    1    3    3    0    0  0.52779384996E+01 -0.15156538611E+02  0.17997233393E+02  0.24113848869E+02  0.00000000000E+00 0.  1.
</event>
<event>
 7    1  0.2432574E-011  0.5052886E+02  0.7816164E-02  0.1300439E+00
        -11   -1    0    0    0    0  0.00000000000E+00  0.00000000000E+00  0.45593999997E+02  0.45594000000E+02  0.51100000000E-03 0. -1.
         11   -1    0    0    0    0 -0.00000000000E+00 -0.00000000000E+00 -0.45593999997E+02  0.45594000000E+02  0.51100000000E-03 0.  1.
    9900012    2    1    2    0    0  0.20725855251E+02 -0.11588357771E+02 -0.33004767783E+02  0.50528858247E+02  0.29999995126E+02 0.  0.
         12    1    1    2    0    0 -0.20725855251E+02  0.11588357771E+02  0.33004767783E+02  0.40659141753E+02  0.00000000000E+00 0. -1.
         11    1    3    3    0    0  0.13248475694E+02 -0.10594639084E+02 -0.10139858103E+02  0.19763228688E+02  0.51100000000E-03 0.  1.
        -11    1    3    3    0    0  0.33389953435E+01  0.31790221404E+00  0.30235312723E+01  0.45157162596E+01  0.51100000000E-03 0. -1.
        -12    1    3    3    0    0  0.41383842130E+01 -0.13116209004E+01 -0.25888440952E+02  0.26249913299E+02  0.00000000000E+00 0.  1.
</event>
<event>
 7    1  0.2432574E-011  0.5052886E+02  0.7816164E-02  0.1300439E+00
        -11   -1    0    0    0    0  0.00000000000E+00  0.00000000000E+00  0.45593999997E+02  0.45594000000E+02  0.51100000000E-03 0. -1.
         11   -1    0    0    0    0 -0.00000000000E+00 -0.00000000000E+00 -0.45593999997E+02  0.45594000000E+02  0.51100000000E-03 0.  1.
    9900012    2    1    2    0    0 -0.15383747534E+02  0.26276032412E+02 -0.26945801164E+02  0.50528858742E+02  0.29999996633E+02 0.  0.
         12    1    1    2    0    0  0.15383747534E+02 -0.26276032412E+02  0.26945801164E+02  0.40659141258E+02  0.00000000000E+00 0. -1.
         11    1    3    3    0    0 -0.10123735412E+02  0.15460797874E+02 -0.18000726812E+02  0.25798303348E+02  0.51100000000E-03 0. -1.
        -11    1    3    3    0    0 -0.94114891290E+01  0.14589958022E+02 -0.76459620219E+01  0.18971129071E+02  0.51100000000E-03 0.  1.
         12    1    3    3    0    0  0.41514770077E+01 -0.37747234849E+01 -0.12991123300E+01  0.57594263238E+01  0.00000000000E+00 0. -1.
</event>
<event>
 7    1  0.2432574E-011  0.5052885E+02  0.7816164E-02  0.1300439E+00
        -11   -1    0    0    0    0  0.00000000000E+00  0.00000000000E+00  0.45593999997E+02  0.45594000000E+02  0.51100000000E-03 0.  1.
         11   -1    0    0    0    0 -0.00000000000E+00 -0.00000000000E+00 -0.45593999997E+02  0.45594000000E+02  0.51100000000E-03 0. -1.
    9900012    2    1    2    0    0 -0.37961728583E+02  0.13788944320E+02  0.46838632990E+01  0.50528850994E+02  0.29999973082E+02 0.  0.
         12    1    1    2    0    0  0.37961728583E+02 -0.13788944320E+02 -0.46838632990E+01  0.40659149006E+02  0.00000000000E+00 0. -1.
         11    1    3    3    0    0 -0.17140019421E+02 -0.35100186630E+01  0.63809239567E+01  0.18623014997E+02  0.51100000000E-03 0. -1.
        -11    1    3    3    0    0  0.15699526527E+01  0.52088818396E+00  0.31035406561E+01  0.35168225286E+01  0.51100000000E-03 0.  1.
         12    1    3    3    0    0 -0.22391661815E+02  0.16778074799E+02 -0.48006013138E+01  0.28389013469E+02  0.00000000000E+00 0. -1.
</event>
<event>
 7    1  0.2432574E-011  0.5052885E+02  0.7816164E-02  0.1300439E+00
        -11   -1    0    0    0    0  0.00000000000E+00  0.00000000000E+00  0.45593999997E+02  0.45594000000E+02  0.51100000000E-03 0.  1.
         11   -1    0    0    0    0 -0.00000000000E+00 -0.00000000000E+00 -0.45593999997E+02  0.45594000000E+02  0.51100000000E-03 0. -1.
    9900012    2    1    2    0    0  0.82871369413E+01  0.19170111500E+02  0.34885479464E+02  0.50528849849E+02  0.29999969601E+02 0.  0.
         12    1    1    2    0    0 -0.82871369413E+01 -0.19170111500E+02 -0.34885479464E+02  0.40659150151E+02  0.00000000000E+00 0. -1.
         11    1    3    3    0    0  0.67741001356E+01 -0.38012447887E+01  0.43041685673E+01  0.88805271188E+01  0.51100000000E-03 0. -1.
        -11    1    3    3    0    0  0.72839121656E+01  0.80804968579E+01  0.62567086476E+01  0.12549749371E+02  0.51100000000E-03 0.  1.
        -12    1    3    3    0    0 -0.57708753599E+01  0.14890859430E+02  0.24324602249E+02  0.29098573360E+02  0.00000000000E+00 0.  1.
</event>
<event>
 7    1  0.2432574E-011  0.5052889E+02  0.7816164E-02  0.1300439E+00
        -11   -1    0    0    0    0  0.00000000000E+00  0.00000000000E+00  0.45593999997E+02  0.45594000000E+02  0.51100000000E-03 0. -1.
         11   -1    0    0    0    0 -0.00000000000E+00 -0.00000000000E+00 -0.45593999997E+02  0.45594000000E+02  0.51100000000E-03 0.  1.
    9900012    2    1    2    0    0  0.23655798363E+02 -0.29919597599E+02 -0.14084899811E+02  0.50528886393E+02  0.30000080679E+02 0.  0.
         12    1    1    2    0    0 -0.23655798363E+02  0.29919597599E+02  0.14084899811E+02  0.40659113607E+02  0.00000000000E+00 0. -1.
         11    1    3    3    0    0  0.65351721064E+01  0.87911812570E+00 -0.11508159984E+02  0.13263448632E+02  0.51100000000E-03 0. -1.
        -11    1    3    3    0    0  0.51969244950E+01 -0.82334350894E+01 -0.61180388188E+01  0.11499038083E+02  0.51100000000E-03 0.  1.
         12    1    3    3    0    0  0.11923701762E+02 -0.22565280635E+02  0.35412989913E+01  0.25766399678E+02  0.00000000000E+00 0. -1.
</event>
<event>
 7    1  0.2432574E-011  0.5052887E+02  0.7816164E-02  0.1300439E+00
        -11   -1    0    0    0    0  0.00000000000E+00  0.00000000000E+00  0.45593999997E+02  0.45594000000E+02  0.51100000000E-03 0.  1.
         11   -1    0    0    0    0 -0.00000000000E+00 -0.00000000000E+00 -0.45593999997E+02  0.45594000000E+02  0.51100000000E-03 0. -1.
    9900012    2    1    2    0    0  0.35170293556E+02  0.39674413110E+00 -0.20397489178E+02  0.50528874093E+02  0.30000043293E+02 0.  0.
         12    1    1    2    0    0 -0.35170293556E+02 -0.39674413110E+00  0.20397489178E+02  0.40659125907E+02  0.00000000000E+00 0. -1.
         11    1    3    3    0    0  0.13120586735E+01  0.14367636859E+01 -0.15099630313E+02  0.15224474497E+02  0.51100000000E-03 0. -1.
        -11    1    3    3    0    0  0.18427707517E+02  0.52782051771E+00 -0.69605933750E+01  0.19705554019E+02  0.51100000000E-03 0.  1.
        -12    1    3    3    0    0  0.15430527366E+02 -0.15678400725E+01  0.16627345096E+01  0.15598845577E+02  0.00000000000E+00 0.  1.
</event>
<event>
 7    1  0.2432574E-011  0.5052886E+02  0.7816164E-02  0.1300439E+00
        -11   -1    0    0    0    0  0.00000000000E+00  0.00000000000E+00  0.45593999997E+02  0.45594000000E+02  0.51100000000E-03 0.  1.
         11   -1    0    0    0    0 -0.00000000000E+00 -0.00000000000E+00 -0.45593999997E+02  0.45594000000E+02  0.51100000000E-03 0. -1.
    9900012    2    1    2    0    0  0.17099163090E+02  0.95190312552E+01  0.35639477949E+02  0.50528859295E+02  0.29999998312E+02 0.  0.
         12    1    1    2    0    0 -0.17099163090E+02 -0.95190312552E+01 -0.35639477949E+02  0.40659140705E+02  0.00000000000E+00 0. -1.
         11    1    3    3    0    0  0.12272620068E+02  0.13469343911E+02  0.67782328965E+01  0.19441832995E+02  0.51100000000E-03 0. -1.
        -11    1    3    3    0    0  0.25193732076E+01 -0.43948286845E+01  0.50251154308E+01  0.71353728620E+01  0.51100000000E-03 0.  1.
        -12    1    3    3    0    0  0.23071698144E+01  0.44451602828E+00  0.23836129622E+02  0.23951653438E+02  0.00000000000E+00 0.  1.
</event>
<event>
 7    1  0.2432574E-011  0.5052881E+02  0.7816164E-02  0.1300439E+00
        -11   -1    0    0    0    0  0.00000000000E+00  0.00000000000E+00  0.45593999997E+02  0.45594000000E+02  0.51100000000E-03 0. -1.
         11   -1    0    0    0    0 -0.00000000000E+00 -0.00000000000E+00 -0.45593999997E+02  0.45594000000E+02  0.51100000000E-03 0.  1.
    9900012    2    1    2    0    0 -0.20596202279E+02  0.34734059543E+02  0.47445770270E+01  0.50528813439E+02  0.29999858929E+02 0.  0.
         12    1    1    2    0    0  0.20596202279E+02 -0.34734059543E+02 -0.47445770270E+01  0.40659186561E+02  0.00000000000E+00 0. -1.
         11    1    3    3    0    0  0.37872893101E+01  0.83816309374E+01  0.70682368526E+00  0.92246895597E+01  0.51100000000E-03 0. -1.
        -11    1    3    3    0    0  0.26266003095E+01  0.22819292151E+01  0.37613649775E+01  0.51238751823E+01  0.51100000000E-03 0.  1.
        -12    1    3    3    0    0 -0.27010091898E+02  0.24070499390E+02  0.27638836419E+00  0.36180248697E+02  0.00000000000E+00 0.  1.
</event>
<event>
 7    1  0.3349652E-011  0.5052885E+02  0.7816164E-02  0.1300439E+00
        -11   -1    0    0    0    0  0.00000000000E+00  0.00000000000E+00  0.45593999997E+02  0.45594000000E+02  0.51100000000E-03 0.  1.
         11   -1    0    0    0    0 -0.00000000000E+00 -0.00000000000E+00 -0.45593999997E+02  0.45594000000E+02  0.51100000000E-03 0. -1.
    9900012    2    1    2    0    0 -0.35068774793E+02  0.19793427536E+02  0.56185283486E+01  0.50528848510E+02  0.29999965530E+02 0.  0.
         12    1    1    2    0    0  0.35068774793E+02 -0.19793427536E+02 -0.56185283486E+01  0.40659151490E+02  0.00000000000E+00 0. -1.
         11    1    3    3    0    0  0.26927562492E+01 -0.26500785448E+01 -0.12620419248E+01  0.39832904228E+01  0.51100000000E-03 0. -1.
        -11    1    3    3    0    0 -0.17967672882E+02  0.55855190930E+01 -0.23365507215E+01  0.18960347093E+02  0.51100000000E-03 0.  1.
        -12    1    3    3    0    0 -0.19793858160E+02  0.16857986988E+02  0.92171209949E+01  0.27585210994E+02  0.00000000000E+00 0.  1.
</event>
<event>
 7    1  0.2432574E-011  0.5052886E+02  0.7816164E-02  0.1300439E+00
        -11   -1    0    0    0    0  0.00000000000E+00  0.00000000000E+00  0.45593999997E+02  0.45594000000E+02  0.51100000000E-03 0.  1.
         11   -1    0    0    0    0 -0.00000000000E+00 -0.00000000000E+00 -0.45593999997E+02  0.45594000000E+02  0.51100000000E-03 0. -1.
    9900012    2    1    2    0    0 -0.38398204380E+02 -0.11679305449E+02  0.65066994221E+01  0.50528863108E+02  0.30000009905E+02 0.  0.
         12    1    1    2    0    0  0.38398204380E+02  0.11679305449E+02 -0.65066994221E+01  0.40659136892E+02  0.00000000000E+00 0. -1.
         11    1    3    3    0    0  0.21889500558E+01 -0.24966300663E+01  0.23165651995E+01  0.40485971174E+01  0.51100000000E-03 0. -1.
        -11    1    3    3    0    0 -0.10589124907E+02 -0.32410833137E+01 -0.78928268739E+01  0.13598930240E+02  0.51100000000E-03 0.  1.
        -12    1    3    3    0    0 -0.29998029529E+02 -0.59415920688E+01  0.12082961097E+02  0.32881335751E+02  0.00000000000E+00 0.  1.
</event>
<event>
 7    1  0.2432574E-011  0.5052887E+02  0.7816164E-02  0.1300439E+00
        -11   -1    0    0    0    0  0.00000000000E+00  0.00000000000E+00  0.45593999997E+02  0.45594000000E+02  0.51100000000E-03 0.  1.
         11   -1    0    0    0    0 -0.00000000000E+00 -0.00000000000E+00 -0.45593999997E+02  0.45594000000E+02  0.51100000000E-03 0. -1.
    9900012    2    1    2    0    0 -0.13230318921E+02  0.37178253863E+02  0.97929119945E+01  0.50528867884E+02  0.30000024421E+02 0.  0.
         12    1    1    2    0    0  0.13230318921E+02 -0.37178253863E+02 -0.97929119945E+01  0.40659132116E+02  0.00000000000E+00 0. -1.
         11    1    3    3    0    0 -0.12901869397E+02  0.13682298022E+02  0.95413938315E+01  0.21087951764E+02  0.51100000000E-03 0. -1.
        -11    1    3    3    0    0 -0.46528718400E+01  0.20248785626E+02  0.59231649399E+01  0.21604314821E+02  0.51100000000E-03 0.  1.
         12    1    3    3    0    0  0.43244223153E+01  0.32471702145E+01 -0.56716467769E+01  0.78366012993E+01  0.00000000000E+00 0. -1.
</event>
<event>
 7    1  0.2851976E-011  0.5052885E+02  0.7816164E-02  0.1300439E+00
        -11   -1    0    0    0    0  0.00000000000E+00  0.00000000000E+00  0.45593999997E+02  0.45594000000E+02  0.51100000000E-03 0.  1.
         11   -1    0    0    0    0 -0.00000000000E+00 -0.00000000000E+00 -0.45593999997E+02  0.45594000000E+02  0.51100000000E-03 0. -1.
    9900012    2    1    2    0    0  0.39623920747E+02  0.49984843659E+01 -0.76240626534E+01  0.50528852534E+02  0.29999977762E+02 0.  0.
         12    1    1    2    0    0 -0.39623920747E+02 -0.49984843659E+01  0.76240626534E+01  0.40659147466E+02  0.00000000000E+00 0. -1.
         11    1    3    3    0    0  0.26731486839E+00  0.29783794217E+01 -0.66512161351E+01  0.72925220298E+01  0.51100000000E-03 0. -1.
        -11    1    3    3    0    0  0.74788212035E+01 -0.67644565129E+01  0.85119690345E+00  0.10120038287E+02  0.51100000000E-03 0.  1.
        -12    1    3    3    0    0  0.31877784675E+02  0.87845614571E+01 -0.18240434218E+01  0.33116292217E+02  0.00000000000E+00 0.  1.
</event>
<event>
 7    1  0.2432574E-011  0.5052889E+02  0.7816164E-02  0.1300439E+00
        -11   -1    0    0    0    0  0.00000000000E+00  0.00000000000E+00  0.45593999997E+02  0.45594000000E+02  0.51100000000E-03 0. -1.
         11   -1    0    0    0    0 -0.00000000000E+00 -0.00000000000E+00 -0.45593999997E+02  0.45594000000E+02  0.51100000000E-03 0.  1.
    9900012    2    1    2    0    0  0.40402568277E+02  0.11379865244E+01  0.44160008775E+01  0.50528885395E+02  0.30000077646E+02 0.  0.
         12    1    1    2    0    0 -0.40402568277E+02 -0.11379865244E+01 -0.44160008775E+01  0.40659114605E+02  0.00000000000E+00 0. -1.
         11    1    3    3    0    0  0.25934176268E+02 -0.15193835818E+01  0.11911165419E+02  0.28579116275E+02  0.51100000000E-03 0. -1.
        -11    1    3    3    0    0  0.29641809157E+00 -0.41920947330E+01 -0.40506611288E+01  0.58368979584E+01  0.51100000000E-03 0.  1.
        -12    1    3    3    0    0  0.14171973917E+02  0.68494648393E+01 -0.34445034123E+01  0.16112871161E+02  0.00000000000E+00 0.  1.
</event>
<event>
 7    1  0.2432574E-011  0.5052886E+02  0.7816164E-02  0.1300439E+00
        -11   -1    0    0    0    0  0.00000000000E+00  0.00000000000E+00  0.45593999997E+02  0.45594000000E+02  0.51100000000E-03 0. -1.
         11   -1    0    0    0    0 -0.00000000000E+00 -0.00000000000E+00 -0.45593999997E+02  0.45594000000E+02  0.51100000000E-03 0.  1.
    9900012    2    1    2    0    0  0.32323318871E+02 -0.13943155259E+02 -0.20345934132E+02  0.50528861333E+02  0.30000004508E+02 0.  0.
         12    1    1    2    0    0 -0.32323318871E+02  0.13943155259E+02  0.20345934132E+02  0.40659138667E+02  0.00000000000E+00 0. -1.
         11    1    3    3    0    0 -0.20786033113E+01 -0.75053540043E+01 -0.59252591841E+01  0.97856848057E+01  0.51100000000E-03 0. -1.
        -11    1    3    3    0    0  0.14562632927E+02 -0.67015784726E+01  0.30676266290E+00  0.16033575253E+02  0.51100000000E-03 0.  1.
         12    1    3    3    0    0  0.19839289255E+02  0.26377721785E+00 -0.14727437611E+02  0.24709601275E+02  0.00000000000E+00 0. -1.
</event>
<event>
 7    1  0.2432574E-011  0.5052891E+02  0.7816164E-02  0.1300439E+00
        -11   -1    0    0    0    0  0.00000000000E+00  0.00000000000E+00  0.45593999997E+02  0.45594000000E+02  0.51100000000E-03 0.  1.
         11   -1    0    0    0    0 -0.00000000000E+00 -0.00000000000E+00 -0.45593999997E+02  0.45594000000E+02  0.51100000000E-03 0. -1.
    9900012    2    1    2    0    0 -0.22192383045E+02  0.15590077499E+02  0.30292069006E+02  0.50528907213E+02  0.30000143963E+02 0.  0.
         12    1    1    2    0    0  0.22192383045E+02 -0.15590077499E+02 -0.30292069006E+02  0.40659092787E+02  0.00000000000E+00 0. -1.
         11    1    3    3    0    0 -0.44967336189E+01  0.19147942753E+01 -0.25414710735E+01  0.55087317810E+01  0.51100000000E-03 0. -1.
        -11    1    3    3    0    0 -0.87958617391E+01  0.46534313840E+01  0.30567403317E+02  0.32146348987E+02  0.51100000000E-03 0.  1.
         12    1    3    3    0    0 -0.88997876872E+01  0.90218518399E+01  0.22661367616E+01  0.12873826444E+02  0.00000000000E+00 0. -1.
</event>
<event>
 7    1  0.2432574E-011  0.5052881E+02  0.7816164E-02  0.1300439E+00
        -11   -1    0    0    0    0  0.00000000000E+00  0.00000000000E+00  0.45593999997E+02  0.45594000000E+02  0.51100000000E-03 0. -1.
         11   -1    0    0    0    0 -0.00000000000E+00 -0.00000000000E+00 -0.45593999997E+02  0.45594000000E+02  0.51100000000E-03 0.  1.
    9900012    2    1    2    0    0 -0.39968669442E+02  0.55628043910E+01 -0.49729392652E+01  0.50528813404E+02  0.29999858824E+02 0.  0.
         12    1    1    2    0    0  0.39968669442E+02 -0.55628043910E+01  0.49729392652E+01  0.40659186596E+02  0.00000000000E+00 0. -1.
         11    1    3    3    0    0 -0.13545137687E+01  0.45476377843E+01  0.26299433772E+01  0.54251561632E+01  0.51100000000E-03 0. -1.
        -11    1    3    3    0    0 -0.39185217867E+02  0.28750635670E+01 -0.21897770530E+01  0.39351523650E+02  0.51100000000E-03 0.  1.
         12    1    3    3    0    0  0.57106219289E+00 -0.18598969603E+01 -0.54131055894E+01  0.57521335913E+01  0.00000000000E+00 0. -1.
</event>
<event>
 7    1  0.2432574E-011  0.5052888E+02  0.7816164E-02  0.1300439E+00
        -11   -1    0    0    0    0  0.00000000000E+00  0.00000000000E+00  0.45593999997E+02  0.45594000000E+02  0.51100000000E-03 0.  1.
         11   -1    0    0    0    0 -0.00000000000E+00 -0.00000000000E+00 -0.45593999997E+02  0.45594000000E+02  0.51100000000E-03 0. -1.
    9900012    2    1    2    0    0 -0.78709040315E+01 -0.10510371104E+02  0.38480450645E+02  0.50528879093E+02  0.30000058493E+02 0.  0.
         12    1    1    2    0    0  0.78709040315E+01  0.10510371104E+02 -0.38480450645E+02  0.40659120907E+02  0.00000000000E+00 0. -1.
         11    1    3    3    0    0 -0.10611916090E+02 -0.11286486163E+02  0.20542931066E+02  0.25729546246E+02  0.51100000000E-03 0. -1.
        -11    1    3    3    0    0 -0.32838115742E+01 -0.64626133330E+01  0.10687619555E+02  0.12914100881E+02  0.51100000000E-03 0.  1.
        -12    1    3    3    0    0  0.60248236324E+01  0.72387283918E+01  0.72499000245E+01  0.11885231967E+02  0.00000000000E+00 0.  1.
</event>
<event>
 7    1  0.2432574E-011  0.5052876E+02  0.7816164E-02  0.1300439E+00
        -11   -1    0    0    0    0  0.00000000000E+00  0.00000000000E+00  0.45593999997E+02  0.45594000000E+02  0.51100000000E-03 0.  1.
         11   -1    0    0    0    0 -0.00000000000E+00 -0.00000000000E+00 -0.45593999997E+02  0.45594000000E+02  0.51100000000E-03 0. -1.
    9900012    2    1    2    0    0  0.25564877834E+02  0.24055768069E+02 -0.20516596565E+02  0.50528761312E+02  0.29999700483E+02 0.  0.
         12    1    1    2    0    0 -0.25564877834E+02 -0.24055768069E+02  0.20516596565E+02  0.40659238688E+02  0.00000000000E+00 0. -1.
         11    1    3    3    0    0  0.49638317530E+01  0.69533546710E+01 -0.74042711637E+01  0.11305396878E+02  0.51100000000E-03 0.  1.
        -11    1    3    3    0    0  0.18500229770E+02  0.13106316737E+02  0.26505292747E+01  0.22826724374E+02  0.51100000000E-03 0. -1.
         12    1    3    3    0    0  0.21008163105E+01  0.39960966612E+01 -0.15762854676E+02  0.16396640060E+02  0.00000000000E+00 0. -1.
</event>
<event>
 7    1  0.2432574E-011  0.5052887E+02  0.7816164E-02  0.1300439E+00
        -11   -1    0    0    0    0  0.00000000000E+00  0.00000000000E+00  0.45593999997E+02  0.45594000000E+02  0.51100000000E-03 0.  1.
         11   -1    0    0    0    0 -0.00000000000E+00 -0.00000000000E+00 -0.45593999997E+02  0.45594000000E+02  0.51100000000E-03 0. -1.
    9900012    2    1    2    0    0  0.32252720179E+02 -0.15583775098E+02  0.19237270906E+02  0.50528873139E+02  0.30000040392E+02 0.  0.
         12    1    1    2    0    0 -0.32252720179E+02  0.15583775098E+02 -0.19237270906E+02  0.40659126861E+02  0.00000000000E+00 0. -1.
         11    1    3    3    0    0  0.68437472374E+01 -0.24055046485E+01 -0.48186366251E+01  0.87087650129E+01  0.51100000000E-03 0. -1.
        -11    1    3    3    0    0  0.11727711732E+02 -0.14121327282E+01  0.20150261593E+02  0.23357362519E+02  0.51100000000E-03 0.  1.
         12    1    3    3    0    0  0.13681261209E+02 -0.11766137721E+02  0.39056459379E+01  0.18462745607E+02  0.00000000000E+00 0. -1.
</event>
<event>
 7    1  0.2432574E-011  0.5052887E+02  0.7816164E-02  0.1300439E+00
        -11   -1    0    0    0    0  0.00000000000E+00  0.00000000000E+00  0.45593999997E+02  0.45594000000E+02  0.51100000000E-03 0.  1.
         11   -1    0    0    0    0 -0.00000000000E+00 -0.00000000000E+00 -0.45593999997E+02  0.45594000000E+02  0.51100000000E-03 0. -1.
    9900012    2    1    2    0    0 -0.36940666937E+02  0.78626932936E+01 -0.15057557283E+02  0.50528870018E+02  0.30000030907E+02 0.  0.
         12    1    1    2    0    0  0.36940666937E+02 -0.78626932936E+01  0.15057557283E+02  0.40659129982E+02  0.00000000000E+00 0. -1.
         11    1    3    3    0    0 -0.17472599199E+02  0.67493464033E+01 -0.10792347900E+00  0.18731178483E+02  0.51100000000E-03 0.  1.
        -11    1    3    3    0    0 -0.10957664321E+02 -0.36464032154E+01 -0.18169353325E+02  0.21528865838E+02  0.51100000000E-03 0. -1.
         12    1    3    3    0    0 -0.85104034170E+01  0.47597501057E+01  0.32197195211E+01  0.10268825696E+02  0.00000000000E+00 0. -1.
</event>
<event>
 7    1  0.2432574E-011  0.5052884E+02  0.7816164E-02  0.1300439E+00
        -11   -1    0    0    0    0  0.00000000000E+00  0.00000000000E+00  0.45593999997E+02  0.45594000000E+02  0.51100000000E-03 0.  1.
         11   -1    0    0    0    0 -0.00000000000E+00 -0.00000000000E+00 -0.45593999997E+02  0.45594000000E+02  0.51100000000E-03 0. -1.
    9900012    2    1    2    0    0 -0.36370302806E+02  0.52642972464E+01 -0.17396994728E+02  0.50528841409E+02  0.29999943948E+02 0.  0.
         12    1    1    2    0    0  0.36370302806E+02 -0.52642972464E+01  0.17396994728E+02  0.40659158591E+02  0.00000000000E+00 0. -1.
         11    1    3    3    0    0  0.16438684987E+01  0.15284743473E+01  0.29409337131E+01  0.36996795587E+01  0.51100000000E-03 0. -1.
        -11    1    3    3    0    0 -0.45924297383E+01  0.10727496640E+01 -0.11087446688E+02  0.12048762470E+02  0.51100000000E-03 0.  1.
        -12    1    3    3    0    0 -0.33421741567E+02  0.26630732351E+01 -0.92504817540E+01  0.34780399381E+02  0.00000000000E+00 0.  1.
</event>
<event>
 7    1  0.2432574E-011  0.5052886E+02  0.7816164E-02  0.1300439E+00
        -11   -1    0    0    0    0  0.00000000000E+00  0.00000000000E+00  0.45593999997E+02  0.45594000000E+02  0.51100000000E-03 0.  1.
         11   -1    0    0    0    0 -0.00000000000E+00 -0.00000000000E+00 -0.45593999997E+02  0.45594000000E+02  0.51100000000E-03 0. -1.
    9900012    2    1    2    0    0 -0.12390680279E+02  0.38725084925E+02 -0.69565655781E-01  0.50528855892E+02  0.29999987968E+02 0.  0.
         12    1    1    2    0    0  0.12390680279E+02 -0.38725084925E+02  0.69565655781E-01  0.40659144108E+02  0.00000000000E+00 0. -1.
         11    1    3    3    0    0  0.60948043121E+01  0.12889654827E+02  0.56137749333E+01  0.15323325698E+02  0.51100000000E-03 0. -1.
        -11    1    3    3    0    0 -0.15941382002E+01  0.55364942360E+01  0.40703174005E+01  0.70541852136E+01  0.51100000000E-03 0.  1.
         12    1    3    3    0    0 -0.16891346391E+02  0.20298935862E+02 -0.97536579896E+01  0.28151344980E+02  0.00000000000E+00 0. -1.
</event>
<event>
 7    1  0.2432574E-011  0.5052886E+02  0.7816164E-02  0.1300439E+00
        -11   -1    0    0    0    0  0.00000000000E+00  0.00000000000E+00  0.45593999997E+02  0.45594000000E+02  0.51100000000E-03 0.  1.
         11   -1    0    0    0    0 -0.00000000000E+00 -0.00000000000E+00 -0.45593999997E+02  0.45594000000E+02  0.51100000000E-03 0. -1.
    9900012    2    1    2    0    0 -0.35907847036E+02 -0.13055840684E+02  0.13904574980E+02  0.50528860067E+02  0.30000000660E+02 0.  0.
         12    1    1    2    0    0  0.35907847036E+02  0.13055840684E+02 -0.13904574980E+02  0.40659139933E+02  0.00000000000E+00 0. -1.
         11    1    3    3    0    0 -0.87727612634E+01 -0.10446363139E+02 -0.20445292384E+01  0.13793764645E+02  0.51100000000E-03 0. -1.
        -11    1    3    3    0    0 -0.18097280867E+02 -0.10595678068E+02  0.90484013550E+01  0.22839735898E+02  0.51100000000E-03 0.  1.
        -12    1    3    3    0    0 -0.90378049048E+01  0.79862005235E+01  0.69007028635E+01  0.13895359524E+02  0.00000000000E+00 0.  1.
</event>
<event>
 7    1  0.2432574E-011  0.5052876E+02  0.7816164E-02  0.1300439E+00
        -11   -1    0    0    0    0  0.00000000000E+00  0.00000000000E+00  0.45593999997E+02  0.45594000000E+02  0.51100000000E-03 0.  1.
         11   -1    0    0    0    0 -0.00000000000E+00 -0.00000000000E+00 -0.45593999997E+02  0.45594000000E+02  0.51100000000E-03 0. -1.
    9900012    2    1    2    0    0 -0.96846036504E+01 -0.12750037016E+02  0.37374036660E+02  0.50528762329E+02  0.29999703572E+02 0.  0.
         12    1    1    2    0    0  0.96846036504E+01  0.12750037016E+02 -0.37374036660E+02  0.40659237671E+02  0.00000000000E+00 0. -1.
         11    1    3    3    0    0 -0.44548702614E+01 -0.13589869462E+01 -0.29827764824E+01  0.55307929243E+01  0.51100000000E-03 0. -1.
        -11    1    3    3    0    0 -0.19282514868E+01 -0.96722771740E+01  0.87860412380E+01  0.13208543463E+02  0.51100000000E-03 0.  1.
        -12    1    3    3    0    0 -0.33014819022E+01 -0.17187728957E+01  0.31570771904E+02  0.31789425941E+02  0.00000000000E+00 0.  1.
</event>
<event>
 7    1  0.2432574E-011  0.5052885E+02  0.7816164E-02  0.1300439E+00
        -11   -1    0    0    0    0  0.00000000000E+00  0.00000000000E+00  0.45593999997E+02  0.45594000000E+02  0.51100000000E-03 0.  1.
         11   -1    0    0    0    0 -0.00000000000E+00 -0.00000000000E+00 -0.45593999997E+02  0.45594000000E+02  0.51100000000E-03 0. -1.
    9900012    2    1    2    0    0  0.40649869075E+02 -0.49765851328E-01 -0.86712732836E+00  0.50528852908E+02  0.29999978899E+02 0.  0.
         12    1    1    2    0    0 -0.40649869075E+02  0.49765851328E-01  0.86712732836E+00  0.40659147092E+02  0.00000000000E+00 0. -1.
         11    1    3    3    0    0  0.11489065321E+02 -0.52391765807E+01 -0.64284901217E+01  0.14169441721E+02  0.51100000000E-03 0. -1.
        -11    1    3    3    0    0  0.21357217206E+02  0.71788436292E+01 -0.49984374670E+01  0.23079230924E+02  0.51100000000E-03 0.  1.
        -12    1    3    3    0    0  0.78035865478E+01 -0.19894328998E+01  0.10559800260E+02  0.13280180263E+02  0.00000000000E+00 0.  1.
</event>
<event>
 7    1  0.2432574E-011  0.5052886E+02  0.7816164E-02  0.1300439E+00
        -11   -1    0    0    0    0  0.00000000000E+00  0.00000000000E+00  0.45593999997E+02  0.45594000000E+02  0.51100000000E-03 0.  1.
         11   -1    0    0    0    0 -0.00000000000E+00 -0.00000000000E+00 -0.45593999997E+02  0.45594000000E+02  0.51100000000E-03 0. -1.
    9900012    2    1    2    0    0 -0.17008587554E+02 -0.24057848087E+01  0.36852212357E+02  0.50528863182E+02  0.30000010129E+02 0.  0.
         12    1    1    2    0    0  0.17008587554E+02  0.24057848087E+01 -0.36852212357E+02  0.40659136818E+02  0.00000000000E+00 0. -1.
         11    1    3    3    0    0 -0.84913073997E+01  0.12342058819E+01  0.44693424943E+00  0.85921659667E+01  0.51100000000E-03 0. -1.
        -11    1    3    3    0    0  0.16226579590E+01  0.48944297704E+01  0.29242064445E+01  0.59278533400E+01  0.51100000000E-03 0.  1.
        -12    1    3    3    0    0 -0.10139938114E+02 -0.85344204610E+01  0.33481071663E+02  0.36008843876E+02  0.00000000000E+00 0.  1.
</event>
<event>
 7    1  0.2432574E-011  0.5052886E+02  0.7816164E-02  0.1300439E+00
        -11   -1    0    0    0    0  0.00000000000E+00  0.00000000000E+00  0.45593999997E+02  0.45594000000E+02  0.51100000000E-03 0.  1.
         11   -1    0    0    0    0 -0.00000000000E+00 -0.00000000000E+00 -0.45593999997E+02  0.45594000000E+02  0.51100000000E-03 0. -1.
    9900012    2    1    2    0    0 -0.14146328247E+02 -0.11035372030E+02  0.36486542930E+02  0.50528857686E+02  0.29999993424E+02 0.  0.
         12    1    1    2    0    0  0.14146328247E+02  0.11035372030E+02 -0.36486542930E+02  0.40659142314E+02  0.00000000000E+00 0. -1.
         11    1    3    3    0    0  0.36942028657E+01 -0.86212479903E+00  0.15526305418E+01  0.40989091040E+01  0.51100000000E-03 0. -1.
        -11    1    3    3    0    0 -0.11139326646E+02  0.42584981889E+01  0.58619116401E+01  0.13288393932E+02  0.51100000000E-03 0.  1.
        -12    1    3    3    0    0 -0.67012044664E+01 -0.14431745420E+02  0.29072000748E+02  0.33141554651E+02  0.00000000000E+00 0.  1.
</event>
<event>
 7    1  0.2432574E-011  0.5052886E+02  0.7816164E-02  0.1300439E+00
        -11   -1    0    0    0    0  0.00000000000E+00  0.00000000000E+00  0.45593999997E+02  0.45594000000E+02  0.51100000000E-03 0.  1.
         11   -1    0    0    0    0 -0.00000000000E+00 -0.00000000000E+00 -0.45593999997E+02  0.45594000000E+02  0.51100000000E-03 0. -1.
    9900012    2    1    2    0    0 -0.30320095555E+02 -0.71115436798E-01  0.27089711867E+02  0.50528859074E+02  0.29999997640E+02 0.  0.
         12    1    1    2    0    0  0.30320095555E+02  0.71115436798E-01 -0.27089711867E+02  0.40659140926E+02  0.00000000000E+00 0. -1.
         11    1    3    3    0    0 -0.32459420240E+01  0.18727677419E+01 -0.31362416384E+01  0.48866563737E+01  0.51100000000E-03 0. -1.
        -11    1    3    3    0    0  0.30062702315E+01 -0.27100303908E+01  0.45142552111E+01  0.60630376706E+01  0.51100000000E-03 0.  1.
        -12    1    3    3    0    0 -0.30080423762E+02  0.76614721208E+00  0.25711698294E+02  0.39579165029E+02  0.00000000000E+00 0.  1.
</event>
<event>
 7    1  0.2432574E-011  0.5052890E+02  0.7816164E-02  0.1300439E+00
        -11   -1    0    0    0    0  0.00000000000E+00  0.00000000000E+00  0.45593999997E+02  0.45594000000E+02  0.51100000000E-03 0.  1.
         11   -1    0    0    0    0 -0.00000000000E+00 -0.00000000000E+00 -0.45593999997E+02  0.45594000000E+02  0.51100000000E-03 0. -1.
    9900012    2    1    2    0    0 -0.13876411439E+02  0.21507221386E+02  0.31591886915E+02  0.50528896652E+02  0.30000111864E+02 0.  0.
         12    1    1    2    0    0  0.13876411439E+02 -0.21507221386E+02 -0.31591886915E+02  0.40659103348E+02  0.00000000000E+00 0. -1.
         11    1    3    3    0    0 -0.58244776583E+01  0.22621743484E+01 -0.26831411397E+01  0.68000896620E+01  0.51100000000E-03 0. -1.
        -11    1    3    3    0    0 -0.13384411896E+02  0.14806469830E+02  0.22636583980E+02  0.30179280395E+02  0.51100000000E-03 0.  1.
         12    1    3    3    0    0  0.53324781147E+01  0.44385772078E+01  0.11638444075E+02  0.13549526596E+02  0.00000000000E+00 0. -1.
</event>
<event>
 7    1  0.2432574E-011  0.5052885E+02  0.7816164E-02  0.1300439E+00
        -11   -1    0    0    0    0  0.00000000000E+00  0.00000000000E+00  0.45593999997E+02  0.45594000000E+02  0.51100000000E-03 0. -1.
         11   -1    0    0    0    0 -0.00000000000E+00 -0.00000000000E+00 -0.45593999997E+02  0.45594000000E+02  0.51100000000E-03 0.  1.
    9900012    2    1    2    0    0 -0.19457017277E+02  0.19338284622E+02 -0.30010353798E+02  0.50528854552E+02  0.29999983897E+02 0.  0.
         12    1    1    2    0    0  0.19457017277E+02 -0.19338284622E+02  0.30010353798E+02  0.40659145448E+02  0.00000000000E+00 0. -1.
         11    1    3    3    0    0 -0.30103573042E+01  0.19876059581E+01  0.39075620530E+01  0.53180701390E+01  0.51100000000E-03 0. -1.
        -11    1    3    3    0    0 -0.14915974243E+02  0.14406842668E+02 -0.14005771329E+02  0.25024089076E+02  0.51100000000E-03 0.  1.
        -12    1    3    3    0    0 -0.15306857296E+01  0.29438359961E+01 -0.19912144522E+02  0.20186695337E+02  0.00000000000E+00 0.  1.
</event>
<event>
 7    1  0.2432574E-011  0.5052885E+02  0.7816164E-02  0.1300439E+00
        -11   -1    0    0    0    0  0.00000000000E+00  0.00000000000E+00  0.45593999997E+02  0.45594000000E+02  0.51100000000E-03 0. -1.
         11   -1    0    0    0    0 -0.00000000000E+00 -0.00000000000E+00 -0.45593999997E+02  0.45594000000E+02  0.51100000000E-03 0.  1.
    9900012    2    1    2    0    0 -0.28213821094E+02 -0.29156274274E+02  0.26568471793E+01  0.50528845223E+02  0.29999955539E+02 0.  0.
         12    1    1    2    0    0  0.28213821094E+02  0.29156274274E+02 -0.26568471793E+01  0.40659154777E+02  0.00000000000E+00 0. -1.
         11    1    3    3    0    0 -0.13722612721E+02 -0.17441483950E+01 -0.27814709479E+01  0.14109880737E+02  0.51100000000E-03 0. -1.
        -11    1    3    3    0    0 -0.12910373460E+02 -0.88441471032E+01 -0.30467384869E+01  0.15943001491E+02  0.51100000000E-03 0.  1.
         12    1    3    3    0    0 -0.15808349127E+01 -0.18567978776E+02  0.84850566141E+01  0.20475962995E+02  0.00000000000E+00 0. -1.
</event>
<event>
 7    1  0.2432574E-011  0.5052887E+02  0.7816164E-02  0.1300439E+00
        -11   -1    0    0    0    0  0.00000000000E+00  0.00000000000E+00  0.45593999997E+02  0.45594000000E+02  0.51100000000E-03 0.  1.
         11   -1    0    0    0    0 -0.00000000000E+00 -0.00000000000E+00 -0.45593999997E+02  0.45594000000E+02  0.51100000000E-03 0. -1.
    9900012    2    1    2    0    0 -0.46124218835E+01 -0.17169341741E+02  0.36566436743E+02  0.50528867846E+02  0.30000024305E+02 0.  0.
         12    1    1    2    0    0  0.46124218835E+01  0.17169341741E+02 -0.36566436743E+02  0.40659132154E+02  0.00000000000E+00 0. -1.
         11    1    3    3    0    0 -0.94361851092E+01  0.16042678941E+01  0.50250434169E+01  0.10810473000E+02  0.51100000000E-03 0. -1.
        -11    1    3    3    0    0 -0.88931858790E+00 -0.86607202522E+01  0.35305966391E+01  0.93948962595E+01  0.51100000000E-03 0.  1.
         12    1    3    3    0    0  0.57130818136E+01 -0.10112889383E+02  0.28010796687E+02  0.30323498586E+02  0.00000000000E+00 0. -1.
</event>
<event>
 7    1  0.2432574E-011  0.5052884E+02  0.7816164E-02  0.1300439E+00
        -11   -1    0    0    0    0  0.00000000000E+00  0.00000000000E+00  0.45593999997E+02  0.45594000000E+02  0.51100000000E-03 0. -1.
         11   -1    0    0    0    0 -0.00000000000E+00 -0.00000000000E+00 -0.45593999997E+02  0.45594000000E+02  0.51100000000E-03 0.  1.
    9900012    2    1    2    0    0  0.48404059370E+01 -0.40344545259E+02 -0.14336681728E+01  0.50528840315E+02  0.29999940623E+02 0.  0.
         12    1    1    2    0    0 -0.48404059370E+01  0.40344545259E+02  0.14336681728E+01  0.40659159685E+02  0.00000000000E+00 0. -1.
         11    1    3    3    0    0  0.45567517848E+00 -0.24947368654E+02 -0.94308565760E+01  0.26674330332E+02  0.51100000000E-03 0. -1.
        -11    1    3    3    0    0  0.10089778146E+02 -0.97505251211E+01  0.28464010974E+01  0.14317065434E+02  0.51100000000E-03 0.  1.
         12    1    3    3    0    0 -0.57050473870E+01 -0.56466514842E+01  0.51507873058E+01  0.95374445499E+01  0.00000000000E+00 0. -1.
</event>
<event>
 7    1  0.2432574E-011  0.5052885E+02  0.7816164E-02  0.1300439E+00
        -11   -1    0    0    0    0  0.00000000000E+00  0.00000000000E+00  0.45593999997E+02  0.45594000000E+02  0.51100000000E-03 0.  1.
         11   -1    0    0    0    0 -0.00000000000E+00 -0.00000000000E+00 -0.45593999997E+02  0.45594000000E+02  0.51100000000E-03 0. -1.
    9900012    2    1    2    0    0 -0.29278617795E+02  0.24078890501E+02  0.14701562412E+02  0.50528851397E+02  0.29999974307E+02 0.  0.
         12    1    1    2    0    0  0.29278617795E+02 -0.24078890501E+02 -0.14701562412E+02  0.40659148603E+02  0.00000000000E+00 0. -1.
         11    1    3    3    0    0 -0.21008922339E+02  0.11700069521E+02  0.94660990647E+00  0.24065795545E+02  0.51100000000E-03 0. -1.
        -11    1    3    3    0    0 -0.22991728077E+01  0.78160393345E+01 -0.25275383866E+01  0.85302471849E+01  0.51100000000E-03 0.  1.
         12    1    3    3    0    0 -0.59705226486E+01  0.45627816451E+01  0.16282490892E+02  0.17932808667E+02  0.00000000000E+00 0. -1.
</event>
<event>
 7    1  0.2432574E-011  0.5052886E+02  0.7816164E-02  0.1300439E+00
        -11   -1    0    0    0    0  0.00000000000E+00  0.00000000000E+00  0.45593999997E+02  0.45594000000E+02  0.51100000000E-03 0. -1.
         11   -1    0    0    0    0 -0.00000000000E+00 -0.00000000000E+00 -0.45593999997E+02  0.45594000000E+02  0.51100000000E-03 0.  1.
    9900012    2    1    2    0    0 -0.36005679506E+02 -0.18345538297E+02 -0.44942258494E+01  0.50528858370E+02  0.29999995502E+02 0.  0.
         12    1    1    2    0    0  0.36005679506E+02  0.18345538297E+02  0.44942258494E+01  0.40659141630E+02  0.00000000000E+00 0. -1.
         11    1    3    3    0    0 -0.60676929180E+01 -0.24874477981E+01  0.90619114898E+01  0.11185818433E+02  0.51100000000E-03 0.  1.
        -11    1    3    3    0    0 -0.22601613162E+01  0.16826948634E+01  0.15993240252E+01  0.32400044409E+01  0.51100000000E-03 0. -1.
        -12    1    3    3    0    0 -0.27677825272E+02 -0.17540785362E+02 -0.15155461364E+02  0.36103035497E+02  0.00000000000E+00 0.  1.
</event>
<event>
 7    1  0.2432574E-011  0.5052885E+02  0.7816164E-02  0.1300439E+00
        -11   -1    0    0    0    0  0.00000000000E+00  0.00000000000E+00  0.45593999997E+02  0.45594000000E+02  0.51100000000E-03 0. -1.
         11   -1    0    0    0    0 -0.00000000000E+00 -0.00000000000E+00 -0.45593999997E+02  0.45594000000E+02  0.51100000000E-03 0.  1.
    9900012    2    1    2    0    0  0.17922579104E+02 -0.32173815472E+02 -0.17227692111E+02  0.50528848272E+02  0.29999964808E+02 0.  0.
         12    1    1    2    0    0 -0.17922579104E+02  0.32173815472E+02  0.17227692111E+02  0.40659151728E+02  0.00000000000E+00 0. -1.
         11    1    3    3    0    0  0.20819794999E+01 -0.11124571498E+02 -0.12851546477E+02  0.17124630704E+02  0.51100000000E-03 0. -1.
        -11    1    3    3    0    0  0.13958882847E+02 -0.15518695242E+02 -0.11784306538E+02  0.23969776661E+02  0.51100000000E-03 0.  1.
         12    1    3    3    0    0  0.18817167572E+01 -0.55305487324E+01  0.74081609045E+01  0.94344409068E+01  0.00000000000E+00 0. -1.
</event>
<event>
 7    1  0.2432574E-011  0.5052886E+02  0.7816164E-02  0.1300439E+00
        -11   -1    0    0    0    0  0.00000000000E+00  0.00000000000E+00  0.45593999997E+02  0.45594000000E+02  0.51100000000E-03 0.  1.
         11   -1    0    0    0    0 -0.00000000000E+00 -0.00000000000E+00 -0.45593999997E+02  0.45594000000E+02  0.51100000000E-03 0. -1.
    9900012    2    1    2    0    0 -0.63770801394E+01 -0.78008199769E+01  0.39390935633E+02  0.50528858918E+02  0.29999997169E+02 0.  0.
         12    1    1    2    0    0  0.63770801394E+01  0.78008199769E+01 -0.39390935633E+02  0.40659141082E+02  0.00000000000E+00 0. -1.
         11    1    3    3    0    0 -0.61525510795E+01 -0.12477669749E+02  0.11539556954E+02  0.18075051926E+02  0.51100000000E-03 0. -1.
        -11    1    3    3    0    0 -0.55998184584E+01  0.18877993517E+01  0.25471579292E+01  0.64350421084E+01  0.51100000000E-03 0.  1.
        -12    1    3    3    0    0  0.53752893984E+01  0.27890504203E+01  0.25304220750E+02  0.26018764884E+02  0.00000000000E+00 0.  1.
</event>
<event>
 7    1  0.2432574E-011  0.5052894E+02  0.7816164E-02  0.1300439E+00
        -11   -1    0    0    0    0  0.00000000000E+00  0.00000000000E+00  0.45593999997E+02  0.45594000000E+02  0.51100000000E-03 0. -1.
         11   -1    0    0    0    0 -0.00000000000E+00 -0.00000000000E+00 -0.45593999997E+02  0.45594000000E+02  0.51100000000E-03 0.  1.
    9900012    2    1    2    0    0 -0.16007990708E+02  0.19872659887E+02 -0.31654078836E+02  0.50528940931E+02  0.30000246452E+02 0.  0.
         12    1    1    2    0    0  0.16007990708E+02 -0.19872659887E+02  0.31654078836E+02  0.40659059069E+02  0.00000000000E+00 0. -1.
         11    1    3    3    0    0 -0.30968109677E+01  0.98182440422E+01  0.23975691400E+01  0.10570548344E+02  0.51100000000E-03 0. -1.
        -11    1    3    3    0    0  0.22302852431E+01  0.19643320255E+01 -0.98337477839E+01  0.10273040850E+02  0.51100000000E-03 0.  1.
        -12    1    3    3    0    0 -0.15141464983E+02  0.80900838190E+01 -0.24217900192E+02  0.29685351737E+02  0.00000000000E+00 0.  1.
</event>
<event>
 7    1  0.2432574E-011  0.5052893E+02  0.7816164E-02  0.1300439E+00
        -11   -1    0    0    0    0  0.00000000000E+00  0.00000000000E+00  0.45593999997E+02  0.45594000000E+02  0.51100000000E-03 0.  1.
         11   -1    0    0    0    0 -0.00000000000E+00 -0.00000000000E+00 -0.45593999997E+02  0.45594000000E+02  0.51100000000E-03 0. -1.
    9900012    2    1    2    0    0 -0.23030256675E+02 -0.37789167124E+01  0.33293946213E+02  0.50528932273E+02  0.30000220135E+02 0.  0.
         12    1    1    2    0    0  0.23030256675E+02  0.37789167124E+01 -0.33293946213E+02  0.40659067727E+02  0.00000000000E+00 0. -1.
         11    1    3    3    0    0 -0.98646704833E+01  0.38932455053E+01  0.68099388888E+01  0.12603346867E+02  0.51100000000E-03 0. -1.
        -11    1    3    3    0    0 -0.17814462974E+02 -0.11385542762E+02  0.21636093798E+02  0.30250722803E+02  0.51100000000E-03 0.  1.
        -12    1    3    3    0    0  0.46488767829E+01  0.37133805440E+01  0.48479135268E+01  0.76748626027E+01  0.00000000000E+00 0.  1.
</event>
<event>
 7    1  0.2432574E-011  0.5052886E+02  0.7816164E-02  0.1300439E+00
        -11   -1    0    0    0    0  0.00000000000E+00  0.00000000000E+00  0.45593999997E+02  0.45594000000E+02  0.51100000000E-03 0.  1.
         11   -1    0    0    0    0 -0.00000000000E+00 -0.00000000000E+00 -0.45593999997E+02  0.45594000000E+02  0.51100000000E-03 0. -1.
    9900012    2    1    2    0    0  0.26006926113E+01  0.27870241009E+02  0.29489852029E+02  0.50528864389E+02  0.30000013796E+02 0.  0.
         12    1    1    2    0    0 -0.26006926113E+01 -0.27870241009E+02 -0.29489852029E+02  0.40659135611E+02  0.00000000000E+00 0. -1.
         11    1    3    3    0    0  0.46468476641E+01  0.91393526085E+01 -0.85097440212E+00  0.10288105608E+02  0.51100000000E-03 0. -1.
        -11    1    3    3    0    0  0.41200436731E+01  0.16844677332E+02  0.12803935648E+02  0.21555943093E+02  0.51100000000E-03 0.  1.
        -12    1    3    3    0    0 -0.61661987260E+01  0.18862110685E+01  0.17536890783E+02  0.18684815687E+02  0.00000000000E+00 0.  1.
</event>
<event>
 7    1  0.2432574E-011  0.5052885E+02  0.7816164E-02  0.1300439E+00
        -11   -1    0    0    0    0  0.00000000000E+00  0.00000000000E+00  0.45593999997E+02  0.45594000000E+02  0.51100000000E-03 0.  1.
         11   -1    0    0    0    0 -0.00000000000E+00 -0.00000000000E+00 -0.45593999997E+02  0.45594000000E+02  0.51100000000E-03 0. -1.
    9900012    2    1    2    0    0 -0.39122580534E+02  0.10348394971E+02  0.39370689427E+01  0.50528854683E+02  0.29999984293E+02 0.  0.
         12    1    1    2    0    0  0.39122580534E+02 -0.10348394971E+02 -0.39370689427E+01  0.40659145317E+02  0.00000000000E+00 0. -1.
         11    1    3    3    0    0 -0.47229550467E+01  0.10803762979E+02  0.48338374798E+01  0.12743374118E+02  0.51100000000E-03 0. -1.
        -11    1    3    3    0    0 -0.11178273822E+02  0.22885217106E+01  0.66602526028E+01  0.13211741076E+02  0.51100000000E-03 0.  1.
        -12    1    3    3    0    0 -0.23221351665E+02 -0.27438897186E+01 -0.75570211399E+01  0.24573739488E+02  0.00000000000E+00 0.  1.
</event>
<event>
 7    1  0.2432574E-011  0.5052887E+02  0.7816164E-02  0.1300439E+00
        -11   -1    0    0    0    0  0.00000000000E+00  0.00000000000E+00  0.45593999997E+02  0.45594000000E+02  0.51100000000E-03 0.  1.
         11   -1    0    0    0    0 -0.00000000000E+00 -0.00000000000E+00 -0.45593999997E+02  0.45594000000E+02  0.51100000000E-03 0. -1.
    9900012    2    1    2    0    0 -0.93388311761E+01 -0.19466992568E+02  0.34452687557E+02  0.50528865143E+02  0.30000016090E+02 0.  0.
         12    1    1    2    0    0  0.93388311761E+01  0.19466992568E+02 -0.34452687557E+02  0.40659134857E+02  0.00000000000E+00 0. -1.
         11    1    3    3    0    0 -0.46530291059E+01 -0.24160855753E+00  0.72962321142E+01  0.86570236156E+01  0.51100000000E-03 0. -1.
        -11    1    3    3    0    0 -0.95448588331E+01  0.11725798931E+01  0.14437854198E+02  0.17347360256E+02  0.51100000000E-03 0.  1.
        -12    1    3    3    0    0  0.48590567629E+01 -0.20397963903E+02  0.12718601246E+02  0.24524481272E+02  0.00000000000E+00 0.  1.
</event>
<event>
 7    1  0.2432574E-011  0.5052880E+02  0.7816164E-02  0.1300439E+00
        -11   -1    0    0    0    0  0.00000000000E+00  0.00000000000E+00  0.45593999997E+02  0.45594000000E+02  0.51100000000E-03 0.  1.
         11   -1    0    0    0    0 -0.00000000000E+00 -0.00000000000E+00 -0.45593999997E+02  0.45594000000E+02  0.51100000000E-03 0. -1.
    9900012    2    1    2    0    0  0.30006230275E+00 -0.39166176843E+02 -0.10912889327E+02  0.50528799327E+02  0.29999816034E+02 0.  0.
         12    1    1    2    0    0 -0.30006230275E+00  0.39166176843E+02  0.10912889327E+02  0.40659200673E+02  0.00000000000E+00 0. -1.
         11    1    3    3    0    0 -0.27575091722E+01 -0.12760766645E+01  0.24721169076E+01  0.39170895770E+01  0.51100000000E-03 0. -1.
        -11    1    3    3    0    0 -0.13030125817E+01 -0.25849841665E+02  0.27323448139E+01  0.26026483902E+02  0.51100000000E-03 0.  1.
         12    1    3    3    0    0  0.43605840566E+01 -0.12040258514E+02 -0.16117351048E+02  0.20585225848E+02  0.00000000000E+00 0. -1.
</event>
<event>
 7    1  0.2432574E-011  0.5052885E+02  0.7816164E-02  0.1300439E+00
        -11   -1    0    0    0    0  0.00000000000E+00  0.00000000000E+00  0.45593999997E+02  0.45594000000E+02  0.51100000000E-03 0.  1.
         11   -1    0    0    0    0 -0.00000000000E+00 -0.00000000000E+00 -0.45593999997E+02  0.45594000000E+02  0.51100000000E-03 0. -1.
    9900012    2    1    2    0    0 -0.33728931062E+01  0.35051768754E+02  0.20326434126E+02  0.50528845742E+02  0.29999957118E+02 0.  0.
         12    1    1    2    0    0  0.33728931062E+01 -0.35051768754E+02 -0.20326434126E+02  0.40659154258E+02  0.00000000000E+00 0. -1.
         11    1    3    3    0    0  0.34855381099E+01  0.10950324119E+02 -0.91180665700E+00  0.11527791023E+02  0.51100000000E-03 0. -1.
        -11    1    3    3    0    0 -0.28617213996E+01  0.26834400772E+02  0.20925938847E+02  0.34149222993E+02  0.51100000000E-03 0.  1.
         12    1    3    3    0    0 -0.39967098165E+01 -0.27329561365E+01  0.31230193512E+00  0.48518317262E+01  0.00000000000E+00 0. -1.
</event>
<event>
 7    1  0.2432574E-011  0.5052890E+02  0.7816164E-02  0.1300439E+00
        -11   -1    0    0    0    0  0.00000000000E+00  0.00000000000E+00  0.45593999997E+02  0.45594000000E+02  0.51100000000E-03 0.  1.
         11   -1    0    0    0    0 -0.00000000000E+00 -0.00000000000E+00 -0.45593999997E+02  0.45594000000E+02  0.51100000000E-03 0. -1.
    9900012    2    1    2    0    0  0.15483891065E+02 -0.21532905637E+02  0.30817936429E+02  0.50528903681E+02  0.30000133230E+02 0.  0.
         12    1    1    2    0    0 -0.15483891065E+02  0.21532905637E+02 -0.30817936429E+02  0.40659096319E+02  0.00000000000E+00 0. -1.
         11    1    3    3    0    0  0.80268587184E+00  0.10593409413E+00 -0.33243292211E+01  0.34215042996E+01  0.51100000000E-03 0. -1.
        -11    1    3    3    0    0  0.10330799979E+02 -0.39490734005E+01  0.37585223866E+01  0.11681057303E+02  0.51100000000E-03 0.  1.
         12    1    3    3    0    0  0.43504052144E+01 -0.17689766331E+02  0.30383743263E+02  0.35426342079E+02  0.00000000000E+00 0. -1.
</event>
<event>
 7    1  0.2432574E-011  0.5052886E+02  0.7816164E-02  0.1300439E+00
        -11   -1    0    0    0    0  0.00000000000E+00  0.00000000000E+00  0.45593999997E+02  0.45594000000E+02  0.51100000000E-03 0.  1.
         11   -1    0    0    0    0 -0.00000000000E+00 -0.00000000000E+00 -0.45593999997E+02  0.45594000000E+02  0.51100000000E-03 0. -1.
    9900012    2    1    2    0    0  0.12729695671E+02 -0.19548868445E+02  0.33301081321E+02  0.50528862940E+02  0.30000009392E+02 0.  0.
         12    1    1    2    0    0 -0.12729695671E+02  0.19548868445E+02 -0.33301081321E+02  0.40659137060E+02  0.00000000000E+00 0. -1.
         11    1    3    3    0    0  0.80933621282E+00  0.36701689154E+01  0.83129486327E+01  0.91230630933E+01  0.51100000000E-03 0. -1.
        -11    1    3    3    0    0  0.17261562828E+02 -0.16882451211E+02  0.21787296478E+02  0.32521761918E+02  0.51100000000E-03 0.  1.
         12    1    3    3    0    0 -0.53412033704E+01 -0.63365861493E+01  0.32008362100E+01  0.88840379285E+01  0.00000000000E+00 0. -1.
</event>
<event>
 7    1  0.2432574E-011  0.5052883E+02  0.7816164E-02  0.1300439E+00
        -11   -1    0    0    0    0  0.00000000000E+00  0.00000000000E+00  0.45593999997E+02  0.45594000000E+02  0.51100000000E-03 0.  1.
         11   -1    0    0    0    0 -0.00000000000E+00 -0.00000000000E+00 -0.45593999997E+02  0.45594000000E+02  0.51100000000E-03 0. -1.
    9900012    2    1    2    0    0  0.83479804785E+01 -0.28104278025E+02  0.28171423980E+02  0.50528826983E+02  0.29999900098E+02 0.  0.
         12    1    1    2    0    0 -0.83479804785E+01  0.28104278025E+02 -0.28171423980E+02  0.40659173017E+02  0.00000000000E+00 0. -1.
         11    1    3    3    0    0 -0.54155541003E+01 -0.41506330564E+01 -0.23842502443E+01  0.72277680145E+01  0.51100000000E-03 0. -1.
        -11    1    3    3    0    0  0.99361472254E+01 -0.67218734153E+01  0.70808408196E+01  0.13930143965E+02  0.51100000000E-03 0.  1.
        -12    1    3    3    0    0  0.38273873534E+01 -0.17231771553E+02  0.23474833405E+02  0.29370915004E+02  0.00000000000E+00 0.  1.
</event>
<event>
 7    1  0.2432574E-011  0.5052886E+02  0.7816164E-02  0.1300439E+00
        -11   -1    0    0    0    0  0.00000000000E+00  0.00000000000E+00  0.45593999997E+02  0.45594000000E+02  0.51100000000E-03 0.  1.
         11   -1    0    0    0    0 -0.00000000000E+00 -0.00000000000E+00 -0.45593999997E+02  0.45594000000E+02  0.51100000000E-03 0. -1.
    9900012    2    1    2    0    0  0.10383342046E+02 -0.12382505696E+02  0.37309853074E+02  0.50528863563E+02  0.30000011287E+02 0.  0.
         12    1    1    2    0    0 -0.10383342046E+02  0.12382505696E+02 -0.37309853074E+02  0.40659136437E+02  0.00000000000E+00 0. -1.
         11    1    3    3    0    0  0.49925067114E+01  0.15907742579E+00 -0.23191730159E+01  0.55071764661E+01  0.51100000000E-03 0. -1.
        -11    1    3    3    0    0  0.64154247902E+01  0.20150566854E+01  0.11123447823E+02  0.12998046792E+02  0.51100000000E-03 0.  1.
        -12    1    3    3    0    0 -0.10245894554E+01 -0.14556639808E+02  0.28505578267E+02  0.32023640305E+02  0.00000000000E+00 0.  1.
</event>
<event>
 7    1  0.2432574E-011  0.5052886E+02  0.7816164E-02  0.1300439E+00
        -11   -1    0    0    0    0  0.00000000000E+00  0.00000000000E+00  0.45593999997E+02  0.45594000000E+02  0.51100000000E-03 0.  1.
         11   -1    0    0    0    0 -0.00000000000E+00 -0.00000000000E+00 -0.45593999997E+02  0.45594000000E+02  0.51100000000E-03 0. -1.
    9900012    2    1    2    0    0  0.38782769829E+02 -0.11932834135E+02  0.25825392330E+01  0.50528864803E+02  0.30000015054E+02 0.  0.
         12    1    1    2    0    0 -0.38782769829E+02  0.11932834135E+02 -0.25825392330E+01  0.40659135197E+02  0.00000000000E+00 0. -1.
         11    1    3    3    0    0  0.37767463573E+01 -0.71718118531E+01 -0.72548259941E+01  0.10878014468E+02  0.51100000000E-03 0. -1.
        -11    1    3    3    0    0  0.11067366362E+01 -0.32815843959E+01  0.38791666133E+01  0.52001534597E+01  0.51100000000E-03 0.  1.
        -12    1    3    3    0    0  0.33899286836E+02 -0.14794378857E+01  0.59581986138E+01  0.34450696875E+02  0.00000000000E+00 0.  1.
</event>
<event>
 7    1  0.2432574E-011  0.5052877E+02  0.7816164E-02  0.1300439E+00
        -11   -1    0    0    0    0  0.00000000000E+00  0.00000000000E+00  0.45593999997E+02  0.45594000000E+02  0.51100000000E-03 0.  1.
         11   -1    0    0    0    0 -0.00000000000E+00 -0.00000000000E+00 -0.45593999997E+02  0.45594000000E+02  0.51100000000E-03 0. -1.
    9900012    2    1    2    0    0 -0.24079644624E+02  0.27563102718E+01  0.32645775379E+02  0.50528767572E+02  0.29999719511E+02 0.  0.
         12    1    1    2    0    0  0.24079644624E+02 -0.27563102718E+01 -0.32645775379E+02  0.40659232428E+02  0.00000000000E+00 0. -1.
         11    1    3    3    0    0 -0.23373780770E+01 -0.91793855101E+00  0.17826215905E+02  0.18002219896E+02  0.51100000000E-03 0. -1.
        -11    1    3    3    0    0 -0.19822391692E+02  0.16022888897E+01  0.18984727622E+02  0.27493897963E+02  0.51100000000E-03 0.  1.
         12    1    3    3    0    0 -0.19198748553E+01  0.20719599332E+01 -0.41651681479E+01  0.50326497122E+01  0.00000000000E+00 0. -1.
</event>
<event>
 7    1  0.2432574E-011  0.5052886E+02  0.7816164E-02  0.1300439E+00
        -11   -1    0    0    0    0  0.00000000000E+00  0.00000000000E+00  0.45593999997E+02  0.45594000000E+02  0.51100000000E-03 0.  1.
         11   -1    0    0    0    0 -0.00000000000E+00 -0.00000000000E+00 -0.45593999997E+02  0.45594000000E+02  0.51100000000E-03 0. -1.
    9900012    2    1    2    0    0  0.18139877516E+02 -0.51258498033E+01  0.36025498006E+02  0.50528855898E+02  0.29999987987E+02 0.  0.
         12    1    1    2    0    0 -0.18139877516E+02  0.51258498033E+01 -0.36025498006E+02  0.40659144102E+02  0.00000000000E+00 0. -1.
         11    1    3    3    0    0  0.17552462534E+02 -0.77527137692E+01  0.18615742435E+02  0.26734610123E+02  0.51100000000E-03 0. -1.
        -11    1    3    3    0    0  0.69463752100E+01  0.30142512050E+01  0.15320550781E+02  0.17089678621E+02  0.51100000000E-03 0.  1.
        -12    1    3    3    0    0 -0.63589602277E+01 -0.38738723912E+00  0.20892047904E+01  0.67045671528E+01  0.00000000000E+00 0.  1.
</event>
<event>
 7    1  0.2432574E-011  0.5052886E+02  0.7816164E-02  0.1300439E+00
        -11   -1    0    0    0    0  0.00000000000E+00  0.00000000000E+00  0.45593999997E+02  0.45594000000E+02  0.51100000000E-03 0.  1.
         11   -1    0    0    0    0 -0.00000000000E+00 -0.00000000000E+00 -0.45593999997E+02  0.45594000000E+02  0.51100000000E-03 0. -1.
    9900012    2    1    2    0    0  0.17671124806E+02  0.27230806886E+02  0.24482248536E+02  0.50528856023E+02  0.29999988368E+02 0.  0.
         12    1    1    2    0    0 -0.17671124806E+02 -0.27230806886E+02 -0.24482248536E+02  0.40659143977E+02  0.00000000000E+00 0. -1.
         11    1    3    3    0    0  0.16822592005E+02  0.67257209445E+01  0.24054023332E+01  0.18276238252E+02  0.51100000000E-03 0. -1.
        -11    1    3    3    0    0  0.53830459358E+01  0.66549277970E+01  0.11050512848E+02  0.13977806766E+02  0.51100000000E-03 0.  1.
         12    1    3    3    0    0 -0.45345131356E+01  0.13850158144E+02  0.11026333355E+02  0.18274811005E+02  0.00000000000E+00 0. -1.
</event>
<event>
 7    1  0.2432574E-011  0.5052887E+02  0.7816164E-02  0.1300439E+00
        -11   -1    0    0    0    0  0.00000000000E+00  0.00000000000E+00  0.45593999997E+02  0.45594000000E+02  0.51100000000E-03 0. -1.
         11   -1    0    0    0    0 -0.00000000000E+00 -0.00000000000E+00 -0.45593999997E+02  0.45594000000E+02  0.51100000000E-03 0.  1.
    9900012    2    1    2    0    0  0.82572911279E+00  0.16233535053E+02 -0.37268693298E+02  0.50528868319E+02  0.30000025743E+02 0.  0.
         12    1    1    2    0    0 -0.82572911279E+00 -0.16233535053E+02  0.37268693298E+02  0.40659131681E+02  0.00000000000E+00 0. -1.
         11    1    3    3    0    0  0.16102488069E+00  0.45944978270E+01  0.21247061341E+01  0.50645548384E+01  0.51100000000E-03 0. -1.
        -11    1    3    3    0    0  0.20031828759E+01  0.16294147935E+02 -0.22257384396E+02  0.27656882669E+02  0.51100000000E-03 0.  1.
         12    1    3    3    0    0 -0.13384786438E+01 -0.46551107091E+01 -0.17136015036E+02  0.17807430811E+02  0.00000000000E+00 0. -1.
</event>
<event>
 7    1  0.2432574E-011  0.5052886E+02  0.7816164E-02  0.1300439E+00
        -11   -1    0    0    0    0  0.00000000000E+00  0.00000000000E+00  0.45593999997E+02  0.45594000000E+02  0.51100000000E-03 0.  1.
         11   -1    0    0    0    0 -0.00000000000E+00 -0.00000000000E+00 -0.45593999997E+02  0.45594000000E+02  0.51100000000E-03 0. -1.
    9900012    2    1    2    0    0  0.18941379959E+02 -0.31185290265E+02  0.17940665818E+02  0.50528859655E+02  0.29999999406E+02 0.  0.
         12    1    1    2    0    0 -0.18941379959E+02  0.31185290265E+02 -0.17940665818E+02  0.40659140345E+02  0.00000000000E+00 0. -1.
         11    1    3    3    0    0  0.64154040933E+01 -0.98403107370E+01 -0.60695092247E+01  0.13222256523E+02  0.51100000000E-03 0. -1.
        -11    1    3    3    0    0 -0.27735026178E+01 -0.68789874779E+01  0.50559716440E+01  0.89763932076E+01  0.51100000000E-03 0.  1.
        -12    1    3    3    0    0  0.15299478483E+02 -0.14465992050E+02  0.18954203399E+02  0.28330209924E+02  0.00000000000E+00 0.  1.
</event>
<event>
 7    1  0.2432574E-011  0.5052885E+02  0.7816164E-02  0.1300439E+00
        -11   -1    0    0    0    0  0.00000000000E+00  0.00000000000E+00  0.45593999997E+02  0.45594000000E+02  0.51100000000E-03 0. -1.
         11   -1    0    0    0    0 -0.00000000000E+00 -0.00000000000E+00 -0.45593999997E+02  0.45594000000E+02  0.51100000000E-03 0.  1.
    9900012    2    1    2    0    0 -0.37815193205E+02 -0.14930659048E+02 -0.50266646174E+00  0.50528854777E+02  0.29999984579E+02 0.  0.
         12    1    1    2    0    0  0.37815193205E+02  0.14930659048E+02  0.50266646174E+00  0.40659145223E+02  0.00000000000E+00 0. -1.
         11    1    3    3    0    0 -0.31707731764E+01  0.42326198990E+01  0.77056319639E+00  0.53444028335E+01  0.51100000000E-03 0. -1.
        -11    1    3    3    0    0 -0.19079615300E+02 -0.14426019178E+02  0.94284028489E+01  0.25710630678E+02  0.51100000000E-03 0.  1.
         12    1    3    3    0    0 -0.15564804728E+02 -0.47372597689E+01 -0.10701632507E+02  0.19473821265E+02  0.00000000000E+00 0. -1.
</event>
<event>
 7    1  0.2432574E-011  0.5052888E+02  0.7816164E-02  0.1300439E+00
        -11   -1    0    0    0    0  0.00000000000E+00  0.00000000000E+00  0.45593999997E+02  0.45594000000E+02  0.51100000000E-03 0.  1.
         11   -1    0    0    0    0 -0.00000000000E+00 -0.00000000000E+00 -0.45593999997E+02  0.45594000000E+02  0.51100000000E-03 0. -1.
    9900012    2    1    2    0    0 -0.23966123139E+02 -0.32619329576E+02  0.38429353282E+01  0.50528882053E+02  0.30000067487E+02 0.  0.
         12    1    1    2    0    0  0.23966123139E+02  0.32619329576E+02 -0.38429353282E+01  0.40659117947E+02  0.00000000000E+00 0. -1.
         11    1    3    3    0    0 -0.13596870050E+02 -0.21210455326E+02  0.11135254762E+01  0.25219005324E+02  0.51100000000E-03 0. -1.
        -11    1    3    3    0    0 -0.74594212658E+01 -0.14140357585E+02 -0.48816064675E+01  0.16715943295E+02  0.51100000000E-03 0.  1.
         12    1    3    3    0    0 -0.29098318233E+01  0.27314833353E+01  0.76110163195E+01  0.85939334340E+01  0.00000000000E+00 0. -1.
</event>
<event>
 7    1  0.2432574E-011  0.5052886E+02  0.7816164E-02  0.1300439E+00
        -11   -1    0    0    0    0  0.00000000000E+00  0.00000000000E+00  0.45593999997E+02  0.45594000000E+02  0.51100000000E-03 0. -1.
         11   -1    0    0    0    0 -0.00000000000E+00 -0.00000000000E+00 -0.45593999997E+02  0.45594000000E+02  0.51100000000E-03 0.  1.
    9900012    2    1    2    0    0  0.13447474689E+02 -0.36253612645E+02 -0.12570067229E+02  0.50528860861E+02  0.30000003074E+02 0.  0.
         12    1    1    2    0    0 -0.13447474689E+02  0.36253612645E+02  0.12570067229E+02  0.40659139139E+02  0.00000000000E+00 0. -1.
         11    1    3    3    0    0 -0.61921538596E+01  0.18120878009E+00 -0.42274375005E+00  0.62092123963E+01  0.51100000000E-03 0. -1.
        -11    1    3    3    0    0  0.38282109837E+01 -0.31258423637E+01 -0.44565672305E+01  0.66548539848E+01  0.51100000000E-03 0.  1.
         12    1    3    3    0    0  0.15811417565E+02 -0.33308979062E+02 -0.76907562489E+01  0.37664794480E+02  0.00000000000E+00 0. -1.
</event>
<event>
 7    1  0.2432574E-011  0.5052886E+02  0.7816164E-02  0.1300439E+00
        -11   -1    0    0    0    0  0.00000000000E+00  0.00000000000E+00  0.45593999997E+02  0.45594000000E+02  0.51100000000E-03 0. -1.
         11   -1    0    0    0    0 -0.00000000000E+00 -0.00000000000E+00 -0.45593999997E+02  0.45594000000E+02  0.51100000000E-03 0.  1.
    9900012    2    1    2    0    0 -0.33893675108E+02 -0.22366495908E+02 -0.20309031877E+01  0.50528856880E+02  0.29999990972E+02 0.  0.
         12    1    1    2    0    0  0.33893675108E+02  0.22366495908E+02  0.20309031877E+01  0.40659143120E+02  0.00000000000E+00 0. -1.
         11    1    3    3    0    0 -0.90361197254E+01 -0.19264385421E+02  0.60021711832E+01  0.22108687535E+02  0.51100000000E-03 0. -1.
        -11    1    3    3    0    0 -0.32683128270E+01 -0.40554153937E+01 -0.36759453439E+01  0.63750166418E+01  0.51100000000E-03 0.  1.
        -12    1    3    3    0    0 -0.21589242555E+02  0.95330490675E+00 -0.43571290271E+01  0.22045152703E+02  0.00000000000E+00 0.  1.
</event>
<event>
 7    1  0.2432574E-011  0.5052886E+02  0.7816164E-02  0.1300439E+00
        -11   -1    0    0    0    0  0.00000000000E+00  0.00000000000E+00  0.45593999997E+02  0.45594000000E+02  0.51100000000E-03 0.  1.
         11   -1    0    0    0    0 -0.00000000000E+00 -0.00000000000E+00 -0.45593999997E+02  0.45594000000E+02  0.51100000000E-03 0. -1.
    9900012    2    1    2    0    0 -0.35935790256E+01 -0.33514406184E+01  0.40361114209E+02  0.50528861979E+02  0.30000006471E+02 0.  0.
         12    1    1    2    0    0  0.35935790256E+01  0.33514406184E+01 -0.40361114209E+02  0.40659138021E+02  0.00000000000E+00 0. -1.
         11    1    3    3    0    0  0.29916335998E+01 -0.63286566270E+01  0.25872247640E+01  0.74629416813E+01  0.51100000000E-03 0. -1.
        -11    1    3    3    0    0 -0.11650883037E+02  0.32643307401E+00  0.12247627454E+02  0.16907217767E+02  0.51100000000E-03 0.  1.
        -12    1    3    3    0    0  0.50656704113E+01  0.26507829346E+01  0.25526261991E+02  0.26158702531E+02  0.00000000000E+00 0.  1.
</event>
<event>
 7    1  0.2432574E-011  0.5052886E+02  0.7816164E-02  0.1300439E+00
        -11   -1    0    0    0    0  0.00000000000E+00  0.00000000000E+00  0.45593999997E+02  0.45594000000E+02  0.51100000000E-03 0. -1.
         11   -1    0    0    0    0 -0.00000000000E+00 -0.00000000000E+00 -0.45593999997E+02  0.45594000000E+02  0.51100000000E-03 0.  1.
    9900012    2    1    2    0    0  0.11988202021E+02 -0.31606996351E+02 -0.22593058139E+02  0.50528862256E+02  0.30000007312E+02 0.  0.
         12    1    1    2    0    0 -0.11988202021E+02  0.31606996351E+02  0.22593058139E+02  0.40659137744E+02  0.00000000000E+00 0. -1.
         11    1    3    3    0    0 -0.26401876859E+01 -0.33522358020E+00 -0.15493176167E+01  0.30795050258E+01  0.51100000000E-03 0. -1.
        -11    1    3    3    0    0  0.64904158119E+01 -0.16506887716E+02 -0.24493183458E+02  0.30241013138E+02  0.51100000000E-03 0.  1.
         12    1    3    3    0    0  0.81379738948E+01 -0.14764885055E+02  0.34494429355E+01  0.17208344091E+02  0.00000000000E+00 0. -1.
</event>
<event>
 7    1  0.2432574E-011  0.5052886E+02  0.7816164E-02  0.1300439E+00
        -11   -1    0    0    0    0  0.00000000000E+00  0.00000000000E+00  0.45593999997E+02  0.45594000000E+02  0.51100000000E-03 0. -1.
         11   -1    0    0    0    0 -0.00000000000E+00 -0.00000000000E+00 -0.45593999997E+02  0.45594000000E+02  0.51100000000E-03 0.  1.
    9900012    2    1    2    0    0 -0.15641202125E+02  0.36408775312E+02  0.91060216194E+01  0.50528858920E+02  0.29999997173E+02 0.  0.
         12    1    1    2    0    0  0.15641202125E+02 -0.36408775312E+02 -0.91060216194E+01  0.40659141080E+02  0.00000000000E+00 0. -1.
         11    1    3    3    0    0  0.12853606038E+01  0.12329602208E+02  0.30188387126E+01  0.12758708003E+02  0.51100000000E-03 0. -1.
        -11    1    3    3    0    0 -0.14023503660E+02  0.27747673562E+02  0.13605266289E+01  0.31119818058E+02  0.51100000000E-03 0.  1.
         12    1    3    3    0    0 -0.29030590685E+01 -0.36685004575E+01  0.47266562779E+01  0.66503328587E+01  0.00000000000E+00 0. -1.
</event>
<event>
 7    1  0.2432574E-011  0.5052885E+02  0.7816164E-02  0.1300439E+00
        -11   -1    0    0    0    0  0.00000000000E+00  0.00000000000E+00  0.45593999997E+02  0.45594000000E+02  0.51100000000E-03 0.  1.
         11   -1    0    0    0    0 -0.00000000000E+00 -0.00000000000E+00 -0.45593999997E+02  0.45594000000E+02  0.51100000000E-03 0. -1.
    9900012    2    1    2    0    0 -0.24944887162E+02 -0.18903846318E+01  0.32052227945E+02  0.50528852618E+02  0.29999978019E+02 0.  0.
         12    1    1    2    0    0  0.24944887162E+02  0.18903846318E+01 -0.32052227945E+02  0.40659147382E+02  0.00000000000E+00 0. -1.
         11    1    3    3    0    0 -0.35343326850E+01  0.22494649949E+00  0.11402003673E+02  0.11939338193E+02  0.51100000000E-03 0. -1.
        -11    1    3    3    0    0 -0.19036939474E+02  0.50731352366E+01  0.23351167663E+02  0.30551903331E+02  0.51100000000E-03 0.  1.
         12    1    3    3    0    0 -0.23736150034E+01 -0.71884663679E+01 -0.27009433915E+01  0.80376110948E+01  0.00000000000E+00 0. -1.
</event>
<event>
 7    1  0.2432574E-011  0.5052886E+02  0.7816164E-02  0.1300439E+00
        -11   -1    0    0    0    0  0.00000000000E+00  0.00000000000E+00  0.45593999997E+02  0.45594000000E+02  0.51100000000E-03 0.  1.
         11   -1    0    0    0    0 -0.00000000000E+00 -0.00000000000E+00 -0.45593999997E+02  0.45594000000E+02  0.51100000000E-03 0. -1.
    9900012    2    1    2    0    0 -0.23590718280E+00  0.11567415881E+02  0.38978257140E+02  0.50528864593E+02  0.30000014416E+02 0.  0.
         12    1    1    2    0    0  0.23590718280E+00 -0.11567415881E+02 -0.38978257140E+02  0.40659135407E+02  0.00000000000E+00 0. -1.
         11    1    3    3    0    0 -0.10649888075E+02  0.29998294229E+01  0.41629957709E+01  0.11821574625E+02  0.51100000000E-03 0. -1.
        -11    1    3    3    0    0 -0.15587489558E+01  0.29567832218E+01  0.10636898426E+02  0.11149702853E+02  0.51100000000E-03 0.  1.
        -12    1    3    3    0    0  0.11972729848E+02  0.56108032364E+01  0.24178362943E+02  0.27557587115E+02  0.00000000000E+00 0.  1.
</event>
<event>
 7    1  0.2432574E-011  0.5052886E+02  0.7816164E-02  0.1300439E+00
        -11   -1    0    0    0    0  0.00000000000E+00  0.00000000000E+00  0.45593999997E+02  0.45594000000E+02  0.51100000000E-03 0.  1.
         11   -1    0    0    0    0 -0.00000000000E+00 -0.00000000000E+00 -0.45593999997E+02  0.45594000000E+02  0.51100000000E-03 0. -1.
    9900012    2    1    2    0    0 -0.33417695694E+02 -0.23123842928E+02 -0.13079915020E+01  0.50528864015E+02  0.30000012661E+02 0.  0.
         12    1    1    2    0    0  0.33417695694E+02  0.23123842928E+02  0.13079915020E+01  0.40659135985E+02  0.00000000000E+00 0. -1.
         11    1    3    3    0    0  0.38028744835E+01 -0.37771550694E+01  0.55219517107E+00  0.53882905010E+01  0.51100000000E-03 0. -1.
        -11    1    3    3    0    0 -0.14096008684E+02 -0.46489329635E+01 -0.82831376619E+01  0.16997658907E+02  0.51100000000E-03 0.  1.
        -12    1    3    3    0    0 -0.23124561494E+02 -0.14697754895E+02  0.64229509888E+01  0.28142914608E+02  0.00000000000E+00 0.  1.
</event>
<event>
 7    1  0.2432574E-011  0.5052885E+02  0.7816164E-02  0.1300439E+00
        -11   -1    0    0    0    0  0.00000000000E+00  0.00000000000E+00  0.45593999997E+02  0.45594000000E+02  0.51100000000E-03 0.  1.
         11   -1    0    0    0    0 -0.00000000000E+00 -0.00000000000E+00 -0.45593999997E+02  0.45594000000E+02  0.51100000000E-03 0. -1.
    9900012    2    1    2    0    0 -0.20208034630E+02  0.17091974509E+02  0.30865291488E+02  0.50528850048E+02  0.29999970204E+02 0.  0.
         12    1    1    2    0    0  0.20208034630E+02 -0.17091974509E+02 -0.30865291488E+02  0.40659149952E+02  0.00000000000E+00 0. -1.
         11    1    3    3    0    0 -0.35686492840E+00  0.12451809686E+01 -0.25629827635E+01  0.28717083990E+01  0.51100000000E-03 0. -1.
        -11    1    3    3    0    0 -0.61169653413E+01  0.16401215807E+02  0.91355169007E+01  0.19745247890E+02  0.51100000000E-03 0.  1.
         12    1    3    3    0    0 -0.13734204360E+02 -0.55442226709E+00  0.24292757351E+02  0.27911893758E+02  0.00000000000E+00 0. -1.
</event>
<event>
 7    1  0.2432574E-011  0.5052886E+02  0.7816164E-02  0.1300439E+00
        -11   -1    0    0    0    0  0.00000000000E+00  0.00000000000E+00  0.45593999997E+02  0.45594000000E+02  0.51100000000E-03 0.  1.
         11   -1    0    0    0    0 -0.00000000000E+00 -0.00000000000E+00 -0.45593999997E+02  0.45594000000E+02  0.51100000000E-03 0. -1.
    9900012    2    1    2    0    0 -0.19201706962E+02 -0.18274266495E+02  0.30830359898E+02  0.50528862557E+02  0.30000008228E+02 0.  0.
         12    1    1    2    0    0  0.19201706962E+02  0.18274266495E+02 -0.30830359898E+02  0.40659137443E+02  0.00000000000E+00 0. -1.
         11    1    3    3    0    0 -0.10124429016E+02 -0.96954386963E+01  0.64460322385E+01  0.15429093502E+02  0.51100000000E-03 0.  1.
        -11    1    3    3    0    0 -0.12216017118E+02  0.25386437111E+01  0.17998292313E+02  0.21900098460E+02  0.51100000000E-03 0. -1.
         12    1    3    3    0    0  0.31387391718E+01 -0.11117471510E+02  0.63860353464E+01  0.13199670595E+02  0.00000000000E+00 0. -1.
</event>
<event>
 7    1  0.2432574E-011  0.5052888E+02  0.7816164E-02  0.1300439E+00
        -11   -1    0    0    0    0  0.00000000000E+00  0.00000000000E+00  0.45593999997E+02  0.45594000000E+02  0.51100000000E-03 0. -1.
         11   -1    0    0    0    0 -0.00000000000E+00 -0.00000000000E+00 -0.45593999997E+02  0.45594000000E+02  0.51100000000E-03 0.  1.
    9900012    2    1    2    0    0 -0.24939677574E+02  0.45507701412E+01 -0.31787848337E+02  0.50528876445E+02  0.30000050442E+02 0.  0.
         12    1    1    2    0    0  0.24939677574E+02 -0.45507701412E+01  0.31787848337E+02  0.40659123555E+02  0.00000000000E+00 0. -1.
         11    1    3    3    0    0 -0.65080306144E+01 -0.77196078186E+01 -0.58122110718E+01  0.11650262021E+02  0.51100000000E-03 0. -1.
        -11    1    3    3    0    0 -0.12780970745E+02  0.78207654870E+01 -0.27690572265E+02  0.31484684826E+02  0.51100000000E-03 0.  1.
         12    1    3    3    0    0 -0.56506762147E+01  0.44496124728E+01  0.17149350002E+01  0.73939295977E+01  0.00000000000E+00 0. -1.
</event>
<event>
 7    1  0.2432574E-011  0.5052885E+02  0.7816164E-02  0.1300439E+00
        -11   -1    0    0    0    0  0.00000000000E+00  0.00000000000E+00  0.45593999997E+02  0.45594000000E+02  0.51100000000E-03 0.  1.
         11   -1    0    0    0    0 -0.00000000000E+00 -0.00000000000E+00 -0.45593999997E+02  0.45594000000E+02  0.51100000000E-03 0. -1.
    9900012    2    1    2    0    0 -0.37826177370E+02 -0.13457384778E+02 -0.64222476389E+01  0.50528853868E+02  0.29999981816E+02 0.  0.
         12    1    1    2    0    0  0.37826177370E+02  0.13457384778E+02  0.64222476389E+01  0.40659146132E+02  0.00000000000E+00 0. -1.
         11    1    3    3    0    0  0.34094526524E+01 -0.10204999882E+01  0.93390473434E+00  0.36793974954E+01  0.51100000000E-03 0. -1.
        -11    1    3    3    0    0 -0.13872729240E+02  0.27056463289E+00 -0.91595156021E+01  0.16625960066E+02  0.51100000000E-03 0.  1.
        -12    1    3    3    0    0 -0.27362900782E+02 -0.12707449423E+02  0.18033632289E+01  0.30223496306E+02  0.00000000000E+00 0.  1.
</event>
<event>
 7    1  0.2432574E-011  0.5052873E+02  0.7816164E-02  0.1300439E+00
        -11   -1    0    0    0    0  0.00000000000E+00  0.00000000000E+00  0.45593999997E+02  0.45594000000E+02  0.51100000000E-03 0.  1.
         11   -1    0    0    0    0 -0.00000000000E+00 -0.00000000000E+00 -0.45593999997E+02  0.45594000000E+02  0.51100000000E-03 0. -1.
    9900012    2    1    2    0    0 -0.20381418573E+02  0.35181744430E+02  0.13773627796E+00  0.50528728788E+02  0.29999601621E+02 0.  0.
         12    1    1    2    0    0  0.20381418573E+02 -0.35181744430E+02 -0.13773627796E+00  0.40659271212E+02  0.00000000000E+00 0. -1.
         11    1    3    3    0    0 -0.11417829652E+02  0.70487327395E+01 -0.52949658242E+01  0.14425260155E+02  0.51100000000E-03 0. -1.
        -11    1    3    3    0    0 -0.14001166303E+02  0.17185966717E+02  0.83789091571E+01  0.23698021621E+02  0.51100000000E-03 0.  1.
         12    1    3    3    0    0  0.50375773821E+01  0.10947044974E+02 -0.29462070549E+01  0.12405447011E+02  0.00000000000E+00 0. -1.
</event>
<event>
 7    1  0.2432574E-011  0.5052886E+02  0.7816164E-02  0.1300439E+00
        -11   -1    0    0    0    0  0.00000000000E+00  0.00000000000E+00  0.45593999997E+02  0.45594000000E+02  0.51100000000E-03 0.  1.
         11   -1    0    0    0    0 -0.00000000000E+00 -0.00000000000E+00 -0.45593999997E+02  0.45594000000E+02  0.51100000000E-03 0. -1.
    9900012    2    1    2    0    0 -0.68577214192E+01 -0.11731579739E+02  0.38321109736E+02  0.50528858867E+02  0.29999997013E+02 0.  0.
         12    1    1    2    0    0  0.68577214192E+01  0.11731579739E+02 -0.38321109736E+02  0.40659141133E+02  0.00000000000E+00 0. -1.
         11    1    3    3    0    0 -0.49914522333E+01  0.51107646957E+01  0.26088628449E+00  0.71486063737E+01  0.51100000000E-03 0. -1.
        -11    1    3    3    0    0 -0.30805342760E+01 -0.31206430431E+01  0.20802519921E+01  0.48534063336E+01  0.51100000000E-03 0.  1.
         12    1    3    3    0    0  0.12142650901E+01 -0.13721701392E+02  0.35979971460E+02  0.38526846160E+02  0.00000000000E+00 0. -1.
</event>
<event>
 7    1  0.2432574E-011  0.5052885E+02  0.7816164E-02  0.1300439E+00
        -11   -1    0    0    0    0  0.00000000000E+00  0.00000000000E+00  0.45593999997E+02  0.45594000000E+02  0.51100000000E-03 0.  1.
         11   -1    0    0    0    0 -0.00000000000E+00 -0.00000000000E+00 -0.45593999997E+02  0.45594000000E+02  0.51100000000E-03 0. -1.
    9900012    2    1    2    0    0  0.13945871766E+02  0.38114393887E+02 -0.24437838967E+01  0.50528850471E+02  0.29999971492E+02 0.  0.
         12    1    1    2    0    0 -0.13945871766E+02 -0.38114393887E+02  0.24437838967E+01  0.40659149529E+02  0.00000000000E+00 0. -1.
         11    1    3    3    0    0 -0.21702121262E+01 -0.22681437709E+01 -0.84258661340E-01  0.31402860732E+01  0.51100000000E-03 0.  1.
        -11    1    3    3    0    0  0.33465218180E+01  0.71249132074E+01 -0.81106208900E+01  0.11302467340E+02  0.51100000000E-03 0. -1.
        -12    1    3    3    0    0  0.12769562074E+02  0.33257624450E+02  0.57510956547E+01  0.36086097058E+02  0.00000000000E+00 0.  1.
</event>
<event>
 7    1  0.2432574E-011  0.5052886E+02  0.7816164E-02  0.1300439E+00
        -11   -1    0    0    0    0  0.00000000000E+00  0.00000000000E+00  0.45593999997E+02  0.45594000000E+02  0.51100000000E-03 0. -1.
         11   -1    0    0    0    0 -0.00000000000E+00 -0.00000000000E+00 -0.45593999997E+02  0.45594000000E+02  0.51100000000E-03 0.  1.
    9900012    2    1    2    0    0 -0.15478078619E+01 -0.40603937297E+02  0.14456759219E+01  0.50528863117E+02  0.30000009930E+02 0.  0.
         12    1    1    2    0    0  0.15478078619E+01  0.40603937297E+02 -0.14456759219E+01  0.40659136883E+02  0.00000000000E+00 0. -1.
         11    1    3    3    0    0 -0.51560070325E+01 -0.44127402863E+02  0.34383916339E+01  0.44560460379E+02  0.51100000000E-03 0.  1.
        -11    1    3    3    0    0  0.19312835401E+01  0.37692441793E+00 -0.12353249748E+01  0.23233502068E+01  0.51100000000E-03 0. -1.
        -12    1    3    3    0    0  0.16769156306E+01  0.31465411474E+01 -0.75739073720E+00  0.36450525309E+01  0.00000000000E+00 0.  1.
</event>
<event>
 7    1  0.2432574E-011  0.5052886E+02  0.7816164E-02  0.1300439E+00
        -11   -1    0    0    0    0  0.00000000000E+00  0.00000000000E+00  0.45593999997E+02  0.45594000000E+02  0.51100000000E-03 0. -1.
         11   -1    0    0    0    0 -0.00000000000E+00 -0.00000000000E+00 -0.45593999997E+02  0.45594000000E+02  0.51100000000E-03 0.  1.
    9900012    2    1    2    0    0 -0.28104562036E+02  0.18611322419E+02 -0.22735827302E+02  0.50528861144E+02  0.30000003934E+02 0.  0.
         12    1    1    2    0    0  0.28104562036E+02 -0.18611322419E+02  0.22735827302E+02  0.40659138856E+02  0.00000000000E+00 0. -1.
         11    1    3    3    0    0 -0.16312078881E+02  0.17266274066E+02 -0.43641783320E+01  0.24150656106E+02  0.51100000000E-03 0. -1.
        -11    1    3    3    0    0 -0.14977205967E+02 -0.85834125397E+00 -0.15377832995E+02  0.21483277129E+02  0.51100000000E-03 0.  1.
         12    1    3    3    0    0  0.31847228129E+01  0.22033896063E+01 -0.29938159745E+01  0.48949279097E+01  0.00000000000E+00 0. -1.
</event>
<event>
 7    1  0.2432574E-011  0.5052887E+02  0.7816164E-02  0.1300439E+00
        -11   -1    0    0    0    0  0.00000000000E+00  0.00000000000E+00  0.45593999997E+02  0.45594000000E+02  0.51100000000E-03 0. -1.
         11   -1    0    0    0    0 -0.00000000000E+00 -0.00000000000E+00 -0.45593999997E+02  0.45594000000E+02  0.51100000000E-03 0.  1.
    9900012    2    1    2    0    0 -0.80295152657E+01  0.28017657159E+02 -0.28349644979E+02  0.50528873122E+02  0.30000040341E+02 0.  0.
         12    1    1    2    0    0  0.80295152657E+01 -0.28017657159E+02  0.28349644979E+02  0.40659126878E+02  0.00000000000E+00 0. -1.
         11    1    3    3    0    0 -0.71470519250E+01  0.98448891530E+01 -0.89396562948E+01  0.15097007935E+02  0.51100000000E-03 0. -1.
        -11    1    3    3    0    0  0.32540029362E+01  0.21946935741E+02 -0.19909445556E+02  0.29810108120E+02  0.51100000000E-03 0.  1.
         12    1    3    3    0    0 -0.41364662769E+01 -0.37741677348E+01  0.49945687249E+00  0.56217570668E+01  0.00000000000E+00 0. -1.
</event>
<event>
 7    1  0.2432574E-011  0.5052884E+02  0.7816164E-02  0.1300439E+00
        -11   -1    0    0    0    0  0.00000000000E+00  0.00000000000E+00  0.45593999997E+02  0.45594000000E+02  0.51100000000E-03 0.  1.
         11   -1    0    0    0    0 -0.00000000000E+00 -0.00000000000E+00 -0.45593999997E+02  0.45594000000E+02  0.51100000000E-03 0. -1.
    9900012    2    1    2    0    0  0.14242853205E+02  0.33897366253E+02  0.17357332908E+02  0.50528839753E+02  0.29999938912E+02 0.  0.
         12    1    1    2    0    0 -0.14242853205E+02 -0.33897366253E+02 -0.17357332908E+02  0.40659160247E+02  0.00000000000E+00 0. -1.
         11    1    3    3    0    0  0.47371898197E+01  0.12109644399E+01  0.85396345069E+01  0.98403638162E+01  0.51100000000E-03 0. -1.
        -11    1    3    3    0    0  0.14696533434E+02  0.25802729278E+02  0.11211845908E+02  0.31740737579E+02  0.51100000000E-03 0.  1.
         12    1    3    3    0    0 -0.51908700478E+01  0.68836725349E+01 -0.23941475061E+01  0.89477383569E+01  0.00000000000E+00 0. -1.
</event>
<event>
 7    1  0.2432574E-011  0.5052886E+02  0.7816164E-02  0.1300439E+00
        -11   -1    0    0    0    0  0.00000000000E+00  0.00000000000E+00  0.45593999997E+02  0.45594000000E+02  0.51100000000E-03 0.  1.
         11   -1    0    0    0    0 -0.00000000000E+00 -0.00000000000E+00 -0.45593999997E+02  0.45594000000E+02  0.51100000000E-03 0. -1.
    9900012    2    1    2    0    0 -0.13233416418E+02  0.24012094082E+02  0.30024350667E+02  0.50528860741E+02  0.30000002709E+02 0.  0.
         12    1    1    2    0    0  0.13233416418E+02 -0.24012094082E+02 -0.30024350667E+02  0.40659139259E+02  0.00000000000E+00 0. -1.
         11    1    3    3    0    0 -0.12279582809E+02  0.13809108313E+02  0.83427542968E+01  0.20275136889E+02  0.51100000000E-03 0. -1.
        -11    1    3    3    0    0 -0.44832759541E+00  0.15499824459E+02  0.18128455358E+02  0.23855532897E+02  0.51100000000E-03 0.  1.
        -12    1    3    3    0    0 -0.50550601400E+00 -0.52968386904E+01  0.35531410123E+01  0.63981909549E+01  0.00000000000E+00 0.  1.
</event>
<event>
 7    1  0.2432574E-011  0.5052886E+02  0.7816164E-02  0.1300439E+00
        -11   -1    0    0    0    0  0.00000000000E+00  0.00000000000E+00  0.45593999997E+02  0.45594000000E+02  0.51100000000E-03 0. -1.
         11   -1    0    0    0    0 -0.00000000000E+00 -0.00000000000E+00 -0.45593999997E+02  0.45594000000E+02  0.51100000000E-03 0.  1.
    9900012    2    1    2    0    0  0.39031961957E+02  0.11367121385E+02  0.67817226078E+00  0.50528863015E+02  0.30000009620E+02 0.  0.
         12    1    1    2    0    0 -0.39031961957E+02 -0.11367121385E+02 -0.67817226078E+00  0.40659136985E+02  0.00000000000E+00 0. -1.
         11    1    3    3    0    0  0.72294243623E+01 -0.28038085464E+01  0.47287753840E+01  0.90822483928E+01  0.51100000000E-03 0. -1.
        -11    1    3    3    0    0  0.33519399594E+02  0.75719559993E+01 -0.25063779450E+01  0.34455284028E+02  0.51100000000E-03 0.  1.
        -12    1    3    3    0    0 -0.17168619991E+01  0.65989739317E+01 -0.15442251783E+01  0.69913305941E+01  0.00000000000E+00 0.  1.
</event>
<event>
 7    1  0.2432574E-011  0.5052883E+02  0.7816164E-02  0.1300439E+00
        -11   -1    0    0    0    0  0.00000000000E+00  0.00000000000E+00  0.45593999997E+02  0.45594000000E+02  0.51100000000E-03 0.  1.
         11   -1    0    0    0    0 -0.00000000000E+00 -0.00000000000E+00 -0.45593999997E+02  0.45594000000E+02  0.51100000000E-03 0. -1.
    9900012    2    1    2    0    0  0.35114856761E+02 -0.55539361979E+00  0.20489174439E+02  0.50528832563E+02  0.29999917060E+02 0.  0.
         12    1    1    2    0    0 -0.35114856761E+02  0.55539361979E+00 -0.20489174439E+02  0.40659167437E+02  0.00000000000E+00 0. -1.
         11    1    3    3    0    0 -0.38416387283E+01 -0.30216502281E+01  0.11943247676E+01  0.50313984270E+01  0.51100000000E-03 0. -1.
        -11    1    3    3    0    0  0.47530821268E+01  0.45871434162E+01  0.10964071282E+01  0.66959527535E+01  0.51100000000E-03 0.  1.
         12    1    3    3    0    0  0.34203413363E+02 -0.21208868079E+01  0.18198442543E+02  0.38801481383E+02  0.00000000000E+00 0. -1.
</event>
<event>
 7    1  0.2432574E-011  0.5052886E+02  0.7816164E-02  0.1300439E+00
        -11   -1    0    0    0    0  0.00000000000E+00  0.00000000000E+00  0.45593999997E+02  0.45594000000E+02  0.51100000000E-03 0.  1.
         11   -1    0    0    0    0 -0.00000000000E+00 -0.00000000000E+00 -0.45593999997E+02  0.45594000000E+02  0.51100000000E-03 0. -1.
    9900012    2    1    2    0    0  0.31404667130E+02  0.84187749272E+01  0.24413859254E+02  0.50528863112E+02  0.30000009915E+02 0.  0.
         12    1    1    2    0    0 -0.31404667130E+02 -0.84187749272E+01 -0.24413859254E+02  0.40659136888E+02  0.00000000000E+00 0. -1.
         11    1    3    3    0    0  0.55709121527E+01  0.97877659891E+01  0.11128429565E+02  0.15832794135E+02  0.51100000000E-03 0.  1.
        -11    1    3    3    0    0  0.22200931285E+02  0.47702982371E+01  0.15181103616E+02  0.27314886097E+02  0.51100000000E-03 0. -1.
         12    1    3    3    0    0  0.36328236921E+01 -0.61392892990E+01 -0.18956739276E+01  0.73811828805E+01  0.00000000000E+00 0. -1.
</event>
<event>
 7    1  0.2432574E-011  0.5052888E+02  0.7816164E-02  0.1300439E+00
        -11   -1    0    0    0    0  0.00000000000E+00  0.00000000000E+00  0.45593999997E+02  0.45594000000E+02  0.51100000000E-03 0. -1.
         11   -1    0    0    0    0 -0.00000000000E+00 -0.00000000000E+00 -0.45593999997E+02  0.45594000000E+02  0.51100000000E-03 0.  1.
    9900012    2    1    2    0    0 -0.23755786962E+02  0.31009651155E+02 -0.11279552474E+02  0.50528878232E+02  0.30000055873E+02 0.  0.
         12    1    1    2    0    0  0.23755786962E+02 -0.31009651155E+02  0.11279552474E+02  0.40659121768E+02  0.00000000000E+00 0. -1.
         11    1    3    3    0    0 -0.32269625949E+01  0.11534012298E+02 -0.34780391098E+01  0.12471707325E+02  0.51100000000E-03 0. -1.
        -11    1    3    3    0    0  0.29987286444E+01  0.28773559753E+01 -0.82751036989E+01  0.92600697827E+01  0.51100000000E-03 0.  1.
         12    1    3    3    0    0 -0.23527553012E+02  0.16598282882E+02  0.47359033508E+00  0.28797101124E+02  0.00000000000E+00 0. -1.
</event>
<event>
 7    1  0.2432574E-011  0.5052874E+02  0.7816164E-02  0.1300439E+00
        -11   -1    0    0    0    0  0.00000000000E+00  0.00000000000E+00  0.45593999997E+02  0.45594000000E+02  0.51100000000E-03 0.  1.
         11   -1    0    0    0    0 -0.00000000000E+00 -0.00000000000E+00 -0.45593999997E+02  0.45594000000E+02  0.51100000000E-03 0. -1.
    9900012    2    1    2    0    0  0.21177156044E+02  0.15208146192E+02  0.31199617779E+02  0.50528735395E+02  0.29999621703E+02 0.  0.
         12    1    1    2    0    0 -0.21177156044E+02 -0.15208146192E+02 -0.31199617779E+02  0.40659264605E+02  0.00000000000E+00 0. -1.
         11    1    3    3    0    0  0.26980711175E+01 -0.94937775842E+00  0.13356854034E+02  0.13659665289E+02  0.51100000000E-03 0. -1.
        -11    1    3    3    0    0  0.22319549279E+02  0.15587770498E+02  0.18522450780E+02  0.32927527272E+02  0.51100000000E-03 0.  1.
         12    1    3    3    0    0 -0.38404643525E+01  0.56975345226E+00 -0.67968703441E+00  0.39415428330E+01  0.00000000000E+00 0. -1.
</event>
<event>
 7    1  0.2850906E-011  0.5052887E+02  0.7816164E-02  0.1300439E+00
        -11   -1    0    0    0    0  0.00000000000E+00  0.00000000000E+00  0.45593999997E+02  0.45594000000E+02  0.51100000000E-03 0.  1.
         11   -1    0    0    0    0 -0.00000000000E+00 -0.00000000000E+00 -0.45593999997E+02  0.45594000000E+02  0.51100000000E-03 0. -1.
    9900012    2    1    2    0    0 -0.75592297901E+01  0.36258487605E+02  0.16773348844E+02  0.50528866833E+02  0.30000021226E+02 0.  0.
         12    1    1    2    0    0  0.75592297901E+01 -0.36258487605E+02 -0.16773348844E+02  0.40659133167E+02  0.00000000000E+00 0. -1.
         11    1    3    3    0    0 -0.21603002413E+01  0.72189111755E+01 -0.57778350422E+01  0.94954175121E+01  0.51100000000E-03 0. -1.
        -11    1    3    3    0    0 -0.96451632752E+01  0.23422890830E+02  0.11246817704E+02  0.27715553362E+02  0.51100000000E-03 0.  1.
         12    1    3    3    0    0  0.42462337264E+01  0.56166855992E+01  0.11304366183E+02  0.13317895959E+02  0.00000000000E+00 0. -1.
</event>
<event>
 7    1  0.2432574E-011  0.5052886E+02  0.7816164E-02  0.1300439E+00
        -11   -1    0    0    0    0  0.00000000000E+00  0.00000000000E+00  0.45593999997E+02  0.45594000000E+02  0.51100000000E-03 0. -1.
         11   -1    0    0    0    0 -0.00000000000E+00 -0.00000000000E+00 -0.45593999997E+02  0.45594000000E+02  0.51100000000E-03 0.  1.
    9900012    2    1    2    0    0  0.38034057851E+02  0.13357116427E+02  0.53069368788E+01  0.50528859639E+02  0.29999999358E+02 0.  0.
         12    1    1    2    0    0 -0.38034057851E+02 -0.13357116427E+02 -0.53069368788E+01  0.40659140361E+02  0.00000000000E+00 0. -1.
         11    1    3    3    0    0  0.15054483040E+02 -0.79316055395E+01  0.21154908287E+01  0.17147102605E+02  0.51100000000E-03 0. -1.
        -11    1    3    3    0    0  0.10825337546E+02  0.33327614662E+01  0.29209355955E+01  0.11697311528E+02  0.51100000000E-03 0.  1.
        -12    1    3    3    0    0  0.12154237265E+02  0.17955960500E+02  0.27051045461E+00  0.21684445505E+02  0.00000000000E+00 0.  1.
</event>
<event>
 7    1  0.2432574E-011  0.5052887E+02  0.7816164E-02  0.1300439E+00
        -11   -1    0    0    0    0  0.00000000000E+00  0.00000000000E+00  0.45593999997E+02  0.45594000000E+02  0.51100000000E-03 0.  1.
         11   -1    0    0    0    0 -0.00000000000E+00 -0.00000000000E+00 -0.45593999997E+02  0.45594000000E+02  0.51100000000E-03 0. -1.
    9900012    2    1    2    0    0 -0.10008251727E+01 -0.10061234178E+01  0.40634357864E+02  0.50528868500E+02  0.30000026292E+02 0.  0.
         12    1    1    2    0    0  0.10008251727E+01  0.10061234178E+01 -0.40634357864E+02  0.40659131500E+02  0.00000000000E+00 0. -1.
         11    1    3    3    0    0 -0.95927425952E+01 -0.45645888110E+01  0.21436430317E+02  0.23924396053E+02  0.51100000000E-03 0. -1.
        -11    1    3    3    0    0  0.65960748508E+01  0.51707820239E-01  0.21126496832E+02  0.22132323552E+02  0.51100000000E-03 0.  1.
         12    1    3    3    0    0  0.19958425717E+01  0.35067575729E+01 -0.19285692856E+01  0.44721488946E+01  0.00000000000E+00 0. -1.
</event>
<event>
 7    1  0.2432574E-011  0.5052887E+02  0.7816164E-02  0.1300439E+00
        -11   -1    0    0    0    0  0.00000000000E+00  0.00000000000E+00  0.45593999997E+02  0.45594000000E+02  0.51100000000E-03 0.  1.
         11   -1    0    0    0    0 -0.00000000000E+00 -0.00000000000E+00 -0.45593999997E+02  0.45594000000E+02  0.51100000000E-03 0. -1.
    9900012    2    1    2    0    0 -0.29883525490E+02  0.17545449453E+02  0.21267272676E+02  0.50528870899E+02  0.30000033583E+02 0.  0.
         12    1    1    2    0    0  0.29883525490E+02 -0.17545449453E+02 -0.21267272676E+02  0.40659129101E+02  0.00000000000E+00 0. -1.
         11    1    3    3    0    0 -0.55141218238E+01  0.10571549246E+02  0.85973664760E+01  0.14699588549E+02  0.51100000000E-03 0. -1.
        -11    1    3    3    0    0 -0.23396324552E+02  0.10292643568E+02  0.16689619081E+02  0.30526544179E+02  0.51100000000E-03 0.  1.
        -12    1    3    3    0    0 -0.97307911409E+00 -0.33187433604E+01 -0.40197128814E+01  0.53027381704E+01  0.00000000000E+00 0.  1.
</event>
<event>
 7    1  0.2432574E-011  0.5052886E+02  0.7816164E-02  0.1300439E+00
        -11   -1    0    0    0    0  0.00000000000E+00  0.00000000000E+00  0.45593999997E+02  0.45594000000E+02  0.51100000000E-03 0.  1.
         11   -1    0    0    0    0 -0.00000000000E+00 -0.00000000000E+00 -0.45593999997E+02  0.45594000000E+02  0.51100000000E-03 0. -1.
    9900012    2    1    2    0    0 -0.23589862352E+02  0.25151707090E+02  0.21542412769E+02  0.50528861751E+02  0.30000005777E+02 0.  0.
         12    1    1    2    0    0  0.23589862352E+02 -0.25151707090E+02 -0.21542412769E+02  0.40659138249E+02  0.00000000000E+00 0. -1.
         11    1    3    3    0    0 -0.16785603340E+02  0.73108790952E+01  0.19204102204E+02  0.26533054372E+02  0.51100000000E-03 0. -1.
        -11    1    3    3    0    0 -0.82777025264E+01  0.55663964020E+01 -0.31626905354E+01  0.10464594579E+02  0.51100000000E-03 0.  1.
        -12    1    3    3    0    0  0.14734435146E+01  0.12274431592E+02  0.55010011006E+01  0.13531212799E+02  0.00000000000E+00 0.  1.
</event>
<event>
 7    1  0.2432574E-011  0.5052887E+02  0.7816164E-02  0.1300439E+00
        -11   -1    0    0    0    0  0.00000000000E+00  0.00000000000E+00  0.45593999997E+02  0.45594000000E+02  0.51100000000E-03 0.  1.
         11   -1    0    0    0    0 -0.00000000000E+00 -0.00000000000E+00 -0.45593999997E+02  0.45594000000E+02  0.51100000000E-03 0. -1.
    9900012    2    1    2    0    0 -0.43431103834E+00 -0.40474075797E+02  0.38504100619E+01  0.50528867012E+02  0.30000021769E+02 0.  0.
         12    1    1    2    0    0  0.43431103834E+00  0.40474075797E+02 -0.38504100619E+01  0.40659132988E+02  0.00000000000E+00 0. -1.
         11    1    3    3    0    0  0.58078966203E+01 -0.34226305278E+01 -0.10298293323E+01  0.68195756170E+01  0.51100000000E-03 0. -1.
        -11    1    3    3    0    0 -0.60214808663E+00 -0.35355534564E+02  0.90411700113E+01  0.36498207655E+02  0.51100000000E-03 0.  1.
         12    1    3    3    0    0 -0.56400595720E+01 -0.16959107055E+01 -0.41609306171E+01  0.72110837394E+01  0.00000000000E+00 0. -1.
</event>
<event>
 7    1  0.2432574E-011  0.5052885E+02  0.7816164E-02  0.1300439E+00
        -11   -1    0    0    0    0  0.00000000000E+00  0.00000000000E+00  0.45593999997E+02  0.45594000000E+02  0.51100000000E-03 0.  1.
         11   -1    0    0    0    0 -0.00000000000E+00 -0.00000000000E+00 -0.45593999997E+02  0.45594000000E+02  0.51100000000E-03 0. -1.
    9900012    2    1    2    0    0 -0.88022199519E+01 -0.24825505564E+02  0.30973881366E+02  0.50528854294E+02  0.29999983113E+02 0.  0.
         12    1    1    2    0    0  0.88022199519E+01  0.24825505564E+02 -0.30973881366E+02  0.40659145706E+02  0.00000000000E+00 0. -1.
         11    1    3    3    0    0 -0.57721335888E+01 -0.19836612095E+02  0.13253570282E+02  0.24545179386E+02  0.51100000000E-03 0. -1.
        -11    1    3    3    0    0 -0.21801284478E+01 -0.17373003767E+01 -0.35137624117E+01  0.44852758215E+01  0.51100000000E-03 0.  1.
        -12    1    3    3    0    0 -0.84995791531E+00 -0.32515930927E+01  0.21234073496E+02  0.21498399087E+02  0.00000000000E+00 0.  1.
</event>
<event>
 7    1  0.2432574E-011  0.5052887E+02  0.7816164E-02  0.1300439E+00
        -11   -1    0    0    0    0  0.00000000000E+00  0.00000000000E+00  0.45593999997E+02  0.45594000000E+02  0.51100000000E-03 0.  1.
         11   -1    0    0    0    0 -0.00000000000E+00 -0.00000000000E+00 -0.45593999997E+02  0.45594000000E+02  0.51100000000E-03 0. -1.
    9900012    2    1    2    0    0  0.32702710403E+02 -0.24789394366E+01  0.24032325299E+02  0.50528867352E+02  0.30000022803E+02 0.  0.
         12    1    1    2    0    0 -0.32702710403E+02  0.24789394366E+01 -0.24032325299E+02  0.40659132648E+02  0.00000000000E+00 0. -1.
         11    1    3    3    0    0  0.27779186314E+01 -0.10111088540E+02  0.13032164095E+02  0.16726871933E+02  0.51100000000E-03 0. -1.
        -11    1    3    3    0    0  0.67702977831E+01 -0.15118968832E+01  0.11612821774E+01  0.70335866252E+01  0.51100000000E-03 0.  1.
        -12    1    3    3    0    0  0.23154493988E+02  0.91440459870E+01  0.98388790269E+01  0.26768408794E+02  0.00000000000E+00 0.  1.
</event>
<event>
 7    1  0.2432574E-011  0.5052886E+02  0.7816164E-02  0.1300439E+00
        -11   -1    0    0    0    0  0.00000000000E+00  0.00000000000E+00  0.45593999997E+02  0.45594000000E+02  0.51100000000E-03 0.  1.
         11   -1    0    0    0    0 -0.00000000000E+00 -0.00000000000E+00 -0.45593999997E+02  0.45594000000E+02  0.51100000000E-03 0. -1.
    9900012    2    1    2    0    0  0.37706380305E+02 -0.14778113035E+02 -0.36058601238E+01  0.50528856282E+02  0.29999989156E+02 0.  0.
         12    1    1    2    0    0 -0.37706380305E+02  0.14778113035E+02  0.36058601238E+01  0.40659143718E+02  0.00000000000E+00 0. -1.
         11    1    3    3    0    0 -0.19790629511E+01 -0.26792464781E+01  0.17561095297E+01  0.37654976824E+01  0.51100000000E-03 0. -1.
        -11    1    3    3    0    0  0.10738859882E+02 -0.12701049144E+02 -0.63249176896E+01  0.17794503223E+02  0.51100000000E-03 0.  1.
        -12    1    3    3    0    0  0.28946583374E+02  0.60218258671E+00  0.96294803607E+00  0.28968855376E+02  0.00000000000E+00 0.  1.
</event>
<event>
 7    1  0.2432574E-011  0.5052886E+02  0.7816164E-02  0.1300439E+00
        -11   -1    0    0    0    0  0.00000000000E+00  0.00000000000E+00  0.45593999997E+02  0.45594000000E+02  0.51100000000E-03 0.  1.
         11   -1    0    0    0    0 -0.00000000000E+00 -0.00000000000E+00 -0.45593999997E+02  0.45594000000E+02  0.51100000000E-03 0. -1.
    9900012    2    1    2    0    0 -0.40517491988E+01 -0.37565519026E+02  0.15019349397E+02  0.50528858991E+02  0.29999997388E+02 0.  0.
         12    1    1    2    0    0  0.40517491988E+01  0.37565519026E+02 -0.15019349397E+02  0.40659141009E+02  0.00000000000E+00 0. -1.
         11    1    3    3    0    0 -0.82106061549E+01 -0.22090025037E+01  0.16348183337E+01  0.86583125803E+01  0.51100000000E-03 0. -1.
        -11    1    3    3    0    0  0.52605368731E+01 -0.27903247758E+02  0.23267271503E+01  0.28489965657E+02  0.51100000000E-03 0.  1.
         12    1    3    3    0    0 -0.11016799169E+01 -0.74532687647E+01  0.11057803913E+02  0.13380580754E+02  0.00000000000E+00 0. -1.
</event>
<event>
 7    1  0.2432574E-011  0.5052885E+02  0.7816164E-02  0.1300439E+00
        -11   -1    0    0    0    0  0.00000000000E+00  0.00000000000E+00  0.45593999997E+02  0.45594000000E+02  0.51100000000E-03 0. -1.
         11   -1    0    0    0    0 -0.00000000000E+00 -0.00000000000E+00 -0.45593999997E+02  0.45594000000E+02  0.51100000000E-03 0.  1.
    9900012    2    1    2    0    0 -0.29558726753E+02 -0.21587344113E+02 -0.17704080344E+02  0.50528853257E+02  0.29999979959E+02 0.  0.
         12    1    1    2    0    0  0.29558726753E+02  0.21587344113E+02  0.17704080344E+02  0.40659146743E+02  0.00000000000E+00 0. -1.
         11    1    3    3    0    0  0.10687648289E+01  0.32947866804E+01 -0.69313903491E+01  0.77486805303E+01  0.51100000000E-03 0. -1.
        -11    1    3    3    0    0 -0.13493461809E+02 -0.18349358006E+02 -0.34564979194E+01  0.23037357248E+02  0.51100000000E-03 0.  1.
        -12    1    3    3    0    0 -0.17134029773E+02 -0.65327727867E+01 -0.73161920751E+01  0.19742815479E+02  0.00000000000E+00 0.  1.
</event>
<event>
 7    1  0.2432574E-011  0.5052887E+02  0.7816164E-02  0.1300439E+00
        -11   -1    0    0    0    0  0.00000000000E+00  0.00000000000E+00  0.45593999997E+02  0.45594000000E+02  0.51100000000E-03 0. -1.
         11   -1    0    0    0    0 -0.00000000000E+00 -0.00000000000E+00 -0.45593999997E+02  0.45594000000E+02  0.51100000000E-03 0.  1.
    9900012    2    1    2    0    0  0.26635438508E+01  0.35935261377E+02 -0.18834207693E+02  0.50528869961E+02  0.30000030734E+02 0.  0.
         12    1    1    2    0    0 -0.26635438508E+01 -0.35935261377E+02  0.18834207693E+02  0.40659130039E+02  0.00000000000E+00 0. -1.
         11    1    3    3    0    0  0.83686588894E+01  0.45934607915E+01  0.47447979892E+00  0.95582145294E+01  0.51100000000E-03 0. -1.
        -11    1    3    3    0    0  0.93288443895E+00  0.18435046525E+02 -0.18947610524E+02  0.26452469801E+02  0.51100000000E-03 0.  1.
         12    1    3    3    0    0 -0.66379994775E+01  0.12906754060E+02 -0.36107696873E+00  0.14518185631E+02  0.00000000000E+00 0. -1.
</event>
<event>
 7    1  0.2432574E-011  0.5052886E+02  0.7816164E-02  0.1300439E+00
        -11   -1    0    0    0    0  0.00000000000E+00  0.00000000000E+00  0.45593999997E+02  0.45594000000E+02  0.51100000000E-03 0.  1.
         11   -1    0    0    0    0 -0.00000000000E+00 -0.00000000000E+00 -0.45593999997E+02  0.45594000000E+02  0.51100000000E-03 0. -1.
    9900012    2    1    2    0    0  0.93626100251E+01  0.54082032614E+01  0.39195138291E+02  0.50528855952E+02  0.29999988153E+02 0.  0.
         12    1    1    2    0    0 -0.93626100251E+01 -0.54082032614E+01 -0.39195138291E+02  0.40659144048E+02  0.00000000000E+00 0. -1.
         11    1    3    3    0    0 -0.19645472104E+01 -0.22591064382E+01 -0.31048615498E+00  0.30098853059E+01  0.51100000000E-03 0. -1.
        -11    1    3    3    0    0  0.88310048929E+01  0.13626246835E+02  0.14758864659E+02  0.21942774129E+02  0.51100000000E-03 0.  1.
         12    1    3    3    0    0  0.24961523426E+01 -0.59589371349E+01  0.24746759788E+02  0.25576196517E+02  0.00000000000E+00 0. -1.
</event>
<event>
 7    1  0.2432574E-011  0.5052885E+02  0.7816164E-02  0.1300439E+00
        -11   -1    0    0    0    0  0.00000000000E+00  0.00000000000E+00  0.45593999997E+02  0.45594000000E+02  0.51100000000E-03 0. -1.
         11   -1    0    0    0    0 -0.00000000000E+00 -0.00000000000E+00 -0.45593999997E+02  0.45594000000E+02  0.51100000000E-03 0.  1.
    9900012    2    1    2    0    0  0.25859698367E+02 -0.24184023710E+02 -0.19989379354E+02  0.50528852328E+02  0.29999977137E+02 0.  0.
         12    1    1    2    0    0 -0.25859698367E+02  0.24184023710E+02  0.19989379354E+02  0.40659147672E+02  0.00000000000E+00 0. -1.
         11    1    3    3    0    0 -0.86526701166E+00 -0.57180220678E+01 -0.12238745483E+02  0.13536297671E+02  0.51100000000E-03 0. -1.
        -11    1    3    3    0    0  0.14754906022E+02 -0.84308683126E+01 -0.12001517379E+02  0.20804403666E+02  0.51100000000E-03 0.  1.
        -12    1    3    3    0    0  0.11970059356E+02 -0.10035133330E+02  0.42508835083E+01  0.16188150992E+02  0.00000000000E+00 0.  1.
</event>
<event>
 7    1  0.2432574E-011  0.5052886E+02  0.7816164E-02  0.1300439E+00
        -11   -1    0    0    0    0  0.00000000000E+00  0.00000000000E+00  0.45593999997E+02  0.45594000000E+02  0.51100000000E-03 0.  1.
         11   -1    0    0    0    0 -0.00000000000E+00 -0.00000000000E+00 -0.45593999997E+02  0.45594000000E+02  0.51100000000E-03 0. -1.
    9900012    2    1    2    0    0  0.30157376516E+02  0.50625400619E+01  0.26796805272E+02  0.50528862736E+02  0.30000008774E+02 0.  0.
         12    1    1    2    0    0 -0.30157376516E+02 -0.50625400619E+01 -0.26796805272E+02  0.40659137264E+02  0.00000000000E+00 0. -1.
         11    1    3    3    0    0  0.76652193453E+01 -0.72039890542E+00  0.97903398512E+00  0.77609967144E+01  0.51100000000E-03 0. -1.
        -11    1    3    3    0    0  0.26003851058E+02  0.89333553964E+01  0.26270810931E+02  0.38028418528E+02  0.51100000000E-03 0.  1.
         12    1    3    3    0    0 -0.35116938869E+01 -0.31504164291E+01 -0.45303964407E+00  0.47394474943E+01  0.00000000000E+00 0. -1.
</event>
<event>
 7    1  0.2432574E-011  0.5052885E+02  0.7816164E-02  0.1300439E+00
        -11   -1    0    0    0    0  0.00000000000E+00  0.00000000000E+00  0.45593999997E+02  0.45594000000E+02  0.51100000000E-03 0.  1.
         11   -1    0    0    0    0 -0.00000000000E+00 -0.00000000000E+00 -0.45593999997E+02  0.45594000000E+02  0.51100000000E-03 0. -1.
    9900012    2    1    2    0    0 -0.23240593503E+02  0.16172970170E+02  0.29180063251E+02  0.50528852913E+02  0.29999978915E+02 0.  0.
         12    1    1    2    0    0  0.23240593503E+02 -0.16172970170E+02 -0.29180063251E+02  0.40659147087E+02  0.00000000000E+00 0. -1.
         11    1    3    3    0    0 -0.77488521433E+01  0.60783301982E+01  0.81572374546E+01  0.12787936921E+02  0.51100000000E-03 0. -1.
        -11    1    3    3    0    0 -0.19899030120E+02  0.14870635757E+02  0.16446964164E+02  0.29792781643E+02  0.51100000000E-03 0.  1.
         12    1    3    3    0    0  0.44072887604E+01 -0.47759957852E+01  0.45758616326E+01  0.79481343496E+01  0.00000000000E+00 0. -1.
</event>
<event>
 7    1  0.2432574E-011  0.5052886E+02  0.7816164E-02  0.1300439E+00
        -11   -1    0    0    0    0  0.00000000000E+00  0.00000000000E+00  0.45593999997E+02  0.45594000000E+02  0.51100000000E-03 0.  1.
         11   -1    0    0    0    0 -0.00000000000E+00 -0.00000000000E+00 -0.45593999997E+02  0.45594000000E+02  0.51100000000E-03 0. -1.
    9900012    2    1    2    0    0  0.13833362094E+02  0.44170213705E+01  0.37977542300E+02  0.50528859530E+02  0.29999999028E+02 0.  0.
         12    1    1    2    0    0 -0.13833362094E+02 -0.44170213705E+01 -0.37977542300E+02  0.40659140470E+02  0.00000000000E+00 0. -1.
         11    1    3    3    0    0 -0.20623569990E+01 -0.57589092792E+01  0.83361563714E+00  0.61735943962E+01  0.51100000000E-03 0. -1.
        -11    1    3    3    0    0 -0.25365938284E+01  0.38010041555E+01  0.92745784947E+01  0.10339233403E+02  0.51100000000E-03 0.  1.
        -12    1    3    3    0    0  0.18432312922E+02  0.63749264942E+01  0.27869348168E+02  0.34016031731E+02  0.00000000000E+00 0.  1.
</event>
<event>
 7    1  0.2432574E-011  0.5052886E+02  0.7816164E-02  0.1300439E+00
        -11   -1    0    0    0    0  0.00000000000E+00  0.00000000000E+00  0.45593999997E+02  0.45594000000E+02  0.51100000000E-03 0.  1.
         11   -1    0    0    0    0 -0.00000000000E+00 -0.00000000000E+00 -0.45593999997E+02  0.45594000000E+02  0.51100000000E-03 0. -1.
    9900012    2    1    2    0    0  0.29863333413E+01 -0.30481723214E+02  0.26741585738E+02  0.50528855337E+02  0.29999986283E+02 0.  0.
         12    1    1    2    0    0 -0.29863333413E+01  0.30481723214E+02 -0.26741585738E+02  0.40659144663E+02  0.00000000000E+00 0. -1.
         11    1    3    3    0    0  0.48770915922E+01  0.83621632857E+00  0.41758976469E+01  0.64748283039E+01  0.51100000000E-03 0. -1.
        -11    1    3    3    0    0  0.74801084031E+01 -0.15207817107E+02  0.18285219087E+02  0.24931485319E+02  0.51100000000E-03 0.  1.
        -12    1    3    3    0    0 -0.93708666539E+01 -0.16110122436E+02  0.42804690045E+01  0.19122541715E+02  0.00000000000E+00 0.  1.
</event>
<event>
 7    1  0.2432574E-011  0.5052887E+02  0.7816164E-02  0.1300439E+00
        -11   -1    0    0    0    0  0.00000000000E+00  0.00000000000E+00  0.45593999997E+02  0.45594000000E+02  0.51100000000E-03 0.  1.
         11   -1    0    0    0    0 -0.00000000000E+00 -0.00000000000E+00 -0.45593999997E+02  0.45594000000E+02  0.51100000000E-03 0. -1.
    9900012    2    1    2    0    0  0.10410628858E+02  0.26762274261E+02  0.28784796178E+02  0.50528868088E+02  0.30000025039E+02 0.  0.
         12    1    1    2    0    0 -0.10410628858E+02 -0.26762274261E+02 -0.28784796178E+02  0.40659131912E+02  0.00000000000E+00 0. -1.
         11    1    3    3    0    0  0.37056095944E+01  0.19775544946E+02  0.51344011918E+01  0.20764532170E+02  0.51100000000E-03 0. -1.
        -11    1    3    3    0    0  0.25553841797E+01 -0.46012103217E+01  0.41421018375E+01  0.66976214154E+01  0.51100000000E-03 0.  1.
        -12    1    3    3    0    0  0.41496350843E+01  0.11587939636E+02  0.19508293149E+02  0.23066714503E+02  0.00000000000E+00 0.  1.
</event>
<event>
 7    1  0.2432574E-011  0.5052886E+02  0.7816164E-02  0.1300439E+00
        -11   -1    0    0    0    0  0.00000000000E+00  0.00000000000E+00  0.45593999997E+02  0.45594000000E+02  0.51100000000E-03 0.  1.
         11   -1    0    0    0    0 -0.00000000000E+00 -0.00000000000E+00 -0.45593999997E+02  0.45594000000E+02  0.51100000000E-03 0. -1.
    9900012    2    1    2    0    0 -0.20457750724E+02 -0.33979906107E+02 -0.89449691263E+01  0.50528855194E+02  0.29999985847E+02 0.  0.
         12    1    1    2    0    0  0.20457750724E+02  0.33979906107E+02  0.89449691263E+01  0.40659144806E+02  0.00000000000E+00 0. -1.
         11    1    3    3    0    0 -0.89937946071E+01 -0.33327884342E+01 -0.54480547662E+01  0.11030735296E+02  0.51100000000E-03 0. -1.
        -11    1    3    3    0    0  0.35353320475E+01 -0.10671064859E+02 -0.84099598511E+01  0.14039146087E+02  0.51100000000E-03 0.  1.
        -12    1    3    3    0    0 -0.14999288164E+02 -0.19976052814E+02  0.49130454910E+01  0.25458973810E+02  0.00000000000E+00 0.  1.
</event>
<event>
 7    1  0.2432574E-011  0.5052885E+02  0.7816164E-02  0.1300439E+00
        -11   -1    0    0    0    0  0.00000000000E+00  0.00000000000E+00  0.45593999997E+02  0.45594000000E+02  0.51100000000E-03 0.  1.
         11   -1    0    0    0    0 -0.00000000000E+00 -0.00000000000E+00 -0.45593999997E+02  0.45594000000E+02  0.51100000000E-03 0. -1.
    9900012    2    1    2    0    0 -0.15565642798E+01 -0.17855029543E+02  0.36495768885E+02  0.50528854425E+02  0.29999983511E+02 0.  0.
         12    1    1    2    0    0  0.15565642798E+01  0.17855029543E+02 -0.36495768885E+02  0.40659145575E+02  0.00000000000E+00 0. -1.
         11    1    3    3    0    0 -0.57540500399E+01  0.35158640090E+01  0.11348659249E+02  0.13200850678E+02  0.51100000000E-03 0. -1.
        -11    1    3    3    0    0 -0.66007316318E+01 -0.76638869730E+01  0.99553640999E+01  0.14192043413E+02  0.51100000000E-03 0.  1.
         12    1    3    3    0    0  0.10798217392E+02 -0.13707006579E+02  0.15191745536E+02  0.23135960335E+02  0.00000000000E+00 0. -1.
</event>
<event>
 7    1  0.2432574E-011  0.5052885E+02  0.7816164E-02  0.1300439E+00
        -11   -1    0    0    0    0  0.00000000000E+00  0.00000000000E+00  0.45593999997E+02  0.45594000000E+02  0.51100000000E-03 0. -1.
         11   -1    0    0    0    0 -0.00000000000E+00 -0.00000000000E+00 -0.45593999997E+02  0.45594000000E+02  0.51100000000E-03 0.  1.
    9900012    2    1    2    0    0 -0.11930492350E+02 -0.10836583085E+01 -0.38854288114E+02  0.50528847674E+02  0.29999962990E+02 0.  0.
         12    1    1    2    0    0  0.11930492350E+02  0.10836583085E+01  0.38854288114E+02  0.40659152326E+02  0.00000000000E+00 0. -1.
         11    1    3    3    0    0 -0.72307456400E+01 -0.10425223725E+02 -0.24998183365E+02  0.28033518224E+02  0.51100000000E-03 0.  1.
        -11    1    3    3    0    0  0.47770779684E+01  0.17151983788E+01 -0.66184416603E+01  0.83406324500E+01  0.51100000000E-03 0. -1.
         12    1    3    3    0    0 -0.94768246780E+01  0.76263670380E+01 -0.72376630886E+01  0.14154697000E+02  0.00000000000E+00 0. -1.
</event>
<event>
 7    1  0.2432574E-011  0.5052887E+02  0.7816164E-02  0.1300439E+00
        -11   -1    0    0    0    0  0.00000000000E+00  0.00000000000E+00  0.45593999997E+02  0.45594000000E+02  0.51100000000E-03 0. -1.
         11   -1    0    0    0    0 -0.00000000000E+00 -0.00000000000E+00 -0.45593999997E+02  0.45594000000E+02  0.51100000000E-03 0.  1.
    9900012    2    1    2    0    0 -0.24544106351E+02  0.28769582266E+02  0.14935301316E+02  0.50528865163E+02  0.30000016149E+02 0.  0.
         12    1    1    2    0    0  0.24544106351E+02 -0.28769582266E+02 -0.14935301316E+02  0.40659134837E+02  0.00000000000E+00 0. -1.
         11    1    3    3    0    0 -0.12702302457E+02  0.11076271575E+02  0.17861781411E+02  0.24557595875E+02  0.51100000000E-03 0. -1.
        -11    1    3    3    0    0 -0.76114171338E+01  0.14922132952E+02  0.41649808991E+01  0.17261251078E+02  0.51100000000E-03 0.  1.
        -12    1    3    3    0    0 -0.42303867603E+01  0.27711777386E+01 -0.70914609939E+01  0.87100182106E+01  0.00000000000E+00 0.  1.
</event>
<event>
 7    1  0.2432574E-011  0.5052886E+02  0.7816164E-02  0.1300439E+00
        -11   -1    0    0    0    0  0.00000000000E+00  0.00000000000E+00  0.45593999997E+02  0.45594000000E+02  0.51100000000E-03 0.  1.
         11   -1    0    0    0    0 -0.00000000000E+00 -0.00000000000E+00 -0.45593999997E+02  0.45594000000E+02  0.51100000000E-03 0. -1.
    9900012    2    1    2    0    0 -0.27912313981E+02 -0.19533659639E+02  0.22192442078E+02  0.50528860608E+02  0.30000002305E+02 0.  0.
         12    1    1    2    0    0  0.27912313981E+02  0.19533659639E+02 -0.22192442078E+02  0.40659139392E+02  0.00000000000E+00 0. -1.
         11    1    3    3    0    0 -0.75163376138E+01 -0.88171485912E+01 -0.27887115288E+01  0.11916977497E+02  0.51100000000E-03 0. -1.
        -11    1    3    3    0    0  0.13430594152E+01  0.30607259440E+01  0.11466027053E+01  0.35336312657E+01  0.51100000000E-03 0.  1.
        -12    1    3    3    0    0 -0.21739035783E+02 -0.13777236992E+02  0.23834550901E+02  0.35078251846E+02  0.00000000000E+00 0.  1.
</event>
<event>
 7    1  0.2432574E-011  0.5052886E+02  0.7816164E-02  0.1300439E+00
        -11   -1    0    0    0    0  0.00000000000E+00  0.00000000000E+00  0.45593999997E+02  0.45594000000E+02  0.51100000000E-03 0.  1.
         11   -1    0    0    0    0 -0.00000000000E+00 -0.00000000000E+00 -0.45593999997E+02  0.45594000000E+02  0.51100000000E-03 0. -1.
    9900012    2    1    2    0    0 -0.47480006446E+01  0.14787784102E+02  0.37575839794E+02  0.50528858285E+02  0.29999995244E+02 0.  0.
         12    1    1    2    0    0  0.47480006446E+01 -0.14787784102E+02 -0.37575839794E+02  0.40659141715E+02  0.00000000000E+00 0. -1.
         11    1    3    3    0    0 -0.89560749583E+01 -0.10460065933E+01  0.10736174237E+02  0.14020372533E+02  0.51100000000E-03 0.  1.
        -11    1    3    3    0    0 -0.16765063794E+01  0.53455705183E+00 -0.24068957368E+01  0.29815385677E+01  0.51100000000E-03 0. -1.
         12    1    3    3    0    0  0.58845806931E+01  0.15299233643E+02  0.29246561294E+02  0.33526947185E+02  0.00000000000E+00 0. -1.
</event>
<event>
 7    1  0.2432574E-011  0.5052885E+02  0.7816164E-02  0.1300439E+00
        -11   -1    0    0    0    0  0.00000000000E+00  0.00000000000E+00  0.45593999997E+02  0.45594000000E+02  0.51100000000E-03 0.  1.
         11   -1    0    0    0    0 -0.00000000000E+00 -0.00000000000E+00 -0.45593999997E+02  0.45594000000E+02  0.51100000000E-03 0. -1.
    9900012    2    1    2    0    0 -0.24929423438E+02 -0.11374563544E+02  0.30038462903E+02  0.50528854628E+02  0.29999984129E+02 0.  0.
         12    1    1    2    0    0  0.24929423438E+02  0.11374563544E+02 -0.30038462903E+02  0.40659145372E+02  0.00000000000E+00 0. -1.
         11    1    3    3    0    0 -0.16857006607E+02 -0.11452875310E+01  0.50375099231E+01  0.17630849718E+02  0.51100000000E-03 0.  1.
        -11    1    3    3    0    0 -0.64101632843E+00  0.41765954576E+01  0.17942620102E+01  0.45906674865E+01  0.51100000000E-03 0. -1.
         12    1    3    3    0    0 -0.74314005018E+01 -0.14405871471E+02  0.23206690970E+02  0.28307337424E+02  0.00000000000E+00 0. -1.
</event>
<event>
 7    1  0.2432574E-011  0.5052885E+02  0.7816164E-02  0.1300439E+00
        -11   -1    0    0    0    0  0.00000000000E+00  0.00000000000E+00  0.45593999997E+02  0.45594000000E+02  0.51100000000E-03 0.  1.
         11   -1    0    0    0    0 -0.00000000000E+00 -0.00000000000E+00 -0.45593999997E+02  0.45594000000E+02  0.51100000000E-03 0. -1.
    9900012    2    1    2    0    0  0.10039595096E+02 -0.26805265505E+02  0.28876470127E+02  0.50528852745E+02  0.29999978405E+02 0.  0.
         12    1    1    2    0    0 -0.10039595096E+02  0.26805265505E+02 -0.28876470127E+02  0.40659147255E+02  0.00000000000E+00 0. -1.
         11    1    3    3    0    0  0.29775538490E+01 -0.18655969922E+02  0.40002558524E+01  0.19310957713E+02  0.51100000000E-03 0. -1.
        -11    1    3    3    0    0 -0.22593430609E+01 -0.87191643821E+01  0.15847141335E+02  0.18228009967E+02  0.51100000000E-03 0.  1.
         12    1    3    3    0    0  0.93213843081E+01  0.56986879961E+00  0.90290729396E+01  0.12989885066E+02  0.00000000000E+00 0. -1.
</event>
<event>
 7    1  0.2432574E-011  0.5052885E+02  0.7816164E-02  0.1300439E+00
        -11   -1    0    0    0    0  0.00000000000E+00  0.00000000000E+00  0.45593999997E+02  0.45594000000E+02  0.51100000000E-03 0. -1.
         11   -1    0    0    0    0 -0.00000000000E+00 -0.00000000000E+00 -0.45593999997E+02  0.45594000000E+02  0.51100000000E-03 0.  1.
    9900012    2    1    2    0    0 -0.22696817070E+02  0.77754198708E+01 -0.32826262023E+02  0.50528854194E+02  0.29999982809E+02 0.  0.
         12    1    1    2    0    0  0.22696817070E+02 -0.77754198708E+01  0.32826262023E+02  0.40659145806E+02  0.00000000000E+00 0. -1.
         11    1    3    3    0    0 -0.26349572359E+02  0.82458721643E+01 -0.25684831979E+02  0.37709481107E+02  0.51100000000E-03 0. -1.
        -11    1    3    3    0    0 -0.26354083160E+01 -0.23221307646E+01 -0.60871549344E+00  0.35648566722E+01  0.51100000000E-03 0.  1.
         12    1    3    3    0    0  0.62881636057E+01  0.18516784711E+01 -0.65327145503E+01  0.92545164157E+01  0.00000000000E+00 0. -1.
</event>
<event>
 7    1  0.2432574E-011  0.5052886E+02  0.7816164E-02  0.1300439E+00
        -11   -1    0    0    0    0  0.00000000000E+00  0.00000000000E+00  0.45593999997E+02  0.45594000000E+02  0.51100000000E-03 0.  1.
         11   -1    0    0    0    0 -0.00000000000E+00 -0.00000000000E+00 -0.45593999997E+02  0.45594000000E+02  0.51100000000E-03 0. -1.
    9900012    2    1    2    0    0  0.27636839619E+02  0.40699343015E+01  0.29543303646E+02  0.50528855153E+02  0.29999985724E+02 0.  0.
         12    1    1    2    0    0 -0.27636839619E+02 -0.40699343015E+01 -0.29543303646E+02  0.40659144847E+02  0.00000000000E+00 0. -1.
         11    1    3    3    0    0  0.16428315044E+02 -0.25451710806E+01  0.24970125349E+02  0.29997909781E+02  0.51100000000E-03 0. -1.
        -11    1    3    3    0    0  0.98433298603E+01  0.67022618569E+01  0.96158107671E+01  0.15306053499E+02  0.51100000000E-03 0.  1.
         12    1    3    3    0    0  0.13651947147E+01 -0.87156474747E-01 -0.50426324702E+01  0.52248918735E+01  0.00000000000E+00 0. -1.
</event>
<event>
 7    1  0.2432574E-011  0.5052887E+02  0.7816164E-02  0.1300439E+00
        -11   -1    0    0    0    0  0.00000000000E+00  0.00000000000E+00  0.45593999997E+02  0.45594000000E+02  0.51100000000E-03 0. -1.
         11   -1    0    0    0    0 -0.00000000000E+00 -0.00000000000E+00 -0.45593999997E+02  0.45594000000E+02  0.51100000000E-03 0.  1.
    9900012    2    1    2    0    0  0.29410047992E+02 -0.27591128008E+02 -0.51907526605E+01  0.50528865960E+02  0.30000018573E+02 0.  0.
         12    1    1    2    0    0 -0.29410047992E+02  0.27591128008E+02  0.51907526605E+01  0.40659134040E+02  0.00000000000E+00 0. -1.
         11    1    3    3    0    0 -0.25449398673E+01 -0.22096441956E+01  0.36080847863E+01  0.49373598699E+01  0.51100000000E-03 0. -1.
        -11    1    3    3    0    0  0.12859237161E+01 -0.66595195466E+01 -0.67995608456E+01  0.96040006429E+01  0.51100000000E-03 0.  1.
         12    1    3    3    0    0  0.30669064143E+02 -0.18721964266E+02 -0.19992766012E+01  0.35987505448E+02  0.00000000000E+00 0. -1.
</event>
<event>
 7    1  0.2432574E-011  0.5052886E+02  0.7816164E-02  0.1300439E+00
        -11   -1    0    0    0    0  0.00000000000E+00  0.00000000000E+00  0.45593999997E+02  0.45594000000E+02  0.51100000000E-03 0.  1.
         11   -1    0    0    0    0 -0.00000000000E+00 -0.00000000000E+00 -0.45593999997E+02  0.45594000000E+02  0.51100000000E-03 0. -1.
    9900012    2    1    2    0    0 -0.13133701775E+02 -0.16139401564E+02  0.34931237217E+02  0.50528859101E+02  0.29999997723E+02 0.  0.
         12    1    1    2    0    0  0.13133701775E+02  0.16139401564E+02 -0.34931237217E+02  0.40659140899E+02  0.00000000000E+00 0. -1.
         11    1    3    3    0    0  0.13545213868E+01  0.22041458313E+01  0.18525082676E+02  0.18704857001E+02  0.51100000000E-03 0. -1.
        -11    1    3    3    0    0 -0.74079626468E+00 -0.96677856045E+01  0.11066657174E+02  0.14713455028E+02  0.51100000000E-03 0.  1.
         12    1    3    3    0    0 -0.13747426897E+02 -0.86757617911E+01  0.53394973670E+01  0.17110547071E+02  0.00000000000E+00 0. -1.
</event>
<event>
 7    1  0.2432574E-011  0.5052886E+02  0.7816164E-02  0.1300439E+00
        -11   -1    0    0    0    0  0.00000000000E+00  0.00000000000E+00  0.45593999997E+02  0.45594000000E+02  0.51100000000E-03 0. -1.
         11   -1    0    0    0    0 -0.00000000000E+00 -0.00000000000E+00 -0.45593999997E+02  0.45594000000E+02  0.51100000000E-03 0.  1.
    9900012    2    1    2    0    0 -0.27521164762E+01  0.11480885795E+01 -0.40549637982E+02  0.50528863352E+02  0.30000010644E+02 0.  0.
         12    1    1    2    0    0  0.27521164762E+01 -0.11480885795E+01  0.40549637982E+02  0.40659136648E+02  0.00000000000E+00 0. -1.
         11    1    3    3    0    0 -0.61486765703E+01 -0.37993318796E+01 -0.31656704165E+02  0.32471342213E+02  0.51100000000E-03 0. -1.
        -11    1    3    3    0    0 -0.26581162921E+01  0.56207743931E+01 -0.10087271865E+02  0.11849546023E+02  0.51100000000E-03 0.  1.
         12    1    3    3    0    0  0.60546763863E+01 -0.67335393399E+00  0.11943380478E+01  0.62079751156E+01  0.00000000000E+00 0. -1.
</event>
<event>
 7    1  0.2432574E-011  0.5052887E+02  0.7816164E-02  0.1300439E+00
        -11   -1    0    0    0    0  0.00000000000E+00  0.00000000000E+00  0.45593999997E+02  0.45594000000E+02  0.51100000000E-03 0. -1.
         11   -1    0    0    0    0 -0.00000000000E+00 -0.00000000000E+00 -0.45593999997E+02  0.45594000000E+02  0.51100000000E-03 0.  1.
    9900012    2    1    2    0    0 -0.12556066057E+02  0.37425661574E+02 -0.97380833616E+01  0.50528865643E+02  0.30000017608E+02 0.  0.
         12    1    1    2    0    0  0.12556066057E+02 -0.37425661574E+02  0.97380833616E+01  0.40659134357E+02  0.00000000000E+00 0. -1.
         11    1    3    3    0    0  0.46469062938E+01  0.12923541823E+02  0.51553853823E+01  0.14669344568E+02  0.51100000000E-03 0. -1.
        -11    1    3    3    0    0 -0.10449667120E+02  0.20703595952E+02 -0.57862336558E+01  0.23902195055E+02  0.51100000000E-03 0.  1.
        -12    1    3    3    0    0 -0.67533052305E+01  0.37985237989E+01 -0.91072350881E+01  0.11957326019E+02  0.00000000000E+00 0.  1.
</event>
<event>
 7    1  0.2432574E-011  0.5052874E+02  0.7816164E-02  0.1300439E+00
        -11   -1    0    0    0    0  0.00000000000E+00  0.00000000000E+00  0.45593999997E+02  0.45594000000E+02  0.51100000000E-03 0.  1.
         11   -1    0    0    0    0 -0.00000000000E+00 -0.00000000000E+00 -0.45593999997E+02  0.45594000000E+02  0.51100000000E-03 0. -1.
    9900012    2    1    2    0    0  0.23684636451E+02 -0.15535054855E+02  0.29169772792E+02  0.50528738104E+02  0.29999629939E+02 0.  0.
         12    1    1    2    0    0 -0.23684636451E+02  0.15535054855E+02 -0.29169772792E+02  0.40659261896E+02  0.00000000000E+00 0. -1.
         11    1    3    3    0    0  0.53546018008E+01 -0.13654610743E+02  0.81478496964E+01  0.16778188517E+02  0.51100000000E-03 0. -1.
        -11    1    3    3    0    0  0.74827771266E+01  0.27101807444E+01 -0.17174353885E+01  0.81416593989E+01  0.51100000000E-03 0.  1.
         12    1    3    3    0    0  0.10847257523E+02 -0.45906248562E+01  0.22739358485E+02  0.25608890188E+02  0.00000000000E+00 0. -1.
</event>
<event>
 7    1  0.2432574E-011  0.5052886E+02  0.7816164E-02  0.1300439E+00
        -11   -1    0    0    0    0  0.00000000000E+00  0.00000000000E+00  0.45593999997E+02  0.45594000000E+02  0.51100000000E-03 0.  1.
         11   -1    0    0    0    0 -0.00000000000E+00 -0.00000000000E+00 -0.45593999997E+02  0.45594000000E+02  0.51100000000E-03 0. -1.
    9900012    2    1    2    0    0 -0.14538468567E+02  0.12413227718E+02  0.35884686485E+02  0.50528855705E+02  0.29999987401E+02 0.  0.
         12    1    1    2    0    0  0.14538468567E+02 -0.12413227718E+02 -0.35884686485E+02  0.40659144295E+02  0.00000000000E+00 0. -1.
         11    1    3    3    0    0 -0.21041859413E+01 -0.62430397187E+01  0.54753927338E+01  0.85663918458E+01  0.51100000000E-03 0. -1.
        -11    1    3    3    0    0 -0.58187309277E+01  0.31957953374E+00  0.17840620500E+02  0.18768257798E+02  0.51100000000E-03 0.  1.
        -12    1    3    3    0    0 -0.66155516983E+01  0.18336687903E+02  0.12568673252E+02  0.23194206062E+02  0.00000000000E+00 0.  1.
</event>
<event>
 7    1  0.2432574E-011  0.5052881E+02  0.7816164E-02  0.1300439E+00
        -11   -1    0    0    0    0  0.00000000000E+00  0.00000000000E+00  0.45593999997E+02  0.45594000000E+02  0.51100000000E-03 0.  1.
         11   -1    0    0    0    0 -0.00000000000E+00 -0.00000000000E+00 -0.45593999997E+02  0.45594000000E+02  0.51100000000E-03 0. -1.
    9900012    2    1    2    0    0 -0.18529457531E+02 -0.99634192965E+01  0.34793090937E+02  0.50528810418E+02  0.29999849747E+02 0.  0.
         12    1    1    2    0    0  0.18529457531E+02  0.99634192965E+01 -0.34793090937E+02  0.40659189582E+02  0.00000000000E+00 0. -1.
         11    1    3    3    0    0 -0.13089266308E+02 -0.71976185966E+00  0.49303203054E+01  0.14005534913E+02  0.51100000000E-03 0. -1.
        -11    1    3    3    0    0 -0.51992931502E+01 -0.88941789600E+01  0.46436031181E+01  0.11300536218E+02  0.51100000000E-03 0.  1.
         12    1    3    3    0    0 -0.24089807328E+00 -0.34947847686E+00  0.25219167514E+02  0.25222739288E+02  0.00000000000E+00 0. -1.
</event>
<event>
 7    1  0.2432574E-011  0.5052881E+02  0.7816164E-02  0.1300439E+00
        -11   -1    0    0    0    0  0.00000000000E+00  0.00000000000E+00  0.45593999997E+02  0.45594000000E+02  0.51100000000E-03 0.  1.
         11   -1    0    0    0    0 -0.00000000000E+00 -0.00000000000E+00 -0.45593999997E+02  0.45594000000E+02  0.51100000000E-03 0. -1.
    9900012    2    1    2    0    0  0.66765694723E+01  0.33115836947E+02 -0.22625978211E+02  0.50528805141E+02  0.29999833705E+02 0.  0.
         12    1    1    2    0    0 -0.66765694723E+01 -0.33115836947E+02  0.22625978211E+02  0.40659194859E+02  0.00000000000E+00 0. -1.
         11    1    3    3    0    0 -0.31311907838E+01  0.12755769999E+01 -0.38772352567E+01  0.51443567046E+01  0.51100000000E-03 0. -1.
        -11    1    3    3    0    0  0.73729737147E+01  0.42273041562E+01  0.41235227578E+01  0.94463898936E+01  0.51100000000E-03 0.  1.
        -12    1    3    3    0    0  0.24347865414E+01  0.27612955791E+02 -0.22872265712E+02  0.35938058542E+02  0.00000000000E+00 0.  1.
</event>
<event>
 7    1  0.2432574E-011  0.5052887E+02  0.7816164E-02  0.1300439E+00
        -11   -1    0    0    0    0  0.00000000000E+00  0.00000000000E+00  0.45593999997E+02  0.45594000000E+02  0.51100000000E-03 0.  1.
         11   -1    0    0    0    0 -0.00000000000E+00 -0.00000000000E+00 -0.45593999997E+02  0.45594000000E+02  0.51100000000E-03 0. -1.
    9900012    2    1    2    0    0 -0.22144342202E+02  0.21147994899E+02  0.26749872500E+02  0.50528865004E+02  0.30000015667E+02 0.  0.
         12    1    1    2    0    0  0.22144342202E+02 -0.21147994899E+02 -0.26749872500E+02  0.40659134996E+02  0.00000000000E+00 0. -1.
         11    1    3    3    0    0  0.18698016969E+01 -0.21005878718E+00 -0.23740217771E+01  0.30292346788E+01  0.51100000000E-03 0. -1.
        -11    1    3    3    0    0 -0.54522304600E+01  0.15533630942E+02  0.65976207675E+01  0.17735532337E+02  0.51100000000E-03 0.  1.
         12    1    3    3    0    0 -0.18561913439E+02  0.58244227447E+01  0.22526273510E+02  0.29764097989E+02  0.00000000000E+00 0. -1.
</event>
<event>
 7    1  0.2432574E-011  0.5052886E+02  0.7816164E-02  0.1300439E+00
        -11   -1    0    0    0    0  0.00000000000E+00  0.00000000000E+00  0.45593999997E+02  0.45594000000E+02  0.51100000000E-03 0.  1.
         11   -1    0    0    0    0 -0.00000000000E+00 -0.00000000000E+00 -0.45593999997E+02  0.45594000000E+02  0.51100000000E-03 0. -1.
    9900012    2    1    2    0    0 -0.19418117730E+02  0.32626060198E+02 -0.14547951943E+02  0.50528855813E+02  0.29999987730E+02 0.  0.
         12    1    1    2    0    0  0.19418117730E+02 -0.32626060198E+02  0.14547951943E+02  0.40659144187E+02  0.00000000000E+00 0. -1.
         11    1    3    3    0    0 -0.36709531983E+01  0.11277524060E+01  0.31887422196E+01  0.49915729061E+01  0.51100000000E-03 0. -1.
        -11    1    3    3    0    0 -0.20072985969E+02  0.16557832946E+02 -0.81554903299E+01  0.27269004755E+02  0.51100000000E-03 0.  1.
        -12    1    3    3    0    0  0.43258214370E+01  0.14940474847E+02 -0.95812038330E+01  0.18268278152E+02  0.00000000000E+00 0.  1.
</event>
<event>
 7    1  0.2432574E-011  0.5052887E+02  0.7816164E-02  0.1300439E+00
        -11   -1    0    0    0    0  0.00000000000E+00  0.00000000000E+00  0.45593999997E+02  0.45594000000E+02  0.51100000000E-03 0.  1.
         11   -1    0    0    0    0 -0.00000000000E+00 -0.00000000000E+00 -0.45593999997E+02  0.45594000000E+02  0.51100000000E-03 0. -1.
    9900012    2    1    2    0    0  0.26524480780E+02 -0.22983486737E+02  0.20527454102E+02  0.50528866768E+02  0.30000021028E+02 0.  0.
         12    1    1    2    0    0 -0.26524480780E+02  0.22983486737E+02 -0.20527454102E+02  0.40659133232E+02  0.00000000000E+00 0. -1.
         11    1    3    3    0    0 -0.65767910295E+00 -0.86079181655E+01  0.95625836146E+01  0.12883004409E+02  0.51100000000E-03 0. -1.
        -11    1    3    3    0    0  0.15808235883E+02 -0.69435137256E+01  0.15620720903E+02  0.23283462509E+02  0.51100000000E-03 0.  1.
        -12    1    3    3    0    0  0.11373924000E+02 -0.74320548460E+01 -0.46558504154E+01  0.14362399851E+02  0.00000000000E+00 0.  1.
</event>
<event>
 7    1  0.2432574E-011  0.5052890E+02  0.7816164E-02  0.1300439E+00
        -11   -1    0    0    0    0  0.00000000000E+00  0.00000000000E+00  0.45593999997E+02  0.45594000000E+02  0.51100000000E-03 0. -1.
         11   -1    0    0    0    0 -0.00000000000E+00 -0.00000000000E+00 -0.45593999997E+02  0.45594000000E+02  0.51100000000E-03 0.  1.
    9900012    2    1    2    0    0  0.10701175065E+02 -0.25778373881E+02 -0.29565562749E+02  0.50528902514E+02  0.30000129681E+02 0.  0.
         12    1    1    2    0    0 -0.10701175065E+02  0.25778373881E+02  0.29565562749E+02  0.40659097486E+02  0.00000000000E+00 0. -1.
         11    1    3    3    0    0  0.95672057470E+01 -0.15083745027E+01 -0.48381327374E+01  0.10826548300E+02  0.51100000000E-03 0. -1.
        -11    1    3    3    0    0 -0.40374461691E+01  0.14004419939E+01 -0.10538509920E+01  0.44014556140E+01  0.51100000000E-03 0.  1.
        -12    1    3    3    0    0  0.51714154872E+01 -0.25670441372E+02 -0.23673579019E+02  0.35300898600E+02  0.00000000000E+00 0.  1.
</event>
<event>
 7    1  0.2432574E-011  0.5052886E+02  0.7816164E-02  0.1300439E+00
        -11   -1    0    0    0    0  0.00000000000E+00  0.00000000000E+00  0.45593999997E+02  0.45594000000E+02  0.51100000000E-03 0. -1.
         11   -1    0    0    0    0 -0.00000000000E+00 -0.00000000000E+00 -0.45593999997E+02  0.45594000000E+02  0.51100000000E-03 0.  1.
    9900012    2    1    2    0    0  0.31603688585E+02 -0.12986640032E+02  0.22039051871E+02  0.50528858852E+02  0.29999996967E+02 0.  0.
         12    1    1    2    0    0 -0.31603688585E+02  0.12986640032E+02 -0.22039051871E+02  0.40659141148E+02  0.00000000000E+00 0. -1.
         11    1    3    3    0    0  0.20056022035E+02 -0.50377401080E+01  0.23552103997E+02  0.31342055584E+02  0.51100000000E-03 0. -1.
        -11    1    3    3    0    0  0.67469503010E+01 -0.79714086156E+01  0.46019971785E+01  0.11412408684E+02  0.51100000000E-03 0.  1.
        -12    1    3    3    0    0  0.48007162489E+01  0.22508691575E-01 -0.61150493050E+01  0.77743945840E+01  0.00000000000E+00 0.  1.
</event>
<event>
 7    1  0.2432574E-011  0.5052886E+02  0.7816164E-02  0.1300439E+00
        -11   -1    0    0    0    0  0.00000000000E+00  0.00000000000E+00  0.45593999997E+02  0.45594000000E+02  0.51100000000E-03 0. -1.
         11   -1    0    0    0    0 -0.00000000000E+00 -0.00000000000E+00 -0.45593999997E+02  0.45594000000E+02  0.51100000000E-03 0.  1.
    9900012    2    1    2    0    0 -0.29234964154E+02 -0.14394741848E+02 -0.24316132624E+02  0.50528855545E+02  0.29999986915E+02 0.  0.
         12    1    1    2    0    0  0.29234964154E+02  0.14394741848E+02  0.24316132624E+02  0.40659144455E+02  0.00000000000E+00 0. -1.
         11    1    3    3    0    0 -0.13319813295E+02  0.49273736741E+01 -0.14738966122E+01  0.14278263516E+02  0.51100000000E-03 0.  1.
        -11    1    3    3    0    0  0.14542941423E+01 -0.20952945211E+01  0.30893503078E+00  0.25691772412E+01  0.51100000000E-03 0. -1.
        -12    1    3    3    0    0 -0.17369445002E+02 -0.17226821002E+02 -0.23151171043E+02  0.33681414788E+02  0.00000000000E+00 0.  1.
</event>
<event>
 7    1  0.2432574E-011  0.5052886E+02  0.7816164E-02  0.1300439E+00
        -11   -1    0    0    0    0  0.00000000000E+00  0.00000000000E+00  0.45593999997E+02  0.45594000000E+02  0.51100000000E-03 0. -1.
         11   -1    0    0    0    0 -0.00000000000E+00 -0.00000000000E+00 -0.45593999997E+02  0.45594000000E+02  0.51100000000E-03 0.  1.
    9900012    2    1    2    0    0 -0.18239059991E+02 -0.36165184791E+02 -0.35470729709E+01  0.50528860474E+02  0.30000001898E+02 0.  0.
         12    1    1    2    0    0  0.18239059991E+02  0.36165184791E+02  0.35470729709E+01  0.40659139526E+02  0.00000000000E+00 0. -1.
         11    1    3    3    0    0 -0.52293125772E+01  0.33236918513E+00  0.20763247421E+01  0.56362491074E+01  0.51100000000E-03 0. -1.
        -11    1    3    3    0    0 -0.16170325717E+02 -0.27185420735E+02 -0.11238802497E+02  0.33568396092E+02  0.51100000000E-03 0.  1.
         12    1    3    3    0    0  0.31605783038E+01 -0.93121332411E+01  0.56154047842E+01  0.11324215275E+02  0.00000000000E+00 0. -1.
</event>
<event>
 7    1  0.2432574E-011  0.5052886E+02  0.7816164E-02  0.1300439E+00
        -11   -1    0    0    0    0  0.00000000000E+00  0.00000000000E+00  0.45593999997E+02  0.45594000000E+02  0.51100000000E-03 0. -1.
         11   -1    0    0    0    0 -0.00000000000E+00 -0.00000000000E+00 -0.45593999997E+02  0.45594000000E+02  0.51100000000E-03 0.  1.
    9900012    2    1    2    0    0  0.11826756029E+02  0.38446175341E+02 -0.59317239781E+01  0.50528857045E+02  0.29999991473E+02 0.  0.
         12    1    1    2    0    0 -0.11826756029E+02 -0.38446175341E+02  0.59317239781E+01  0.40659142955E+02  0.00000000000E+00 0. -1.
         11    1    3    3    0    0  0.11966882881E+02  0.11950293200E+02 -0.22528036706E+01  0.17061386758E+02  0.51100000000E-03 0.  1.
        -11    1    3    3    0    0  0.60403308425E+01  0.91217011174E+00  0.22113585615E+01  0.64967497988E+01  0.51100000000E-03 0. -1.
         12    1    3    3    0    0 -0.61804576945E+01  0.25583712029E+02 -0.58902788689E+01  0.26970720488E+02  0.00000000000E+00 0. -1.
</event>
<event>
 7    1  0.2432574E-011  0.5052886E+02  0.7816164E-02  0.1300439E+00
        -11   -1    0    0    0    0  0.00000000000E+00  0.00000000000E+00  0.45593999997E+02  0.45594000000E+02  0.51100000000E-03 0.  1.
         11   -1    0    0    0    0 -0.00000000000E+00 -0.00000000000E+00 -0.45593999997E+02  0.45594000000E+02  0.51100000000E-03 0. -1.
    9900012    2    1    2    0    0  0.93056761212E+01 -0.30344412377E+01  0.39463427664E+02  0.50528861240E+02  0.30000004224E+02 0.  0.
         12    1    1    2    0    0 -0.93056761212E+01  0.30344412377E+01 -0.39463427664E+02  0.40659138760E+02  0.00000000000E+00 0. -1.
         11    1    3    3    0    0 -0.46393742925E+01 -0.35857104856E+01  0.80775633632E+01  0.99813898662E+01  0.51100000000E-03 0. -1.
        -11    1    3    3    0    0 -0.53740390305E+01  0.33155619491E+00  0.28658786247E+01  0.60994660065E+01  0.51100000000E-03 0.  1.
        -12    1    3    3    0    0  0.19319089444E+02  0.21971305295E+00  0.28519985677E+02  0.34448005367E+02  0.00000000000E+00 0.  1.
</event>
<event>
 7    1  0.2432574E-011  0.5052889E+02  0.7816164E-02  0.1300439E+00
        -11   -1    0    0    0    0  0.00000000000E+00  0.00000000000E+00  0.45593999997E+02  0.45594000000E+02  0.51100000000E-03 0. -1.
         11   -1    0    0    0    0 -0.00000000000E+00 -0.00000000000E+00 -0.45593999997E+02  0.45594000000E+02  0.51100000000E-03 0.  1.
    9900012    2    1    2    0    0  0.16059548560E+02 -0.40659495438E+01 -0.37131151727E+02  0.50528886947E+02  0.30000082364E+02 0.  0.
         12    1    1    2    0    0 -0.16059548560E+02  0.40659495438E+01  0.37131151727E+02  0.40659113053E+02  0.00000000000E+00 0. -1.
         11    1    3    3    0    0  0.12472313887E+02 -0.27225482756E+01 -0.35339293255E+01  0.13246114130E+02  0.51100000000E-03 0. -1.
        -11    1    3    3    0    0 -0.26133137654E+01  0.14716836344E+01  0.32395275032E-02  0.29992119484E+01  0.51100000000E-03 0.  1.
        -12    1    3    3    0    0  0.62005484386E+01 -0.28150849026E+01 -0.33600461929E+02  0.34283560868E+02  0.00000000000E+00 0.  1.
</event>
<event>
 7    1  0.2432574E-011  0.5052886E+02  0.7816164E-02  0.1300439E+00
        -11   -1    0    0    0    0  0.00000000000E+00  0.00000000000E+00  0.45593999997E+02  0.45594000000E+02  0.51100000000E-03 0. -1.
         11   -1    0    0    0    0 -0.00000000000E+00 -0.00000000000E+00 -0.45593999997E+02  0.45594000000E+02  0.51100000000E-03 0.  1.
    9900012    2    1    2    0    0  0.55205896296E+01 -0.38604177907E+02 -0.11506776458E+02  0.50528863681E+02  0.30000011646E+02 0.  0.
         12    1    1    2    0    0 -0.55205896296E+01  0.38604177907E+02  0.11506776458E+02  0.40659136319E+02  0.00000000000E+00 0. -1.
         11    1    3    3    0    0  0.21919252844E+00  0.12485097239E+01  0.11828936215E+01  0.17337991452E+01  0.51100000000E-03 0. -1.
        -11    1    3    3    0    0  0.58450397446E+01 -0.11296489915E+02 -0.15551808988E+02  0.20090643023E+02  0.51100000000E-03 0.  1.
        -12    1    3    3    0    0 -0.54364264348E+00 -0.28556197715E+02  0.28621389082E+01  0.28704421513E+02  0.00000000000E+00 0.  1.
</event>
<event>
 7    1  0.2432574E-011  0.5052893E+02  0.7816164E-02  0.1300439E+00
        -11   -1    0    0    0    0  0.00000000000E+00  0.00000000000E+00  0.45593999997E+02  0.45594000000E+02  0.51100000000E-03 0.  1.
         11   -1    0    0    0    0 -0.00000000000E+00 -0.00000000000E+00 -0.45593999997E+02  0.45594000000E+02  0.51100000000E-03 0. -1.
    9900012    2    1    2    0    0 -0.18779348003E+02 -0.14496688392E+02  0.33020324383E+02  0.50528933261E+02  0.30000223139E+02 0.  0.
         12    1    1    2    0    0  0.18779348003E+02  0.14496688392E+02 -0.33020324383E+02  0.40659066739E+02  0.00000000000E+00 0. -1.
         11    1    3    3    0    0  0.26874382196E+01 -0.12073811933E+02  0.24194165078E+02  0.27172723140E+02  0.51100000000E-03 0.  1.
        -11    1    3    3    0    0 -0.61572581196E+01 -0.86187687689E+00  0.21098859269E+01  0.65655371591E+01  0.51100000000E-03 0. -1.
        -12    1    3    3    0    0 -0.15309528103E+02 -0.15609995824E+01  0.67162733782E+01  0.16790672962E+02  0.00000000000E+00 0.  1.
</event>
<event>
 7    1  0.2432574E-011  0.5052885E+02  0.7816164E-02  0.1300439E+00
        -11   -1    0    0    0    0  0.00000000000E+00  0.00000000000E+00  0.45593999997E+02  0.45594000000E+02  0.51100000000E-03 0.  1.
         11   -1    0    0    0    0 -0.00000000000E+00 -0.00000000000E+00 -0.45593999997E+02  0.45594000000E+02  0.51100000000E-03 0. -1.
    9900012    2    1    2    0    0 -0.14091072703E+02  0.13887258313E+02  0.35521155497E+02  0.50528846526E+02  0.29999959500E+02 0.  0.
         12    1    1    2    0    0  0.14091072703E+02 -0.13887258313E+02 -0.35521155497E+02  0.40659153474E+02  0.00000000000E+00 0. -1.
         11    1    3    3    0    0 -0.63067762700E+01 -0.14484055703E+01  0.90975903534E+00  0.65345977213E+01  0.51100000000E-03 0. -1.
        -11    1    3    3    0    0  0.47714549631E+01 -0.11749760982E+01  0.19161037771E+01  0.52743535378E+01  0.51100000000E-03 0.  1.
        -12    1    3    3    0    0 -0.12555751396E+02  0.16510639982E+02  0.32695292685E+02  0.38719895267E+02  0.00000000000E+00 0.  1.
</event>
<event>
 7    1  0.2432574E-011  0.5052886E+02  0.7816164E-02  0.1300439E+00
        -11   -1    0    0    0    0  0.00000000000E+00  0.00000000000E+00  0.45593999997E+02  0.45594000000E+02  0.51100000000E-03 0.  1.
         11   -1    0    0    0    0 -0.00000000000E+00 -0.00000000000E+00 -0.45593999997E+02  0.45594000000E+02  0.51100000000E-03 0. -1.
    9900012    2    1    2    0    0 -0.26423079912E+02  0.28002519133E+02  0.13070782690E+02  0.50528860929E+02  0.30000003281E+02 0.  0.
         12    1    1    2    0    0  0.26423079912E+02 -0.28002519133E+02 -0.13070782690E+02  0.40659139071E+02  0.00000000000E+00 0. -1.
         11    1    3    3    0    0 -0.10366563611E+02  0.18472778793E+02  0.10712704058E+02  0.23737548861E+02  0.51100000000E-03 0. -1.
        -11    1    3    3    0    0 -0.17227518377E+02  0.13910880872E+02  0.16855470981E+01  0.22206779716E+02  0.51100000000E-03 0.  1.
         12    1    3    3    0    0  0.11710020751E+01 -0.43811405327E+01  0.67253153396E+00  0.45845323526E+01  0.00000000000E+00 0. -1.
</event>
<event>
 7    1  0.2432574E-011  0.5052886E+02  0.7816164E-02  0.1300439E+00
        -11   -1    0    0    0    0  0.00000000000E+00  0.00000000000E+00  0.45593999997E+02  0.45594000000E+02  0.51100000000E-03 0. -1.
         11   -1    0    0    0    0 -0.00000000000E+00 -0.00000000000E+00 -0.45593999997E+02  0.45594000000E+02  0.51100000000E-03 0.  1.
    9900012    2    1    2    0    0 -0.69760439013E+01  0.18789066023E+02 -0.35376142843E+02  0.50528859909E+02  0.30000000178E+02 0.  0.
         12    1    1    2    0    0  0.69760439013E+01 -0.18789066023E+02  0.35376142843E+02  0.40659140091E+02  0.00000000000E+00 0. -1.
         11    1    3    3    0    0 -0.28020406855E+01 -0.57476449886E+00  0.16697146540E+01  0.33120588037E+01  0.51100000000E-03 0. -1.
        -11    1    3    3    0    0  0.72715761362E+01  0.12761023124E+01 -0.60321345135E+01  0.95336720976E+01  0.51100000000E-03 0.  1.
        -12    1    3    3    0    0 -0.11445579352E+02  0.18087728210E+02 -0.31013722983E+02  0.37683129007E+02  0.00000000000E+00 0.  1.
</event>
<event>
 7    1  0.2432574E-011  0.5052885E+02  0.7816164E-02  0.1300439E+00
        -11   -1    0    0    0    0  0.00000000000E+00  0.00000000000E+00  0.45593999997E+02  0.45594000000E+02  0.51100000000E-03 0. -1.
         11   -1    0    0    0    0 -0.00000000000E+00 -0.00000000000E+00 -0.45593999997E+02  0.45594000000E+02  0.51100000000E-03 0.  1.
    9900012    2    1    2    0    0 -0.27713307459E+02 -0.10963633451E+02  0.27657505489E+02  0.50528852461E+02  0.29999977540E+02 0.  0.
         12    1    1    2    0    0  0.27713307459E+02  0.10963633451E+02 -0.27657505489E+02  0.40659147539E+02  0.00000000000E+00 0. -1.
         11    1    3    3    0    0 -0.13718160609E+01 -0.92184769591E+01  0.32359286736E+01  0.98657706943E+01  0.51100000000E-03 0. -1.
        -11    1    3    3    0    0  0.12751457466E+01  0.40432518438E+01  0.40294250973E+01  0.58489442657E+01  0.51100000000E-03 0.  1.
         12    1    3    3    0    0 -0.27616637144E+02 -0.57884083355E+01  0.20392151718E+02  0.34814137501E+02  0.00000000000E+00 0. -1.
</event>
<event>
 7    1  0.2432574E-011  0.5052886E+02  0.7816164E-02  0.1300439E+00
        -11   -1    0    0    0    0  0.00000000000E+00  0.00000000000E+00  0.45593999997E+02  0.45594000000E+02  0.51100000000E-03 0.  1.
         11   -1    0    0    0    0 -0.00000000000E+00 -0.00000000000E+00 -0.45593999997E+02  0.45594000000E+02  0.51100000000E-03 0. -1.
    9900012    2    1    2    0    0 -0.47777998713E+01 -0.35093647676E+02  0.19969327253E+02  0.50528861916E+02  0.30000006280E+02 0.  0.
         12    1    1    2    0    0  0.47777998713E+01  0.35093647676E+02 -0.19969327253E+02  0.40659138084E+02  0.00000000000E+00 0. -1.
         11    1    3    3    0    0  0.56137533732E+01 -0.11215715504E+02  0.15871013074E+01  0.12642206770E+02  0.51100000000E-03 0. -1.
        -11    1    3    3    0    0 -0.66707479576E+01 -0.19200007739E+01  0.13361097118E+02  0.15056699430E+02  0.51100000000E-03 0.  1.
         12    1    3    3    0    0 -0.37208052868E+01 -0.21957931398E+02  0.50211288278E+01  0.22829955715E+02  0.00000000000E+00 0. -1.
</event>
<event>
 7    1  0.2432574E-011  0.5052886E+02  0.7816164E-02  0.1300439E+00
        -11   -1    0    0    0    0  0.00000000000E+00  0.00000000000E+00  0.45593999997E+02  0.45594000000E+02  0.51100000000E-03 0. -1.
         11   -1    0    0    0    0 -0.00000000000E+00 -0.00000000000E+00 -0.45593999997E+02  0.45594000000E+02  0.51100000000E-03 0.  1.
    9900012    2    1    2    0    0  0.22765896425E+02  0.29619755284E+02 -0.16048364280E+02  0.50528856635E+02  0.29999990228E+02 0.  0.
         12    1    1    2    0    0 -0.22765896425E+02 -0.29619755284E+02  0.16048364280E+02  0.40659143365E+02  0.00000000000E+00 0. -1.
         11    1    3    3    0    0  0.59398047368E+00  0.15953343089E+02 -0.14813550908E+02  0.21778504523E+02  0.51100000000E-03 0. -1.
        -11    1    3    3    0    0  0.79551914010E+01  0.98464381736E+01 -0.49102362113E+01  0.13577475275E+02  0.51100000000E-03 0.  1.
         12    1    3    3    0    0  0.14216724550E+02  0.38199740216E+01  0.36754228395E+01  0.15172876837E+02  0.00000000000E+00 0. -1.
</event>
<event>
 7    1  0.2432574E-011  0.5052885E+02  0.7816164E-02  0.1300439E+00
        -11   -1    0    0    0    0  0.00000000000E+00  0.00000000000E+00  0.45593999997E+02  0.45594000000E+02  0.51100000000E-03 0.  1.
         11   -1    0    0    0    0 -0.00000000000E+00 -0.00000000000E+00 -0.45593999997E+02  0.45594000000E+02  0.51100000000E-03 0. -1.
    9900012    2    1    2    0    0 -0.61767836000E+01 -0.21787782658E+02  0.33768416757E+02  0.50528854669E+02  0.29999984251E+02 0.  0.
         12    1    1    2    0    0  0.61767836000E+01  0.21787782658E+02 -0.33768416757E+02  0.40659145331E+02  0.00000000000E+00 0. -1.
         11    1    3    3    0    0  0.52104766796E+01 -0.15147551841E+01  0.98471636735E+01  0.11243228325E+02  0.51100000000E-03 0. -1.
        -11    1    3    3    0    0  0.89322502269E+00 -0.18182992320E+02  0.10683246504E+02  0.21108074682E+02  0.51100000000E-03 0.  1.
         12    1    3    3    0    0 -0.12280485302E+02 -0.20900351534E+01  0.13238006580E+02  0.18177551662E+02  0.00000000000E+00 0. -1.
</event>
<event>
 7    1  0.2432574E-011  0.5052886E+02  0.7816164E-02  0.1300439E+00
        -11   -1    0    0    0    0  0.00000000000E+00  0.00000000000E+00  0.45593999997E+02  0.45594000000E+02  0.51100000000E-03 0.  1.
         11   -1    0    0    0    0 -0.00000000000E+00 -0.00000000000E+00 -0.45593999997E+02  0.45594000000E+02  0.51100000000E-03 0. -1.
    9900012    2    1    2    0    0  0.10890666089E+02 -0.32148754527E+02  0.22383403365E+02  0.50528858695E+02  0.29999996489E+02 0.  0.
         12    1    1    2    0    0 -0.10890666089E+02  0.32148754527E+02 -0.22383403365E+02  0.40659141305E+02  0.00000000000E+00 0. -1.
         11    1    3    3    0    0  0.31731097357E+01 -0.18458194056E+02  0.26695192477E+01  0.18918242162E+02  0.51100000000E-03 0.  1.
        -11    1    3    3    0    0  0.88956477707E+01 -0.37871804223E+01  0.17070183786E+00  0.96697685696E+01  0.51100000000E-03 0. -1.
         12    1    3    3    0    0 -0.11780914176E+01 -0.99033800484E+01  0.19543182279E+02  0.21940847964E+02  0.00000000000E+00 0. -1.
</event>
<event>
 7    1  0.2432574E-011  0.5052885E+02  0.7816164E-02  0.1300439E+00
        -11   -1    0    0    0    0  0.00000000000E+00  0.00000000000E+00  0.45593999997E+02  0.45594000000E+02  0.51100000000E-03 0.  1.
         11   -1    0    0    0    0 -0.00000000000E+00 -0.00000000000E+00 -0.45593999997E+02  0.45594000000E+02  0.51100000000E-03 0. -1.
    9900012    2    1    2    0    0  0.10878824046E+02 -0.22415990234E+02 -0.32130067567E+02  0.50528847615E+02  0.29999962812E+02 0.  0.
         12    1    1    2    0    0 -0.10878824046E+02  0.22415990234E+02  0.32130067567E+02  0.40659152385E+02  0.00000000000E+00 0. -1.
         11    1    3    3    0    0  0.57494141965E+01 -0.11853481754E+01 -0.88056576702E+01  0.10583025142E+02  0.51100000000E-03 0. -1.
        -11    1    3    3    0    0  0.10926459713E+02 -0.54258880502E+01 -0.18975553291E+02  0.22558798859E+02  0.51100000000E-03 0.  1.
        -12    1    3    3    0    0 -0.57970498632E+01 -0.15804754008E+02 -0.43488566055E+01  0.17387023614E+02  0.00000000000E+00 0.  1.
</event>
<event>
 7    1  0.2432574E-011  0.5052886E+02  0.7816164E-02  0.1300439E+00
        -11   -1    0    0    0    0  0.00000000000E+00  0.00000000000E+00  0.45593999997E+02  0.45594000000E+02  0.51100000000E-03 0.  1.
         11   -1    0    0    0    0 -0.00000000000E+00 -0.00000000000E+00 -0.45593999997E+02  0.45594000000E+02  0.51100000000E-03 0. -1.
    9900012    2    1    2    0    0 -0.28335046648E+02 -0.29041133738E+02  0.26274460120E+01  0.50528858471E+02  0.29999995808E+02 0.  0.
         12    1    1    2    0    0  0.28335046648E+02  0.29041133738E+02 -0.26274460120E+01  0.40659141529E+02  0.00000000000E+00 0. -1.
         11    1    3    3    0    0 -0.20849819186E+01 -0.54511391205E+01 -0.24018994015E+01  0.63111954738E+01  0.51100000000E-03 0.  1.
        -11    1    3    3    0    0 -0.20821644275E+02 -0.26336317446E+02 -0.34848966850E+01  0.33753325645E+02  0.51100000000E-03 0. -1.
         12    1    3    3    0    0 -0.54284204547E+01  0.27463228286E+01  0.85142420985E+01  0.10464337352E+02  0.00000000000E+00 0. -1.
</event>
<event>
 7    1  0.2432574E-011  0.5052886E+02  0.7816164E-02  0.1300439E+00
        -11   -1    0    0    0    0  0.00000000000E+00  0.00000000000E+00  0.45593999997E+02  0.45594000000E+02  0.51100000000E-03 0.  1.
         11   -1    0    0    0    0 -0.00000000000E+00 -0.00000000000E+00 -0.45593999997E+02  0.45594000000E+02  0.51100000000E-03 0. -1.
    9900012    2    1    2    0    0  0.29776419349E+02 -0.24309881756E+02  0.13249913684E+02  0.50528859418E+02  0.29999998688E+02 0.  0.
         12    1    1    2    0    0 -0.29776419349E+02  0.24309881756E+02 -0.13249913684E+02  0.40659140582E+02  0.00000000000E+00 0. -1.
         11    1    3    3    0    0 -0.14416091348E+01 -0.71144552683E+01 -0.57917550971E+01  0.92864491614E+01  0.51100000000E-03 0. -1.
        -11    1    3    3    0    0  0.20087143344E+02 -0.10181490661E+02  0.74861983405E+01  0.23731819266E+02  0.51100000000E-03 0.  1.
        -12    1    3    3    0    0  0.11130885139E+02 -0.70139358269E+01  0.11555470440E+02  0.17510590991E+02  0.00000000000E+00 0.  1.
</event>
<event>
 7    1  0.2432574E-011  0.5052881E+02  0.7816164E-02  0.1300439E+00
        -11   -1    0    0    0    0  0.00000000000E+00  0.00000000000E+00  0.45593999997E+02  0.45594000000E+02  0.51100000000E-03 0.  1.
         11   -1    0    0    0    0 -0.00000000000E+00 -0.00000000000E+00 -0.45593999997E+02  0.45594000000E+02  0.51100000000E-03 0. -1.
    9900012    2    1    2    0    0 -0.23231985059E+02  0.24646138384E+02  0.22494729213E+02  0.50528805352E+02  0.29999834349E+02 0.  0.
         12    1    1    2    0    0  0.23231985059E+02 -0.24646138384E+02 -0.22494729213E+02  0.40659194648E+02  0.00000000000E+00 0. -1.
         11    1    3    3    0    0 -0.62034692158E+01  0.62492141147E+01  0.32169326232E+01  0.93746660275E+01  0.51100000000E-03 0. -1.
        -11    1    3    3    0    0 -0.19584207176E+02  0.23131920092E+02  0.13262681388E+02  0.33083615517E+02  0.51100000000E-03 0.  1.
        -12    1    3    3    0    0  0.25556913323E+01 -0.47349958232E+01  0.60151152023E+01  0.80705238076E+01  0.00000000000E+00 0.  1.
</event>
<event>
 7    1  0.2432574E-011  0.5052886E+02  0.7816164E-02  0.1300439E+00
        -11   -1    0    0    0    0  0.00000000000E+00  0.00000000000E+00  0.45593999997E+02  0.45594000000E+02  0.51100000000E-03 0. -1.
         11   -1    0    0    0    0 -0.00000000000E+00 -0.00000000000E+00 -0.45593999997E+02  0.45594000000E+02  0.51100000000E-03 0.  1.
    9900012    2    1    2    0    0  0.26744413817E+01  0.53354005982E+01 -0.40218734609E+02  0.50528858964E+02  0.29999997306E+02 0.  0.
         12    1    1    2    0    0 -0.26744413817E+01 -0.53354005982E+01  0.40218734609E+02  0.40659141036E+02  0.00000000000E+00 0. -1.
         11    1    3    3    0    0  0.56715388585E+01  0.11927446873E+01 -0.78021763054E+01  0.97192051256E+01  0.51100000000E-03 0. -1.
        -11    1    3    3    0    0 -0.32973253419E+01 -0.36164792020E+01 -0.32675917433E+02  0.33040382210E+02  0.51100000000E-03 0.  1.
        -12    1    3    3    0    0  0.30022786517E+00  0.77591351128E+01  0.25935912950E+00  0.77692716279E+01  0.00000000000E+00 0.  1.
</event>
<event>
 7    1  0.2432574E-011  0.5052885E+02  0.7816164E-02  0.1300439E+00
        -11   -1    0    0    0    0  0.00000000000E+00  0.00000000000E+00  0.45593999997E+02  0.45594000000E+02  0.51100000000E-03 0.  1.
         11   -1    0    0    0    0 -0.00000000000E+00 -0.00000000000E+00 -0.45593999997E+02  0.45594000000E+02  0.51100000000E-03 0. -1.
    9900012    2    1    2    0    0 -0.13950479810E+02  0.38190099510E+02  0.25797141522E+00  0.50528854205E+02  0.29999982843E+02 0.  0.
         12    1    1    2    0    0  0.13950479810E+02 -0.38190099510E+02 -0.25797141522E+00  0.40659145795E+02  0.00000000000E+00 0. -1.
         11    1    3    3    0    0 -0.17865298705E+00  0.15228700918E+02 -0.72706760747E+01  0.16876254898E+02  0.51100000000E-03 0. -1.
        -11    1    3    3    0    0 -0.98537533359E+01  0.11245896222E+02 -0.52804523397E+01  0.15857169161E+02  0.51100000000E-03 0.  1.
         12    1    3    3    0    0 -0.39180734872E+01  0.11715502370E+02  0.12809099830E+02  0.17795430146E+02  0.00000000000E+00 0. -1.
</event>
<event>
 7    1  0.2432574E-011  0.5052886E+02  0.7816164E-02  0.1300439E+00
        -11   -1    0    0    0    0  0.00000000000E+00  0.00000000000E+00  0.45593999997E+02  0.45594000000E+02  0.51100000000E-03 0.  1.
         11   -1    0    0    0    0 -0.00000000000E+00 -0.00000000000E+00 -0.45593999997E+02  0.45594000000E+02  0.51100000000E-03 0. -1.
    9900012    2    1    2    0    0  0.90831603867E+01  0.35978961109E+02 -0.16618545919E+02  0.50528861869E+02  0.30000006138E+02 0.  0.
         12    1    1    2    0    0 -0.90831603867E+01 -0.35978961109E+02  0.16618545919E+02  0.40659138131E+02  0.00000000000E+00 0. -1.
         11    1    3    3    0    0  0.41381356077E+01  0.66068347694E+01  0.13287585310E+01  0.79082255578E+01  0.51100000000E-03 0. -1.
        -11    1    3    3    0    0 -0.24275961937E+01  0.31002891305E+02 -0.14803532374E+02  0.34441502051E+02  0.51100000000E-03 0.  1.
         12    1    3    3    0    0  0.73726209726E+01 -0.16307649656E+01 -0.31437720762E+01  0.81791342602E+01  0.00000000000E+00 0. -1.
</event>
<event>
 7    1  0.2432574E-011  0.5052886E+02  0.7816164E-02  0.1300439E+00
        -11   -1    0    0    0    0  0.00000000000E+00  0.00000000000E+00  0.45593999997E+02  0.45594000000E+02  0.51100000000E-03 0.  1.
         11   -1    0    0    0    0 -0.00000000000E+00 -0.00000000000E+00 -0.45593999997E+02  0.45594000000E+02  0.51100000000E-03 0. -1.
    9900012    2    1    2    0    0 -0.18253329591E+02  0.28164977078E+02  0.22950288841E+02  0.50528859172E+02  0.29999997939E+02 0.  0.
         12    1    1    2    0    0  0.18253329591E+02 -0.28164977078E+02 -0.22950288841E+02  0.40659140828E+02  0.00000000000E+00 0. -1.
         11    1    3    3    0    0  0.31784806225E+01  0.65202913446E+01  0.42660873354E+01  0.84152504242E+01  0.51100000000E-03 0. -1.
        -11    1    3    3    0    0 -0.70019692534E+00 -0.32092811710E+01  0.69492309913E+01  0.76864538638E+01  0.51100000000E-03 0.  1.
        -12    1    3    3    0    0 -0.20731613288E+02  0.24853966905E+02  0.11734970514E+02  0.34427154884E+02  0.00000000000E+00 0.  1.
</event>
<event>
 7    1  0.2432574E-011  0.5052886E+02  0.7816164E-02  0.1300439E+00
        -11   -1    0    0    0    0  0.00000000000E+00  0.00000000000E+00  0.45593999997E+02  0.45594000000E+02  0.51100000000E-03 0.  1.
         11   -1    0    0    0    0 -0.00000000000E+00 -0.00000000000E+00 -0.45593999997E+02  0.45594000000E+02  0.51100000000E-03 0. -1.
    9900012    2    1    2    0    0  0.38687143351E+01 -0.35067384684E+02 -0.20210819933E+02  0.50528860049E+02  0.30000000606E+02 0.  0.
         12    1    1    2    0    0 -0.38687143351E+01  0.35067384684E+02  0.20210819933E+02  0.40659139951E+02  0.00000000000E+00 0. -1.
         11    1    3    3    0    0  0.41284946338E+01 -0.13525475180E+02 -0.14346689352E+02  0.20144737338E+02  0.51100000000E-03 0. -1.
        -11    1    3    3    0    0 -0.17585850223E+01  0.24546223043E+01 -0.55736956298E+01  0.63390752616E+01  0.51100000000E-03 0.  1.
        -12    1    3    3    0    0  0.14988047236E+01 -0.23996531808E+02 -0.29043495113E+00  0.24045047450E+02  0.00000000000E+00 0.  1.
</event>
<event>
 7    1  0.2432574E-011  0.5052886E+02  0.7816164E-02  0.1300439E+00
        -11   -1    0    0    0    0  0.00000000000E+00  0.00000000000E+00  0.45593999997E+02  0.45594000000E+02  0.51100000000E-03 0. -1.
         11   -1    0    0    0    0 -0.00000000000E+00 -0.00000000000E+00 -0.45593999997E+02  0.45594000000E+02  0.51100000000E-03 0.  1.
    9900012    2    1    2    0    0 -0.30921390523E+02 -0.20852490713E+02 -0.16192794882E+02  0.50528863673E+02  0.30000011620E+02 0.  0.
         12    1    1    2    0    0  0.30921390523E+02  0.20852490713E+02  0.16192794882E+02  0.40659136327E+02  0.00000000000E+00 0. -1.
         11    1    3    3    0    0  0.36714938990E+00  0.25598627663E+01  0.18842467365E+01  0.31997003113E+01  0.51100000000E-03 0. -1.
        -11    1    3    3    0    0 -0.21043785604E+02 -0.16002889298E+02 -0.21671672102E+02  0.34184715157E+02  0.51100000000E-03 0.  1.
         12    1    3    3    0    0 -0.10244754309E+02 -0.74094641811E+01  0.35946304834E+01  0.13144448205E+02  0.00000000000E+00 0. -1.
</event>
<event>
 7    1  0.2432574E-011  0.5052886E+02  0.7816164E-02  0.1300439E+00
        -11   -1    0    0    0    0  0.00000000000E+00  0.00000000000E+00  0.45593999997E+02  0.45594000000E+02  0.51100000000E-03 0.  1.
         11   -1    0    0    0    0 -0.00000000000E+00 -0.00000000000E+00 -0.45593999997E+02  0.45594000000E+02  0.51100000000E-03 0. -1.
    9900012    2    1    2    0    0 -0.32845516078E+02  0.10952420126E+02  0.21316235581E+02  0.50528864097E+02  0.30000012908E+02 0.  0.
         12    1    1    2    0    0  0.32845516078E+02 -0.10952420126E+02 -0.21316235581E+02  0.40659135903E+02  0.00000000000E+00 0. -1.
         11    1    3    3    0    0 -0.82424396124E+00  0.84408458427E+01  0.48332707367E+01  0.97615451094E+01  0.51100000000E-03 0. -1.
        -11    1    3    3    0    0 -0.16548310399E+01 -0.44847609710E+01  0.64534324397E+01  0.80310856833E+01  0.51100000000E-03 0.  1.
        -12    1    3    3    0    0 -0.30366441077E+02  0.69963352541E+01  0.10029532405E+02  0.32736233304E+02  0.00000000000E+00 0.  1.
</event>
<event>
 7    1  0.2432574E-011  0.5052885E+02  0.7816164E-02  0.1300439E+00
        -11   -1    0    0    0    0  0.00000000000E+00  0.00000000000E+00  0.45593999997E+02  0.45594000000E+02  0.51100000000E-03 0.  1.
         11   -1    0    0    0    0 -0.00000000000E+00 -0.00000000000E+00 -0.45593999997E+02  0.45594000000E+02  0.51100000000E-03 0. -1.
    9900012    2    1    2    0    0 -0.23720264391E+02  0.24866080332E+02  0.21730017401E+02  0.50528849122E+02  0.29999967392E+02 0.  0.
         12    1    1    2    0    0  0.23720264391E+02 -0.24866080332E+02 -0.21730017401E+02  0.40659150878E+02  0.00000000000E+00 0. -1.
         11    1    3    3    0    0 -0.35909616570E+01  0.99299515878E+01  0.18501697461E+02  0.21302857868E+02  0.51100000000E-03 0. -1.
        -11    1    3    3    0    0 -0.67751260546E+01 -0.22703049205E+01 -0.34730003048E+00  0.71538266026E+01  0.51100000000E-03 0.  1.
        -12    1    3    3    0    0 -0.13354176679E+02  0.17206433664E+02  0.35756199707E+01  0.22072164651E+02  0.00000000000E+00 0.  1.
</event>
<event>
 7    1  0.2432574E-011  0.5052885E+02  0.7816164E-02  0.1300439E+00
        -11   -1    0    0    0    0  0.00000000000E+00  0.00000000000E+00  0.45593999997E+02  0.45594000000E+02  0.51100000000E-03 0. -1.
         11   -1    0    0    0    0 -0.00000000000E+00 -0.00000000000E+00 -0.45593999997E+02  0.45594000000E+02  0.51100000000E-03 0.  1.
    9900012    2    1    2    0    0 -0.35783092654E+02 -0.53131758457E+01 -0.18560891420E+02  0.50528852840E+02  0.29999978693E+02 0.  0.
         12    1    1    2    0    0  0.35783092654E+02  0.53131758457E+01  0.18560891420E+02  0.40659147160E+02  0.00000000000E+00 0. -1.
         11    1    3    3    0    0  0.42318977896E+00  0.40111237339E+01 -0.24497368944E+01  0.47190480302E+01  0.51100000000E-03 0. -1.
        -11    1    3    3    0    0 -0.85398111880E+01 -0.11836528303E+02 -0.22655814898E+01  0.14770397325E+02  0.51100000000E-03 0.  1.
        -12    1    3    3    0    0 -0.27666471245E+02  0.25122287238E+01 -0.13845573036E+02  0.31039407485E+02  0.00000000000E+00 0.  1.
</event>
<event>
 7    1  0.2432574E-011  0.5052886E+02  0.7816164E-02  0.1300439E+00
        -11   -1    0    0    0    0  0.00000000000E+00  0.00000000000E+00  0.45593999997E+02  0.45594000000E+02  0.51100000000E-03 0.  1.
         11   -1    0    0    0    0 -0.00000000000E+00 -0.00000000000E+00 -0.45593999997E+02  0.45594000000E+02  0.51100000000E-03 0. -1.
    9900012    2    1    2    0    0  0.23448480701E+02  0.28372537022E+02  0.17272345540E+02  0.50528855583E+02  0.29999987030E+02 0.  0.
         12    1    1    2    0    0 -0.23448480701E+02 -0.28372537022E+02 -0.17272345540E+02  0.40659144417E+02  0.00000000000E+00 0. -1.
         11    1    3    3    0    0  0.45225058818E+01 -0.68470732209E+00 -0.33503428097E+01  0.56698042974E+01  0.51100000000E-03 0. -1.
        -11    1    3    3    0    0  0.23879008690E+01  0.16824063277E+02  0.19984326404E+01  0.17109789858E+02  0.51100000000E-03 0.  1.
        -12    1    3    3    0    0  0.16538073950E+02  0.12233181067E+02  0.18624255710E+02  0.27749261427E+02  0.00000000000E+00 0.  1.
</event>
<event>
 7    1  0.2432574E-011  0.5052886E+02  0.7816164E-02  0.1300439E+00
        -11   -1    0    0    0    0  0.00000000000E+00  0.00000000000E+00  0.45593999997E+02  0.45594000000E+02  0.51100000000E-03 0.  1.
         11   -1    0    0    0    0 -0.00000000000E+00 -0.00000000000E+00 -0.45593999997E+02  0.45594000000E+02  0.51100000000E-03 0. -1.
    9900012    2    1    2    0    0 -0.26193586905E+02 -0.25873624114E+02  0.17251593020E+02  0.50528857344E+02  0.29999992383E+02 0.  0.
         12    1    1    2    0    0  0.26193586905E+02  0.25873624114E+02 -0.17251593020E+02  0.40659142656E+02  0.00000000000E+00 0. -1.
         11    1    3    3    0    0 -0.15830589776E+02 -0.56029837697E+01 -0.30467438497E+01  0.17067033958E+02  0.51100000000E-03 0. -1.
        -11    1    3    3    0    0 -0.90953989335E+01 -0.37044976614E+01  0.93812771584E+01  0.13581529592E+02  0.51100000000E-03 0.  1.
         12    1    3    3    0    0 -0.12675981958E+01 -0.16566142683E+02  0.10917059712E+02  0.19880293794E+02  0.00000000000E+00 0. -1.
</event>
<event>
 7    1  0.2432574E-011  0.5052885E+02  0.7816164E-02  0.1300439E+00
        -11   -1    0    0    0    0  0.00000000000E+00  0.00000000000E+00  0.45593999997E+02  0.45594000000E+02  0.51100000000E-03 0. -1.
         11   -1    0    0    0    0 -0.00000000000E+00 -0.00000000000E+00 -0.45593999997E+02  0.45594000000E+02  0.51100000000E-03 0.  1.
    9900012    2    1    2    0    0  0.19346433210E+02  0.36799855134E+01 -0.35571609822E+02  0.50528853469E+02  0.29999980604E+02 0.  0.
         12    1    1    2    0    0 -0.19346433210E+02 -0.36799855134E+01  0.35571609822E+02  0.40659146531E+02  0.00000000000E+00 0. -1.
         11    1    3    3    0    0  0.12658581146E+01  0.56067940137E+01 -0.74727558041E+01  0.94276516401E+01  0.51100000000E-03 0. -1.
        -11    1    3    3    0    0  0.11248978012E+02  0.10696106035E+02 -0.16434586817E+02  0.22606234422E+02  0.51100000000E-03 0.  1.
         12    1    3    3    0    0  0.68315970836E+01 -0.12622914535E+02 -0.11664267200E+02  0.18494967407E+02  0.00000000000E+00 0. -1.
</event>
<event>
 7    1  0.2432574E-011  0.5052886E+02  0.7816164E-02  0.1300439E+00
        -11   -1    0    0    0    0  0.00000000000E+00  0.00000000000E+00  0.45593999997E+02  0.45594000000E+02  0.51100000000E-03 0.  1.
         11   -1    0    0    0    0 -0.00000000000E+00 -0.00000000000E+00 -0.45593999997E+02  0.45594000000E+02  0.51100000000E-03 0. -1.
    9900012    2    1    2    0    0 -0.40183144062E+02 -0.23917454157E+01 -0.57236361518E+01  0.50528861745E+02  0.30000005762E+02 0.  0.
         12    1    1    2    0    0  0.40183144062E+02  0.23917454157E+01  0.57236361518E+01  0.40659138255E+02  0.00000000000E+00 0. -1.
         11    1    3    3    0    0 -0.13820596942E+01  0.54337538084E+01 -0.40683968055E+01  0.69273098875E+01  0.51100000000E-03 0. -1.
        -11    1    3    3    0    0 -0.16382931675E+02 -0.59490162966E+01 -0.94079819052E+01  0.19806599126E+02  0.51100000000E-03 0.  1.
         12    1    3    3    0    0 -0.22418152692E+02 -0.18764829274E+01  0.77527425589E+01  0.23794952732E+02  0.00000000000E+00 0. -1.
</event>
<event>
 7    1  0.2432574E-011  0.5052888E+02  0.7816164E-02  0.1300439E+00
        -11   -1    0    0    0    0  0.00000000000E+00  0.00000000000E+00  0.45593999997E+02  0.45594000000E+02  0.51100000000E-03 0.  1.
         11   -1    0    0    0    0 -0.00000000000E+00 -0.00000000000E+00 -0.45593999997E+02  0.45594000000E+02  0.51100000000E-03 0. -1.
    9900012    2    1    2    0    0  0.34987427742E+02 -0.19531103868E+02  0.68978037922E+01  0.50528882751E+02  0.30000069609E+02 0.  0.
         12    1    1    2    0    0 -0.34987427742E+02  0.19531103868E+02 -0.68978037922E+01  0.40659117249E+02  0.00000000000E+00 0. -1.
         11    1    3    3    0    0  0.82886724876E+01 -0.12865654745E+02  0.29270557893E+00  0.15307280635E+02  0.51100000000E-03 0. -1.
        -11    1    3    3    0    0  0.21324890804E+02 -0.52897947608E+01  0.13943756713E+02  0.26022322109E+02  0.51100000000E-03 0.  1.
         12    1    3    3    0    0  0.53738644505E+01 -0.13756543624E+01 -0.73386584997E+01  0.91992800062E+01  0.00000000000E+00 0. -1.
</event>
<event>
 7    1  0.2432574E-011  0.5052886E+02  0.7816164E-02  0.1300439E+00
        -11   -1    0    0    0    0  0.00000000000E+00  0.00000000000E+00  0.45593999997E+02  0.45594000000E+02  0.51100000000E-03 0.  1.
         11   -1    0    0    0    0 -0.00000000000E+00 -0.00000000000E+00 -0.45593999997E+02  0.45594000000E+02  0.51100000000E-03 0. -1.
    9900012    2    1    2    0    0  0.29775641396E+02  0.61437155861E+01  0.26996875724E+02  0.50528863750E+02  0.30000011854E+02 0.  0.
         12    1    1    2    0    0 -0.29775641396E+02 -0.61437155861E+01 -0.26996875724E+02  0.40659136250E+02  0.00000000000E+00 0. -1.
         11    1    3    3    0    0  0.65204050475E+01  0.98332661161E+01  0.99479436820E+01  0.15432769948E+02  0.51100000000E-03 0. -1.
        -11    1    3    3    0    0  0.43071254298E+01  0.71609116540E+01  0.76317824114E+01  0.11316982293E+02  0.51100000000E-03 0.  1.
         12    1    3    3    0    0  0.18948110919E+02 -0.10850462184E+02  0.94171496307E+01  0.23779111509E+02  0.00000000000E+00 0. -1.
</event>
<event>
 7    1  0.2432574E-011  0.5052888E+02  0.7816164E-02  0.1300439E+00
        -11   -1    0    0    0    0  0.00000000000E+00  0.00000000000E+00  0.45593999997E+02  0.45594000000E+02  0.51100000000E-03 0.  1.
         11   -1    0    0    0    0 -0.00000000000E+00 -0.00000000000E+00 -0.45593999997E+02  0.45594000000E+02  0.51100000000E-03 0. -1.
    9900012    2    1    2    0    0 -0.10446279046E+02  0.50760027867E+01  0.38965032117E+02  0.50528877062E+02  0.30000052317E+02 0.  0.
         12    1    1    2    0    0  0.10446279046E+02 -0.50760027867E+01 -0.38965032117E+02  0.40659122938E+02  0.00000000000E+00 0. -1.
         11    1    3    3    0    0 -0.10476280067E+01 -0.21790085028E-01 -0.20136159732E+01  0.22699446682E+01  0.51100000000E-03 0. -1.
        -11    1    3    3    0    0 -0.11631626104E+02  0.10283034829E+02  0.14699347124E+02  0.21380045305E+02  0.51100000000E-03 0.  1.
        -12    1    3    3    0    0  0.22329750644E+01 -0.51852419576E+01  0.26279300967E+02  0.26878887088E+02  0.00000000000E+00 0.  1.
</event>
<event>
 7    1  0.2432574E-011  0.5052899E+02  0.7816164E-02  0.1300438E+00
        -11   -1    0    0    0    0  0.00000000000E+00  0.00000000000E+00  0.45593999997E+02  0.45594000000E+02  0.51100000000E-03 0.  1.
         11   -1    0    0    0    0 -0.00000000000E+00 -0.00000000000E+00 -0.45593999997E+02  0.45594000000E+02  0.51100000000E-03 0. -1.
    9900012    2    1    2    0    0  0.34571013369E+02  0.13225258717E+02  0.16825354202E+02  0.50528991435E+02  0.30000399963E+02 0.  0.
         12    1    1    2    0    0 -0.34571013369E+02 -0.13225258717E+02 -0.16825354202E+02  0.40659008565E+02  0.00000000000E+00 0. -1.
         11    1    3    3    0    0 -0.28289760447E+01  0.60504218136E+00  0.12392715158E+01  0.31472171285E+01  0.51100000000E-03 0. -1.
        -11    1    3    3    0    0  0.11681311151E+02  0.66405997299E+01  0.16102084367E+02  0.20972069908E+02  0.51100000000E-03 0.  1.
         12    1    3    3    0    0  0.25718678262E+02  0.59796168056E+01 -0.51600168070E+00  0.26409704399E+02  0.00000000000E+00 0. -1.
</event>
<event>
 7    1  0.2432574E-011  0.5052886E+02  0.7816164E-02  0.1300439E+00
        -11   -1    0    0    0    0  0.00000000000E+00  0.00000000000E+00  0.45593999997E+02  0.45594000000E+02  0.51100000000E-03 0. -1.
         11   -1    0    0    0    0 -0.00000000000E+00 -0.00000000000E+00 -0.45593999997E+02  0.45594000000E+02  0.51100000000E-03 0.  1.
    9900012    2    1    2    0    0 -0.37185527184E+02  0.12056163837E+02  0.11182625589E+02  0.50528860394E+02  0.30000001654E+02 0.  0.
         12    1    1    2    0    0  0.37185527184E+02 -0.12056163837E+02 -0.11182625589E+02  0.40659139606E+02  0.00000000000E+00 0. -1.
         11    1    3    3    0    0 -0.10437088619E+02  0.95259765850E+01  0.12658209952E+02  0.18971223688E+02  0.51100000000E-03 0. -1.
        -11    1    3    3    0    0 -0.22017659801E+02  0.51013084553E+01  0.49884413065E+01  0.23144874983E+02  0.51100000000E-03 0.  1.
        -12    1    3    3    0    0 -0.47307787642E+01 -0.25711212037E+01 -0.64640256695E+01  0.84127617234E+01  0.00000000000E+00 0.  1.
</event>
<event>
 7    1  0.2432574E-011  0.5052888E+02  0.7816164E-02  0.1300439E+00
        -11   -1    0    0    0    0  0.00000000000E+00  0.00000000000E+00  0.45593999997E+02  0.45594000000E+02  0.51100000000E-03 0.  1.
         11   -1    0    0    0    0 -0.00000000000E+00 -0.00000000000E+00 -0.45593999997E+02  0.45594000000E+02  0.51100000000E-03 0. -1.
    9900012    2    1    2    0    0  0.28984654855E+02  0.25105001593E+02  0.13520076986E+02  0.50528882895E+02  0.30000070048E+02 0.  0.
         12    1    1    2    0    0 -0.28984654855E+02 -0.25105001593E+02 -0.13520076986E+02  0.40659117105E+02  0.00000000000E+00 0. -1.
         11    1    3    3    0    0  0.11047558251E+02 -0.54010760141E+01  0.28390501354E+01  0.12620632764E+02  0.51100000000E-03 0. -1.
        -11    1    3    3    0    0  0.28572722794E+01  0.11119900111E+02  0.10582291010E+01  0.11529788916E+02  0.51100000000E-03 0.  1.
        -12    1    3    3    0    0  0.15079824325E+02  0.19386177496E+02  0.96227977499E+01  0.26378461216E+02  0.00000000000E+00 0.  1.
</event>
<event>
 7    1  0.2432574E-011  0.5052887E+02  0.7816164E-02  0.1300439E+00
        -11   -1    0    0    0    0  0.00000000000E+00  0.00000000000E+00  0.45593999997E+02  0.45594000000E+02  0.51100000000E-03 0. -1.
         11   -1    0    0    0    0 -0.00000000000E+00 -0.00000000000E+00 -0.45593999997E+02  0.45594000000E+02  0.51100000000E-03 0.  1.
    9900012    2    1    2    0    0  0.26593546890E+01  0.15053360442E+02 -0.37676111410E+02  0.50528865738E+02  0.30000017896E+02 0.  0.
         12    1    1    2    0    0 -0.26593546890E+01 -0.15053360442E+02  0.37676111410E+02  0.40659134262E+02  0.00000000000E+00 0. -1.
         11    1    3    3    0    0  0.24321656290E+01  0.15557903224E+02 -0.11209085907E+02  0.19328926237E+02  0.51100000000E-03 0. -1.
        -11    1    3    3    0    0  0.75741545176E+01 -0.83211303947E+00 -0.20015854725E+02  0.21417158295E+02  0.51100000000E-03 0.  1.
        -12    1    3    3    0    0 -0.73469654576E+01  0.32757025773E+00 -0.64511707786E+01  0.97827812060E+01  0.00000000000E+00 0.  1.
</event>
<event>
 7    1  0.2432574E-011  0.5052886E+02  0.7816164E-02  0.1300439E+00
        -11   -1    0    0    0    0  0.00000000000E+00  0.00000000000E+00  0.45593999997E+02  0.45594000000E+02  0.51100000000E-03 0.  1.
         11   -1    0    0    0    0 -0.00000000000E+00 -0.00000000000E+00 -0.45593999997E+02  0.45594000000E+02  0.51100000000E-03 0. -1.
    9900012    2    1    2    0    0  0.92643866812E+01 -0.18360880090E+02  0.35074424119E+02  0.50528855819E+02  0.29999987746E+02 0.  0.
         12    1    1    2    0    0 -0.92643866812E+01  0.18360880090E+02 -0.35074424119E+02  0.40659144181E+02  0.00000000000E+00 0. -1.
         11    1    3    3    0    0 -0.40931891147E+01 -0.45799695321E+01  0.10849721592E+02  0.12467829680E+02  0.51100000000E-03 0. -1.
        -11    1    3    3    0    0  0.45642641596E+01  0.59563180683E+01  0.84941671033E+01  0.11334068435E+02  0.51100000000E-03 0.  1.
        -12    1    3    3    0    0  0.87933116363E+01 -0.19737228626E+02  0.15730535425E+02  0.26726957704E+02  0.00000000000E+00 0.  1.
</event>
<event>
 7    1  0.2432574E-011  0.5052886E+02  0.7816164E-02  0.1300439E+00
        -11   -1    0    0    0    0  0.00000000000E+00  0.00000000000E+00  0.45593999997E+02  0.45594000000E+02  0.51100000000E-03 0.  1.
         11   -1    0    0    0    0 -0.00000000000E+00 -0.00000000000E+00 -0.45593999997E+02  0.45594000000E+02  0.51100000000E-03 0. -1.
    9900012    2    1    2    0    0  0.22810669283E+02  0.10673219554E+02  0.31920546711E+02  0.50528861407E+02  0.30000004732E+02 0.  0.
         12    1    1    2    0    0 -0.22810669283E+02 -0.10673219554E+02 -0.31920546711E+02  0.40659138593E+02  0.00000000000E+00 0. -1.
         11    1    3    3    0    0  0.61789756805E+01  0.12163528240E+01 -0.91152258644E-01  0.62982190854E+01  0.51100000000E-03 0. -1.
        -11    1    3    3    0    0  0.22596427954E+02  0.54446209382E+01  0.22953319069E+02  0.32666455424E+02  0.51100000000E-03 0.  1.
        -12    1    3    3    0    0 -0.59647343510E+01  0.40122457913E+01  0.90583799008E+01  0.11564186897E+02  0.00000000000E+00 0.  1.
</event>
<event>
 7    1  0.2432574E-011  0.5052887E+02  0.7816164E-02  0.1300439E+00
        -11   -1    0    0    0    0  0.00000000000E+00  0.00000000000E+00  0.45593999997E+02  0.45594000000E+02  0.51100000000E-03 0.  1.
         11   -1    0    0    0    0 -0.00000000000E+00 -0.00000000000E+00 -0.45593999997E+02  0.45594000000E+02  0.51100000000E-03 0. -1.
    9900012    2    1    2    0    0  0.91773832177E+01  0.37666390060E+02  0.12254935358E+02  0.50528871338E+02  0.30000034920E+02 0.  0.
         12    1    1    2    0    0 -0.91773832177E+01 -0.37666390060E+02 -0.12254935358E+02  0.40659128662E+02  0.00000000000E+00 0. -1.
         11    1    3    3    0    0 -0.13696087272E+01  0.12105487392E+01  0.90894315045E+01  0.92714088277E+01  0.51100000000E-03 0. -1.
        -11    1    3    3    0    0 -0.70556305546E+00  0.11052313081E+01 -0.33444317583E+01  0.35922944640E+01  0.51100000000E-03 0.  1.
        -12    1    3    3    0    0  0.11252555000E+02  0.35350610013E+02  0.65099356116E+01  0.37665168047E+02  0.00000000000E+00 0.  1.
</event>
<event>
 7    1  0.2432574E-011  0.5052886E+02  0.7816164E-02  0.1300439E+00
        -11   -1    0    0    0    0  0.00000000000E+00  0.00000000000E+00  0.45593999997E+02  0.45594000000E+02  0.51100000000E-03 0.  1.
         11   -1    0    0    0    0 -0.00000000000E+00 -0.00000000000E+00 -0.45593999997E+02  0.45594000000E+02  0.51100000000E-03 0. -1.
    9900012    2    1    2    0    0  0.79084335419E+01  0.89236839866E+01  0.38871457055E+02  0.50528860430E+02  0.30000001763E+02 0.  0.
         12    1    1    2    0    0 -0.79084335419E+01 -0.89236839866E+01 -0.38871457055E+02  0.40659139570E+02  0.00000000000E+00 0. -1.
         11    1    3    3    0    0  0.34507936686E+01  0.39808222107E+00 -0.35639684575E+01  0.49767778557E+01  0.51100000000E-03 0. -1.
        -11    1    3    3    0    0  0.30517386714E+01 -0.30141590872E+01  0.65398175857E+01  0.78209640223E+01  0.51100000000E-03 0.  1.
        -12    1    3    3    0    0  0.14059012019E+01  0.11539760853E+02  0.35895607927E+02  0.37731118552E+02  0.00000000000E+00 0.  1.
</event>
<event>
 7    1  0.2432574E-011  0.5052886E+02  0.7816164E-02  0.1300439E+00
        -11   -1    0    0    0    0  0.00000000000E+00  0.00000000000E+00  0.45593999997E+02  0.45594000000E+02  0.51100000000E-03 0. -1.
         11   -1    0    0    0    0 -0.00000000000E+00 -0.00000000000E+00 -0.45593999997E+02  0.45594000000E+02  0.51100000000E-03 0.  1.
    9900012    2    1    2    0    0  0.10848974046E+01 -0.87498802940E+01 -0.39691666151E+02  0.50528858723E+02  0.29999996576E+02 0.  0.
         12    1    1    2    0    0 -0.10848974046E+01  0.87498802940E+01  0.39691666151E+02  0.40659141277E+02  0.00000000000E+00 0. -1.
         11    1    3    3    0    0 -0.70813492078E+01  0.19402942053E+01 -0.10621253429E+01  0.74187841801E+01  0.51100000000E-03 0. -1.
        -11    1    3    3    0    0  0.46096826226E+01  0.98237749407E+00 -0.33570448730E+01  0.57865352295E+01  0.51100000000E-03 0.  1.
        -12    1    3    3    0    0  0.35565639899E+01 -0.11672551993E+02 -0.35272495935E+02  0.37323539314E+02  0.00000000000E+00 0.  1.
</event>
<event>
 7    1  0.2432574E-011  0.5052885E+02  0.7816164E-02  0.1300439E+00
        -11   -1    0    0    0    0  0.00000000000E+00  0.00000000000E+00  0.45593999997E+02  0.45594000000E+02  0.51100000000E-03 0.  1.
         11   -1    0    0    0    0 -0.00000000000E+00 -0.00000000000E+00 -0.45593999997E+02  0.45594000000E+02  0.51100000000E-03 0. -1.
    9900012    2    1    2    0    0  0.22640076583E+02 -0.31465467475E+02  0.12268561080E+02  0.50528852172E+02  0.29999976663E+02 0.  0.
         12    1    1    2    0    0 -0.22640076583E+02  0.31465467475E+02 -0.12268561080E+02  0.40659147828E+02  0.00000000000E+00 0. -1.
         11    1    3    3    0    0 -0.22227493798E+01 -0.27014917142E+01  0.50108856850E+01  0.61112721996E+01  0.51100000000E-03 0. -1.
        -11    1    3    3    0    0 -0.37334487829E+01 -0.12287889023E+01  0.18800716300E+01  0.43569750488E+01  0.51100000000E-03 0.  1.
        -12    1    3    3    0    0  0.28596274745E+02 -0.27535186858E+02  0.53776037654E+01  0.40060604924E+02  0.00000000000E+00 0.  1.
</event>
<event>
 7    1  0.2432574E-011  0.5052886E+02  0.7816164E-02  0.1300439E+00
        -11   -1    0    0    0    0  0.00000000000E+00  0.00000000000E+00  0.45593999997E+02  0.45594000000E+02  0.51100000000E-03 0.  1.
         11   -1    0    0    0    0 -0.00000000000E+00 -0.00000000000E+00 -0.45593999997E+02  0.45594000000E+02  0.51100000000E-03 0. -1.
    9900012    2    1    2    0    0  0.90983502604E+01 -0.39614073913E+02 -0.10537965353E+01  0.50528864291E+02  0.30000013500E+02 0.  0.
         12    1    1    2    0    0 -0.90983502604E+01  0.39614073913E+02  0.10537965353E+01  0.40659135709E+02  0.00000000000E+00 0. -1.
         11    1    3    3    0    0  0.75526506160E+01 -0.22488911261E+02 -0.74505671283E+01  0.24865731677E+02  0.51100000000E-03 0.  1.
        -11    1    3    3    0    0  0.13703972675E+01  0.30397663772E+01 -0.19223588024E+01  0.38488481297E+01  0.51100000000E-03 0. -1.
         12    1    3    3    0    0  0.17530237686E+00 -0.20164929029E+02  0.83191293954E+01  0.21814284484E+02  0.00000000000E+00 0. -1.
</event>
<event>
 7    1  0.2432574E-011  0.5052886E+02  0.7816164E-02  0.1300439E+00
        -11   -1    0    0    0    0  0.00000000000E+00  0.00000000000E+00  0.45593999997E+02  0.45594000000E+02  0.51100000000E-03 0. -1.
         11   -1    0    0    0    0 -0.00000000000E+00 -0.00000000000E+00 -0.45593999997E+02  0.45594000000E+02  0.51100000000E-03 0.  1.
    9900012    2    1    2    0    0  0.21636095594E+02  0.14764146122E+02 -0.31097664224E+02  0.50528863715E+02  0.30000011748E+02 0.  0.
         12    1    1    2    0    0 -0.21636095594E+02 -0.14764146122E+02  0.31097664224E+02  0.40659136285E+02  0.00000000000E+00 0. -1.
         11    1    3    3    0    0  0.85780491858E+01  0.11314194257E+01 -0.19062172091E+02  0.20933930421E+02  0.51100000000E-03 0. -1.
        -11    1    3    3    0    0  0.18088197680E+02  0.91274600179E+01 -0.84845750360E+01  0.21965460057E+02  0.51100000000E-03 0.  1.
         12    1    3    3    0    0 -0.50301512718E+01  0.45052666780E+01 -0.35509170966E+01  0.76294732376E+01  0.00000000000E+00 0. -1.
</event>
<event>
 7    1  0.2432574E-011  0.5052885E+02  0.7816164E-02  0.1300439E+00
        -11   -1    0    0    0    0  0.00000000000E+00  0.00000000000E+00  0.45593999997E+02  0.45594000000E+02  0.51100000000E-03 0.  1.
         11   -1    0    0    0    0 -0.00000000000E+00 -0.00000000000E+00 -0.45593999997E+02  0.45594000000E+02  0.51100000000E-03 0. -1.
    9900012    2    1    2    0    0  0.27551509192E+02 -0.40476606120E+00  0.29898437758E+02  0.50528854969E+02  0.29999985163E+02 0.  0.
         12    1    1    2    0    0 -0.27551509192E+02  0.40476606120E+00 -0.29898437758E+02  0.40659145031E+02  0.00000000000E+00 0. -1.
         11    1    3    3    0    0  0.11569509617E+02 -0.49934713572E+01  0.12036611487E+02  0.17426081755E+02  0.51100000000E-03 0.  1.
        -11    1    3    3    0    0  0.20796495137E+02  0.28530675268E+01  0.89366946125E+01  0.22814440934E+02  0.51100000000E-03 0. -1.
         12    1    3    3    0    0 -0.48144955619E+01  0.17356377692E+01  0.89251316577E+01  0.10288332279E+02  0.00000000000E+00 0. -1.
</event>
<event>
 7    1  0.2483699E-011  0.5052888E+02  0.7816164E-02  0.1300439E+00
        -11   -1    0    0    0    0  0.00000000000E+00  0.00000000000E+00  0.45593999997E+02  0.45594000000E+02  0.51100000000E-03 0. -1.
         11   -1    0    0    0    0 -0.00000000000E+00 -0.00000000000E+00 -0.45593999997E+02  0.45594000000E+02  0.51100000000E-03 0.  1.
    9900012    2    1    2    0    0 -0.36499371447E+02 -0.17404066422E+01  0.17830622509E+02  0.50528877649E+02  0.30000054103E+02 0.  0.
         12    1    1    2    0    0  0.36499371447E+02  0.17404066422E+01 -0.17830622509E+02  0.40659122351E+02  0.00000000000E+00 0. -1.
         11    1    3    3    0    0 -0.99643507800E+01  0.53765294591E+01  0.66657569774E+01  0.13138785021E+02  0.51100000000E-03 0. -1.
        -11    1    3    3    0    0 -0.30677141272E+02 -0.73155844077E+01  0.98702603033E+01  0.33045828944E+02  0.51100000000E-03 0.  1.
         12    1    3    3    0    0  0.41421206057E+01  0.19864830642E+00  0.12946052280E+01  0.43442636842E+01  0.00000000000E+00 0. -1.
</event>
<event>
 7    1  0.2432574E-011  0.5052885E+02  0.7816164E-02  0.1300439E+00
        -11   -1    0    0    0    0  0.00000000000E+00  0.00000000000E+00  0.45593999997E+02  0.45594000000E+02  0.51100000000E-03 0. -1.
         11   -1    0    0    0    0 -0.00000000000E+00 -0.00000000000E+00 -0.45593999997E+02  0.45594000000E+02  0.51100000000E-03 0.  1.
    9900012    2    1    2    0    0  0.27308640383E+01  0.31175662728E+02 -0.25957409420E+02  0.50528847663E+02  0.29999962957E+02 0.  0.
         12    1    1    2    0    0 -0.27308640383E+01 -0.31175662728E+02  0.25957409420E+02  0.40659152337E+02  0.00000000000E+00 0. -1.
         11    1    3    3    0    0 -0.54979934673E+01  0.17082163462E+02 -0.11055285948E+02  0.21077181699E+02  0.51100000000E-03 0. -1.
        -11    1    3    3    0    0  0.35017391669E+01  0.17352442568E+02 -0.56853971061E+01  0.18592826057E+02  0.51100000000E-03 0.  1.
         12    1    3    3    0    0  0.47271183387E+01 -0.32589433017E+01 -0.92167263660E+01  0.10858839908E+02  0.00000000000E+00 0. -1.
</event>
<event>
 7    1  0.2432574E-011  0.5052886E+02  0.7816164E-02  0.1300439E+00
        -11   -1    0    0    0    0  0.00000000000E+00  0.00000000000E+00  0.45593999997E+02  0.45594000000E+02  0.51100000000E-03 0.  1.
         11   -1    0    0    0    0 -0.00000000000E+00 -0.00000000000E+00 -0.45593999997E+02  0.45594000000E+02  0.51100000000E-03 0. -1.
    9900012    2    1    2    0    0  0.34540478179E+02 -0.18135026203E+02  0.11456072209E+02  0.50528863282E+02  0.30000010432E+02 0.  0.
         12    1    1    2    0    0 -0.34540478179E+02  0.18135026203E+02 -0.11456072209E+02  0.40659136718E+02  0.00000000000E+00 0. -1.
         11    1    3    3    0    0  0.37675491395E+02 -0.15104048866E+02  0.10019844386E+02  0.41808757765E+02  0.51100000000E-03 0. -1.
        -11    1    3    3    0    0  0.91492355277E+00  0.14373487331E+01  0.20416506882E+01  0.26592093339E+01  0.51100000000E-03 0.  1.
         12    1    3    3    0    0 -0.40499367694E+01 -0.44683260695E+01 -0.60542286470E+00  0.60608961833E+01  0.00000000000E+00 0. -1.
</event>
<event>
 7    1  0.2432574E-011  0.5052885E+02  0.7816164E-02  0.1300439E+00
        -11   -1    0    0    0    0  0.00000000000E+00  0.00000000000E+00  0.45593999997E+02  0.45594000000E+02  0.51100000000E-03 0.  1.
         11   -1    0    0    0    0 -0.00000000000E+00 -0.00000000000E+00 -0.45593999997E+02  0.45594000000E+02  0.51100000000E-03 0. -1.
    9900012    2    1    2    0    0  0.10255126112E+02  0.38744284009E+02  0.68468530938E+01  0.50528849096E+02  0.29999967312E+02 0.  0.
         12    1    1    2    0    0 -0.10255126112E+02 -0.38744284009E+02 -0.68468530938E+01  0.40659150904E+02  0.00000000000E+00 0. -1.
         11    1    3    3    0    0 -0.27441596908E+01  0.87349799710E+01 -0.28881424220E+01  0.96006069815E+01  0.51100000000E-03 0. -1.
        -11    1    3    3    0    0 -0.37249280569E+01  0.13820313772E+02  0.10317938922E+02  0.17644716649E+02  0.51100000000E-03 0.  1.
         12    1    3    3    0    0  0.16724213860E+02  0.16188990266E+02 -0.58294340576E+00  0.23283525465E+02  0.00000000000E+00 0. -1.
</event>
<event>
 7    1  0.2432574E-011  0.5052886E+02  0.7816164E-02  0.1300439E+00
        -11   -1    0    0    0    0  0.00000000000E+00  0.00000000000E+00  0.45593999997E+02  0.45594000000E+02  0.51100000000E-03 0.  1.
         11   -1    0    0    0    0 -0.00000000000E+00 -0.00000000000E+00 -0.45593999997E+02  0.45594000000E+02  0.51100000000E-03 0. -1.
    9900012    2    1    2    0    0 -0.10685130601E+02 -0.95711613681E+01  0.38044534605E+02  0.50528858848E+02  0.29999996954E+02 0.  0.
         12    1    1    2    0    0  0.10685130601E+02  0.95711613681E+01 -0.38044534605E+02  0.40659141152E+02  0.00000000000E+00 0. -1.
         11    1    3    3    0    0 -0.34017435883E+01  0.79836903440E+01  0.15626801162E+02  0.17874789111E+02  0.51100000000E-03 0. -1.
        -11    1    3    3    0    0 -0.11296630061E+02 -0.12062095204E+02  0.12948228074E+02  0.20994394537E+02  0.51100000000E-03 0.  1.
        -12    1    3    3    0    0  0.40132430487E+01 -0.54927565086E+01  0.94695053698E+01  0.11659675200E+02  0.00000000000E+00 0.  1.
</event>
<event>
 7    1  0.2432574E-011  0.5052887E+02  0.7816164E-02  0.1300439E+00
        -11   -1    0    0    0    0  0.00000000000E+00  0.00000000000E+00  0.45593999997E+02  0.45594000000E+02  0.51100000000E-03 0. -1.
         11   -1    0    0    0    0 -0.00000000000E+00 -0.00000000000E+00 -0.45593999997E+02  0.45594000000E+02  0.51100000000E-03 0.  1.
    9900012    2    1    2    0    0 -0.32394186859E+02  0.19746951873E+02  0.14623256695E+02  0.50528867116E+02  0.30000022086E+02 0.  0.
         12    1    1    2    0    0  0.32394186859E+02 -0.19746951873E+02 -0.14623256695E+02  0.40659132884E+02  0.00000000000E+00 0. -1.
         11    1    3    3    0    0 -0.90229079496E+01  0.36184746878E+01  0.10504392997E+02  0.14312529456E+02  0.51100000000E-03 0. -1.
        -11    1    3    3    0    0 -0.11614011177E+02  0.20256757128E+02  0.43574132626E+01  0.23753073813E+02  0.51100000000E-03 0.  1.
        -12    1    3    3    0    0 -0.11757267732E+02 -0.41282799435E+01 -0.23854956409E+00  0.12463263847E+02  0.00000000000E+00 0.  1.
</event>
<event>
 7    1  0.2432574E-011  0.5052885E+02  0.7816164E-02  0.1300439E+00
        -11   -1    0    0    0    0  0.00000000000E+00  0.00000000000E+00  0.45593999997E+02  0.45594000000E+02  0.51100000000E-03 0.  1.
         11   -1    0    0    0    0 -0.00000000000E+00 -0.00000000000E+00 -0.45593999997E+02  0.45594000000E+02  0.51100000000E-03 0. -1.
    9900012    2    1    2    0    0 -0.17863112347E+02  0.24925856900E+02  0.26697897201E+02  0.50528845559E+02  0.29999956562E+02 0.  0.
         12    1    1    2    0    0  0.17863112347E+02 -0.24925856900E+02 -0.26697897201E+02  0.40659154441E+02  0.00000000000E+00 0. -1.
         11    1    3    3    0    0 -0.38417779118E+01 -0.22277684683E+01  0.13443436781E+02  0.14157973111E+02  0.51100000000E-03 0. -1.
        -11    1    3    3    0    0  0.15088145681E+01  0.22034842895E+01  0.52840219773E+01  0.59205365410E+01  0.51100000000E-03 0.  1.
        -12    1    3    3    0    0 -0.15530149003E+02  0.24950141079E+02  0.79704384426E+01  0.30450335907E+02  0.00000000000E+00 0.  1.
</event>
<event>
 7    1  0.2432574E-011  0.5052885E+02  0.7816164E-02  0.1300439E+00
        -11   -1    0    0    0    0  0.00000000000E+00  0.00000000000E+00  0.45593999997E+02  0.45594000000E+02  0.51100000000E-03 0.  1.
         11   -1    0    0    0    0 -0.00000000000E+00 -0.00000000000E+00 -0.45593999997E+02  0.45594000000E+02  0.51100000000E-03 0. -1.
    9900012    2    1    2    0    0  0.40082765506E+02  0.35392347821E+01 -0.58319660667E+01  0.50528854637E+02  0.29999984155E+02 0.  0.
         12    1    1    2    0    0 -0.40082765506E+02 -0.35392347821E+01  0.58319660667E+01  0.40659145363E+02  0.00000000000E+00 0. -1.
         11    1    3    3    0    0  0.33942372878E+01  0.18567039524E+01 -0.51522517446E+01  0.64431277058E+01  0.51100000000E-03 0.  1.
        -11    1    3    3    0    0  0.43450407867E+01 -0.90139462710E+01  0.18889338655E+00  0.10008310936E+02  0.51100000000E-03 0. -1.
        -12    1    3    3    0    0  0.32343487431E+02  0.10696477101E+02 -0.86860770862E+00  0.34077415996E+02  0.00000000000E+00 0.  1.
</event>
<event>
 7    1  0.2432574E-011  0.5052886E+02  0.7816164E-02  0.1300439E+00
        -11   -1    0    0    0    0  0.00000000000E+00  0.00000000000E+00  0.45593999997E+02  0.45594000000E+02  0.51100000000E-03 0.  1.
         11   -1    0    0    0    0 -0.00000000000E+00 -0.00000000000E+00 -0.45593999997E+02  0.45594000000E+02  0.51100000000E-03 0. -1.
    9900012    2    1    2    0    0  0.17494611174E+02  0.76985412669E+01  0.35886438175E+02  0.50528863233E+02  0.30000010283E+02 0.  0.
         12    1    1    2    0    0 -0.17494611174E+02 -0.76985412669E+01 -0.35886438175E+02  0.40659136767E+02  0.00000000000E+00 0. -1.
         11    1    3    3    0    0  0.58144330641E+01 -0.50427925716E+01  0.17351157463E+01  0.78897411676E+01  0.51100000000E-03 0. -1.
        -11    1    3    3    0    0  0.57886143874E+01  0.66219671773E+01  0.32896999726E+02  0.34052475637E+02  0.51100000000E-03 0.  1.
         12    1    3    3    0    0  0.58915637226E+01  0.61193666613E+01  0.12543227028E+01  0.85866464278E+01  0.00000000000E+00 0. -1.
</event>
<event>
 7    1  0.2432574E-011  0.5052886E+02  0.7816164E-02  0.1300439E+00
        -11   -1    0    0    0    0  0.00000000000E+00  0.00000000000E+00  0.45593999997E+02  0.45594000000E+02  0.51100000000E-03 0. -1.
         11   -1    0    0    0    0 -0.00000000000E+00 -0.00000000000E+00 -0.45593999997E+02  0.45594000000E+02  0.51100000000E-03 0.  1.
    9900012    2    1    2    0    0 -0.23779440928E+02 -0.25324892112E+02 -0.21127087722E+02  0.50528858261E+02  0.29999995170E+02 0.  0.
         12    1    1    2    0    0  0.23779440928E+02  0.25324892112E+02  0.21127087722E+02  0.40659141739E+02  0.00000000000E+00 0. -1.
         11    1    3    3    0    0  0.17311594931E+01 -0.20753132017E+00  0.53568165849E-01  0.17443773242E+01  0.51100000000E-03 0. -1.
        -11    1    3    3    0    0 -0.21512367794E+02 -0.34010269666E+01 -0.89948499603E+01  0.23563876562E+02  0.51100000000E-03 0.  1.
         12    1    3    3    0    0 -0.39982326270E+01 -0.21716333825E+02 -0.12185805927E+02  0.25220604375E+02  0.00000000000E+00 0. -1.
</event>
<event>
 7    1  0.2432574E-011  0.5052886E+02  0.7816164E-02  0.1300439E+00
        -11   -1    0    0    0    0  0.00000000000E+00  0.00000000000E+00  0.45593999997E+02  0.45594000000E+02  0.51100000000E-03 0.  1.
         11   -1    0    0    0    0 -0.00000000000E+00 -0.00000000000E+00 -0.45593999997E+02  0.45594000000E+02  0.51100000000E-03 0. -1.
    9900012    2    1    2    0    0  0.33553212875E+02 -0.16809511211E+02  0.15645710816E+02  0.50528855539E+02  0.29999986897E+02 0.  0.
         12    1    1    2    0    0 -0.33553212875E+02  0.16809511211E+02 -0.15645710816E+02  0.40659144461E+02  0.00000000000E+00 0. -1.
         11    1    3    3    0    0  0.26618819628E+02 -0.14572672901E+02  0.11104140921E+02  0.32314490554E+02  0.51100000000E-03 0. -1.
        -11    1    3    3    0    0  0.37817753774E+01 -0.90944429416E+01  0.40539421611E+01  0.10651064019E+02  0.51100000000E-03 0.  1.
        -12    1    3    3    0    0  0.31526178687E+01  0.68576046315E+01  0.48762773400E+00  0.75633009668E+01  0.00000000000E+00 0.  1.
</event>
<event>
 7    1  0.2432574E-011  0.5052886E+02  0.7816164E-02  0.1300439E+00
        -11   -1    0    0    0    0  0.00000000000E+00  0.00000000000E+00  0.45593999997E+02  0.45594000000E+02  0.51100000000E-03 0.  1.
         11   -1    0    0    0    0 -0.00000000000E+00 -0.00000000000E+00 -0.45593999997E+02  0.45594000000E+02  0.51100000000E-03 0. -1.
    9900012    2    1    2    0    0 -0.16088754521E+02  0.34941750810E+02  0.13167843137E+02  0.50528855093E+02  0.29999985541E+02 0.  0.
         12    1    1    2    0    0  0.16088754521E+02 -0.34941750810E+02 -0.13167843137E+02  0.40659144907E+02  0.00000000000E+00 0. -1.
         11    1    3    3    0    0 -0.71144214891E+01  0.40664712908E+01  0.42567139933E+01  0.92342187631E+01  0.51100000000E-03 0. -1.
        -11    1    3    3    0    0 -0.13572648096E+02  0.22800141370E+02  0.14712225086E+02  0.30339953693E+02  0.51100000000E-03 0.  1.
         12    1    3    3    0    0  0.45983150644E+01  0.80751381489E+01 -0.58010959421E+01  0.10954682637E+02  0.00000000000E+00 0. -1.
</event>
<event>
 7    1  0.2432574E-011  0.5052885E+02  0.7816164E-02  0.1300439E+00
        -11   -1    0    0    0    0  0.00000000000E+00  0.00000000000E+00  0.45593999997E+02  0.45594000000E+02  0.51100000000E-03 0. -1.
         11   -1    0    0    0    0 -0.00000000000E+00 -0.00000000000E+00 -0.45593999997E+02  0.45594000000E+02  0.51100000000E-03 0.  1.
    9900012    2    1    2    0    0  0.70965213440E+01  0.14529879990E+01 -0.40008678462E+02  0.50528854146E+02  0.29999982663E+02 0.  0.
         12    1    1    2    0    0 -0.70965213440E+01 -0.14529879990E+01  0.40008678462E+02  0.40659145854E+02  0.00000000000E+00 0. -1.
         11    1    3    3    0    0 -0.57356741825E+01  0.13791541361E+01 -0.29040970664E+02  0.29634068264E+02  0.51100000000E-03 0. -1.
        -11    1    3    3    0    0  0.10916674837E+02  0.37925312705E+01 -0.11922330340E+02  0.16604187542E+02  0.51100000000E-03 0.  1.
        -12    1    3    3    0    0  0.19155206896E+01 -0.37186974075E+01  0.95462254268E+00  0.42905983406E+01  0.00000000000E+00 0.  1.
</event>
<event>
 7    1  0.2432574E-011  0.5052886E+02  0.7816164E-02  0.1300439E+00
        -11   -1    0    0    0    0  0.00000000000E+00  0.00000000000E+00  0.45593999997E+02  0.45594000000E+02  0.51100000000E-03 0. -1.
         11   -1    0    0    0    0 -0.00000000000E+00 -0.00000000000E+00 -0.45593999997E+02  0.45594000000E+02  0.51100000000E-03 0.  1.
    9900012    2    1    2    0    0  0.29052825914E+02 -0.27720968654E+02  0.63754698387E+01  0.50528863114E+02  0.30000009921E+02 0.  0.
         12    1    1    2    0    0 -0.29052825914E+02  0.27720968654E+02 -0.63754698387E+01  0.40659136886E+02  0.00000000000E+00 0. -1.
         11    1    3    3    0    0  0.17067416579E+00 -0.96702163998E+01  0.10212772236E+01  0.97254934229E+01  0.51100000000E-03 0. -1.
        -11    1    3    3    0    0  0.16530639732E+01  0.34235264522E+01 -0.33306274885E+01  0.50543282042E+01  0.51100000000E-03 0.  1.
        -12    1    3    3    0    0  0.27229087775E+02 -0.21474278706E+02  0.86848201036E+01  0.35749041487E+02  0.00000000000E+00 0.  1.
</event>
<event>
 7    1  0.2432574E-011  0.5052886E+02  0.7816164E-02  0.1300439E+00
        -11   -1    0    0    0    0  0.00000000000E+00  0.00000000000E+00  0.45593999997E+02  0.45594000000E+02  0.51100000000E-03 0.  1.
         11   -1    0    0    0    0 -0.00000000000E+00 -0.00000000000E+00 -0.45593999997E+02  0.45594000000E+02  0.51100000000E-03 0. -1.
    9900012    2    1    2    0    0  0.12905317366E+02 -0.28357600348E+02  0.26124025736E+02  0.50528862842E+02  0.30000009094E+02 0.  0.
         12    1    1    2    0    0 -0.12905317366E+02  0.28357600348E+02 -0.26124025736E+02  0.40659137158E+02  0.00000000000E+00 0. -1.
         11    1    3    3    0    0 -0.75918682012E+00 -0.39911719548E+01  0.10122236652E+01  0.41869338674E+01  0.51100000000E-03 0. -1.
        -11    1    3    3    0    0  0.21266647172E+02 -0.16612530613E+02  0.12622862291E+02  0.29792333041E+02  0.51100000000E-03 0.  1.
        -12    1    3    3    0    0 -0.76021429860E+01 -0.77538977802E+01  0.12488939779E+02  0.16549595934E+02  0.00000000000E+00 0.  1.
</event>
<event>
 7    1  0.2432574E-011  0.5052886E+02  0.7816164E-02  0.1300439E+00
        -11   -1    0    0    0    0  0.00000000000E+00  0.00000000000E+00  0.45593999997E+02  0.45594000000E+02  0.51100000000E-03 0. -1.
         11   -1    0    0    0    0 -0.00000000000E+00 -0.00000000000E+00 -0.45593999997E+02  0.45594000000E+02  0.51100000000E-03 0.  1.
    9900012    2    1    2    0    0  0.95424197871E+01  0.21968636181E+02 -0.32855545753E+02  0.50528860342E+02  0.30000001495E+02 0.  0.
         12    1    1    2    0    0 -0.95424197871E+01 -0.21968636181E+02  0.32855545753E+02  0.40659139658E+02  0.00000000000E+00 0. -1.
         11    1    3    3    0    0 -0.29047080204E+01 -0.38840611653E+01 -0.27828316240E+01  0.55917270971E+01  0.51100000000E-03 0. -1.
        -11    1    3    3    0    0  0.64211915995E+01  0.16812003862E+02 -0.67732436149E+01  0.19228936651E+02  0.51100000000E-03 0.  1.
        -12    1    3    3    0    0  0.60259362081E+01  0.90406934847E+01 -0.23299470514E+02  0.25708196594E+02  0.00000000000E+00 0.  1.
</event>
<event>
 7    1  0.2432574E-011  0.5052885E+02  0.7816164E-02  0.1300439E+00
        -11   -1    0    0    0    0  0.00000000000E+00  0.00000000000E+00  0.45593999997E+02  0.45594000000E+02  0.51100000000E-03 0.  1.
         11   -1    0    0    0    0 -0.00000000000E+00 -0.00000000000E+00 -0.45593999997E+02  0.45594000000E+02  0.51100000000E-03 0. -1.
    9900012    2    1    2    0    0  0.28323747353E+02  0.11352140534E+02  0.26871189928E+02  0.50528848423E+02  0.29999965266E+02 0.  0.
         12    1    1    2    0    0 -0.28323747353E+02 -0.11352140534E+02 -0.26871189928E+02  0.40659151577E+02  0.00000000000E+00 0. -1.
         11    1    3    3    0    0 -0.30420348418E+01  0.17072660472E+01  0.33067473014E+01  0.48065904039E+01  0.51100000000E-03 0. -1.
        -11    1    3    3    0    0  0.79732782259E+01  0.40255685458E+01  0.19330882530E+02  0.21294632832E+02  0.51100000000E-03 0.  1.
         12    1    3    3    0    0  0.23392503969E+02  0.56193059409E+01  0.42335600969E+01  0.24427625187E+02  0.00000000000E+00 0. -1.
</event>
<event>
 7    1  0.2432574E-011  0.5052886E+02  0.7816164E-02  0.1300439E+00
        -11   -1    0    0    0    0  0.00000000000E+00  0.00000000000E+00  0.45593999997E+02  0.45594000000E+02  0.51100000000E-03 0.  1.
         11   -1    0    0    0    0 -0.00000000000E+00 -0.00000000000E+00 -0.45593999997E+02  0.45594000000E+02  0.51100000000E-03 0. -1.
    9900012    2    1    2    0    0  0.25317780007E+01  0.19157916130E+02  0.35773315922E+02  0.50528858564E+02  0.29999996090E+02 0.  0.
         12    1    1    2    0    0 -0.25317780007E+01 -0.19157916130E+02 -0.35773315922E+02  0.40659141436E+02  0.00000000000E+00 0. -1.
         11    1    3    3    0    0  0.13251614550E+02  0.44734591098E+01  0.13121163610E+02  0.19177644781E+02  0.51100000000E-03 0. -1.
        -11    1    3    3    0    0 -0.99757819070E+00  0.10777323437E+02  0.86081809163E+01  0.13829195264E+02  0.51100000000E-03 0.  1.
         12    1    3    3    0    0 -0.97222583582E+01  0.39071335837E+01  0.14043971395E+02  0.17522018519E+02  0.00000000000E+00 0. -1.
</event>
<event>
 7    1  0.2432574E-011  0.5052886E+02  0.7816164E-02  0.1300439E+00
        -11   -1    0    0    0    0  0.00000000000E+00  0.00000000000E+00  0.45593999997E+02  0.45594000000E+02  0.51100000000E-03 0. -1.
         11   -1    0    0    0    0 -0.00000000000E+00 -0.00000000000E+00 -0.45593999997E+02  0.45594000000E+02  0.51100000000E-03 0.  1.
    9900012    2    1    2    0    0  0.31311095035E+02 -0.22549620916E+02  0.12817771321E+02  0.50528864036E+02  0.30000012723E+02 0.  0.
         12    1    1    2    0    0 -0.31311095035E+02  0.22549620916E+02 -0.12817771321E+02  0.40659135964E+02  0.00000000000E+00 0. -1.
         11    1    3    3    0    0 -0.14265559349E+01  0.23931548622E+01  0.32095161972E+01  0.42500878239E+01  0.51100000000E-03 0. -1.
        -11    1    3    3    0    0  0.82561392536E+01 -0.32216359980E+01 -0.52875690219E+01  0.10319939937E+02  0.51100000000E-03 0.  1.
         12    1    3    3    0    0  0.24481511716E+02 -0.21721139781E+02  0.14895824146E+02  0.35958836275E+02  0.00000000000E+00 0. -1.
</event>
<event>
 7    1  0.2432574E-011  0.5052886E+02  0.7816164E-02  0.1300439E+00
        -11   -1    0    0    0    0  0.00000000000E+00  0.00000000000E+00  0.45593999997E+02  0.45594000000E+02  0.51100000000E-03 0. -1.
         11   -1    0    0    0    0 -0.00000000000E+00 -0.00000000000E+00 -0.45593999997E+02  0.45594000000E+02  0.51100000000E-03 0.  1.
    9900012    2    1    2    0    0  0.21978759310E+02  0.29920248050E+02 -0.16579454205E+02  0.50528863192E+02  0.30000010159E+02 0.  0.
         12    1    1    2    0    0 -0.21978759310E+02 -0.29920248050E+02  0.16579454205E+02  0.40659136808E+02  0.00000000000E+00 0. -1.
         11    1    3    3    0    0  0.15632511240E+02  0.12695224965E+02 -0.46235715097E+01  0.20662080204E+02  0.51100000000E-03 0. -1.
        -11    1    3    3    0    0  0.67870788822E+01  0.11641401747E+02 -0.17432266288E+02  0.22033396983E+02  0.51100000000E-03 0.  1.
        -12    1    3    3    0    0 -0.44083081229E+00  0.55836213390E+01  0.54763835927E+01  0.78333860059E+01  0.00000000000E+00 0.  1.
</event>
<event>
 7    1  0.2432574E-011  0.5052886E+02  0.7816164E-02  0.1300439E+00
        -11   -1    0    0    0    0  0.00000000000E+00  0.00000000000E+00  0.45593999997E+02  0.45594000000E+02  0.51100000000E-03 0. -1.
         11   -1    0    0    0    0 -0.00000000000E+00 -0.00000000000E+00 -0.45593999997E+02  0.45594000000E+02  0.51100000000E-03 0.  1.
    9900012    2    1    2    0    0 -0.36689094080E+02  0.14367345923E+02 -0.10032718843E+02  0.50528859568E+02  0.29999999143E+02 0.  0.
         12    1    1    2    0    0  0.36689094080E+02 -0.14367345923E+02  0.10032718843E+02  0.40659140432E+02  0.00000000000E+00 0. -1.
         11    1    3    3    0    0 -0.88143610197E+01 -0.19853151823E+01  0.19194380002E+01  0.92368110869E+01  0.51100000000E-03 0. -1.
        -11    1    3    3    0    0  0.97461035518E+00 -0.31657041455E+01 -0.46401263904E+01  0.57010807099E+01  0.51100000000E-03 0.  1.
        -12    1    3    3    0    0 -0.28849343415E+02  0.19518365250E+02 -0.73120304533E+01  0.35590967771E+02  0.00000000000E+00 0.  1.
</event>
<event>
 7    1  0.3057594E-011  0.5052885E+02  0.7816164E-02  0.1300439E+00
        -11   -1    0    0    0    0  0.00000000000E+00  0.00000000000E+00  0.45593999997E+02  0.45594000000E+02  0.51100000000E-03 0.  1.
         11   -1    0    0    0    0 -0.00000000000E+00 -0.00000000000E+00 -0.45593999997E+02  0.45594000000E+02  0.51100000000E-03 0. -1.
    9900012    2    1    2    0    0  0.49909784476E+01  0.20225142415E+02  0.34917044284E+02  0.50528853021E+02  0.29999979241E+02 0.  0.
         12    1    1    2    0    0 -0.49909784476E+01 -0.20225142415E+02 -0.34917044284E+02  0.40659146979E+02  0.00000000000E+00 0. -1.
         11    1    3    3    0    0  0.47563663166E+00  0.11324886789E+01 -0.34663913838E+01  0.36775848460E+01  0.51100000000E-03 0. -1.
        -11    1    3    3    0    0 -0.43603682297E+01  0.15882719594E+02  0.18056327211E+02  0.24439814758E+02  0.51100000000E-03 0.  1.
        -12    1    3    3    0    0  0.88757100456E+01  0.32099341416E+01  0.20327108457E+02  0.22411453416E+02  0.00000000000E+00 0.  1.
</event>
<event>
 7    1  0.2432574E-011  0.5052886E+02  0.7816164E-02  0.1300439E+00
        -11   -1    0    0    0    0  0.00000000000E+00  0.00000000000E+00  0.45593999997E+02  0.45594000000E+02  0.51100000000E-03 0. -1.
         11   -1    0    0    0    0 -0.00000000000E+00 -0.00000000000E+00 -0.45593999997E+02  0.45594000000E+02  0.51100000000E-03 0.  1.
    9900012    2    1    2    0    0 -0.12878918401E+01  0.20565048589E+02 -0.35051184340E+02  0.50528863111E+02  0.30000009913E+02 0.  0.
         12    1    1    2    0    0  0.12878918401E+01 -0.20565048589E+02  0.35051184340E+02  0.40659136889E+02  0.00000000000E+00 0. -1.
         11    1    3    3    0    0 -0.73610033728E+01  0.15844675027E+02 -0.10092720751E+02  0.20176746759E+02  0.51100000000E-03 0. -1.
        -11    1    3    3    0    0 -0.50492219691E+01  0.96816012822E+00 -0.10795039336E+02  0.11956791001E+02  0.51100000000E-03 0.  1.
        -12    1    3    3    0    0  0.11122333502E+02  0.37522134337E+01 -0.14163424254E+02  0.18395325351E+02  0.00000000000E+00 0.  1.
</event>
<event>
 7    1  0.2432574E-011  0.5052886E+02  0.7816164E-02  0.1300439E+00
        -11   -1    0    0    0    0  0.00000000000E+00  0.00000000000E+00  0.45593999997E+02  0.45594000000E+02  0.51100000000E-03 0.  1.
         11   -1    0    0    0    0 -0.00000000000E+00 -0.00000000000E+00 -0.45593999997E+02  0.45594000000E+02  0.51100000000E-03 0. -1.
    9900012    2    1    2    0    0  0.47093621912E+00  0.24720595044E+02  0.32277482269E+02  0.50528862504E+02  0.30000008067E+02 0.  0.
         12    1    1    2    0    0 -0.47093621912E+00 -0.24720595044E+02 -0.32277482269E+02  0.40659137496E+02  0.00000000000E+00 0. -1.
         11    1    3    3    0    0 -0.46502768941E+01 -0.33463463501E+01  0.12747579373E+02  0.13975832327E+02  0.51100000000E-03 0. -1.
        -11    1    3    3    0    0  0.68286220398E+00  0.99055278456E+01  0.13796235018E+02  0.16997702304E+02  0.51100000000E-03 0.  1.
        -12    1    3    3    0    0  0.44383509092E+01  0.18161413549E+02  0.57336678780E+01  0.19555327873E+02  0.00000000000E+00 0.  1.
</event>
<event>
 7    1  0.2432574E-011  0.5052887E+02  0.7816164E-02  0.1300439E+00
        -11   -1    0    0    0    0  0.00000000000E+00  0.00000000000E+00  0.45593999997E+02  0.45594000000E+02  0.51100000000E-03 0. -1.
         11   -1    0    0    0    0 -0.00000000000E+00 -0.00000000000E+00 -0.45593999997E+02  0.45594000000E+02  0.51100000000E-03 0.  1.
    9900012    2    1    2    0    0  0.33666133638E+02 -0.17096165699E+02 -0.15082355957E+02  0.50528869451E+02  0.30000029185E+02 0.  0.
         12    1    1    2    0    0 -0.33666133638E+02  0.17096165699E+02  0.15082355957E+02  0.40659130549E+02  0.00000000000E+00 0. -1.
         11    1    3    3    0    0 -0.13383318428E+01 -0.75997885216E+01 -0.58885568355E+00  0.77391646172E+01  0.51100000000E-03 0. -1.
        -11    1    3    3    0    0  0.96011820376E+01 -0.21406769322E+00 -0.12370169294E+02  0.15660447316E+02  0.51100000000E-03 0.  1.
         12    1    3    3    0    0  0.25403283443E+02 -0.92823094839E+01 -0.21233309793E+01  0.27129257519E+02  0.00000000000E+00 0. -1.
</event>
<event>
 7    1  0.2432574E-011  0.5052886E+02  0.7816164E-02  0.1300439E+00
        -11   -1    0    0    0    0  0.00000000000E+00  0.00000000000E+00  0.45593999997E+02  0.45594000000E+02  0.51100000000E-03 0.  1.
         11   -1    0    0    0    0 -0.00000000000E+00 -0.00000000000E+00 -0.45593999997E+02  0.45594000000E+02  0.51100000000E-03 0. -1.
    9900012    2    1    2    0    0 -0.19026510599E+02  0.34059222096E+02  0.11451057878E+02  0.50528862750E+02  0.30000008816E+02 0.  0.
         12    1    1    2    0    0  0.19026510599E+02 -0.34059222096E+02 -0.11451057878E+02  0.40659137250E+02  0.00000000000E+00 0. -1.
         11    1    3    3    0    0 -0.13361000980E+02  0.28802920425E+02  0.72541616806E+01  0.32569117799E+02  0.51100000000E-03 0. -1.
        -11    1    3    3    0    0  0.13606574538E+00  0.29290868313E+01  0.93874310853E+01  0.98347306112E+01  0.51100000000E-03 0.  1.
         12    1    3    3    0    0 -0.58015753639E+01  0.23272148394E+01 -0.51905348881E+01  0.81250143407E+01  0.00000000000E+00 0. -1.
</event>
<event>
 7    1  0.2432574E-011  0.5052886E+02  0.7816164E-02  0.1300439E+00
        -11   -1    0    0    0    0  0.00000000000E+00  0.00000000000E+00  0.45593999997E+02  0.45594000000E+02  0.51100000000E-03 0.  1.
         11   -1    0    0    0    0 -0.00000000000E+00 -0.00000000000E+00 -0.45593999997E+02  0.45594000000E+02  0.51100000000E-03 0. -1.
    9900012    2    1    2    0    0  0.14267947310E+01 -0.14277834199E+02  0.38043046280E+02  0.50528860032E+02  0.30000000554E+02 0.  0.
         12    1    1    2    0    0 -0.14267947310E+01  0.14277834199E+02 -0.38043046280E+02  0.40659139968E+02  0.00000000000E+00 0. -1.
         11    1    3    3    0    0 -0.66999485886E+01 -0.78776019483E+00  0.81529484780E+00  0.67951882362E+01  0.51100000000E-03 0. -1.
        -11    1    3    3    0    0 -0.33928655296E+01 -0.48574993313E+01  0.21978510451E+02  0.22763166699E+02  0.51100000000E-03 0.  1.
        -12    1    3    3    0    0  0.11519608849E+02 -0.86325746730E+01  0.15249240981E+02  0.20970505097E+02  0.00000000000E+00 0.  1.
</event>
<event>
 7    1  0.2432574E-011  0.5052885E+02  0.7816164E-02  0.1300439E+00
        -11   -1    0    0    0    0  0.00000000000E+00  0.00000000000E+00  0.45593999997E+02  0.45594000000E+02  0.51100000000E-03 0.  1.
         11   -1    0    0    0    0 -0.00000000000E+00 -0.00000000000E+00 -0.45593999997E+02  0.45594000000E+02  0.51100000000E-03 0. -1.
    9900012    2    1    2    0    0 -0.15299957102E+02  0.57303164561E+01  0.37232264289E+02  0.50528847057E+02  0.29999961113E+02 0.  0.
         12    1    1    2    0    0  0.15299957102E+02 -0.57303164561E+01 -0.37232264289E+02  0.40659152943E+02  0.00000000000E+00 0. -1.
         11    1    3    3    0    0 -0.99945870102E+01  0.87719388079E+01  0.20427552891E+02  0.24374650712E+02  0.51100000000E-03 0. -1.
        -11    1    3    3    0    0 -0.17060773118E+01  0.68525967887E+01  0.95477685450E+00  0.71260354788E+01  0.51100000000E-03 0.  1.
        -12    1    3    3    0    0 -0.35992927800E+01 -0.98942191404E+01  0.15849934543E+02  0.19028160866E+02  0.00000000000E+00 0.  1.
</event>
<event>
 7    1  0.2432574E-011  0.5052887E+02  0.7816164E-02  0.1300439E+00
        -11   -1    0    0    0    0  0.00000000000E+00  0.00000000000E+00  0.45593999997E+02  0.45594000000E+02  0.51100000000E-03 0. -1.
         11   -1    0    0    0    0 -0.00000000000E+00 -0.00000000000E+00 -0.45593999997E+02  0.45594000000E+02  0.51100000000E-03 0.  1.
    9900012    2    1    2    0    0 -0.34652657734E+02 -0.21203774240E+02  0.16607441661E+01  0.50528870629E+02  0.30000032765E+02 0.  0.
         12    1    1    2    0    0  0.34652657734E+02  0.21203774240E+02 -0.16607441661E+01  0.40659129371E+02  0.00000000000E+00 0. -1.
         11    1    3    3    0    0  0.41236954322E+00  0.16104410321E+01  0.16949377831E+01  0.23741068442E+01  0.51100000000E-03 0. -1.
        -11    1    3    3    0    0 -0.50057875280E+01 -0.36511144046E+01 -0.94354634313E+01  0.11287892434E+02  0.51100000000E-03 0.  1.
        -12    1    3    3    0    0 -0.30059239749E+02 -0.19163100867E+02  0.94012698143E+01  0.36866871351E+02  0.00000000000E+00 0.  1.
</event>
<event>
 7    1  0.2432574E-011  0.5052885E+02  0.7816164E-02  0.1300439E+00
        -11   -1    0    0    0    0  0.00000000000E+00  0.00000000000E+00  0.45593999997E+02  0.45594000000E+02  0.51100000000E-03 0.  1.
         11   -1    0    0    0    0 -0.00000000000E+00 -0.00000000000E+00 -0.45593999997E+02  0.45594000000E+02  0.51100000000E-03 0. -1.
    9900012    2    1    2    0    0 -0.29300851788E+02 -0.20481248989E+02  0.19368662221E+02  0.50528849100E+02  0.29999967326E+02 0.  0.
         12    1    1    2    0    0  0.29300851788E+02  0.20481248989E+02 -0.19368662221E+02  0.40659150900E+02  0.00000000000E+00 0. -1.
         11    1    3    3    0    0 -0.49445914536E+01 -0.65161022827E+01 -0.35179744313E+00  0.81873277266E+01  0.51100000000E-03 0. -1.
        -11    1    3    3    0    0 -0.30885895979E+01 -0.13419203060E+02  0.15352390195E+02  0.20623052185E+02  0.51100000000E-03 0.  1.
        -12    1    3    3    0    0 -0.21267670737E+02 -0.54594364656E+00  0.43680694690E+01  0.21718469189E+02  0.00000000000E+00 0.  1.
</event>
<event>
 7    1  0.2432574E-011  0.5052886E+02  0.7816164E-02  0.1300439E+00
        -11   -1    0    0    0    0  0.00000000000E+00  0.00000000000E+00  0.45593999997E+02  0.45594000000E+02  0.51100000000E-03 0.  1.
         11   -1    0    0    0    0 -0.00000000000E+00 -0.00000000000E+00 -0.45593999997E+02  0.45594000000E+02  0.51100000000E-03 0. -1.
    9900012    2    1    2    0    0 -0.20744360726E+01 -0.20203329612E+02  0.35223395959E+02  0.50528862831E+02  0.30000009062E+02 0.  0.
         12    1    1    2    0    0  0.20744360726E+01  0.20203329612E+02 -0.35223395959E+02  0.40659137169E+02  0.00000000000E+00 0. -1.
         11    1    3    3    0    0 -0.54963577043E+00  0.11018410002E+01  0.10245519865E+02  0.10319245643E+02  0.51100000000E-03 0. -1.
        -11    1    3    3    0    0 -0.92507186603E+01 -0.18103415826E+02  0.24495015339E+02  0.31832612790E+02  0.51100000000E-03 0.  1.
         12    1    3    3    0    0  0.77259183582E+01 -0.32017547859E+01  0.48286075448E+00  0.83770043986E+01  0.00000000000E+00 0. -1.
</event>
<event>
 7    1  0.2432574E-011  0.5052884E+02  0.7816164E-02  0.1300439E+00
        -11   -1    0    0    0    0  0.00000000000E+00  0.00000000000E+00  0.45593999997E+02  0.45594000000E+02  0.51100000000E-03 0.  1.
         11   -1    0    0    0    0 -0.00000000000E+00 -0.00000000000E+00 -0.45593999997E+02  0.45594000000E+02  0.51100000000E-03 0. -1.
    9900012    2    1    2    0    0 -0.70196270832E+00 -0.40545154823E+02  0.29605025274E+01  0.50528844739E+02  0.29999954069E+02 0.  0.
         12    1    1    2    0    0  0.70196270832E+00  0.40545154823E+02 -0.29605025274E+01  0.40659155261E+02  0.00000000000E+00 0. -1.
         11    1    3    3    0    0 -0.57536448933E+01 -0.16530681003E+02 -0.93561847955E+01  0.19847066236E+02  0.51100000000E-03 0. -1.
        -11    1    3    3    0    0 -0.26912595565E+01 -0.36036664293E+01 -0.16219368363E+01  0.47812100034E+01  0.51100000000E-03 0.  1.
        -12    1    3    3    0    0  0.77429417415E+01 -0.20410807392E+02  0.13938624159E+02  0.25900568500E+02  0.00000000000E+00 0.  1.
</event>
<event>
 7    1  0.2432574E-011  0.5052886E+02  0.7816164E-02  0.1300439E+00
        -11   -1    0    0    0    0  0.00000000000E+00  0.00000000000E+00  0.45593999997E+02  0.45594000000E+02  0.51100000000E-03 0.  1.
         11   -1    0    0    0    0 -0.00000000000E+00 -0.00000000000E+00 -0.45593999997E+02  0.45594000000E+02  0.51100000000E-03 0. -1.
    9900012    2    1    2    0    0 -0.55763794116E+01 -0.81537279311E+01  0.39440921307E+02  0.50528861297E+02  0.30000004399E+02 0.  0.
         12    1    1    2    0    0  0.55763794116E+01  0.81537279311E+01 -0.39440921307E+02  0.40659138703E+02  0.00000000000E+00 0. -1.
         11    1    3    3    0    0  0.19108215117E+01  0.15808736437E+01 -0.18186428014E+01  0.30753637552E+01  0.51100000000E-03 0. -1.
        -11    1    3    3    0    0  0.56568944482E+01 -0.80839269271E+01  0.21604530213E+02  0.23750916937E+02  0.51100000000E-03 0.  1.
         12    1    3    3    0    0 -0.13144095371E+02 -0.16506746477E+01  0.19655033896E+02  0.23702580606E+02  0.00000000000E+00 0. -1.
</event>
<event>
 7    1  0.2432574E-011  0.5052887E+02  0.7816164E-02  0.1300439E+00
        -11   -1    0    0    0    0  0.00000000000E+00  0.00000000000E+00  0.45593999997E+02  0.45594000000E+02  0.51100000000E-03 0. -1.
         11   -1    0    0    0    0 -0.00000000000E+00 -0.00000000000E+00 -0.45593999997E+02  0.45594000000E+02  0.51100000000E-03 0.  1.
    9900012    2    1    2    0    0 -0.74045297214E+01  0.19567415192E+02 -0.34863368261E+02  0.50528865181E+02  0.30000016205E+02 0.  0.
         12    1    1    2    0    0  0.74045297214E+01 -0.19567415192E+02  0.34863368261E+02  0.40659134819E+02  0.00000000000E+00 0. -1.
         11    1    3    3    0    0 -0.79704048658E+01  0.16856063062E+02 -0.10218215266E+02  0.21261847031E+02  0.51100000000E-03 0. -1.
        -11    1    3    3    0    0 -0.17058626894E+01  0.86150168678E+01 -0.99690986899E+01  0.13285759749E+02  0.51100000000E-03 0.  1.
         12    1    3    3    0    0  0.22717378338E+01 -0.59036647380E+01 -0.14676054305E+02  0.15981258402E+02  0.00000000000E+00 0. -1.
</event>
<event>
 7    1  0.2432574E-011  0.5052886E+02  0.7816164E-02  0.1300439E+00
        -11   -1    0    0    0    0  0.00000000000E+00  0.00000000000E+00  0.45593999997E+02  0.45594000000E+02  0.51100000000E-03 0.  1.
         11   -1    0    0    0    0 -0.00000000000E+00 -0.00000000000E+00 -0.45593999997E+02  0.45594000000E+02  0.51100000000E-03 0. -1.
    9900012    2    1    2    0    0  0.36107990442E+01  0.53862884135E+01  0.40138702197E+02  0.50528863429E+02  0.30000010880E+02 0.  0.
         12    1    1    2    0    0 -0.36107990442E+01 -0.53862884135E+01 -0.40138702197E+02  0.40659136571E+02  0.00000000000E+00 0. -1.
         11    1    3    3    0    0  0.26335344848E+01 -0.10435594217E+02  0.63568250959E+01  0.12499854243E+02  0.51100000000E-03 0. -1.
        -11    1    3    3    0    0 -0.22318791078E+01  0.81994594474E+01  0.11788939037E+02  0.14532429372E+02  0.51100000000E-03 0.  1.
        -12    1    3    3    0    0  0.32091436672E+01  0.76224231829E+01  0.21992938064E+02  0.23496579814E+02  0.00000000000E+00 0.  1.
</event>
<event>
 7    1  0.2432574E-011  0.5052886E+02  0.7816164E-02  0.1300439E+00
        -11   -1    0    0    0    0  0.00000000000E+00  0.00000000000E+00  0.45593999997E+02  0.45594000000E+02  0.51100000000E-03 0.  1.
         11   -1    0    0    0    0 -0.00000000000E+00 -0.00000000000E+00 -0.45593999997E+02  0.45594000000E+02  0.51100000000E-03 0. -1.
    9900012    2    1    2    0    0 -0.18214012010E+02  0.18777520440E+02  0.31125873278E+02  0.50528862101E+02  0.30000006843E+02 0.  0.
         12    1    1    2    0    0  0.18214012010E+02 -0.18777520440E+02 -0.31125873278E+02  0.40659137899E+02  0.00000000000E+00 0. -1.
         11    1    3    3    0    0 -0.73677201169E+01  0.52611523218E+00  0.81708058566E+00  0.74315353665E+01  0.51100000000E-03 0. -1.
        -11    1    3    3    0    0 -0.26618366592E+01  0.13684885008E+02  0.30482975063E+01  0.14270724230E+02  0.51100000000E-03 0.  1.
        -12    1    3    3    0    0 -0.81844552338E+01  0.45665201994E+01  0.27260495186E+02  0.28826602505E+02  0.00000000000E+00 0.  1.
</event>
<event>
 7    1  0.2432574E-011  0.5052886E+02  0.7816164E-02  0.1300439E+00
        -11   -1    0    0    0    0  0.00000000000E+00  0.00000000000E+00  0.45593999997E+02  0.45594000000E+02  0.51100000000E-03 0.  1.
         11   -1    0    0    0    0 -0.00000000000E+00 -0.00000000000E+00 -0.45593999997E+02  0.45594000000E+02  0.51100000000E-03 0. -1.
    9900012    2    1    2    0    0 -0.50410167210E+01 -0.39998790036E+02 -0.52773862889E+01  0.50528857609E+02  0.29999993188E+02 0.  0.
         12    1    1    2    0    0  0.50410167210E+01  0.39998790036E+02  0.52773862889E+01  0.40659142391E+02  0.00000000000E+00 0. -1.
         11    1    3    3    0    0 -0.39932483152E+01 -0.52285824770E+01  0.16897243696E+01  0.67925897515E+01  0.51100000000E-03 0. -1.
        -11    1    3    3    0    0 -0.66998024504E+00 -0.21049482373E+01  0.76391513482E+01  0.79521263943E+01  0.51100000000E-03 0.  1.
         12    1    3    3    0    0 -0.37778816072E+00 -0.32665259322E+02 -0.14606262007E+02  0.35784141463E+02  0.00000000000E+00 0. -1.
</event>
<event>
 7    1  0.2432574E-011  0.5052883E+02  0.7816164E-02  0.1300439E+00
        -11   -1    0    0    0    0  0.00000000000E+00  0.00000000000E+00  0.45593999997E+02  0.45594000000E+02  0.51100000000E-03 0. -1.
         11   -1    0    0    0    0 -0.00000000000E+00 -0.00000000000E+00 -0.45593999997E+02  0.45594000000E+02  0.51100000000E-03 0.  1.
    9900012    2    1    2    0    0 -0.38423508354E+02  0.80288060201E+01 -0.10599085325E+02  0.50528827233E+02  0.29999900858E+02 0.  0.
         12    1    1    2    0    0  0.38423508354E+02 -0.80288060201E+01  0.10599085325E+02  0.40659172767E+02  0.00000000000E+00 0. -1.
         11    1    3    3    0    0 -0.62215252268E+00  0.45506996554E+01 -0.58743961265E+01  0.74568405660E+01  0.51100000000E-03 0. -1.
        -11    1    3    3    0    0 -0.14730143730E+02 -0.78391881326E+01 -0.48408000040E+01  0.17374215085E+02  0.51100000000E-03 0.  1.
         12    1    3    3    0    0 -0.23071212102E+02  0.11317294497E+02  0.11611080575E+00  0.25697771582E+02  0.00000000000E+00 0. -1.
</event>
<event>
 7    1  0.2432574E-011  0.5052886E+02  0.7816164E-02  0.1300439E+00
        -11   -1    0    0    0    0  0.00000000000E+00  0.00000000000E+00  0.45593999997E+02  0.45594000000E+02  0.51100000000E-03 0.  1.
         11   -1    0    0    0    0 -0.00000000000E+00 -0.00000000000E+00 -0.45593999997E+02  0.45594000000E+02  0.51100000000E-03 0. -1.
    9900012    2    1    2    0    0  0.38654175039E+02  0.47652309960E+01  0.11675329232E+02  0.50528856046E+02  0.29999988437E+02 0.  0.
         12    1    1    2    0    0 -0.38654175039E+02 -0.47652309960E+01 -0.11675329232E+02  0.40659143954E+02  0.00000000000E+00 0. -1.
         11    1    3    3    0    0  0.85044507591E+01  0.72820746675E+01  0.32101469978E+01  0.11647288877E+02  0.51100000000E-03 0.  1.
        -11    1    3    3    0    0  0.16429533902E+02  0.10111251796E+02  0.47549831293E+01  0.19868992474E+02  0.51100000000E-03 0. -1.
         12    1    3    3    0    0  0.13720190378E+02 -0.12628095467E+02  0.37101991050E+01  0.19012574695E+02  0.00000000000E+00 0. -1.
</event>
<event>
 7    1  0.2432574E-011  0.5052886E+02  0.7816164E-02  0.1300439E+00
        -11   -1    0    0    0    0  0.00000000000E+00  0.00000000000E+00  0.45593999997E+02  0.45594000000E+02  0.51100000000E-03 0.  1.
         11   -1    0    0    0    0 -0.00000000000E+00 -0.00000000000E+00 -0.45593999997E+02  0.45594000000E+02  0.51100000000E-03 0. -1.
    9900012    2    1    2    0    0 -0.35195591498E+01  0.38880310288E+02  0.11362215617E+02  0.50528858734E+02  0.29999996609E+02 0.  0.
         12    1    1    2    0    0  0.35195591498E+01 -0.38880310288E+02 -0.11362215617E+02  0.40659141266E+02  0.00000000000E+00 0. -1.
         11    1    3    3    0    0 -0.12635386744E+02  0.97669414899E+01  0.99741760373E+01  0.18828975865E+02  0.51100000000E-03 0. -1.
        -11    1    3    3    0    0  0.37430209599E+00  0.81452743746E+01 -0.27573469033E+01  0.86074711096E+01  0.51100000000E-03 0.  1.
        -12    1    3    3    0    0  0.87415254982E+01  0.20968094424E+02  0.41453864835E+01  0.23092411760E+02  0.00000000000E+00 0.  1.
</event>
<event>
 7    1  0.2432574E-011  0.5052885E+02  0.7816164E-02  0.1300439E+00
        -11   -1    0    0    0    0  0.00000000000E+00  0.00000000000E+00  0.45593999997E+02  0.45594000000E+02  0.51100000000E-03 0.  1.
         11   -1    0    0    0    0 -0.00000000000E+00 -0.00000000000E+00 -0.45593999997E+02  0.45594000000E+02  0.51100000000E-03 0. -1.
    9900012    2    1    2    0    0  0.13483257983E+02  0.30330942836E+02  0.23481946864E+02  0.50528853825E+02  0.29999981687E+02 0.  0.
         12    1    1    2    0    0 -0.13483257983E+02 -0.30330942836E+02 -0.23481946864E+02  0.40659146175E+02  0.00000000000E+00 0. -1.
         11    1    3    3    0    0  0.10570110050E+02  0.63883118170E+01  0.90743013958E+01  0.15325818100E+02  0.51100000000E-03 0. -1.
        -11    1    3    3    0    0 -0.56830177728E+01  0.39077567006E+01  0.11219744176E+02  0.13170038462E+02  0.51100000000E-03 0.  1.
         12    1    3    3    0    0  0.85961657062E+01  0.20034874318E+02  0.31879012918E+01  0.22032997264E+02  0.00000000000E+00 0. -1.
</event>
<event>
 7    1  0.2432574E-011  0.5052886E+02  0.7816164E-02  0.1300439E+00
        -11   -1    0    0    0    0  0.00000000000E+00  0.00000000000E+00  0.45593999997E+02  0.45594000000E+02  0.51100000000E-03 0.  1.
         11   -1    0    0    0    0 -0.00000000000E+00 -0.00000000000E+00 -0.45593999997E+02  0.45594000000E+02  0.51100000000E-03 0. -1.
    9900012    2    1    2    0    0  0.33842631073E+02 -0.22422414301E+02  0.22533232789E+01  0.50528858262E+02  0.29999995174E+02 0.  0.
         12    1    1    2    0    0 -0.33842631073E+02  0.22422414301E+02 -0.22533232789E+01  0.40659141738E+02  0.00000000000E+00 0. -1.
         11    1    3    3    0    0  0.13584999221E+01 -0.50395299719E+01  0.72035136751E+01  0.88956727629E+01  0.51100000000E-03 0. -1.
        -11    1    3    3    0    0  0.20081667005E+01 -0.63110231993E+01  0.43224136488E+01  0.79085401518E+01  0.51100000000E-03 0.  1.
        -12    1    3    3    0    0  0.30475964450E+02 -0.11071861130E+02 -0.92726040450E+01  0.33724645348E+02  0.00000000000E+00 0.  1.
</event>
<event>
 7    1  0.2432574E-011  0.5052886E+02  0.7816164E-02  0.1300439E+00
        -11   -1    0    0    0    0  0.00000000000E+00  0.00000000000E+00  0.45593999997E+02  0.45594000000E+02  0.51100000000E-03 0.  1.
         11   -1    0    0    0    0 -0.00000000000E+00 -0.00000000000E+00 -0.45593999997E+02  0.45594000000E+02  0.51100000000E-03 0. -1.
    9900012    2    1    2    0    0  0.10613778461E+02 -0.21494291442E+02  0.32840658350E+02  0.50528859593E+02  0.29999999218E+02 0.  0.
         12    1    1    2    0    0 -0.10613778461E+02  0.21494291442E+02 -0.32840658350E+02  0.40659140407E+02  0.00000000000E+00 0. -1.
         11    1    3    3    0    0 -0.26207348204E+01 -0.78320835261E+01  0.67671719689E+00  0.82865994102E+01  0.51100000000E-03 0. -1.
        -11    1    3    3    0    0  0.93443699426E+01 -0.85102071728E+01  0.38654728370E+01  0.13216760430E+02  0.51100000000E-03 0.  1.
         12    1    3    3    0    0  0.38901433388E+01 -0.51520007431E+01  0.28298468316E+02  0.29025499753E+02  0.00000000000E+00 0. -1.
</event>
<event>
 7    1  0.2432574E-011  0.5052883E+02  0.7816164E-02  0.1300439E+00
        -11   -1    0    0    0    0  0.00000000000E+00  0.00000000000E+00  0.45593999997E+02  0.45594000000E+02  0.51100000000E-03 0.  1.
         11   -1    0    0    0    0 -0.00000000000E+00 -0.00000000000E+00 -0.45593999997E+02  0.45594000000E+02  0.51100000000E-03 0. -1.
    9900012    2    1    2    0    0 -0.12920433667E+02 -0.37971489795E+02 -0.66630483987E+01  0.50528833047E+02  0.29999918529E+02 0.  0.
         12    1    1    2    0    0  0.12920433667E+02  0.37971489795E+02  0.66630483987E+01  0.40659166953E+02  0.00000000000E+00 0. -1.
         11    1    3    3    0    0 -0.21340127764E+01  0.28323804133E+01  0.19941248341E+01  0.40685284134E+01  0.51100000000E-03 0. -1.
        -11    1    3    3    0    0 -0.68611908509E+01 -0.78353083860E+01 -0.82004294872E+01  0.13255755031E+02  0.51100000000E-03 0.  1.
         12    1    3    3    0    0 -0.39252300396E+01 -0.32968561822E+02 -0.45674374560E+00  0.33204549603E+02  0.00000000000E+00 0. -1.
</event>
<event>
 7    1  0.2432574E-011  0.5052888E+02  0.7816164E-02  0.1300439E+00
        -11   -1    0    0    0    0  0.00000000000E+00  0.00000000000E+00  0.45593999997E+02  0.45594000000E+02  0.51100000000E-03 0. -1.
         11   -1    0    0    0    0 -0.00000000000E+00 -0.00000000000E+00 -0.45593999997E+02  0.45594000000E+02  0.51100000000E-03 0.  1.
    9900012    2    1    2    0    0  0.24514449530E+01 -0.33357568291E+02 -0.23117676123E+02  0.50528881785E+02  0.30000066674E+02 0.  0.
         12    1    1    2    0    0 -0.24514449530E+01  0.33357568291E+02  0.23117676123E+02  0.40659118215E+02  0.00000000000E+00 0. -1.
         11    1    3    3    0    0  0.83314053621E+01 -0.41667291992E+01 -0.21319386447E+01  0.95561032944E+01  0.51100000000E-03 0. -1.
        -11    1    3    3    0    0  0.26520995227E+00 -0.17688680459E+01 -0.11007333594E+02  0.11151709447E+02  0.51100000000E-03 0.  1.
        -12    1    3    3    0    0 -0.61451703614E+01 -0.27421971046E+02 -0.99784038846E+01  0.29821069044E+02  0.00000000000E+00 0.  1.
</event>
<event>
 7    1  0.2432574E-011  0.5052887E+02  0.7816164E-02  0.1300439E+00
        -11   -1    0    0    0    0  0.00000000000E+00  0.00000000000E+00  0.45593999997E+02  0.45594000000E+02  0.51100000000E-03 0.  1.
         11   -1    0    0    0    0 -0.00000000000E+00 -0.00000000000E+00 -0.45593999997E+02  0.45594000000E+02  0.51100000000E-03 0. -1.
    9900012    2    1    2    0    0 -0.30493000790E+02 -0.16476378578E+02  0.21257258091E+02  0.50528866097E+02  0.30000018988E+02 0.  0.
         12    1    1    2    0    0  0.30493000790E+02  0.16476378578E+02 -0.21257258091E+02  0.40659133903E+02  0.00000000000E+00 0. -1.
         11    1    3    3    0    0 -0.17723354393E+02 -0.73406821624E+01  0.17383666325E+02  0.25888120069E+02  0.51100000000E-03 0. -1.
        -11    1    3    3    0    0 -0.88145997433E+00 -0.12714333727E-01  0.88171589973E+01  0.88611187999E+01  0.51100000000E-03 0.  1.
         12    1    3    3    0    0 -0.11888186423E+02 -0.91229820816E+01 -0.49435672315E+01  0.15779627228E+02  0.00000000000E+00 0. -1.
</event>
<event>
 7    1  0.2432574E-011  0.5052886E+02  0.7816164E-02  0.1300439E+00
        -11   -1    0    0    0    0  0.00000000000E+00  0.00000000000E+00  0.45593999997E+02  0.45594000000E+02  0.51100000000E-03 0.  1.
         11   -1    0    0    0    0 -0.00000000000E+00 -0.00000000000E+00 -0.45593999997E+02  0.45594000000E+02  0.51100000000E-03 0. -1.
    9900012    2    1    2    0    0  0.28874166072E+02 -0.12265216982E+02  0.25865272628E+02  0.50528863978E+02  0.30000012546E+02 0.  0.
         12    1    1    2    0    0 -0.28874166072E+02  0.12265216982E+02 -0.25865272628E+02  0.40659136022E+02  0.00000000000E+00 0. -1.
         11    1    3    3    0    0  0.13061624922E+02 -0.13534307958E+02  0.96506058501E+01  0.21140428828E+02  0.51100000000E-03 0. -1.
        -11    1    3    3    0    0  0.10977482075E+02 -0.45912252367E+01  0.18006242284E+02  0.21582613913E+02  0.51100000000E-03 0.  1.
        -12    1    3    3    0    0  0.48350590748E+01  0.58603162129E+01 -0.17915755060E+01  0.78058212358E+01  0.00000000000E+00 0.  1.
</event>
<event>
 7    1  0.2432574E-011  0.5052886E+02  0.7816164E-02  0.1300439E+00
        -11   -1    0    0    0    0  0.00000000000E+00  0.00000000000E+00  0.45593999997E+02  0.45594000000E+02  0.51100000000E-03 0.  1.
         11   -1    0    0    0    0 -0.00000000000E+00 -0.00000000000E+00 -0.45593999997E+02  0.45594000000E+02  0.51100000000E-03 0. -1.
    9900012    2    1    2    0    0  0.17837778112E+02  0.36086483064E+02 -0.57222960225E+01  0.50528864991E+02  0.30000015628E+02 0.  0.
         12    1    1    2    0    0 -0.17837778112E+02 -0.36086483064E+02  0.57222960225E+01  0.40659135009E+02  0.00000000000E+00 0. -1.
         11    1    3    3    0    0 -0.14408299786E+01  0.25920260784E+02 -0.57123789081E+01  0.26581331479E+02  0.51100000000E-03 0. -1.
        -11    1    3    3    0    0  0.82363549582E+01  0.74396686337E+01 -0.41415563120E+01  0.11846463663E+02  0.51100000000E-03 0.  1.
        -12    1    3    3    0    0  0.11042253133E+02  0.27265536455E+01  0.41316391976E+01  0.12101069849E+02  0.00000000000E+00 0.  1.
</event>
<event>
 7    1  0.2432574E-011  0.5052886E+02  0.7816164E-02  0.1300439E+00
        -11   -1    0    0    0    0  0.00000000000E+00  0.00000000000E+00  0.45593999997E+02  0.45594000000E+02  0.51100000000E-03 0.  1.
         11   -1    0    0    0    0 -0.00000000000E+00 -0.00000000000E+00 -0.45593999997E+02  0.45594000000E+02  0.51100000000E-03 0. -1.
    9900012    2    1    2    0    0  0.23494288567E+02  0.33136222912E+02  0.17818557163E+01  0.50528857437E+02  0.29999992666E+02 0.  0.
         12    1    1    2    0    0 -0.23494288567E+02 -0.33136222912E+02 -0.17818557163E+01  0.40659142563E+02  0.00000000000E+00 0. -1.
         11    1    3    3    0    0  0.38935722690E+01 -0.20663744250E+01  0.74783925163E+01  0.86807927730E+01  0.51100000000E-03 0. -1.
        -11    1    3    3    0    0  0.30242049263E+01  0.13796192377E+02  0.26068616555E+00  0.14126170645E+02  0.51100000000E-03 0.  1.
        -12    1    3    3    0    0  0.16576511372E+02  0.21406404960E+02 -0.59572229656E+01  0.27721894020E+02  0.00000000000E+00 0.  1.
</event>
<event>
 7    1  0.2432574E-011  0.5052886E+02  0.7816164E-02  0.1300439E+00
        -11   -1    0    0    0    0  0.00000000000E+00  0.00000000000E+00  0.45593999997E+02  0.45594000000E+02  0.51100000000E-03 0. -1.
         11   -1    0    0    0    0 -0.00000000000E+00 -0.00000000000E+00 -0.45593999997E+02  0.45594000000E+02  0.51100000000E-03 0.  1.
    9900012    2    1    2    0    0  0.39388656912E+02  0.10018243536E+02  0.11551891249E+01  0.50528856393E+02  0.29999989493E+02 0.  0.
         12    1    1    2    0    0 -0.39388656912E+02 -0.10018243536E+02 -0.11551891249E+01  0.40659143607E+02  0.00000000000E+00 0. -1.
         11    1    3    3    0    0  0.65106548984E+01  0.87416174943E+01  0.59375830137E+01  0.12412066545E+02  0.51100000000E-03 0. -1.
        -11    1    3    3    0    0  0.13905561732E+02 -0.47950206126E+01  0.54944727953E+01  0.15701786565E+02  0.51100000000E-03 0.  1.
        -12    1    3    3    0    0  0.18972440282E+02  0.60716466545E+01 -0.10276866684E+02  0.22415003283E+02  0.00000000000E+00 0.  1.
</event>
<event>
 7    1  0.2432574E-011  0.5052886E+02  0.7816164E-02  0.1300439E+00
        -11   -1    0    0    0    0  0.00000000000E+00  0.00000000000E+00  0.45593999997E+02  0.45594000000E+02  0.51100000000E-03 0. -1.
         11   -1    0    0    0    0 -0.00000000000E+00 -0.00000000000E+00 -0.45593999997E+02  0.45594000000E+02  0.51100000000E-03 0.  1.
    9900012    2    1    2    0    0  0.34050089100E+02 -0.21345241976E+02  0.61755773289E+01  0.50528859846E+02  0.29999999987E+02 0.  0.
         12    1    1    2    0    0 -0.34050089100E+02  0.21345241976E+02 -0.61755773289E+01  0.40659140154E+02  0.00000000000E+00 0. -1.
         11    1    3    3    0    0  0.12637566919E+02 -0.17549243349E+02  0.27088664228E+01  0.21794999365E+02  0.51100000000E-03 0. -1.
        -11    1    3    3    0    0 -0.15217189348E+01  0.21274678811E+01 -0.31939717051E+01  0.41283415091E+01  0.51100000000E-03 0.  1.
         12    1    3    3    0    0  0.22934241116E+02 -0.59234665080E+01  0.66606826112E+01  0.24605518972E+02  0.00000000000E+00 0. -1.
</event>
<event>
 7    1  0.2432574E-011  0.5052882E+02  0.7816164E-02  0.1300439E+00
        -11   -1    0    0    0    0  0.00000000000E+00  0.00000000000E+00  0.45593999997E+02  0.45594000000E+02  0.51100000000E-03 0. -1.
         11   -1    0    0    0    0 -0.00000000000E+00 -0.00000000000E+00 -0.45593999997E+02  0.45594000000E+02  0.51100000000E-03 0.  1.
    9900012    2    1    2    0    0 -0.91222829987E+01  0.14100733093E+02 -0.37028669834E+02  0.50528817636E+02  0.29999871685E+02 0.  0.
         12    1    1    2    0    0  0.91222829987E+01 -0.14100733093E+02  0.37028669834E+02  0.40659182364E+02  0.00000000000E+00 0. -1.
         11    1    3    3    0    0  0.10649563052E+02  0.51194129316E+01 -0.13001104794E+02  0.17568446377E+02  0.51100000000E-03 0. -1.
        -11    1    3    3    0    0 -0.22902452225E+01  0.32141977104E+01 -0.26729259222E+01  0.47666364816E+01  0.51100000000E-03 0.  1.
        -12    1    3    3    0    0 -0.17481600828E+02  0.57671224514E+01 -0.21354639117E+02  0.28193734778E+02  0.00000000000E+00 0.  1.
</event>
<event>
 7    1  0.2432574E-011  0.5052887E+02  0.7816164E-02  0.1300439E+00
        -11   -1    0    0    0    0  0.00000000000E+00  0.00000000000E+00  0.45593999997E+02  0.45594000000E+02  0.51100000000E-03 0. -1.
         11   -1    0    0    0    0 -0.00000000000E+00 -0.00000000000E+00 -0.45593999997E+02  0.45594000000E+02  0.51100000000E-03 0.  1.
    9900012    2    1    2    0    0 -0.18874360640E+02 -0.65586324155E+01 -0.35410560138E+02  0.50528869192E+02  0.30000028397E+02 0.  0.
         12    1    1    2    0    0  0.18874360640E+02  0.65586324155E+01  0.35410560138E+02  0.40659130808E+02  0.00000000000E+00 0. -1.
         11    1    3    3    0    0  0.37379126167E+00 -0.22582652983E+01 -0.91287514018E+01  0.94113540196E+01  0.51100000000E-03 0.  1.
        -11    1    3    3    0    0  0.28657357921E+01  0.28191600097E+01 -0.14543187091E+02  0.15088551813E+02  0.51100000000E-03 0. -1.
         12    1    3    3    0    0 -0.22113887693E+02 -0.71195271269E+01 -0.11738621645E+02  0.26028963359E+02  0.00000000000E+00 0. -1.
</event>
<event>
 7    1  0.2432574E-011  0.5052880E+02  0.7816164E-02  0.1300439E+00
        -11   -1    0    0    0    0  0.00000000000E+00  0.00000000000E+00  0.45593999997E+02  0.45594000000E+02  0.51100000000E-03 0.  1.
         11   -1    0    0    0    0 -0.00000000000E+00 -0.00000000000E+00 -0.45593999997E+02  0.45594000000E+02  0.51100000000E-03 0. -1.
    9900012    2    1    2    0    0 -0.13135033943E+02 -0.16913483481E+01  0.38441909739E+02  0.50528804234E+02  0.29999830950E+02 0.  0.
         12    1    1    2    0    0  0.13135033943E+02  0.16913483481E+01 -0.38441909739E+02  0.40659195766E+02  0.00000000000E+00 0. -1.
         11    1    3    3    0    0 -0.49369194478E+01 -0.93263261255E+01  0.16219047483E+02  0.19349703722E+02  0.51100000000E-03 0. -1.
        -11    1    3    3    0    0  0.70880127323E+00 -0.70887339931E+00 -0.29976171333E+01  0.31607925399E+01  0.51100000000E-03 0.  1.
        -12    1    3    3    0    0 -0.89069157687E+01  0.83438511768E+01  0.25220479390E+02  0.28018307972E+02  0.00000000000E+00 0.  1.
</event>
<event>
 7    1  0.2432574E-011  0.5052885E+02  0.7816164E-02  0.1300439E+00
        -11   -1    0    0    0    0  0.00000000000E+00  0.00000000000E+00  0.45593999997E+02  0.45594000000E+02  0.51100000000E-03 0. -1.
         11   -1    0    0    0    0 -0.00000000000E+00 -0.00000000000E+00 -0.45593999997E+02  0.45594000000E+02  0.51100000000E-03 0.  1.
    9900012    2    1    2    0    0 -0.92653108666E+01 -0.32715664640E+02  0.22293622717E+02  0.50528852048E+02  0.29999976286E+02 0.  0.
         12    1    1    2    0    0  0.92653108666E+01  0.32715664640E+02 -0.22293622717E+02  0.40659147952E+02  0.00000000000E+00 0. -1.
         11    1    3    3    0    0  0.10700649038E+00  0.32527462019E+01  0.57432434350E+01  0.66012615202E+01  0.51100000000E-03 0. -1.
        -11    1    3    3    0    0 -0.48370374186E+01 -0.20166957902E+02  0.17950680089E+02  0.27428635364E+02  0.51100000000E-03 0.  1.
        -12    1    3    3    0    0 -0.45352799384E+01 -0.15801452941E+02 -0.14003008075E+01  0.16498955164E+02  0.00000000000E+00 0.  1.
</event>
<event>
 7    1  0.4017378E-011  0.5052886E+02  0.7816164E-02  0.1300439E+00
        -11   -1    0    0    0    0  0.00000000000E+00  0.00000000000E+00  0.45593999997E+02  0.45594000000E+02  0.51100000000E-03 0.  1.
         11   -1    0    0    0    0 -0.00000000000E+00 -0.00000000000E+00 -0.45593999997E+02  0.45594000000E+02  0.51100000000E-03 0. -1.
    9900012    2    1    2    0    0  0.27450757969E+02  0.57962727116E+01  0.29428295010E+02  0.50528862803E+02  0.30000008976E+02 0.  0.
         12    1    1    2    0    0 -0.27450757969E+02 -0.57962727116E+01 -0.29428295010E+02  0.40659137197E+02  0.00000000000E+00 0. -1.
         11    1    3    3    0    0  0.56198947302E+01  0.11697661241E+02  0.14837181800E+02  0.19711936975E+02  0.51100000000E-03 0. -1.
        -11    1    3    3    0    0  0.13437152435E+02  0.22264561340E+01  0.13342078131E+02  0.19066337393E+02  0.51100000000E-03 0.  1.
         12    1    3    3    0    0  0.83937108043E+01 -0.81278446632E+01  0.12490350788E+01  0.11750588435E+02  0.00000000000E+00 0. -1.
</event>
<event>
 7    1  0.2432574E-011  0.5052886E+02  0.7816164E-02  0.1300439E+00
        -11   -1    0    0    0    0  0.00000000000E+00  0.00000000000E+00  0.45593999997E+02  0.45594000000E+02  0.51100000000E-03 0. -1.
         11   -1    0    0    0    0 -0.00000000000E+00 -0.00000000000E+00 -0.45593999997E+02  0.45594000000E+02  0.51100000000E-03 0.  1.
    9900012    2    1    2    0    0  0.26234624288E+02  0.27875793469E+02 -0.13705847115E+02  0.50528860582E+02  0.30000002225E+02 0.  0.
         12    1    1    2    0    0 -0.26234624288E+02 -0.27875793469E+02  0.13705847115E+02  0.40659139418E+02  0.00000000000E+00 0. -1.
         11    1    3    3    0    0 -0.31722476329E+01  0.45613614465E+01 -0.21099494288E+01  0.59431523742E+01  0.51100000000E-03 0.  1.
        -11    1    3    3    0    0 -0.80896726763E+00  0.22575226743E+01  0.39410981826E+01  0.46133601433E+01  0.51100000000E-03 0. -1.
        -12    1    3    3    0    0  0.30215839189E+02  0.21056909348E+02 -0.15536995869E+02  0.39972348065E+02  0.00000000000E+00 0.  1.
</event>
<event>
 7    1  0.2432574E-011  0.5052886E+02  0.7816164E-02  0.1300439E+00
        -11   -1    0    0    0    0  0.00000000000E+00  0.00000000000E+00  0.45593999997E+02  0.45594000000E+02  0.51100000000E-03 0. -1.
         11   -1    0    0    0    0 -0.00000000000E+00 -0.00000000000E+00 -0.45593999997E+02  0.45594000000E+02  0.51100000000E-03 0.  1.
    9900012    2    1    2    0    0 -0.16114312928E+02  0.27870355878E+02 -0.24834208303E+02  0.50528859331E+02  0.29999998423E+02 0.  0.
         12    1    1    2    0    0  0.16114312928E+02 -0.27870355878E+02  0.24834208303E+02  0.40659140669E+02  0.00000000000E+00 0. -1.
         11    1    3    3    0    0  0.29812450007E+01  0.47105495084E-01 -0.20474113535E+01  0.36168956570E+01  0.51100000000E-03 0. -1.
        -11    1    3    3    0    0 -0.67443351209E+01  0.20762002601E+02 -0.24227911346E+02  0.32611937948E+02  0.51100000000E-03 0.  1.
         12    1    3    3    0    0 -0.12351222807E+02  0.70612477817E+01  0.14411143968E+01  0.14300025726E+02  0.00000000000E+00 0. -1.
</event>
<event>
 7    1  0.2432574E-011  0.5052886E+02  0.7816164E-02  0.1300439E+00
        -11   -1    0    0    0    0  0.00000000000E+00  0.00000000000E+00  0.45593999997E+02  0.45594000000E+02  0.51100000000E-03 0.  1.
         11   -1    0    0    0    0 -0.00000000000E+00 -0.00000000000E+00 -0.45593999997E+02  0.45594000000E+02  0.51100000000E-03 0. -1.
    9900012    2    1    2    0    0  0.16232776451E+02 -0.91061265419E+01  0.36148875948E+02  0.50528858295E+02  0.29999995272E+02 0.  0.
         12    1    1    2    0    0 -0.16232776451E+02  0.91061265419E+01 -0.36148875948E+02  0.40659141705E+02  0.00000000000E+00 0. -1.
         11    1    3    3    0    0 -0.14997580430E+01 -0.94860720791E+00 -0.29047370567E+01  0.34039135495E+01  0.51100000000E-03 0. -1.
        -11    1    3    3    0    0  0.23993747632E+01  0.38761823798E+01  0.17416032771E+02  0.18002777198E+02  0.51100000000E-03 0.  1.
        -12    1    3    3    0    0  0.15333159731E+02 -0.12033701714E+02  0.21637580234E+02  0.29122167547E+02  0.00000000000E+00 0.  1.
</event>
<event>
 7    1  0.2432574E-011  0.5052886E+02  0.7816164E-02  0.1300439E+00
        -11   -1    0    0    0    0  0.00000000000E+00  0.00000000000E+00  0.45593999997E+02  0.45594000000E+02  0.51100000000E-03 0.  1.
         11   -1    0    0    0    0 -0.00000000000E+00 -0.00000000000E+00 -0.45593999997E+02  0.45594000000E+02  0.51100000000E-03 0. -1.
    9900012    2    1    2    0    0 -0.10864189672E+02  0.26967354973E+02  0.28423525540E+02  0.50528860123E+02  0.30000000830E+02 0.  0.
         12    1    1    2    0    0  0.10864189672E+02 -0.26967354973E+02 -0.28423525540E+02  0.40659139877E+02  0.00000000000E+00 0. -1.
         11    1    3    3    0    0 -0.55762695405E+01  0.52407516170E+01  0.12382824527E+02  0.14556599982E+02  0.51100000000E-03 0.  1.
        -11    1    3    3    0    0  0.31977975512E+01  0.16988926466E+02  0.19120941788E+02  0.25777120607E+02  0.51100000000E-03 0. -1.
         12    1    3    3    0    0 -0.84857176824E+01  0.47376768891E+01 -0.30802407753E+01  0.10195139534E+02  0.00000000000E+00 0. -1.
</event>
<event>
 7    1  0.2432574E-011  0.5052887E+02  0.7816164E-02  0.1300439E+00
        -11   -1    0    0    0    0  0.00000000000E+00  0.00000000000E+00  0.45593999997E+02  0.45594000000E+02  0.51100000000E-03 0.  1.
         11   -1    0    0    0    0 -0.00000000000E+00 -0.00000000000E+00 -0.45593999997E+02  0.45594000000E+02  0.51100000000E-03 0. -1.
    9900012    2    1    2    0    0  0.30469922868E+02 -0.22549521661E+01  0.26826553056E+02  0.50528868704E+02  0.30000026913E+02 0.  0.
         12    1    1    2    0    0 -0.30469922868E+02  0.22549521661E+01 -0.26826553056E+02  0.40659131296E+02  0.00000000000E+00 0. -1.
         11    1    3    3    0    0  0.18070386859E+02  0.95909838421E+01  0.69124656388E+01  0.21594166660E+02  0.51100000000E-03 0. -1.
        -11    1    3    3    0    0  0.92791325422E+01 -0.17311488137E+01  0.13772869678E+02  0.16697039150E+02  0.51100000000E-03 0.  1.
        -12    1    3    3    0    0  0.31204034673E+01 -0.10114787194E+02  0.61412177392E+01  0.12237662894E+02  0.00000000000E+00 0.  1.
</event>
<event>
 7    1  0.2432574E-011  0.5052886E+02  0.7816164E-02  0.1300439E+00
        -11   -1    0    0    0    0  0.00000000000E+00  0.00000000000E+00  0.45593999997E+02  0.45594000000E+02  0.51100000000E-03 0.  1.
         11   -1    0    0    0    0 -0.00000000000E+00 -0.00000000000E+00 -0.45593999997E+02  0.45594000000E+02  0.51100000000E-03 0. -1.
    9900012    2    1    2    0    0  0.38504609212E+01 -0.36046739744E+02  0.18411204978E+02  0.50528856327E+02  0.29999989293E+02 0.  0.
         12    1    1    2    0    0 -0.38504609212E+01  0.36046739744E+02 -0.18411204978E+02  0.40659143673E+02  0.00000000000E+00 0. -1.
         11    1    3    3    0    0  0.47066804696E+01 -0.43023080934E+01  0.57357728896E+01  0.85768168265E+01  0.51100000000E-03 0. -1.
        -11    1    3    3    0    0  0.54382276080E+01 -0.32631560118E+02  0.13100655966E+02  0.35581177921E+02  0.51100000000E-03 0.  1.
        -12    1    3    3    0    0 -0.62944471565E+01  0.88712846757E+00 -0.42522387806E+00  0.63708615799E+01  0.00000000000E+00 0.  1.
</event>
<event>
 7    1  0.2432574E-011  0.5052886E+02  0.7816164E-02  0.1300439E+00
        -11   -1    0    0    0    0  0.00000000000E+00  0.00000000000E+00  0.45593999997E+02  0.45594000000E+02  0.51100000000E-03 0.  1.
         11   -1    0    0    0    0 -0.00000000000E+00 -0.00000000000E+00 -0.45593999997E+02  0.45594000000E+02  0.51100000000E-03 0. -1.
    9900012    2    1    2    0    0  0.25814908725E+02  0.12456719888E+02  0.28837238952E+02  0.50528859167E+02  0.29999997925E+02 0.  0.
         12    1    1    2    0    0 -0.25814908725E+02 -0.12456719888E+02 -0.28837238952E+02  0.40659140833E+02  0.00000000000E+00 0. -1.
         11    1    3    3    0    0  0.63152613067E+01 -0.49608682781E+01 -0.31519817235E+00  0.80369204048E+01  0.51100000000E-03 0. -1.
        -11    1    3    3    0    0  0.47644992763E+01  0.83986808946E+01  0.13371333614E+01  0.97481393102E+01  0.51100000000E-03 0.  1.
        -12    1    3    3    0    0  0.14735148142E+02  0.90189072720E+01  0.27815303763E+02  0.32743799453E+02  0.00000000000E+00 0.  1.
</event>
<event>
 7    1  0.2432574E-011  0.5052890E+02  0.7816164E-02  0.1300439E+00
        -11   -1    0    0    0    0  0.00000000000E+00  0.00000000000E+00  0.45593999997E+02  0.45594000000E+02  0.51100000000E-03 0. -1.
         11   -1    0    0    0    0 -0.00000000000E+00 -0.00000000000E+00 -0.45593999997E+02  0.45594000000E+02  0.51100000000E-03 0.  1.
    9900012    2    1    2    0    0  0.21441989061E+02  0.31966684809E+02 -0.13097135928E+02  0.50528895213E+02  0.30000107491E+02 0.  0.
         12    1    1    2    0    0 -0.21441989061E+02 -0.31966684809E+02  0.13097135928E+02  0.40659104787E+02  0.00000000000E+00 0. -1.
         11    1    3    3    0    0  0.13123170410E+02  0.18267679815E+02 -0.86423671471E+01  0.24095979698E+02  0.51100000000E-03 0. -1.
        -11    1    3    3    0    0  0.57032611467E+01  0.17183912292E+02  0.24475668154E+01  0.18270320548E+02  0.51100000000E-03 0.  1.
        -12    1    3    3    0    0  0.26155575037E+01 -0.34849072976E+01 -0.69023355960E+01  0.81625949677E+01  0.00000000000E+00 0.  1.
</event>
<event>
 7    1  0.2432574E-011  0.5052884E+02  0.7816164E-02  0.1300439E+00
        -11   -1    0    0    0    0  0.00000000000E+00  0.00000000000E+00  0.45593999997E+02  0.45594000000E+02  0.51100000000E-03 0.  1.
         11   -1    0    0    0    0 -0.00000000000E+00 -0.00000000000E+00 -0.45593999997E+02  0.45594000000E+02  0.51100000000E-03 0. -1.
    9900012    2    1    2    0    0  0.24574640649E+01  0.34490681799E+02 -0.21389734502E+02  0.50528843556E+02  0.29999950474E+02 0.  0.
         12    1    1    2    0    0 -0.24574640649E+01 -0.34490681799E+02  0.21389734502E+02  0.40659156444E+02  0.00000000000E+00 0. -1.
         11    1    3    3    0    0 -0.86258753302E+00  0.14336419640E+02 -0.47036813800E+01  0.15112961461E+02  0.51100000000E-03 0. -1.
        -11    1    3    3    0    0  0.36877345804E+01  0.15099084337E+02  0.23473652391E+01  0.15719155766E+02  0.51100000000E-03 0.  1.
         12    1    3    3    0    0 -0.36768298246E+00  0.50551778228E+01 -0.19033418361E+02  0.19696726330E+02  0.00000000000E+00 0. -1.
</event>
<event>
 7    1  0.2432574E-011  0.5052878E+02  0.7816164E-02  0.1300439E+00
        -11   -1    0    0    0    0  0.00000000000E+00  0.00000000000E+00  0.45593999997E+02  0.45594000000E+02  0.51100000000E-03 0.  1.
         11   -1    0    0    0    0 -0.00000000000E+00 -0.00000000000E+00 -0.45593999997E+02  0.45594000000E+02  0.51100000000E-03 0. -1.
    9900012    2    1    2    0    0 -0.20597968848E+02 -0.11662256133E+02  0.33058845548E+02  0.50528784467E+02  0.29999770866E+02 0.  0.
         12    1    1    2    0    0  0.20597968848E+02  0.11662256133E+02 -0.33058845548E+02  0.40659215533E+02  0.00000000000E+00 0. -1.
         11    1    3    3    0    0  0.14714842557E+01 -0.79109670802E+00 -0.10511733248E+01  0.19738453678E+01  0.51100000000E-03 0. -1.
        -11    1    3    3    0    0 -0.14705721893E+02  0.42945918252E+01  0.25186858411E+02  0.29480156245E+02  0.51100000000E-03 0.  1.
         12    1    3    3    0    0 -0.73637312103E+01 -0.15165751250E+02  0.89231604612E+01  0.19074782854E+02  0.00000000000E+00 0. -1.
</event>
<event>
 7    1  0.2432574E-011  0.5052886E+02  0.7816164E-02  0.1300439E+00
        -11   -1    0    0    0    0  0.00000000000E+00  0.00000000000E+00  0.45593999997E+02  0.45594000000E+02  0.51100000000E-03 0.  1.
         11   -1    0    0    0    0 -0.00000000000E+00 -0.00000000000E+00 -0.45593999997E+02  0.45594000000E+02  0.51100000000E-03 0. -1.
    9900012    2    1    2    0    0  0.26294356357E+02  0.30967822309E+02  0.16631670103E+01  0.50528864258E+02  0.30000013400E+02 0.  0.
         12    1    1    2    0    0 -0.26294356357E+02 -0.30967822309E+02 -0.16631670103E+01  0.40659135742E+02  0.00000000000E+00 0. -1.
         11    1    3    3    0    0  0.81306890244E+01  0.43417729270E+01  0.83811889984E+01  0.12458066682E+02  0.51100000000E-03 0.  1.
        -11    1    3    3    0    0  0.75679204116E+01  0.19594763739E+02  0.40683987485E+01  0.21395795240E+02  0.51100000000E-03 0. -1.
         12    1    3    3    0    0  0.10595746921E+02  0.70312856429E+01 -0.10786420737E+02  0.16675002336E+02  0.00000000000E+00 0. -1.
</event>
<event>
 7    1  0.2432574E-011  0.5052886E+02  0.7816164E-02  0.1300439E+00
        -11   -1    0    0    0    0  0.00000000000E+00  0.00000000000E+00  0.45593999997E+02  0.45594000000E+02  0.51100000000E-03 0.  1.
         11   -1    0    0    0    0 -0.00000000000E+00 -0.00000000000E+00 -0.45593999997E+02  0.45594000000E+02  0.51100000000E-03 0. -1.
    9900012    2    1    2    0    0  0.69289385836E+00 -0.38507147862E+02  0.13033984997E+02  0.50528864455E+02  0.30000013998E+02 0.  0.
         12    1    1    2    0    0 -0.69289385836E+00  0.38507147862E+02 -0.13033984997E+02  0.40659135545E+02  0.00000000000E+00 0. -1.
         11    1    3    3    0    0  0.20207564033E+01 -0.36742509808E+01  0.43118070649E+01  0.60145870296E+01  0.51100000000E-03 0.  1.
        -11    1    3    3    0    0 -0.13810618897E+02 -0.18834658107E+02  0.49675547729E+01  0.23877900683E+02  0.51100000000E-03 0. -1.
         12    1    3    3    0    0  0.12482756352E+02 -0.15998238774E+02  0.37546231591E+01  0.20636376743E+02  0.00000000000E+00 0. -1.
</event>
<event>
 7    1  0.2432574E-011  0.5052887E+02  0.7816164E-02  0.1300439E+00
        -11   -1    0    0    0    0  0.00000000000E+00  0.00000000000E+00  0.45593999997E+02  0.45594000000E+02  0.51100000000E-03 0.  1.
         11   -1    0    0    0    0 -0.00000000000E+00 -0.00000000000E+00 -0.45593999997E+02  0.45594000000E+02  0.51100000000E-03 0. -1.
    9900012    2    1    2    0    0  0.17529394329E+02 -0.36629541882E+02 -0.20401240747E+01  0.50528866828E+02  0.30000021211E+02 0.  0.
         12    1    1    2    0    0 -0.17529394329E+02  0.36629541882E+02  0.20401240747E+01  0.40659133172E+02  0.00000000000E+00 0. -1.
         11    1    3    3    0    0  0.53422379557E+01 -0.68950653450E+01 -0.12259540648E+02  0.15045855563E+02  0.51100000000E-03 0. -1.
        -11    1    3    3    0    0  0.12924081883E+01 -0.15068513917E+02  0.13785465283E+01  0.15186534212E+02  0.51100000000E-03 0.  1.
        -12    1    3    3    0    0  0.10894748185E+02 -0.14665962620E+02  0.88408700446E+01  0.20296477053E+02  0.00000000000E+00 0.  1.
</event>
<event>
 7    1  0.2432574E-011  0.5052887E+02  0.7816164E-02  0.1300439E+00
        -11   -1    0    0    0    0  0.00000000000E+00  0.00000000000E+00  0.45593999997E+02  0.45594000000E+02  0.51100000000E-03 0.  1.
         11   -1    0    0    0    0 -0.00000000000E+00 -0.00000000000E+00 -0.45593999997E+02  0.45594000000E+02  0.51100000000E-03 0. -1.
    9900012    2    1    2    0    0 -0.39233576426E+02 -0.99924192175E+01  0.37473728933E+01  0.50528871079E+02  0.30000034133E+02 0.  0.
         12    1    1    2    0    0  0.39233576426E+02  0.99924192175E+01 -0.37473728933E+01  0.40659128921E+02  0.00000000000E+00 0. -1.
         11    1    3    3    0    0 -0.45879788918E+01 -0.82816456497E+01 -0.34136656399E+01  0.10064209772E+02  0.51100000000E-03 0. -1.
        -11    1    3    3    0    0 -0.24930997177E+02 -0.10157856190E+02  0.55959320575E+01  0.27496383735E+02  0.51100000000E-03 0.  1.
         12    1    3    3    0    0 -0.97146003568E+01  0.84470826220E+01  0.15651064757E+01  0.12968277572E+02  0.00000000000E+00 0. -1.
</event>
<event>
 7    1  0.2432574E-011  0.5052886E+02  0.7816164E-02  0.1300439E+00
        -11   -1    0    0    0    0  0.00000000000E+00  0.00000000000E+00  0.45593999997E+02  0.45594000000E+02  0.51100000000E-03 0.  1.
         11   -1    0    0    0    0 -0.00000000000E+00 -0.00000000000E+00 -0.45593999997E+02  0.45594000000E+02  0.51100000000E-03 0. -1.
    9900012    2    1    2    0    0 -0.38552525241E+01 -0.22206458195E+02  0.33840448672E+02  0.50528859282E+02  0.29999998274E+02 0.  0.
         12    1    1    2    0    0  0.38552525241E+01  0.22206458195E+02 -0.33840448672E+02  0.40659140718E+02  0.00000000000E+00 0. -1.
         11    1    3    3    0    0 -0.28377458384E+01 -0.65198175591E+01  0.26629163773E+02  0.27562169471E+02  0.51100000000E-03 0. -1.
        -11    1    3    3    0    0  0.70023882865E+01 -0.75761685621E+01  0.24292094744E+01  0.10598718353E+02  0.51100000000E-03 0.  1.
        -12    1    3    3    0    0 -0.80198949721E+01 -0.81104720738E+01  0.47820754245E+01  0.12367971458E+02  0.00000000000E+00 0.  1.
</event>
<event>
 7    1  0.2432574E-011  0.5052886E+02  0.7816164E-02  0.1300439E+00
        -11   -1    0    0    0    0  0.00000000000E+00  0.00000000000E+00  0.45593999997E+02  0.45594000000E+02  0.51100000000E-03 0.  1.
         11   -1    0    0    0    0 -0.00000000000E+00 -0.00000000000E+00 -0.45593999997E+02  0.45594000000E+02  0.51100000000E-03 0. -1.
    9900012    2    1    2    0    0 -0.42842791716E+01 -0.86743171822E+01  0.39491348941E+02  0.50528862432E+02  0.30000007848E+02 0.  0.
         12    1    1    2    0    0  0.42842791716E+01  0.86743171822E+01 -0.39491348941E+02  0.40659137568E+02  0.00000000000E+00 0. -1.
         11    1    3    3    0    0  0.13020897745E+01 -0.12940006904E+01 -0.93909299210E+00  0.20619824142E+01  0.51100000000E-03 0. -1.
        -11    1    3    3    0    0  0.78962612911E+01 -0.71980076822E+01  0.28593306658E+02  0.30524407330E+02  0.51100000000E-03 0.  1.
        -12    1    3    3    0    0 -0.13482630237E+02 -0.18230880961E+00  0.11837135275E+02  0.17942472688E+02  0.00000000000E+00 0.  1.
</event>
<event>
 7    1  0.2432574E-011  0.5052886E+02  0.7816164E-02  0.1300439E+00
        -11   -1    0    0    0    0  0.00000000000E+00  0.00000000000E+00  0.45593999997E+02  0.45594000000E+02  0.51100000000E-03 0. -1.
         11   -1    0    0    0    0 -0.00000000000E+00 -0.00000000000E+00 -0.45593999997E+02  0.45594000000E+02  0.51100000000E-03 0.  1.
    9900012    2    1    2    0    0  0.14282745246E+02  0.32212414516E+02 -0.20286177985E+02  0.50528862307E+02  0.30000007468E+02 0.  0.
         12    1    1    2    0    0 -0.14282745246E+02 -0.32212414516E+02  0.20286177985E+02  0.40659137693E+02  0.00000000000E+00 0. -1.
         11    1    3    3    0    0 -0.24927232699E+01 -0.19972542551E+01 -0.66412406235E+01  0.73694484963E+01  0.51100000000E-03 0. -1.
        -11    1    3    3    0    0  0.42743900791E+00  0.81191029615E+01  0.23503214581E+01  0.84632469078E+01  0.51100000000E-03 0.  1.
        -12    1    3    3    0    0  0.16348029508E+02  0.26090565809E+02 -0.15995258820E+02  0.34696166903E+02  0.00000000000E+00 0.  1.
</event>
<event>
 7    1  0.2432574E-011  0.5052886E+02  0.7816164E-02  0.1300439E+00
        -11   -1    0    0    0    0  0.00000000000E+00  0.00000000000E+00  0.45593999997E+02  0.45594000000E+02  0.51100000000E-03 0. -1.
         11   -1    0    0    0    0 -0.00000000000E+00 -0.00000000000E+00 -0.45593999997E+02  0.45594000000E+02  0.51100000000E-03 0.  1.
    9900012    2    1    2    0    0  0.40177175835E+02 -0.38376610427E+01 -0.49226472614E+01  0.50528861342E+02  0.30000004535E+02 0.  0.
         12    1    1    2    0    0 -0.40177175835E+02  0.38376610427E+01  0.49226472614E+01  0.40659138658E+02  0.00000000000E+00 0. -1.
         11    1    3    3    0    0  0.34787445606E+01  0.48255561762E+01  0.19457376217E+01  0.62588777973E+01  0.51100000000E-03 0. -1.
        -11    1    3    3    0    0  0.27796522650E+02  0.38098182461E+01 -0.71135988195E+01  0.28944164782E+02  0.51100000000E-03 0.  1.
         12    1    3    3    0    0  0.89019086239E+01 -0.12473035465E+02  0.24521393641E+00  0.15325818762E+02  0.00000000000E+00 0. -1.
</event>
<event>
 7    1  0.2432574E-011  0.5052890E+02  0.7816164E-02  0.1300439E+00
        -11   -1    0    0    0    0  0.00000000000E+00  0.00000000000E+00  0.45593999997E+02  0.45594000000E+02  0.51100000000E-03 0. -1.
         11   -1    0    0    0    0 -0.00000000000E+00 -0.00000000000E+00 -0.45593999997E+02  0.45594000000E+02  0.51100000000E-03 0.  1.
    9900012    2    1    2    0    0 -0.26409666571E+02  0.28389749432E+02  0.12235761039E+02  0.50528902501E+02  0.30000129642E+02 0.  0.
         12    1    1    2    0    0  0.26409666571E+02 -0.28389749432E+02 -0.12235761039E+02  0.40659097499E+02  0.00000000000E+00 0. -1.
         11    1    3    3    0    0 -0.12743718276E+02  0.10891059332E+02  0.18008384074E+02  0.24603240154E+02  0.51100000000E-03 0. -1.
        -11    1    3    3    0    0  0.42173658544E+00  0.64884817142E+01  0.14164921553E+01  0.66546755736E+01  0.51100000000E-03 0.  1.
        -12    1    3    3    0    0 -0.14087684881E+02  0.11010208386E+02 -0.71891151902E+01  0.19270986774E+02  0.00000000000E+00 0.  1.
</event>
<event>
 7    1  0.2432574E-011  0.5052886E+02  0.7816164E-02  0.1300439E+00
        -11   -1    0    0    0    0  0.00000000000E+00  0.00000000000E+00  0.45593999997E+02  0.45594000000E+02  0.51100000000E-03 0.  1.
         11   -1    0    0    0    0 -0.00000000000E+00 -0.00000000000E+00 -0.45593999997E+02  0.45594000000E+02  0.51100000000E-03 0. -1.
    9900012    2    1    2    0    0 -0.42673428593E+01  0.16302646707E+01  0.40401703109E+02  0.50528860903E+02  0.30000003201E+02 0.  0.
         12    1    1    2    0    0  0.42673428593E+01 -0.16302646707E+01 -0.40401703109E+02  0.40659139097E+02  0.00000000000E+00 0. -1.
         11    1    3    3    0    0 -0.69427197362E+01  0.50304033616E+01  0.34115735164E+01  0.92274129329E+01  0.51100000000E-03 0. -1.
        -11    1    3    3    0    0 -0.75796946450E+01 -0.25877410445E+01  0.18070882174E+02  0.19766258054E+02  0.51100000000E-03 0.  1.
        -12    1    3    3    0    0  0.10255071522E+02 -0.81239764644E+00  0.18919247419E+02  0.21535189917E+02  0.00000000000E+00 0.  1.
</event>
<event>
 7    1  0.2432574E-011  0.5052885E+02  0.7816164E-02  0.1300439E+00
        -11   -1    0    0    0    0  0.00000000000E+00  0.00000000000E+00  0.45593999997E+02  0.45594000000E+02  0.51100000000E-03 0.  1.
         11   -1    0    0    0    0 -0.00000000000E+00 -0.00000000000E+00 -0.45593999997E+02  0.45594000000E+02  0.51100000000E-03 0. -1.
    9900012    2    1    2    0    0 -0.35315277102E+01 -0.18118776241E+02  0.36227121558E+02  0.50528854942E+02  0.29999985083E+02 0.  0.
         12    1    1    2    0    0  0.35315277102E+01  0.18118776241E+02 -0.36227121558E+02  0.40659145058E+02  0.00000000000E+00 0. -1.
         11    1    3    3    0    0  0.36522453132E+01  0.31531884373E+01  0.28800816447E+01  0.56192849803E+01  0.51100000000E-03 0. -1.
        -11    1    3    3    0    0  0.29319388204E+01 -0.19554850493E+02  0.23126015977E+02  0.30426979119E+02  0.51100000000E-03 0.  1.
         12    1    3    3    0    0 -0.10115711844E+02 -0.17171141855E+01  0.10221023936E+02  0.14482590843E+02  0.00000000000E+00 0. -1.
</event>
<event>
 7    1  0.2432574E-011  0.5052887E+02  0.7816164E-02  0.1300439E+00
        -11   -1    0    0    0    0  0.00000000000E+00  0.00000000000E+00  0.45593999997E+02  0.45594000000E+02  0.51100000000E-03 0.  1.
         11   -1    0    0    0    0 -0.00000000000E+00 -0.00000000000E+00 -0.45593999997E+02  0.45594000000E+02  0.51100000000E-03 0. -1.
    9900012    2    1    2    0    0 -0.31860210520E+02 -0.89909365322E+01  0.23606246104E+02  0.50528870530E+02  0.30000032464E+02 0.  0.
         12    1    1    2    0    0  0.31860210520E+02  0.89909365322E+01 -0.23606246104E+02  0.40659129470E+02  0.00000000000E+00 0. -1.
         11    1    3    3    0    0 -0.26237072266E+02 -0.17825160294E+02  0.10670364094E+02  0.33466056995E+02  0.51100000000E-03 0. -1.
        -11    1    3    3    0    0 -0.91857495064E+00  0.19037218980E+01  0.68489073120E+00  0.22219389234E+01  0.51100000000E-03 0.  1.
         12    1    3    3    0    0 -0.47045633029E+01  0.69305018636E+01  0.12250991278E+02  0.14840874612E+02  0.00000000000E+00 0. -1.
</event>
<event>
 7    1  0.2432574E-011  0.5052886E+02  0.7816164E-02  0.1300439E+00
        -11   -1    0    0    0    0  0.00000000000E+00  0.00000000000E+00  0.45593999997E+02  0.45594000000E+02  0.51100000000E-03 0.  1.
         11   -1    0    0    0    0 -0.00000000000E+00 -0.00000000000E+00 -0.45593999997E+02  0.45594000000E+02  0.51100000000E-03 0. -1.
    9900012    2    1    2    0    0  0.55875483317E+01  0.25088957753E+02  0.31503792366E+02  0.50528862885E+02  0.30000009226E+02 0.  0.
         12    1    1    2    0    0 -0.55875483317E+01 -0.25088957753E+02 -0.31503792366E+02  0.40659137115E+02  0.00000000000E+00 0. -1.
         11    1    3    3    0    0  0.92286183716E+01  0.59888007106E+01  0.75478508568E+01  0.13341783382E+02  0.51100000000E-03 0. -1.
        -11    1    3    3    0    0 -0.32425088530E+00  0.17919480288E+02  0.27084336472E+02  0.32477287369E+02  0.51100000000E-03 0.  1.
         12    1    3    3    0    0 -0.33168191546E+01  0.11806767546E+01 -0.31283949634E+01  0.47097921345E+01  0.00000000000E+00 0. -1.
</event>
<event>
 7    1  0.2432574E-011  0.5052885E+02  0.7816164E-02  0.1300439E+00
        -11   -1    0    0    0    0  0.00000000000E+00  0.00000000000E+00  0.45593999997E+02  0.45594000000E+02  0.51100000000E-03 0.  1.
         11   -1    0    0    0    0 -0.00000000000E+00 -0.00000000000E+00 -0.45593999997E+02  0.45594000000E+02  0.51100000000E-03 0. -1.
    9900012    2    1    2    0    0  0.13200995596E+02 -0.27546064593E+02  0.26834946778E+02  0.50528851855E+02  0.29999975699E+02 0.  0.
         12    1    1    2    0    0 -0.13200995596E+02  0.27546064593E+02 -0.26834946778E+02  0.40659148145E+02  0.00000000000E+00 0. -1.
         11    1    3    3    0    0  0.63448509028E+01 -0.59067046634E-01 -0.17854464797E+01  0.65915431643E+01  0.51100000000E-03 0. -1.
        -11    1    3    3    0    0  0.19184081684E+01 -0.22370902382E+02  0.11136862905E+02  0.25063265527E+02  0.51100000000E-03 0.  1.
         12    1    3    3    0    0  0.49377365249E+01 -0.51160951644E+01  0.17483530353E+02  0.18874043163E+02  0.00000000000E+00 0. -1.
</event>
<event>
 7    1  0.2432574E-011  0.5052886E+02  0.7816164E-02  0.1300439E+00
        -11   -1    0    0    0    0  0.00000000000E+00  0.00000000000E+00  0.45593999997E+02  0.45594000000E+02  0.51100000000E-03 0.  1.
         11   -1    0    0    0    0 -0.00000000000E+00 -0.00000000000E+00 -0.45593999997E+02  0.45594000000E+02  0.51100000000E-03 0. -1.
    9900012    2    1    2    0    0  0.39762478791E+02  0.80721735455E+01 -0.26364405886E+01  0.50528861736E+02  0.30000005734E+02 0.  0.
         12    1    1    2    0    0 -0.39762478791E+02 -0.80721735455E+01  0.26364405886E+01  0.40659138264E+02  0.00000000000E+00 0. -1.
         11    1    3    3    0    0  0.14037396735E+02 -0.24398303874E+01 -0.97239967201E+01  0.17249851938E+02  0.51100000000E-03 0. -1.
        -11    1    3    3    0    0  0.21965318516E+02  0.43583476447E+01 -0.10346789525E+01  0.22417425644E+02  0.51100000000E-03 0.  1.
         12    1    3    3    0    0  0.37597635408E+01  0.61536562882E+01  0.81222350841E+01  0.10861584155E+02  0.00000000000E+00 0. -1.
</event>
<event>
 7    1  0.2432574E-011  0.5052886E+02  0.7816164E-02  0.1300439E+00
        -11   -1    0    0    0    0  0.00000000000E+00  0.00000000000E+00  0.45593999997E+02  0.45594000000E+02  0.51100000000E-03 0.  1.
         11   -1    0    0    0    0 -0.00000000000E+00 -0.00000000000E+00 -0.45593999997E+02  0.45594000000E+02  0.51100000000E-03 0. -1.
    9900012    2    1    2    0    0 -0.19819720549E+02 -0.12805596287E+02  0.33111341867E+02  0.50528861063E+02  0.30000003686E+02 0.  0.
         12    1    1    2    0    0  0.19819720549E+02  0.12805596287E+02 -0.33111341867E+02  0.40659138937E+02  0.00000000000E+00 0. -1.
         11    1    3    3    0    0 -0.64650247448E+01 -0.11333794923E+02  0.24913143321E+02  0.28123231726E+02  0.51100000000E-03 0. -1.
        -11    1    3    3    0    0 -0.89948304607E+01 -0.47664814959E+00  0.13018196215E+02  0.15830590685E+02  0.51100000000E-03 0.  1.
         12    1    3    3    0    0 -0.43598653439E+01 -0.99515321403E+00 -0.48199976695E+01  0.65750386516E+01  0.00000000000E+00 0. -1.
</event>
<event>
 7    1  0.2432574E-011  0.5052886E+02  0.7816164E-02  0.1300439E+00
        -11   -1    0    0    0    0  0.00000000000E+00  0.00000000000E+00  0.45593999997E+02  0.45594000000E+02  0.51100000000E-03 0. -1.
         11   -1    0    0    0    0 -0.00000000000E+00 -0.00000000000E+00 -0.45593999997E+02  0.45594000000E+02  0.51100000000E-03 0.  1.
    9900012    2    1    2    0    0 -0.10870448199E+02 -0.23439101356E+02 -0.31394383353E+02  0.50528862988E+02  0.30000009538E+02 0.  0.
         12    1    1    2    0    0  0.10870448199E+02  0.23439101356E+02  0.31394383353E+02  0.40659137012E+02  0.00000000000E+00 0. -1.
         11    1    3    3    0    0 -0.11930827324E+00 -0.18595898842E+02 -0.87525630320E+01  0.20553078798E+02  0.51100000000E-03 0. -1.
        -11    1    3    3    0    0 -0.66757306535E+01 -0.71982673083E+01 -0.23242357752E+02  0.25230688182E+02  0.51100000000E-03 0.  1.
        -12    1    3    3    0    0 -0.40754092719E+01  0.23550647944E+01  0.60053743021E+00  0.47450960079E+01  0.00000000000E+00 0.  1.
</event>
<event>
 7    1  0.2432574E-011  0.5052886E+02  0.7816164E-02  0.1300439E+00
        -11   -1    0    0    0    0  0.00000000000E+00  0.00000000000E+00  0.45593999997E+02  0.45594000000E+02  0.51100000000E-03 0.  1.
         11   -1    0    0    0    0 -0.00000000000E+00 -0.00000000000E+00 -0.45593999997E+02  0.45594000000E+02  0.51100000000E-03 0. -1.
    9900012    2    1    2    0    0 -0.14353266630E+02  0.26635956759E+02  0.27160171421E+02  0.50528863670E+02  0.30000011613E+02 0.  0.
         12    1    1    2    0    0  0.14353266630E+02 -0.26635956759E+02 -0.27160171421E+02  0.40659136330E+02  0.00000000000E+00 0. -1.
         11    1    3    3    0    0 -0.22244716644E+02  0.21144253050E+02  0.14526867993E+02  0.33954922317E+02  0.51100000000E-03 0.  1.
        -11    1    3    3    0    0  0.27097805008E+01  0.46557293936E+01  0.74840982781E+01  0.92211959012E+01  0.51100000000E-03 0. -1.
        -12    1    3    3    0    0  0.51816695135E+01  0.83597431597E+00  0.51492051504E+01  0.73527454522E+01  0.00000000000E+00 0.  1.
</event>
<event>
 7    1  0.6287242E-011  0.5052886E+02  0.7816164E-02  0.1300439E+00
        -11   -1    0    0    0    0  0.00000000000E+00  0.00000000000E+00  0.45593999997E+02  0.45594000000E+02  0.51100000000E-03 0. -1.
         11   -1    0    0    0    0 -0.00000000000E+00 -0.00000000000E+00 -0.45593999997E+02  0.45594000000E+02  0.51100000000E-03 0.  1.
    9900012    2    1    2    0    0  0.18506666579E+01  0.22314098761E+02 -0.33938501029E+02  0.50528858068E+02  0.29999994582E+02 0.  0.
         12    1    1    2    0    0 -0.18506666579E+01 -0.22314098761E+02  0.33938501029E+02  0.40659141932E+02  0.00000000000E+00 0. -1.
         11    1    3    3    0    0 -0.51236547519E+01  0.24763031978E+01  0.15332122669E+00  0.56927518129E+01  0.51100000000E-03 0. -1.
        -11    1    3    3    0    0  0.71773124191E+01 -0.18419518176E+01 -0.78105935521E+01  0.10766242239E+02  0.51100000000E-03 0.  1.
        -12    1    3    3    0    0 -0.20299100933E+00  0.21679747381E+02 -0.26281228703E+02  0.34069864015E+02  0.00000000000E+00 0.  1.
</event>
<event>
 7    1  0.2432574E-011  0.5052885E+02  0.7816164E-02  0.1300439E+00
        -11   -1    0    0    0    0  0.00000000000E+00  0.00000000000E+00  0.45593999997E+02  0.45594000000E+02  0.51100000000E-03 0.  1.
         11   -1    0    0    0    0 -0.00000000000E+00 -0.00000000000E+00 -0.45593999997E+02  0.45594000000E+02  0.51100000000E-03 0. -1.
    9900012    2    1    2    0    0 -0.37101438328E+02 -0.18763609638E+01  0.16526608769E+02  0.50528852765E+02  0.29999978466E+02 0.  0.
         12    1    1    2    0    0  0.37101438328E+02  0.18763609638E+01 -0.16526608769E+02  0.40659147235E+02  0.00000000000E+00 0. -1.
         11    1    3    3    0    0 -0.22320658602E+02 -0.27318173880E+01  0.11309307138E+02  0.25170916846E+02  0.51100000000E-03 0. -1.
        -11    1    3    3    0    0  0.33333978437E+01  0.16390159154E+01  0.61699392898E+01  0.72018098736E+01  0.51100000000E-03 0.  1.
         12    1    3    3    0    0 -0.18114177570E+02 -0.78355949116E+00 -0.95263765855E+00  0.18156126046E+02  0.00000000000E+00 0. -1.
</event>
<event>
 7    1  0.2432574E-011  0.5052886E+02  0.7816164E-02  0.1300439E+00
        -11   -1    0    0    0    0  0.00000000000E+00  0.00000000000E+00  0.45593999997E+02  0.45594000000E+02  0.51100000000E-03 0.  1.
         11   -1    0    0    0    0 -0.00000000000E+00 -0.00000000000E+00 -0.45593999997E+02  0.45594000000E+02  0.51100000000E-03 0. -1.
    9900012    2    1    2    0    0 -0.34099525981E+00  0.35965796876E+02  0.18960761367E+02  0.50528864565E+02  0.30000014331E+02 0.  0.
         12    1    1    2    0    0  0.34099525981E+00 -0.35965796876E+02 -0.18960761367E+02  0.40659135435E+02  0.00000000000E+00 0. -1.
         11    1    3    3    0    0 -0.25343037526E+01  0.52025823146E+00 -0.14390900011E+01  0.29604635499E+01  0.51100000000E-03 0. -1.
        -11    1    3    3    0    0 -0.90167525271E+01  0.96689883236E+01  0.69157591219E+00  0.13238936469E+02  0.51100000000E-03 0.  1.
        -12    1    3    3    0    0  0.11210061020E+02  0.25776550321E+02  0.19708275456E+02  0.34329464546E+02  0.00000000000E+00 0.  1.
</event>
<event>
 7    1  0.2432574E-011  0.5052886E+02  0.7816164E-02  0.1300439E+00
        -11   -1    0    0    0    0  0.00000000000E+00  0.00000000000E+00  0.45593999997E+02  0.45594000000E+02  0.51100000000E-03 0.  1.
         11   -1    0    0    0    0 -0.00000000000E+00 -0.00000000000E+00 -0.45593999997E+02  0.45594000000E+02  0.51100000000E-03 0. -1.
    9900012    2    1    2    0    0 -0.19415516579E+02 -0.75530606617E+01  0.34916391567E+02  0.50528863149E+02  0.30000010028E+02 0.  0.
         12    1    1    2    0    0  0.19415516579E+02  0.75530606617E+01 -0.34916391567E+02  0.40659136851E+02  0.00000000000E+00 0. -1.
         11    1    3    3    0    0 -0.69680009260E+01 -0.12111855607E+02  0.10895358987E+02  0.17718886276E+02  0.51100000000E-03 0. -1.
        -11    1    3    3    0    0 -0.16897514626E+02  0.15317575766E+01  0.18152570048E+02  0.24847295253E+02  0.51100000000E-03 0.  1.
         12    1    3    3    0    0  0.44499989727E+01  0.30270373684E+01  0.58684625328E+01  0.79626816202E+01  0.00000000000E+00 0. -1.
</event>
<event>
 7    1  0.2432574E-011  0.5052885E+02  0.7816164E-02  0.1300439E+00
        -11   -1    0    0    0    0  0.00000000000E+00  0.00000000000E+00  0.45593999997E+02  0.45594000000E+02  0.51100000000E-03 0. -1.
         11   -1    0    0    0    0 -0.00000000000E+00 -0.00000000000E+00 -0.45593999997E+02  0.45594000000E+02  0.51100000000E-03 0.  1.
    9900012    2    1    2    0    0  0.37819338309E+02  0.56916444263E+01 -0.13801068725E+02  0.50528847717E+02  0.29999963121E+02 0.  0.
         12    1    1    2    0    0 -0.37819338309E+02 -0.56916444263E+01  0.13801068725E+02  0.40659152283E+02  0.00000000000E+00 0. -1.
         11    1    3    3    0    0  0.29518219653E+01 -0.12975323253E+00 -0.11419280976E+01  0.31676629962E+01  0.51100000000E-03 0.  1.
        -11    1    3    3    0    0  0.35583652273E+02 -0.36129913040E+01 -0.12532750891E+02  0.37898810804E+02  0.51100000000E-03 0. -1.
         12    1    3    3    0    0 -0.71613592875E+00  0.94343889628E+01 -0.12638973593E+00  0.94623739165E+01  0.00000000000E+00 0. -1.
</event>
<event>
 7    1  0.2432574E-011  0.5052885E+02  0.7816164E-02  0.1300439E+00
        -11   -1    0    0    0    0  0.00000000000E+00  0.00000000000E+00  0.45593999997E+02  0.45594000000E+02  0.51100000000E-03 0. -1.
         11   -1    0    0    0    0 -0.00000000000E+00 -0.00000000000E+00 -0.45593999997E+02  0.45594000000E+02  0.51100000000E-03 0.  1.
    9900012    2    1    2    0    0 -0.10347135651E+02  0.29671707262E+02 -0.25801033111E+02  0.50528846817E+02  0.29999960384E+02 0.  0.
         12    1    1    2    0    0  0.10347135651E+02 -0.29671707262E+02  0.25801033111E+02  0.40659153183E+02  0.00000000000E+00 0. -1.
         11    1    3    3    0    0 -0.43326300346E+01 -0.12489059792E+01 -0.80265823812E+01  0.92063822506E+01  0.51100000000E-03 0. -1.
        -11    1    3    3    0    0  0.37962949255E+00  0.21358118722E+02 -0.20384284922E+02  0.29526808597E+02  0.51100000000E-03 0.  1.
         12    1    3    3    0    0 -0.63941351092E+01  0.95624945194E+01  0.26098341926E+01  0.11795655969E+02  0.00000000000E+00 0. -1.
</event>
<event>
 7    1  0.2432574E-011  0.5052888E+02  0.7816164E-02  0.1300439E+00
        -11   -1    0    0    0    0  0.00000000000E+00  0.00000000000E+00  0.45593999997E+02  0.45594000000E+02  0.51100000000E-03 0. -1.
         11   -1    0    0    0    0 -0.00000000000E+00 -0.00000000000E+00 -0.45593999997E+02  0.45594000000E+02  0.51100000000E-03 0.  1.
    9900012    2    1    2    0    0 -0.13818892375E+01 -0.23998611391E+02 -0.32792093312E+02  0.50528876174E+02  0.30000049618E+02 0.  0.
         12    1    1    2    0    0  0.13818892375E+01  0.23998611391E+02  0.32792093312E+02  0.40659123826E+02  0.00000000000E+00 0. -1.
         11    1    3    3    0    0 -0.12457508542E+02 -0.13997154120E+01 -0.80926204184E+01  0.14921100087E+02  0.51100000000E-03 0. -1.
        -11    1    3    3    0    0  0.15162310825E+01 -0.43167423580E+01 -0.73212969036E+01  0.86333429152E+01  0.51100000000E-03 0.  1.
        -12    1    3    3    0    0  0.95593882220E+01 -0.18282153621E+02 -0.17378175990E+02  0.26974433172E+02  0.00000000000E+00 0.  1.
</event>
<event>
 7    1  0.2432574E-011  0.5052887E+02  0.7816164E-02  0.1300439E+00
        -11   -1    0    0    0    0  0.00000000000E+00  0.00000000000E+00  0.45593999997E+02  0.45594000000E+02  0.51100000000E-03 0.  1.
         11   -1    0    0    0    0 -0.00000000000E+00 -0.00000000000E+00 -0.45593999997E+02  0.45594000000E+02  0.51100000000E-03 0. -1.
    9900012    2    1    2    0    0 -0.28549094072E+02 -0.95531165843E+01  0.27328600374E+02  0.50528865636E+02  0.30000017588E+02 0.  0.
         12    1    1    2    0    0  0.28549094072E+02  0.95531165843E+01 -0.27328600374E+02  0.40659134364E+02  0.00000000000E+00 0. -1.
         11    1    3    3    0    0 -0.48075362480E+01 -0.70467765427E+01  0.32875667761E+01  0.91420763499E+01  0.51100000000E-03 0.  1.
        -11    1    3    3    0    0 -0.80723067114E+01 -0.20448645058E+00 -0.41295127053E+01  0.90695548841E+01  0.51100000000E-03 0. -1.
         12    1    3    3    0    0 -0.15669251112E+02 -0.23018535910E+01  0.28170546303E+02  0.32317234402E+02  0.00000000000E+00 0. -1.
</event>
<event>
 7    1  0.2432574E-011  0.5052885E+02  0.7816164E-02  0.1300439E+00
        -11   -1    0    0    0    0  0.00000000000E+00  0.00000000000E+00  0.45593999997E+02  0.45594000000E+02  0.51100000000E-03 0.  1.
         11   -1    0    0    0    0 -0.00000000000E+00 -0.00000000000E+00 -0.45593999997E+02  0.45594000000E+02  0.51100000000E-03 0. -1.
    9900012    2    1    2    0    0 -0.36411918170E+02  0.15703469816E+02 -0.89855315282E+01  0.50528849420E+02  0.29999968297E+02 0.  0.
         12    1    1    2    0    0  0.36411918170E+02 -0.15703469816E+02  0.89855315282E+01  0.40659150580E+02  0.00000000000E+00 0. -1.
         11    1    3    3    0    0 -0.18135224171E+02  0.39050274917E+01 -0.97738381709E+01  0.20968154623E+02  0.51100000000E-03 0.  1.
        -11    1    3    3    0    0 -0.86449652296E+00 -0.13077958549E+01  0.67797019812E+01  0.69585949337E+01  0.51100000000E-03 0. -1.
         12    1    3    3    0    0 -0.17412197476E+02  0.13106238179E+02 -0.59913953384E+01  0.22602099863E+02  0.00000000000E+00 0. -1.
</event>
<event>
 7    1  0.2432574E-011  0.5052884E+02  0.7816164E-02  0.1300439E+00
        -11   -1    0    0    0    0  0.00000000000E+00  0.00000000000E+00  0.45593999997E+02  0.45594000000E+02  0.51100000000E-03 0.  1.
         11   -1    0    0    0    0 -0.00000000000E+00 -0.00000000000E+00 -0.45593999997E+02  0.45594000000E+02  0.51100000000E-03 0. -1.
    9900012    2    1    2    0    0  0.27299976140E+02  0.73476848691E+00  0.30122066185E+02  0.50528838016E+02  0.29999933633E+02 0.  0.
         12    1    1    2    0    0 -0.27299976140E+02 -0.73476848691E+00 -0.30122066185E+02  0.40659161984E+02  0.00000000000E+00 0. -1.
         11    1    3    3    0    0  0.52187895606E+00  0.20734887137E+01  0.11302729814E+02  0.11503191496E+02  0.51100000000E-03 0. -1.
        -11    1    3    3    0    0 -0.23177237034E+01  0.37316636568E+01  0.41736933347E+01  0.60594449519E+01  0.51100000000E-03 0.  1.
         12    1    3    3    0    0  0.29095820887E+02 -0.50703838836E+01  0.14645643037E+02  0.32966201568E+02  0.00000000000E+00 0. -1.
</event>
<event>
 7    1  0.2432574E-011  0.5052888E+02  0.7816164E-02  0.1300439E+00
        -11   -1    0    0    0    0  0.00000000000E+00  0.00000000000E+00  0.45593999997E+02  0.45594000000E+02  0.51100000000E-03 0. -1.
         11   -1    0    0    0    0 -0.00000000000E+00 -0.00000000000E+00 -0.45593999997E+02  0.45594000000E+02  0.51100000000E-03 0.  1.
    9900012    2    1    2    0    0 -0.29848664239E+02 -0.27597102770E+02  0.78832596195E+00  0.50528876842E+02  0.30000051649E+02 0.  0.
         12    1    1    2    0    0  0.29848664239E+02  0.27597102770E+02 -0.78832596195E+00  0.40659123158E+02  0.00000000000E+00 0. -1.
         11    1    3    3    0    0  0.25424616242E+01  0.44474085370E-01  0.10768170423E+01  0.27614532874E+01  0.51100000000E-03 0. -1.
        -11    1    3    3    0    0 -0.20974426159E+02 -0.46263737464E+01 -0.38803666121E+01  0.21826294510E+02  0.51100000000E-03 0.  1.
         12    1    3    3    0    0 -0.11416699705E+02 -0.23015203109E+02  0.35918755318E+01  0.25941129045E+02  0.00000000000E+00 0. -1.
</event>
<event>
 7    1  0.2432574E-011  0.5052886E+02  0.7816164E-02  0.1300439E+00
        -11   -1    0    0    0    0  0.00000000000E+00  0.00000000000E+00  0.45593999997E+02  0.45594000000E+02  0.51100000000E-03 0. -1.
         11   -1    0    0    0    0 -0.00000000000E+00 -0.00000000000E+00 -0.45593999997E+02  0.45594000000E+02  0.51100000000E-03 0.  1.
    9900012    2    1    2    0    0  0.23228605697E+01 -0.21004926133E+02 -0.34735617602E+02  0.50528859167E+02  0.29999997924E+02 0.  0.
         12    1    1    2    0    0 -0.23228605697E+01  0.21004926133E+02  0.34735617602E+02  0.40659140833E+02  0.00000000000E+00 0. -1.
         11    1    3    3    0    0 -0.21611394748E+01  0.11675512483E+01 -0.25101150963E+01  0.35120332864E+01  0.51100000000E-03 0. -1.
        -11    1    3    3    0    0 -0.75134082286E+01  0.36553983851E+00 -0.13135518227E+02  0.15136933703E+02  0.51100000000E-03 0.  1.
         12    1    3    3    0    0  0.11997408273E+02 -0.22538017220E+02 -0.19089984279E+02  0.31879892177E+02  0.00000000000E+00 0. -1.
</event>
<event>
 7    1  0.2432574E-011  0.5052884E+02  0.7816164E-02  0.1300439E+00
        -11   -1    0    0    0    0  0.00000000000E+00  0.00000000000E+00  0.45593999997E+02  0.45594000000E+02  0.51100000000E-03 0.  1.
         11   -1    0    0    0    0 -0.00000000000E+00 -0.00000000000E+00 -0.45593999997E+02  0.45594000000E+02  0.51100000000E-03 0. -1.
    9900012    2    1    2    0    0  0.39166554015E+02  0.39859461038E+01  0.10161701830E+02  0.50528844773E+02  0.29999954171E+02 0.  0.
         12    1    1    2    0    0 -0.39166554015E+02 -0.39859461038E+01 -0.10161701830E+02  0.40659155227E+02  0.00000000000E+00 0. -1.
         11    1    3    3    0    0  0.12023876637E+01  0.27578198219E+01  0.33281795501E+01  0.44864335103E+01  0.51100000000E-03 0. -1.
        -11    1    3    3    0    0  0.63522494465E+01  0.46032935377E+01 -0.77839784012E+01  0.11051321389E+02  0.51100000000E-03 0.  1.
         12    1    3    3    0    0  0.31611916905E+02 -0.33751672558E+01  0.14617500681E+02  0.34991089874E+02  0.00000000000E+00 0. -1.
</event>
<event>
 7    1  0.2432574E-011  0.5052885E+02  0.7816164E-02  0.1300439E+00
        -11   -1    0    0    0    0  0.00000000000E+00  0.00000000000E+00  0.45593999997E+02  0.45594000000E+02  0.51100000000E-03 0.  1.
         11   -1    0    0    0    0 -0.00000000000E+00 -0.00000000000E+00 -0.45593999997E+02  0.45594000000E+02  0.51100000000E-03 0. -1.
    9900012    2    1    2    0    0  0.70512665092E+01  0.24634440146E+02  0.31568815497E+02  0.50528854503E+02  0.29999983747E+02 0.  0.
         12    1    1    2    0    0 -0.70512665092E+01 -0.24634440146E+02 -0.31568815497E+02  0.40659145497E+02  0.00000000000E+00 0. -1.
         11    1    3    3    0    0  0.63323687570E+01  0.27055263291E+01  0.12203702563E+02  0.14012463142E+02  0.51100000000E-03 0. -1.
        -11    1    3    3    0    0 -0.59492470999E+01  0.62885642653E+00  0.11297443711E+02  0.12783631570E+02  0.51100000000E-03 0.  1.
         12    1    3    3    0    0  0.66681448521E+01  0.21300057391E+02  0.80676692232E+01  0.23732759791E+02  0.00000000000E+00 0. -1.
</event>
<event>
 7    1  0.2432574E-011  0.5052885E+02  0.7816164E-02  0.1300439E+00
        -11   -1    0    0    0    0  0.00000000000E+00  0.00000000000E+00  0.45593999997E+02  0.45594000000E+02  0.51100000000E-03 0. -1.
         11   -1    0    0    0    0 -0.00000000000E+00 -0.00000000000E+00 -0.45593999997E+02  0.45594000000E+02  0.51100000000E-03 0.  1.
    9900012    2    1    2    0    0 -0.31752077951E+02 -0.86914503324E+01 -0.23862743700E+02  0.50528852198E+02  0.29999976742E+02 0.  0.
         12    1    1    2    0    0  0.31752077951E+02  0.86914503324E+01  0.23862743700E+02  0.40659147802E+02  0.00000000000E+00 0. -1.
         11    1    3    3    0    0 -0.82262248941E+01 -0.63641766210E+01  0.23397742256E+01  0.10660584588E+02  0.51100000000E-03 0. -1.
        -11    1    3    3    0    0 -0.66745671951E+01  0.45542275070E+01 -0.14345694518E+00  0.80815478458E+01  0.51100000000E-03 0.  1.
        -12    1    3    3    0    0 -0.16851285862E+02 -0.68815012184E+01 -0.26059060980E+02  0.31786719764E+02  0.00000000000E+00 0.  1.
</event>
<event>
 7    1  0.2432574E-011  0.5052886E+02  0.7816164E-02  0.1300439E+00
        -11   -1    0    0    0    0  0.00000000000E+00  0.00000000000E+00  0.45593999997E+02  0.45594000000E+02  0.51100000000E-03 0.  1.
         11   -1    0    0    0    0 -0.00000000000E+00 -0.00000000000E+00 -0.45593999997E+02  0.45594000000E+02  0.51100000000E-03 0. -1.
    9900012    2    1    2    0    0 -0.31366986222E+02 -0.16669326638E+02  0.19784119111E+02  0.50528860262E+02  0.30000001253E+02 0.  0.
         12    1    1    2    0    0  0.31366986222E+02  0.16669326638E+02 -0.19784119111E+02  0.40659139738E+02  0.00000000000E+00 0. -1.
         11    1    3    3    0    0 -0.10649582394E+02 -0.18015192449E+01 -0.34761942983E+01  0.11346497425E+02  0.51100000000E-03 0. -1.
        -11    1    3    3    0    0 -0.10873543466E+01  0.40911123455E+01  0.28382730367E+01  0.50966002189E+01  0.51100000000E-03 0.  1.
         12    1    3    3    0    0 -0.19630049481E+02 -0.18958919739E+02  0.20422040373E+02  0.34085762618E+02  0.00000000000E+00 0. -1.
</event>
<event>
 7    1  0.2432574E-011  0.5052886E+02  0.7816164E-02  0.1300439E+00
        -11   -1    0    0    0    0  0.00000000000E+00  0.00000000000E+00  0.45593999997E+02  0.45594000000E+02  0.51100000000E-03 0. -1.
         11   -1    0    0    0    0 -0.00000000000E+00 -0.00000000000E+00 -0.45593999997E+02  0.45594000000E+02  0.51100000000E-03 0.  1.
    9900012    2    1    2    0    0 -0.36398545636E+02  0.10427704887E+02  0.14818038655E+02  0.50528862980E+02  0.30000009513E+02 0.  0.
         12    1    1    2    0    0  0.36398545636E+02 -0.10427704887E+02 -0.14818038655E+02  0.40659137020E+02  0.00000000000E+00 0. -1.
         11    1    3    3    0    0 -0.31309341712E+01 -0.18544085587E+01 -0.31270253380E+01  0.47979024180E+01  0.51100000000E-03 0.  1.
        -11    1    3    3    0    0 -0.15186592835E+02 -0.20780342685E+01  0.16611180919E+02  0.22602702497E+02  0.51100000000E-03 0. -1.
         12    1    3    3    0    0 -0.18081018630E+02  0.14360147714E+02  0.13338830744E+01  0.23128258065E+02  0.00000000000E+00 0. -1.
</event>
<event>
 7    1  0.2432574E-011  0.5052885E+02  0.7816164E-02  0.1300439E+00
        -11   -1    0    0    0    0  0.00000000000E+00  0.00000000000E+00  0.45593999997E+02  0.45594000000E+02  0.51100000000E-03 0.  1.
         11   -1    0    0    0    0 -0.00000000000E+00 -0.00000000000E+00 -0.45593999997E+02  0.45594000000E+02  0.51100000000E-03 0. -1.
    9900012    2    1    2    0    0 -0.25579725338E+02  0.24983529152E+02  0.19356319039E+02  0.50528853870E+02  0.29999981824E+02 0.  0.
         12    1    1    2    0    0  0.25579725338E+02 -0.24983529152E+02 -0.19356319039E+02  0.40659146130E+02  0.00000000000E+00 0. -1.
         11    1    3    3    0    0 -0.13631497666E+02 -0.32389577156E+01  0.96284295490E+01  0.17000447981E+02  0.51100000000E-03 0.  1.
        -11    1    3    3    0    0 -0.84854314963E+01  0.89522128190E+01  0.20802957489E+01  0.12508888548E+02  0.51100000000E-03 0. -1.
        -12    1    3    3    0    0 -0.34627961755E+01  0.19270274048E+02  0.76475937414E+01  0.21019517342E+02  0.00000000000E+00 0.  1.
</event>
<event>
 7    1  0.2432574E-011  0.5052886E+02  0.7816164E-02  0.1300439E+00
        -11   -1    0    0    0    0  0.00000000000E+00  0.00000000000E+00  0.45593999997E+02  0.45594000000E+02  0.51100000000E-03 0. -1.
         11   -1    0    0    0    0 -0.00000000000E+00 -0.00000000000E+00 -0.45593999997E+02  0.45594000000E+02  0.51100000000E-03 0.  1.
    9900012    2    1    2    0    0  0.35904638141E+01 -0.37598712706E+02 -0.15053615686E+02  0.50528856222E+02  0.29999988973E+02 0.  0.
         12    1    1    2    0    0 -0.35904638141E+01  0.37598712706E+02  0.15053615686E+02  0.40659143778E+02  0.00000000000E+00 0. -1.
         11    1    3    3    0    0 -0.28227711056E+01 -0.97747741566E-01 -0.36929198222E+00  0.28485027935E+01  0.51100000000E-03 0. -1.
        -11    1    3    3    0    0 -0.46375081584E+00 -0.32908971925E+02 -0.25694592744E+01  0.33012385845E+02  0.51100000000E-03 0.  1.
         12    1    3    3    0    0  0.68769857355E+01 -0.45919930391E+01 -0.12114864429E+02  0.14667967583E+02  0.00000000000E+00 0. -1.
</event>
<event>
 7    1  0.2432574E-011  0.5052885E+02  0.7816164E-02  0.1300439E+00
        -11   -1    0    0    0    0  0.00000000000E+00  0.00000000000E+00  0.45593999997E+02  0.45594000000E+02  0.51100000000E-03 0. -1.
         11   -1    0    0    0    0 -0.00000000000E+00 -0.00000000000E+00 -0.45593999997E+02  0.45594000000E+02  0.51100000000E-03 0.  1.
    9900012    2    1    2    0    0  0.15481415345E+02 -0.44434144362E+01 -0.37332940550E+02  0.50528848471E+02  0.29999965414E+02 0.  0.
         12    1    1    2    0    0 -0.15481415345E+02  0.44434144362E+01  0.37332940550E+02  0.40659151529E+02  0.00000000000E+00 0. -1.
         11    1    3    3    0    0  0.45278574512E+01  0.81717918879E+01 -0.14571984280E+02  0.17309604325E+02  0.51100000000E-03 0. -1.
        -11    1    3    3    0    0  0.33414245748E+01  0.33583258240E+01 -0.10988608641E+02  0.11966327367E+02  0.51100000000E-03 0.  1.
         12    1    3    3    0    0  0.76121333192E+01 -0.15973532148E+02 -0.11772347628E+02  0.21252916779E+02  0.00000000000E+00 0. -1.
</event>
<event>
 7    1  0.2432574E-011  0.5052885E+02  0.7816164E-02  0.1300439E+00
        -11   -1    0    0    0    0  0.00000000000E+00  0.00000000000E+00  0.45593999997E+02  0.45594000000E+02  0.51100000000E-03 0.  1.
         11   -1    0    0    0    0 -0.00000000000E+00 -0.00000000000E+00 -0.45593999997E+02  0.45594000000E+02  0.51100000000E-03 0. -1.
    9900012    2    1    2    0    0  0.19095286767E+02 -0.25365442769E+02  0.25399421407E+02  0.50528852549E+02  0.29999977809E+02 0.  0.
         12    1    1    2    0    0 -0.19095286767E+02  0.25365442769E+02 -0.25399421407E+02  0.40659147451E+02  0.00000000000E+00 0. -1.
         11    1    3    3    0    0  0.38350404445E+01  0.20378429038E+01  0.88743600893E+01  0.98800104336E+01  0.51100000000E-03 0. -1.
        -11    1    3    3    0    0 -0.34326047007E+00 -0.20579532898E+01 -0.39883846681E+01  0.45011345254E+01  0.51100000000E-03 0.  1.
        -12    1    3    3    0    0  0.15603506792E+02 -0.25345332383E+02  0.20513445986E+02  0.36147707591E+02  0.00000000000E+00 0.  1.
</event>
<event>
 7    1  0.2432574E-011  0.5052887E+02  0.7816164E-02  0.1300439E+00
        -11   -1    0    0    0    0  0.00000000000E+00  0.00000000000E+00  0.45593999997E+02  0.45594000000E+02  0.51100000000E-03 0. -1.
         11   -1    0    0    0    0 -0.00000000000E+00 -0.00000000000E+00 -0.45593999997E+02  0.45594000000E+02  0.51100000000E-03 0.  1.
    9900012    2    1    2    0    0 -0.30556948588E+02  0.22296149164E+02  0.14910372972E+02  0.50528873143E+02  0.30000040407E+02 0.  0.
         12    1    1    2    0    0  0.30556948588E+02 -0.22296149164E+02 -0.14910372972E+02  0.40659126857E+02  0.00000000000E+00 0. -1.
         11    1    3    3    0    0  0.53832136891E+00 -0.27616922204E+01 -0.32902891010E+01  0.43292882147E+01  0.51100000000E-03 0. -1.
        -11    1    3    3    0    0 -0.12919411893E+02  0.71936397303E+01 -0.16218069408E+00  0.14788034321E+02  0.51100000000E-03 0.  1.
         12    1    3    3    0    0 -0.18175858064E+02  0.17864201654E+02  0.18362842767E+02  0.31411550608E+02  0.00000000000E+00 0. -1.
</event>
<event>
 7    1  0.2432574E-011  0.5052887E+02  0.7816164E-02  0.1300439E+00
        -11   -1    0    0    0    0  0.00000000000E+00  0.00000000000E+00  0.45593999997E+02  0.45594000000E+02  0.51100000000E-03 0.  1.
         11   -1    0    0    0    0 -0.00000000000E+00 -0.00000000000E+00 -0.45593999997E+02  0.45594000000E+02  0.51100000000E-03 0. -1.
    9900012    2    1    2    0    0  0.15844809261E+02 -0.59603579773E+01  0.36967301711E+02  0.50528865190E+02  0.30000016230E+02 0.  0.
         12    1    1    2    0    0 -0.15844809261E+02  0.59603579773E+01 -0.36967301711E+02  0.40659134810E+02  0.00000000000E+00 0. -1.
         11    1    3    3    0    0  0.42224021216E+01 -0.14045396044E+02  0.10313190654E+02  0.17929409680E+02  0.51100000000E-03 0.  1.
        -11    1    3    3    0    0  0.90759303954E+01 -0.48585964484E+00  0.88989685383E+01  0.12720071283E+02  0.51100000000E-03 0. -1.
        -12    1    3    3    0    0  0.25464767439E+01  0.85708977120E+01  0.17755142518E+02  0.19879384227E+02  0.00000000000E+00 0.  1.
</event>
<event>
 7    1  0.2432574E-011  0.5052886E+02  0.7816164E-02  0.1300439E+00
        -11   -1    0    0    0    0  0.00000000000E+00  0.00000000000E+00  0.45593999997E+02  0.45594000000E+02  0.51100000000E-03 0. -1.
         11   -1    0    0    0    0 -0.00000000000E+00 -0.00000000000E+00 -0.45593999997E+02  0.45594000000E+02  0.51100000000E-03 0.  1.
    9900012    2    1    2    0    0  0.29574513688E+02  0.22596540443E+02  0.16367949455E+02  0.50528864873E+02  0.30000015269E+02 0.  0.
         12    1    1    2    0    0 -0.29574513688E+02 -0.22596540443E+02 -0.16367949455E+02  0.40659135127E+02  0.00000000000E+00 0. -1.
         11    1    3    3    0    0  0.92499450775E+01  0.18010144514E+02  0.13081507292E+02  0.24105033140E+02  0.51100000000E-03 0. -1.
        -11    1    3    3    0    0  0.15630026491E+02  0.91057336749E+01  0.64182913554E+01  0.19193920341E+02  0.51100000000E-03 0.  1.
         12    1    3    3    0    0  0.46945421198E+01 -0.45193377467E+01 -0.31318491927E+01  0.72299113929E+01  0.00000000000E+00 0. -1.
</event>
<event>
 7    1  0.2432574E-011  0.5052885E+02  0.7816164E-02  0.1300439E+00
        -11   -1    0    0    0    0  0.00000000000E+00  0.00000000000E+00  0.45593999997E+02  0.45594000000E+02  0.51100000000E-03 0.  1.
         11   -1    0    0    0    0 -0.00000000000E+00 -0.00000000000E+00 -0.45593999997E+02  0.45594000000E+02  0.51100000000E-03 0. -1.
    9900012    2    1    2    0    0  0.57456279313E+01  0.10357898932E+02  0.38895607717E+02  0.50528848382E+02  0.29999965142E+02 0.  0.
         12    1    1    2    0    0 -0.57456279313E+01 -0.10357898932E+02 -0.38895607717E+02  0.40659151618E+02  0.00000000000E+00 0. -1.
         11    1    3    3    0    0 -0.33780175083E+01  0.18083920680E+01 -0.32698755303E+00  0.38455435609E+01  0.51100000000E-03 0. -1.
        -11    1    3    3    0    0 -0.64353548376E+01  0.13601117971E+01  0.19365970451E+02  0.20452493925E+02  0.51100000000E-03 0.  1.
         12    1    3    3    0    0  0.15559000277E+02  0.71893950667E+01  0.19856624819E+02  0.26230810896E+02  0.00000000000E+00 0. -1.
</event>
<event>
 7    1  0.2432574E-011  0.5052887E+02  0.7816164E-02  0.1300439E+00
        -11   -1    0    0    0    0  0.00000000000E+00  0.00000000000E+00  0.45593999997E+02  0.45594000000E+02  0.51100000000E-03 0.  1.
         11   -1    0    0    0    0 -0.00000000000E+00 -0.00000000000E+00 -0.45593999997E+02  0.45594000000E+02  0.51100000000E-03 0. -1.
    9900012    2    1    2    0    0  0.10311603189E+02 -0.22223086282E+02  0.32449506942E+02  0.50528865418E+02  0.30000016923E+02 0.  0.
         12    1    1    2    0    0 -0.10311603189E+02  0.22223086282E+02 -0.32449506942E+02  0.40659134582E+02  0.00000000000E+00 0. -1.
         11    1    3    3    0    0  0.32619484336E+01 -0.75207374379E+01 -0.29896319721E+01  0.87258064833E+01  0.51100000000E-03 0. -1.
        -11    1    3    3    0    0  0.67247986985E+01 -0.16637357990E+01  0.45902900639E+01  0.83103367848E+01  0.51100000000E-03 0.  1.
         12    1    3    3    0    0  0.32485605650E+00 -0.13038613045E+02  0.30848848850E+02  0.33492722149E+02  0.00000000000E+00 0. -1.
</event>
<event>
 7    1  0.2432574E-011  0.5052884E+02  0.7816164E-02  0.1300439E+00
        -11   -1    0    0    0    0  0.00000000000E+00  0.00000000000E+00  0.45593999997E+02  0.45594000000E+02  0.51100000000E-03 0.  1.
         11   -1    0    0    0    0 -0.00000000000E+00 -0.00000000000E+00 -0.45593999997E+02  0.45594000000E+02  0.51100000000E-03 0. -1.
    9900012    2    1    2    0    0  0.77794420717E+01 -0.35742399246E+02  0.17751859125E+02  0.50528839590E+02  0.29999938419E+02 0.  0.
         12    1    1    2    0    0 -0.77794420717E+01  0.35742399246E+02 -0.17751859125E+02  0.40659160410E+02  0.00000000000E+00 0. -1.
         11    1    3    3    0    0  0.36248592146E+01 -0.64087575304E+01 -0.64800816100E+01  0.98083247980E+01  0.51100000000E-03 0. -1.
        -11    1    3    3    0    0  0.64371387238E+01 -0.52619751836E+01  0.41674177144E+01  0.93001348619E+01  0.51100000000E-03 0.  1.
         12    1    3    3    0    0 -0.22825558668E+01 -0.24071666532E+02  0.20064523021E+02  0.31420379930E+02  0.00000000000E+00 0. -1.
</event>
<event>
 7    1  0.2432574E-011  0.5052886E+02  0.7816164E-02  0.1300439E+00
        -11   -1    0    0    0    0  0.00000000000E+00  0.00000000000E+00  0.45593999997E+02  0.45594000000E+02  0.51100000000E-03 0.  1.
         11   -1    0    0    0    0 -0.00000000000E+00 -0.00000000000E+00 -0.45593999997E+02  0.45594000000E+02  0.51100000000E-03 0. -1.
    9900012    2    1    2    0    0 -0.26009459335E+01 -0.35498854332E+02  0.19652789226E+02  0.50528859539E+02  0.29999999056E+02 0.  0.
         12    1    1    2    0    0  0.26009459335E+01  0.35498854332E+02 -0.19652789226E+02  0.40659140461E+02  0.00000000000E+00 0. -1.
         11    1    3    3    0    0 -0.17740352913E+01 -0.18175178712E+02  0.11762943337E+02  0.21722135223E+02  0.51100000000E-03 0.  1.
        -11    1    3    3    0    0  0.95687379051E+01 -0.10280926769E+02  0.12936160533E+00  0.14045459587E+02  0.51100000000E-03 0. -1.
         12    1    3    3    0    0 -0.10395648547E+02 -0.70427488509E+01  0.77604842839E+01  0.14761264730E+02  0.00000000000E+00 0. -1.
</event>
<event>
 7    1  0.2432574E-011  0.5052886E+02  0.7816164E-02  0.1300439E+00
        -11   -1    0    0    0    0  0.00000000000E+00  0.00000000000E+00  0.45593999997E+02  0.45594000000E+02  0.51100000000E-03 0. -1.
         11   -1    0    0    0    0 -0.00000000000E+00 -0.00000000000E+00 -0.45593999997E+02  0.45594000000E+02  0.51100000000E-03 0.  1.
    9900012    2    1    2    0    0  0.29897704057E+02 -0.57240361478E+01 -0.26954185528E+02  0.50528863079E+02  0.30000009814E+02 0.  0.
         12    1    1    2    0    0 -0.29897704057E+02  0.57240361478E+01  0.26954185528E+02  0.40659136921E+02  0.00000000000E+00 0. -1.
         11    1    3    3    0    0 -0.16298991879E+01 -0.71106019437E+01  0.21067919274E+01  0.75931418959E+01  0.51100000000E-03 0. -1.
        -11    1    3    3    0    0  0.87698639956E+01 -0.39333474314E+00 -0.80972595375E+01  0.11942815372E+02  0.51100000000E-03 0.  1.
         12    1    3    3    0    0  0.22757739250E+02  0.17799005390E+01 -0.20963717918E+02  0.30992905811E+02  0.00000000000E+00 0. -1.
</event>
<event>
 7    1  0.2432574E-011  0.5052886E+02  0.7816164E-02  0.1300439E+00
        -11   -1    0    0    0    0  0.00000000000E+00  0.00000000000E+00  0.45593999997E+02  0.45594000000E+02  0.51100000000E-03 0. -1.
         11   -1    0    0    0    0 -0.00000000000E+00 -0.00000000000E+00 -0.45593999997E+02  0.45594000000E+02  0.51100000000E-03 0.  1.
    9900012    2    1    2    0    0  0.26276192625E+02 -0.20128468919E+02 -0.23612967296E+02  0.50528858538E+02  0.29999996011E+02 0.  0.
         12    1    1    2    0    0 -0.26276192625E+02  0.20128468919E+02  0.23612967296E+02  0.40659141462E+02  0.00000000000E+00 0. -1.
         11    1    3    3    0    0  0.12220021346E+02  0.31337144095E+01 -0.59391263771E+00  0.12629403002E+02  0.51100000000E-03 0. -1.
        -11    1    3    3    0    0  0.10437854741E+01 -0.54087104842E+00 -0.72274205786E+01  0.73224065776E+01  0.51100000000E-03 0.  1.
         12    1    3    3    0    0  0.13012385805E+02 -0.22721312280E+02 -0.15791634080E+02  0.30577048958E+02  0.00000000000E+00 0. -1.
</event>
<event>
 7    1  0.2432574E-011  0.5052886E+02  0.7816164E-02  0.1300439E+00
        -11   -1    0    0    0    0  0.00000000000E+00  0.00000000000E+00  0.45593999997E+02  0.45594000000E+02  0.51100000000E-03 0.  1.
         11   -1    0    0    0    0 -0.00000000000E+00 -0.00000000000E+00 -0.45593999997E+02  0.45594000000E+02  0.51100000000E-03 0. -1.
    9900012    2    1    2    0    0  0.83293667345E+01  0.28291804538E+02 -0.27988589337E+02  0.50528859733E+02  0.29999999644E+02 0.  0.
         12    1    1    2    0    0 -0.83293667345E+01 -0.28291804538E+02  0.27988589337E+02  0.40659140267E+02  0.00000000000E+00 0. -1.
         11    1    3    3    0    0 -0.28791041608E+01 -0.62803091490E+00 -0.12736655052E+02  0.13073103907E+02  0.51100000000E-03 0. -1.
        -11    1    3    3    0    0  0.13944648121E+01 -0.14457086304E+01 -0.21964033888E+01  0.29763725680E+01  0.51100000000E-03 0.  1.
        -12    1    3    3    0    0  0.98140060832E+01  0.30365544083E+02 -0.13055530896E+02  0.34479383258E+02  0.00000000000E+00 0.  1.
</event>
<event>
 7    1  0.2432574E-011  0.5052888E+02  0.7816164E-02  0.1300439E+00
        -11   -1    0    0    0    0  0.00000000000E+00  0.00000000000E+00  0.45593999997E+02  0.45594000000E+02  0.51100000000E-03 0. -1.
         11   -1    0    0    0    0 -0.00000000000E+00 -0.00000000000E+00 -0.45593999997E+02  0.45594000000E+02  0.51100000000E-03 0.  1.
    9900012    2    1    2    0    0  0.19430668782E+00  0.31092304197E+02 -0.26199138115E+02  0.50528880810E+02  0.30000063709E+02 0.  0.
         12    1    1    2    0    0 -0.19430668782E+00 -0.31092304197E+02  0.26199138115E+02  0.40659119190E+02  0.00000000000E+00 0. -1.
         11    1    3    3    0    0 -0.16927570090E+01 -0.19189865951E+01 -0.45820518198E+01  0.52481553887E+01  0.51100000000E-03 0. -1.
        -11    1    3    3    0    0  0.47736387222E+01  0.55565416022E+01  0.33536240742E+01  0.80566479332E+01  0.51100000000E-03 0.  1.
        -12    1    3    3    0    0 -0.28865750253E+01  0.27454749190E+02 -0.24970710370E+02  0.37224077488E+02  0.00000000000E+00 0.  1.
</event>
<event>
 7    1  0.2432574E-011  0.5052886E+02  0.7816164E-02  0.1300439E+00
        -11   -1    0    0    0    0  0.00000000000E+00  0.00000000000E+00  0.45593999997E+02  0.45594000000E+02  0.51100000000E-03 0.  1.
         11   -1    0    0    0    0 -0.00000000000E+00 -0.00000000000E+00 -0.45593999997E+02  0.45594000000E+02  0.51100000000E-03 0. -1.
    9900012    2    1    2    0    0  0.39283726077E+02  0.74387427278E+01  0.73904939496E+01  0.50528862913E+02  0.30000009310E+02 0.  0.
         12    1    1    2    0    0 -0.39283726077E+02 -0.74387427278E+01 -0.73904939496E+01  0.40659137087E+02  0.00000000000E+00 0. -1.
         11    1    3    3    0    0  0.74687608293E+00 -0.26518775036E+01  0.40821987019E+01  0.49248984437E+01  0.51100000000E-03 0. -1.
        -11    1    3    3    0    0  0.33461881388E+02 -0.11666825252E+00  0.57329909834E+01  0.33949643642E+02  0.51100000000E-03 0.  1.
         12    1    3    3    0    0  0.50749686057E+01  0.10207288484E+02 -0.24246957357E+01  0.11654320828E+02  0.00000000000E+00 0. -1.
</event>
<event>
 7    1  0.2432574E-011  0.5052885E+02  0.7816164E-02  0.1300439E+00
        -11   -1    0    0    0    0  0.00000000000E+00  0.00000000000E+00  0.45593999997E+02  0.45594000000E+02  0.51100000000E-03 0.  1.
         11   -1    0    0    0    0 -0.00000000000E+00 -0.00000000000E+00 -0.45593999997E+02  0.45594000000E+02  0.51100000000E-03 0. -1.
    9900012    2    1    2    0    0 -0.14872715806E+02  0.18035834000E+02  0.33266762792E+02  0.50528849859E+02  0.29999969632E+02 0.  0.
         12    1    1    2    0    0  0.14872715806E+02 -0.18035834000E+02 -0.33266762792E+02  0.40659150141E+02  0.00000000000E+00 0. -1.
         11    1    3    3    0    0 -0.15248950538E+02  0.32128460767E+01  0.70144306010E+01  0.17089619929E+02  0.51100000000E-03 0. -1.
        -11    1    3    3    0    0  0.19159148829E+01 -0.25763517506E+01  0.34088008963E+01  0.46827600828E+01  0.51100000000E-03 0.  1.
         12    1    3    3    0    0 -0.15396801510E+01  0.17399339674E+02  0.22843531295E+02  0.28756469847E+02  0.00000000000E+00 0. -1.
</event>
<event>
 7    1  0.2432574E-011  0.5052885E+02  0.7816164E-02  0.1300439E+00
        -11   -1    0    0    0    0  0.00000000000E+00  0.00000000000E+00  0.45593999997E+02  0.45594000000E+02  0.51100000000E-03 0.  1.
         11   -1    0    0    0    0 -0.00000000000E+00 -0.00000000000E+00 -0.45593999997E+02  0.45594000000E+02  0.51100000000E-03 0. -1.
    9900012    2    1    2    0    0 -0.35905829987E+01 -0.15964219401E+02  0.37221206388E+02  0.50528846144E+02  0.29999958339E+02 0.  0.
         12    1    1    2    0    0  0.35905829987E+01  0.15964219401E+02 -0.37221206388E+02  0.40659153856E+02  0.00000000000E+00 0. -1.
         11    1    3    3    0    0 -0.18694923228E+01  0.33892042457E+01  0.12176292341E+02  0.12776689806E+02  0.51100000000E-03 0. -1.
        -11    1    3    3    0    0 -0.83159812091E+01 -0.18554814726E+02  0.13418472311E+02  0.24361693135E+02  0.51100000000E-03 0.  1.
         12    1    3    3    0    0  0.65948905333E+01 -0.79860892053E+00  0.11626441736E+02  0.13390463203E+02  0.00000000000E+00 0. -1.
</event>
<event>
 7    1  0.2432574E-011  0.5052886E+02  0.7816164E-02  0.1300439E+00
        -11   -1    0    0    0    0  0.00000000000E+00  0.00000000000E+00  0.45593999997E+02  0.45594000000E+02  0.51100000000E-03 0.  1.
         11   -1    0    0    0    0 -0.00000000000E+00 -0.00000000000E+00 -0.45593999997E+02  0.45594000000E+02  0.51100000000E-03 0. -1.
    9900012    2    1    2    0    0  0.24327347907E+02  0.79088090249E+01  0.31603742612E+02  0.50528860026E+02  0.30000000534E+02 0.  0.
         12    1    1    2    0    0 -0.24327347907E+02 -0.79088090249E+01 -0.31603742612E+02  0.40659139974E+02  0.00000000000E+00 0. -1.
         11    1    3    3    0    0  0.54234601965E+01  0.77037156625E+00 -0.10245786816E+01  0.55728946329E+01  0.51100000000E-03 0. -1.
        -11    1    3    3    0    0 -0.40060173426E+01  0.64583372739E+01  0.51838281094E+01  0.91994765841E+01  0.51100000000E-03 0.  1.
        -12    1    3    3    0    0  0.22909905053E+02  0.68010018467E+00  0.27444493184E+02  0.35756488809E+02  0.00000000000E+00 0.  1.
</event>
<event>
 7    1  0.2432574E-011  0.5052886E+02  0.7816164E-02  0.1300439E+00
        -11   -1    0    0    0    0  0.00000000000E+00  0.00000000000E+00  0.45593999997E+02  0.45594000000E+02  0.51100000000E-03 0.  1.
         11   -1    0    0    0    0 -0.00000000000E+00 -0.00000000000E+00 -0.45593999997E+02  0.45594000000E+02  0.51100000000E-03 0. -1.
    9900012    2    1    2    0    0  0.13193774438E+01 -0.24381936660E+01  0.40564519859E+02  0.50528858143E+02  0.29999994810E+02 0.  0.
         12    1    1    2    0    0 -0.13193774438E+01  0.24381936660E+01 -0.40564519859E+02  0.40659141857E+02  0.00000000000E+00 0. -1.
         11    1    3    3    0    0  0.77712551393E+01  0.12363155348E+01  0.16365039809E+01  0.80373520567E+01  0.51100000000E-03 0. -1.
        -11    1    3    3    0    0 -0.29739819679E+01  0.59551622767E+01  0.12760892088E+02  0.14392668051E+02  0.51100000000E-03 0.  1.
         12    1    3    3    0    0 -0.34778957276E+01 -0.96296714775E+01  0.26167123790E+02  0.28098838034E+02  0.00000000000E+00 0. -1.
</event>
<event>
 7    1  0.2432574E-011  0.5052886E+02  0.7816164E-02  0.1300439E+00
        -11   -1    0    0    0    0  0.00000000000E+00  0.00000000000E+00  0.45593999997E+02  0.45594000000E+02  0.51100000000E-03 0.  1.
         11   -1    0    0    0    0 -0.00000000000E+00 -0.00000000000E+00 -0.45593999997E+02  0.45594000000E+02  0.51100000000E-03 0. -1.
    9900012    2    1    2    0    0  0.16487325531E+02  0.12030526234E+02  0.35165328824E+02  0.50528858151E+02  0.29999994834E+02 0.  0.
         12    1    1    2    0    0 -0.16487325531E+02 -0.12030526234E+02 -0.35165328824E+02  0.40659141849E+02  0.00000000000E+00 0. -1.
         11    1    3    3    0    0  0.60550757355E+01  0.65284025887E+00 -0.18696302185E+01  0.63706875596E+01  0.51100000000E-03 0. -1.
        -11    1    3    3    0    0 -0.46675783488E+01  0.68424254766E+01  0.12748618861E+02  0.15203037762E+02  0.51100000000E-03 0.  1.
        -12    1    3    3    0    0  0.15099828144E+02  0.45352604982E+01  0.24286340181E+02  0.28955132829E+02  0.00000000000E+00 0.  1.
</event>
<event>
 7    1  0.2432574E-011  0.5052886E+02  0.7816164E-02  0.1300439E+00
        -11   -1    0    0    0    0  0.00000000000E+00  0.00000000000E+00  0.45593999997E+02  0.45594000000E+02  0.51100000000E-03 0.  1.
         11   -1    0    0    0    0 -0.00000000000E+00 -0.00000000000E+00 -0.45593999997E+02  0.45594000000E+02  0.51100000000E-03 0. -1.
    9900012    2    1    2    0    0 -0.64268777527E+00 -0.38689806931E+02 -0.12484049812E+02  0.50528859482E+02  0.29999998882E+02 0.  0.
         12    1    1    2    0    0  0.64268777527E+00  0.38689806931E+02  0.12484049812E+02  0.40659140518E+02  0.00000000000E+00 0. -1.
         11    1    3    3    0    0 -0.49806987954E+01 -0.83615898727E+01 -0.65632499884E+01  0.11738815799E+02  0.51100000000E-03 0. -1.
        -11    1    3    3    0    0 -0.49469717644E+01 -0.19437980911E+02  0.51365581897E+01  0.20704875315E+02  0.51100000000E-03 0.  1.
         12    1    3    3    0    0  0.92849827846E+01 -0.10890236148E+02 -0.11057358014E+02  0.18085168368E+02  0.00000000000E+00 0. -1.
</event>
<event>
 7    1  0.2432574E-011  0.5052886E+02  0.7816164E-02  0.1300439E+00
        -11   -1    0    0    0    0  0.00000000000E+00  0.00000000000E+00  0.45593999997E+02  0.45594000000E+02  0.51100000000E-03 0. -1.
         11   -1    0    0    0    0 -0.00000000000E+00 -0.00000000000E+00 -0.45593999997E+02  0.45594000000E+02  0.51100000000E-03 0.  1.
    9900012    2    1    2    0    0  0.24175380225E+02  0.85825940151E+01 -0.31544507338E+02  0.50528857458E+02  0.29999992730E+02 0.  0.
         12    1    1    2    0    0 -0.24175380225E+02 -0.85825940151E+01  0.31544507338E+02  0.40659142542E+02  0.00000000000E+00 0. -1.
         11    1    3    3    0    0  0.16570934563E+01  0.35479288613E+00  0.33732872432E+01  0.37750369271E+01  0.51100000000E-03 0. -1.
        -11    1    3    3    0    0  0.14308786795E+01  0.62920939088E+01 -0.19554618549E+02  0.20591769385E+02  0.51100000000E-03 0.  1.
         12    1    3    3    0    0  0.21087408089E+02  0.19357072201E+01 -0.15363176032E+02  0.26162051146E+02  0.00000000000E+00 0. -1.
</event>
<event>
 7    1  0.2432574E-011  0.5052886E+02  0.7816164E-02  0.1300439E+00
        -11   -1    0    0    0    0  0.00000000000E+00  0.00000000000E+00  0.45593999997E+02  0.45594000000E+02  0.51100000000E-03 0.  1.
         11   -1    0    0    0    0 -0.00000000000E+00 -0.00000000000E+00 -0.45593999997E+02  0.45594000000E+02  0.51100000000E-03 0. -1.
    9900012    2    1    2    0    0  0.21576793136E+02 -0.24279874471E+02  0.24455996096E+02  0.50528855255E+02  0.29999986033E+02 0.  0.
         12    1    1    2    0    0 -0.21576793136E+02  0.24279874471E+02 -0.24455996096E+02  0.40659144745E+02  0.00000000000E+00 0. -1.
         11    1    3    3    0    0  0.73195413020E+00 -0.59603741522E+01  0.13698604703E+02  0.14957058132E+02  0.51100000000E-03 0. -1.
        -11    1    3    3    0    0  0.11075821725E+02 -0.19397522379E+02  0.12490266958E+02  0.25591882899E+02  0.51100000000E-03 0.  1.
        -12    1    3    3    0    0  0.97690172808E+01  0.10780220603E+01 -0.17328755660E+01  0.99799142242E+01  0.00000000000E+00 0.  1.
</event>
<event>
 7    1  0.2432574E-011  0.5052893E+02  0.7816164E-02  0.1300439E+00
        -11   -1    0    0    0    0  0.00000000000E+00  0.00000000000E+00  0.45593999997E+02  0.45594000000E+02  0.51100000000E-03 0. -1.
         11   -1    0    0    0    0 -0.00000000000E+00 -0.00000000000E+00 -0.45593999997E+02  0.45594000000E+02  0.51100000000E-03 0.  1.
    9900012    2    1    2    0    0  0.53737116647E+01  0.37458255448E+02 -0.14871527474E+02  0.50528929577E+02  0.30000211942E+02 0.  0.
         12    1    1    2    0    0 -0.53737116647E+01 -0.37458255448E+02  0.14871527474E+02  0.40659070423E+02  0.00000000000E+00 0. -1.
         11    1    3    3    0    0 -0.11862172331E+00  0.14105501604E+02  0.40175545072E+01  0.14666969391E+02  0.51100000000E-03 0. -1.
        -11    1    3    3    0    0 -0.48809977868E+01  0.16725252661E+02 -0.70888853397E+01  0.18809851450E+02  0.51100000000E-03 0.  1.
         12    1    3    3    0    0  0.10373331175E+02  0.66275011825E+01 -0.11800196641E+02  0.17052108737E+02  0.00000000000E+00 0. -1.
</event>
<event>
 7    1  0.2432574E-011  0.5052885E+02  0.7816164E-02  0.1300439E+00
        -11   -1    0    0    0    0  0.00000000000E+00  0.00000000000E+00  0.45593999997E+02  0.45594000000E+02  0.51100000000E-03 0. -1.
         11   -1    0    0    0    0 -0.00000000000E+00 -0.00000000000E+00 -0.45593999997E+02  0.45594000000E+02  0.51100000000E-03 0.  1.
    9900012    2    1    2    0    0 -0.28218319441E+02 -0.29016630395E+02 -0.38636902860E+01  0.50528849810E+02  0.29999969483E+02 0.  0.
         12    1    1    2    0    0  0.28218319441E+02  0.29016630395E+02  0.38636902860E+01  0.40659150190E+02  0.00000000000E+00 0. -1.
         11    1    3    3    0    0 -0.11667452051E+02  0.10123992394E+01  0.13919970802E+01  0.11793729085E+02  0.51100000000E-03 0.  1.
        -11    1    3    3    0    0  0.36579041405E+01 -0.40859602114E+01 -0.10217735749E+01  0.55784724656E+01  0.51100000000E-03 0. -1.
         12    1    3    3    0    0 -0.20208771530E+02 -0.25943069423E+02 -0.42339137912E+01  0.33156648260E+02  0.00000000000E+00 0. -1.
</event>
<event>
 7    1  0.2432574E-011  0.5052886E+02  0.7816164E-02  0.1300439E+00
        -11   -1    0    0    0    0  0.00000000000E+00  0.00000000000E+00  0.45593999997E+02  0.45594000000E+02  0.51100000000E-03 0.  1.
         11   -1    0    0    0    0 -0.00000000000E+00 -0.00000000000E+00 -0.45593999997E+02  0.45594000000E+02  0.51100000000E-03 0. -1.
    9900012    2    1    2    0    0 -0.32368818339E+02  0.39707112188E+01  0.24282894473E+02  0.50528856966E+02  0.29999991235E+02 0.  0.
         12    1    1    2    0    0  0.32368818339E+02 -0.39707112188E+01 -0.24282894473E+02  0.40659143034E+02  0.00000000000E+00 0. -1.
         11    1    3    3    0    0  0.18940127600E+01 -0.60008383325E+00 -0.34480131824E+01  0.39794698276E+01  0.51100000000E-03 0. -1.
        -11    1    3    3    0    0 -0.10099089518E+02  0.34395141332E+01  0.13453176936E+01  0.10753220287E+02  0.51100000000E-03 0.  1.
        -12    1    3    3    0    0 -0.24163741580E+02  0.11312809189E+01  0.26385589962E+02  0.35796166852E+02  0.00000000000E+00 0.  1.
</event>
<event>
 7    1  0.2432574E-011  0.5052886E+02  0.7816164E-02  0.1300439E+00
        -11   -1    0    0    0    0  0.00000000000E+00  0.00000000000E+00  0.45593999997E+02  0.45594000000E+02  0.51100000000E-03 0.  1.
         11   -1    0    0    0    0 -0.00000000000E+00 -0.00000000000E+00 -0.45593999997E+02  0.45594000000E+02  0.51100000000E-03 0. -1.
    9900012    2    1    2    0    0 -0.14200455573E+02 -0.23835585998E+02  0.29721663131E+02  0.50528863787E+02  0.30000011966E+02 0.  0.
         12    1    1    2    0    0  0.14200455573E+02  0.23835585998E+02 -0.29721663131E+02  0.40659136213E+02  0.00000000000E+00 0. -1.
         11    1    3    3    0    0  0.65731272385E+01 -0.60190090946E+01  0.53887055333E+01  0.10415018952E+02  0.51100000000E-03 0. -1.
        -11    1    3    3    0    0 -0.37569432554E+01 -0.13805038960E+02  0.93742512390E+01  0.17104686780E+02  0.51100000000E-03 0.  1.
        -12    1    3    3    0    0 -0.17016639556E+02 -0.40115379432E+01  0.14958706359E+02  0.23009158055E+02  0.00000000000E+00 0.  1.
</event>
<event>
 7    1  0.2432574E-011  0.5052886E+02  0.7816164E-02  0.1300439E+00
        -11   -1    0    0    0    0  0.00000000000E+00  0.00000000000E+00  0.45593999997E+02  0.45594000000E+02  0.51100000000E-03 0.  1.
         11   -1    0    0    0    0 -0.00000000000E+00 -0.00000000000E+00 -0.45593999997E+02  0.45594000000E+02  0.51100000000E-03 0. -1.
    9900012    2    1    2    0    0 -0.20110096926E+02 -0.30413539970E+02  0.17993497710E+02  0.50528863613E+02  0.30000011440E+02 0.  0.
         12    1    1    2    0    0  0.20110096926E+02  0.30413539970E+02 -0.17993497710E+02  0.40659136387E+02  0.00000000000E+00 0. -1.
         11    1    3    3    0    0 -0.18967120039E+01 -0.11745460023E+02  0.41118192990E+01  0.12588105727E+02  0.51100000000E-03 0.  1.
        -11    1    3    3    0    0 -0.46131099040E+01  0.41386353744E+01 -0.25635887826E+01  0.67067930829E+01  0.51100000000E-03 0. -1.
         12    1    3    3    0    0 -0.13600275018E+02 -0.22806715321E+02  0.16445267193E+02  0.31233964804E+02  0.00000000000E+00 0. -1.
</event>
<event>
 7    1  0.2432574E-011  0.5052886E+02  0.7816164E-02  0.1300439E+00
        -11   -1    0    0    0    0  0.00000000000E+00  0.00000000000E+00  0.45593999997E+02  0.45594000000E+02  0.51100000000E-03 0. -1.
         11   -1    0    0    0    0 -0.00000000000E+00 -0.00000000000E+00 -0.45593999997E+02  0.45594000000E+02  0.51100000000E-03 0.  1.
    9900012    2    1    2    0    0 -0.19618851122E+02  0.27452546917E+02 -0.22685333582E+02  0.50528855748E+02  0.29999987533E+02 0.  0.
         12    1    1    2    0    0  0.19618851122E+02 -0.27452546917E+02  0.22685333582E+02  0.40659144252E+02  0.00000000000E+00 0. -1.
         11    1    3    3    0    0 -0.80825306866E+01  0.21015031148E+02 -0.74284899109E+01  0.23709519165E+02  0.51100000000E-03 0. -1.
        -11    1    3    3    0    0 -0.13183495341E+02  0.10882924390E+02 -0.13427007005E+02  0.21737688701E+02  0.51100000000E-03 0.  1.
         12    1    3    3    0    0  0.16471749057E+01 -0.44454086208E+01 -0.18298366663E+01  0.50816478824E+01  0.00000000000E+00 0. -1.
</event>
<event>
 7    1  0.2432574E-011  0.5052886E+02  0.7816164E-02  0.1300439E+00
        -11   -1    0    0    0    0  0.00000000000E+00  0.00000000000E+00  0.45593999997E+02  0.45594000000E+02  0.51100000000E-03 0.  1.
         11   -1    0    0    0    0 -0.00000000000E+00 -0.00000000000E+00 -0.45593999997E+02  0.45594000000E+02  0.51100000000E-03 0. -1.
    9900012    2    1    2    0    0 -0.19874592018E+02 -0.15315306382E+02  0.31993874778E+02  0.50528855385E+02  0.29999986430E+02 0.  0.
         12    1    1    2    0    0  0.19874592018E+02  0.15315306382E+02 -0.31993874778E+02  0.40659144615E+02  0.00000000000E+00 0. -1.
         11    1    3    3    0    0  0.39070480223E+01 -0.72674374446E+01  0.87963174022E+01  0.12060508752E+02  0.51100000000E-03 0. -1.
        -11    1    3    3    0    0 -0.84106966680E+01 -0.10659877786E+02  0.49153120031E+01  0.14440675372E+02  0.51100000000E-03 0.  1.
         12    1    3    3    0    0 -0.15370943373E+02  0.26120088480E+01  0.18282245373E+02  0.24027671262E+02  0.00000000000E+00 0. -1.
</event>
<event>
 7    1  0.2432574E-011  0.5052887E+02  0.7816164E-02  0.1300439E+00
        -11   -1    0    0    0    0  0.00000000000E+00  0.00000000000E+00  0.45593999997E+02  0.45594000000E+02  0.51100000000E-03 0. -1.
         11   -1    0    0    0    0 -0.00000000000E+00 -0.00000000000E+00 -0.45593999997E+02  0.45594000000E+02  0.51100000000E-03 0.  1.
    9900012    2    1    2    0    0  0.16647880075E+02  0.35201842328E+02 -0.11698015983E+02  0.50528865820E+02  0.30000018148E+02 0.  0.
         12    1    1    2    0    0 -0.16647880075E+02 -0.35201842328E+02  0.11698015983E+02  0.40659134180E+02  0.00000000000E+00 0. -1.
         11    1    3    3    0    0 -0.15192228167E+01  0.71543218083E+01  0.56418287505E+01  0.92370228112E+01  0.51100000000E-03 0. -1.
        -11    1    3    3    0    0  0.14525072198E+02  0.12660924686E+02 -0.21881291149E+01  0.19392386278E+02  0.51100000000E-03 0.  1.
        -12    1    3    3    0    0  0.36420306936E+01  0.15386595834E+02 -0.15151715619E+02  0.21899456731E+02  0.00000000000E+00 0.  1.
</event>
<event>
 7    1  0.2432574E-011  0.5052885E+02  0.7816164E-02  0.1300439E+00
        -11   -1    0    0    0    0  0.00000000000E+00  0.00000000000E+00  0.45593999997E+02  0.45594000000E+02  0.51100000000E-03 0.  1.
         11   -1    0    0    0    0 -0.00000000000E+00 -0.00000000000E+00 -0.45593999997E+02  0.45594000000E+02  0.51100000000E-03 0. -1.
    9900012    2    1    2    0    0 -0.37181625049E+02  0.14726117007E+02 -0.73372387821E+01  0.50528845603E+02  0.29999956693E+02 0.  0.
         12    1    1    2    0    0  0.37181625049E+02 -0.14726117007E+02  0.73372387821E+01  0.40659154397E+02  0.00000000000E+00 0. -1.
         11    1    3    3    0    0  0.33803455947E+01  0.12654538091E+01 -0.15337014305E+01  0.39217789358E+01  0.51100000000E-03 0. -1.
        -11    1    3    3    0    0 -0.10410654202E+02  0.10974970798E+02  0.22654993758E+01  0.15295888095E+02  0.51100000000E-03 0.  1.
         12    1    3    3    0    0 -0.30151316441E+02  0.24856924004E+01 -0.80690367275E+01  0.31311178572E+02  0.00000000000E+00 0. -1.
</event>
<event>
 7    1  0.2432574E-011  0.5052886E+02  0.7816164E-02  0.1300439E+00
        -11   -1    0    0    0    0  0.00000000000E+00  0.00000000000E+00  0.45593999997E+02  0.45594000000E+02  0.51100000000E-03 0. -1.
         11   -1    0    0    0    0 -0.00000000000E+00 -0.00000000000E+00 -0.45593999997E+02  0.45594000000E+02  0.51100000000E-03 0.  1.
    9900012    2    1    2    0    0 -0.10527841417E+02  0.21997991899E+02 -0.32533346275E+02  0.50528859425E+02  0.29999998708E+02 0.  0.
         12    1    1    2    0    0  0.10527841417E+02 -0.21997991899E+02  0.32533346275E+02  0.40659140575E+02  0.00000000000E+00 0. -1.
         11    1    3    3    0    0 -0.48138533332E+01  0.27285437971E+00 -0.47690297151E+00  0.48451078555E+01  0.51100000000E-03 0. -1.
        -11    1    3    3    0    0 -0.48303573267E+01  0.77414207239E-01  0.20740134557E+01  0.52573640675E+01  0.51100000000E-03 0.  1.
         12    1    3    3    0    0 -0.88363075705E+00  0.21647723312E+02 -0.34130456759E+02  0.40426387502E+02  0.00000000000E+00 0. -1.
</event>
<event>
 7    1  0.2432574E-011  0.5052886E+02  0.7816164E-02  0.1300439E+00
        -11   -1    0    0    0    0  0.00000000000E+00  0.00000000000E+00  0.45593999997E+02  0.45594000000E+02  0.51100000000E-03 0.  1.
         11   -1    0    0    0    0 -0.00000000000E+00 -0.00000000000E+00 -0.45593999997E+02  0.45594000000E+02  0.51100000000E-03 0. -1.
    9900012    2    1    2    0    0 -0.11518113686E+02 -0.38442421937E+02  0.65329287331E+01  0.50528857054E+02  0.29999991501E+02 0.  0.
         12    1    1    2    0    0  0.11518113686E+02  0.38442421937E+02 -0.65329287331E+01  0.40659142946E+02  0.00000000000E+00 0. -1.
         11    1    3    3    0    0 -0.14136152656E+00 -0.12722976383E+02  0.76979264723E+01  0.14871186347E+02  0.51100000000E-03 0. -1.
        -11    1    3    3    0    0 -0.10236521024E+02 -0.60727748197E+01  0.75920672197E+01  0.14117522502E+02  0.51100000000E-03 0.  1.
         12    1    3    3    0    0 -0.11402311356E+01 -0.19646670735E+02 -0.87570649589E+01  0.21540148205E+02  0.00000000000E+00 0. -1.
</event>
<event>
 7    1  0.2432574E-011  0.5052887E+02  0.7816164E-02  0.1300439E+00
        -11   -1    0    0    0    0  0.00000000000E+00  0.00000000000E+00  0.45593999997E+02  0.45594000000E+02  0.51100000000E-03 0. -1.
         11   -1    0    0    0    0 -0.00000000000E+00 -0.00000000000E+00 -0.45593999997E+02  0.45594000000E+02  0.51100000000E-03 0.  1.
    9900012    2    1    2    0    0 -0.61915240518E+01 -0.21081449627E+02 -0.34211140998E+02  0.50528872404E+02  0.30000038160E+02 0.  0.
         12    1    1    2    0    0  0.61915240518E+01  0.21081449627E+02  0.34211140998E+02  0.40659127596E+02  0.00000000000E+00 0. -1.
         11    1    3    3    0    0 -0.18310783822E+01 -0.17648582311E+02 -0.14920172655E+02  0.23182684442E+02  0.51100000000E-03 0.  1.
        -11    1    3    3    0    0  0.57635388822E+01 -0.37634311878E+01 -0.17691538792E+01  0.71071583957E+01  0.51100000000E-03 0. -1.
         12    1    3    3    0    0 -0.10123984552E+02  0.33056387207E+00 -0.17521814464E+02  0.20239029567E+02  0.00000000000E+00 0. -1.
</event>
<event>
 7    1  0.2432574E-011  0.5052887E+02  0.7816164E-02  0.1300439E+00
        -11   -1    0    0    0    0  0.00000000000E+00  0.00000000000E+00  0.45593999997E+02  0.45594000000E+02  0.51100000000E-03 0.  1.
         11   -1    0    0    0    0 -0.00000000000E+00 -0.00000000000E+00 -0.45593999997E+02  0.45594000000E+02  0.51100000000E-03 0. -1.
    9900012    2    1    2    0    0  0.26977795303E+01  0.21002134799E+02  0.34710186857E+02  0.50528871232E+02  0.30000034597E+02 0.  0.
         12    1    1    2    0    0 -0.26977795303E+01 -0.21002134799E+02 -0.34710186857E+02  0.40659128768E+02  0.00000000000E+00 0. -1.
         11    1    3    3    0    0  0.32539468770E+01  0.33192692007E+01 -0.73434011161E+00  0.47058446602E+01  0.51100000000E-03 0. -1.
        -11    1    3    3    0    0 -0.98940805204E+01  0.21938667910E+01  0.18211277074E+02  0.20841221024E+02  0.51100000000E-03 0.  1.
         12    1    3    3    0    0  0.93379131737E+01  0.15488998807E+02  0.17233249895E+02  0.24981805548E+02  0.00000000000E+00 0. -1.
</event>
<event>
 7    1  0.2432574E-011  0.5052886E+02  0.7816164E-02  0.1300439E+00
        -11   -1    0    0    0    0  0.00000000000E+00  0.00000000000E+00  0.45593999997E+02  0.45594000000E+02  0.51100000000E-03 0. -1.
         11   -1    0    0    0    0 -0.00000000000E+00 -0.00000000000E+00 -0.45593999997E+02  0.45594000000E+02  0.51100000000E-03 0.  1.
    9900012    2    1    2    0    0  0.10117022812E+02  0.39053379313E+02  0.50640860561E+01  0.50528861373E+02  0.30000004629E+02 0.  0.
         12    1    1    2    0    0 -0.10117022812E+02 -0.39053379313E+02 -0.50640860561E+01  0.40659138627E+02  0.00000000000E+00 0. -1.
         11    1    3    3    0    0 -0.11706412633E+01  0.15991190467E+02  0.24368480456E+01  0.16218101066E+02  0.51100000000E-03 0. -1.
        -11    1    3    3    0    0 -0.24053327018E+01  0.56447160385E+01 -0.77172914040E+01  0.98592612014E+01  0.51100000000E-03 0.  1.
        -12    1    3    3    0    0  0.13692996777E+02  0.17417472807E+02  0.10344529414E+02  0.24451499106E+02  0.00000000000E+00 0.  1.
</event>
<event>
 7    1  0.2432574E-011  0.5052887E+02  0.7816164E-02  0.1300439E+00
        -11   -1    0    0    0    0  0.00000000000E+00  0.00000000000E+00  0.45593999997E+02  0.45594000000E+02  0.51100000000E-03 0.  1.
         11   -1    0    0    0    0 -0.00000000000E+00 -0.00000000000E+00 -0.45593999997E+02  0.45594000000E+02  0.51100000000E-03 0. -1.
    9900012    2    1    2    0    0 -0.24803287774E+02  0.37383882500E+01  0.31999789639E+02  0.50528866118E+02  0.30000019051E+02 0.  0.
         12    1    1    2    0    0  0.24803287774E+02 -0.37383882500E+01 -0.31999789639E+02  0.40659133882E+02  0.00000000000E+00 0. -1.
         11    1    3    3    0    0 -0.18668371450E+01 -0.15648122116E+01 -0.24895966864E+01  0.34830748062E+01  0.51100000000E-03 0. -1.
        -11    1    3    3    0    0 -0.18244276067E+02  0.24569856821E+01  0.81354198063E+01  0.20126486120E+02  0.51100000000E-03 0.  1.
        -12    1    3    3    0    0 -0.46921745620E+01  0.28462147795E+01  0.26353966519E+02  0.26919305192E+02  0.00000000000E+00 0.  1.
</event>
<event>
 7    1  0.2432574E-011  0.5052885E+02  0.7816164E-02  0.1300439E+00
        -11   -1    0    0    0    0  0.00000000000E+00  0.00000000000E+00  0.45593999997E+02  0.45594000000E+02  0.51100000000E-03 0.  1.
         11   -1    0    0    0    0 -0.00000000000E+00 -0.00000000000E+00 -0.45593999997E+02  0.45594000000E+02  0.51100000000E-03 0. -1.
    9900012    2    1    2    0    0  0.10280729787E+02  0.15797689851E+02  0.36026464434E+02  0.50528849134E+02  0.29999967427E+02 0.  0.
         12    1    1    2    0    0 -0.10280729787E+02 -0.15797689851E+02 -0.36026464434E+02  0.40659150866E+02  0.00000000000E+00 0. -1.
         11    1    3    3    0    0  0.65159662901E+01  0.51066480857E+01  0.19318349558E+01  0.85010386379E+01  0.51100000000E-03 0. -1.
        -11    1    3    3    0    0  0.11360771728E+02  0.20108248200E+01  0.24283934980E+02  0.26885312888E+02  0.51100000000E-03 0.  1.
         12    1    3    3    0    0 -0.75960082318E+01  0.86802169450E+01  0.98106944979E+01  0.15142497608E+02  0.00000000000E+00 0. -1.
</event>
<event>
 7    1  0.2432574E-011  0.5052885E+02  0.7816164E-02  0.1300439E+00
        -11   -1    0    0    0    0  0.00000000000E+00  0.00000000000E+00  0.45593999997E+02  0.45594000000E+02  0.51100000000E-03 0.  1.
         11   -1    0    0    0    0 -0.00000000000E+00 -0.00000000000E+00 -0.45593999997E+02  0.45594000000E+02  0.51100000000E-03 0. -1.
    9900012    2    1    2    0    0  0.22659316726E+02  0.10819231678E+02  0.31979145812E+02  0.50528853729E+02  0.29999981394E+02 0.  0.
         12    1    1    2    0    0 -0.22659316726E+02 -0.10819231678E+02 -0.31979145812E+02  0.40659146271E+02  0.00000000000E+00 0. -1.
         11    1    3    3    0    0  0.12146660391E+02  0.12598408477E+01  0.18270999541E+02  0.21976305014E+02  0.51100000000E-03 0. -1.
        -11    1    3    3    0    0  0.16024121048E+02  0.10087505181E+02  0.13006165228E+02  0.22971516065E+02  0.51100000000E-03 0.  1.
         12    1    3    3    0    0 -0.55114647125E+01 -0.52811435064E+00  0.70198104407E+00  0.55810326491E+01  0.00000000000E+00 0. -1.
</event>
<event>
 7    1  0.2432574E-011  0.5052885E+02  0.7816164E-02  0.1300439E+00
        -11   -1    0    0    0    0  0.00000000000E+00  0.00000000000E+00  0.45593999997E+02  0.45594000000E+02  0.51100000000E-03 0. -1.
         11   -1    0    0    0    0 -0.00000000000E+00 -0.00000000000E+00 -0.45593999997E+02  0.45594000000E+02  0.51100000000E-03 0.  1.
    9900012    2    1    2    0    0 -0.39036785124E+01  0.24253453631E+02 -0.32399039994E+02  0.50528849597E+02  0.29999968835E+02 0.  0.
         12    1    1    2    0    0  0.39036785124E+01 -0.24253453631E+02  0.32399039994E+02  0.40659150403E+02  0.00000000000E+00 0. -1.
         11    1    3    3    0    0  0.36546144462E+01 -0.83639747666E+00 -0.25643402273E+01  0.45422030505E+01  0.51100000000E-03 0. -1.
        -11    1    3    3    0    0  0.37596502919E+01  0.17354751882E+02 -0.64739781639E+01  0.18900655458E+02  0.51100000000E-03 0.  1.
        -12    1    3    3    0    0 -0.11317943251E+02  0.77350992260E+01 -0.23360721603E+02  0.27085991089E+02  0.00000000000E+00 0.  1.
</event>
<event>
 7    1  0.2432574E-011  0.5052887E+02  0.7816164E-02  0.1300439E+00
        -11   -1    0    0    0    0  0.00000000000E+00  0.00000000000E+00  0.45593999997E+02  0.45594000000E+02  0.51100000000E-03 0.  1.
         11   -1    0    0    0    0 -0.00000000000E+00 -0.00000000000E+00 -0.45593999997E+02  0.45594000000E+02  0.51100000000E-03 0. -1.
    9900012    2    1    2    0    0  0.35130371644E+02  0.15509596151E+02  0.13359440453E+02  0.50528865309E+02  0.30000016592E+02 0.  0.
         12    1    1    2    0    0 -0.35130371644E+02 -0.15509596151E+02 -0.13359440453E+02  0.40659134691E+02  0.00000000000E+00 0. -1.
         11    1    3    3    0    0  0.49112757776E+01  0.13313262914E+01 -0.71761698929E+00  0.51388747662E+01  0.51100000000E-03 0. -1.
        -11    1    3    3    0    0  0.22359209611E+02  0.15143113792E+02  0.21513715743E+02  0.34526629072E+02  0.51100000000E-03 0.  1.
        -12    1    3    3    0    0  0.78598862556E+01 -0.96484393215E+00 -0.74366583006E+01  0.10863361471E+02  0.00000000000E+00 0.  1.
</event>
<event>
 7    1  0.2432574E-011  0.5052885E+02  0.7816164E-02  0.1300439E+00
        -11   -1    0    0    0    0  0.00000000000E+00  0.00000000000E+00  0.45593999997E+02  0.45594000000E+02  0.51100000000E-03 0. -1.
         11   -1    0    0    0    0 -0.00000000000E+00 -0.00000000000E+00 -0.45593999997E+02  0.45594000000E+02  0.51100000000E-03 0.  1.
    9900012    2    1    2    0    0 -0.34259940808E+02 -0.71447204576E+01 -0.20697246234E+02  0.50528848800E+02  0.29999966414E+02 0.  0.
         12    1    1    2    0    0  0.34259940808E+02  0.71447204576E+01  0.20697246234E+02  0.40659151200E+02  0.00000000000E+00 0. -1.
         11    1    3    3    0    0 -0.74573905627E+00 -0.51737591253E+01 -0.48960119522E+01  0.71620418544E+01  0.51100000000E-03 0. -1.
        -11    1    3    3    0    0 -0.21616517605E+02 -0.39018234693E+01 -0.20862217444E+02  0.30294061740E+02  0.51100000000E-03 0.  1.
         12    1    3    3    0    0 -0.11897684147E+02  0.19308621371E+01  0.50609831623E+01  0.13072745206E+02  0.00000000000E+00 0. -1.
</event>
<event>
 7    1  0.2432574E-011  0.5052883E+02  0.7816164E-02  0.1300439E+00
        -11   -1    0    0    0    0  0.00000000000E+00  0.00000000000E+00  0.45593999997E+02  0.45594000000E+02  0.51100000000E-03 0.  1.
         11   -1    0    0    0    0 -0.00000000000E+00 -0.00000000000E+00 -0.45593999997E+02  0.45594000000E+02  0.51100000000E-03 0. -1.
    9900012    2    1    2    0    0 -0.11018045046E+01  0.40335923460E+02 -0.49967337893E+01  0.50528830763E+02  0.29999911586E+02 0.  0.
         12    1    1    2    0    0  0.11018045046E+01 -0.40335923460E+02  0.49967337893E+01  0.40659169237E+02  0.00000000000E+00 0. -1.
         11    1    3    3    0    0 -0.28201736613E+00  0.17768572187E+02 -0.79232021289E+01  0.19457102137E+02  0.51100000000E-03 0. -1.
        -11    1    3    3    0    0 -0.89445575399E+01  0.20257174312E+02  0.41718626269E+01  0.22533589566E+02  0.51100000000E-03 0.  1.
        -12    1    3    3    0    0  0.81247704014E+01  0.23101769612E+01 -0.12453942873E+01  0.85381390595E+01  0.00000000000E+00 0.  1.
</event>
<event>
 7    1  0.2432574E-011  0.5052886E+02  0.7816164E-02  0.1300439E+00
        -11   -1    0    0    0    0  0.00000000000E+00  0.00000000000E+00  0.45593999997E+02  0.45594000000E+02  0.51100000000E-03 0.  1.
         11   -1    0    0    0    0 -0.00000000000E+00 -0.00000000000E+00 -0.45593999997E+02  0.45594000000E+02  0.51100000000E-03 0. -1.
    9900012    2    1    2    0    0 -0.34574800513E+02  0.17026054936E+02 -0.12956182450E+02  0.50528855385E+02  0.29999986427E+02 0.  0.
         12    1    1    2    0    0  0.34574800513E+02 -0.17026054936E+02  0.12956182450E+02  0.40659144615E+02  0.00000000000E+00 0. -1.
         11    1    3    3    0    0 -0.20158369607E+02 -0.35291794629E+00 -0.12723911860E+02  0.23840770742E+02  0.51100000000E-03 0. -1.
        -11    1    3    3    0    0 -0.13185558856E+02  0.73868334697E+01  0.42022600044E+01  0.15687041163E+02  0.51100000000E-03 0.  1.
        -12    1    3    3    0    0 -0.12308720500E+01  0.99921394129E+01 -0.44345305942E+01  0.11001043480E+02  0.00000000000E+00 0.  1.
</event>
<event>
 7    1  0.2432574E-011  0.5052886E+02  0.7816164E-02  0.1300439E+00
        -11   -1    0    0    0    0  0.00000000000E+00  0.00000000000E+00  0.45593999997E+02  0.45594000000E+02  0.51100000000E-03 0.  1.
         11   -1    0    0    0    0 -0.00000000000E+00 -0.00000000000E+00 -0.45593999997E+02  0.45594000000E+02  0.51100000000E-03 0. -1.
    9900012    2    1    2    0    0 -0.29058789548E+02 -0.24498317495E+02  0.14442455107E+02  0.50528864254E+02  0.30000013386E+02 0.  0.
         12    1    1    2    0    0  0.29058789548E+02  0.24498317495E+02 -0.14442455107E+02  0.40659135746E+02  0.00000000000E+00 0. -1.
         11    1    3    3    0    0 -0.23025379351E+01 -0.80437243672E+01  0.56321030971E+00  0.83857252967E+01  0.51100000000E-03 0.  1.
        -11    1    3    3    0    0  0.10714783029E+01 -0.10262324129E+02 -0.25930095413E+00  0.10321366166E+02  0.51100000000E-03 0. -1.
        -12    1    3    3    0    0 -0.27827729916E+02 -0.61922689991E+01  0.14138545752E+02  0.31821772791E+02  0.00000000000E+00 0.  1.
</event>
<event>
 7    1  0.2432574E-011  0.5052886E+02  0.7816164E-02  0.1300439E+00
        -11   -1    0    0    0    0  0.00000000000E+00  0.00000000000E+00  0.45593999997E+02  0.45594000000E+02  0.51100000000E-03 0. -1.
         11   -1    0    0    0    0 -0.00000000000E+00 -0.00000000000E+00 -0.45593999997E+02  0.45594000000E+02  0.51100000000E-03 0.  1.
    9900012    2    1    2    0    0 -0.27190302169E+02 -0.18127816262E+02 -0.24191633964E+02  0.50528863163E+02  0.30000010071E+02 0.  0.
         12    1    1    2    0    0  0.27190302169E+02  0.18127816262E+02  0.24191633964E+02  0.40659136837E+02  0.00000000000E+00 0. -1.
         11    1    3    3    0    0  0.17583894871E+01  0.43868858029E+01 -0.17890814452E+01  0.50534654758E+01  0.51100000000E-03 0. -1.
        -11    1    3    3    0    0 -0.42396685241E+01 -0.31482365482E+01 -0.10770748012E+02  0.11995632353E+02  0.51100000000E-03 0.  1.
         12    1    3    3    0    0 -0.24709023132E+02 -0.19366465517E+02 -0.11631804507E+02  0.33479765334E+02  0.00000000000E+00 0. -1.
</event>
<event>
 7    1  0.2432574E-011  0.5052886E+02  0.7816164E-02  0.1300439E+00
        -11   -1    0    0    0    0  0.00000000000E+00  0.00000000000E+00  0.45593999997E+02  0.45594000000E+02  0.51100000000E-03 0. -1.
         11   -1    0    0    0    0 -0.00000000000E+00 -0.00000000000E+00 -0.45593999997E+02  0.45594000000E+02  0.51100000000E-03 0.  1.
    9900012    2    1    2    0    0 -0.28038453878E+02  0.37329394280E+01 -0.29207470499E+02  0.50528855080E+02  0.29999985502E+02 0.  0.
         12    1    1    2    0    0  0.28038453878E+02 -0.37329394280E+01  0.29207470499E+02  0.40659144920E+02  0.00000000000E+00 0. -1.
         11    1    3    3    0    0 -0.24131970640E+01  0.18322978406E+01  0.27336309175E+01  0.40808790353E+01  0.51100000000E-03 0. -1.
        -11    1    3    3    0    0 -0.19169150981E+01  0.77114090619E+01 -0.14199295678E+02  0.16271459407E+02  0.51100000000E-03 0.  1.
        -12    1    3    3    0    0 -0.23708341716E+02 -0.58107674745E+01 -0.17741805739E+02  0.30176516638E+02  0.00000000000E+00 0.  1.
</event>
<event>
 7    1  0.2432574E-011  0.5052885E+02  0.7816164E-02  0.1300439E+00
        -11   -1    0    0    0    0  0.00000000000E+00  0.00000000000E+00  0.45593999997E+02  0.45594000000E+02  0.51100000000E-03 0. -1.
         11   -1    0    0    0    0 -0.00000000000E+00 -0.00000000000E+00 -0.45593999997E+02  0.45594000000E+02  0.51100000000E-03 0.  1.
    9900012    2    1    2    0    0  0.20637885806E+02  0.31155617960E+02 -0.16017844827E+02  0.50528853256E+02  0.29999979958E+02 0.  0.
         12    1    1    2    0    0 -0.20637885806E+02 -0.31155617960E+02  0.16017844827E+02  0.40659146744E+02  0.00000000000E+00 0. -1.
         11    1    3    3    0    0 -0.87827613644E-01 -0.77066985163E+00  0.29257495867E+01  0.30268228582E+01  0.51100000000E-03 0. -1.
        -11    1    3    3    0    0  0.14557240710E+02  0.19317544341E+02 -0.33213081994E+00  0.24190723172E+02  0.51100000000E-03 0.  1.
         12    1    3    3    0    0  0.61684727095E+01  0.12608743471E+02 -0.18611463594E+02  0.23311307226E+02  0.00000000000E+00 0. -1.
</event>
<event>
 7    1  0.2432574E-011  0.5052887E+02  0.7816164E-02  0.1300439E+00
        -11   -1    0    0    0    0  0.00000000000E+00  0.00000000000E+00  0.45593999997E+02  0.45594000000E+02  0.51100000000E-03 0. -1.
         11   -1    0    0    0    0 -0.00000000000E+00 -0.00000000000E+00 -0.45593999997E+02  0.45594000000E+02  0.51100000000E-03 0.  1.
    9900012    2    1    2    0    0 -0.35146408957E+02  0.10278411479E+02 -0.17670559561E+02  0.50528874576E+02  0.30000044760E+02 0.  0.
         12    1    1    2    0    0  0.35146408957E+02 -0.10278411479E+02  0.17670559561E+02  0.40659125424E+02  0.00000000000E+00 0. -1.
         11    1    3    3    0    0 -0.19168188264E+02 -0.37688697408E+01 -0.22436921376E+01  0.19663620601E+02  0.51100000000E-03 0. -1.
        -11    1    3    3    0    0 -0.14063294978E+02  0.32539983566E+01 -0.13443509550E+02  0.19725433334E+02  0.51100000000E-03 0.  1.
         12    1    3    3    0    0 -0.19149257147E+01  0.10793282863E+02 -0.19833578728E+01  0.11139820641E+02  0.00000000000E+00 0. -1.
</event>
<event>
 7    1  0.2432574E-011  0.5052886E+02  0.7816164E-02  0.1300439E+00
        -11   -1    0    0    0    0  0.00000000000E+00  0.00000000000E+00  0.45593999997E+02  0.45594000000E+02  0.51100000000E-03 0. -1.
         11   -1    0    0    0    0 -0.00000000000E+00 -0.00000000000E+00 -0.45593999997E+02  0.45594000000E+02  0.51100000000E-03 0.  1.
    9900012    2    1    2    0    0  0.14152453425E+02 -0.27922848670E+02 -0.25945872639E+02  0.50528859296E+02  0.29999998315E+02 0.  0.
         12    1    1    2    0    0 -0.14152453425E+02  0.27922848670E+02  0.25945872639E+02  0.40659140704E+02  0.00000000000E+00 0. -1.
         11    1    3    3    0    0  0.10055131860E+02 -0.91864312360E+01 -0.14736359064E+01  0.13699189707E+02  0.51100000000E-03 0. -1.
        -11    1    3    3    0    0 -0.48553476827E+01 -0.14355298422E+02 -0.69520117065E+01  0.16672716063E+02  0.51100000000E-03 0.  1.
         12    1    3    3    0    0  0.89526692479E+01 -0.43811190123E+01 -0.17520225026E+02  0.20156953526E+02  0.00000000000E+00 0. -1.
</event>
<event>
 7    1  0.2432574E-011  0.5052885E+02  0.7816164E-02  0.1300439E+00
        -11   -1    0    0    0    0  0.00000000000E+00  0.00000000000E+00  0.45593999997E+02  0.45594000000E+02  0.51100000000E-03 0.  1.
         11   -1    0    0    0    0 -0.00000000000E+00 -0.00000000000E+00 -0.45593999997E+02  0.45594000000E+02  0.51100000000E-03 0. -1.
    9900012    2    1    2    0    0  0.26066896995E+02 -0.30583280130E+02  0.61924160033E+01  0.50528853939E+02  0.29999982033E+02 0.  0.
         12    1    1    2    0    0 -0.26066896995E+02  0.30583280130E+02 -0.61924160033E+01  0.40659146061E+02  0.00000000000E+00 0. -1.
         11    1    3    3    0    0  0.87482515163E+00 -0.14578845424E+02 -0.97323997897E+00  0.14637460478E+02  0.51100000000E-03 0. -1.
        -11    1    3    3    0    0  0.76224921616E+01 -0.81645842367E+01  0.11646592553E+02  0.16137098279E+02  0.51100000000E-03 0.  1.
        -12    1    3    3    0    0  0.17569579682E+02 -0.78398504694E+01 -0.44809365706E+01  0.19754295182E+02  0.00000000000E+00 0.  1.
</event>
<event>
 7    1  0.2432574E-011  0.5052886E+02  0.7816164E-02  0.1300439E+00
        -11   -1    0    0    0    0  0.00000000000E+00  0.00000000000E+00  0.45593999997E+02  0.45594000000E+02  0.51100000000E-03 0.  1.
         11   -1    0    0    0    0 -0.00000000000E+00 -0.00000000000E+00 -0.45593999997E+02  0.45594000000E+02  0.51100000000E-03 0. -1.
    9900012    2    1    2    0    0  0.30287403713E+02  0.15932666517E+01  0.27079521628E+02  0.50528858175E+02  0.29999994910E+02 0.  0.
         12    1    1    2    0    0 -0.30287403713E+02 -0.15932666517E+01 -0.27079521628E+02  0.40659141825E+02  0.00000000000E+00 0. -1.
         11    1    3    3    0    0 -0.20354492182E+00  0.32702015052E+00  0.97467593418E+01  0.97543677726E+01  0.51100000000E-03 0.  1.
        -11    1    3    3    0    0  0.19990979497E+01 -0.27964253700E+01  0.10701948784E+02  0.11240466872E+02  0.51100000000E-03 0. -1.
         12    1    3    3    0    0  0.28491850685E+02  0.40626718712E+01  0.66308135016E+01  0.29534023531E+02  0.00000000000E+00 0. -1.
</event>
<event>
 7    1  0.2432574E-011  0.5052886E+02  0.7816164E-02  0.1300439E+00
        -11   -1    0    0    0    0  0.00000000000E+00  0.00000000000E+00  0.45593999997E+02  0.45594000000E+02  0.51100000000E-03 0.  1.
         11   -1    0    0    0    0 -0.00000000000E+00 -0.00000000000E+00 -0.45593999997E+02  0.45594000000E+02  0.51100000000E-03 0. -1.
    9900012    2    1    2    0    0  0.29907890861E+02  0.11528632728E+02  0.25015476936E+02  0.50528863331E+02  0.30000010581E+02 0.  0.
         12    1    1    2    0    0 -0.29907890861E+02 -0.11528632728E+02 -0.25015476936E+02  0.40659136669E+02  0.00000000000E+00 0. -1.
         11    1    3    3    0    0  0.87986176505E+01 -0.31390481534E+01  0.12978330819E+00  0.93427051670E+01  0.51100000000E-03 0. -1.
        -11    1    3    3    0    0  0.23442292037E+02  0.15477707569E+02  0.16799142883E+02  0.32730898084E+02  0.51100000000E-03 0.  1.
         12    1    3    3    0    0 -0.23330188260E+01 -0.81002668736E+00  0.80865507444E+01  0.84552600799E+01  0.00000000000E+00 0. -1.
</event>
<event>
 7    1  0.2432574E-011  0.5052886E+02  0.7816164E-02  0.1300439E+00
        -11   -1    0    0    0    0  0.00000000000E+00  0.00000000000E+00  0.45593999997E+02  0.45594000000E+02  0.51100000000E-03 0. -1.
         11   -1    0    0    0    0 -0.00000000000E+00 -0.00000000000E+00 -0.45593999997E+02  0.45594000000E+02  0.51100000000E-03 0.  1.
    9900012    2    1    2    0    0  0.17664152183E+02 -0.80876291488E+01 -0.35717411536E+02  0.50528861981E+02  0.30000006477E+02 0.  0.
         12    1    1    2    0    0 -0.17664152183E+02  0.80876291488E+01  0.35717411536E+02  0.40659138019E+02  0.00000000000E+00 0. -1.
         11    1    3    3    0    0 -0.26894894509E+01 -0.30887815034E+01 -0.25910229939E+01  0.48463723648E+01  0.51100000000E-03 0.  1.
        -11    1    3    3    0    0  0.14286974617E+02 -0.10080881552E+02 -0.77961954550E+01  0.19144776844E+02  0.51100000000E-03 0. -1.
         12    1    3    3    0    0  0.60666670176E+01  0.50820339066E+01 -0.25330193087E+02  0.26537712772E+02  0.00000000000E+00 0. -1.
</event>
<event>
 7    1  0.2432574E-011  0.5052886E+02  0.7816164E-02  0.1300439E+00
        -11   -1    0    0    0    0  0.00000000000E+00  0.00000000000E+00  0.45593999997E+02  0.45594000000E+02  0.51100000000E-03 0.  1.
         11   -1    0    0    0    0 -0.00000000000E+00 -0.00000000000E+00 -0.45593999997E+02  0.45594000000E+02  0.51100000000E-03 0. -1.
    9900012    2    1    2    0    0  0.10061040846E+02  0.28162747048E+02  0.27546337447E+02  0.50528861164E+02  0.30000003993E+02 0.  0.
         12    1    1    2    0    0 -0.10061040846E+02 -0.28162747048E+02 -0.27546337447E+02  0.40659138836E+02  0.00000000000E+00 0. -1.
         11    1    3    3    0    0 -0.18496889938E+00  0.20199756184E+02  0.14130967621E+02  0.24652557870E+02  0.51100000000E-03 0.  1.
        -11    1    3    3    0    0  0.13730174067E+02  0.53429177115E+01  0.15197534271E+02  0.21166707296E+02  0.51100000000E-03 0. -1.
         12    1    3    3    0    0 -0.34841643218E+01  0.26200731531E+01 -0.17821644452E+01  0.47095959974E+01  0.00000000000E+00 0. -1.
</event>
<event>
 7    1  0.2432574E-011  0.5052882E+02  0.7816164E-02  0.1300439E+00
        -11   -1    0    0    0    0  0.00000000000E+00  0.00000000000E+00  0.45593999997E+02  0.45594000000E+02  0.51100000000E-03 0.  1.
         11   -1    0    0    0    0 -0.00000000000E+00 -0.00000000000E+00 -0.45593999997E+02  0.45594000000E+02  0.51100000000E-03 0. -1.
    9900012    2    1    2    0    0  0.32842813836E+02 -0.10910021419E+02  0.21342212751E+02  0.50528818587E+02  0.29999874577E+02 0.  0.
         12    1    1    2    0    0 -0.32842813836E+02  0.10910021419E+02 -0.21342212751E+02  0.40659181413E+02  0.00000000000E+00 0. -1.
         11    1    3    3    0    0  0.13957290841E+02  0.13028288854E+01  0.45146323625E+01  0.14727024016E+02  0.51100000000E-03 0. -1.
        -11    1    3    3    0    0  0.19947627776E+02 -0.48011044046E+01  0.39327771077E+01  0.20890792073E+02  0.51100000000E-03 0.  1.
        -12    1    3    3    0    0 -0.10621047812E+01 -0.74117458996E+01  0.12894803281E+02  0.14911002499E+02  0.00000000000E+00 0.  1.
</event>
<event>
 7    1  0.2432574E-011  0.5052885E+02  0.7816164E-02  0.1300439E+00
        -11   -1    0    0    0    0  0.00000000000E+00  0.00000000000E+00  0.45593999997E+02  0.45594000000E+02  0.51100000000E-03 0.  1.
         11   -1    0    0    0    0 -0.00000000000E+00 -0.00000000000E+00 -0.45593999997E+02  0.45594000000E+02  0.51100000000E-03 0. -1.
    9900012    2    1    2    0    0 -0.11363776581E+01  0.39334306760E+02  0.10231691854E+02  0.50528848993E+02  0.29999966998E+02 0.  0.
         12    1    1    2    0    0  0.11363776581E+01 -0.39334306760E+02 -0.10231691854E+02  0.40659151007E+02  0.00000000000E+00 0. -1.
         11    1    3    3    0    0 -0.72400318715E+01  0.57018642243E+01 -0.29633526383E+01  0.96804326480E+01  0.51100000000E-03 0. -1.
        -11    1    3    3    0    0 -0.55307558145E+01  0.84746660003E+01  0.73860879984E+01  0.12528508286E+02  0.51100000000E-03 0.  1.
        -12    1    3    3    0    0  0.11634410028E+02  0.25157776535E+02  0.58089564941E+01  0.28319908058E+02  0.00000000000E+00 0.  1.
</event>
<event>
 7    1  0.2432574E-011  0.5052886E+02  0.7816164E-02  0.1300439E+00
        -11   -1    0    0    0    0  0.00000000000E+00  0.00000000000E+00  0.45593999997E+02  0.45594000000E+02  0.51100000000E-03 0. -1.
         11   -1    0    0    0    0 -0.00000000000E+00 -0.00000000000E+00 -0.45593999997E+02  0.45594000000E+02  0.51100000000E-03 0.  1.
    9900012    2    1    2    0    0  0.22923326440E+02  0.32996173362E+02  0.62401164546E+01  0.50528863204E+02  0.30000010196E+02 0.  0.
         12    1    1    2    0    0 -0.22923326440E+02 -0.32996173362E+02 -0.62401164546E+01  0.40659136796E+02  0.00000000000E+00 0. -1.
         11    1    3    3    0    0  0.11987924518E+02  0.16851442301E+02  0.50627829340E+01  0.21291153401E+02  0.51100000000E-03 0. -1.
        -11    1    3    3    0    0  0.16875116084E+02  0.14773220653E+02  0.35286786813E+01  0.22703946018E+02  0.51100000000E-03 0.  1.
         12    1    3    3    0    0 -0.59397141621E+01  0.13715104086E+01 -0.23513451607E+01  0.65337637846E+01  0.00000000000E+00 0. -1.
</event>
<event>
 7    1  0.2432574E-011  0.5052885E+02  0.7816164E-02  0.1300439E+00
        -11   -1    0    0    0    0  0.00000000000E+00  0.00000000000E+00  0.45593999997E+02  0.45594000000E+02  0.51100000000E-03 0. -1.
         11   -1    0    0    0    0 -0.00000000000E+00 -0.00000000000E+00 -0.45593999997E+02  0.45594000000E+02  0.51100000000E-03 0.  1.
    9900012    2    1    2    0    0 -0.17443954286E+01 -0.34492493471E+02 -0.21456743028E+02  0.50528845525E+02  0.29999956458E+02 0.  0.
         12    1    1    2    0    0  0.17443954286E+01  0.34492493471E+02  0.21456743028E+02  0.40659154475E+02  0.00000000000E+00 0. -1.
         11    1    3    3    0    0 -0.17133471591E+01 -0.11225936613E+02 -0.81371737412E+01  0.13970354615E+02  0.51100000000E-03 0.  1.
        -11    1    3    3    0    0 -0.31628955053E+01  0.83905809482E+00 -0.11752792972E+02  0.12199838908E+02  0.51100000000E-03 0. -1.
         12    1    3    3    0    0  0.31318472358E+01 -0.24105614952E+02 -0.15667763149E+01  0.24358652002E+02  0.00000000000E+00 0. -1.
</event>
<event>
 7    1  0.2432574E-011  0.5052886E+02  0.7816164E-02  0.1300439E+00
        -11   -1    0    0    0    0  0.00000000000E+00  0.00000000000E+00  0.45593999997E+02  0.45594000000E+02  0.51100000000E-03 0. -1.
         11   -1    0    0    0    0 -0.00000000000E+00 -0.00000000000E+00 -0.45593999997E+02  0.45594000000E+02  0.51100000000E-03 0.  1.
    9900012    2    1    2    0    0 -0.40700958562E+01 -0.37317265698E+02 -0.15621179959E+02  0.50528864953E+02  0.30000015512E+02 0.  0.
         12    1    1    2    0    0  0.40700958562E+01  0.37317265698E+02  0.15621179959E+02  0.40659135047E+02  0.00000000000E+00 0. -1.
         11    1    3    3    0    0 -0.55251339667E+00  0.51966443589E+01 -0.87242011032E+00  0.52982545009E+01  0.51100000000E-03 0. -1.
        -11    1    3    3    0    0 -0.12738280974E+01 -0.55712472427E+01 -0.25832317263E+01  0.62717238678E+01  0.51100000000E-03 0.  1.
         12    1    3    3    0    0 -0.22437543622E+01 -0.36942662814E+02 -0.12165528123E+02  0.38958886585E+02  0.00000000000E+00 0. -1.
</event>
<event>
 7    1  0.2432574E-011  0.5052886E+02  0.7816164E-02  0.1300439E+00
        -11   -1    0    0    0    0  0.00000000000E+00  0.00000000000E+00  0.45593999997E+02  0.45594000000E+02  0.51100000000E-03 0.  1.
         11   -1    0    0    0    0 -0.00000000000E+00 -0.00000000000E+00 -0.45593999997E+02  0.45594000000E+02  0.51100000000E-03 0. -1.
    9900012    2    1    2    0    0 -0.61499059428E+01  0.39370121545E+02  0.80831878521E+01  0.50528859091E+02  0.29999997693E+02 0.  0.
         12    1    1    2    0    0  0.61499059428E+01 -0.39370121545E+02 -0.80831878521E+01  0.40659140909E+02  0.00000000000E+00 0. -1.
         11    1    3    3    0    0 -0.23875764914E+01  0.27648863575E+02  0.21081690750E+01  0.27831718517E+02  0.51100000000E-03 0. -1.
        -11    1    3    3    0    0 -0.27463945327E+01  0.14459615769E+02 -0.13807219854E+01  0.14782745502E+02  0.51100000000E-03 0.  1.
         12    1    3    3    0    0 -0.10159349186E+01 -0.27383577987E+01  0.73557407625E+01  0.79143950721E+01  0.00000000000E+00 0. -1.
</event>
<event>
 7    1  0.2432574E-011  0.5052886E+02  0.7816164E-02  0.1300439E+00
        -11   -1    0    0    0    0  0.00000000000E+00  0.00000000000E+00  0.45593999997E+02  0.45594000000E+02  0.51100000000E-03 0. -1.
         11   -1    0    0    0    0 -0.00000000000E+00 -0.00000000000E+00 -0.45593999997E+02  0.45594000000E+02  0.51100000000E-03 0.  1.
    9900012    2    1    2    0    0  0.33457956141E+02  0.15411962599E+02 -0.17210537690E+02  0.50528855545E+02  0.29999986915E+02 0.  0.
         12    1    1    2    0    0 -0.33457956141E+02 -0.15411962599E+02  0.17210537690E+02  0.40659144455E+02  0.00000000000E+00 0. -1.
         11    1    3    3    0    0  0.75287525270E+00 -0.63593098233E+01 -0.22520714324E+01  0.67881859559E+01  0.51100000000E-03 0. -1.
        -11    1    3    3    0    0  0.31128714941E+01  0.72140640161E+01 -0.96630951775E+00  0.79162139254E+01  0.51100000000E-03 0.  1.
        -12    1    3    3    0    0  0.29592209394E+02  0.14557208406E+02 -0.13992156740E+02  0.35824455664E+02  0.00000000000E+00 0.  1.
</event>
<event>
 7    1  0.2432574E-011  0.5052882E+02  0.7816164E-02  0.1300439E+00
        -11   -1    0    0    0    0  0.00000000000E+00  0.00000000000E+00  0.45593999997E+02  0.45594000000E+02  0.51100000000E-03 0. -1.
         11   -1    0    0    0    0 -0.00000000000E+00 -0.00000000000E+00 -0.45593999997E+02  0.45594000000E+02  0.51100000000E-03 0.  1.
    9900012    2    1    2    0    0  0.42344852434E+01  0.10036759071E+02 -0.39172712128E+02  0.50528821782E+02  0.29999884287E+02 0.  0.
         12    1    1    2    0    0 -0.42344852434E+01 -0.10036759071E+02  0.39172712128E+02  0.40659178218E+02  0.00000000000E+00 0. -1.
         11    1    3    3    0    0  0.21924346209E+01  0.73786689937E+01 -0.27690378794E+02  0.28740365407E+02  0.51100000000E-03 0. -1.
        -11    1    3    3    0    0  0.28374099379E+01 -0.66720339482E+01 -0.99323262767E+01  0.12297074355E+02  0.51100000000E-03 0.  1.
         12    1    3    3    0    0 -0.79535931539E+00  0.93301240257E+01 -0.15500070575E+01  0.94913820202E+01  0.00000000000E+00 0. -1.
</event>
<event>
 7    1  0.2432574E-011  0.5052886E+02  0.7816164E-02  0.1300439E+00
        -11   -1    0    0    0    0  0.00000000000E+00  0.00000000000E+00  0.45593999997E+02  0.45594000000E+02  0.51100000000E-03 0. -1.
         11   -1    0    0    0    0 -0.00000000000E+00 -0.00000000000E+00 -0.45593999997E+02  0.45594000000E+02  0.51100000000E-03 0.  1.
    9900012    2    1    2    0    0 -0.36365772310E+02  0.17451506766E+02  0.51128311797E+01  0.50528861706E+02  0.30000005643E+02 0.  0.
         12    1    1    2    0    0  0.36365772310E+02 -0.17451506766E+02 -0.51128311797E+01  0.40659138294E+02  0.00000000000E+00 0. -1.
         11    1    3    3    0    0  0.25400332684E+01  0.10452602856E+01 -0.35993611605E+01  0.45276637567E+01  0.51100000000E-03 0. -1.
        -11    1    3    3    0    0 -0.77953659877E+01  0.88712211229E+01 -0.25243013622E+01  0.12076356765E+02  0.51100000000E-03 0.  1.
         12    1    3    3    0    0 -0.31110439591E+02  0.75350253576E+01  0.11236493702E+02  0.33924841184E+02  0.00000000000E+00 0. -1.
</event>
<event>
 7    1  0.2432574E-011  0.5052884E+02  0.7816164E-02  0.1300439E+00
        -11   -1    0    0    0    0  0.00000000000E+00  0.00000000000E+00  0.45593999997E+02  0.45594000000E+02  0.51100000000E-03 0.  1.
         11   -1    0    0    0    0 -0.00000000000E+00 -0.00000000000E+00 -0.45593999997E+02  0.45594000000E+02  0.51100000000E-03 0. -1.
    9900012    2    1    2    0    0  0.78961402087E+01  0.48889680563E+01  0.39584288893E+02  0.50528844008E+02  0.29999951847E+02 0.  0.
         12    1    1    2    0    0 -0.78961402087E+01 -0.48889680563E+01 -0.39584288893E+02  0.40659155992E+02  0.00000000000E+00 0. -1.
         11    1    3    3    0    0  0.14121490238E+02  0.17780598626E+01  0.20074375398E+02  0.24608098897E+02  0.51100000000E-03 0. -1.
        -11    1    3    3    0    0  0.48711029708E+00  0.56307568634E+01  0.17622506920E+02  0.18506632587E+02  0.51100000000E-03 0.  1.
         12    1    3    3    0    0 -0.67124603264E+01 -0.25198486697E+01  0.18874065746E+01  0.74141125248E+01  0.00000000000E+00 0. -1.
</event>
<event>
 7    1  0.2727265E-011  0.5052885E+02  0.7816164E-02  0.1300439E+00
        -11   -1    0    0    0    0  0.00000000000E+00  0.00000000000E+00  0.45593999997E+02  0.45594000000E+02  0.51100000000E-03 0. -1.
         11   -1    0    0    0    0 -0.00000000000E+00 -0.00000000000E+00 -0.45593999997E+02  0.45594000000E+02  0.51100000000E-03 0.  1.
    9900012    2    1    2    0    0  0.40155022788E+01 -0.22201559066E+02 -0.33825038356E+02  0.50528847239E+02  0.29999961667E+02 0.  0.
         12    1    1    2    0    0 -0.40155022788E+01  0.22201559066E+02  0.33825038356E+02  0.40659152761E+02  0.00000000000E+00 0. -1.
         11    1    3    3    0    0 -0.36351012884E+01 -0.54652509510E+01  0.12042847942E+00  0.65648634878E+01  0.51100000000E-03 0. -1.
        -11    1    3    3    0    0 -0.22869652368E+01  0.41802090340E+01 -0.52459329727E+01  0.70869013382E+01  0.51100000000E-03 0.  1.
        -12    1    3    3    0    0  0.99375688039E+01 -0.20916517149E+02 -0.28699533862E+02  0.36877082413E+02  0.00000000000E+00 0.  1.
</event>
<event>
 7    1  0.2432574E-011  0.5052886E+02  0.7816164E-02  0.1300439E+00
        -11   -1    0    0    0    0  0.00000000000E+00  0.00000000000E+00  0.45593999997E+02  0.45594000000E+02  0.51100000000E-03 0.  1.
         11   -1    0    0    0    0 -0.00000000000E+00 -0.00000000000E+00 -0.45593999997E+02  0.45594000000E+02  0.51100000000E-03 0. -1.
    9900012    2    1    2    0    0 -0.36171000483E+02 -0.17640475340E+02  0.57998202016E+01  0.50528861291E+02  0.30000004381E+02 0.  0.
         12    1    1    2    0    0  0.36171000483E+02  0.17640475340E+02 -0.57998202016E+01  0.40659138709E+02  0.00000000000E+00 0. -1.
         11    1    3    3    0    0 -0.84094627636E+01 -0.46664931278E+01  0.66536444698E+01  0.11694708508E+02  0.51100000000E-03 0.  1.
        -11    1    3    3    0    0 -0.21782249130E+02  0.14481233582E+01  0.45753282089E+01  0.22304642272E+02  0.51100000000E-03 0. -1.
         12    1    3    3    0    0 -0.59792885893E+01 -0.14422105571E+02 -0.54291524770E+01  0.16529510511E+02  0.00000000000E+00 0. -1.
</event>
<event>
 7    1  0.2432574E-011  0.5052886E+02  0.7816164E-02  0.1300439E+00
        -11   -1    0    0    0    0  0.00000000000E+00  0.00000000000E+00  0.45593999997E+02  0.45594000000E+02  0.51100000000E-03 0.  1.
         11   -1    0    0    0    0 -0.00000000000E+00 -0.00000000000E+00 -0.45593999997E+02  0.45594000000E+02  0.51100000000E-03 0. -1.
    9900012    2    1    2    0    0  0.60049084384E+01  0.27138433883E+02  0.29675113260E+02  0.50528857535E+02  0.29999992963E+02 0.  0.
         12    1    1    2    0    0 -0.60049084384E+01 -0.27138433883E+02 -0.29675113260E+02  0.40659142465E+02  0.00000000000E+00 0. -1.
         11    1    3    3    0    0 -0.67411666290E+01  0.14508130120E+02  0.12915382961E+02  0.20560551655E+02  0.51100000000E-03 0. -1.
        -11    1    3    3    0    0  0.38320644455E+01  0.11321920711E+02  0.12321026741E+01  0.12016184243E+02  0.51100000000E-03 0.  1.
         12    1    3    3    0    0  0.89140106220E+01  0.13083830528E+01  0.15527627625E+02  0.17952121637E+02  0.00000000000E+00 0. -1.
</event>
<event>
 7    1  0.2432574E-011  0.5052886E+02  0.7816164E-02  0.1300439E+00
        -11   -1    0    0    0    0  0.00000000000E+00  0.00000000000E+00  0.45593999997E+02  0.45594000000E+02  0.51100000000E-03 0. -1.
         11   -1    0    0    0    0 -0.00000000000E+00 -0.00000000000E+00 -0.45593999997E+02  0.45594000000E+02  0.51100000000E-03 0.  1.
    9900012    2    1    2    0    0 -0.24716047158E+00  0.37028416090E+02 -0.16792887927E+02  0.50528858699E+02  0.29999996501E+02 0.  0.
         12    1    1    2    0    0  0.24716047158E+00 -0.37028416090E+02  0.16792887927E+02  0.40659141301E+02  0.00000000000E+00 0. -1.
         11    1    3    3    0    0 -0.68717468716E+01  0.79496300779E+01  0.56633588866E+01  0.11936966012E+02  0.51100000000E-03 0. -1.
        -11    1    3    3    0    0  0.52608035629E+01  0.24242124076E+02 -0.13299015288E+02  0.28146410815E+02  0.51100000000E-03 0.  1.
        -12    1    3    3    0    0  0.13637828371E+01  0.48366619355E+01 -0.91572315263E+01  0.10445481872E+02  0.00000000000E+00 0.  1.
</event>
<event>
 7    1  0.2432574E-011  0.5052886E+02  0.7816164E-02  0.1300439E+00
        -11   -1    0    0    0    0  0.00000000000E+00  0.00000000000E+00  0.45593999997E+02  0.45594000000E+02  0.51100000000E-03 0. -1.
         11   -1    0    0    0    0 -0.00000000000E+00 -0.00000000000E+00 -0.45593999997E+02  0.45594000000E+02  0.51100000000E-03 0.  1.
    9900012    2    1    2    0    0 -0.30626186006E+02 -0.20899528439E+02 -0.16685687948E+02  0.50528859077E+02  0.29999997652E+02 0.  0.
         12    1    1    2    0    0  0.30626186006E+02  0.20899528439E+02  0.16685687948E+02  0.40659140923E+02  0.00000000000E+00 0. -1.
         11    1    3    3    0    0  0.28130235120E+01  0.32301595188E+01  0.18439257857E+01  0.46633779989E+01  0.51100000000E-03 0. -1.
        -11    1    3    3    0    0 -0.13551335529E+02 -0.52522027482E+01 -0.66192268518E+01  0.15969924630E+02  0.51100000000E-03 0.  1.
        -12    1    3    3    0    0 -0.19887873989E+02 -0.18877485210E+02 -0.11910386882E+02  0.29895556448E+02  0.00000000000E+00 0.  1.
</event>
<event>
 7    1  0.2432574E-011  0.5052883E+02  0.7816164E-02  0.1300439E+00
        -11   -1    0    0    0    0  0.00000000000E+00  0.00000000000E+00  0.45593999997E+02  0.45594000000E+02  0.51100000000E-03 0.  1.
         11   -1    0    0    0    0 -0.00000000000E+00 -0.00000000000E+00 -0.45593999997E+02  0.45594000000E+02  0.51100000000E-03 0. -1.
    9900012    2    1    2    0    0  0.36205508930E+02 -0.92999396284E+01  0.15995010849E+02  0.50528829742E+02  0.29999908485E+02 0.  0.
         12    1    1    2    0    0 -0.36205508930E+02  0.92999396284E+01 -0.15995010849E+02  0.40659170258E+02  0.00000000000E+00 0. -1.
         11    1    3    3    0    0  0.14080116742E+02 -0.11845467892E+02  0.52930920173E+01  0.19146321328E+02  0.51100000000E-03 0. -1.
        -11    1    3    3    0    0  0.18110220090E+02 -0.27117814201E+01 -0.56083827911E+00  0.18320708775E+02  0.51100000000E-03 0.  1.
         12    1    3    3    0    0  0.40151720983E+01  0.52573096833E+01  0.11262757110E+02  0.13061799639E+02  0.00000000000E+00 0. -1.
</event>
<event>
 7    1  0.2432574E-011  0.5052884E+02  0.7816164E-02  0.1300439E+00
        -11   -1    0    0    0    0  0.00000000000E+00  0.00000000000E+00  0.45593999997E+02  0.45594000000E+02  0.51100000000E-03 0. -1.
         11   -1    0    0    0    0 -0.00000000000E+00 -0.00000000000E+00 -0.45593999997E+02  0.45594000000E+02  0.51100000000E-03 0.  1.
    9900012    2    1    2    0    0  0.10319219781E+02 -0.28066537311E+02 -0.27549059727E+02  0.50528837375E+02  0.29999931685E+02 0.  0.
         12    1    1    2    0    0 -0.10319219781E+02  0.28066537311E+02  0.27549059727E+02  0.40659162625E+02  0.00000000000E+00 0. -1.
         11    1    3    3    0    0 -0.40112198011E+01 -0.59139184009E+01 -0.97203061356E+01  0.12064355216E+02  0.51100000000E-03 0. -1.
        -11    1    3    3    0    0 -0.24811032417E+01 -0.85461565511E+01 -0.13866896701E+02  0.16476756036E+02  0.51100000000E-03 0.  1.
        -12    1    3    3    0    0  0.16811542824E+02 -0.13606462359E+02 -0.39618568902E+01  0.21987726123E+02  0.00000000000E+00 0.  1.
</event>
<event>
 7    1  0.2432574E-011  0.5052885E+02  0.7816164E-02  0.1300439E+00
        -11   -1    0    0    0    0  0.00000000000E+00  0.00000000000E+00  0.45593999997E+02  0.45594000000E+02  0.51100000000E-03 0.  1.
         11   -1    0    0    0    0 -0.00000000000E+00 -0.00000000000E+00 -0.45593999997E+02  0.45594000000E+02  0.51100000000E-03 0. -1.
    9900012    2    1    2    0    0  0.11576281305E+02  0.82838871576E+01  0.38085867874E+02  0.50528850882E+02  0.29999972741E+02 0.  0.
         12    1    1    2    0    0 -0.11576281305E+02 -0.82838871576E+01 -0.38085867874E+02  0.40659149118E+02  0.00000000000E+00 0. -1.
         11    1    3    3    0    0  0.60436499759E+01  0.40734855772E+01  0.11221895096E+02  0.13380953613E+02  0.51100000000E-03 0. -1.
        -11    1    3    3    0    0 -0.19909707200E+01  0.13440880543E+02  0.12229707604E+02  0.18280781781E+02  0.51100000000E-03 0.  1.
         12    1    3    3    0    0  0.75236020495E+01 -0.92304789627E+01  0.14634265174E+02  0.18867115489E+02  0.00000000000E+00 0. -1.
</event>
<event>
 7    1  0.2432574E-011  0.5052886E+02  0.7816164E-02  0.1300439E+00
        -11   -1    0    0    0    0  0.00000000000E+00  0.00000000000E+00  0.45593999997E+02  0.45594000000E+02  0.51100000000E-03 0. -1.
         11   -1    0    0    0    0 -0.00000000000E+00 -0.00000000000E+00 -0.45593999997E+02  0.45594000000E+02  0.51100000000E-03 0.  1.
    9900012    2    1    2    0    0 -0.11544730052E+02 -0.16772854929E+02 -0.35193131192E+02  0.50528856655E+02  0.29999990288E+02 0.  0.
         12    1    1    2    0    0  0.11544730052E+02  0.16772854929E+02  0.35193131192E+02  0.40659143345E+02  0.00000000000E+00 0. -1.
         11    1    3    3    0    0 -0.14397134755E+02 -0.68771929095E+01 -0.51611040875E+01  0.16769325184E+02  0.51100000000E-03 0.  1.
        -11    1    3    3    0    0  0.10410242653E+00  0.25661933643E+01 -0.37774371511E+01  0.45678460339E+01  0.51100000000E-03 0. -1.
         12    1    3    3    0    0  0.27483022758E+01 -0.12461855384E+02 -0.26254589954E+02  0.29191685437E+02  0.00000000000E+00 0. -1.
</event>
<event>
 7    1  0.2432574E-011  0.5052887E+02  0.7816164E-02  0.1300439E+00
        -11   -1    0    0    0    0  0.00000000000E+00  0.00000000000E+00  0.45593999997E+02  0.45594000000E+02  0.51100000000E-03 0.  1.
         11   -1    0    0    0    0 -0.00000000000E+00 -0.00000000000E+00 -0.45593999997E+02  0.45594000000E+02  0.51100000000E-03 0. -1.
    9900012    2    1    2    0    0  0.29157160761E+02  0.31772786867E+01  0.28159004872E+02  0.50528872133E+02  0.30000037337E+02 0.  0.
         12    1    1    2    0    0 -0.29157160761E+02 -0.31772786867E+01 -0.28159004872E+02  0.40659127867E+02  0.00000000000E+00 0. -1.
         11    1    3    3    0    0  0.49956164322E+00  0.63213980666E+01 -0.77028123392E+00  0.63877201560E+01  0.51100000000E-03 0. -1.
        -11    1    3    3    0    0  0.13472102819E+02  0.30667243684E+01  0.41570373542E+01  0.14428558921E+02  0.51100000000E-03 0.  1.
         12    1    3    3    0    0  0.15185496299E+02 -0.62108437482E+01  0.24772248752E+02  0.29712593056E+02  0.00000000000E+00 0. -1.
</event>
<event>
 7    1  0.2432574E-011  0.5052886E+02  0.7816164E-02  0.1300439E+00
        -11   -1    0    0    0    0  0.00000000000E+00  0.00000000000E+00  0.45593999997E+02  0.45594000000E+02  0.51100000000E-03 0.  1.
         11   -1    0    0    0    0 -0.00000000000E+00 -0.00000000000E+00 -0.45593999997E+02  0.45594000000E+02  0.51100000000E-03 0. -1.
    9900012    2    1    2    0    0 -0.26595298710E+02  0.23846552159E+02  0.19421586191E+02  0.50528856213E+02  0.29999988944E+02 0.  0.
         12    1    1    2    0    0  0.26595298710E+02 -0.23846552159E+02 -0.19421586191E+02  0.40659143787E+02  0.00000000000E+00 0. -1.
         11    1    3    3    0    0 -0.38331030601E+01 -0.13442084466E+00 -0.29005579434E+01  0.48087404460E+01  0.51100000000E-03 0. -1.
        -11    1    3    3    0    0  0.27962587493E+01  0.10584009937E+02  0.75839411209E+01  0.13317525766E+02  0.51100000000E-03 0.  1.
        -12    1    3    3    0    0 -0.25558454400E+02  0.13396963066E+02  0.14738203013E+02  0.32402590001E+02  0.00000000000E+00 0.  1.
</event>
<event>
 7    1  0.2432574E-011  0.5052886E+02  0.7816164E-02  0.1300439E+00
        -11   -1    0    0    0    0  0.00000000000E+00  0.00000000000E+00  0.45593999997E+02  0.45594000000E+02  0.51100000000E-03 0.  1.
         11   -1    0    0    0    0 -0.00000000000E+00 -0.00000000000E+00 -0.45593999997E+02  0.45594000000E+02  0.51100000000E-03 0. -1.
    9900012    2    1    2    0    0 -0.83563135652E+00 -0.28672035911E+02  0.28816340401E+02  0.50528863300E+02  0.30000010487E+02 0.  0.
         12    1    1    2    0    0  0.83563135652E+00  0.28672035911E+02 -0.28816340401E+02  0.40659136700E+02  0.00000000000E+00 0. -1.
         11    1    3    3    0    0  0.14584582864E+01 -0.13569315452E+01 -0.18853676265E+01  0.27428042475E+01  0.51100000000E-03 0. -1.
        -11    1    3    3    0    0 -0.13151121950E+01 -0.10800681534E+02 -0.20698441614E+01  0.11075581105E+02  0.51100000000E-03 0.  1.
        -12    1    3    3    0    0 -0.97897744792E+00 -0.16514422832E+02  0.32771552189E+02  0.36710477948E+02  0.00000000000E+00 0.  1.
</event>
<event>
 7    1  0.2432574E-011  0.5052886E+02  0.7816164E-02  0.1300439E+00
        -11   -1    0    0    0    0  0.00000000000E+00  0.00000000000E+00  0.45593999997E+02  0.45594000000E+02  0.51100000000E-03 0. -1.
         11   -1    0    0    0    0 -0.00000000000E+00 -0.00000000000E+00 -0.45593999997E+02  0.45594000000E+02  0.51100000000E-03 0.  1.
    9900012    2    1    2    0    0 -0.65415303587E+01  0.24463404122E+02 -0.31810622058E+02  0.50528862818E+02  0.30000009020E+02 0.  0.
         12    1    1    2    0    0  0.65415303587E+01 -0.24463404122E+02  0.31810622058E+02  0.40659137182E+02  0.00000000000E+00 0. -1.
         11    1    3    3    0    0 -0.45985587686E+01  0.21714506577E+02 -0.16153190356E+02  0.27451631966E+02  0.51100000000E-03 0. -1.
        -11    1    3    3    0    0 -0.61138991516E+01  0.70688239404E+01 -0.14026207364E+02  0.16854747936E+02  0.51100000000E-03 0.  1.
         12    1    3    3    0    0  0.41709275615E+01 -0.43199263957E+01 -0.16312243392E+01  0.62224829154E+01  0.00000000000E+00 0. -1.
</event>
<event>
 7    1  0.2432574E-011  0.5052886E+02  0.7816164E-02  0.1300439E+00
        -11   -1    0    0    0    0  0.00000000000E+00  0.00000000000E+00  0.45593999997E+02  0.45594000000E+02  0.51100000000E-03 0.  1.
         11   -1    0    0    0    0 -0.00000000000E+00 -0.00000000000E+00 -0.45593999997E+02  0.45594000000E+02  0.51100000000E-03 0. -1.
    9900012    2    1    2    0    0 -0.62801584628E+01 -0.32938525366E+02  0.22995197427E+02  0.50528856523E+02  0.29999989886E+02 0.  0.
         12    1    1    2    0    0  0.62801584628E+01  0.32938525366E+02 -0.22995197427E+02  0.40659143477E+02  0.00000000000E+00 0. -1.
         11    1    3    3    0    0  0.13655069089E+01 -0.76093439724E+01 -0.15048011728E+01  0.78759857567E+01  0.51100000000E-03 0. -1.
        -11    1    3    3    0    0  0.61495560882E+01 -0.18373439404E+02  0.15140749025E+02  0.24589481428E+02  0.51100000000E-03 0.  1.
        -12    1    3    3    0    0 -0.13795221460E+02 -0.69557419898E+01  0.93592495747E+01  0.18063389337E+02  0.00000000000E+00 0.  1.
</event>
<event>
 7    1  0.2432574E-011  0.5052885E+02  0.7816164E-02  0.1300439E+00
        -11   -1    0    0    0    0  0.00000000000E+00  0.00000000000E+00  0.45593999997E+02  0.45594000000E+02  0.51100000000E-03 0.  1.
         11   -1    0    0    0    0 -0.00000000000E+00 -0.00000000000E+00 -0.45593999997E+02  0.45594000000E+02  0.51100000000E-03 0. -1.
    9900012    2    1    2    0    0 -0.31915489268E+02  0.17051366854E+02  0.18542344764E+02  0.50528854458E+02  0.29999983612E+02 0.  0.
         12    1    1    2    0    0  0.31915489268E+02 -0.17051366854E+02 -0.18542344764E+02  0.40659145542E+02  0.00000000000E+00 0. -1.
         11    1    3    3    0    0 -0.93366928476E+01 -0.24852595479E+01 -0.24734852233E+01  0.99733884795E+01  0.51100000000E-03 0. -1.
        -11    1    3    3    0    0 -0.55891529999E+01  0.22935829467E+01  0.14162400378E+02  0.15397166581E+02  0.51100000000E-03 0.  1.
         12    1    3    3    0    0 -0.16989643421E+02  0.17243043456E+02  0.68534296085E+01  0.25158299398E+02  0.00000000000E+00 0. -1.
</event>
<event>
 7    1  0.2432574E-011  0.5052884E+02  0.7816164E-02  0.1300439E+00
        -11   -1    0    0    0    0  0.00000000000E+00  0.00000000000E+00  0.45593999997E+02  0.45594000000E+02  0.51100000000E-03 0. -1.
         11   -1    0    0    0    0 -0.00000000000E+00 -0.00000000000E+00 -0.45593999997E+02  0.45594000000E+02  0.51100000000E-03 0.  1.
    9900012    2    1    2    0    0  0.23625600054E+02  0.28001032144E+02 -0.17633513059E+02  0.50528836680E+02  0.29999929573E+02 0.  0.
         12    1    1    2    0    0 -0.23625600054E+02 -0.28001032144E+02  0.17633513059E+02  0.40659163320E+02  0.00000000000E+00 0. -1.
         11    1    3    3    0    0  0.73498201762E+00 -0.71424550661E+00  0.46932543184E+01  0.48038507021E+01  0.51100000000E-03 0. -1.
        -11    1    3    3    0    0  0.93043374744E+01  0.14306673180E+01 -0.56996322374E+01  0.11004695031E+02  0.51100000000E-03 0.  1.
        -12    1    3    3    0    0  0.13586280562E+02  0.27284610332E+02 -0.16627135140E+02  0.34720290948E+02  0.00000000000E+00 0.  1.
</event>
<event>
 7    1  0.2432574E-011  0.5052886E+02  0.7816164E-02  0.1300439E+00
        -11   -1    0    0    0    0  0.00000000000E+00  0.00000000000E+00  0.45593999997E+02  0.45594000000E+02  0.51100000000E-03 0.  1.
         11   -1    0    0    0    0 -0.00000000000E+00 -0.00000000000E+00 -0.45593999997E+02  0.45594000000E+02  0.51100000000E-03 0. -1.
    9900012    2    1    2    0    0 -0.81834546190E+01 -0.36277086989E+02  0.16436843368E+02  0.50528858472E+02  0.29999995812E+02 0.  0.
         12    1    1    2    0    0  0.81834546190E+01  0.36277086989E+02 -0.16436843368E+02  0.40659141528E+02  0.00000000000E+00 0. -1.
         11    1    3    3    0    0 -0.79202200303E+01 -0.12395539683E+02 -0.14214857720E+01  0.14778359565E+02  0.51100000000E-03 0. -1.
        -11    1    3    3    0    0  0.49682611482E+01 -0.73955070696E+01 -0.22875683218E+01  0.91983755491E+01  0.51100000000E-03 0.  1.
        -12    1    3    3    0    0 -0.52314957369E+01 -0.16486040236E+02  0.20145897462E+02  0.26552123358E+02  0.00000000000E+00 0.  1.
</event>
<event>
 7    1  0.2432574E-011  0.5052885E+02  0.7816164E-02  0.1300439E+00
        -11   -1    0    0    0    0  0.00000000000E+00  0.00000000000E+00  0.45593999997E+02  0.45594000000E+02  0.51100000000E-03 0.  1.
         11   -1    0    0    0    0 -0.00000000000E+00 -0.00000000000E+00 -0.45593999997E+02  0.45594000000E+02  0.51100000000E-03 0. -1.
    9900012    2    1    2    0    0 -0.36951889071E+02  0.16931141729E+02 -0.10298664391E+01  0.50528852308E+02  0.29999977075E+02 0.  0.
         12    1    1    2    0    0  0.36951889071E+02 -0.16931141729E+02  0.10298664391E+01  0.40659147692E+02  0.00000000000E+00 0. -1.
         11    1    3    3    0    0 -0.82328053428E+01 -0.63974356813E+00 -0.10913293229E+02  0.13685332477E+02  0.51100000000E-03 0. -1.
        -11    1    3    3    0    0 -0.15046978614E+02  0.27787793395E+01  0.33107893947E+01  0.15655494457E+02  0.51100000000E-03 0.  1.
        -12    1    3    3    0    0 -0.13672105115E+02  0.14792105957E+02  0.65726373952E+01  0.21188025374E+02  0.00000000000E+00 0.  1.
</event>
<event>
 7    1  0.2432574E-011  0.5052886E+02  0.7816164E-02  0.1300439E+00
        -11   -1    0    0    0    0  0.00000000000E+00  0.00000000000E+00  0.45593999997E+02  0.45594000000E+02  0.51100000000E-03 0.  1.
         11   -1    0    0    0    0 -0.00000000000E+00 -0.00000000000E+00 -0.45593999997E+02  0.45594000000E+02  0.51100000000E-03 0. -1.
    9900012    2    1    2    0    0 -0.17798155987E+02 -0.71781622071E+01  0.35845022909E+02  0.50528855438E+02  0.29999986589E+02 0.  0.
         12    1    1    2    0    0  0.17798155987E+02  0.71781622071E+01 -0.35845022909E+02  0.40659144562E+02  0.00000000000E+00 0. -1.
         11    1    3    3    0    0 -0.10184425871E+02  0.59421019611E+01  0.12758377771E+02  0.17372602270E+02  0.51100000000E-03 0. -1.
        -11    1    3    3    0    0 -0.10540351943E+02 -0.11506865992E+02  0.24876117019E+02  0.29365424946E+02  0.51100000000E-03 0.  1.
         12    1    3    3    0    0  0.29266218270E+01 -0.16133981762E+01 -0.17894718813E+01  0.37908282218E+01  0.00000000000E+00 0. -1.
</event>
<event>
 7    1  0.2432574E-011  0.5052887E+02  0.7816164E-02  0.1300439E+00
        -11   -1    0    0    0    0  0.00000000000E+00  0.00000000000E+00  0.45593999997E+02  0.45594000000E+02  0.51100000000E-03 0.  1.
         11   -1    0    0    0    0 -0.00000000000E+00 -0.00000000000E+00 -0.45593999997E+02  0.45594000000E+02  0.51100000000E-03 0. -1.
    9900012    2    1    2    0    0 -0.93391107295E+01  0.36283632937E+02  0.15793801407E+02  0.50528866079E+02  0.30000018934E+02 0.  0.
         12    1    1    2    0    0  0.93391107295E+01 -0.36283632937E+02 -0.15793801407E+02  0.40659133921E+02  0.00000000000E+00 0. -1.
         11    1    3    3    0    0 -0.18045898812E+01  0.85642352308E+01 -0.24052382866E+01  0.90767748239E+01  0.51100000000E-03 0. -1.
        -11    1    3    3    0    0 -0.17171490713E+01  0.30458309912E+02  0.12908033874E+02  0.33125135206E+02  0.51100000000E-03 0.  1.
        -12    1    3    3    0    0 -0.58173717770E+01 -0.27389122063E+01  0.52910058196E+01  0.83269560494E+01  0.00000000000E+00 0.  1.
</event>
<event>
 7    1  0.2432574E-011  0.5052885E+02  0.7816164E-02  0.1300439E+00
        -11   -1    0    0    0    0  0.00000000000E+00  0.00000000000E+00  0.45593999997E+02  0.45594000000E+02  0.51100000000E-03 0.  1.
         11   -1    0    0    0    0 -0.00000000000E+00 -0.00000000000E+00 -0.45593999997E+02  0.45594000000E+02  0.51100000000E-03 0. -1.
    9900012    2    1    2    0    0  0.31174392080E+02  0.60820994428E+01  0.25383687397E+02  0.50528852923E+02  0.29999978943E+02 0.  0.
         12    1    1    2    0    0 -0.31174392080E+02 -0.60820994428E+01 -0.25383687397E+02  0.40659147077E+02  0.00000000000E+00 0. -1.
         11    1    3    3    0    0 -0.10431619788E+01 -0.79714489573E+00 -0.21204823473E+01  0.24940073265E+01  0.51100000000E-03 0. -1.
        -11    1    3    3    0    0  0.15417461943E+02  0.44379573385E+01  0.39451242935E+00  0.16048340675E+02  0.51100000000E-03 0.  1.
        -12    1    3    3    0    0  0.16800092116E+02  0.24412870001E+01  0.27109657315E+02  0.31986504921E+02  0.00000000000E+00 0.  1.
</event>
<event>
 7    1  0.2432574E-011  0.5052889E+02  0.7816164E-02  0.1300439E+00
        -11   -1    0    0    0    0  0.00000000000E+00  0.00000000000E+00  0.45593999997E+02  0.45594000000E+02  0.51100000000E-03 0. -1.
         11   -1    0    0    0    0 -0.00000000000E+00 -0.00000000000E+00 -0.45593999997E+02  0.45594000000E+02  0.51100000000E-03 0.  1.
    9900012    2    1    2    0    0 -0.36201940258E+02 -0.17629835651E+01  0.18424828038E+02  0.50528894282E+02  0.30000104661E+02 0.  0.
         12    1    1    2    0    0  0.36201940258E+02  0.17629835651E+01 -0.18424828038E+02  0.40659105718E+02  0.00000000000E+00 0. -1.
         11    1    3    3    0    0 -0.75014754538E+01  0.73306262696E+01  0.54326794596E+01  0.11812037160E+02  0.51100000000E-03 0. -1.
        -11    1    3    3    0    0 -0.31588546184E+01  0.27770218395E+01  0.94321640899E+01  0.10327435910E+02  0.51100000000E-03 0.  1.
        -12    1    3    3    0    0 -0.25541610186E+02 -0.11870631674E+02  0.35599844889E+01  0.28389421213E+02  0.00000000000E+00 0.  1.
</event>
<event>
 7    1  0.2432574E-011  0.5052888E+02  0.7816164E-02  0.1300439E+00
        -11   -1    0    0    0    0  0.00000000000E+00  0.00000000000E+00  0.45593999997E+02  0.45594000000E+02  0.51100000000E-03 0.  1.
         11   -1    0    0    0    0 -0.00000000000E+00 -0.00000000000E+00 -0.45593999997E+02  0.45594000000E+02  0.51100000000E-03 0. -1.
    9900012    2    1    2    0    0 -0.17999046502E+02 -0.65406328187E+01  0.35866673000E+02  0.50528883129E+02  0.30000070757E+02 0.  0.
         12    1    1    2    0    0  0.17999046502E+02  0.65406328187E+01 -0.35866673000E+02  0.40659116871E+02  0.00000000000E+00 0. -1.
         11    1    3    3    0    0 -0.55651210425E+01 -0.64478120182E+01  0.26902235978E+01  0.89320857198E+01  0.51100000000E-03 0. -1.
        -11    1    3    3    0    0 -0.10870447138E+02 -0.10051043141E+02  0.22303637626E+02  0.26770176331E+02  0.51100000000E-03 0.  1.
         12    1    3    3    0    0 -0.15634783215E+01  0.99582223403E+01  0.10872811777E+02  0.14826621078E+02  0.00000000000E+00 0. -1.
</event>
<event>
 7    1  0.2432574E-011  0.5052886E+02  0.7816164E-02  0.1300439E+00
        -11   -1    0    0    0    0  0.00000000000E+00  0.00000000000E+00  0.45593999997E+02  0.45594000000E+02  0.51100000000E-03 0.  1.
         11   -1    0    0    0    0 -0.00000000000E+00 -0.00000000000E+00 -0.45593999997E+02  0.45594000000E+02  0.51100000000E-03 0. -1.
    9900012    2    1    2    0    0 -0.18775121031E+02  0.29782811648E+02  0.20338246084E+02  0.50528864579E+02  0.30000014374E+02 0.  0.
         12    1    1    2    0    0  0.18775121031E+02 -0.29782811648E+02 -0.20338246084E+02  0.40659135421E+02  0.00000000000E+00 0. -1.
         11    1    3    3    0    0 -0.23990496004E+01  0.15344613727E+02  0.10231958674E+01  0.15564688865E+02  0.51100000000E-03 0. -1.
        -11    1    3    3    0    0 -0.11245724526E+02  0.18368683858E+02  0.18607778970E+02  0.28462682678E+02  0.51100000000E-03 0.  1.
         12    1    3    3    0    0 -0.51303469053E+01 -0.39304859376E+01  0.70727124667E+00  0.65014930355E+01  0.00000000000E+00 0. -1.
</event>
<event>
 7    1  0.2432574E-011  0.5052886E+02  0.7816164E-02  0.1300439E+00
        -11   -1    0    0    0    0  0.00000000000E+00  0.00000000000E+00  0.45593999997E+02  0.45594000000E+02  0.51100000000E-03 0. -1.
         11   -1    0    0    0    0 -0.00000000000E+00 -0.00000000000E+00 -0.45593999997E+02  0.45594000000E+02  0.51100000000E-03 0.  1.
    9900012    2    1    2    0    0 -0.31118056938E+02 -0.25039476751E+02  0.76063820580E+01  0.50528856975E+02  0.29999991260E+02 0.  0.
         12    1    1    2    0    0  0.31118056938E+02  0.25039476751E+02 -0.76063820580E+01  0.40659143025E+02  0.00000000000E+00 0. -1.
         11    1    3    3    0    0 -0.16931256016E+02 -0.47253086323E+01 -0.78486087363E+01  0.19250886507E+02  0.51100000000E-03 0. -1.
        -11    1    3    3    0    0 -0.77070908092E+01 -0.22917953662E+01  0.46536738457E+01  0.92902236391E+01  0.51100000000E-03 0.  1.
        -12    1    3    3    0    0 -0.64797101129E+01 -0.18022372752E+02  0.10801316949E+02  0.21987746829E+02  0.00000000000E+00 0.  1.
</event>
<event>
 7    1  0.2432574E-011  0.5052886E+02  0.7816164E-02  0.1300439E+00
        -11   -1    0    0    0    0  0.00000000000E+00  0.00000000000E+00  0.45593999997E+02  0.45594000000E+02  0.51100000000E-03 0.  1.
         11   -1    0    0    0    0 -0.00000000000E+00 -0.00000000000E+00 -0.45593999997E+02  0.45594000000E+02  0.51100000000E-03 0. -1.
    9900012    2    1    2    0    0 -0.29293833581E+02  0.10793995982E+02  0.26048543809E+02  0.50528859949E+02  0.30000000302E+02 0.  0.
         12    1    1    2    0    0  0.29293833581E+02 -0.10793995982E+02 -0.26048543809E+02  0.40659140051E+02  0.00000000000E+00 0. -1.
         11    1    3    3    0    0 -0.71793909024E+01  0.39070481942E+01  0.68091277793E+01  0.10638275269E+02  0.51100000000E-03 0. -1.
        -11    1    3    3    0    0 -0.17720169533E+02  0.13213473860E+02  0.35166396292E+01  0.22382293320E+02  0.51100000000E-03 0.  1.
         12    1    3    3    0    0 -0.43942731451E+01 -0.63265260725E+01  0.15722776400E+02  0.17508291360E+02  0.00000000000E+00 0. -1.
</event>
<event>
 7    1  0.2432574E-011  0.5052886E+02  0.7816164E-02  0.1300439E+00
        -11   -1    0    0    0    0  0.00000000000E+00  0.00000000000E+00  0.45593999997E+02  0.45594000000E+02  0.51100000000E-03 0. -1.
         11   -1    0    0    0    0 -0.00000000000E+00 -0.00000000000E+00 -0.45593999997E+02  0.45594000000E+02  0.51100000000E-03 0.  1.
    9900012    2    1    2    0    0  0.37508877039E+02 -0.17332576921E+01 -0.15596330039E+02  0.50528861425E+02  0.30000004788E+02 0.  0.
         12    1    1    2    0    0 -0.37508877039E+02  0.17332576921E+01  0.15596330039E+02  0.40659138575E+02  0.00000000000E+00 0. -1.
         11    1    3    3    0    0  0.11299116895E+02  0.34190714334E+01  0.84236919449E+01  0.14502368025E+02  0.51100000000E-03 0. -1.
        -11    1    3    3    0    0  0.11386493640E+02 -0.12712814447E+01 -0.89964379309E+01  0.14567233424E+02  0.51100000000E-03 0.  1.
        -12    1    3    3    0    0  0.14823266503E+02 -0.38810476807E+01 -0.15023584053E+02  0.21459259976E+02  0.00000000000E+00 0.  1.
</event>
<event>
 7    1  0.2432574E-011  0.5052887E+02  0.7816164E-02  0.1300439E+00
        -11   -1    0    0    0    0  0.00000000000E+00  0.00000000000E+00  0.45593999997E+02  0.45594000000E+02  0.51100000000E-03 0.  1.
         11   -1    0    0    0    0 -0.00000000000E+00 -0.00000000000E+00 -0.45593999997E+02  0.45594000000E+02  0.51100000000E-03 0. -1.
    9900012    2    1    2    0    0  0.21521068650E+02  0.34343897913E+02 -0.32411938408E+01  0.50528867481E+02  0.30000023194E+02 0.  0.
         12    1    1    2    0    0 -0.21521068650E+02 -0.34343897913E+02  0.32411938408E+01  0.40659132519E+02  0.00000000000E+00 0. -1.
         11    1    3    3    0    0  0.56636718494E+00 -0.40269716452E+01 -0.17407103930E+01  0.44234992204E+01  0.51100000000E-03 0. -1.
        -11    1    3    3    0    0  0.73440900683E+01  0.25146548159E+02 -0.53599965257E+01  0.26739747685E+02  0.51100000000E-03 0.  1.
         12    1    3    3    0    0  0.13610611396E+02  0.13224321399E+02  0.38595130779E+01  0.19365620575E+02  0.00000000000E+00 0. -1.
</event>
<event>
 7    1  0.2432574E-011  0.5052886E+02  0.7816164E-02  0.1300439E+00
        -11   -1    0    0    0    0  0.00000000000E+00  0.00000000000E+00  0.45593999997E+02  0.45594000000E+02  0.51100000000E-03 0.  1.
         11   -1    0    0    0    0 -0.00000000000E+00 -0.00000000000E+00 -0.45593999997E+02  0.45594000000E+02  0.51100000000E-03 0. -1.
    9900012    2    1    2    0    0 -0.32745279184E+02  0.61422823136E+01  0.23306326058E+02  0.50528858651E+02  0.29999996357E+02 0.  0.
         12    1    1    2    0    0  0.32745279184E+02 -0.61422823136E+01 -0.23306326058E+02  0.40659141349E+02  0.00000000000E+00 0. -1.
         11    1    3    3    0    0 -0.22666749272E+02 -0.90599424832E+01  0.14859014640E+02  0.28577165652E+02  0.51100000000E-03 0. -1.
        -11    1    3    3    0    0  0.12701343362E+01  0.20267727701E+00  0.13048972118E+01  0.18322326013E+01  0.51100000000E-03 0.  1.
        -12    1    3    3    0    0 -0.11348664248E+02  0.14999547520E+02  0.71424142062E+01  0.20119460398E+02  0.00000000000E+00 0.  1.
</event>
<event>
 7    1  0.2432574E-011  0.5052886E+02  0.7816164E-02  0.1300439E+00
        -11   -1    0    0    0    0  0.00000000000E+00  0.00000000000E+00  0.45593999997E+02  0.45594000000E+02  0.51100000000E-03 0.  1.
         11   -1    0    0    0    0 -0.00000000000E+00 -0.00000000000E+00 -0.45593999997E+02  0.45594000000E+02  0.51100000000E-03 0. -1.
    9900012    2    1    2    0    0  0.24166401086E+02 -0.65762427181E+01  0.32029732957E+02  0.50528859539E+02  0.29999999056E+02 0.  0.
         12    1    1    2    0    0 -0.24166401086E+02  0.65762427181E+01 -0.32029732957E+02  0.40659140461E+02  0.00000000000E+00 0. -1.
         11    1    3    3    0    0 -0.35094298769E+01  0.61979935830E+00 -0.51505805103E+00  0.36007685794E+01  0.51100000000E-03 0. -1.
        -11    1    3    3    0    0  0.20847917010E+01 -0.79131381654E+01  0.86726458076E+01  0.11923879303E+02  0.51100000000E-03 0.  1.
        -12    1    3    3    0    0  0.25591039262E+02  0.71709608893E+00  0.23872145200E+02  0.35004211657E+02  0.00000000000E+00 0.  1.
</event>
<event>
 7    1  0.2432574E-011  0.5052886E+02  0.7816164E-02  0.1300439E+00
        -11   -1    0    0    0    0  0.00000000000E+00  0.00000000000E+00  0.45593999997E+02  0.45594000000E+02  0.51100000000E-03 0.  1.
         11   -1    0    0    0    0 -0.00000000000E+00 -0.00000000000E+00 -0.45593999997E+02  0.45594000000E+02  0.51100000000E-03 0. -1.
    9900012    2    1    2    0    0  0.14219693995E+02 -0.42848583873E+01  0.37849778907E+02  0.50528862380E+02  0.30000007690E+02 0.  0.
         12    1    1    2    0    0 -0.14219693995E+02  0.42848583873E+01 -0.37849778907E+02  0.40659137620E+02  0.00000000000E+00 0. -1.
         11    1    3    3    0    0  0.72088528554E+01 -0.47592290015E+01  0.12748160918E+02  0.15399137223E+02  0.51100000000E-03 0. -1.
        -11    1    3    3    0    0 -0.35180957755E+01 -0.81274744923E+01  0.17349043494E+02  0.19478761509E+02  0.51100000000E-03 0.  1.
         12    1    3    3    0    0  0.10528936915E+02  0.86018451065E+01  0.77525744948E+01  0.15650963647E+02  0.00000000000E+00 0. -1.
</event>
<event>
 7    1  0.2432574E-011  0.5052886E+02  0.7816164E-02  0.1300439E+00
        -11   -1    0    0    0    0  0.00000000000E+00  0.00000000000E+00  0.45593999997E+02  0.45594000000E+02  0.51100000000E-03 0. -1.
         11   -1    0    0    0    0 -0.00000000000E+00 -0.00000000000E+00 -0.45593999997E+02  0.45594000000E+02  0.51100000000E-03 0.  1.
    9900012    2    1    2    0    0 -0.27761951124E+02  0.72847352798E+01 -0.28798832391E+02  0.50528855329E+02  0.29999986257E+02 0.  0.
         12    1    1    2    0    0  0.27761951124E+02 -0.72847352798E+01  0.28798832391E+02  0.40659144671E+02  0.00000000000E+00 0. -1.
         11    1    3    3    0    0 -0.34199613698E+01  0.19223951461E+01 -0.12807434533E+02  0.13394854178E+02  0.51100000000E-03 0. -1.
        -11    1    3    3    0    0 -0.74777060928E+01  0.73062106425E+01 -0.17186030173E+02  0.20116074064E+02  0.51100000000E-03 0.  1.
         12    1    3    3    0    0 -0.16864283662E+02 -0.19438705089E+01  0.11946323148E+01  0.17017927087E+02  0.00000000000E+00 0. -1.
</event>
<event>
 7    1  0.2432574E-011  0.5052885E+02  0.7816164E-02  0.1300439E+00
        -11   -1    0    0    0    0  0.00000000000E+00  0.00000000000E+00  0.45593999997E+02  0.45594000000E+02  0.51100000000E-03 0.  1.
         11   -1    0    0    0    0 -0.00000000000E+00 -0.00000000000E+00 -0.45593999997E+02  0.45594000000E+02  0.51100000000E-03 0. -1.
    9900012    2    1    2    0    0  0.34838329516E+01 -0.28700246828E+02  0.28588904887E+02  0.50528846754E+02  0.29999960193E+02 0.  0.
         12    1    1    2    0    0 -0.34838329516E+01  0.28700246828E+02 -0.28588904887E+02  0.40659153246E+02  0.00000000000E+00 0. -1.
         11    1    3    3    0    0  0.21853434620E+01 -0.11653444452E+02  0.61449140153E+01  0.13354342446E+02  0.51100000000E-03 0. -1.
        -11    1    3    3    0    0  0.73217379432E+01 -0.15784119657E+02  0.25042833791E+02  0.30494094583E+02  0.51100000000E-03 0.  1.
         12    1    3    3    0    0 -0.60232484536E+01 -0.12626827195E+01 -0.25988429192E+01  0.66804097256E+01  0.00000000000E+00 0. -1.
</event>
<event>
 7    1  0.2432574E-011  0.5052886E+02  0.7816164E-02  0.1300439E+00
        -11   -1    0    0    0    0  0.00000000000E+00  0.00000000000E+00  0.45593999997E+02  0.45594000000E+02  0.51100000000E-03 0. -1.
         11   -1    0    0    0    0 -0.00000000000E+00 -0.00000000000E+00 -0.45593999997E+02  0.45594000000E+02  0.51100000000E-03 0.  1.
    9900012    2    1    2    0    0 -0.20828441211E+02  0.31936426501E+01 -0.34772722655E+02  0.50528861329E+02  0.30000004495E+02 0.  0.
         12    1    1    2    0    0  0.20828441211E+02 -0.31936426501E+01  0.34772722655E+02  0.40659138671E+02  0.00000000000E+00 0. -1.
         11    1    3    3    0    0 -0.73200789112E+01  0.10231084848E+02 -0.38592177560E+01  0.13158731488E+02  0.51100000000E-03 0. -1.
        -11    1    3    3    0    0 -0.11700599658E+01  0.41651722183E+01 -0.60303733769E+01  0.74217991928E+01  0.51100000000E-03 0.  1.
         12    1    3    3    0    0 -0.12338302334E+02 -0.11202614416E+02 -0.24883131522E+02  0.29948330648E+02  0.00000000000E+00 0. -1.
</event>
<event>
 7    1  0.2432574E-011  0.5052885E+02  0.7816164E-02  0.1300439E+00
        -11   -1    0    0    0    0  0.00000000000E+00  0.00000000000E+00  0.45593999997E+02  0.45594000000E+02  0.51100000000E-03 0.  1.
         11   -1    0    0    0    0 -0.00000000000E+00 -0.00000000000E+00 -0.45593999997E+02  0.45594000000E+02  0.51100000000E-03 0. -1.
    9900012    2    1    2    0    0  0.13415195553E+02 -0.89090720944E+01  0.37333994200E+02  0.50528853916E+02  0.29999981964E+02 0.  0.
         12    1    1    2    0    0 -0.13415195553E+02  0.89090720944E+01 -0.37333994200E+02  0.40659146084E+02  0.00000000000E+00 0. -1.
         11    1    3    3    0    0  0.29171998157E+01 -0.40914955758E+01  0.11795979689E+02  0.12821681945E+02  0.51100000000E-03 0.  1.
        -11    1    3    3    0    0  0.10389545639E+02  0.72132913275E+01  0.44122151095E+01  0.13395591543E+02  0.51100000000E-03 0. -1.
         12    1    3    3    0    0  0.10845009804E+00 -0.12030867846E+02  0.21125799402E+02  0.24311580428E+02  0.00000000000E+00 0. -1.
</event>
<event>
 7    1  0.2432574E-011  0.5052886E+02  0.7816164E-02  0.1300439E+00
        -11   -1    0    0    0    0  0.00000000000E+00  0.00000000000E+00  0.45593999997E+02  0.45594000000E+02  0.51100000000E-03 0.  1.
         11   -1    0    0    0    0 -0.00000000000E+00 -0.00000000000E+00 -0.45593999997E+02  0.45594000000E+02  0.51100000000E-03 0. -1.
    9900012    2    1    2    0    0  0.12889263872E+02 -0.36152495293E+02 -0.13417501992E+02  0.50528863280E+02  0.30000010427E+02 0.  0.
         12    1    1    2    0    0 -0.12889263872E+02  0.36152495293E+02  0.13417501992E+02  0.40659136720E+02  0.00000000000E+00 0. -1.
         11    1    3    3    0    0  0.10431288111E+02 -0.12477482952E+02  0.39686536478E+00  0.16268277562E+02  0.51100000000E-03 0. -1.
        -11    1    3    3    0    0 -0.26738065359E+01 -0.25176487558E+02 -0.13959955586E+02  0.28911678045E+02  0.51100000000E-03 0.  1.
         12    1    3    3    0    0  0.51317822964E+01  0.15014752163E+01  0.14558822897E+00  0.53489076731E+01  0.00000000000E+00 0. -1.
</event>
<event>
 7    1  0.2432574E-011  0.5052887E+02  0.7816164E-02  0.1300439E+00
        -11   -1    0    0    0    0  0.00000000000E+00  0.00000000000E+00  0.45593999997E+02  0.45594000000E+02  0.51100000000E-03 0. -1.
         11   -1    0    0    0    0 -0.00000000000E+00 -0.00000000000E+00 -0.45593999997E+02  0.45594000000E+02  0.51100000000E-03 0.  1.
    9900012    2    1    2    0    0  0.14779006896E+02  0.37706817234E+02  0.35974588549E+01  0.50528870386E+02  0.30000032026E+02 0.  0.
         12    1    1    2    0    0 -0.14779006896E+02 -0.37706817234E+02 -0.35974588549E+01  0.40659129614E+02  0.00000000000E+00 0. -1.
         11    1    3    3    0    0  0.13721455565E+02  0.26379685372E+01 -0.27526502536E+01  0.14241288723E+02  0.51100000000E-03 0. -1.
        -11    1    3    3    0    0  0.30827856025E+01  0.81890015577E+01  0.10157563140E+01  0.88088066578E+01  0.51100000000E-03 0.  1.
         12    1    3    3    0    0 -0.20252342709E+01  0.26879847139E+02  0.53343527945E+01  0.27478775005E+02  0.00000000000E+00 0. -1.
</event>
<event>
 7    1  0.2432574E-011  0.5052889E+02  0.7816164E-02  0.1300439E+00
        -11   -1    0    0    0    0  0.00000000000E+00  0.00000000000E+00  0.45593999997E+02  0.45594000000E+02  0.51100000000E-03 0.  1.
         11   -1    0    0    0    0 -0.00000000000E+00 -0.00000000000E+00 -0.45593999997E+02  0.45594000000E+02  0.51100000000E-03 0. -1.
    9900012    2    1    2    0    0  0.33415819423E+02 -0.93370247554E+00  0.23144645341E+02  0.50528887909E+02  0.30000085289E+02 0.  0.
         12    1    1    2    0    0 -0.33415819423E+02  0.93370247554E+00 -0.23144645341E+02  0.40659112091E+02  0.00000000000E+00 0. -1.
         11    1    3    3    0    0  0.19216652658E+02  0.82062915577E+01  0.23043989442E+01  0.21022207669E+02  0.51100000000E-03 0.  1.
        -11    1    3    3    0    0  0.45932075413E+01 -0.44863607810E+01  0.38280605391E+00  0.64320703751E+01  0.51100000000E-03 0. -1.
        -12    1    3    3    0    0  0.96059592233E+01 -0.46536332523E+01  0.20457440343E+02  0.23074609865E+02  0.00000000000E+00 0.  1.
</event>
<event>
 7    1  0.2432574E-011  0.5052886E+02  0.7816164E-02  0.1300439E+00
        -11   -1    0    0    0    0  0.00000000000E+00  0.00000000000E+00  0.45593999997E+02  0.45594000000E+02  0.51100000000E-03 0. -1.
         11   -1    0    0    0    0 -0.00000000000E+00 -0.00000000000E+00 -0.45593999997E+02  0.45594000000E+02  0.51100000000E-03 0.  1.
    9900012    2    1    2    0    0 -0.43800055270E+01 -0.28692335511E+02 -0.28473341172E+02  0.50528859293E+02  0.29999998307E+02 0.  0.
         12    1    1    2    0    0  0.43800055270E+01  0.28692335511E+02  0.28473341172E+02  0.40659140707E+02  0.00000000000E+00 0. -1.
         11    1    3    3    0    0  0.93050655984E+01 -0.17605031641E+02 -0.89703817351E+01  0.21840080897E+02  0.51100000000E-03 0.  1.
        -11    1    3    3    0    0 -0.60531321813E+01  0.54563003263E-01 -0.15963094379E+01  0.62603187146E+01  0.51100000000E-03 0. -1.
        -12    1    3    3    0    0 -0.76319389440E+01 -0.11141866874E+02 -0.17906649999E+02  0.22428459681E+02  0.00000000000E+00 0.  1.
</event>
<event>
 7    1  0.2432574E-011  0.5052886E+02  0.7816164E-02  0.1300439E+00
        -11   -1    0    0    0    0  0.00000000000E+00  0.00000000000E+00  0.45593999997E+02  0.45594000000E+02  0.51100000000E-03 0.  1.
         11   -1    0    0    0    0 -0.00000000000E+00 -0.00000000000E+00 -0.45593999997E+02  0.45594000000E+02  0.51100000000E-03 0. -1.
    9900012    2    1    2    0    0 -0.38203005018E+02 -0.13905032363E+02 -0.58832830708E+00  0.50528860221E+02  0.30000001128E+02 0.  0.
         12    1    1    2    0    0  0.38203005018E+02  0.13905032363E+02  0.58832830708E+00  0.40659139779E+02  0.00000000000E+00 0. -1.
         11    1    3    3    0    0 -0.17068501815E+02 -0.62308578483E+01  0.22850727124E+01  0.18313353087E+02  0.51100000000E-03 0.  1.
        -11    1    3    3    0    0 -0.11927385168E+02 -0.15693765973E+02 -0.18354118256E+00  0.19712698825E+02  0.51100000000E-03 0. -1.
         12    1    3    3    0    0 -0.92071180348E+01  0.80195914582E+01 -0.26898598369E+01  0.12502808309E+02  0.00000000000E+00 0. -1.
</event>
<event>
 7    1  0.2432574E-011  0.5052885E+02  0.7816164E-02  0.1300439E+00
        -11   -1    0    0    0    0  0.00000000000E+00  0.00000000000E+00  0.45593999997E+02  0.45594000000E+02  0.51100000000E-03 0.  1.
         11   -1    0    0    0    0 -0.00000000000E+00 -0.00000000000E+00 -0.45593999997E+02  0.45594000000E+02  0.51100000000E-03 0. -1.
    9900012    2    1    2    0    0  0.25751851880E+02  0.24882879711E+02  0.19257495326E+02  0.50528847228E+02  0.29999961633E+02 0.  0.
         12    1    1    2    0    0 -0.25751851880E+02 -0.24882879711E+02 -0.19257495326E+02  0.40659152772E+02  0.00000000000E+00 0. -1.
         11    1    3    3    0    0  0.77948739262E+01  0.11846746667E+02 -0.10844404200E+00  0.14181580536E+02  0.51100000000E-03 0. -1.
        -11    1    3    3    0    0  0.19489945853E+02  0.16317320561E+02  0.11936043587E+02  0.28081703588E+02  0.51100000000E-03 0.  1.
        -12    1    3    3    0    0 -0.15329678997E+01 -0.32811875172E+01  0.74298957811E+01  0.82655631038E+01  0.00000000000E+00 0.  1.
</event>
<event>
 7    1  0.2432574E-011  0.5052885E+02  0.7816164E-02  0.1300439E+00
        -11   -1    0    0    0    0  0.00000000000E+00  0.00000000000E+00  0.45593999997E+02  0.45594000000E+02  0.51100000000E-03 0. -1.
         11   -1    0    0    0    0 -0.00000000000E+00 -0.00000000000E+00 -0.45593999997E+02  0.45594000000E+02  0.51100000000E-03 0.  1.
    9900012    2    1    2    0    0  0.28548890369E+01 -0.26196111700E+02  0.30964169181E+02  0.50528850566E+02  0.29999971780E+02 0.  0.
         12    1    1    2    0    0 -0.28548890369E+01  0.26196111700E+02 -0.30964169181E+02  0.40659149434E+02  0.00000000000E+00 0. -1.
         11    1    3    3    0    0  0.52117223575E+01 -0.19273202791E+02  0.12499481208E+02  0.23555369377E+02  0.51100000000E-03 0.  1.
        -11    1    3    3    0    0  0.64975216520E+01 -0.21093142667E+00  0.13123709195E+02  0.14645614463E+02  0.51100000000E-03 0. -1.
         12    1    3    3    0    0 -0.88543549726E+01 -0.67119774825E+01  0.53409787780E+01  0.12327866726E+02  0.00000000000E+00 0. -1.
</event>
<event>
 7    1  0.2432574E-011  0.5052885E+02  0.7816164E-02  0.1300439E+00
        -11   -1    0    0    0    0  0.00000000000E+00  0.00000000000E+00  0.45593999997E+02  0.45594000000E+02  0.51100000000E-03 0. -1.
         11   -1    0    0    0    0 -0.00000000000E+00 -0.00000000000E+00 -0.45593999997E+02  0.45594000000E+02  0.51100000000E-03 0.  1.
    9900012    2    1    2    0    0 -0.28935344741E+01 -0.33842790169E+02 -0.22348590098E+02  0.50528850137E+02  0.29999970478E+02 0.  0.
         12    1    1    2    0    0  0.28935344741E+01  0.33842790169E+02  0.22348590098E+02  0.40659149863E+02  0.00000000000E+00 0. -1.
         11    1    3    3    0    0  0.77732169638E+00 -0.89353817806E+01  0.43484175965E+00  0.89796639248E+01  0.51100000000E-03 0. -1.
        -11    1    3    3    0    0 -0.26187413026E+01 -0.29363933301E+02 -0.22259504859E+02  0.36940275334E+02  0.51100000000E-03 0.  1.
         12    1    3    3    0    0 -0.10521148678E+01  0.44565249126E+01 -0.52392699930E+00  0.46089108792E+01  0.00000000000E+00 0. -1.
</event>
<event>
 7    1  0.2432574E-011  0.5052886E+02  0.7816164E-02  0.1300439E+00
        -11   -1    0    0    0    0  0.00000000000E+00  0.00000000000E+00  0.45593999997E+02  0.45594000000E+02  0.51100000000E-03 0. -1.
         11   -1    0    0    0    0 -0.00000000000E+00 -0.00000000000E+00 -0.45593999997E+02  0.45594000000E+02  0.51100000000E-03 0.  1.
    9900012    2    1    2    0    0 -0.37596972398E+02 -0.88942077861E+00 -0.15454512128E+02  0.50528863905E+02  0.30000012327E+02 0.  0.
         12    1    1    2    0    0  0.37596972398E+02  0.88942077861E+00  0.15454512128E+02  0.40659136095E+02  0.00000000000E+00 0. -1.
         11    1    3    3    0    0 -0.42835107016E+01 -0.86810554733E+01 -0.38737180763E+01  0.10426642799E+02  0.51100000000E-03 0. -1.
        -11    1    3    3    0    0 -0.31055101752E+02  0.25200750836E+01 -0.13635587475E+02  0.34010283288E+02  0.51100000000E-03 0.  1.
        -12    1    3    3    0    0 -0.22583599444E+01  0.52715596111E+01  0.20547934234E+01  0.60919378185E+01  0.00000000000E+00 0.  1.
</event>
<event>
 7    1  0.2432574E-011  0.5052885E+02  0.7816164E-02  0.1300439E+00
        -11   -1    0    0    0    0  0.00000000000E+00  0.00000000000E+00  0.45593999997E+02  0.45594000000E+02  0.51100000000E-03 0. -1.
         11   -1    0    0    0    0 -0.00000000000E+00 -0.00000000000E+00 -0.45593999997E+02  0.45594000000E+02  0.51100000000E-03 0.  1.
    9900012    2    1    2    0    0 -0.20968845132E+02 -0.33807799275E+02 -0.83968262498E+01  0.50528850365E+02  0.29999971170E+02 0.  0.
         12    1    1    2    0    0  0.20968845132E+02  0.33807799275E+02  0.83968262498E+01  0.40659149635E+02  0.00000000000E+00 0. -1.
         11    1    3    3    0    0  0.10079609547E+01  0.36279522977E+01 -0.36394149972E+01  0.52367322772E+01  0.51100000000E-03 0. -1.
        -11    1    3    3    0    0 -0.57366998488E+01 -0.21585901870E+02 -0.29177577237E+01  0.22524968260E+02  0.51100000000E-03 0.  1.
        -12    1    3    3    0    0 -0.16240106238E+02 -0.15849849702E+02 -0.18396535289E+01  0.22767149828E+02  0.00000000000E+00 0.  1.
</event>
<event>
 7    1  0.2432574E-011  0.5052887E+02  0.7816164E-02  0.1300439E+00
        -11   -1    0    0    0    0  0.00000000000E+00  0.00000000000E+00  0.45593999997E+02  0.45594000000E+02  0.51100000000E-03 0.  1.
         11   -1    0    0    0    0 -0.00000000000E+00 -0.00000000000E+00 -0.45593999997E+02  0.45594000000E+02  0.51100000000E-03 0. -1.
    9900012    2    1    2    0    0 -0.31233203685E+02 -0.26020528698E+02  0.76405915441E+00  0.50528871719E+02  0.30000036078E+02 0.  0.
         12    1    1    2    0    0  0.31233203685E+02  0.26020528698E+02 -0.76405915441E+00  0.40659128281E+02  0.00000000000E+00 0. -1.
         11    1    3    3    0    0 -0.57822448812E+01 -0.94238148832E-01 -0.16398025347E+01  0.60110056820E+01  0.51100000000E-03 0. -1.
        -11    1    3    3    0    0  0.28240553196E+01  0.11355299092E+01  0.43751621180E+01  0.53297992873E+01  0.51100000000E-03 0.  1.
        -12    1    3    3    0    0 -0.28275014123E+02 -0.27061820459E+02 -0.19713004289E+01  0.39188066750E+02  0.00000000000E+00 0.  1.
</event>
<event>
 7    1  0.2432574E-011  0.5052886E+02  0.7816164E-02  0.1300439E+00
        -11   -1    0    0    0    0  0.00000000000E+00  0.00000000000E+00  0.45593999997E+02  0.45594000000E+02  0.51100000000E-03 0. -1.
         11   -1    0    0    0    0 -0.00000000000E+00 -0.00000000000E+00 -0.45593999997E+02  0.45594000000E+02  0.51100000000E-03 0.  1.
    9900012    2    1    2    0    0  0.26662345145E+02 -0.29642729327E+02 -0.79745546238E+01  0.50528861150E+02  0.30000003952E+02 0.  0.
         12    1    1    2    0    0 -0.26662345145E+02  0.29642729327E+02  0.79745546238E+01  0.40659138850E+02  0.00000000000E+00 0. -1.
         11    1    3    3    0    0  0.59495145480E+01  0.88422450567E+00  0.44146037960E+00  0.60310416896E+01  0.51100000000E-03 0. -1.
        -11    1    3    3    0    0  0.20251468396E+02 -0.14138725851E+02 -0.12384372618E+02  0.27629662073E+02  0.51100000000E-03 0.  1.
         12    1    3    3    0    0  0.46136220047E+00 -0.16388227982E+02  0.39683576148E+01  0.16868157387E+02  0.00000000000E+00 0. -1.
</event>
<event>
 7    1  0.2432574E-011  0.5052884E+02  0.7816164E-02  0.1300439E+00
        -11   -1    0    0    0    0  0.00000000000E+00  0.00000000000E+00  0.45593999997E+02  0.45594000000E+02  0.51100000000E-03 0. -1.
         11   -1    0    0    0    0 -0.00000000000E+00 -0.00000000000E+00 -0.45593999997E+02  0.45594000000E+02  0.51100000000E-03 0.  1.
    9900012    2    1    2    0    0  0.17274013326E+02 -0.29582006895E+02  0.21901620755E+02  0.50528835473E+02  0.29999925903E+02 0.  0.
         12    1    1    2    0    0 -0.17274013326E+02  0.29582006895E+02 -0.21901620755E+02  0.40659164527E+02  0.00000000000E+00 0. -1.
         11    1    3    3    0    0 -0.63144626065E+01 -0.43040127527E+01  0.23193939106E+01  0.79860222989E+01  0.51100000000E-03 0. -1.
        -11    1    3    3    0    0  0.62806112016E+01 -0.15393014152E+02  0.14284815155E+02  0.21919099115E+02  0.51100000000E-03 0.  1.
        -12    1    3    3    0    0  0.17307864731E+02 -0.98849799910E+01  0.52974116895E+01  0.20623714059E+02  0.00000000000E+00 0.  1.
</event>
<event>
 7    1  0.2432574E-011  0.5052887E+02  0.7816164E-02  0.1300439E+00
        -11   -1    0    0    0    0  0.00000000000E+00  0.00000000000E+00  0.45593999997E+02  0.45594000000E+02  0.51100000000E-03 0. -1.
         11   -1    0    0    0    0 -0.00000000000E+00 -0.00000000000E+00 -0.45593999997E+02  0.45594000000E+02  0.51100000000E-03 0.  1.
    9900012    2    1    2    0    0  0.38916460176E+02  0.31904258051E+01 -0.11335562914E+02  0.50528872168E+02  0.30000037443E+02 0.  0.
         12    1    1    2    0    0 -0.38916460176E+02 -0.31904258051E+01  0.11335562914E+02  0.40659127832E+02  0.00000000000E+00 0. -1.
         11    1    3    3    0    0  0.20903815621E+02  0.77048539459E+01  0.21981077807E+01  0.22386736250E+02  0.51100000000E-03 0. -1.
        -11    1    3    3    0    0  0.45801077015E+01  0.32893512448E+00  0.36026002081E+01  0.58364641174E+01  0.51100000000E-03 0.  1.
         12    1    3    3    0    0  0.13432536853E+02 -0.48433632654E+01 -0.17136270903E+02  0.22305671801E+02  0.00000000000E+00 0. -1.
</event>
<event>
 7    1  0.2432574E-011  0.5052886E+02  0.7816164E-02  0.1300439E+00
        -11   -1    0    0    0    0  0.00000000000E+00  0.00000000000E+00  0.45593999997E+02  0.45594000000E+02  0.51100000000E-03 0. -1.
         11   -1    0    0    0    0 -0.00000000000E+00 -0.00000000000E+00 -0.45593999997E+02  0.45594000000E+02  0.51100000000E-03 0.  1.
    9900012    2    1    2    0    0 -0.13587294331E+02  0.46414867177E+01 -0.38039553239E+02  0.50528861092E+02  0.30000003774E+02 0.  0.
         12    1    1    2    0    0  0.13587294331E+02 -0.46414867177E+01  0.38039553239E+02  0.40659138908E+02  0.00000000000E+00 0. -1.
         11    1    3    3    0    0  0.48901211292E+01  0.43394544618E+01  0.14667355563E+01  0.67004076844E+01  0.51100000000E-03 0. -1.
        -11    1    3    3    0    0 -0.11495179912E+02  0.10298476873E+01 -0.19916782341E+02  0.23019078317E+02  0.51100000000E-03 0.  1.
        -12    1    3    3    0    0 -0.69822355479E+01 -0.72781543132E+00 -0.19589506454E+02  0.20809375091E+02  0.00000000000E+00 0.  1.
</event>
<event>
 7    1  0.2432574E-011  0.5052886E+02  0.7816164E-02  0.1300439E+00
        -11   -1    0    0    0    0  0.00000000000E+00  0.00000000000E+00  0.45593999997E+02  0.45594000000E+02  0.51100000000E-03 0.  1.
         11   -1    0    0    0    0 -0.00000000000E+00 -0.00000000000E+00 -0.45593999997E+02  0.45594000000E+02  0.51100000000E-03 0. -1.
    9900012    2    1    2    0    0 -0.51954104078E+01 -0.32183951810E+01  0.40197206386E+02  0.50528858862E+02  0.29999996996E+02 0.  0.
         12    1    1    2    0    0  0.51954104078E+01  0.32183951810E+01 -0.40197206386E+02  0.40659141138E+02  0.00000000000E+00 0. -1.
         11    1    3    3    0    0 -0.13674542706E+01 -0.64821354258E+01  0.31427592152E+01  0.73324584285E+01  0.51100000000E-03 0. -1.
        -11    1    3    3    0    0 -0.11726146393E+02  0.16730084341E+01  0.30793061267E+02  0.32992636890E+02  0.51100000000E-03 0.  1.
         12    1    3    3    0    0  0.78981902561E+01  0.15907318107E+01  0.62613859037E+01  0.10203763543E+02  0.00000000000E+00 0. -1.
</event>
<event>
 7    1  0.2432574E-011  0.5052884E+02  0.7816164E-02  0.1300439E+00
        -11   -1    0    0    0    0  0.00000000000E+00  0.00000000000E+00  0.45593999997E+02  0.45594000000E+02  0.51100000000E-03 0. -1.
         11   -1    0    0    0    0 -0.00000000000E+00 -0.00000000000E+00 -0.45593999997E+02  0.45594000000E+02  0.51100000000E-03 0.  1.
    9900012    2    1    2    0    0  0.25150205976E+02  0.15415431921E+02 -0.27982115617E+02  0.50528841175E+02  0.29999943236E+02 0.  0.
         12    1    1    2    0    0 -0.25150205976E+02 -0.15415431921E+02  0.27982115617E+02  0.40659158825E+02  0.00000000000E+00 0. -1.
         11    1    3    3    0    0  0.46181475770E+01 -0.50055842284E+01 -0.75137261811E+01  0.10140968489E+02  0.51100000000E-03 0. -1.
        -11    1    3    3    0    0  0.20404431424E+02  0.10307428646E+02 -0.19814703828E+02  0.30252378337E+02  0.51100000000E-03 0.  1.
        -12    1    3    3    0    0  0.12762697488E+00  0.10113587503E+02 -0.65368560852E+00  0.10135494349E+02  0.00000000000E+00 0.  1.
</event>
<event>
 7    1  0.2432574E-011  0.5052887E+02  0.7816164E-02  0.1300439E+00
        -11   -1    0    0    0    0  0.00000000000E+00  0.00000000000E+00  0.45593999997E+02  0.45594000000E+02  0.51100000000E-03 0.  1.
         11   -1    0    0    0    0 -0.00000000000E+00 -0.00000000000E+00 -0.45593999997E+02  0.45594000000E+02  0.51100000000E-03 0. -1.
    9900012    2    1    2    0    0 -0.17548261962E+02 -0.28458147518E+02  0.23137781240E+02  0.50528873365E+02  0.30000041080E+02 0.  0.
         12    1    1    2    0    0  0.17548261962E+02  0.28458147518E+02 -0.23137781240E+02  0.40659126635E+02  0.00000000000E+00 0. -1.
         11    1    3    3    0    0 -0.84183717273E+01  0.31347652932E+00  0.11862111024E+01  0.85073113916E+01  0.51100000000E-03 0. -1.
        -11    1    3    3    0    0 -0.13583039874E+02 -0.24693902942E+02  0.12557070286E+02  0.30853975905E+02  0.51100000000E-03 0.  1.
         12    1    3    3    0    0  0.44531496399E+01 -0.40777211056E+01  0.93944998516E+01  0.11167586068E+02  0.00000000000E+00 0. -1.
</event>
<event>
 7    1  0.2432574E-011  0.5052885E+02  0.7816164E-02  0.1300439E+00
        -11   -1    0    0    0    0  0.00000000000E+00  0.00000000000E+00  0.45593999997E+02  0.45594000000E+02  0.51100000000E-03 0.  1.
         11   -1    0    0    0    0 -0.00000000000E+00 -0.00000000000E+00 -0.45593999997E+02  0.45594000000E+02  0.51100000000E-03 0. -1.
    9900012    2    1    2    0    0 -0.11372723997E+02  0.38303618224E+02  0.75273274915E+01  0.50528847533E+02  0.29999962561E+02 0.  0.
         12    1    1    2    0    0  0.11372723997E+02 -0.38303618224E+02 -0.75273274915E+01  0.40659152467E+02  0.00000000000E+00 0. -1.
         11    1    3    3    0    0  0.68839366721E+01  0.17311180045E+02 -0.35049808484E+01  0.18956540551E+02  0.51100000000E-03 0. -1.
        -11    1    3    3    0    0 -0.30595112314E+01  0.10567956196E+02  0.25949679833E+01  0.11303812022E+02  0.51100000000E-03 0.  1.
         12    1    3    3    0    0 -0.15197149437E+02  0.10424481983E+02  0.84373403565E+01  0.20268494960E+02  0.00000000000E+00 0. -1.
</event>
<event>
 7    1  0.2432574E-011  0.5052885E+02  0.7816164E-02  0.1300439E+00
        -11   -1    0    0    0    0  0.00000000000E+00  0.00000000000E+00  0.45593999997E+02  0.45594000000E+02  0.51100000000E-03 0.  1.
         11   -1    0    0    0    0 -0.00000000000E+00 -0.00000000000E+00 -0.45593999997E+02  0.45594000000E+02  0.51100000000E-03 0. -1.
    9900012    2    1    2    0    0  0.33171275942E+02  0.22301919950E+02  0.74469460099E+01  0.50528853600E+02  0.29999981002E+02 0.  0.
         12    1    1    2    0    0 -0.33171275942E+02 -0.22301919950E+02 -0.74469460099E+01  0.40659146400E+02  0.00000000000E+00 0. -1.
         11    1    3    3    0    0  0.17642717108E+02  0.82206535255E+01  0.10917936181E+02  0.22316942937E+02  0.51100000000E-03 0. -1.
        -11    1    3    3    0    0  0.55331706223E+01 -0.31482895538E+01 -0.51973326854E+01  0.82182705938E+01  0.51100000000E-03 0.  1.
        -12    1    3    3    0    0  0.99953882124E+01  0.17229555978E+02  0.17263425141E+01  0.19993640069E+02  0.00000000000E+00 0.  1.
</event>
<event>
 7    1  0.2432574E-011  0.5052895E+02  0.7816164E-02  0.1300438E+00
        -11   -1    0    0    0    0  0.00000000000E+00  0.00000000000E+00  0.45593999997E+02  0.45594000000E+02  0.51100000000E-03 0.  1.
         11   -1    0    0    0    0 -0.00000000000E+00 -0.00000000000E+00 -0.45593999997E+02  0.45594000000E+02  0.51100000000E-03 0. -1.
    9900012    2    1    2    0    0 -0.35844704765E+02  0.59715716145E+01  0.18238855078E+02  0.50528949817E+02  0.30000273463E+02 0.  0.
         12    1    1    2    0    0  0.35844704765E+02 -0.59715716145E+01 -0.18238855078E+02  0.40659050183E+02  0.00000000000E+00 0. -1.
         11    1    3    3    0    0  0.26507173297E+01 -0.47258320413E+01  0.53530480555E+01  0.76167522337E+01  0.51100000000E-03 0.  1.
        -11    1    3    3    0    0 -0.10002515515E+02  0.58589621196E+01  0.90805842282E+00  0.11627653422E+02  0.51100000000E-03 0. -1.
        -12    1    3    3    0    0 -0.28492906580E+02  0.48384415362E+01  0.11977748600E+02  0.31284544161E+02  0.00000000000E+00 0.  1.
</event>
<event>
 7    1  0.2432574E-011  0.5052886E+02  0.7816164E-02  0.1300439E+00
        -11   -1    0    0    0    0  0.00000000000E+00  0.00000000000E+00  0.45593999997E+02  0.45594000000E+02  0.51100000000E-03 0.  1.
         11   -1    0    0    0    0 -0.00000000000E+00 -0.00000000000E+00 -0.45593999997E+02  0.45594000000E+02  0.51100000000E-03 0. -1.
    9900012    2    1    2    0    0 -0.29786575037E+02 -0.21095807246E+02  0.17913474941E+02  0.50528859327E+02  0.29999998412E+02 0.  0.
         12    1    1    2    0    0  0.29786575037E+02  0.21095807246E+02 -0.17913474941E+02  0.40659140673E+02  0.00000000000E+00 0. -1.
         11    1    3    3    0    0 -0.67757752106E+01 -0.57649976107E+01  0.15546399615E+02  0.17911919730E+02  0.51100000000E-03 0. -1.
        -11    1    3    3    0    0 -0.16951644801E+01  0.31041113004E+01 -0.20550243072E+01  0.40905029940E+01  0.51100000000E-03 0.  1.
        -12    1    3    3    0    0 -0.21315635346E+02 -0.18434920936E+02  0.44220996323E+01  0.28526436603E+02  0.00000000000E+00 0.  1.
</event>
<event>
 7    1  0.2432574E-011  0.5052885E+02  0.7816164E-02  0.1300439E+00
        -11   -1    0    0    0    0  0.00000000000E+00  0.00000000000E+00  0.45593999997E+02  0.45594000000E+02  0.51100000000E-03 0.  1.
         11   -1    0    0    0    0 -0.00000000000E+00 -0.00000000000E+00 -0.45593999997E+02  0.45594000000E+02  0.51100000000E-03 0. -1.
    9900012    2    1    2    0    0  0.26194514561E+02  0.29099633086E+02 -0.10964710777E+02  0.50528854396E+02  0.29999983422E+02 0.  0.
         12    1    1    2    0    0 -0.26194514561E+02 -0.29099633086E+02  0.10964710777E+02  0.40659145604E+02  0.00000000000E+00 0. -1.
         11    1    3    3    0    0  0.16428263957E+02  0.50921940871E+00 -0.73764637550E+01  0.18015531600E+02  0.51100000000E-03 0. -1.
        -11    1    3    3    0    0  0.81003235646E+01  0.75375109069E+01  0.15272030279E+00  0.11065831929E+02  0.51100000000E-03 0.  1.
         12    1    3    3    0    0  0.16659270395E+01  0.21052902771E+02 -0.37409673244E+01  0.21447490867E+02  0.00000000000E+00 0. -1.
</event>
<event>
 7    1  0.2432574E-011  0.5052886E+02  0.7816164E-02  0.1300439E+00
        -11   -1    0    0    0    0  0.00000000000E+00  0.00000000000E+00  0.45593999997E+02  0.45594000000E+02  0.51100000000E-03 0. -1.
         11   -1    0    0    0    0 -0.00000000000E+00 -0.00000000000E+00 -0.45593999997E+02  0.45594000000E+02  0.51100000000E-03 0.  1.
    9900012    2    1    2    0    0 -0.22859360525E+02 -0.26073851222E+02 -0.21231343732E+02  0.50528855422E+02  0.29999986541E+02 0.  0.
         12    1    1    2    0    0  0.22859360525E+02  0.26073851222E+02  0.21231343732E+02  0.40659144578E+02  0.00000000000E+00 0. -1.
         11    1    3    3    0    0 -0.52738366902E+01 -0.20127885397E+02 -0.15693538914E+02  0.26062085256E+02  0.51100000000E-03 0. -1.
        -11    1    3    3    0    0 -0.14623979565E+02 -0.57566031628E+00 -0.92353211765E+01  0.17305586399E+02  0.51100000000E-03 0.  1.
         12    1    3    3    0    0 -0.29615442701E+01 -0.53703055080E+01  0.36975163590E+01  0.71611837665E+01  0.00000000000E+00 0. -1.
</event>
<event>
 7    1  0.2432574E-011  0.5052886E+02  0.7816164E-02  0.1300439E+00
        -11   -1    0    0    0    0  0.00000000000E+00  0.00000000000E+00  0.45593999997E+02  0.45594000000E+02  0.51100000000E-03 0. -1.
         11   -1    0    0    0    0 -0.00000000000E+00 -0.00000000000E+00 -0.45593999997E+02  0.45594000000E+02  0.51100000000E-03 0.  1.
    9900012    2    1    2    0    0  0.12299120542E+02  0.24267915057E+02 -0.30215318462E+02  0.50528861580E+02  0.30000005257E+02 0.  0.
         12    1    1    2    0    0 -0.12299120542E+02 -0.24267915057E+02  0.30215318462E+02  0.40659138420E+02  0.00000000000E+00 0. -1.
         11    1    3    3    0    0 -0.59615251765E+01  0.69871475397E+01 -0.15311579474E+02  0.17855096735E+02  0.51100000000E-03 0.  1.
        -11    1    3    3    0    0  0.60196323650E+00  0.21013099303E+01  0.27061581371E+01  0.34786714828E+01  0.51100000000E-03 0. -1.
         12    1    3    3    0    0  0.17658682482E+02  0.15179457587E+02 -0.17609897126E+02  0.29195093362E+02  0.00000000000E+00 0. -1.
</event>
<event>
 7    1  0.2432574E-011  0.5052886E+02  0.7816164E-02  0.1300439E+00
        -11   -1    0    0    0    0  0.00000000000E+00  0.00000000000E+00  0.45593999997E+02  0.45594000000E+02  0.51100000000E-03 0. -1.
         11   -1    0    0    0    0 -0.00000000000E+00 -0.00000000000E+00 -0.45593999997E+02  0.45594000000E+02  0.51100000000E-03 0.  1.
    9900012    2    1    2    0    0 -0.35956833551E+02 -0.18200381334E+02 -0.53868489852E+01  0.50528857096E+02  0.29999991629E+02 0.  0.
         12    1    1    2    0    0  0.35956833551E+02  0.18200381334E+02  0.53868489852E+01  0.40659142904E+02  0.00000000000E+00 0. -1.
         11    1    3    3    0    0 -0.24888640025E+02 -0.12112041910E+02 -0.70722461910E+00  0.27688375330E+02  0.51100000000E-03 0. -1.
        -11    1    3    3    0    0 -0.14094151346E+02 -0.13867026298E+01 -0.80715283123E+01  0.16300847092E+02  0.51100000000E-03 0.  1.
        -12    1    3    3    0    0  0.30259578207E+01 -0.47016367946E+01  0.33919039462E+01  0.65396346734E+01  0.00000000000E+00 0.  1.
</event>
<event>
 7    1  0.2432574E-011  0.5052886E+02  0.7816164E-02  0.1300439E+00
        -11   -1    0    0    0    0  0.00000000000E+00  0.00000000000E+00  0.45593999997E+02  0.45594000000E+02  0.51100000000E-03 0. -1.
         11   -1    0    0    0    0 -0.00000000000E+00 -0.00000000000E+00 -0.45593999997E+02  0.45594000000E+02  0.51100000000E-03 0.  1.
    9900012    2    1    2    0    0 -0.38783325901E+02  0.88952040836E+01  0.83602962940E+01  0.50528861079E+02  0.30000003736E+02 0.  0.
         12    1    1    2    0    0  0.38783325901E+02 -0.88952040836E+01 -0.83602962940E+01  0.40659138921E+02  0.00000000000E+00 0. -1.
         11    1    3    3    0    0 -0.42892267026E+01 -0.25001029435E+01  0.85699039332E+01  0.99041018835E+01  0.51100000000E-03 0. -1.
        -11    1    3    3    0    0 -0.27528354444E+02  0.83048313161E+01  0.75710887849E+01  0.29733851201E+02  0.51100000000E-03 0.  1.
        -12    1    3    3    0    0 -0.69657447549E+01  0.30904757109E+01 -0.77806964241E+01  0.10890907995E+02  0.00000000000E+00 0.  1.
</event>
<event>
 7    1  0.2432574E-011  0.5052886E+02  0.7816164E-02  0.1300439E+00
        -11   -1    0    0    0    0  0.00000000000E+00  0.00000000000E+00  0.45593999997E+02  0.45594000000E+02  0.51100000000E-03 0. -1.
         11   -1    0    0    0    0 -0.00000000000E+00 -0.00000000000E+00 -0.45593999997E+02  0.45594000000E+02  0.51100000000E-03 0.  1.
    9900012    2    1    2    0    0 -0.12331312682E+01  0.24066166529E+02  0.32748506123E+02  0.50528860346E+02  0.30000001506E+02 0.  0.
         12    1    1    2    0    0  0.12331312682E+01 -0.24066166529E+02 -0.32748506123E+02  0.40659139654E+02  0.00000000000E+00 0. -1.
         11    1    3    3    0    0  0.99123226555E+00  0.10694229739E+02  0.15632137586E+02  0.18966096512E+02  0.51100000000E-03 0. -1.
        -11    1    3    3    0    0 -0.12131836839E+02  0.57151785647E+01  0.55395162589E+01  0.14509685447E+02  0.51100000000E-03 0.  1.
         12    1    3    3    0    0  0.99074733052E+01  0.76567582256E+01  0.11576852278E+02  0.17053078387E+02  0.00000000000E+00 0. -1.
</event>
<event>
 7    1  0.2432574E-011  0.5052886E+02  0.7816164E-02  0.1300439E+00
        -11   -1    0    0    0    0  0.00000000000E+00  0.00000000000E+00  0.45593999997E+02  0.45594000000E+02  0.51100000000E-03 0.  1.
         11   -1    0    0    0    0 -0.00000000000E+00 -0.00000000000E+00 -0.45593999997E+02  0.45594000000E+02  0.51100000000E-03 0. -1.
    9900012    2    1    2    0    0  0.89060756405E+00  0.10400872807E+02  0.39296242596E+02  0.50528855652E+02  0.29999987238E+02 0.  0.
         12    1    1    2    0    0 -0.89060756405E+00 -0.10400872807E+02 -0.39296242596E+02  0.40659144348E+02  0.00000000000E+00 0. -1.
         11    1    3    3    0    0  0.42595866156E+01 -0.28067006747E+01 -0.63535478625E+00  0.51405566604E+01  0.51100000000E-03 0.  1.
        -11    1    3    3    0    0  0.87535589228E+00  0.20726467225E+01 -0.12107315078E+01  0.25549918629E+01  0.51100000000E-03 0. -1.
        -12    1    3    3    0    0 -0.42443349438E+01  0.11134926759E+02  0.41142328890E+02  0.42833307128E+02  0.00000000000E+00 0.  1.
</event>
<event>
 7    1  0.2432574E-011  0.5052887E+02  0.7816164E-02  0.1300439E+00
        -11   -1    0    0    0    0  0.00000000000E+00  0.00000000000E+00  0.45593999997E+02  0.45594000000E+02  0.51100000000E-03 0. -1.
         11   -1    0    0    0    0 -0.00000000000E+00 -0.00000000000E+00 -0.45593999997E+02  0.45594000000E+02  0.51100000000E-03 0.  1.
    9900012    2    1    2    0    0  0.26954245433E+02 -0.19070428270E+02 -0.23726608257E+02  0.50528874080E+02  0.30000043252E+02 0.  0.
         12    1    1    2    0    0 -0.26954245433E+02  0.19070428270E+02  0.23726608257E+02  0.40659125920E+02  0.00000000000E+00 0. -1.
         11    1    3    3    0    0  0.13864167622E+02 -0.38784350565E+01 -0.10248661798E+02  0.17671798755E+02  0.51100000000E-03 0. -1.
        -11    1    3    3    0    0  0.33086935147E+01 -0.91262981065E-01 -0.14464298807E+02  0.14838184591E+02  0.51100000000E-03 0.  1.
         12    1    3    3    0    0  0.97813842961E+01 -0.15100730233E+02  0.98635234902E+00  0.18018890733E+02  0.00000000000E+00 0. -1.
</event>
<event>
 7    1  0.2432574E-011  0.5052886E+02  0.7816164E-02  0.1300439E+00
        -11   -1    0    0    0    0  0.00000000000E+00  0.00000000000E+00  0.45593999997E+02  0.45594000000E+02  0.51100000000E-03 0.  1.
         11   -1    0    0    0    0 -0.00000000000E+00 -0.00000000000E+00 -0.45593999997E+02  0.45594000000E+02  0.51100000000E-03 0. -1.
    9900012    2    1    2    0    0  0.52056245870E+01 -0.12506384049E+02  0.38336107953E+02  0.50528863975E+02  0.30000012538E+02 0.  0.
         12    1    1    2    0    0 -0.52056245870E+01  0.12506384049E+02 -0.38336107953E+02  0.40659136025E+02  0.00000000000E+00 0. -1.
         11    1    3    3    0    0 -0.73816277468E+01 -0.10264885604E+02  0.87021259348E+01  0.15348723097E+02  0.51100000000E-03 0. -1.
        -11    1    3    3    0    0  0.73539251196E+01 -0.81999435278E+01  0.17911092148E+02  0.21026804577E+02  0.51100000000E-03 0.  1.
        -12    1    3    3    0    0  0.52333272141E+01  0.59584450833E+01  0.11722889870E+02  0.14153336301E+02  0.00000000000E+00 0.  1.
</event>
<event>
 7    1  0.2432574E-011  0.5052886E+02  0.7816164E-02  0.1300439E+00
        -11   -1    0    0    0    0  0.00000000000E+00  0.00000000000E+00  0.45593999997E+02  0.45594000000E+02  0.51100000000E-03 0.  1.
         11   -1    0    0    0    0 -0.00000000000E+00 -0.00000000000E+00 -0.45593999997E+02  0.45594000000E+02  0.51100000000E-03 0. -1.
    9900012    2    1    2    0    0 -0.22957411133E+02  0.18518159147E+02  0.27985724043E+02  0.50528859646E+02  0.29999999381E+02 0.  0.
         12    1    1    2    0    0  0.22957411133E+02 -0.18518159147E+02 -0.27985724043E+02  0.40659140354E+02  0.00000000000E+00 0. -1.
         11    1    3    3    0    0 -0.82543427599E+01  0.17599015413E+02  0.89793342472E+01  0.21412332000E+02  0.51100000000E-03 0. -1.
        -11    1    3    3    0    0 -0.54880086031E+00 -0.19845763376E+01 -0.24801894923E+01  0.32235176132E+01  0.51100000000E-03 0.  1.
        -12    1    3    3    0    0 -0.14154267513E+02  0.29037200717E+01  0.21486579288E+02  0.25893010033E+02  0.00000000000E+00 0.  1.
</event>
<event>
 7    1  0.2432574E-011  0.5052886E+02  0.7816164E-02  0.1300439E+00
        -11   -1    0    0    0    0  0.00000000000E+00  0.00000000000E+00  0.45593999997E+02  0.45594000000E+02  0.51100000000E-03 0.  1.
         11   -1    0    0    0    0 -0.00000000000E+00 -0.00000000000E+00 -0.45593999997E+02  0.45594000000E+02  0.51100000000E-03 0. -1.
    9900012    2    1    2    0    0  0.36043829928E+02 -0.30472732991E+00  0.18812623125E+02  0.50528864206E+02  0.30000013241E+02 0.  0.
         12    1    1    2    0    0 -0.36043829928E+02  0.30472732991E+00 -0.18812623125E+02  0.40659135794E+02  0.00000000000E+00 0. -1.
         11    1    3    3    0    0  0.79914955881E+00  0.82112982683E+01  0.77266863275E+01  0.11303350881E+02  0.51100000000E-03 0. -1.
        -11    1    3    3    0    0  0.14873923578E+02 -0.69345679362E+01  0.89211555334E+01  0.18679101996E+02  0.51100000000E-03 0.  1.
        -12    1    3    3    0    0  0.20370756791E+02 -0.15814576620E+01  0.21647812645E+01  0.20546411329E+02  0.00000000000E+00 0.  1.
</event>
<event>
 7    1  0.2432574E-011  0.5052884E+02  0.7816164E-02  0.1300439E+00
        -11   -1    0    0    0    0  0.00000000000E+00  0.00000000000E+00  0.45593999997E+02  0.45594000000E+02  0.51100000000E-03 0.  1.
         11   -1    0    0    0    0 -0.00000000000E+00 -0.00000000000E+00 -0.45593999997E+02  0.45594000000E+02  0.51100000000E-03 0. -1.
    9900012    2    1    2    0    0 -0.17264952020E+01  0.21668055519E+02  0.34361046054E+02  0.50528844800E+02  0.29999954254E+02 0.  0.
         12    1    1    2    0    0  0.17264952020E+01 -0.21668055519E+02 -0.34361046054E+02  0.40659155200E+02  0.00000000000E+00 0. -1.
         11    1    3    3    0    0  0.28911883969E+01  0.42263645719E+01  0.10915270472E+02  0.12056710064E+02  0.51100000000E-03 0.  1.
        -11    1    3    3    0    0 -0.17041044271E+01 -0.55823163566E+01  0.10196411212E+02  0.11748745876E+02  0.51100000000E-03 0. -1.
         12    1    3    3    0    0 -0.29135791719E+01  0.23024007304E+02  0.13249364370E+02  0.26723388860E+02  0.00000000000E+00 0. -1.
</event>
<event>
 7    1  0.2432574E-011  0.5052888E+02  0.7816164E-02  0.1300439E+00
        -11   -1    0    0    0    0  0.00000000000E+00  0.00000000000E+00  0.45593999997E+02  0.45594000000E+02  0.51100000000E-03 0.  1.
         11   -1    0    0    0    0 -0.00000000000E+00 -0.00000000000E+00 -0.45593999997E+02  0.45594000000E+02  0.51100000000E-03 0. -1.
    9900012    2    1    2    0    0  0.86561234433E+01  0.17017591268E+01  0.39690549634E+02  0.50528878176E+02  0.30000055705E+02 0.  0.
         12    1    1    2    0    0 -0.86561234433E+01 -0.17017591268E+01 -0.39690549634E+02  0.40659121824E+02  0.00000000000E+00 0. -1.
         11    1    3    3    0    0  0.62321977924E+01 -0.35659632895E+01  0.17373299661E+02  0.18798614973E+02  0.51100000000E-03 0. -1.
        -11    1    3    3    0    0 -0.67620126007E+01 -0.19653992583E+01  0.17893893565E+02  0.19229639514E+02  0.51100000000E-03 0.  1.
         12    1    3    3    0    0  0.91859382517E+01  0.72331216746E+01  0.44233564080E+01  0.12500623690E+02  0.00000000000E+00 0. -1.
</event>
<event>
 7    1  0.2432574E-011  0.5052887E+02  0.7816164E-02  0.1300439E+00
        -11   -1    0    0    0    0  0.00000000000E+00  0.00000000000E+00  0.45593999997E+02  0.45594000000E+02  0.51100000000E-03 0.  1.
         11   -1    0    0    0    0 -0.00000000000E+00 -0.00000000000E+00 -0.45593999997E+02  0.45594000000E+02  0.51100000000E-03 0. -1.
    9900012    2    1    2    0    0 -0.68979110132E+01  0.14635430101E+02  0.37301310070E+02  0.50528871585E+02  0.30000035669E+02 0.  0.
         12    1    1    2    0    0  0.68979110132E+01 -0.14635430101E+02 -0.37301310070E+02  0.40659128415E+02  0.00000000000E+00 0. -1.
         11    1    3    3    0    0  0.48181648819E+01  0.52368153409E+00  0.68317359226E+01  0.83762504234E+01  0.51100000000E-03 0.  1.
        -11    1    3    3    0    0 -0.23348444572E+01  0.12223045836E+02  0.30105765663E+02  0.32576240952E+02  0.51100000000E-03 0. -1.
         12    1    3    3    0    0 -0.93812314380E+01  0.18887027304E+01  0.36380848382E+00  0.95763802091E+01  0.00000000000E+00 0. -1.
</event>
<event>
 7    1  0.2432574E-011  0.5052890E+02  0.7816164E-02  0.1300439E+00
        -11   -1    0    0    0    0  0.00000000000E+00  0.00000000000E+00  0.45593999997E+02  0.45594000000E+02  0.51100000000E-03 0. -1.
         11   -1    0    0    0    0 -0.00000000000E+00 -0.00000000000E+00 -0.45593999997E+02  0.45594000000E+02  0.51100000000E-03 0.  1.
    9900012    2    1    2    0    0  0.43114120154E+01 -0.24186161482E+02 -0.32397590276E+02  0.50528898479E+02  0.30000117417E+02 0.  0.
         12    1    1    2    0    0 -0.43114120154E+01  0.24186161482E+02  0.32397590276E+02  0.40659101521E+02  0.00000000000E+00 0. -1.
         11    1    3    3    0    0  0.90312234697E+01 -0.70815715963E+01 -0.12166038391E+02  0.16724955726E+02  0.51100000000E-03 0. -1.
        -11    1    3    3    0    0  0.47453811096E+01 -0.45935433003E+01 -0.16363464474E+02  0.17646026516E+02  0.51100000000E-03 0.  1.
        -12    1    3    3    0    0 -0.94651925639E+01 -0.12511046585E+02 -0.38680874100E+01  0.16157916238E+02  0.00000000000E+00 0.  1.
</event>
<event>
 7    1  0.2432574E-011  0.5052885E+02  0.7816164E-02  0.1300439E+00
        -11   -1    0    0    0    0  0.00000000000E+00  0.00000000000E+00  0.45593999997E+02  0.45594000000E+02  0.51100000000E-03 0.  1.
         11   -1    0    0    0    0 -0.00000000000E+00 -0.00000000000E+00 -0.45593999997E+02  0.45594000000E+02  0.51100000000E-03 0. -1.
    9900012    2    1    2    0    0  0.24425403195E+02  0.12739487278E+02  0.29904378751E+02  0.50528846961E+02  0.29999960824E+02 0.  0.
         12    1    1    2    0    0 -0.24425403195E+02 -0.12739487278E+02 -0.29904378751E+02  0.40659153039E+02  0.00000000000E+00 0. -1.
         11    1    3    3    0    0  0.12863369003E+02  0.76401795244E+01  0.44419695967E+01  0.15606719688E+02  0.51100000000E-03 0. -1.
        -11    1    3    3    0    0 -0.10150134842E+01  0.85455487819E+01  0.33177727165E+01  0.92230294598E+01  0.51100000000E-03 0.  1.
        -12    1    3    3    0    0  0.12577047677E+02 -0.34462410285E+01  0.22144636437E+02  0.25699097814E+02  0.00000000000E+00 0.  1.
</event>
<event>
 7    1  0.2432574E-011  0.5052886E+02  0.7816164E-02  0.1300439E+00
        -11   -1    0    0    0    0  0.00000000000E+00  0.00000000000E+00  0.45593999997E+02  0.45594000000E+02  0.51100000000E-03 0.  1.
         11   -1    0    0    0    0 -0.00000000000E+00 -0.00000000000E+00 -0.45593999997E+02  0.45594000000E+02  0.51100000000E-03 0. -1.
    9900012    2    1    2    0    0  0.48378160441E+01  0.28259750763E+02  0.28829632390E+02  0.50528859810E+02  0.29999999878E+02 0.  0.
         12    1    1    2    0    0 -0.48378160441E+01 -0.28259750763E+02 -0.28829632390E+02  0.40659140190E+02  0.00000000000E+00 0. -1.
         11    1    3    3    0    0  0.20790033169E+01 -0.11337198223E+00  0.72224224137E+00  0.22038017412E+01  0.51100000000E-03 0. -1.
        -11    1    3    3    0    0 -0.70520568358E+00 -0.47853753346E+01  0.18970210845E+00  0.48407767249E+01  0.51100000000E-03 0.  1.
        -12    1    3    3    0    0  0.34640184108E+01  0.33158498080E+02  0.27917688040E+02  0.43484281344E+02  0.00000000000E+00 0.  1.
</event>
<event>
 7    1  0.2432574E-011  0.5052886E+02  0.7816164E-02  0.1300439E+00
        -11   -1    0    0    0    0  0.00000000000E+00  0.00000000000E+00  0.45593999997E+02  0.45594000000E+02  0.51100000000E-03 0.  1.
         11   -1    0    0    0    0 -0.00000000000E+00 -0.00000000000E+00 -0.45593999997E+02  0.45594000000E+02  0.51100000000E-03 0. -1.
    9900012    2    1    2    0    0  0.21071341777E+02  0.34426257387E+02  0.48986955434E+01  0.50528857609E+02  0.29999993188E+02 0.  0.
         12    1    1    2    0    0 -0.21071341777E+02 -0.34426257387E+02 -0.48986955434E+01  0.40659142391E+02  0.00000000000E+00 0. -1.
         11    1    3    3    0    0  0.11313793705E+02  0.87395702236E+01  0.17182502768E+01  0.14399111082E+02  0.51100000000E-03 0. -1.
        -11    1    3    3    0    0  0.13493794247E+02  0.86065490857E+01  0.81400163355E+01  0.17955919262E+02  0.51100000000E-03 0.  1.
         12    1    3    3    0    0 -0.37362461751E+01  0.17080138078E+02 -0.49595710689E+01  0.18173827264E+02  0.00000000000E+00 0. -1.
</event>
<event>
 7    1  0.2432574E-011  0.5052886E+02  0.7816164E-02  0.1300439E+00
        -11   -1    0    0    0    0  0.00000000000E+00  0.00000000000E+00  0.45593999997E+02  0.45594000000E+02  0.51100000000E-03 0. -1.
         11   -1    0    0    0    0 -0.00000000000E+00 -0.00000000000E+00 -0.45593999997E+02  0.45594000000E+02  0.51100000000E-03 0.  1.
    9900012    2    1    2    0    0  0.21612776898E+02  0.29115977083E+02 -0.18393306525E+02  0.50528856236E+02  0.29999989013E+02 0.  0.
         12    1    1    2    0    0 -0.21612776898E+02 -0.29115977083E+02  0.18393306525E+02  0.40659143764E+02  0.00000000000E+00 0. -1.
         11    1    3    3    0    0 -0.64386388393E+01  0.58758189592E+01 -0.81831195419E+01  0.11955950997E+02  0.51100000000E-03 0. -1.
        -11    1    3    3    0    0  0.14721172402E+02  0.11414506919E+02 -0.90645693604E+01  0.20716425924E+02  0.51100000000E-03 0.  1.
        -12    1    3    3    0    0  0.13330243335E+02  0.11825651205E+02 -0.11456176229E+01  0.17856479315E+02  0.00000000000E+00 0.  1.
</event>
<event>
 7    1  0.2432574E-011  0.5052885E+02  0.7816164E-02  0.1300439E+00
        -11   -1    0    0    0    0  0.00000000000E+00  0.00000000000E+00  0.45593999997E+02  0.45594000000E+02  0.51100000000E-03 0.  1.
         11   -1    0    0    0    0 -0.00000000000E+00 -0.00000000000E+00 -0.45593999997E+02  0.45594000000E+02  0.51100000000E-03 0. -1.
    9900012    2    1    2    0    0 -0.33198602506E+02 -0.12755130427E+02  0.19705990881E+02  0.50528848051E+02  0.29999964137E+02 0.  0.
         12    1    1    2    0    0  0.33198602506E+02  0.12755130427E+02 -0.19705990881E+02  0.40659151949E+02  0.00000000000E+00 0. -1.
         11    1    3    3    0    0 -0.53936672321E+01 -0.47941997995E+01 -0.40767316418E+00  0.72278762855E+01  0.51100000000E-03 0. -1.
        -11    1    3    3    0    0 -0.18105830721E+02 -0.13081248650E+02  0.23983430841E+01  0.22465356043E+02  0.51100000000E-03 0.  1.
        -12    1    3    3    0    0 -0.96991045532E+01  0.51203180228E+01  0.17715320961E+02  0.20835615723E+02  0.00000000000E+00 0.  1.
</event>
<event>
 7    1  0.2432574E-011  0.5052886E+02  0.7816164E-02  0.1300439E+00
        -11   -1    0    0    0    0  0.00000000000E+00  0.00000000000E+00  0.45593999997E+02  0.45594000000E+02  0.51100000000E-03 0.  1.
         11   -1    0    0    0    0 -0.00000000000E+00 -0.00000000000E+00 -0.45593999997E+02  0.45594000000E+02  0.51100000000E-03 0. -1.
    9900012    2    1    2    0    0 -0.29558610004E+02  0.46977040744E+00  0.27914751708E+02  0.50528862374E+02  0.30000007671E+02 0.  0.
         12    1    1    2    0    0  0.29558610004E+02 -0.46977040744E+00 -0.27914751708E+02  0.40659137626E+02  0.00000000000E+00 0. -1.
         11    1    3    3    0    0 -0.45100832533E+01 -0.68355104850E+01  0.17525444779E+01  0.83747517545E+01  0.51100000000E-03 0. -1.
        -11    1    3    3    0    0 -0.18284463113E+02 -0.22788146361E+01  0.23948175592E+02  0.30216381350E+02  0.51100000000E-03 0.  1.
        -12    1    3    3    0    0 -0.67640636375E+01  0.95840955286E+01  0.22140316387E+01  0.11937729269E+02  0.00000000000E+00 0.  1.
</event>
<event>
 7    1  0.2432574E-011  0.5052884E+02  0.7816164E-02  0.1300439E+00
        -11   -1    0    0    0    0  0.00000000000E+00  0.00000000000E+00  0.45593999997E+02  0.45594000000E+02  0.51100000000E-03 0. -1.
         11   -1    0    0    0    0 -0.00000000000E+00 -0.00000000000E+00 -0.45593999997E+02  0.45594000000E+02  0.51100000000E-03 0.  1.
    9900012    2    1    2    0    0  0.44997108968E+01  0.87939654979E+00 -0.40399834936E+02  0.50528838679E+02  0.29999935650E+02 0.  0.
         12    1    1    2    0    0 -0.44997108968E+01 -0.87939654979E+00  0.40399834936E+02  0.40659161321E+02  0.00000000000E+00 0. -1.
         11    1    3    3    0    0  0.48569738914E+01 -0.39279133569E+00 -0.19680647188E+02  0.20274919344E+02  0.51100000000E-03 0.  1.
        -11    1    3    3    0    0 -0.77407739369E+01  0.47820772186E+01 -0.20090066663E+02  0.22054446773E+02  0.51100000000E-03 0. -1.
         12    1    3    3    0    0  0.73835109423E+01 -0.35098893331E+01 -0.62912108496E+00  0.81994725626E+01  0.00000000000E+00 0. -1.
</event>
<event>
 7    1  0.2432574E-011  0.5052886E+02  0.7816164E-02  0.1300439E+00
        -11   -1    0    0    0    0  0.00000000000E+00  0.00000000000E+00  0.45593999997E+02  0.45594000000E+02  0.51100000000E-03 0. -1.
         11   -1    0    0    0    0 -0.00000000000E+00 -0.00000000000E+00 -0.45593999997E+02  0.45594000000E+02  0.51100000000E-03 0.  1.
    9900012    2    1    2    0    0 -0.39772985343E+02 -0.81952310766E+01  0.20282453535E+01  0.50528856444E+02  0.29999989648E+02 0.  0.
         12    1    1    2    0    0  0.39772985343E+02  0.81952310766E+01 -0.20282453535E+01  0.40659143556E+02  0.00000000000E+00 0. -1.
         11    1    3    3    0    0 -0.12476116202E+02  0.22815174682E+01  0.10178747463E+02  0.16262401348E+02  0.51100000000E-03 0. -1.
        -11    1    3    3    0    0 -0.25249143824E+02 -0.11284236110E+02 -0.19934147409E+01  0.27727728920E+02  0.51100000000E-03 0.  1.
        -12    1    3    3    0    0 -0.20477253166E+01  0.80748756534E+00 -0.61570873688E+01  0.65387261762E+01  0.00000000000E+00 0.  1.
</event>
<event>
 7    1  0.2432574E-011  0.5052886E+02  0.7816164E-02  0.1300439E+00
        -11   -1    0    0    0    0  0.00000000000E+00  0.00000000000E+00  0.45593999997E+02  0.45594000000E+02  0.51100000000E-03 0. -1.
         11   -1    0    0    0    0 -0.00000000000E+00 -0.00000000000E+00 -0.45593999997E+02  0.45594000000E+02  0.51100000000E-03 0.  1.
    9900012    2    1    2    0    0  0.26595783569E+02  0.29047782415E+02 -0.10102295562E+02  0.50528859053E+02  0.29999997579E+02 0.  0.
         12    1    1    2    0    0 -0.26595783569E+02 -0.29047782415E+02  0.10102295562E+02  0.40659140947E+02  0.00000000000E+00 0. -1.
         11    1    3    3    0    0 -0.29186077843E+01  0.13296902288E+02 -0.69998122860E+01  0.15307620787E+02  0.51100000000E-03 0. -1.
        -11    1    3    3    0    0  0.91669237091E+01  0.10555075483E+02 -0.25686335525E+01  0.14214077083E+02  0.51100000000E-03 0.  1.
        -12    1    3    3    0    0  0.20347467645E+02  0.51958046440E+01 -0.53384972316E+00  0.21007161183E+02  0.00000000000E+00 0.  1.
</event>
<event>
 7    1  0.2432574E-011  0.5052886E+02  0.7816164E-02  0.1300439E+00
        -11   -1    0    0    0    0  0.00000000000E+00  0.00000000000E+00  0.45593999997E+02  0.45594000000E+02  0.51100000000E-03 0. -1.
         11   -1    0    0    0    0 -0.00000000000E+00 -0.00000000000E+00 -0.45593999997E+02  0.45594000000E+02  0.51100000000E-03 0.  1.
    9900012    2    1    2    0    0  0.17314976219E+02 -0.35001994586E+02 -0.11323329225E+02  0.50528858209E+02  0.29999995013E+02 0.  0.
         12    1    1    2    0    0 -0.17314976219E+02  0.35001994586E+02  0.11323329225E+02  0.40659141791E+02  0.00000000000E+00 0. -1.
         11    1    3    3    0    0  0.18635366632E+00 -0.11067671301E+02 -0.39217404607E+01  0.11743428980E+02  0.51100000000E-03 0. -1.
        -11    1    3    3    0    0  0.17937069880E+02 -0.27892615094E+02 -0.38111877323E+01  0.33380557288E+02  0.51100000000E-03 0.  1.
         12    1    3    3    0    0 -0.80844732721E+00  0.39582918095E+01 -0.35904010319E+01  0.54048719411E+01  0.00000000000E+00 0. -1.
</event>
<event>
 7    1  0.2432574E-011  0.5052886E+02  0.7816164E-02  0.1300439E+00
        -11   -1    0    0    0    0  0.00000000000E+00  0.00000000000E+00  0.45593999997E+02  0.45594000000E+02  0.51100000000E-03 0.  1.
         11   -1    0    0    0    0 -0.00000000000E+00 -0.00000000000E+00 -0.45593999997E+02  0.45594000000E+02  0.51100000000E-03 0. -1.
    9900012    2    1    2    0    0  0.18890914409E+02  0.18555210727E+02  0.30854546417E+02  0.50528861705E+02  0.30000005637E+02 0.  0.
         12    1    1    2    0    0 -0.18890914409E+02 -0.18555210727E+02 -0.30854546417E+02  0.40659138295E+02  0.00000000000E+00 0. -1.
         11    1    3    3    0    0  0.15391269839E+02 -0.14801399552E+01  0.13257941651E+02  0.20367990048E+02  0.51100000000E-03 0. -1.
        -11    1    3    3    0    0 -0.32524730681E+00  0.25362561224E+01  0.10643681265E+02  0.10946521459E+02  0.51100000000E-03 0.  1.
         12    1    3    3    0    0  0.38248918773E+01  0.17499094560E+02  0.69529235013E+01  0.19214350197E+02  0.00000000000E+00 0. -1.
</event>
<event>
 7    1  0.2432574E-011  0.5052887E+02  0.7816164E-02  0.1300439E+00
        -11   -1    0    0    0    0  0.00000000000E+00  0.00000000000E+00  0.45593999997E+02  0.45594000000E+02  0.51100000000E-03 0.  1.
         11   -1    0    0    0    0 -0.00000000000E+00 -0.00000000000E+00 -0.45593999997E+02  0.45594000000E+02  0.51100000000E-03 0. -1.
    9900012    2    1    2    0    0  0.19352699006E+01  0.38943217476E+02  0.11525840786E+02  0.50528874791E+02  0.30000045413E+02 0.  0.
         12    1    1    2    0    0 -0.19352699006E+01 -0.38943217476E+02 -0.11525840786E+02  0.40659125209E+02  0.00000000000E+00 0. -1.
         11    1    3    3    0    0 -0.62256028879E+01  0.44729812854E+01 -0.27261946117E+01  0.81362049028E+01  0.51100000000E-03 0. -1.
        -11    1    3    3    0    0  0.47147709888E+01  0.91860175177E+01  0.13325774621E+02  0.16857883996E+02  0.51100000000E-03 0.  1.
         12    1    3    3    0    0  0.34461017998E+01  0.25284218673E+02  0.92626077711E+00  0.25534785892E+02  0.00000000000E+00 0. -1.
</event>
<event>
 7    1  0.2432574E-011  0.5052888E+02  0.7816164E-02  0.1300439E+00
        -11   -1    0    0    0    0  0.00000000000E+00  0.00000000000E+00  0.45593999997E+02  0.45594000000E+02  0.51100000000E-03 0.  1.
         11   -1    0    0    0    0 -0.00000000000E+00 -0.00000000000E+00 -0.45593999997E+02  0.45594000000E+02  0.51100000000E-03 0. -1.
    9900012    2    1    2    0    0  0.21177982403E+02 -0.23906290454E+01  0.34625746767E+02  0.50528875747E+02  0.30000048320E+02 0.  0.
         12    1    1    2    0    0 -0.21177982403E+02  0.23906290454E+01 -0.34625746767E+02  0.40659124253E+02  0.00000000000E+00 0. -1.
         11    1    3    3    0    0 -0.23645887995E+01 -0.51194547548E+01  0.12358043891E+02  0.13583863451E+02  0.51100000000E-03 0. -1.
        -11    1    3    3    0    0  0.10706159406E+02 -0.73755443967E+01  0.80732991198E+01  0.15303550677E+02  0.51100000000E-03 0.  1.
         12    1    3    3    0    0  0.12836411796E+02  0.10104370106E+02  0.14194403756E+02  0.21641461620E+02  0.00000000000E+00 0. -1.
</event>
<event>
 7    1  0.2432574E-011  0.5052888E+02  0.7816164E-02  0.1300439E+00
        -11   -1    0    0    0    0  0.00000000000E+00  0.00000000000E+00  0.45593999997E+02  0.45594000000E+02  0.51100000000E-03 0. -1.
         11   -1    0    0    0    0 -0.00000000000E+00 -0.00000000000E+00 -0.45593999997E+02  0.45594000000E+02  0.51100000000E-03 0.  1.
    9900012    2    1    2    0    0  0.20644565831E+01 -0.26062131956E+02 -0.31139484672E+02  0.50528877915E+02  0.30000054912E+02 0.  0.
         12    1    1    2    0    0 -0.20644565831E+01  0.26062131956E+02  0.31139484672E+02  0.40659122085E+02  0.00000000000E+00 0. -1.
         11    1    3    3    0    0  0.97759903321E-01 -0.17074332875E+02 -0.60684543934E+01  0.18120942004E+02  0.51100000000E-03 0. -1.
        -11    1    3    3    0    0  0.68396466925E+01  0.30633902726E+01 -0.81804995709E+01  0.11094399503E+02  0.51100000000E-03 0.  1.
         12    1    3    3    0    0 -0.48729500127E+01 -0.12051189353E+02 -0.16890530707E+02  0.21313536408E+02  0.00000000000E+00 0. -1.
</event>
<event>
 7    1  0.2432574E-011  0.5052886E+02  0.7816164E-02  0.1300439E+00
        -11   -1    0    0    0    0  0.00000000000E+00  0.00000000000E+00  0.45593999997E+02  0.45594000000E+02  0.51100000000E-03 0.  1.
         11   -1    0    0    0    0 -0.00000000000E+00 -0.00000000000E+00 -0.45593999997E+02  0.45594000000E+02  0.51100000000E-03 0. -1.
    9900012    2    1    2    0    0  0.29672649129E+02 -0.18508027352E+02  0.20740115134E+02  0.50528861316E+02  0.30000004455E+02 0.  0.
         12    1    1    2    0    0 -0.29672649129E+02  0.18508027352E+02 -0.20740115134E+02  0.40659138684E+02  0.00000000000E+00 0. -1.
         11    1    3    3    0    0  0.88507732375E+01 -0.87892271740E+01  0.14197021260E+02  0.18898203992E+02  0.51100000000E-03 0. -1.
        -11    1    3    3    0    0  0.95810344733E+01  0.30340546209E+01  0.10115918345E+02  0.14259506066E+02  0.51100000000E-03 0.  1.
         12    1    3    3    0    0  0.11240841418E+02 -0.12752854799E+02 -0.35728244706E+01  0.17371151258E+02  0.00000000000E+00 0. -1.
</event>
<event>
 7    1  0.2432574E-011  0.5052886E+02  0.7816164E-02  0.1300439E+00
        -11   -1    0    0    0    0  0.00000000000E+00  0.00000000000E+00  0.45593999997E+02  0.45594000000E+02  0.51100000000E-03 0.  1.
         11   -1    0    0    0    0 -0.00000000000E+00 -0.00000000000E+00 -0.45593999997E+02  0.45594000000E+02  0.51100000000E-03 0. -1.
    9900012    2    1    2    0    0  0.17934668761E+02 -0.25489840634E+02  0.26110942055E+02  0.50528860632E+02  0.30000002377E+02 0.  0.
         12    1    1    2    0    0 -0.17934668761E+02  0.25489840634E+02 -0.26110942055E+02  0.40659139368E+02  0.00000000000E+00 0. -1.
         11    1    3    3    0    0  0.21434028495E+02 -0.18561123130E+02  0.15756460979E+02  0.32437616007E+02  0.51100000000E-03 0. -1.
        -11    1    3    3    0    0  0.14950569976E+01  0.21281863118E+01 -0.95032860420E+00  0.27690245794E+01  0.51100000000E-03 0.  1.
         12    1    3    3    0    0 -0.49944167315E+01 -0.90569038162E+01  0.11304809680E+02  0.15322220046E+02  0.00000000000E+00 0. -1.
</event>
<event>
 7    1  0.2432574E-011  0.5052881E+02  0.7816164E-02  0.1300439E+00
        -11   -1    0    0    0    0  0.00000000000E+00  0.00000000000E+00  0.45593999997E+02  0.45594000000E+02  0.51100000000E-03 0. -1.
         11   -1    0    0    0    0 -0.00000000000E+00 -0.00000000000E+00 -0.45593999997E+02  0.45594000000E+02  0.51100000000E-03 0.  1.
    9900012    2    1    2    0    0  0.24976474673E+02 -0.29607376641E+02 -0.12359165407E+02  0.50528806596E+02  0.29999838130E+02 0.  0.
         12    1    1    2    0    0 -0.24976474673E+02  0.29607376641E+02  0.12359165407E+02  0.40659193404E+02  0.00000000000E+00 0. -1.
         11    1    3    3    0    0  0.25616843715E+02 -0.28138571564E+02 -0.83203822801E+01  0.38951645063E+02  0.51100000000E-03 0. -1.
        -11    1    3    3    0    0  0.93912785637E+00 -0.52275598859E+01 -0.51008464066E+01  0.73639648164E+01  0.51100000000E-03 0.  1.
        -12    1    3    3    0    0 -0.15794968986E+01  0.37587548086E+01  0.10620632796E+01  0.42131967167E+01  0.00000000000E+00 0.  1.
</event>
<event>
 7    1  0.2432574E-011  0.5052885E+02  0.7816164E-02  0.1300439E+00
        -11   -1    0    0    0    0  0.00000000000E+00  0.00000000000E+00  0.45593999997E+02  0.45594000000E+02  0.51100000000E-03 0. -1.
         11   -1    0    0    0    0 -0.00000000000E+00 -0.00000000000E+00 -0.45593999997E+02  0.45594000000E+02  0.51100000000E-03 0.  1.
    9900012    2    1    2    0    0  0.40440142913E+02 -0.17957544461E+01  0.38126575975E+01  0.50528852803E+02  0.29999978580E+02 0.  0.
         12    1    1    2    0    0 -0.40440142913E+02  0.17957544461E+01 -0.38126575975E+01  0.40659147197E+02  0.00000000000E+00 0. -1.
         11    1    3    3    0    0 -0.27460908822E+00 -0.17440842611E+01  0.80710155617E+01  0.82618722164E+01  0.51100000000E-03 0. -1.
        -11    1    3    3    0    0  0.54494092610E+01  0.34025683009E+01  0.79839470342E+00  0.64738679860E+01  0.51100000000E-03 0.  1.
         12    1    3    3    0    0  0.35265342740E+02 -0.34542384860E+01 -0.50567526676E+01  0.35793112601E+02  0.00000000000E+00 0. -1.
</event>
<event>
 7    1  0.3004995E-011  0.5052886E+02  0.7816164E-02  0.1300439E+00
        -11   -1    0    0    0    0  0.00000000000E+00  0.00000000000E+00  0.45593999997E+02  0.45594000000E+02  0.51100000000E-03 0.  1.
         11   -1    0    0    0    0 -0.00000000000E+00 -0.00000000000E+00 -0.45593999997E+02  0.45594000000E+02  0.51100000000E-03 0. -1.
    9900012    2    1    2    0    0 -0.32451218258E+02  0.43962416786E+01  0.24098898045E+02  0.50528863335E+02  0.30000010595E+02 0.  0.
         12    1    1    2    0    0  0.32451218258E+02 -0.43962416786E+01 -0.24098898045E+02  0.40659136665E+02  0.00000000000E+00 0. -1.
         11    1    3    3    0    0  0.11219930887E+00  0.52661471118E+00 -0.21815179699E+01  0.22469830113E+01  0.51100000000E-03 0. -1.
        -11    1    3    3    0    0 -0.23667081165E+02  0.97000280802E+01  0.74257681119E+01  0.26633875196E+02  0.51100000000E-03 0.  1.
        -12    1    3    3    0    0 -0.88963364022E+01 -0.58304011127E+01  0.18854647903E+02  0.21648005129E+02  0.00000000000E+00 0.  1.
</event>
<event>
 7    1  0.2432574E-011  0.5052887E+02  0.7816164E-02  0.1300439E+00
        -11   -1    0    0    0    0  0.00000000000E+00  0.00000000000E+00  0.45593999997E+02  0.45594000000E+02  0.51100000000E-03 0.  1.
         11   -1    0    0    0    0 -0.00000000000E+00 -0.00000000000E+00 -0.45593999997E+02  0.45594000000E+02  0.51100000000E-03 0. -1.
    9900012    2    1    2    0    0 -0.30100371730E+02 -0.26578244180E+02  0.63819397290E+01  0.50528873144E+02  0.30000040409E+02 0.  0.
         12    1    1    2    0    0  0.30100371730E+02  0.26578244180E+02 -0.63819397290E+01  0.40659126856E+02  0.00000000000E+00 0. -1.
         11    1    3    3    0    0 -0.44272705842E+01 -0.56231539711E+00 -0.65538771309E+01  0.79290749233E+01  0.51100000000E-03 0. -1.
        -11    1    3    3    0    0  0.26218314792E+01 -0.35106464065E+01  0.20881869838E+01  0.48537782847E+01  0.51100000000E-03 0.  1.
        -12    1    3    3    0    0 -0.28294932625E+02 -0.22505282376E+02  0.10847629876E+02  0.37746019936E+02  0.00000000000E+00 0.  1.
</event>
<event>
 7    1  0.2432574E-011  0.5052888E+02  0.7816164E-02  0.1300439E+00
        -11   -1    0    0    0    0  0.00000000000E+00  0.00000000000E+00  0.45593999997E+02  0.45594000000E+02  0.51100000000E-03 0. -1.
         11   -1    0    0    0    0 -0.00000000000E+00 -0.00000000000E+00 -0.45593999997E+02  0.45594000000E+02  0.51100000000E-03 0.  1.
    9900012    2    1    2    0    0 -0.87456478565E+01 -0.33647882167E+02 -0.21083121860E+02  0.50528876078E+02  0.30000049327E+02 0.  0.
         12    1    1    2    0    0  0.87456478565E+01  0.33647882167E+02  0.21083121860E+02  0.40659123922E+02  0.00000000000E+00 0. -1.
         11    1    3    3    0    0 -0.50615296583E+01  0.68029602922E+00  0.19109332907E+01  0.54528480147E+01  0.51100000000E-03 0. -1.
        -11    1    3    3    0    0  0.19717416084E+01  0.13369007928E+01 -0.24009910380E+00  0.23943091991E+01  0.51100000000E-03 0.  1.
        -12    1    3    3    0    0 -0.56558598066E+01 -0.35665078989E+02 -0.22753956047E+02  0.42681718864E+02  0.00000000000E+00 0.  1.
</event>
<event>
 7    1  0.2432574E-011  0.5052891E+02  0.7816164E-02  0.1300439E+00
        -11   -1    0    0    0    0  0.00000000000E+00  0.00000000000E+00  0.45593999997E+02  0.45594000000E+02  0.51100000000E-03 0.  1.
         11   -1    0    0    0    0 -0.00000000000E+00 -0.00000000000E+00 -0.45593999997E+02  0.45594000000E+02  0.51100000000E-03 0. -1.
    9900012    2    1    2    0    0  0.25474160699E+02  0.27882174054E+02  0.15060321582E+02  0.50528907789E+02  0.30000145715E+02 0.  0.
         12    1    1    2    0    0 -0.25474160699E+02 -0.27882174054E+02 -0.15060321582E+02  0.40659092211E+02  0.00000000000E+00 0. -1.
         11    1    3    3    0    0  0.62781270961E+01  0.12237897406E+02  0.94382287905E+01  0.16681162301E+02  0.51100000000E-03 0. -1.
        -11    1    3    3    0    0  0.21111426582E+02  0.10109907665E+02 -0.28163802862E+01  0.23576143948E+02  0.51100000000E-03 0.  1.
         12    1    3    3    0    0 -0.19153929786E+01  0.55343689827E+01  0.84384730774E+01  0.10271601539E+02  0.00000000000E+00 0. -1.
</event>
<event>
 7    1  0.2432574E-011  0.5052886E+02  0.7816164E-02  0.1300439E+00
        -11   -1    0    0    0    0  0.00000000000E+00  0.00000000000E+00  0.45593999997E+02  0.45594000000E+02  0.51100000000E-03 0. -1.
         11   -1    0    0    0    0 -0.00000000000E+00 -0.00000000000E+00 -0.45593999997E+02  0.45594000000E+02  0.51100000000E-03 0.  1.
    9900012    2    1    2    0    0  0.17503632187E+02  0.25476120371E+02 -0.26415063502E+02  0.50528862912E+02  0.30000009308E+02 0.  0.
         12    1    1    2    0    0 -0.17503632187E+02 -0.25476120371E+02  0.26415063502E+02  0.40659137088E+02  0.00000000000E+00 0. -1.
         11    1    3    3    0    0  0.13116858827E+02  0.15167876120E+02 -0.14455880382E+02  0.24720212971E+02  0.51100000000E-03 0. -1.
        -11    1    3    3    0    0  0.63457160706E+01  0.47537945109E+01 -0.16543262298E+02  0.18345195622E+02  0.51100000000E-03 0.  1.
         12    1    3    3    0    0 -0.19589427108E+01  0.55544497405E+01  0.45840791777E+01  0.74634543190E+01  0.00000000000E+00 0. -1.
</event>
<event>
 7    1  0.2432574E-011  0.5052886E+02  0.7816164E-02  0.1300439E+00
        -11   -1    0    0    0    0  0.00000000000E+00  0.00000000000E+00  0.45593999997E+02  0.45594000000E+02  0.51100000000E-03 0.  1.
         11   -1    0    0    0    0 -0.00000000000E+00 -0.00000000000E+00 -0.45593999997E+02  0.45594000000E+02  0.51100000000E-03 0. -1.
    9900012    2    1    2    0    0  0.19522521307E+02  0.94723329180E+01  0.34384758931E+02  0.50528861103E+02  0.30000003809E+02 0.  0.
         12    1    1    2    0    0 -0.19522521307E+02 -0.94723329180E+01 -0.34384758931E+02  0.40659138897E+02  0.00000000000E+00 0. -1.
         11    1    3    3    0    0 -0.46893447569E+01 -0.10484019899E+01  0.72264984137E+01  0.86782129823E+01  0.51100000000E-03 0. -1.
        -11    1    3    3    0    0  0.59357626670E+01 -0.49194272416E+01  0.46570161227E+01  0.90067664704E+01  0.51100000000E-03 0.  1.
         12    1    3    3    0    0  0.18276103397E+02  0.15440162149E+02  0.22501244395E+02  0.32843881651E+02  0.00000000000E+00 0. -1.
</event>
<event>
 7    1  0.2432574E-011  0.5052885E+02  0.7816164E-02  0.1300439E+00
        -11   -1    0    0    0    0  0.00000000000E+00  0.00000000000E+00  0.45593999997E+02  0.45594000000E+02  0.51100000000E-03 0. -1.
         11   -1    0    0    0    0 -0.00000000000E+00 -0.00000000000E+00 -0.45593999997E+02  0.45594000000E+02  0.51100000000E-03 0.  1.
    9900012    2    1    2    0    0 -0.24660774951E+02 -0.49474410646E+01 -0.31945818628E+02  0.50528851926E+02  0.29999975916E+02 0.  0.
         12    1    1    2    0    0  0.24660774951E+02  0.49474410646E+01  0.31945818628E+02  0.40659148074E+02  0.00000000000E+00 0. -1.
         11    1    3    3    0    0 -0.41371942972E+01  0.88557065174E+01  0.13571918938E+00  0.97753943416E+01  0.51100000000E-03 0.  1.
        -11    1    3    3    0    0 -0.73164145089E+01 -0.73112656826E+01 -0.14778124094E+02  0.18038222727E+02  0.51100000000E-03 0. -1.
        -12    1    3    3    0    0 -0.13207166145E+02 -0.64918818994E+01 -0.17303413723E+02  0.22715234858E+02  0.00000000000E+00 0.  1.
</event>
<event>
 7    1  0.2432574E-011  0.5052886E+02  0.7816164E-02  0.1300439E+00
        -11   -1    0    0    0    0  0.00000000000E+00  0.00000000000E+00  0.45593999997E+02  0.45594000000E+02  0.51100000000E-03 0.  1.
         11   -1    0    0    0    0 -0.00000000000E+00 -0.00000000000E+00 -0.45593999997E+02  0.45594000000E+02  0.51100000000E-03 0. -1.
    9900012    2    1    2    0    0  0.13118248136E+02 -0.36265613716E+02  0.12879528717E+02  0.50528862868E+02  0.30000009174E+02 0.  0.
         12    1    1    2    0    0 -0.13118248136E+02  0.36265613716E+02 -0.12879528717E+02  0.40659137132E+02  0.00000000000E+00 0. -1.
         11    1    3    3    0    0 -0.46496050516E+01 -0.50397915204E+01  0.66769634643E+00  0.68894226446E+01  0.51100000000E-03 0.  1.
        -11    1    3    3    0    0  0.56022742873E+01  0.21953351286E+01  0.37169861745E+01  0.70725497523E+01  0.51100000000E-03 0. -1.
        -12    1    3    3    0    0  0.12165578900E+02 -0.33421157324E+02  0.84948461965E+01  0.36566890471E+02  0.00000000000E+00 0.  1.
</event>
<event>
 7    1  0.2432574E-011  0.5052886E+02  0.7816164E-02  0.1300439E+00
        -11   -1    0    0    0    0  0.00000000000E+00  0.00000000000E+00  0.45593999997E+02  0.45594000000E+02  0.51100000000E-03 0.  1.
         11   -1    0    0    0    0 -0.00000000000E+00 -0.00000000000E+00 -0.45593999997E+02  0.45594000000E+02  0.51100000000E-03 0. -1.
    9900012    2    1    2    0    0 -0.25697436892E+00 -0.10417013901E+01  0.40644976674E+02  0.50528864416E+02  0.30000013878E+02 0.  0.
         12    1    1    2    0    0  0.25697436892E+00  0.10417013901E+01 -0.40644976674E+02  0.40659135584E+02  0.00000000000E+00 0. -1.
         11    1    3    3    0    0 -0.59165294985E+01 -0.68226841774E+01  0.94815079177E+01  0.13094018991E+02  0.51100000000E-03 0. -1.
        -11    1    3    3    0    0  0.99179738665E+01 -0.30923433869E+01  0.11857476200E+02  0.15764787830E+02  0.51100000000E-03 0.  1.
         12    1    3    3    0    0 -0.42584187368E+01  0.88733261742E+01  0.19305992557E+02  0.21670057594E+02  0.00000000000E+00 0. -1.
</event>
<event>
 7    1  0.2432574E-011  0.5052886E+02  0.7816164E-02  0.1300439E+00
        -11   -1    0    0    0    0  0.00000000000E+00  0.00000000000E+00  0.45593999997E+02  0.45594000000E+02  0.51100000000E-03 0.  1.
         11   -1    0    0    0    0 -0.00000000000E+00 -0.00000000000E+00 -0.45593999997E+02  0.45594000000E+02  0.51100000000E-03 0. -1.
    9900012    2    1    2    0    0  0.15231925388E+02  0.28482071351E+02  0.24696667587E+02  0.50528864134E+02  0.30000013020E+02 0.  0.
         12    1    1    2    0    0 -0.15231925388E+02 -0.28482071351E+02 -0.24696667587E+02  0.40659135866E+02  0.00000000000E+00 0. -1.
         11    1    3    3    0    0  0.13918791666E+02  0.16329379039E+02  0.10976708474E+02  0.24101234625E+02  0.51100000000E-03 0. -1.
        -11    1    3    3    0    0  0.39801757125E+01  0.10570279199E+02 -0.10426345198E+01  0.11342825400E+02  0.51100000000E-03 0.  1.
        -12    1    3    3    0    0 -0.26670419908E+01  0.15824131135E+01  0.14762593633E+02  0.15084804109E+02  0.00000000000E+00 0.  1.
</event>
<event>
 7    1  0.2435880E-011  0.5052884E+02  0.7816164E-02  0.1300439E+00
        -11   -1    0    0    0    0  0.00000000000E+00  0.00000000000E+00  0.45593999997E+02  0.45594000000E+02  0.51100000000E-03 0. -1.
         11   -1    0    0    0    0 -0.00000000000E+00 -0.00000000000E+00 -0.45593999997E+02  0.45594000000E+02  0.51100000000E-03 0.  1.
    9900012    2    1    2    0    0  0.18263303537E+02 -0.12269668501E+02 -0.34191722522E+02  0.50528844694E+02  0.29999953931E+02 0.  0.
         12    1    1    2    0    0 -0.18263303537E+02  0.12269668501E+02  0.34191722522E+02  0.40659155306E+02  0.00000000000E+00 0. -1.
         11    1    3    3    0    0  0.10334821603E+00 -0.11634730887E+01 -0.15502015121E+02  0.15545958432E+02  0.51100000000E-03 0. -1.
        -11    1    3    3    0    0  0.16116602323E+02 -0.12937288815E+02 -0.22328885246E+02  0.30425276152E+02  0.51100000000E-03 0.  1.
         12    1    3    3    0    0  0.20433529980E+01  0.18310934036E+01  0.36391778451E+01  0.45576101101E+01  0.00000000000E+00 0. -1.
</event>
<event>
 7    1  0.2432574E-011  0.5052886E+02  0.7816164E-02  0.1300439E+00
        -11   -1    0    0    0    0  0.00000000000E+00  0.00000000000E+00  0.45593999997E+02  0.45594000000E+02  0.51100000000E-03 0. -1.
         11   -1    0    0    0    0 -0.00000000000E+00 -0.00000000000E+00 -0.45593999997E+02  0.45594000000E+02  0.51100000000E-03 0.  1.
    9900012    2    1    2    0    0 -0.26330979450E+02  0.29227424236E+02 -0.10276317889E+02  0.50528861843E+02  0.30000006058E+02 0.  0.
         12    1    1    2    0    0  0.26330979450E+02 -0.29227424236E+02  0.10276317889E+02  0.40659138157E+02  0.00000000000E+00 0. -1.
         11    1    3    3    0    0 -0.25166827737E+02  0.20329791270E+02 -0.12106843755E+02  0.34543382830E+02  0.51100000000E-03 0. -1.
        -11    1    3    3    0    0 -0.23771930128E+01 -0.29831485257E+01  0.13044381240E+01  0.40313497525E+01  0.51100000000E-03 0.  1.
        -12    1    3    3    0    0  0.12130412990E+01  0.11880781492E+02  0.52608774191E+00  0.11954129260E+02  0.00000000000E+00 0.  1.
</event>
<event>
 7    1  0.2432574E-011  0.5052885E+02  0.7816164E-02  0.1300439E+00
        -11   -1    0    0    0    0  0.00000000000E+00  0.00000000000E+00  0.45593999997E+02  0.45594000000E+02  0.51100000000E-03 0. -1.
         11   -1    0    0    0    0 -0.00000000000E+00 -0.00000000000E+00 -0.45593999997E+02  0.45594000000E+02  0.51100000000E-03 0.  1.
    9900012    2    1    2    0    0 -0.26280481839E+02  0.27914354139E+02  0.13538510000E+02  0.50528854095E+02  0.29999982507E+02 0.  0.
         12    1    1    2    0    0  0.26280481839E+02 -0.27914354139E+02 -0.13538510000E+02  0.40659145905E+02  0.00000000000E+00 0. -1.
         11    1    3    3    0    0 -0.18557992303E+02  0.15280366154E+02  0.14339446405E+02  0.27991219901E+02  0.51100000000E-03 0. -1.
        -11    1    3    3    0    0 -0.87646316153E+01  0.14973467677E+02  0.33400991466E+01  0.17668609572E+02  0.51100000000E-03 0.  1.
         12    1    3    3    0    0  0.10421420791E+01 -0.23394796910E+01 -0.41410355510E+01  0.48690246223E+01  0.00000000000E+00 0. -1.
</event>
<event>
 7    1  0.2432574E-011  0.5052889E+02  0.7816164E-02  0.1300439E+00
        -11   -1    0    0    0    0  0.00000000000E+00  0.00000000000E+00  0.45593999997E+02  0.45594000000E+02  0.51100000000E-03 0.  1.
         11   -1    0    0    0    0 -0.00000000000E+00 -0.00000000000E+00 -0.45593999997E+02  0.45594000000E+02  0.51100000000E-03 0. -1.
    9900012    2    1    2    0    0 -0.27294683612E+02  0.18096716112E+00  0.30135212685E+02  0.50528886063E+02  0.30000079676E+02 0.  0.
         12    1    1    2    0    0  0.27294683612E+02 -0.18096716112E+00 -0.30135212685E+02  0.40659113937E+02  0.00000000000E+00 0. -1.
         11    1    3    3    0    0 -0.89312225873E+01  0.13372699656E+01 -0.36614892188E+01  0.97448207488E+01  0.51100000000E-03 0. -1.
        -11    1    3    3    0    0  0.22066658776E+01 -0.10531889484E+00  0.27698467489E+01  0.35429532368E+01  0.51100000000E-03 0.  1.
        -12    1    3    3    0    0 -0.20570126902E+02 -0.10509839097E+01  0.31026855155E+02  0.37241112077E+02  0.00000000000E+00 0.  1.
</event>
<event>
 7    1  0.2432574E-011  0.5052886E+02  0.7816164E-02  0.1300439E+00
        -11   -1    0    0    0    0  0.00000000000E+00  0.00000000000E+00  0.45593999997E+02  0.45594000000E+02  0.51100000000E-03 0. -1.
         11   -1    0    0    0    0 -0.00000000000E+00 -0.00000000000E+00 -0.45593999997E+02  0.45594000000E+02  0.51100000000E-03 0.  1.
    9900012    2    1    2    0    0 -0.28775837886E+01 -0.37202832205E+02 -0.16150368492E+02  0.50528860622E+02  0.30000002346E+02 0.  0.
         12    1    1    2    0    0  0.28775837886E+01  0.37202832205E+02  0.16150368492E+02  0.40659139378E+02  0.00000000000E+00 0. -1.
         11    1    3    3    0    0  0.98986464780E+00 -0.36719451956E+02 -0.22289078790E+02  0.42966277679E+02  0.51100000000E-03 0.  1.
        -11    1    3    3    0    0 -0.17476107027E+01  0.16638147427E+00  0.11372078880E+01  0.20916663225E+01  0.51100000000E-03 0. -1.
        -12    1    3    3    0    0 -0.21198377337E+01 -0.64976172297E+00  0.50015024099E+01  0.54709166207E+01  0.00000000000E+00 0.  1.
</event>
<event>
 7    1  0.2432574E-011  0.5052886E+02  0.7816164E-02  0.1300439E+00
        -11   -1    0    0    0    0  0.00000000000E+00  0.00000000000E+00  0.45593999997E+02  0.45594000000E+02  0.51100000000E-03 0.  1.
         11   -1    0    0    0    0 -0.00000000000E+00 -0.00000000000E+00 -0.45593999997E+02  0.45594000000E+02  0.51100000000E-03 0. -1.
    9900012    2    1    2    0    0 -0.40385222195E+02  0.32366504145E+01  0.34239331524E+01  0.50528863317E+02  0.30000010537E+02 0.  0.
         12    1    1    2    0    0  0.40385222195E+02 -0.32366504145E+01 -0.34239331524E+01  0.40659136683E+02  0.00000000000E+00 0. -1.
         11    1    3    3    0    0 -0.14946995814E+02 -0.32738532022E+01  0.51624084269E+01  0.16148723159E+02  0.51100000000E-03 0.  1.
        -11    1    3    3    0    0 -0.24113259385E+02 -0.26419887736E+01 -0.46202406659E+01  0.24693643047E+02  0.51100000000E-03 0. -1.
        -12    1    3    3    0    0 -0.13249669954E+01  0.91524923903E+01  0.28817653914E+01  0.96864971101E+01  0.00000000000E+00 0.  1.
</event>
<event>
 7    1  0.2432574E-011  0.5052885E+02  0.7816164E-02  0.1300439E+00
        -11   -1    0    0    0    0  0.00000000000E+00  0.00000000000E+00  0.45593999997E+02  0.45594000000E+02  0.51100000000E-03 0.  1.
         11   -1    0    0    0    0 -0.00000000000E+00 -0.00000000000E+00 -0.45593999997E+02  0.45594000000E+02  0.51100000000E-03 0. -1.
    9900012    2    1    2    0    0 -0.17930076366E+02  0.31351242242E+02  0.18675619844E+02  0.50528845986E+02  0.29999957858E+02 0.  0.
         12    1    1    2    0    0  0.17930076366E+02 -0.31351242242E+02 -0.18675619844E+02  0.40659154014E+02  0.00000000000E+00 0. -1.
         11    1    3    3    0    0 -0.14224756491E+02  0.43648486106E+01  0.71617229432E+01  0.16513203093E+02  0.51100000000E-03 0. -1.
        -11    1    3    3    0    0 -0.94644494625E+01  0.17394719103E+02  0.11353591366E+02  0.22826653138E+02  0.51100000000E-03 0.  1.
         12    1    3    3    0    0  0.57591295875E+01  0.95916745283E+01  0.16030553504E+00  0.11188989755E+02  0.00000000000E+00 0. -1.
</event>
<event>
 7    1  0.2432574E-011  0.5052886E+02  0.7816164E-02  0.1300439E+00
        -11   -1    0    0    0    0  0.00000000000E+00  0.00000000000E+00  0.45593999997E+02  0.45594000000E+02  0.51100000000E-03 0.  1.
         11   -1    0    0    0    0 -0.00000000000E+00 -0.00000000000E+00 -0.45593999997E+02  0.45594000000E+02  0.51100000000E-03 0. -1.
    9900012    2    1    2    0    0  0.21837177188E+01  0.20510779342E+02  0.35038615506E+02  0.50528864878E+02  0.30000015283E+02 0.  0.
         12    1    1    2    0    0 -0.21837177188E+01 -0.20510779342E+02 -0.35038615506E+02  0.40659135122E+02  0.00000000000E+00 0. -1.
         11    1    3    3    0    0 -0.59658131397E+01  0.43441082175E+01  0.50713928021E+01  0.89543971230E+01  0.51100000000E-03 0. -1.
        -11    1    3    3    0    0 -0.51825611425E+00  0.14185733897E+01  0.23086563717E+02  0.23135910710E+02  0.51100000000E-03 0.  1.
         12    1    3    3    0    0  0.86677869727E+01  0.14748097735E+02  0.68806589871E+01  0.18438557045E+02  0.00000000000E+00 0. -1.
</event>
<event>
 7    1  0.2432574E-011  0.5052886E+02  0.7816164E-02  0.1300439E+00
        -11   -1    0    0    0    0  0.00000000000E+00  0.00000000000E+00  0.45593999997E+02  0.45594000000E+02  0.51100000000E-03 0.  1.
         11   -1    0    0    0    0 -0.00000000000E+00 -0.00000000000E+00 -0.45593999997E+02  0.45594000000E+02  0.51100000000E-03 0. -1.
    9900012    2    1    2    0    0 -0.31696354300E+02 -0.91246662304E+01  0.23774925231E+02  0.50528862288E+02  0.30000007411E+02 0.  0.
         12    1    1    2    0    0  0.31696354300E+02  0.91246662304E+01 -0.23774925231E+02  0.40659137712E+02  0.00000000000E+00 0. -1.
         11    1    3    3    0    0 -0.19647153178E+02  0.29227251154E+01  0.44800532914E+01  0.20362313913E+02  0.51100000000E-03 0. -1.
        -11    1    3    3    0    0  0.18302113763E+01 -0.11572268958E+01 -0.16932166018E+01  0.27487870947E+01  0.51100000000E-03 0.  1.
        -12    1    3    3    0    0 -0.13879412498E+02 -0.10890164450E+02  0.20988088541E+02  0.27417761281E+02  0.00000000000E+00 0.  1.
</event>
<event>
 7    1  0.2432574E-011  0.5052884E+02  0.7816164E-02  0.1300439E+00
        -11   -1    0    0    0    0  0.00000000000E+00  0.00000000000E+00  0.45593999997E+02  0.45594000000E+02  0.51100000000E-03 0. -1.
         11   -1    0    0    0    0 -0.00000000000E+00 -0.00000000000E+00 -0.45593999997E+02  0.45594000000E+02  0.51100000000E-03 0.  1.
    9900012    2    1    2    0    0  0.62180247089E+01  0.35158465882E+02 -0.19452135544E+02  0.50528841970E+02  0.29999945653E+02 0.  0.
         12    1    1    2    0    0 -0.62180247089E+01 -0.35158465882E+02  0.19452135544E+02  0.40659158030E+02  0.00000000000E+00 0. -1.
         11    1    3    3    0    0  0.14605661415E+02  0.15839046194E+02 -0.15829125207E+02  0.26735031977E+02  0.51100000000E-03 0. -1.
        -11    1    3    3    0    0 -0.51189110809E+01  0.18877101837E+01 -0.25595016192E+01  0.60264209272E+01  0.51100000000E-03 0.  1.
        -12    1    3    3    0    0 -0.32687256248E+01  0.17431709504E+02 -0.10635087169E+01  0.17767389067E+02  0.00000000000E+00 0.  1.
</event>
<event>
 7    1  0.2432574E-011  0.5052886E+02  0.7816164E-02  0.1300439E+00
        -11   -1    0    0    0    0  0.00000000000E+00  0.00000000000E+00  0.45593999997E+02  0.45594000000E+02  0.51100000000E-03 0.  1.
         11   -1    0    0    0    0 -0.00000000000E+00 -0.00000000000E+00 -0.45593999997E+02  0.45594000000E+02  0.51100000000E-03 0. -1.
    9900012    2    1    2    0    0  0.39493892878E+02  0.56180060165E+01  0.78636033647E+01  0.50528858050E+02  0.29999994529E+02 0.  0.
         12    1    1    2    0    0 -0.39493892878E+02 -0.56180060165E+01 -0.78636033647E+01  0.40659141950E+02  0.00000000000E+00 0. -1.
         11    1    3    3    0    0  0.21439938947E+02  0.12291437649E+02 -0.17117897423E+01  0.24772578507E+02  0.51100000000E-03 0. -1.
        -11    1    3    3    0    0  0.11531489616E+02 -0.19102601505E+01 -0.17781371033E+01  0.11823117965E+02  0.51100000000E-03 0.  1.
         12    1    3    3    0    0  0.65224643153E+01 -0.47631714819E+01  0.11353530210E+02  0.13933161578E+02  0.00000000000E+00 0. -1.
</event>
<event>
 7    1  0.2432574E-011  0.5052886E+02  0.7816164E-02  0.1300439E+00
        -11   -1    0    0    0    0  0.00000000000E+00  0.00000000000E+00  0.45593999997E+02  0.45594000000E+02  0.51100000000E-03 0. -1.
         11   -1    0    0    0    0 -0.00000000000E+00 -0.00000000000E+00 -0.45593999997E+02  0.45594000000E+02  0.51100000000E-03 0.  1.
    9900012    2    1    2    0    0  0.37442253856E+02 -0.15552017427E+02  0.30623658942E+01  0.50528859518E+02  0.29999998991E+02 0.  0.
         12    1    1    2    0    0 -0.37442253856E+02  0.15552017427E+02 -0.30623658942E+01  0.40659140482E+02  0.00000000000E+00 0. -1.
         11    1    3    3    0    0  0.16820725697E+02 -0.14598241125E+02 -0.85499442770E+00  0.22288482960E+02  0.51100000000E-03 0.  1.
        -11    1    3    3    0    0 -0.27523875137E+01 -0.13579208041E+01  0.37715302664E+01  0.48625123904E+01  0.51100000000E-03 0. -1.
        -12    1    3    3    0    0  0.23373915673E+02  0.40414450212E+00  0.14583005554E+00  0.23377864168E+02  0.00000000000E+00 0.  1.
</event>
<event>
 7    1  0.2432574E-011  0.5052884E+02  0.7816164E-02  0.1300439E+00
        -11   -1    0    0    0    0  0.00000000000E+00  0.00000000000E+00  0.45593999997E+02  0.45594000000E+02  0.51100000000E-03 0. -1.
         11   -1    0    0    0    0 -0.00000000000E+00 -0.00000000000E+00 -0.45593999997E+02  0.45594000000E+02  0.51100000000E-03 0.  1.
    9900012    2    1    2    0    0 -0.15108651515E+01 -0.39554249095E+02 -0.92922396713E+01  0.50528842937E+02  0.29999948592E+02 0.  0.
         12    1    1    2    0    0  0.15108651515E+01  0.39554249095E+02  0.92922396713E+01  0.40659157063E+02  0.00000000000E+00 0. -1.
         11    1    3    3    0    0  0.75355456228E+01 -0.10139969018E+02 -0.37366224512E+01  0.13174436122E+02  0.51100000000E-03 0. -1.
        -11    1    3    3    0    0  0.37600566432E+01 -0.14340764081E+02 -0.89039396820E+01  0.17293804743E+02  0.51100000000E-03 0.  1.
         12    1    3    3    0    0 -0.12806467417E+02 -0.15073515996E+02  0.33483224620E+01  0.20060602072E+02  0.00000000000E+00 0. -1.
</event>
<event>
 7    1  0.2432574E-011  0.5052886E+02  0.7816164E-02  0.1300439E+00
        -11   -1    0    0    0    0  0.00000000000E+00  0.00000000000E+00  0.45593999997E+02  0.45594000000E+02  0.51100000000E-03 0. -1.
         11   -1    0    0    0    0 -0.00000000000E+00 -0.00000000000E+00 -0.45593999997E+02  0.45594000000E+02  0.51100000000E-03 0.  1.
    9900012    2    1    2    0    0 -0.16551424201E+02  0.34445363477E+02 -0.13882837090E+02  0.50528857439E+02  0.29999992673E+02 0.  0.
         12    1    1    2    0    0  0.16551424201E+02 -0.34445363477E+02  0.13882837090E+02  0.40659142561E+02  0.00000000000E+00 0. -1.
         11    1    3    3    0    0  0.21775986545E+01  0.14682088323E+02 -0.55706122347E+00  0.14853146834E+02  0.51100000000E-03 0. -1.
        -11    1    3    3    0    0 -0.56594774611E+01  0.16612440260E+02 -0.13641195251E+02  0.22228024308E+02  0.51100000000E-03 0.  1.
        -12    1    3    3    0    0 -0.13069545395E+02  0.31508348942E+01  0.31541938473E+00  0.13447686297E+02  0.00000000000E+00 0.  1.
</event>
<event>
 7    1  0.2432574E-011  0.5052886E+02  0.7816164E-02  0.1300439E+00
        -11   -1    0    0    0    0  0.00000000000E+00  0.00000000000E+00  0.45593999997E+02  0.45594000000E+02  0.51100000000E-03 0.  1.
         11   -1    0    0    0    0 -0.00000000000E+00 -0.00000000000E+00 -0.45593999997E+02  0.45594000000E+02  0.51100000000E-03 0. -1.
    9900012    2    1    2    0    0  0.92806663162E+01 -0.23190708447E+02  0.32081552558E+02  0.50528859084E+02  0.29999997671E+02 0.  0.
         12    1    1    2    0    0 -0.92806663162E+01  0.23190708447E+02 -0.32081552558E+02  0.40659140916E+02  0.00000000000E+00 0. -1.
         11    1    3    3    0    0  0.56938179579E+01 -0.45204589234E+01  0.17202936575E+01  0.74708448214E+01  0.51100000000E-03 0. -1.
        -11    1    3    3    0    0  0.54006607670E+01 -0.89746430907E+01  0.31436709267E+02  0.33135751766E+02  0.51100000000E-03 0.  1.
         12    1    3    3    0    0 -0.18138124087E+01 -0.96956064327E+01 -0.10754503670E+01  0.99222624962E+01  0.00000000000E+00 0. -1.
</event>
<event>
 7    1  0.2432574E-011  0.5052887E+02  0.7816164E-02  0.1300439E+00
        -11   -1    0    0    0    0  0.00000000000E+00  0.00000000000E+00  0.45593999997E+02  0.45594000000E+02  0.51100000000E-03 0.  1.
         11   -1    0    0    0    0 -0.00000000000E+00 -0.00000000000E+00 -0.45593999997E+02  0.45594000000E+02  0.51100000000E-03 0. -1.
    9900012    2    1    2    0    0  0.30153701448E+02  0.13324511306E+02  0.23798673622E+02  0.50528865986E+02  0.30000018652E+02 0.  0.
         12    1    1    2    0    0 -0.30153701448E+02 -0.13324511306E+02 -0.23798673622E+02  0.40659134014E+02  0.00000000000E+00 0. -1.
         11    1    3    3    0    0  0.13642988709E+02  0.13981719993E+02  0.11710636240E+01  0.19570156492E+02  0.51100000000E-03 0. -1.
        -11    1    3    3    0    0  0.93823643555E+01 -0.19825012980E+01  0.30205283154E+01  0.10053987461E+02  0.51100000000E-03 0.  1.
        -12    1    3    3    0    0  0.71283483834E+01  0.13252926120E+01  0.19607081682E+02  0.20904722033E+02  0.00000000000E+00 0.  1.
</event>
<event>
 7    1  0.2432574E-011  0.5052886E+02  0.7816164E-02  0.1300439E+00
        -11   -1    0    0    0    0  0.00000000000E+00  0.00000000000E+00  0.45593999997E+02  0.45594000000E+02  0.51100000000E-03 0.  1.
         11   -1    0    0    0    0 -0.00000000000E+00 -0.00000000000E+00 -0.45593999997E+02  0.45594000000E+02  0.51100000000E-03 0. -1.
    9900012    2    1    2    0    0 -0.20590594368E+02  0.10481890622E+02  0.33456286284E+02  0.50528859584E+02  0.29999999191E+02 0.  0.
         12    1    1    2    0    0  0.20590594368E+02 -0.10481890622E+02 -0.33456286284E+02  0.40659140416E+02  0.00000000000E+00 0. -1.
         11    1    3    3    0    0  0.12395774646E+01 -0.20853301670E+01 -0.19921459620E+01  0.31390762959E+01  0.51100000000E-03 0. -1.
        -11    1    3    3    0    0 -0.40306681000E+01  0.13032630615E+02  0.15765218702E+02  0.20847970335E+02  0.51100000000E-03 0.  1.
         12    1    3    3    0    0 -0.17799503732E+02 -0.46540982600E+00  0.19683213544E+02  0.26541812953E+02  0.00000000000E+00 0. -1.
</event>
<event>
 7    1  0.2432574E-011  0.5052884E+02  0.7816164E-02  0.1300439E+00
        -11   -1    0    0    0    0  0.00000000000E+00  0.00000000000E+00  0.45593999997E+02  0.45594000000E+02  0.51100000000E-03 0.  1.
         11   -1    0    0    0    0 -0.00000000000E+00 -0.00000000000E+00 -0.45593999997E+02  0.45594000000E+02  0.51100000000E-03 0. -1.
    9900012    2    1    2    0    0 -0.31787634778E+02 -0.24892954803E+02  0.48014626029E+01  0.50528843999E+02  0.29999951819E+02 0.  0.
         12    1    1    2    0    0  0.31787634778E+02  0.24892954803E+02 -0.48014626029E+01  0.40659156001E+02  0.00000000000E+00 0. -1.
         11    1    3    3    0    0 -0.20264304242E+02 -0.11125169387E+02 -0.10461428458E+01  0.23140999015E+02  0.51100000000E-03 0.  1.
        -11    1    3    3    0    0 -0.37491748978E+01 -0.15399789953E+02 -0.22919819752E+01  0.16014462984E+02  0.51100000000E-03 0. -1.
         12    1    3    3    0    0 -0.77741556381E+01  0.16320045366E+01  0.81395874239E+01  0.11373382000E+02  0.00000000000E+00 0. -1.
</event>
<event>
 7    1  0.2432574E-011  0.5052885E+02  0.7816164E-02  0.1300439E+00
        -11   -1    0    0    0    0  0.00000000000E+00  0.00000000000E+00  0.45593999997E+02  0.45594000000E+02  0.51100000000E-03 0. -1.
         11   -1    0    0    0    0 -0.00000000000E+00 -0.00000000000E+00 -0.45593999997E+02  0.45594000000E+02  0.51100000000E-03 0.  1.
    9900012    2    1    2    0    0  0.40480795296E+02  0.38040459788E+01 -0.34099132963E-01  0.50528847077E+02  0.29999961177E+02 0.  0.
         12    1    1    2    0    0 -0.40480795296E+02 -0.38040459788E+01  0.34099132963E-01  0.40659152923E+02  0.00000000000E+00 0. -1.
         11    1    3    3    0    0  0.21048943015E+02  0.11044914781E+02  0.61920601938E+01  0.24563993044E+02  0.51100000000E-03 0. -1.
        -11    1    3    3    0    0  0.33924539741E+01 -0.78707005049E+01  0.44448605352E+00  0.85822047585E+01  0.51100000000E-03 0.  1.
        -12    1    3    3    0    0  0.16039398307E+02  0.62983170311E+00 -0.66706453803E+01  0.17382649275E+02  0.00000000000E+00 0.  1.
</event>
<event>
 7    1  0.2432574E-011  0.5052877E+02  0.7816164E-02  0.1300439E+00
        -11   -1    0    0    0    0  0.00000000000E+00  0.00000000000E+00  0.45593999997E+02  0.45594000000E+02  0.51100000000E-03 0. -1.
         11   -1    0    0    0    0 -0.00000000000E+00 -0.00000000000E+00 -0.45593999997E+02  0.45594000000E+02  0.51100000000E-03 0.  1.
    9900012    2    1    2    0    0 -0.27728882933E+02  0.29436983857E+02 -0.42125931479E+01  0.50528770932E+02  0.29999729724E+02 0.  0.
         12    1    1    2    0    0  0.27728882933E+02 -0.29436983857E+02  0.42125931479E+01  0.40659229068E+02  0.00000000000E+00 0. -1.
         11    1    3    3    0    0 -0.40903964840E+01  0.19055895721E+02 -0.70061845415E+01  0.20710990493E+02  0.51100000000E-03 0. -1.
        -11    1    3    3    0    0  0.17294790101E+01 -0.70027787488E+00  0.89679678698E+00  0.20702008325E+01  0.51100000000E-03 0.  1.
        -12    1    3    3    0    0 -0.25367965460E+02  0.11081366011E+02  0.18967946066E+01  0.27747579606E+02  0.00000000000E+00 0.  1.
</event>
<event>
 7    1  0.2432574E-011  0.5052886E+02  0.7816164E-02  0.1300439E+00
        -11   -1    0    0    0    0  0.00000000000E+00  0.00000000000E+00  0.45593999997E+02  0.45594000000E+02  0.51100000000E-03 0.  1.
         11   -1    0    0    0    0 -0.00000000000E+00 -0.00000000000E+00 -0.45593999997E+02  0.45594000000E+02  0.51100000000E-03 0. -1.
    9900012    2    1    2    0    0  0.85336409229E+01 -0.34429266906E+02 -0.19873801951E+02  0.50528862637E+02  0.30000008473E+02 0.  0.
         12    1    1    2    0    0 -0.85336409229E+01  0.34429266906E+02  0.19873801951E+02  0.40659137363E+02  0.00000000000E+00 0. -1.
         11    1    3    3    0    0  0.15915673609E+01 -0.13054188581E+01  0.10069506544E+01  0.22915398624E+01  0.51100000000E-03 0.  1.
        -11    1    3    3    0    0  0.14006301287E+00 -0.58904554673E+01 -0.19237119212E+02  0.20119240520E+02  0.51100000000E-03 0. -1.
        -12    1    3    3    0    0  0.68020105491E+01 -0.27233392580E+02 -0.16436333934E+01  0.28118082255E+02  0.00000000000E+00 0.  1.
</event>
<event>
 7    1  0.2432574E-011  0.5052885E+02  0.7816164E-02  0.1300439E+00
        -11   -1    0    0    0    0  0.00000000000E+00  0.00000000000E+00  0.45593999997E+02  0.45594000000E+02  0.51100000000E-03 0. -1.
         11   -1    0    0    0    0 -0.00000000000E+00 -0.00000000000E+00 -0.45593999997E+02  0.45594000000E+02  0.51100000000E-03 0.  1.
    9900012    2    1    2    0    0 -0.19596746685E+02 -0.26727138024E+02  0.23554059199E+02  0.50528854752E+02  0.29999984503E+02 0.  0.
         12    1    1    2    0    0  0.19596746685E+02  0.26727138024E+02 -0.23554059199E+02  0.40659145248E+02  0.00000000000E+00 0. -1.
         11    1    3    3    0    0 -0.68299198077E+01 -0.16154253475E+02  0.29177341417E+01  0.17779788601E+02  0.51100000000E-03 0. -1.
        -11    1    3    3    0    0 -0.15182133782E+02 -0.98951003516E+01  0.79019505846E+01  0.19769952464E+02  0.51100000000E-03 0.  1.
         12    1    3    3    0    0  0.24153069050E+01 -0.67778419703E+00  0.12734374473E+02  0.12979113686E+02  0.00000000000E+00 0. -1.
</event>
<event>
 7    1  0.2432574E-011  0.5052887E+02  0.7816164E-02  0.1300439E+00
        -11   -1    0    0    0    0  0.00000000000E+00  0.00000000000E+00  0.45593999997E+02  0.45594000000E+02  0.51100000000E-03 0.  1.
         11   -1    0    0    0    0 -0.00000000000E+00 -0.00000000000E+00 -0.45593999997E+02  0.45594000000E+02  0.51100000000E-03 0. -1.
    9900012    2    1    2    0    0 -0.15398752267E+02 -0.18639623783E+02  0.32689571854E+02  0.50528865059E+02  0.30000015834E+02 0.  0.
         12    1    1    2    0    0  0.15398752267E+02  0.18639623783E+02 -0.32689571854E+02  0.40659134941E+02  0.00000000000E+00 0. -1.
         11    1    3    3    0    0  0.70616282683E+01 -0.11622768338E+02  0.10212248965E+02  0.17007215140E+02  0.51100000000E-03 0. -1.
        -11    1    3    3    0    0 -0.70656706233E+01  0.53535687500E+00  0.10251649854E+02  0.12462208205E+02  0.51100000000E-03 0.  1.
        -12    1    3    3    0    0 -0.15394709911E+02 -0.75522123200E+01  0.12225673035E+02  0.21059441715E+02  0.00000000000E+00 0.  1.
</event>
<event>
 7    1  0.2432574E-011  0.5052886E+02  0.7816164E-02  0.1300439E+00
        -11   -1    0    0    0    0  0.00000000000E+00  0.00000000000E+00  0.45593999997E+02  0.45594000000E+02  0.51100000000E-03 0.  1.
         11   -1    0    0    0    0 -0.00000000000E+00 -0.00000000000E+00 -0.45593999997E+02  0.45594000000E+02  0.51100000000E-03 0. -1.
    9900012    2    1    2    0    0 -0.28406692310E+02 -0.16996398464E+02  0.23608223512E+02  0.50528856549E+02  0.29999989967E+02 0.  0.
         12    1    1    2    0    0  0.28406692310E+02  0.16996398464E+02 -0.23608223512E+02  0.40659143451E+02  0.00000000000E+00 0. -1.
         11    1    3    3    0    0 -0.51871660009E+01 -0.45065345774E+00  0.13672917147E+02  0.14630736250E+02  0.51100000000E-03 0.  1.
        -11    1    3    3    0    0  0.27046922336E+01 -0.98937095722E+00 -0.18784648961E+01  0.34384365046E+01  0.51100000000E-03 0. -1.
         12    1    3    3    0    0 -0.25924218543E+02 -0.15556374049E+02  0.11813771261E+02  0.32459683795E+02  0.00000000000E+00 0. -1.
</event>
<event>
 7    1  0.2432574E-011  0.5052881E+02  0.7816164E-02  0.1300439E+00
        -11   -1    0    0    0    0  0.00000000000E+00  0.00000000000E+00  0.45593999997E+02  0.45594000000E+02  0.51100000000E-03 0. -1.
         11   -1    0    0    0    0 -0.00000000000E+00 -0.00000000000E+00 -0.45593999997E+02  0.45594000000E+02  0.51100000000E-03 0.  1.
    9900012    2    1    2    0    0  0.23366237543E+02 -0.25890951779E+02 -0.20900885534E+02  0.50528813374E+02  0.29999858731E+02 0.  0.
         12    1    1    2    0    0 -0.23366237543E+02  0.25890951779E+02  0.20900885534E+02  0.40659186626E+02  0.00000000000E+00 0. -1.
         11    1    3    3    0    0 -0.29562304933E+01  0.12626619387E+01 -0.32570894875E+01  0.45762698885E+01  0.51100000000E-03 0. -1.
        -11    1    3    3    0    0  0.12132103492E+02 -0.23415159409E+02 -0.55791704596E+01  0.26955236384E+02  0.51100000000E-03 0.  1.
         12    1    3    3    0    0  0.14190364545E+02 -0.37384543095E+01 -0.12064625587E+02  0.18997307101E+02  0.00000000000E+00 0. -1.
</event>
<event>
 7    1  0.2432574E-011  0.5052887E+02  0.7816164E-02  0.1300439E+00
        -11   -1    0    0    0    0  0.00000000000E+00  0.00000000000E+00  0.45593999997E+02  0.45594000000E+02  0.51100000000E-03 0.  1.
         11   -1    0    0    0    0 -0.00000000000E+00 -0.00000000000E+00 -0.45593999997E+02  0.45594000000E+02  0.51100000000E-03 0. -1.
    9900012    2    1    2    0    0  0.67412625325E+01  0.29787894384E+02  0.26840302658E+02  0.50528866720E+02  0.30000020881E+02 0.  0.
         12    1    1    2    0    0 -0.67412625325E+01 -0.29787894384E+02 -0.26840302658E+02  0.40659133280E+02  0.00000000000E+00 0. -1.
         11    1    3    3    0    0 -0.23890979871E+01  0.98204676210E+01 -0.18422381045E+01  0.10273422749E+02  0.51100000000E-03 0. -1.
        -11    1    3    3    0    0 -0.25939634736E+01  0.14914169947E+02  0.12425537177E+02  0.19584562443E+02  0.51100000000E-03 0.  1.
        -12    1    3    3    0    0  0.11724323993E+02  0.50532568162E+01  0.16257003585E+02  0.20670881527E+02  0.00000000000E+00 0.  1.
</event>
<event>
 7    1  0.2432574E-011  0.5052886E+02  0.7816164E-02  0.1300439E+00
        -11   -1    0    0    0    0  0.00000000000E+00  0.00000000000E+00  0.45593999997E+02  0.45594000000E+02  0.51100000000E-03 0.  1.
         11   -1    0    0    0    0 -0.00000000000E+00 -0.00000000000E+00 -0.45593999997E+02  0.45594000000E+02  0.51100000000E-03 0. -1.
    9900012    2    1    2    0    0  0.24139634814E+02 -0.12185470808E+02  0.30363762313E+02  0.50528859213E+02  0.29999998062E+02 0.  0.
         12    1    1    2    0    0 -0.24139634814E+02  0.12185470808E+02 -0.30363762313E+02  0.40659140787E+02  0.00000000000E+00 0. -1.
         11    1    3    3    0    0 -0.24961790649E+01 -0.50944715561E+01  0.45646795361E+01  0.72815417247E+01  0.51100000000E-03 0. -1.
        -11    1    3    3    0    0  0.17851052410E+02 -0.81460751289E+01  0.27942177738E+02  0.34143577861E+02  0.51100000000E-03 0.  1.
         12    1    3    3    0    0  0.87847614694E+01  0.10550758767E+01 -0.21430949613E+01  0.91037396268E+01  0.00000000000E+00 0. -1.
</event>
<event>
 7    1  0.2432574E-011  0.5052888E+02  0.7816164E-02  0.1300439E+00
        -11   -1    0    0    0    0  0.00000000000E+00  0.00000000000E+00  0.45593999997E+02  0.45594000000E+02  0.51100000000E-03 0.  1.
         11   -1    0    0    0    0 -0.00000000000E+00 -0.00000000000E+00 -0.45593999997E+02  0.45594000000E+02  0.51100000000E-03 0. -1.
    9900012    2    1    2    0    0  0.18430824032E+01  0.36988794305E+02  0.16780838031E+02  0.50528875785E+02  0.30000048436E+02 0.  0.
         12    1    1    2    0    0 -0.18430824032E+01 -0.36988794305E+02 -0.16780838031E+02  0.40659124215E+02  0.00000000000E+00 0. -1.
         11    1    3    3    0    0 -0.95032960829E+00 -0.86355741841E+00  0.26066001313E+01  0.29057223345E+01  0.51100000000E-03 0. -1.
        -11    1    3    3    0    0 -0.90148834384E+01  0.21069651356E+02  0.42301661241E+00  0.22921109812E+02  0.51100000000E-03 0.  1.
         12    1    3    3    0    0  0.11808295450E+02  0.16782700368E+02  0.13751221287E+02  0.24702043639E+02  0.00000000000E+00 0. -1.
</event>
<event>
 7    1  0.2432574E-011  0.5052886E+02  0.7816164E-02  0.1300439E+00
        -11   -1    0    0    0    0  0.00000000000E+00  0.00000000000E+00  0.45593999997E+02  0.45594000000E+02  0.51100000000E-03 0. -1.
         11   -1    0    0    0    0 -0.00000000000E+00 -0.00000000000E+00 -0.45593999997E+02  0.45594000000E+02  0.51100000000E-03 0.  1.
    9900012    2    1    2    0    0 -0.15396165904E+02  0.34802701630E+02 -0.14314171880E+02  0.50528862258E+02  0.30000007320E+02 0.  0.
         12    1    1    2    0    0  0.15396165904E+02 -0.34802701630E+02  0.14314171880E+02  0.40659137742E+02  0.00000000000E+00 0. -1.
         11    1    3    3    0    0 -0.77432103254E+01  0.19743994643E+02 -0.32327963332E+01  0.21453055796E+02  0.51100000000E-03 0. -1.
        -11    1    3    3    0    0 -0.74823187187E+01  0.10237045043E+02 -0.17146547882E+02  0.21325718959E+02  0.51100000000E-03 0.  1.
         12    1    3    3    0    0 -0.17063685966E+00  0.48216619448E+01  0.60651723349E+01  0.77500875027E+01  0.00000000000E+00 0. -1.
</event>
<event>
 7    1  0.2432574E-011  0.5052886E+02  0.7816164E-02  0.1300439E+00
        -11   -1    0    0    0    0  0.00000000000E+00  0.00000000000E+00  0.45593999997E+02  0.45594000000E+02  0.51100000000E-03 0.  1.
         11   -1    0    0    0    0 -0.00000000000E+00 -0.00000000000E+00 -0.45593999997E+02  0.45594000000E+02  0.51100000000E-03 0. -1.
    9900012    2    1    2    0    0 -0.45777078808E+01 -0.26149729813E+02 -0.30796131905E+02  0.50528861801E+02  0.30000005931E+02 0.  0.
         12    1    1    2    0    0  0.45777078808E+01  0.26149729813E+02  0.30796131905E+02  0.40659138199E+02  0.00000000000E+00 0. -1.
         11    1    3    3    0    0  0.66249276763E+01 -0.11509815196E+02 -0.95575652454E+01  0.16361924283E+02  0.51100000000E-03 0.  1.
        -11    1    3    3    0    0 -0.15000403383E+01 -0.55869587548E+01  0.30127657112E+01  0.65223451792E+01  0.51100000000E-03 0. -1.
         12    1    3    3    0    0 -0.97025952189E+01 -0.90529558622E+01 -0.24251332371E+02  0.27644592339E+02  0.00000000000E+00 0. -1.
</event>
<event>
 7    1  0.2432574E-011  0.5052886E+02  0.7816164E-02  0.1300439E+00
        -11   -1    0    0    0    0  0.00000000000E+00  0.00000000000E+00  0.45593999997E+02  0.45594000000E+02  0.51100000000E-03 0.  1.
         11   -1    0    0    0    0 -0.00000000000E+00 -0.00000000000E+00 -0.45593999997E+02  0.45594000000E+02  0.51100000000E-03 0. -1.
    9900012    2    1    2    0    0 -0.15135235695E+02 -0.28047347739E+01  0.37632752339E+02  0.50528856560E+02  0.29999989999E+02 0.  0.
         12    1    1    2    0    0  0.15135235695E+02  0.28047347739E+01 -0.37632752339E+02  0.40659143440E+02  0.00000000000E+00 0. -1.
         11    1    3    3    0    0 -0.58514797378E+01 -0.89516515918E+00  0.32669339246E+02  0.33201308149E+02  0.51100000000E-03 0.  1.
        -11    1    3    3    0    0  0.31797743328E+01 -0.81669637803E+00  0.33875255639E+01  0.47173390262E+01  0.51100000000E-03 0. -1.
         12    1    3    3    0    0 -0.12463530290E+02 -0.10928732366E+01  0.15758875287E+01  0.12610209384E+02  0.00000000000E+00 0. -1.
</event>
<event>
 7    1  0.2432574E-011  0.5052886E+02  0.7816164E-02  0.1300439E+00
        -11   -1    0    0    0    0  0.00000000000E+00  0.00000000000E+00  0.45593999997E+02  0.45594000000E+02  0.51100000000E-03 0. -1.
         11   -1    0    0    0    0 -0.00000000000E+00 -0.00000000000E+00 -0.45593999997E+02  0.45594000000E+02  0.51100000000E-03 0.  1.
    9900012    2    1    2    0    0  0.20373475863E+02 -0.31933097854E+02 -0.14777168951E+02  0.50528856139E+02  0.29999988720E+02 0.  0.
         12    1    1    2    0    0 -0.20373475863E+02  0.31933097854E+02  0.14777168951E+02  0.40659143861E+02  0.00000000000E+00 0. -1.
         11    1    3    3    0    0 -0.26952396655E+01 -0.50456840940E+01 -0.17898416362E+01  0.59938950754E+01  0.51100000000E-03 0. -1.
        -11    1    3    3    0    0  0.14961709601E+02 -0.19684785674E+02  0.33239008009E+01  0.24947782627E+02  0.51100000000E-03 0.  1.
        -12    1    3    3    0    0  0.81070059280E+01 -0.72026280860E+01 -0.16311228116E+02  0.19587178437E+02  0.00000000000E+00 0.  1.
</event>
<event>
 7    1  0.2432574E-011  0.5052888E+02  0.7816164E-02  0.1300439E+00
        -11   -1    0    0    0    0  0.00000000000E+00  0.00000000000E+00  0.45593999997E+02  0.45594000000E+02  0.51100000000E-03 0.  1.
         11   -1    0    0    0    0 -0.00000000000E+00 -0.00000000000E+00 -0.45593999997E+02  0.45594000000E+02  0.51100000000E-03 0. -1.
    9900012    2    1    2    0    0 -0.28276106750E+02 -0.78672362876E+01  0.28137738671E+02  0.50528881007E+02  0.30000064309E+02 0.  0.
         12    1    1    2    0    0  0.28276106750E+02  0.78672362876E+01 -0.28137738671E+02  0.40659118993E+02  0.00000000000E+00 0. -1.
         11    1    3    3    0    0 -0.11328696250E+02 -0.94910340151E+00  0.16461236407E+02  0.20005310803E+02  0.51100000000E-03 0. -1.
        -11    1    3    3    0    0 -0.21809388287E+02 -0.31555751847E+01  0.86800621081E+01  0.23684394665E+02  0.51100000000E-03 0.  1.
         12    1    3    3    0    0  0.48619777866E+01 -0.37625577014E+01  0.29964401554E+01  0.68391755394E+01  0.00000000000E+00 0. -1.
</event>
<event>
 7    1  0.2432574E-011  0.5052884E+02  0.7816164E-02  0.1300439E+00
        -11   -1    0    0    0    0  0.00000000000E+00  0.00000000000E+00  0.45593999997E+02  0.45594000000E+02  0.51100000000E-03 0. -1.
         11   -1    0    0    0    0 -0.00000000000E+00 -0.00000000000E+00 -0.45593999997E+02  0.45594000000E+02  0.51100000000E-03 0.  1.
    9900012    2    1    2    0    0  0.23943536290E+02 -0.19205257079E+02  0.26665196163E+02  0.50528837245E+02  0.29999931291E+02 0.  0.
         12    1    1    2    0    0 -0.23943536290E+02  0.19205257079E+02 -0.26665196163E+02  0.40659162755E+02  0.00000000000E+00 0. -1.
         11    1    3    3    0    0  0.51673974827E+01 -0.74060063461E+01  0.15539495512E+02  0.17972947665E+02  0.51100000000E-03 0. -1.
        -11    1    3    3    0    0  0.15354030982E+02 -0.17193338315E+01  0.14700988196E+02  0.21326542861E+02  0.51100000000E-03 0.  1.
        -12    1    3    3    0    0  0.34221078250E+01 -0.10079916901E+02 -0.35752875456E+01  0.11229346719E+02  0.00000000000E+00 0.  1.
</event>
<event>
 7    1  0.2432574E-011  0.5052886E+02  0.7816164E-02  0.1300439E+00
        -11   -1    0    0    0    0  0.00000000000E+00  0.00000000000E+00  0.45593999997E+02  0.45594000000E+02  0.51100000000E-03 0. -1.
         11   -1    0    0    0    0 -0.00000000000E+00 -0.00000000000E+00 -0.45593999997E+02  0.45594000000E+02  0.51100000000E-03 0.  1.
    9900012    2    1    2    0    0 -0.13172395354E+02  0.20331051162E+02 -0.32654280293E+02  0.50528860041E+02  0.30000000581E+02 0.  0.
         12    1    1    2    0    0  0.13172395354E+02 -0.20331051162E+02  0.32654280293E+02  0.40659139959E+02  0.00000000000E+00 0. -1.
         11    1    3    3    0    0 -0.11859641255E+02  0.21401106204E+02 -0.11805920463E+02  0.27166858407E+02  0.51100000000E-03 0. -1.
        -11    1    3    3    0    0  0.32680597776E+01  0.28637856812E+01 -0.67844235682E+01  0.80566672112E+01  0.51100000000E-03 0.  1.
        -12    1    3    3    0    0 -0.45808138769E+01 -0.39338407234E+01 -0.14063936262E+02  0.15305334423E+02  0.00000000000E+00 0.  1.
</event>
<event>
 7    1  0.2432574E-011  0.5052885E+02  0.7816164E-02  0.1300439E+00
        -11   -1    0    0    0    0  0.00000000000E+00  0.00000000000E+00  0.45593999997E+02  0.45594000000E+02  0.51100000000E-03 0.  1.
         11   -1    0    0    0    0 -0.00000000000E+00 -0.00000000000E+00 -0.45593999997E+02  0.45594000000E+02  0.51100000000E-03 0. -1.
    9900012    2    1    2    0    0  0.99096446224E+01  0.35814789204E+02  0.16500482777E+02  0.50528854483E+02  0.29999983688E+02 0.  0.
         12    1    1    2    0    0 -0.99096446224E+01 -0.35814789204E+02 -0.16500482777E+02  0.40659145517E+02  0.00000000000E+00 0. -1.
         11    1    3    3    0    0  0.17622929552E+02  0.26264048485E+02  0.96518333771E+01  0.33068501276E+02  0.51100000000E-03 0. -1.
        -11    1    3    3    0    0 -0.34476227768E+01  0.76540949214E+01  0.90111275967E+01  0.12315506189E+02  0.51100000000E-03 0.  1.
        -12    1    3    3    0    0 -0.42656621532E+01  0.18966457974E+01 -0.21624781969E+01  0.51448470179E+01  0.00000000000E+00 0.  1.
</event>
<event>
 7    1  0.2432574E-011  0.5052885E+02  0.7816164E-02  0.1300439E+00
        -11   -1    0    0    0    0  0.00000000000E+00  0.00000000000E+00  0.45593999997E+02  0.45594000000E+02  0.51100000000E-03 0.  1.
         11   -1    0    0    0    0 -0.00000000000E+00 -0.00000000000E+00 -0.45593999997E+02  0.45594000000E+02  0.51100000000E-03 0. -1.
    9900012    2    1    2    0    0 -0.23929653279E+02 -0.28698712684E+02  0.16028793804E+02  0.50528847935E+02  0.29999963784E+02 0.  0.
         12    1    1    2    0    0  0.23929653279E+02  0.28698712684E+02 -0.16028793804E+02  0.40659152065E+02  0.00000000000E+00 0. -1.
         11    1    3    3    0    0 -0.43354374370E+01  0.13039770954E+01  0.33746080283E-02  0.45272934171E+01  0.51100000000E-03 0. -1.
        -11    1    3    3    0    0 -0.24526885223E+02 -0.20540327492E+02  0.14836539339E+02  0.35264657266E+02  0.51100000000E-03 0.  1.
         12    1    3    3    0    0  0.49326693813E+01 -0.94623622881E+01  0.11888798568E+01  0.10736897252E+02  0.00000000000E+00 0. -1.
</event>
<event>
 7    1  0.2432574E-011  0.5052886E+02  0.7816164E-02  0.1300439E+00
        -11   -1    0    0    0    0  0.00000000000E+00  0.00000000000E+00  0.45593999997E+02  0.45594000000E+02  0.51100000000E-03 0.  1.
         11   -1    0    0    0    0 -0.00000000000E+00 -0.00000000000E+00 -0.45593999997E+02  0.45594000000E+02  0.51100000000E-03 0. -1.
    9900012    2    1    2    0    0  0.14166182975E+02  0.24451709359E+02  0.29233520498E+02  0.50528861404E+02  0.30000004724E+02 0.  0.
         12    1    1    2    0    0 -0.14166182975E+02 -0.24451709359E+02 -0.29233520498E+02  0.40659138596E+02  0.00000000000E+00 0. -1.
         11    1    3    3    0    0  0.75519898854E+01  0.75248945828E+01  0.11664892479E+00  0.10661622623E+02  0.51100000000E-03 0.  1.
        -11    1    3    3    0    0  0.37519789592E+00 -0.36815102377E+01  0.58909108618E-01  0.37010487210E+01  0.51100000000E-03 0. -1.
         12    1    3    3    0    0  0.62389951935E+01  0.20608325013E+02  0.29057962465E+02  0.36166190061E+02  0.00000000000E+00 0. -1.
</event>
<event>
 7    1  0.2432574E-011  0.5052887E+02  0.7816164E-02  0.1300439E+00
        -11   -1    0    0    0    0  0.00000000000E+00  0.00000000000E+00  0.45593999997E+02  0.45594000000E+02  0.51100000000E-03 0.  1.
         11   -1    0    0    0    0 -0.00000000000E+00 -0.00000000000E+00 -0.45593999997E+02  0.45594000000E+02  0.51100000000E-03 0. -1.
    9900012    2    1    2    0    0 -0.16336983784E+02  0.37005443952E+02  0.41067428746E+01  0.50528865009E+02  0.30000015680E+02 0.  0.
         12    1    1    2    0    0  0.16336983784E+02 -0.37005443952E+02 -0.41067428746E+01  0.40659134991E+02  0.00000000000E+00 0. -1.
         11    1    3    3    0    0 -0.90456931369E+01  0.18374786134E+02  0.46342783761E+01  0.20998425325E+02  0.51100000000E-03 0. -1.
        -11    1    3    3    0    0 -0.95808267607E+01  0.15427840341E+02  0.82225680904E+01  0.19935423880E+02  0.51100000000E-03 0.  1.
         12    1    3    3    0    0  0.22895361138E+01  0.32028174760E+01 -0.87501035919E+01  0.95950158035E+01  0.00000000000E+00 0. -1.
</event>
<event>
 7    1  0.2432574E-011  0.5052886E+02  0.7816164E-02  0.1300439E+00
        -11   -1    0    0    0    0  0.00000000000E+00  0.00000000000E+00  0.45593999997E+02  0.45594000000E+02  0.51100000000E-03 0.  1.
         11   -1    0    0    0    0 -0.00000000000E+00 -0.00000000000E+00 -0.45593999997E+02  0.45594000000E+02  0.51100000000E-03 0. -1.
    9900012    2    1    2    0    0  0.55700541947E+01 -0.17334019460E+02  0.36354807367E+02  0.50528858924E+02  0.29999997185E+02 0.  0.
         12    1    1    2    0    0 -0.55700541947E+01  0.17334019460E+02 -0.36354807367E+02  0.40659141076E+02  0.00000000000E+00 0. -1.
         11    1    3    3    0    0  0.21503388304E+01  0.12681726420E+00 -0.32901847624E+01  0.39326016498E+01  0.51100000000E-03 0. -1.
        -11    1    3    3    0    0  0.97526947573E+01 -0.68528310692E+01  0.16427424375E+02  0.20296221829E+02  0.51100000000E-03 0.  1.
         12    1    3    3    0    0 -0.63329793930E+01 -0.10608005655E+02  0.23217567755E+02  0.26300035445E+02  0.00000000000E+00 0. -1.
</event>
<event>
 7    1  0.2432574E-011  0.5052886E+02  0.7816164E-02  0.1300439E+00
        -11   -1    0    0    0    0  0.00000000000E+00  0.00000000000E+00  0.45593999997E+02  0.45594000000E+02  0.51100000000E-03 0.  1.
         11   -1    0    0    0    0 -0.00000000000E+00 -0.00000000000E+00 -0.45593999997E+02  0.45594000000E+02  0.51100000000E-03 0. -1.
    9900012    2    1    2    0    0  0.22428010892E+02 -0.10085676992E+02  0.32379457212E+02  0.50528858319E+02  0.29999995345E+02 0.  0.
         12    1    1    2    0    0 -0.22428010892E+02  0.10085676992E+02 -0.32379457212E+02  0.40659141681E+02  0.00000000000E+00 0. -1.
         11    1    3    3    0    0  0.61594299465E+01 -0.57926633310E+01  0.10917983218E+02  0.13809268031E+02  0.51100000000E-03 0. -1.
        -11    1    3    3    0    0  0.16968850999E+02  0.46396005154E+01  0.21473831126E+02  0.27759560887E+02  0.51100000000E-03 0.  1.
        -12    1    3    3    0    0 -0.70027005365E+00 -0.89326141760E+01 -0.12357132125E-01  0.89600294008E+01  0.00000000000E+00 0.  1.
</event>
<event>
 7    1  0.2432574E-011  0.5052886E+02  0.7816164E-02  0.1300439E+00
        -11   -1    0    0    0    0  0.00000000000E+00  0.00000000000E+00  0.45593999997E+02  0.45594000000E+02  0.51100000000E-03 0.  1.
         11   -1    0    0    0    0 -0.00000000000E+00 -0.00000000000E+00 -0.45593999997E+02  0.45594000000E+02  0.51100000000E-03 0. -1.
    9900012    2    1    2    0    0  0.98741938168E+01  0.15783798882E+02  0.36146059265E+02  0.50528860670E+02  0.30000002491E+02 0.  0.
         12    1    1    2    0    0 -0.98741938168E+01 -0.15783798882E+02 -0.36146059265E+02  0.40659139330E+02  0.00000000000E+00 0. -1.
         11    1    3    3    0    0  0.63913969466E+01  0.98740183348E+00  0.15561942721E+00  0.64690907380E+01  0.51100000000E-03 0. -1.
        -11    1    3    3    0    0  0.10678832256E+02  0.72670397018E+01  0.28314533613E+02  0.31121698835E+02  0.51100000000E-03 0.  1.
         12    1    3    3    0    0 -0.71960353858E+01  0.75293573470E+01  0.76759062249E+01  0.12938071097E+02  0.00000000000E+00 0. -1.
</event>
<event>
 7    1  0.2432574E-011  0.5052885E+02  0.7816164E-02  0.1300439E+00
        -11   -1    0    0    0    0  0.00000000000E+00  0.00000000000E+00  0.45593999997E+02  0.45594000000E+02  0.51100000000E-03 0.  1.
         11   -1    0    0    0    0 -0.00000000000E+00 -0.00000000000E+00 -0.45593999997E+02  0.45594000000E+02  0.51100000000E-03 0. -1.
    9900012    2    1    2    0    0  0.25134756951E+02  0.14382605572E+02  0.28540338562E+02  0.50528852502E+02  0.29999977666E+02 0.  0.
         12    1    1    2    0    0 -0.25134756951E+02 -0.14382605572E+02 -0.28540338562E+02  0.40659147498E+02  0.00000000000E+00 0. -1.
         11    1    3    3    0    0  0.35345307755E+01  0.59015690500E+01 -0.71652417822E-01  0.68794301642E+01  0.51100000000E-03 0. -1.
        -11    1    3    3    0    0  0.20413981167E+02 -0.95492085126E+00  0.10007340363E+02  0.22754985439E+02  0.51100000000E-03 0.  1.
        -12    1    3    3    0    0  0.11862450085E+01  0.94359573731E+01  0.18604650616E+02  0.20894436899E+02  0.00000000000E+00 0.  1.
</event>
<event>
 7    1  0.2432574E-011  0.5052885E+02  0.7816164E-02  0.1300439E+00
        -11   -1    0    0    0    0  0.00000000000E+00  0.00000000000E+00  0.45593999997E+02  0.45594000000E+02  0.51100000000E-03 0.  1.
         11   -1    0    0    0    0 -0.00000000000E+00 -0.00000000000E+00 -0.45593999997E+02  0.45594000000E+02  0.51100000000E-03 0. -1.
    9900012    2    1    2    0    0 -0.35058899692E+02  0.20513153182E+02  0.18028856528E+01  0.50528852225E+02  0.29999976825E+02 0.  0.
         12    1    1    2    0    0  0.35058899692E+02 -0.20513153182E+02 -0.18028856528E+01  0.40659147775E+02  0.00000000000E+00 0. -1.
         11    1    3    3    0    0  0.22860847843E+01  0.22718218137E+01 -0.33590541563E+01  0.46551695007E+01  0.51100000000E-03 0. -1.
        -11    1    3    3    0    0 -0.14157129336E+02  0.16856987896E+02 -0.28247289663E+00  0.22015043565E+02  0.51100000000E-03 0.  1.
        -12    1    3    3    0    0 -0.23187855140E+02  0.13843434721E+01  0.54444127057E+01  0.23858639160E+02  0.00000000000E+00 0.  1.
</event>
<event>
 7    1  0.2432574E-011  0.5052886E+02  0.7816164E-02  0.1300439E+00
        -11   -1    0    0    0    0  0.00000000000E+00  0.00000000000E+00  0.45593999997E+02  0.45594000000E+02  0.51100000000E-03 0.  1.
         11   -1    0    0    0    0 -0.00000000000E+00 -0.00000000000E+00 -0.45593999997E+02  0.45594000000E+02  0.51100000000E-03 0. -1.
    9900012    2    1    2    0    0 -0.39861617749E+02 -0.29479345589E+01 -0.74516279559E+01  0.50528860228E+02  0.30000001150E+02 0.  0.
         12    1    1    2    0    0  0.39861617749E+02  0.29479345589E+01  0.74516279559E+01  0.40659139772E+02  0.00000000000E+00 0. -1.
         11    1    3    3    0    0 -0.22961678653E+02  0.40301500432E-01  0.24752613306E+01  0.23094744634E+02  0.51100000000E-03 0. -1.
        -11    1    3    3    0    0 -0.80946709198E+01 -0.91008160992E+01  0.88168074201E+00  0.12211712090E+02  0.51100000000E-03 0.  1.
         12    1    3    3    0    0 -0.88052681763E+01  0.61125800399E+01 -0.10808570028E+02  0.15222403505E+02  0.00000000000E+00 0. -1.
</event>
<event>
 7    1  0.2432574E-011  0.5052887E+02  0.7816164E-02  0.1300439E+00
        -11   -1    0    0    0    0  0.00000000000E+00  0.00000000000E+00  0.45593999997E+02  0.45594000000E+02  0.51100000000E-03 0.  1.
         11   -1    0    0    0    0 -0.00000000000E+00 -0.00000000000E+00 -0.45593999997E+02  0.45594000000E+02  0.51100000000E-03 0. -1.
    9900012    2    1    2    0    0 -0.26864936932E+02 -0.19900158086E+02  0.23139232432E+02  0.50528865654E+02  0.30000017642E+02 0.  0.
         12    1    1    2    0    0  0.26864936932E+02  0.19900158086E+02 -0.23139232432E+02  0.40659134346E+02  0.00000000000E+00 0. -1.
         11    1    3    3    0    0 -0.28518695091E+01 -0.69296400931E+01 -0.42986344961E+01  0.86389426616E+01  0.51100000000E-03 0. -1.
        -11    1    3    3    0    0 -0.69985482918E+00  0.31915976446E+01  0.24132073790E+01  0.40619776492E+01  0.51100000000E-03 0.  1.
        -12    1    3    3    0    0 -0.23313212594E+02 -0.16162115637E+02  0.25024659549E+02  0.37827945343E+02  0.00000000000E+00 0.  1.
</event>
<event>
 7    1  0.2432574E-011  0.5052886E+02  0.7816164E-02  0.1300439E+00
        -11   -1    0    0    0    0  0.00000000000E+00  0.00000000000E+00  0.45593999997E+02  0.45594000000E+02  0.51100000000E-03 0.  1.
         11   -1    0    0    0    0 -0.00000000000E+00 -0.00000000000E+00 -0.45593999997E+02  0.45594000000E+02  0.51100000000E-03 0. -1.
    9900012    2    1    2    0    0  0.27827567820E+02  0.29622504390E+02  0.11398517535E+01  0.50528861308E+02  0.30000004432E+02 0.  0.
         12    1    1    2    0    0 -0.27827567820E+02 -0.29622504390E+02 -0.11398517535E+01  0.40659138692E+02  0.00000000000E+00 0. -1.
         11    1    3    3    0    0  0.16305553359E+02  0.19296038225E+02  0.70667737054E+01  0.26232564731E+02  0.51100000000E-03 0. -1.
        -11    1    3    3    0    0  0.52259181050E+01  0.14781291801E+02 -0.53354556839E+01  0.16560914678E+02  0.51100000000E-03 0.  1.
         12    1    3    3    0    0  0.62960963564E+01 -0.44548256359E+01 -0.59146626805E+00  0.77353818989E+01  0.00000000000E+00 0. -1.
</event>
<event>
 7    1  0.2432574E-011  0.5052885E+02  0.7816164E-02  0.1300439E+00
        -11   -1    0    0    0    0  0.00000000000E+00  0.00000000000E+00  0.45593999997E+02  0.45594000000E+02  0.51100000000E-03 0.  1.
         11   -1    0    0    0    0 -0.00000000000E+00 -0.00000000000E+00 -0.45593999997E+02  0.45594000000E+02  0.51100000000E-03 0. -1.
    9900012    2    1    2    0    0 -0.35344337089E+02 -0.19938543137E+02  0.25296358447E+01  0.50528846981E+02  0.29999960885E+02 0.  0.
         12    1    1    2    0    0  0.35344337089E+02  0.19938543137E+02 -0.25296358447E+01  0.40659153019E+02  0.00000000000E+00 0. -1.
         11    1    3    3    0    0 -0.66778712803E+01  0.12079092963E+01 -0.84750371474E+01  0.10857221772E+02  0.51100000000E-03 0. -1.
        -11    1    3    3    0    0 -0.96197470395E+01 -0.14938272503E+02  0.26411955778E+01  0.17962946106E+02  0.51100000000E-03 0.  1.
        -12    1    3    3    0    0 -0.19046718769E+02 -0.62081799299E+01  0.83634774143E+01  0.21708679103E+02  0.00000000000E+00 0.  1.
</event>
<event>
 7    1  0.2432574E-011  0.5052886E+02  0.7816164E-02  0.1300439E+00
        -11   -1    0    0    0    0  0.00000000000E+00  0.00000000000E+00  0.45593999997E+02  0.45594000000E+02  0.51100000000E-03 0.  1.
         11   -1    0    0    0    0 -0.00000000000E+00 -0.00000000000E+00 -0.45593999997E+02  0.45594000000E+02  0.51100000000E-03 0. -1.
    9900012    2    1    2    0    0 -0.39067117142E+02  0.87406986572E+01 -0.71081556864E+01  0.50528864100E+02  0.30000012920E+02 0.  0.
         12    1    1    2    0    0  0.39067117142E+02 -0.87406986572E+01  0.71081556864E+01  0.40659135900E+02  0.00000000000E+00 0. -1.
         11    1    3    3    0    0  0.44111482700E+00 -0.38950198481E-01 -0.36856866376E+01  0.37121941841E+01  0.51100000000E-03 0. -1.
        -11    1    3    3    0    0 -0.53241681370E+01  0.75449905009E+01  0.63912404959E+01  0.11230387498E+02  0.51100000000E-03 0.  1.
         12    1    3    3    0    0 -0.34184063832E+02  0.12346583548E+01 -0.98137095447E+01  0.35586282419E+02  0.00000000000E+00 0. -1.
</event>
<event>
 7    1  0.2432574E-011  0.5052886E+02  0.7816164E-02  0.1300439E+00
        -11   -1    0    0    0    0  0.00000000000E+00  0.00000000000E+00  0.45593999997E+02  0.45594000000E+02  0.51100000000E-03 0.  1.
         11   -1    0    0    0    0 -0.00000000000E+00 -0.00000000000E+00 -0.45593999997E+02  0.45594000000E+02  0.51100000000E-03 0. -1.
    9900012    2    1    2    0    0 -0.64667148690E+01  0.37063236206E+02  0.15416360717E+02  0.50528855186E+02  0.29999985824E+02 0.  0.
         12    1    1    2    0    0  0.64667148690E+01 -0.37063236206E+02 -0.15416360717E+02  0.40659144814E+02  0.00000000000E+00 0. -1.
         11    1    3    3    0    0  0.10335398621E+01  0.28598500850E+02  0.53248547566E+01  0.29108358490E+02  0.51100000000E-03 0. -1.
        -11    1    3    3    0    0  0.27817948280E+00  0.85196370006E+01  0.10627168206E+02  0.13623446802E+02  0.51100000000E-03 0.  1.
         12    1    3    3    0    0 -0.77784342138E+01 -0.54901645154E-01 -0.53566224524E+00  0.77970498941E+01  0.00000000000E+00 0. -1.
</event>
<event>
 7    1  0.2432574E-011  0.5052885E+02  0.7816164E-02  0.1300439E+00
        -11   -1    0    0    0    0  0.00000000000E+00  0.00000000000E+00  0.45593999997E+02  0.45594000000E+02  0.51100000000E-03 0.  1.
         11   -1    0    0    0    0 -0.00000000000E+00 -0.00000000000E+00 -0.45593999997E+02  0.45594000000E+02  0.51100000000E-03 0. -1.
    9900012    2    1    2    0    0 -0.43525153911E+01  0.15883766106E+02  0.37174298393E+02  0.50528845103E+02  0.29999955174E+02 0.  0.
         12    1    1    2    0    0  0.43525153911E+01 -0.15883766106E+02 -0.37174298393E+02  0.40659154897E+02  0.00000000000E+00 0. -1.
         11    1    3    3    0    0  0.47710797903E+01  0.59241874959E+01  0.14113608255E+02  0.16032876787E+02  0.51100000000E-03 0. -1.
        -11    1    3    3    0    0 -0.23167186160E+01 -0.10595589244E+01  0.21268512528E+02  0.21420538641E+02  0.51100000000E-03 0.  1.
         12    1    3    3    0    0 -0.68068765654E+01  0.11019137534E+02  0.17921776103E+01  0.13075429674E+02  0.00000000000E+00 0. -1.
</event>
<event>
 7    1  0.2432574E-011  0.5052884E+02  0.7816164E-02  0.1300439E+00
        -11   -1    0    0    0    0  0.00000000000E+00  0.00000000000E+00  0.45593999997E+02  0.45594000000E+02  0.51100000000E-03 0.  1.
         11   -1    0    0    0    0 -0.00000000000E+00 -0.00000000000E+00 -0.45593999997E+02  0.45594000000E+02  0.51100000000E-03 0. -1.
    9900012    2    1    2    0    0  0.20653421424E+02  0.34969856927E+02 -0.19269003697E+01  0.50528835534E+02  0.29999926090E+02 0.  0.
         12    1    1    2    0    0 -0.20653421424E+02 -0.34969856927E+02  0.19269003697E+01  0.40659164466E+02  0.00000000000E+00 0. -1.
         11    1    3    3    0    0  0.10111849313E+02  0.15247709423E+02  0.65893485021E+01  0.19446378920E+02  0.51100000000E-03 0. -1.
        -11    1    3    3    0    0  0.96026567744E+01  0.96932696781E+01  0.47303734216E+01  0.14441153941E+02  0.51100000000E-03 0.  1.
         12    1    3    3    0    0  0.93891533621E+00  0.10028877826E+02 -0.13246622294E+02  0.16641302673E+02  0.00000000000E+00 0. -1.
</event>
<event>
 7    1  0.2432574E-011  0.5052885E+02  0.7816164E-02  0.1300439E+00
        -11   -1    0    0    0    0  0.00000000000E+00  0.00000000000E+00  0.45593999997E+02  0.45594000000E+02  0.51100000000E-03 0. -1.
         11   -1    0    0    0    0 -0.00000000000E+00 -0.00000000000E+00 -0.45593999997E+02  0.45594000000E+02  0.51100000000E-03 0.  1.
    9900012    2    1    2    0    0  0.24208015382E+02 -0.17873307648E+02 -0.27343793238E+02  0.50528853874E+02  0.29999981836E+02 0.  0.
         12    1    1    2    0    0 -0.24208015382E+02  0.17873307648E+02  0.27343793238E+02  0.40659146126E+02  0.00000000000E+00 0. -1.
         11    1    3    3    0    0 -0.18837635794E+01 -0.10001893101E+01 -0.69242181241E+01  0.72452564324E+01  0.51100000000E-03 0. -1.
        -11    1    3    3    0    0  0.11549044566E+01 -0.12953812996E-01 -0.11960175998E+02  0.12015813841E+02  0.51100000000E-03 0.  1.
         12    1    3    3    0    0  0.24936874505E+02 -0.16860164525E+02 -0.84593991163E+01  0.31267783601E+02  0.00000000000E+00 0. -1.
</event>
<event>
 7    1  0.2432574E-011  0.5052889E+02  0.7816164E-02  0.1300439E+00
        -11   -1    0    0    0    0  0.00000000000E+00  0.00000000000E+00  0.45593999997E+02  0.45594000000E+02  0.51100000000E-03 0.  1.
         11   -1    0    0    0    0 -0.00000000000E+00 -0.00000000000E+00 -0.45593999997E+02  0.45594000000E+02  0.51100000000E-03 0. -1.
    9900012    2    1    2    0    0 -0.78965026559E+01 -0.21527145428E+01  0.39826802464E+02  0.50528891198E+02  0.30000095284E+02 0.  0.
         12    1    1    2    0    0  0.78965026559E+01  0.21527145428E+01 -0.39826802464E+02  0.40659108802E+02  0.00000000000E+00 0. -1.
         11    1    3    3    0    0 -0.92773780783E+01  0.18445912895E+01  0.39465118006E+01  0.10249254445E+02  0.51100000000E-03 0. -1.
        -11    1    3    3    0    0 -0.67658005210E+01 -0.41016935545E+01  0.27401252190E+02  0.28520669146E+02  0.51100000000E-03 0.  1.
         12    1    3    3    0    0  0.81466759434E+01  0.10438772212E+00  0.84790384736E+01  0.11758967606E+02  0.00000000000E+00 0. -1.
</event>
<event>
 7    1  0.2432574E-011  0.5052886E+02  0.7816164E-02  0.1300439E+00
        -11   -1    0    0    0    0  0.00000000000E+00  0.00000000000E+00  0.45593999997E+02  0.45594000000E+02  0.51100000000E-03 0.  1.
         11   -1    0    0    0    0 -0.00000000000E+00 -0.00000000000E+00 -0.45593999997E+02  0.45594000000E+02  0.51100000000E-03 0. -1.
    9900012    2    1    2    0    0  0.30625861986E+02  0.15511120238E+02  0.21785937391E+02  0.50528863986E+02  0.30000012572E+02 0.  0.
         12    1    1    2    0    0 -0.30625861986E+02 -0.15511120238E+02 -0.21785937391E+02  0.40659136014E+02  0.00000000000E+00 0. -1.
         11    1    3    3    0    0  0.95913812762E+01  0.12586838944E+02  0.37931206716E+00  0.15829307859E+02  0.51100000000E-03 0. -1.
        -11    1    3    3    0    0  0.46338868309E+01 -0.14193126375E+01 -0.24458887165E+01  0.54286027115E+01  0.51100000000E-03 0.  1.
         12    1    3    3    0    0  0.16400593879E+02  0.43435939308E+01  0.23852514040E+02  0.29270953415E+02  0.00000000000E+00 0. -1.
</event>
<event>
 7    1  0.2432574E-011  0.5052886E+02  0.7816164E-02  0.1300439E+00
        -11   -1    0    0    0    0  0.00000000000E+00  0.00000000000E+00  0.45593999997E+02  0.45594000000E+02  0.51100000000E-03 0. -1.
         11   -1    0    0    0    0 -0.00000000000E+00 -0.00000000000E+00 -0.45593999997E+02  0.45594000000E+02  0.51100000000E-03 0.  1.
    9900012    2    1    2    0    0 -0.15247191327E+01 -0.40623755633E+02 -0.74264966965E+00  0.50528858116E+02  0.29999994731E+02 0.  0.
         12    1    1    2    0    0  0.15247191327E+01  0.40623755633E+02  0.74264966965E+00  0.40659141884E+02  0.00000000000E+00 0. -1.
         11    1    3    3    0    0 -0.11141369771E+02 -0.21425884930E+02  0.21380067616E+01  0.24243962931E+02  0.51100000000E-03 0. -1.
        -11    1    3    3    0    0 -0.17943689750E+00 -0.14589028493E+02 -0.46541637913E+01  0.15314476512E+02  0.51100000000E-03 0.  1.
        -12    1    3    3    0    0  0.97960875359E+01 -0.46088422102E+01  0.17735073601E+01  0.10970418674E+02  0.00000000000E+00 0.  1.
</event>
<event>
 7    1  0.2432574E-011  0.5052886E+02  0.7816164E-02  0.1300439E+00
        -11   -1    0    0    0    0  0.00000000000E+00  0.00000000000E+00  0.45593999997E+02  0.45594000000E+02  0.51100000000E-03 0.  1.
         11   -1    0    0    0    0 -0.00000000000E+00 -0.00000000000E+00 -0.45593999997E+02  0.45594000000E+02  0.51100000000E-03 0. -1.
    9900012    2    1    2    0    0  0.47038254227E+01  0.39112057551E+02  0.10064129566E+02  0.50528859288E+02  0.29999998293E+02 0.  0.
         12    1    1    2    0    0 -0.47038254227E+01 -0.39112057551E+02 -0.10064129566E+02  0.40659140712E+02  0.00000000000E+00 0. -1.
         11    1    3    3    0    0 -0.54248643945E+01  0.63313804909E+01 -0.26634731942E+01  0.87526922908E+01  0.51100000000E-03 0. -1.
        -11    1    3    3    0    0 -0.54739133685E+01  0.13829329845E+02  0.20776262802E+01  0.15017677009E+02  0.51100000000E-03 0.  1.
         12    1    3    3    0    0  0.15602603186E+02  0.18951347215E+02  0.10649976480E+02  0.26758489988E+02  0.00000000000E+00 0. -1.
</event>
<event>
 7    1  0.2432574E-011  0.5052886E+02  0.7816164E-02  0.1300439E+00
        -11   -1    0    0    0    0  0.00000000000E+00  0.00000000000E+00  0.45593999997E+02  0.45594000000E+02  0.51100000000E-03 0.  1.
         11   -1    0    0    0    0 -0.00000000000E+00 -0.00000000000E+00 -0.45593999997E+02  0.45594000000E+02  0.51100000000E-03 0. -1.
    9900012    2    1    2    0    0  0.20598837053E+02 -0.34348836970E+02 -0.70007968129E+01  0.50528857791E+02  0.29999993742E+02 0.  0.
         12    1    1    2    0    0 -0.20598837053E+02  0.34348836970E+02  0.70007968129E+01  0.40659142209E+02  0.00000000000E+00 0. -1.
         11    1    3    3    0    0  0.32203440151E+01 -0.52739363178E+01  0.34755405564E+01  0.70897392251E+01  0.51100000000E-03 0.  1.
        -11    1    3    3    0    0 -0.60936135640E+01 -0.56033703661E+01 -0.53367863895E+01  0.98494251079E+01  0.51100000000E-03 0. -1.
         12    1    3    3    0    0  0.23472106602E+02 -0.23471530286E+02 -0.51395509798E+01  0.33589693458E+02  0.00000000000E+00 0. -1.
</event>
<event>
 7    1  0.2432574E-011  0.5052886E+02  0.7816164E-02  0.1300439E+00
        -11   -1    0    0    0    0  0.00000000000E+00  0.00000000000E+00  0.45593999997E+02  0.45594000000E+02  0.51100000000E-03 0. -1.
         11   -1    0    0    0    0 -0.00000000000E+00 -0.00000000000E+00 -0.45593999997E+02  0.45594000000E+02  0.51100000000E-03 0.  1.
    9900012    2    1    2    0    0  0.13292133753E+02 -0.99683951160E+01 -0.37109512653E+02  0.50528860188E+02  0.30000001028E+02 0.  0.
         12    1    1    2    0    0 -0.13292133753E+02  0.99683951160E+01  0.37109512653E+02  0.40659139812E+02  0.00000000000E+00 0. -1.
         11    1    3    3    0    0  0.13020220695E+01  0.62663522476E+00 -0.11034262990E+02  0.11128472185E+02  0.51100000000E-03 0. -1.
        -11    1    3    3    0    0  0.62962440208E+01  0.49393357307E+01  0.58469628483E+00  0.80238143197E+01  0.51100000000E-03 0.  1.
         12    1    3    3    0    0  0.56938676623E+01 -0.15534366071E+02 -0.26659945948E+02  0.31376573684E+02  0.00000000000E+00 0. -1.
</event>
<event>
 7    1  0.2432574E-011  0.5052886E+02  0.7816164E-02  0.1300439E+00
        -11   -1    0    0    0    0  0.00000000000E+00  0.00000000000E+00  0.45593999997E+02  0.45594000000E+02  0.51100000000E-03 0. -1.
         11   -1    0    0    0    0 -0.00000000000E+00 -0.00000000000E+00 -0.45593999997E+02  0.45594000000E+02  0.51100000000E-03 0.  1.
    9900012    2    1    2    0    0  0.29018840837E+02  0.26607404037E+02  0.10154744781E+02  0.50528856936E+02  0.29999991143E+02 0.  0.
         12    1    1    2    0    0 -0.29018840837E+02 -0.26607404037E+02 -0.10154744781E+02  0.40659143064E+02  0.00000000000E+00 0. -1.
         11    1    3    3    0    0  0.59147039766E+00 -0.18019922156E+01  0.74170105934E+01  0.76556553985E+01  0.51100000000E-03 0. -1.
        -11    1    3    3    0    0  0.16562014300E+01  0.54040543005E+01 -0.40178037252E+01  0.69346631566E+01  0.51100000000E-03 0.  1.
         12    1    3    3    0    0  0.26771169010E+02  0.23005341952E+02  0.67555379124E+01  0.35938538381E+02  0.00000000000E+00 0. -1.
</event>
<event>
 7    1  0.2432574E-011  0.5052886E+02  0.7816164E-02  0.1300439E+00
        -11   -1    0    0    0    0  0.00000000000E+00  0.00000000000E+00  0.45593999997E+02  0.45594000000E+02  0.51100000000E-03 0.  1.
         11   -1    0    0    0    0 -0.00000000000E+00 -0.00000000000E+00 -0.45593999997E+02  0.45594000000E+02  0.51100000000E-03 0. -1.
    9900012    2    1    2    0    0  0.31239107313E+02 -0.39823242453E+00  0.26021624882E+02  0.50528863557E+02  0.30000011268E+02 0.  0.
         12    1    1    2    0    0 -0.31239107313E+02  0.39823242453E+00 -0.26021624882E+02  0.40659136443E+02  0.00000000000E+00 0. -1.
         11    1    3    3    0    0  0.61832008046E+01  0.80304512951E+01  0.15084302710E+02  0.18172955420E+02  0.51100000000E-03 0. -1.
        -11    1    3    3    0    0 -0.16968777252E+00 -0.45345714488E+01 -0.12012011118E+00  0.45393348925E+01  0.51100000000E-03 0.  1.
         12    1    3    3    0    0  0.25225594281E+02 -0.38941122708E+01  0.11057442283E+02  0.27816573244E+02  0.00000000000E+00 0. -1.
</event>
<event>
 7    1  0.2432574E-011  0.5052886E+02  0.7816164E-02  0.1300439E+00
        -11   -1    0    0    0    0  0.00000000000E+00  0.00000000000E+00  0.45593999997E+02  0.45594000000E+02  0.51100000000E-03 0.  1.
         11   -1    0    0    0    0 -0.00000000000E+00 -0.00000000000E+00 -0.45593999997E+02  0.45594000000E+02  0.51100000000E-03 0. -1.
    9900012    2    1    2    0    0  0.25967617499E+02 -0.30344030273E+02  0.76215707005E+01  0.50528859924E+02  0.30000000226E+02 0.  0.
         12    1    1    2    0    0 -0.25967617499E+02  0.30344030273E+02 -0.76215707005E+01  0.40659140076E+02  0.00000000000E+00 0. -1.
         11    1    3    3    0    0  0.52375782988E+01  0.27076501098E+01  0.34686455722E-01  0.58961681595E+01  0.51100000000E-03 0.  1.
        -11    1    3    3    0    0 -0.20943990752E+01 -0.43230314645E+01 -0.38971201307E+01  0.61856813774E+01  0.51100000000E-03 0. -1.
        -12    1    3    3    0    0  0.22824438275E+02 -0.28728648918E+02  0.11484004375E+02  0.38447010387E+02  0.00000000000E+00 0.  1.
</event>
<event>
 7    1  0.2432574E-011  0.5052886E+02  0.7816164E-02  0.1300439E+00
        -11   -1    0    0    0    0  0.00000000000E+00  0.00000000000E+00  0.45593999997E+02  0.45594000000E+02  0.51100000000E-03 0.  1.
         11   -1    0    0    0    0 -0.00000000000E+00 -0.00000000000E+00 -0.45593999997E+02  0.45594000000E+02  0.51100000000E-03 0. -1.
    9900012    2    1    2    0    0 -0.17740983246E+02  0.35960967003E+02  0.67254701256E+01  0.50528861018E+02  0.30000003551E+02 0.  0.
         12    1    1    2    0    0  0.17740983246E+02 -0.35960967003E+02 -0.67254701256E+01  0.40659138982E+02  0.00000000000E+00 0. -1.
         11    1    3    3    0    0 -0.12544843297E+02  0.18338932177E+02 -0.42448489131E+01  0.22620969681E+02  0.51100000000E-03 0. -1.
        -11    1    3    3    0    0 -0.50831629904E+01  0.12488484448E+02 -0.23006098644E+01  0.13678216105E+02  0.51100000000E-03 0.  1.
        -12    1    3    3    0    0 -0.11297695896E+00  0.51335503777E+01  0.13270928903E+02  0.14229675233E+02  0.00000000000E+00 0.  1.
</event>
<event>
 7    1  0.2432574E-011  0.5052886E+02  0.7816164E-02  0.1300439E+00
        -11   -1    0    0    0    0  0.00000000000E+00  0.00000000000E+00  0.45593999997E+02  0.45594000000E+02  0.51100000000E-03 0.  1.
         11   -1    0    0    0    0 -0.00000000000E+00 -0.00000000000E+00 -0.45593999997E+02  0.45594000000E+02  0.51100000000E-03 0. -1.
    9900012    2    1    2    0    0 -0.36256091196E+02  0.18381300817E+02  0.88843297817E+00  0.50528859801E+02  0.29999999851E+02 0.  0.
         12    1    1    2    0    0  0.36256091196E+02 -0.18381300817E+02 -0.88843297817E+00  0.40659140199E+02  0.00000000000E+00 0. -1.
         11    1    3    3    0    0 -0.18220061364E+02  0.96735350310E+01  0.74661566625E+01  0.21938354808E+02  0.51100000000E-03 0. -1.
        -11    1    3    3    0    0 -0.13418305959E+02 -0.36699547227E+01 -0.18099136071E+00  0.13912306085E+02  0.51100000000E-03 0.  1.
         12    1    3    3    0    0 -0.46177238737E+01  0.12377720509E+02 -0.63967323236E+01  0.14678198908E+02  0.00000000000E+00 0. -1.
</event>
<event>
 7    1  0.2432574E-011  0.5052887E+02  0.7816164E-02  0.1300439E+00
        -11   -1    0    0    0    0  0.00000000000E+00  0.00000000000E+00  0.45593999997E+02  0.45594000000E+02  0.51100000000E-03 0.  1.
         11   -1    0    0    0    0 -0.00000000000E+00 -0.00000000000E+00 -0.45593999997E+02  0.45594000000E+02  0.51100000000E-03 0. -1.
    9900012    2    1    2    0    0 -0.18189466966E+02  0.22291747580E+02  0.28729531713E+02  0.50528871737E+02  0.30000036132E+02 0.  0.
         12    1    1    2    0    0  0.18189466966E+02 -0.22291747580E+02 -0.28729531713E+02  0.40659128263E+02  0.00000000000E+00 0. -1.
         11    1    3    3    0    0 -0.98241335047E+01  0.86698034105E+01  0.16993564575E+01  0.13212376884E+02  0.51100000000E-03 0. -1.
        -11    1    3    3    0    0 -0.14300917286E+02  0.88577880057E+01  0.12654244222E+02  0.21050095978E+02  0.51100000000E-03 0.  1.
         12    1    3    3    0    0  0.59355838252E+01  0.47641561638E+01  0.14375931033E+02  0.16266398875E+02  0.00000000000E+00 0. -1.
</event>
<event>
 7    1  0.2432574E-011  0.5052885E+02  0.7816164E-02  0.1300439E+00
        -11   -1    0    0    0    0  0.00000000000E+00  0.00000000000E+00  0.45593999997E+02  0.45594000000E+02  0.51100000000E-03 0.  1.
         11   -1    0    0    0    0 -0.00000000000E+00 -0.00000000000E+00 -0.45593999997E+02  0.45594000000E+02  0.51100000000E-03 0. -1.
    9900012    2    1    2    0    0 -0.33921738754E+02  0.20938820878E+02  0.80029690812E+01  0.50528854731E+02  0.29999984440E+02 0.  0.
         12    1    1    2    0    0  0.33921738754E+02 -0.20938820878E+02 -0.80029690812E+01  0.40659145269E+02  0.00000000000E+00 0. -1.
         11    1    3    3    0    0 -0.15418343954E+02  0.54870131954E+01  0.56723538865E+01  0.17320746028E+02  0.51100000000E-03 0. -1.
        -11    1    3    3    0    0 -0.13397541125E+02  0.18231398775E+02  0.90103373949E+01  0.24352909266E+02  0.51100000000E-03 0.  1.
         12    1    3    3    0    0 -0.51058536761E+01 -0.27795910925E+01 -0.66797222002E+01  0.88551994374E+01  0.00000000000E+00 0. -1.
</event>
<event>
 7    1  0.2432574E-011  0.5052885E+02  0.7816164E-02  0.1300439E+00
        -11   -1    0    0    0    0  0.00000000000E+00  0.00000000000E+00  0.45593999997E+02  0.45594000000E+02  0.51100000000E-03 0.  1.
         11   -1    0    0    0    0 -0.00000000000E+00 -0.00000000000E+00 -0.45593999997E+02  0.45594000000E+02  0.51100000000E-03 0. -1.
    9900012    2    1    2    0    0  0.35097002494E+02 -0.12393639959E+02  0.16363506594E+02  0.50528852891E+02  0.29999978849E+02 0.  0.
         12    1    1    2    0    0 -0.35097002494E+02  0.12393639959E+02 -0.16363506594E+02  0.40659147109E+02  0.00000000000E+00 0. -1.
         11    1    3    3    0    0  0.12879898305E+02 -0.13236404418E+02  0.15855117897E+01  0.18536667181E+02  0.51100000000E-03 0. -1.
        -11    1    3    3    0    0  0.14637695095E+02  0.35600030777E+01 -0.11178417380E+00  0.15064801212E+02  0.51100000000E-03 0.  1.
         12    1    3    3    0    0  0.75794090942E+01 -0.27172386189E+01  0.14889778978E+02  0.16927384498E+02  0.00000000000E+00 0. -1.
</event>
<event>
 7    1  0.2432574E-011  0.5052886E+02  0.7816164E-02  0.1300439E+00
        -11   -1    0    0    0    0  0.00000000000E+00  0.00000000000E+00  0.45593999997E+02  0.45594000000E+02  0.51100000000E-03 0.  1.
         11   -1    0    0    0    0 -0.00000000000E+00 -0.00000000000E+00 -0.45593999997E+02  0.45594000000E+02  0.51100000000E-03 0. -1.
    9900012    2    1    2    0    0 -0.24260755970E+02 -0.69889954538E+01  0.31870599060E+02  0.50528862994E+02  0.30000009556E+02 0.  0.
         12    1    1    2    0    0  0.24260755970E+02  0.69889954538E+01 -0.31870599060E+02  0.40659137006E+02  0.00000000000E+00 0. -1.
         11    1    3    3    0    0  0.44409224414E+01 -0.40974414689E+01  0.21418137936E+01  0.64107866373E+01  0.51100000000E-03 0. -1.
        -11    1    3    3    0    0 -0.78791085776E+01 -0.69627894152E+01  0.53431228760E+01  0.11794479673E+02  0.51100000000E-03 0.  1.
         12    1    3    3    0    0 -0.20822569833E+02  0.40712354303E+01  0.24385662390E+02  0.32323596684E+02  0.00000000000E+00 0. -1.
</event>
<event>
 7    1  0.2432574E-011  0.5052886E+02  0.7816164E-02  0.1300439E+00
        -11   -1    0    0    0    0  0.00000000000E+00  0.00000000000E+00  0.45593999997E+02  0.45594000000E+02  0.51100000000E-03 0. -1.
         11   -1    0    0    0    0 -0.00000000000E+00 -0.00000000000E+00 -0.45593999997E+02  0.45594000000E+02  0.51100000000E-03 0.  1.
    9900012    2    1    2    0    0  0.18571733638E+02  0.35909672020E+02 -0.43302918030E+01  0.50528864963E+02  0.30000015540E+02 0.  0.
         12    1    1    2    0    0 -0.18571733638E+02 -0.35909672020E+02  0.43302918030E+01  0.40659135037E+02  0.00000000000E+00 0. -1.
         11    1    3    3    0    0 -0.21396023839E+01 -0.89864282705E+00 -0.14372696190E+01  0.27296889037E+01  0.51100000000E-03 0. -1.
        -11    1    3    3    0    0  0.15541247155E+02  0.63692601678E+01 -0.76161094985E-01  0.16795941146E+02  0.51100000000E-03 0.  1.
        -12    1    3    3    0    0  0.51700888668E+01  0.30439054679E+02 -0.28168610890E+01  0.31003234913E+02  0.00000000000E+00 0.  1.
</event>
<event>
 7    1  0.2432574E-011  0.5052886E+02  0.7816164E-02  0.1300439E+00
        -11   -1    0    0    0    0  0.00000000000E+00  0.00000000000E+00  0.45593999997E+02  0.45594000000E+02  0.51100000000E-03 0. -1.
         11   -1    0    0    0    0 -0.00000000000E+00 -0.00000000000E+00 -0.45593999997E+02  0.45594000000E+02  0.51100000000E-03 0.  1.
    9900012    2    1    2    0    0  0.30718904362E+02  0.24074203946E+02 -0.11399456135E+02  0.50528856121E+02  0.29999988664E+02 0.  0.
         12    1    1    2    0    0 -0.30718904362E+02 -0.24074203946E+02  0.11399456135E+02  0.40659143879E+02  0.00000000000E+00 0. -1.
         11    1    3    3    0    0  0.11086330328E+01  0.30062250919E+01  0.30044168580E+01  0.43923771949E+01  0.51100000000E-03 0. -1.
        -11    1    3    3    0    0 -0.19747721532E+01  0.54706448081E+01 -0.86796024680E+01  0.10448118440E+02  0.51100000000E-03 0.  1.
        -12    1    3    3    0    0  0.31585043482E+02  0.15597334046E+02 -0.57242705251E+01  0.35688360486E+02  0.00000000000E+00 0.  1.
</event>
<event>
 7    1  0.2432574E-011  0.5052886E+02  0.7816164E-02  0.1300439E+00
        -11   -1    0    0    0    0  0.00000000000E+00  0.00000000000E+00  0.45593999997E+02  0.45594000000E+02  0.51100000000E-03 0.  1.
         11   -1    0    0    0    0 -0.00000000000E+00 -0.00000000000E+00 -0.45593999997E+02  0.45594000000E+02  0.51100000000E-03 0. -1.
    9900012    2    1    2    0    0 -0.10270492596E+02  0.37139813089E+02  0.12973701485E+02  0.50528860011E+02  0.30000000489E+02 0.  0.
         12    1    1    2    0    0  0.10270492596E+02 -0.37139813089E+02 -0.12973701485E+02  0.40659139989E+02  0.00000000000E+00 0. -1.
         11    1    3    3    0    0  0.15070399209E+00  0.56502191550E+01 -0.60796546105E+01  0.83011980242E+01  0.51100000000E-03 0. -1.
        -11    1    3    3    0    0 -0.15548056273E+02  0.23122826304E+02  0.13704605757E+02  0.31051946305E+02  0.51100000000E-03 0.  1.
         12    1    3    3    0    0  0.51268596849E+01  0.83667676303E+01  0.53487503383E+01  0.11175715681E+02  0.00000000000E+00 0. -1.
</event>
<event>
 7    1  0.2432574E-011  0.5052885E+02  0.7816164E-02  0.1300439E+00
        -11   -1    0    0    0    0  0.00000000000E+00  0.00000000000E+00  0.45593999997E+02  0.45594000000E+02  0.51100000000E-03 0.  1.
         11   -1    0    0    0    0 -0.00000000000E+00 -0.00000000000E+00 -0.45593999997E+02  0.45594000000E+02  0.51100000000E-03 0. -1.
    9900012    2    1    2    0    0 -0.78435163763E+01 -0.26256121684E+02  0.30037677546E+02  0.50528846696E+02  0.29999960016E+02 0.  0.
         12    1    1    2    0    0  0.78435163763E+01  0.26256121684E+02 -0.30037677546E+02  0.40659153304E+02  0.00000000000E+00 0. -1.
         11    1    3    3    0    0 -0.51987873474E+01 -0.14157008458E+02 -0.84541568686E+00  0.15105065584E+02  0.51100000000E-03 0. -1.
        -11    1    3    3    0    0  0.37889359910E+00 -0.11435575071E+02  0.13186642416E+02  0.17458621825E+02  0.51100000000E-03 0.  1.
        -12    1    3    3    0    0 -0.30236226280E+01 -0.66353815610E+00  0.17696450817E+02  0.17965159287E+02  0.00000000000E+00 0.  1.
</event>
<event>
 7    1  0.2432574E-011  0.5052889E+02  0.7816164E-02  0.1300439E+00
        -11   -1    0    0    0    0  0.00000000000E+00  0.00000000000E+00  0.45593999997E+02  0.45594000000E+02  0.51100000000E-03 0.  1.
         11   -1    0    0    0    0 -0.00000000000E+00 -0.00000000000E+00 -0.45593999997E+02  0.45594000000E+02  0.51100000000E-03 0. -1.
    9900012    2    1    2    0    0 -0.64775212204E+01  0.32683789499E+02  0.23301815890E+02  0.50528892767E+02  0.30000100054E+02 0.  0.
         12    1    1    2    0    0  0.64775212204E+01 -0.32683789499E+02 -0.23301815890E+02  0.40659107233E+02  0.00000000000E+00 0. -1.
         11    1    3    3    0    0 -0.30669665936E+01  0.24876835112E+01  0.67341775967E+01  0.78066639163E+01  0.51100000000E-03 0. -1.
        -11    1    3    3    0    0 -0.67729215876E+01  0.14753194502E+02  0.20776687714E+02  0.26366644979E+02  0.51100000000E-03 0.  1.
         12    1    3    3    0    0  0.33623669608E+01  0.15442911487E+02 -0.42090494200E+01  0.16355583872E+02  0.00000000000E+00 0. -1.
</event>
<event>
 7    1  0.2432574E-011  0.5052886E+02  0.7816164E-02  0.1300439E+00
        -11   -1    0    0    0    0  0.00000000000E+00  0.00000000000E+00  0.45593999997E+02  0.45594000000E+02  0.51100000000E-03 0.  1.
         11   -1    0    0    0    0 -0.00000000000E+00 -0.00000000000E+00 -0.45593999997E+02  0.45594000000E+02  0.51100000000E-03 0. -1.
    9900012    2    1    2    0    0  0.26564435302E+02 -0.23660255650E+02  0.19689805856E+02  0.50528863573E+02  0.30000011315E+02 0.  0.
         12    1    1    2    0    0 -0.26564435302E+02  0.23660255650E+02 -0.19689805856E+02  0.40659136427E+02  0.00000000000E+00 0. -1.
         11    1    3    3    0    0  0.34682810697E+00  0.27158760309E+01  0.81435247421E+01  0.85914648249E+01  0.51100000000E-03 0. -1.
        -11    1    3    3    0    0  0.10095442089E+02 -0.17544346339E+01 -0.20185556130E+00  0.10248743230E+02  0.51100000000E-03 0.  1.
         12    1    3    3    0    0  0.16122165106E+02 -0.24621697047E+02  0.11748136675E+02  0.31688655518E+02  0.00000000000E+00 0. -1.
</event>
<event>
 7    1  0.2432574E-011  0.5052886E+02  0.7816164E-02  0.1300439E+00
        -11   -1    0    0    0    0  0.00000000000E+00  0.00000000000E+00  0.45593999997E+02  0.45594000000E+02  0.51100000000E-03 0. -1.
         11   -1    0    0    0    0 -0.00000000000E+00 -0.00000000000E+00 -0.45593999997E+02  0.45594000000E+02  0.51100000000E-03 0.  1.
    9900012    2    1    2    0    0 -0.15386184528E+02 -0.47619428104E+01 -0.37333026918E+02  0.50528859914E+02  0.30000000195E+02 0.  0.
         12    1    1    2    0    0  0.15386184528E+02  0.47619428104E+01  0.37333026918E+02  0.40659140086E+02  0.00000000000E+00 0. -1.
         11    1    3    3    0    0 -0.39447637330E+01 -0.17225668623E+01 -0.31739601697E+01  0.53481231216E+01  0.51100000000E-03 0. -1.
        -11    1    3    3    0    0 -0.17625742524E+02 -0.95682784992E+01 -0.27278369254E+02  0.33857468635E+02  0.51100000000E-03 0.  1.
        -12    1    3    3    0    0  0.61843217285E+01  0.65289025510E+01 -0.68806974945E+01  0.11323268158E+02  0.00000000000E+00 0.  1.
</event>
<event>
 7    1  0.2432574E-011  0.5052885E+02  0.7816164E-02  0.1300439E+00
        -11   -1    0    0    0    0  0.00000000000E+00  0.00000000000E+00  0.45593999997E+02  0.45594000000E+02  0.51100000000E-03 0. -1.
         11   -1    0    0    0    0 -0.00000000000E+00 -0.00000000000E+00 -0.45593999997E+02  0.45594000000E+02  0.51100000000E-03 0.  1.
    9900012    2    1    2    0    0 -0.24571108504E+02  0.32216516352E+02  0.33945670470E+01  0.50528851160E+02  0.29999973585E+02 0.  0.
         12    1    1    2    0    0  0.24571108504E+02 -0.32216516352E+02 -0.33945670470E+01  0.40659148840E+02  0.00000000000E+00 0. -1.
         11    1    3    3    0    0 -0.17991987425E+01 -0.41619653012E+01 -0.19915797386E+01  0.49523187902E+01  0.51100000000E-03 0. -1.
        -11    1    3    3    0    0 -0.16907056316E+02  0.13938486436E+02  0.75452081732E+00  0.21924854831E+02  0.51100000000E-03 0.  1.
        -12    1    3    3    0    0 -0.58648534448E+01  0.22439995218E+02  0.46316259683E+01  0.23651677539E+02  0.00000000000E+00 0.  1.
</event>
<event>
 7    1  0.2432574E-011  0.5052886E+02  0.7816164E-02  0.1300439E+00
        -11   -1    0    0    0    0  0.00000000000E+00  0.00000000000E+00  0.45593999997E+02  0.45594000000E+02  0.51100000000E-03 0. -1.
         11   -1    0    0    0    0 -0.00000000000E+00 -0.00000000000E+00 -0.45593999997E+02  0.45594000000E+02  0.51100000000E-03 0.  1.
    9900012    2    1    2    0    0 -0.10971937213E+02 -0.39017731838E+02 -0.32246656256E+01  0.50528864835E+02  0.30000015151E+02 0.  0.
         12    1    1    2    0    0  0.10971937213E+02  0.39017731838E+02  0.32246656256E+01  0.40659135165E+02  0.00000000000E+00 0. -1.
         11    1    3    3    0    0 -0.61655700095E+01 -0.13904558517E+02  0.59776869677E+01  0.16342696926E+02  0.51100000000E-03 0. -1.
        -11    1    3    3    0    0  0.49206398690E+01 -0.12802601351E+02  0.33202259131E+01  0.14111810602E+02  0.51100000000E-03 0.  1.
        -12    1    3    3    0    0 -0.97270070728E+01 -0.12310571970E+02 -0.12522578506E+02  0.20074357307E+02  0.00000000000E+00 0.  1.
</event>
<event>
 7    1  0.2432574E-011  0.5052886E+02  0.7816164E-02  0.1300439E+00
        -11   -1    0    0    0    0  0.00000000000E+00  0.00000000000E+00  0.45593999997E+02  0.45594000000E+02  0.51100000000E-03 0.  1.
         11   -1    0    0    0    0 -0.00000000000E+00 -0.00000000000E+00 -0.45593999997E+02  0.45594000000E+02  0.51100000000E-03 0. -1.
    9900012    2    1    2    0    0 -0.21361294500E+02 -0.34595146100E+02 -0.19117768678E+00  0.50528860987E+02  0.30000003456E+02 0.  0.
         12    1    1    2    0    0  0.21361294500E+02  0.34595146100E+02  0.19117768678E+00  0.40659139013E+02  0.00000000000E+00 0. -1.
         11    1    3    3    0    0  0.23332416984E+01 -0.30280189128E+01 -0.78045864877E+01  0.86904824874E+01  0.51100000000E-03 0. -1.
        -11    1    3    3    0    0 -0.11421359174E+02 -0.20087053896E+02 -0.63931082554E+00  0.23115923045E+02  0.51100000000E-03 0.  1.
        -12    1    3    3    0    0 -0.12273177024E+02 -0.11480073291E+02  0.82527196264E+01  0.18722455455E+02  0.00000000000E+00 0.  1.
</event>
<event>
 7    1  0.2432574E-011  0.5052886E+02  0.7816164E-02  0.1300439E+00
        -11   -1    0    0    0    0  0.00000000000E+00  0.00000000000E+00  0.45593999997E+02  0.45594000000E+02  0.51100000000E-03 0. -1.
         11   -1    0    0    0    0 -0.00000000000E+00 -0.00000000000E+00 -0.45593999997E+02  0.45594000000E+02  0.51100000000E-03 0.  1.
    9900012    2    1    2    0    0 -0.24183205984E+02 -0.32377505483E+02 -0.44760426915E+01  0.50528864850E+02  0.30000015198E+02 0.  0.
         12    1    1    2    0    0  0.24183205984E+02  0.32377505483E+02  0.44760426915E+01  0.40659135150E+02  0.00000000000E+00 0. -1.
         11    1    3    3    0    0 -0.21635742624E+01  0.25444491411E+01 -0.24574737928E+01  0.41466194332E+01  0.51100000000E-03 0. -1.
        -11    1    3    3    0    0 -0.94926666209E+01 -0.11745714991E+02 -0.10850848295E+02  0.18596060045E+02  0.51100000000E-03 0.  1.
        -12    1    3    3    0    0 -0.12526965101E+02 -0.23176239633E+02  0.88322793964E+01  0.27786185371E+02  0.00000000000E+00 0.  1.
</event>
<event>
 7    1  0.2432574E-011  0.5052886E+02  0.7816164E-02  0.1300439E+00
        -11   -1    0    0    0    0  0.00000000000E+00  0.00000000000E+00  0.45593999997E+02  0.45594000000E+02  0.51100000000E-03 0.  1.
         11   -1    0    0    0    0 -0.00000000000E+00 -0.00000000000E+00 -0.45593999997E+02  0.45594000000E+02  0.51100000000E-03 0. -1.
    9900012    2    1    2    0    0  0.74514697387E+01 -0.28665599199E+01  0.39867585847E+02  0.50528856277E+02  0.29999989139E+02 0.  0.
         12    1    1    2    0    0 -0.74514697387E+01  0.28665599199E+01 -0.39867585847E+02  0.40659143723E+02  0.00000000000E+00 0. -1.
         11    1    3    3    0    0  0.39509802992E+01 -0.33031055727E+01 -0.30600556291E+01  0.59903833319E+01  0.51100000000E-03 0. -1.
        -11    1    3    3    0    0  0.51040894098E+01  0.27694155919E+01  0.10594062915E+02  0.12081206923E+02  0.51100000000E-03 0.  1.
        -12    1    3    3    0    0 -0.16035999702E+01 -0.23328699391E+01  0.32333578561E+02  0.32457266022E+02  0.00000000000E+00 0.  1.
</event>
<event>
 7    1  0.2432574E-011  0.5052882E+02  0.7816164E-02  0.1300439E+00
        -11   -1    0    0    0    0  0.00000000000E+00  0.00000000000E+00  0.45593999997E+02  0.45594000000E+02  0.51100000000E-03 0. -1.
         11   -1    0    0    0    0 -0.00000000000E+00 -0.00000000000E+00 -0.45593999997E+02  0.45594000000E+02  0.51100000000E-03 0.  1.
    9900012    2    1    2    0    0  0.11882485046E+02  0.24964373104E+02 -0.29811999943E+02  0.50528822488E+02  0.29999886434E+02 0.  0.
         12    1    1    2    0    0 -0.11882485046E+02 -0.24964373104E+02  0.29811999943E+02  0.40659177512E+02  0.00000000000E+00 0. -1.
         11    1    3    3    0    0  0.50908527598E+01  0.11036665330E+02 -0.21153996628E+02  0.24397055909E+02  0.51100000000E-03 0. -1.
        -11    1    3    3    0    0  0.94594123916E+01  0.11754493885E+02 -0.13463326727E+02  0.20221517651E+02  0.51100000000E-03 0.  1.
         12    1    3    3    0    0 -0.26677801050E+01  0.21732138892E+01  0.48053234118E+01  0.59102489278E+01  0.00000000000E+00 0. -1.
</event>
<event>
 7    1  0.2432574E-011  0.5052886E+02  0.7816164E-02  0.1300439E+00
        -11   -1    0    0    0    0  0.00000000000E+00  0.00000000000E+00  0.45593999997E+02  0.45594000000E+02  0.51100000000E-03 0.  1.
         11   -1    0    0    0    0 -0.00000000000E+00 -0.00000000000E+00 -0.45593999997E+02  0.45594000000E+02  0.51100000000E-03 0. -1.
    9900012    2    1    2    0    0  0.23158502182E+02  0.10246310794E+02  0.31809789343E+02  0.50528858270E+02  0.29999995197E+02 0.  0.
         12    1    1    2    0    0 -0.23158502182E+02 -0.10246310794E+02 -0.31809789343E+02  0.40659141730E+02  0.00000000000E+00 0. -1.
         11    1    3    3    0    0 -0.98433934017E-01  0.83848977195E+01  0.11136582046E+02  0.13940575990E+02  0.51100000000E-03 0. -1.
        -11    1    3    3    0    0  0.12676999951E+02  0.10345379599E+02  0.13691467308E+02  0.21335170121E+02  0.51100000000E-03 0.  1.
        -12    1    3    3    0    0  0.10579936165E+02 -0.84839665246E+01  0.69817399896E+01  0.15253112159E+02  0.00000000000E+00 0.  1.
</event>
<event>
 7    1  0.2432574E-011  0.5052885E+02  0.7816164E-02  0.1300439E+00
        -11   -1    0    0    0    0  0.00000000000E+00  0.00000000000E+00  0.45593999997E+02  0.45594000000E+02  0.51100000000E-03 0. -1.
         11   -1    0    0    0    0 -0.00000000000E+00 -0.00000000000E+00 -0.45593999997E+02  0.45594000000E+02  0.51100000000E-03 0.  1.
    9900012    2    1    2    0    0  0.70220650288E+00 -0.35881428041E+02 -0.19110125227E+02  0.50528845331E+02  0.29999955869E+02 0.  0.
         12    1    1    2    0    0 -0.70220650288E+00  0.35881428041E+02  0.19110125227E+02  0.40659154669E+02  0.00000000000E+00 0. -1.
         11    1    3    3    0    0  0.35495604661E+01 -0.17621807449E+01  0.16791094026E+01  0.43039597033E+01  0.51100000000E-03 0. -1.
        -11    1    3    3    0    0  0.89257167105E+01 -0.12534859793E+02 -0.13786773983E+02  0.20660742144E+02  0.51100000000E-03 0.  1.
        -12    1    3    3    0    0 -0.11773070674E+02 -0.21584387503E+02 -0.70024606462E+01  0.25564143484E+02  0.00000000000E+00 0.  1.
</event>
<event>
 7    1  0.2432574E-011  0.5052886E+02  0.7816164E-02  0.1300439E+00
        -11   -1    0    0    0    0  0.00000000000E+00  0.00000000000E+00  0.45593999997E+02  0.45594000000E+02  0.51100000000E-03 0. -1.
         11   -1    0    0    0    0 -0.00000000000E+00 -0.00000000000E+00 -0.45593999997E+02  0.45594000000E+02  0.51100000000E-03 0.  1.
    9900012    2    1    2    0    0 -0.31112191388E+02  0.12559292144E+02 -0.22966530094E+02  0.50528858633E+02  0.29999996300E+02 0.  0.
         12    1    1    2    0    0  0.31112191388E+02 -0.12559292144E+02  0.22966530094E+02  0.40659141367E+02  0.00000000000E+00 0. -1.
         11    1    3    3    0    0 -0.13434894135E+01 -0.53377307218E+01 -0.12614057699E+01  0.56468998433E+01  0.51100000000E-03 0. -1.
        -11    1    3    3    0    0  0.11701047292E+01  0.55629688924E+01 -0.13330443242E+01  0.58389019007E+01  0.51100000000E-03 0.  1.
        -12    1    3    3    0    0 -0.30938806704E+02  0.12334053974E+02 -0.20372080000E+02  0.39043056889E+02  0.00000000000E+00 0.  1.
</event>
<event>
 7    1  0.2432574E-011  0.5052887E+02  0.7816164E-02  0.1300439E+00
        -11   -1    0    0    0    0  0.00000000000E+00  0.00000000000E+00  0.45593999997E+02  0.45594000000E+02  0.51100000000E-03 0. -1.
         11   -1    0    0    0    0 -0.00000000000E+00 -0.00000000000E+00 -0.45593999997E+02  0.45594000000E+02  0.51100000000E-03 0.  1.
    9900012    2    1    2    0    0  0.11850381349E+02  0.32748553488E+02 -0.20982508864E+02  0.50528868530E+02  0.30000026383E+02 0.  0.
         12    1    1    2    0    0 -0.11850381349E+02 -0.32748553488E+02  0.20982508864E+02  0.40659131470E+02  0.00000000000E+00 0. -1.
         11    1    3    3    0    0  0.29961267602E+01  0.59918575242E+01 -0.12488228429E+02  0.14171625938E+02  0.51100000000E-03 0. -1.
        -11    1    3    3    0    0  0.27955034522E+01  0.27003369070E+02 -0.11626168130E+02  0.29532432449E+02  0.51100000000E-03 0.  1.
         12    1    3    3    0    0  0.60587511367E+01 -0.24667310590E+00  0.31318876956E+01  0.68248101435E+01  0.00000000000E+00 0. -1.
</event>
<event>
 7    1  0.2432574E-011  0.5052884E+02  0.7816164E-02  0.1300439E+00
        -11   -1    0    0    0    0  0.00000000000E+00  0.00000000000E+00  0.45593999997E+02  0.45594000000E+02  0.51100000000E-03 0.  1.
         11   -1    0    0    0    0 -0.00000000000E+00 -0.00000000000E+00 -0.45593999997E+02  0.45594000000E+02  0.51100000000E-03 0. -1.
    9900012    2    1    2    0    0 -0.34061851511E+01 -0.21785589903E+02  0.34160701618E+02  0.50528836706E+02  0.29999929652E+02 0.  0.
         12    1    1    2    0    0  0.34061851511E+01  0.21785589903E+02 -0.34160701618E+02  0.40659163294E+02  0.00000000000E+00 0. -1.
         11    1    3    3    0    0  0.28788782706E+01  0.41689955042E+01 -0.13892925800E+01  0.52534367556E+01  0.51100000000E-03 0. -1.
        -11    1    3    3    0    0 -0.55681927585E+01 -0.12871694584E+02  0.12623552402E+02  0.18869005473E+02  0.51100000000E-03 0.  1.
        -12    1    3    3    0    0 -0.71687066321E+00 -0.13082890823E+02  0.22926441797E+02  0.26406394477E+02  0.00000000000E+00 0.  1.
</event>
<event>
 7    1  0.2432574E-011  0.5052887E+02  0.7816164E-02  0.1300439E+00
        -11   -1    0    0    0    0  0.00000000000E+00  0.00000000000E+00  0.45593999997E+02  0.45594000000E+02  0.51100000000E-03 0.  1.
         11   -1    0    0    0    0 -0.00000000000E+00 -0.00000000000E+00 -0.45593999997E+02  0.45594000000E+02  0.51100000000E-03 0. -1.
    9900012    2    1    2    0    0 -0.42697106857E+01  0.13145927664E+01  0.40412945057E+02  0.50528871731E+02  0.30000036112E+02 0.  0.
         12    1    1    2    0    0  0.42697106857E+01 -0.13145927664E+01 -0.40412945057E+02  0.40659128269E+02  0.00000000000E+00 0. -1.
         11    1    3    3    0    0 -0.79206810451E-01 -0.18850971785E+01 -0.15062386687E+01  0.24142535657E+01  0.51100000000E-03 0. -1.
        -11    1    3    3    0    0 -0.11755289224E+02 -0.45717695123E+01  0.19735175349E+02  0.23421465529E+02  0.51100000000E-03 0.  1.
         12    1    3    3    0    0  0.75647853485E+01  0.77714594572E+01  0.22184008376E+02  0.24693152636E+02  0.00000000000E+00 0. -1.
</event>
<event>
 7    1  0.2432574E-011  0.5052886E+02  0.7816164E-02  0.1300439E+00
        -11   -1    0    0    0    0  0.00000000000E+00  0.00000000000E+00  0.45593999997E+02  0.45594000000E+02  0.51100000000E-03 0.  1.
         11   -1    0    0    0    0 -0.00000000000E+00 -0.00000000000E+00 -0.45593999997E+02  0.45594000000E+02  0.51100000000E-03 0. -1.
    9900012    2    1    2    0    0  0.25401229207E+02  0.71586013557E+01  0.30930528651E+02  0.50528860544E+02  0.30000002111E+02 0.  0.
         12    1    1    2    0    0 -0.25401229207E+02 -0.71586013557E+01 -0.30930528651E+02  0.40659139456E+02  0.00000000000E+00 0. -1.
         11    1    3    3    0    0  0.13656061835E+01  0.50273086606E+01 -0.24138620942E+01  0.57415540656E+01  0.51100000000E-03 0. -1.
        -11    1    3    3    0    0  0.18069872374E+02  0.93942420291E+01  0.20776022238E+02  0.29093215209E+02  0.51100000000E-03 0.  1.
         12    1    3    3    0    0  0.59657506503E+01 -0.72629493339E+01  0.12568368508E+02  0.15694091270E+02  0.00000000000E+00 0. -1.
</event>
<event>
 7    1  0.2432574E-011  0.5052886E+02  0.7816164E-02  0.1300439E+00
        -11   -1    0    0    0    0  0.00000000000E+00  0.00000000000E+00  0.45593999997E+02  0.45594000000E+02  0.51100000000E-03 0.  1.
         11   -1    0    0    0    0 -0.00000000000E+00 -0.00000000000E+00 -0.45593999997E+02  0.45594000000E+02  0.51100000000E-03 0. -1.
    9900012    2    1    2    0    0  0.23808013375E+02  0.39081392484E+01  0.32727216141E+02  0.50528859212E+02  0.29999998062E+02 0.  0.
         12    1    1    2    0    0 -0.23808013375E+02 -0.39081392484E+01 -0.32727216141E+02  0.40659140788E+02  0.00000000000E+00 0. -1.
         11    1    3    3    0    0  0.15188722410E+02  0.62185453715E+01  0.67891334623E+01  0.17761191638E+02  0.51100000000E-03 0. -1.
        -11    1    3    3    0    0  0.13902879302E+02 -0.26800976190E+01  0.22020872940E+02  0.26179988950E+02  0.51100000000E-03 0.  1.
         12    1    3    3    0    0 -0.52835883368E+01  0.36969149587E+00  0.39172097392E+01  0.65876786242E+01  0.00000000000E+00 0. -1.
</event>
<event>
 7    1  0.2432574E-011  0.5052883E+02  0.7816164E-02  0.1300439E+00
        -11   -1    0    0    0    0  0.00000000000E+00  0.00000000000E+00  0.45593999997E+02  0.45594000000E+02  0.51100000000E-03 0. -1.
         11   -1    0    0    0    0 -0.00000000000E+00 -0.00000000000E+00 -0.45593999997E+02  0.45594000000E+02  0.51100000000E-03 0.  1.
    9900012    2    1    2    0    0  0.24869837734E+01 -0.25998683119E+01 -0.40499679608E+02  0.50528825736E+02  0.29999896306E+02 0.  0.
         12    1    1    2    0    0 -0.24869837734E+01  0.25998683119E+01  0.40499679608E+02  0.40659174264E+02  0.00000000000E+00 0. -1.
         11    1    3    3    0    0  0.72188572053E+01  0.46880741888E+01 -0.11153224511E+02  0.14088447615E+02  0.51100000000E-03 0. -1.
        -11    1    3    3    0    0  0.57647931557E+01  0.27942378541E+01 -0.13387395567E+02  0.14841258897E+02  0.51100000000E-03 0.  1.
         12    1    3    3    0    0 -0.10496666588E+02 -0.10082180355E+02 -0.15959059530E+02  0.21599119224E+02  0.00000000000E+00 0. -1.
</event>
<event>
 7    1  0.2432574E-011  0.5052885E+02  0.7816164E-02  0.1300439E+00
        -11   -1    0    0    0    0  0.00000000000E+00  0.00000000000E+00  0.45593999997E+02  0.45594000000E+02  0.51100000000E-03 0.  1.
         11   -1    0    0    0    0 -0.00000000000E+00 -0.00000000000E+00 -0.45593999997E+02  0.45594000000E+02  0.51100000000E-03 0. -1.
    9900012    2    1    2    0    0 -0.89280637642E+01 -0.39620012780E+02  0.19262832618E+01  0.50528852168E+02  0.29999976649E+02 0.  0.
         12    1    1    2    0    0  0.89280637642E+01  0.39620012780E+02 -0.19262832618E+01  0.40659147832E+02  0.00000000000E+00 0. -1.
         11    1    3    3    0    0 -0.10475756507E+02 -0.27252564358E+02 -0.55723878949E+01  0.29723647919E+02  0.51100000000E-03 0. -1.
        -11    1    3    3    0    0 -0.37607128163E+01  0.12581662437E+01 -0.72044776879E+00  0.40305072177E+01  0.51100000000E-03 0.  1.
        -12    1    3    3    0    0  0.53084055588E+01 -0.13625614665E+02  0.82191189256E+01  0.16774697031E+02  0.00000000000E+00 0.  1.
</event>
<event>
 7    1  0.2432574E-011  0.5052885E+02  0.7816164E-02  0.1300439E+00
        -11   -1    0    0    0    0  0.00000000000E+00  0.00000000000E+00  0.45593999997E+02  0.45594000000E+02  0.51100000000E-03 0. -1.
         11   -1    0    0    0    0 -0.00000000000E+00 -0.00000000000E+00 -0.45593999997E+02  0.45594000000E+02  0.51100000000E-03 0.  1.
    9900012    2    1    2    0    0  0.39494451366E+02  0.31833480456E+01 -0.91225610395E+01  0.50528849573E+02  0.29999968764E+02 0.  0.
         12    1    1    2    0    0 -0.39494451366E+02 -0.31833480456E+01  0.91225610395E+01  0.40659150427E+02  0.00000000000E+00 0. -1.
         11    1    3    3    0    0  0.49986110842E+01  0.41961195595E+01 -0.13288139834E+01  0.66602761949E+01  0.51100000000E-03 0.  1.
        -11    1    3    3    0    0  0.76439588690E+01 -0.10614014874E+02  0.29263306015E+01  0.13403388750E+02  0.51100000000E-03 0. -1.
         12    1    3    3    0    0  0.26851881413E+02  0.96012433601E+01 -0.10720077658E+02  0.30465184629E+02  0.00000000000E+00 0. -1.
</event>
<event>
 7    1  0.2432574E-011  0.5052886E+02  0.7816164E-02  0.1300439E+00
        -11   -1    0    0    0    0  0.00000000000E+00  0.00000000000E+00  0.45593999997E+02  0.45594000000E+02  0.51100000000E-03 0.  1.
         11   -1    0    0    0    0 -0.00000000000E+00 -0.00000000000E+00 -0.45593999997E+02  0.45594000000E+02  0.51100000000E-03 0. -1.
    9900012    2    1    2    0    0  0.37552172113E+02 -0.12266141545E+02 -0.96198445507E+01  0.50528864889E+02  0.30000015317E+02 0.  0.
         12    1    1    2    0    0 -0.37552172113E+02  0.12266141545E+02  0.96198445507E+01  0.40659135111E+02  0.00000000000E+00 0. -1.
         11    1    3    3    0    0  0.21442673357E+02 -0.45369736006E+01 -0.55155225782E+01  0.22600738035E+02  0.51100000000E-03 0. -1.
        -11    1    3    3    0    0  0.20124293968E+02 -0.10466687511E+02 -0.41945590645E+01  0.23068009909E+02  0.51100000000E-03 0.  1.
        -12    1    3    3    0    0 -0.40147952127E+01  0.27375195671E+01  0.90237091924E-01  0.48601169444E+01  0.00000000000E+00 0.  1.
</event>
<event>
 7    1  0.2432574E-011  0.5052885E+02  0.7816164E-02  0.1300439E+00
        -11   -1    0    0    0    0  0.00000000000E+00  0.00000000000E+00  0.45593999997E+02  0.45594000000E+02  0.51100000000E-03 0.  1.
         11   -1    0    0    0    0 -0.00000000000E+00 -0.00000000000E+00 -0.45593999997E+02  0.45594000000E+02  0.51100000000E-03 0. -1.
    9900012    2    1    2    0    0 -0.25464235102E+02  0.20923869647E+02  0.23810302486E+02  0.50528854722E+02  0.29999984412E+02 0.  0.
         12    1    1    2    0    0  0.25464235102E+02 -0.20923869647E+02 -0.23810302486E+02  0.40659145278E+02  0.00000000000E+00 0. -1.
         11    1    3    3    0    0 -0.23654571842E+02  0.12536329236E+02  0.20728401337E+02  0.33858011489E+02  0.51100000000E-03 0. -1.
        -11    1    3    3    0    0 -0.14332950868E+01 -0.17177874225E+01  0.57857851458E+01  0.62032603080E+01  0.51100000000E-03 0.  1.
         12    1    3    3    0    0 -0.37636817317E+00  0.10105327833E+02 -0.27038839968E+01  0.10467582925E+02  0.00000000000E+00 0. -1.
</event>
<event>
 7    1  0.2432574E-011  0.5052887E+02  0.7816164E-02  0.1300439E+00
        -11   -1    0    0    0    0  0.00000000000E+00  0.00000000000E+00  0.45593999997E+02  0.45594000000E+02  0.51100000000E-03 0.  1.
         11   -1    0    0    0    0 -0.00000000000E+00 -0.00000000000E+00 -0.45593999997E+02  0.45594000000E+02  0.51100000000E-03 0. -1.
    9900012    2    1    2    0    0  0.24809049255E+01  0.29391148763E+02  0.27985183546E+02  0.50528868025E+02  0.30000024849E+02 0.  0.
         12    1    1    2    0    0 -0.24809049255E+01 -0.29391148763E+02 -0.27985183546E+02  0.40659131975E+02  0.00000000000E+00 0. -1.
         11    1    3    3    0    0 -0.36450548785E+01  0.22272615844E+01  0.18591903729E+02  0.19076320499E+02  0.51100000000E-03 0. -1.
        -11    1    3    3    0    0  0.42266793021E+01  0.45442195954E+01 -0.13314436573E+01  0.63472428761E+01  0.51100000000E-03 0.  1.
        -12    1    3    3    0    0  0.18992805019E+01  0.22619667583E+02  0.10724723474E+02  0.25105304650E+02  0.00000000000E+00 0.  1.
</event>
<event>
 7    1  0.2432574E-011  0.5052885E+02  0.7816164E-02  0.1300439E+00
        -11   -1    0    0    0    0  0.00000000000E+00  0.00000000000E+00  0.45593999997E+02  0.45594000000E+02  0.51100000000E-03 0.  1.
         11   -1    0    0    0    0 -0.00000000000E+00 -0.00000000000E+00 -0.45593999997E+02  0.45594000000E+02  0.51100000000E-03 0. -1.
    9900012    2    1    2    0    0 -0.46958176010E+01 -0.21538949661E+02  0.34164148497E+02  0.50528854682E+02  0.29999984291E+02 0.  0.
         12    1    1    2    0    0  0.46958176010E+01  0.21538949661E+02 -0.34164148497E+02  0.40659145318E+02  0.00000000000E+00 0. -1.
         11    1    3    3    0    0 -0.89283762983E+01 -0.42647674322E+01  0.29868054624E+01  0.10335625366E+02  0.51100000000E-03 0. -1.
        -11    1    3    3    0    0 -0.38149204156E+01 -0.16879269180E+02  0.21623933351E+02  0.27695809063E+02  0.51100000000E-03 0.  1.
         12    1    3    3    0    0  0.80474791128E+01 -0.39491304865E+00  0.95534096836E+01  0.12497420253E+02  0.00000000000E+00 0. -1.
</event>
<event>
 7    1  0.2466503E-011  0.5052886E+02  0.7816164E-02  0.1300439E+00
        -11   -1    0    0    0    0  0.00000000000E+00  0.00000000000E+00  0.45593999997E+02  0.45594000000E+02  0.51100000000E-03 0.  1.
         11   -1    0    0    0    0 -0.00000000000E+00 -0.00000000000E+00 -0.45593999997E+02  0.45594000000E+02  0.51100000000E-03 0. -1.
    9900012    2    1    2    0    0 -0.39113859121E+02  0.76242645859E+01 -0.80711001167E+01  0.50528855360E+02  0.29999986351E+02 0.  0.
         12    1    1    2    0    0  0.39113859121E+02 -0.76242645859E+01  0.80711001167E+01  0.40659144640E+02  0.00000000000E+00 0. -1.
         11    1    3    3    0    0 -0.10081090994E+02  0.10525769414E+02 -0.30607282715E+01  0.14892557712E+02  0.51100000000E-03 0.  1.
        -11    1    3    3    0    0 -0.26832428993E+02  0.43073169862E+01 -0.65253778605E+01  0.27948394976E+02  0.51100000000E-03 0. -1.
         12    1    3    3    0    0 -0.22003391339E+01 -0.72088218146E+01  0.15150060152E+01  0.76879026714E+01  0.00000000000E+00 0. -1.
</event>
<event>
 7    1  0.2432574E-011  0.5052886E+02  0.7816164E-02  0.1300439E+00
        -11   -1    0    0    0    0  0.00000000000E+00  0.00000000000E+00  0.45593999997E+02  0.45594000000E+02  0.51100000000E-03 0.  1.
         11   -1    0    0    0    0 -0.00000000000E+00 -0.00000000000E+00 -0.45593999997E+02  0.45594000000E+02  0.51100000000E-03 0. -1.
    9900012    2    1    2    0    0  0.28653547011E+02 -0.28752771233E+02  0.23276192203E+01  0.50528863005E+02  0.30000009591E+02 0.  0.
         12    1    1    2    0    0 -0.28653547011E+02  0.28752771233E+02 -0.23276192203E+01  0.40659136995E+02  0.00000000000E+00 0. -1.
         11    1    3    3    0    0  0.20129005458E+02 -0.11260508794E+02 -0.83660330308E+01  0.24535004136E+02  0.51100000000E-03 0. -1.
        -11    1    3    3    0    0  0.88560918155E+01 -0.12273306695E+02  0.12341815407E+01  0.15185111913E+02  0.51100000000E-03 0.  1.
         12    1    3    3    0    0 -0.33155026239E+00 -0.52189557443E+01  0.94594707103E+01  0.10808746956E+02  0.00000000000E+00 0. -1.
</event>
<event>
 7    1  0.2432574E-011  0.5052886E+02  0.7816164E-02  0.1300439E+00
        -11   -1    0    0    0    0  0.00000000000E+00  0.00000000000E+00  0.45593999997E+02  0.45594000000E+02  0.51100000000E-03 0.  1.
         11   -1    0    0    0    0 -0.00000000000E+00 -0.00000000000E+00 -0.45593999997E+02  0.45594000000E+02  0.51100000000E-03 0. -1.
    9900012    2    1    2    0    0 -0.89744291142E+01 -0.23095220315E+02  0.32237180777E+02  0.50528863219E+02  0.30000010241E+02 0.  0.
         12    1    1    2    0    0  0.89744291142E+01  0.23095220315E+02 -0.32237180777E+02  0.40659136781E+02  0.00000000000E+00 0. -1.
         11    1    3    3    0    0 -0.31398435036E+01 -0.51012689044E+01 -0.29497886561E+01  0.66770363965E+01  0.51100000000E-03 0. -1.
        -11    1    3    3    0    0 -0.10701362645E+02 -0.17003302930E+02  0.22166631350E+02  0.29916400497E+02  0.51100000000E-03 0.  1.
         12    1    3    3    0    0  0.48667770341E+01 -0.99064848020E+00  0.13020338082E+02  0.13935426326E+02  0.00000000000E+00 0. -1.
</event>
<event>
 7    1  0.2432574E-011  0.5052886E+02  0.7816164E-02  0.1300439E+00
        -11   -1    0    0    0    0  0.00000000000E+00  0.00000000000E+00  0.45593999997E+02  0.45594000000E+02  0.51100000000E-03 0.  1.
         11   -1    0    0    0    0 -0.00000000000E+00 -0.00000000000E+00 -0.45593999997E+02  0.45594000000E+02  0.51100000000E-03 0. -1.
    9900012    2    1    2    0    0  0.29072193585E+02 -0.28207388204E+02  0.35094834531E+01  0.50528860028E+02  0.30000000541E+02 0.  0.
         12    1    1    2    0    0 -0.29072193585E+02  0.28207388204E+02 -0.35094834531E+01  0.40659139972E+02  0.00000000000E+00 0. -1.
         11    1    3    3    0    0 -0.10577276685E+01  0.55631501747E-02  0.11984098920E+01  0.15984383941E+01  0.51100000000E-03 0. -1.
        -11    1    3    3    0    0  0.25756261759E+02 -0.11251227422E+02 -0.71782607473E+01  0.29008663636E+02  0.51100000000E-03 0.  1.
        -12    1    3    3    0    0  0.43736594948E+01 -0.16961723932E+02  0.94893343084E+01  0.19921757998E+02  0.00000000000E+00 0.  1.
</event>
<event>
 7    1  0.2432574E-011  0.5052885E+02  0.7816164E-02  0.1300439E+00
        -11   -1    0    0    0    0  0.00000000000E+00  0.00000000000E+00  0.45593999997E+02  0.45594000000E+02  0.51100000000E-03 0.  1.
         11   -1    0    0    0    0 -0.00000000000E+00 -0.00000000000E+00 -0.45593999997E+02  0.45594000000E+02  0.51100000000E-03 0. -1.
    9900012    2    1    2    0    0  0.25699738021E+02  0.89304120238E+01  0.30214853184E+02  0.50528854090E+02  0.29999982491E+02 0.  0.
         12    1    1    2    0    0 -0.25699738021E+02 -0.89304120238E+01 -0.30214853184E+02  0.40659145910E+02  0.00000000000E+00 0. -1.
         11    1    3    3    0    0  0.87627774718E+01  0.37576365966E+01  0.24403684454E+00  0.95375917324E+01  0.51100000000E-03 0. -1.
        -11    1    3    3    0    0  0.34616139136E+01  0.11773015345E+02  0.90581910585E+01  0.15252458383E+02  0.51100000000E-03 0.  1.
        -12    1    3    3    0    0  0.13475346636E+02 -0.66002399178E+01  0.20912625280E+02  0.25738803975E+02  0.00000000000E+00 0.  1.
</event>
<event>
 7    1  0.2432574E-011  0.5052885E+02  0.7816164E-02  0.1300439E+00
        -11   -1    0    0    0    0  0.00000000000E+00  0.00000000000E+00  0.45593999997E+02  0.45594000000E+02  0.51100000000E-03 0. -1.
         11   -1    0    0    0    0 -0.00000000000E+00 -0.00000000000E+00 -0.45593999997E+02  0.45594000000E+02  0.51100000000E-03 0.  1.
    9900012    2    1    2    0    0  0.33555458152E+02  0.87699261881E+01 -0.21219951187E+02  0.50528847211E+02  0.29999961583E+02 0.  0.
         12    1    1    2    0    0 -0.33555458152E+02 -0.87699261881E+01  0.21219951187E+02  0.40659152789E+02  0.00000000000E+00 0. -1.
         11    1    3    3    0    0  0.21158009244E+02 -0.31105508841E+01 -0.14435246706E+02  0.25801419142E+02  0.51100000000E-03 0. -1.
        -11    1    3    3    0    0  0.14637288778E+02  0.82690968845E+01 -0.10661818598E+00  0.16811887276E+02  0.51100000000E-03 0.  1.
         12    1    3    3    0    0 -0.22398398708E+01  0.36113801877E+01 -0.66780862943E+01  0.79155407940E+01  0.00000000000E+00 0. -1.
</event>
<event>
 7    1  0.2432574E-011  0.5052885E+02  0.7816164E-02  0.1300439E+00
        -11   -1    0    0    0    0  0.00000000000E+00  0.00000000000E+00  0.45593999997E+02  0.45594000000E+02  0.51100000000E-03 0.  1.
         11   -1    0    0    0    0 -0.00000000000E+00 -0.00000000000E+00 -0.45593999997E+02  0.45594000000E+02  0.51100000000E-03 0. -1.
    9900012    2    1    2    0    0  0.18577762790E+02  0.25963885410E+02  0.25177569308E+02  0.50528848359E+02  0.29999965072E+02 0.  0.
         12    1    1    2    0    0 -0.18577762790E+02 -0.25963885410E+02 -0.25177569308E+02  0.40659151641E+02  0.00000000000E+00 0. -1.
         11    1    3    3    0    0 -0.67142539418E+01  0.88279366809E+01  0.89398526131E+01  0.14245512874E+02  0.51100000000E-03 0. -1.
        -11    1    3    3    0    0  0.48649390445E+01  0.85764513754E+01  0.78385953421E+01  0.12596298159E+02  0.51100000000E-03 0.  1.
         12    1    3    3    0    0  0.20427077687E+02  0.85594973540E+01  0.83991213533E+01  0.23687037327E+02  0.00000000000E+00 0. -1.
</event>
<event>
 7    1  0.2432574E-011  0.5052887E+02  0.7816164E-02  0.1300439E+00
        -11   -1    0    0    0    0  0.00000000000E+00  0.00000000000E+00  0.45593999997E+02  0.45594000000E+02  0.51100000000E-03 0. -1.
         11   -1    0    0    0    0 -0.00000000000E+00 -0.00000000000E+00 -0.45593999997E+02  0.45594000000E+02  0.51100000000E-03 0.  1.
    9900012    2    1    2    0    0 -0.12726260043E+02 -0.32569177382E+02 -0.20747435931E+02  0.50528866859E+02  0.30000021305E+02 0.  0.
         12    1    1    2    0    0  0.12726260043E+02  0.32569177382E+02  0.20747435931E+02  0.40659133141E+02  0.00000000000E+00 0. -1.
         11    1    3    3    0    0 -0.61080160667E+01 -0.46141984277E+01 -0.12989904784E+01  0.77644100823E+01  0.51100000000E-03 0. -1.
        -11    1    3    3    0    0 -0.43908012958E+01 -0.28357165814E+02 -0.62429043918E+01  0.29366338630E+02  0.51100000000E-03 0.  1.
        -12    1    3    3    0    0 -0.22274426809E+01  0.40218685973E+00 -0.13205541061E+02  0.13398118147E+02  0.00000000000E+00 0.  1.
</event>
<event>
 7    1  0.2432574E-011  0.5052889E+02  0.7816164E-02  0.1300439E+00
        -11   -1    0    0    0    0  0.00000000000E+00  0.00000000000E+00  0.45593999997E+02  0.45594000000E+02  0.51100000000E-03 0.  1.
         11   -1    0    0    0    0 -0.00000000000E+00 -0.00000000000E+00 -0.45593999997E+02  0.45594000000E+02  0.51100000000E-03 0. -1.
    9900012    2    1    2    0    0 -0.85737300145E+00  0.19530470022E+02  0.35650933584E+02  0.50528887699E+02  0.30000084648E+02 0.  0.
         12    1    1    2    0    0  0.85737300145E+00 -0.19530470022E+02 -0.35650933584E+02  0.40659112301E+02  0.00000000000E+00 0. -1.
         11    1    3    3    0    0  0.14449550901E+01 -0.29045840648E+01  0.21847166805E+01  0.39112007155E+01  0.51100000000E-03 0. -1.
        -11    1    3    3    0    0 -0.41187493334E+01  0.17698173936E+02  0.66874975372E+01  0.19362646521E+02  0.51100000000E-03 0.  1.
         12    1    3    3    0    0  0.18164212419E+01  0.47368801513E+01  0.26778719366E+02  0.27255040462E+02  0.00000000000E+00 0. -1.
</event>
<event>
 7    1  0.2432574E-011  0.5052886E+02  0.7816164E-02  0.1300439E+00
        -11   -1    0    0    0    0  0.00000000000E+00  0.00000000000E+00  0.45593999997E+02  0.45594000000E+02  0.51100000000E-03 0.  1.
         11   -1    0    0    0    0 -0.00000000000E+00 -0.00000000000E+00 -0.45593999997E+02  0.45594000000E+02  0.51100000000E-03 0. -1.
    9900012    2    1    2    0    0 -0.16083290882E+01  0.30794262757E+02 -0.26500795370E+02  0.50528862080E+02  0.30000006778E+02 0.  0.
         12    1    1    2    0    0  0.16083290882E+01 -0.30794262757E+02  0.26500795370E+02  0.40659137920E+02  0.00000000000E+00 0. -1.
         11    1    3    3    0    0  0.48613090870E+01  0.18999138917E+02 -0.25766545453E+02  0.32380773160E+02  0.51100000000E-03 0. -1.
        -11    1    3    3    0    0  0.35986001877E+01  0.22497366296E+01 -0.48923663397E+00  0.42720710386E+01  0.51100000000E-03 0.  1.
        -12    1    3    3    0    0 -0.10068238363E+02  0.95453872100E+01 -0.24501328291E+00  0.13876017881E+02  0.00000000000E+00 0.  1.
</event>
<event>
 7    1  0.2432574E-011  0.5052886E+02  0.7816164E-02  0.1300439E+00
        -11   -1    0    0    0    0  0.00000000000E+00  0.00000000000E+00  0.45593999997E+02  0.45594000000E+02  0.51100000000E-03 0. -1.
         11   -1    0    0    0    0 -0.00000000000E+00 -0.00000000000E+00 -0.45593999997E+02  0.45594000000E+02  0.51100000000E-03 0.  1.
    9900012    2    1    2    0    0 -0.39158707082E+02  0.99293290401E+01  0.46010681956E+01  0.50528859034E+02  0.29999997521E+02 0.  0.
         12    1    1    2    0    0  0.39158707082E+02 -0.99293290401E+01 -0.46010681956E+01  0.40659140966E+02  0.00000000000E+00 0. -1.
         11    1    3    3    0    0 -0.51449751609E+01  0.82243065583E+01 -0.50555443524E+01  0.10939310615E+02  0.51100000000E-03 0. -1.
        -11    1    3    3    0    0 -0.22238325482E+02  0.39949460851E+01  0.14285343234E+02  0.26731512229E+02  0.51100000000E-03 0.  1.
         12    1    3    3    0    0 -0.11775406439E+02 -0.22899236033E+01 -0.46287306860E+01  0.12858036191E+02  0.00000000000E+00 0. -1.
</event>
<event>
 7    1  0.2432574E-011  0.5052885E+02  0.7816164E-02  0.1300439E+00
        -11   -1    0    0    0    0  0.00000000000E+00  0.00000000000E+00  0.45593999997E+02  0.45594000000E+02  0.51100000000E-03 0. -1.
         11   -1    0    0    0    0 -0.00000000000E+00 -0.00000000000E+00 -0.45593999997E+02  0.45594000000E+02  0.51100000000E-03 0.  1.
    9900012    2    1    2    0    0 -0.27988777425E+02 -0.22130874071E+02 -0.19494072732E+02  0.50528854404E+02  0.29999983446E+02 0.  0.
         12    1    1    2    0    0  0.27988777425E+02  0.22130874071E+02  0.19494072732E+02  0.40659145596E+02  0.00000000000E+00 0. -1.
         11    1    3    3    0    0 -0.99703501619E+01 -0.19965614507E+02 -0.12633279544E+02  0.25644363850E+02  0.51100000000E-03 0.  1.
        -11    1    3    3    0    0 -0.11054265684E+02 -0.45535835303E+01  0.32387260920E+01  0.12386333588E+02  0.51100000000E-03 0. -1.
         12    1    3    3    0    0 -0.69641615793E+01  0.23883239658E+01 -0.10099519280E+02  0.12498156966E+02  0.00000000000E+00 0. -1.
</event>
<event>
 7    1  0.2432574E-011  0.5052886E+02  0.7816164E-02  0.1300439E+00
        -11   -1    0    0    0    0  0.00000000000E+00  0.00000000000E+00  0.45593999997E+02  0.45594000000E+02  0.51100000000E-03 0.  1.
         11   -1    0    0    0    0 -0.00000000000E+00 -0.00000000000E+00 -0.45593999997E+02  0.45594000000E+02  0.51100000000E-03 0. -1.
    9900012    2    1    2    0    0 -0.25603671455E+02  0.33178035062E+01  0.31410340621E+02  0.50528864372E+02  0.30000013745E+02 0.  0.
         12    1    1    2    0    0  0.25603671455E+02 -0.33178035062E+01 -0.31410340621E+02  0.40659135628E+02  0.00000000000E+00 0. -1.
         11    1    3    3    0    0 -0.77150666356E+01  0.25944259062E+01  0.28015717908E+02  0.29174196632E+02  0.51100000000E-03 0. -1.
        -11    1    3    3    0    0 -0.86240208843E+01  0.85716613836E+00  0.72693314144E+01  0.11311571486E+02  0.51100000000E-03 0.  1.
         12    1    3    3    0    0 -0.92645839348E+01 -0.13378853830E+00 -0.38747087008E+01  0.10043096254E+02  0.00000000000E+00 0. -1.
</event>
<event>
 7    1  0.2432574E-011  0.5052892E+02  0.7816164E-02  0.1300439E+00
        -11   -1    0    0    0    0  0.00000000000E+00  0.00000000000E+00  0.45593999997E+02  0.45594000000E+02  0.51100000000E-03 0.  1.
         11   -1    0    0    0    0 -0.00000000000E+00 -0.00000000000E+00 -0.45593999997E+02  0.45594000000E+02  0.51100000000E-03 0. -1.
    9900012    2    1    2    0    0 -0.94021006797E+01 -0.32254951914E+02  0.22899327024E+02  0.50528922313E+02  0.30000189863E+02 0.  0.
         12    1    1    2    0    0  0.94021006797E+01  0.32254951914E+02 -0.22899327024E+02  0.40659077687E+02  0.00000000000E+00 0. -1.
         11    1    3    3    0    0 -0.94808020687E+00  0.11032654878E+01 -0.20016204765E+01  0.24743758017E+01  0.51100000000E-03 0. -1.
        -11    1    3    3    0    0  0.33669539882E+01 -0.24440569831E+02  0.88349657322E+01  0.26205618721E+02  0.51100000000E-03 0.  1.
         12    1    3    3    0    0 -0.11820974461E+02 -0.89176475714E+01  0.16065981768E+02  0.21848927791E+02  0.00000000000E+00 0. -1.
</event>
<event>
 7    1  0.2432574E-011  0.5052883E+02  0.7816164E-02  0.1300439E+00
        -11   -1    0    0    0    0  0.00000000000E+00  0.00000000000E+00  0.45593999997E+02  0.45594000000E+02  0.51100000000E-03 0. -1.
         11   -1    0    0    0    0 -0.00000000000E+00 -0.00000000000E+00 -0.45593999997E+02  0.45594000000E+02  0.51100000000E-03 0.  1.
    9900012    2    1    2    0    0 -0.30507685767E+02  0.15581439710E+02  0.21901314601E+02  0.50528834545E+02  0.29999923081E+02 0.  0.
         12    1    1    2    0    0  0.30507685767E+02 -0.15581439710E+02 -0.21901314601E+02  0.40659165455E+02  0.00000000000E+00 0. -1.
         11    1    3    3    0    0 -0.72323503216E+01 -0.22226489673E+01  0.10936127568E+02  0.13298343734E+02  0.51100000000E-03 0. -1.
        -11    1    3    3    0    0 -0.69814550454E+00  0.11651870747E+02  0.66544445409E+01  0.13436336236E+02  0.51100000000E-03 0.  1.
        -12    1    3    3    0    0 -0.22577189941E+02  0.61522179304E+01  0.43107424915E+01  0.23794154575E+02  0.00000000000E+00 0.  1.
</event>
<event>
 7    1  0.2432574E-011  0.5052885E+02  0.7816164E-02  0.1300439E+00
        -11   -1    0    0    0    0  0.00000000000E+00  0.00000000000E+00  0.45593999997E+02  0.45594000000E+02  0.51100000000E-03 0. -1.
         11   -1    0    0    0    0 -0.00000000000E+00 -0.00000000000E+00 -0.45593999997E+02  0.45594000000E+02  0.51100000000E-03 0.  1.
    9900012    2    1    2    0    0  0.40485614964E+02 -0.26767626505E+00 -0.37429955645E+01  0.50528847459E+02  0.29999962335E+02 0.  0.
         12    1    1    2    0    0 -0.40485614964E+02  0.26767626505E+00  0.37429955645E+01  0.40659152541E+02  0.00000000000E+00 0. -1.
         11    1    3    3    0    0  0.33335453860E+02  0.11122884280E+02 -0.78672269653E+01  0.36012002154E+02  0.51100000000E-03 0.  1.
        -11    1    3    3    0    0  0.21189482963E+01 -0.41595607345E+01  0.31993698307E+01  0.56593157679E+01  0.51100000000E-03 0. -1.
        -12    1    3    3    0    0  0.50312128072E+01 -0.72309998101E+01  0.92486157014E+00  0.88575295365E+01  0.00000000000E+00 0.  1.
</event>
<event>
 7    1  0.2432574E-011  0.5052886E+02  0.7816164E-02  0.1300439E+00
        -11   -1    0    0    0    0  0.00000000000E+00  0.00000000000E+00  0.45593999997E+02  0.45594000000E+02  0.51100000000E-03 0. -1.
         11   -1    0    0    0    0 -0.00000000000E+00 -0.00000000000E+00 -0.45593999997E+02  0.45594000000E+02  0.51100000000E-03 0.  1.
    9900012    2    1    2    0    0 -0.29363660400E+02 -0.28011813479E+02 -0.25058203373E+01  0.50528863486E+02  0.30000011053E+02 0.  0.
         12    1    1    2    0    0  0.29363660400E+02  0.28011813479E+02  0.25058203373E+01  0.40659136514E+02  0.00000000000E+00 0. -1.
         11    1    3    3    0    0 -0.41795121100E+01 -0.12780056180E+02 -0.10093686818E+02  0.16813110101E+02  0.51100000000E-03 0. -1.
        -11    1    3    3    0    0 -0.10726616497E+02 -0.20074512710E+01 -0.31691028742E+01  0.11363686698E+02  0.51100000000E-03 0.  1.
         12    1    3    3    0    0 -0.14457531793E+02 -0.13224306028E+02  0.10756969355E+02  0.22352066687E+02  0.00000000000E+00 0. -1.
</event>
<event>
 7    1  0.2432574E-011  0.5052886E+02  0.7816164E-02  0.1300439E+00
        -11   -1    0    0    0    0  0.00000000000E+00  0.00000000000E+00  0.45593999997E+02  0.45594000000E+02  0.51100000000E-03 0.  1.
         11   -1    0    0    0    0 -0.00000000000E+00 -0.00000000000E+00 -0.45593999997E+02  0.45594000000E+02  0.51100000000E-03 0. -1.
    9900012    2    1    2    0    0 -0.33224542328E+02 -0.17405295503E+02  0.15695565626E+02  0.50528864437E+02  0.30000013941E+02 0.  0.
         12    1    1    2    0    0  0.33224542328E+02  0.17405295503E+02 -0.15695565626E+02  0.40659135563E+02  0.00000000000E+00 0. -1.
         11    1    3    3    0    0 -0.80538100072E+01 -0.15582811671E+02  0.67349200006E+01  0.18789545574E+02  0.51100000000E-03 0. -1.
        -11    1    3    3    0    0  0.11415537695E+01  0.34976567151E+00  0.48801193484E+01  0.50240467901E+01  0.51100000000E-03 0.  1.
         12    1    3    3    0    0 -0.26312286090E+02 -0.21722495036E+01  0.40805262772E+01  0.26715272072E+02  0.00000000000E+00 0. -1.
</event>
<event>
 7    1  0.2432574E-011  0.5052886E+02  0.7816164E-02  0.1300439E+00
        -11   -1    0    0    0    0  0.00000000000E+00  0.00000000000E+00  0.45593999997E+02  0.45594000000E+02  0.51100000000E-03 0.  1.
         11   -1    0    0    0    0 -0.00000000000E+00 -0.00000000000E+00 -0.45593999997E+02  0.45594000000E+02  0.51100000000E-03 0. -1.
    9900012    2    1    2    0    0 -0.25929814660E+02 -0.89705997817E+01  0.30005647613E+02  0.50528857886E+02  0.29999994032E+02 0.  0.
         12    1    1    2    0    0  0.25929814660E+02  0.89705997817E+01 -0.30005647613E+02  0.40659142114E+02  0.00000000000E+00 0. -1.
         11    1    3    3    0    0  0.21610017445E+00  0.15458911424E+01  0.29463200363E+00  0.15884857533E+01  0.51100000000E-03 0. -1.
        -11    1    3    3    0    0 -0.67168539502E+01 -0.15925367131E+02  0.20369054415E+02  0.26713888209E+02  0.51100000000E-03 0.  1.
         12    1    3    3    0    0 -0.19429060884E+02  0.54088762067E+01  0.93419611941E+01  0.22226483924E+02  0.00000000000E+00 0. -1.
</event>
<event>
 7    1  0.2432574E-011  0.5052887E+02  0.7816164E-02  0.1300439E+00
        -11   -1    0    0    0    0  0.00000000000E+00  0.00000000000E+00  0.45593999997E+02  0.45594000000E+02  0.51100000000E-03 0. -1.
         11   -1    0    0    0    0 -0.00000000000E+00 -0.00000000000E+00 -0.45593999997E+02  0.45594000000E+02  0.51100000000E-03 0.  1.
    9900012    2    1    2    0    0  0.32441867623E+02 -0.20917413047E+02 -0.12773104451E+02  0.50528866453E+02  0.30000020071E+02 0.  0.
         12    1    1    2    0    0 -0.32441867623E+02  0.20917413047E+02  0.12773104451E+02  0.40659133547E+02  0.00000000000E+00 0. -1.
         11    1    3    3    0    0 -0.40047546053E+00  0.10351819768E+01 -0.23219356481E+01  0.25735904365E+01  0.51100000000E-03 0. -1.
        -11    1    3    3    0    0  0.35379304057E+02 -0.18073300257E+02 -0.13994276525E+02  0.42121005609E+02  0.51100000000E-03 0.  1.
         12    1    3    3    0    0 -0.25369609734E+01 -0.38792947661E+01  0.35431077218E+01  0.58342704078E+01  0.00000000000E+00 0. -1.
</event>
<event>
 7    1  0.2432574E-011  0.5052887E+02  0.7816164E-02  0.1300439E+00
        -11   -1    0    0    0    0  0.00000000000E+00  0.00000000000E+00  0.45593999997E+02  0.45594000000E+02  0.51100000000E-03 0.  1.
         11   -1    0    0    0    0 -0.00000000000E+00 -0.00000000000E+00 -0.45593999997E+02  0.45594000000E+02  0.51100000000E-03 0. -1.
    9900012    2    1    2    0    0  0.11400087157E+02  0.26875387116E+02  0.28300470912E+02  0.50528867279E+02  0.30000022581E+02 0.  0.
         12    1    1    2    0    0 -0.11400087157E+02 -0.26875387116E+02 -0.28300470912E+02  0.40659132721E+02  0.00000000000E+00 0. -1.
         11    1    3    3    0    0  0.19832557352E+01  0.10010249334E+02  0.14045174890E+02  0.17361029145E+02  0.51100000000E-03 0.  1.
        -11    1    3    3    0    0 -0.83192361090E+00 -0.41315820559E+01 -0.20398537568E+01  0.46822078968E+01  0.51100000000E-03 0. -1.
         12    1    3    3    0    0  0.10248755033E+02  0.20996719838E+02  0.16295149779E+02  0.28485630237E+02  0.00000000000E+00 0. -1.
</event>
<event>
 7    1  0.2432574E-011  0.5052886E+02  0.7816164E-02  0.1300439E+00
        -11   -1    0    0    0    0  0.00000000000E+00  0.00000000000E+00  0.45593999997E+02  0.45594000000E+02  0.51100000000E-03 0.  1.
         11   -1    0    0    0    0 -0.00000000000E+00 -0.00000000000E+00 -0.45593999997E+02  0.45594000000E+02  0.51100000000E-03 0. -1.
    9900012    2    1    2    0    0 -0.14113460340E+02  0.34708965771E+02  0.15788086449E+02  0.50528859067E+02  0.29999997620E+02 0.  0.
         12    1    1    2    0    0  0.14113460340E+02 -0.34708965771E+02 -0.15788086449E+02  0.40659140933E+02  0.00000000000E+00 0. -1.
         11    1    3    3    0    0  0.12789073076E+01  0.21559703701E+01  0.62807355848E+01  0.67625033742E+01  0.51100000000E-03 0. -1.
        -11    1    3    3    0    0 -0.19301117629E+02  0.24600878274E+02  0.13486296469E+02  0.34053142973E+02  0.51100000000E-03 0.  1.
         12    1    3    3    0    0  0.39087499816E+01  0.79521171269E+01 -0.39789456049E+01  0.97132127201E+01  0.00000000000E+00 0. -1.
</event>
<event>
 7    1  0.2432574E-011  0.5052886E+02  0.7816164E-02  0.1300439E+00
        -11   -1    0    0    0    0  0.00000000000E+00  0.00000000000E+00  0.45593999997E+02  0.45594000000E+02  0.51100000000E-03 0.  1.
         11   -1    0    0    0    0 -0.00000000000E+00 -0.00000000000E+00 -0.45593999997E+02  0.45594000000E+02  0.51100000000E-03 0. -1.
    9900012    2    1    2    0    0 -0.46763675743E+01 -0.13511394482E+02  0.38062305438E+02  0.50528864621E+02  0.30000014502E+02 0.  0.
         12    1    1    2    0    0  0.46763675743E+01  0.13511394482E+02 -0.38062305438E+02  0.40659135379E+02  0.00000000000E+00 0. -1.
         11    1    3    3    0    0 -0.72240289573E+01 -0.60472353323E+01  0.94214933586E+01  0.13323670174E+02  0.51100000000E-03 0. -1.
        -11    1    3    3    0    0 -0.82067902434E+01 -0.95379311643E+01  0.17768835132E+02  0.21772805037E+02  0.51100000000E-03 0.  1.
         12    1    3    3    0    0  0.10754451626E+02  0.20737720145E+01  0.10871976947E+02  0.15432389410E+02  0.00000000000E+00 0. -1.
</event>
<event>
 7    1  0.2432574E-011  0.5052885E+02  0.7816164E-02  0.1300439E+00
        -11   -1    0    0    0    0  0.00000000000E+00  0.00000000000E+00  0.45593999997E+02  0.45594000000E+02  0.51100000000E-03 0.  1.
         11   -1    0    0    0    0 -0.00000000000E+00 -0.00000000000E+00 -0.45593999997E+02  0.45594000000E+02  0.51100000000E-03 0. -1.
    9900012    2    1    2    0    0  0.53993287004E+01  0.31139094271E+02  0.25580664440E+02  0.50528851760E+02  0.29999975409E+02 0.  0.
         12    1    1    2    0    0 -0.53993287004E+01 -0.31139094271E+02 -0.25580664440E+02  0.40659148240E+02  0.00000000000E+00 0. -1.
         11    1    3    3    0    0  0.24920542828E+00  0.67338683723E+01  0.12382909387E+02  0.14097642773E+02  0.51100000000E-03 0.  1.
        -11    1    3    3    0    0  0.54664437868E+01  0.26336569959E+02  0.17234091912E+02  0.31945435498E+02  0.51100000000E-03 0. -1.
        -12    1    3    3    0    0 -0.31632051470E+00 -0.19313440604E+01 -0.40363368594E+01  0.44857734885E+01  0.00000000000E+00 0.  1.
</event>
<event>
 7    1  0.2432574E-011  0.5052886E+02  0.7816164E-02  0.1300439E+00
        -11   -1    0    0    0    0  0.00000000000E+00  0.00000000000E+00  0.45593999997E+02  0.45594000000E+02  0.51100000000E-03 0.  1.
         11   -1    0    0    0    0 -0.00000000000E+00 -0.00000000000E+00 -0.45593999997E+02  0.45594000000E+02  0.51100000000E-03 0. -1.
    9900012    2    1    2    0    0  0.10282526015E+02 -0.24150015614E+02  0.31051759212E+02  0.50528863935E+02  0.30000012416E+02 0.  0.
         12    1    1    2    0    0 -0.10282526015E+02  0.24150015614E+02 -0.31051759212E+02  0.40659136065E+02  0.00000000000E+00 0. -1.
         11    1    3    3    0    0  0.12723644860E+02 -0.10435913943E+02  0.19342855670E+02  0.25395777288E+02  0.51100000000E-03 0. -1.
        -11    1    3    3    0    0 -0.78399940023E-01 -0.10820339789E+02  0.16080824180E+02  0.19382435509E+02  0.51100000000E-03 0.  1.
         12    1    3    3    0    0 -0.23627189045E+01 -0.28937618812E+01 -0.43719206372E+01  0.57506511375E+01  0.00000000000E+00 0. -1.
</event>
<event>
 7    1  0.2432574E-011  0.5052886E+02  0.7816164E-02  0.1300439E+00
        -11   -1    0    0    0    0  0.00000000000E+00  0.00000000000E+00  0.45593999997E+02  0.45594000000E+02  0.51100000000E-03 0.  1.
         11   -1    0    0    0    0 -0.00000000000E+00 -0.00000000000E+00 -0.45593999997E+02  0.45594000000E+02  0.51100000000E-03 0. -1.
    9900012    2    1    2    0    0 -0.29027848569E+02  0.14109401952E+02  0.24728006147E+02  0.50528861986E+02  0.30000006493E+02 0.  0.
         12    1    1    2    0    0  0.29027848569E+02 -0.14109401952E+02 -0.24728006147E+02  0.40659138014E+02  0.00000000000E+00 0. -1.
         11    1    3    3    0    0 -0.85500759934E+01  0.14894311016E+02  0.16936006952E+01  0.17257247281E+02  0.51100000000E-03 0. -1.
        -11    1    3    3    0    0 -0.74644651487E+01 -0.39246018734E+01  0.25673440080E+01  0.88154407341E+01  0.51100000000E-03 0.  1.
        -12    1    3    3    0    0 -0.13013307427E+02  0.31396928089E+01  0.20467061444E+02  0.24456173971E+02  0.00000000000E+00 0.  1.
</event>
<event>
 7    1  0.2432574E-011  0.5052886E+02  0.7816164E-02  0.1300439E+00
        -11   -1    0    0    0    0  0.00000000000E+00  0.00000000000E+00  0.45593999997E+02  0.45594000000E+02  0.51100000000E-03 0.  1.
         11   -1    0    0    0    0 -0.00000000000E+00 -0.00000000000E+00 -0.45593999997E+02  0.45594000000E+02  0.51100000000E-03 0. -1.
    9900012    2    1    2    0    0  0.21460733858E+02 -0.14812038150E+02  0.31196252016E+02  0.50528859432E+02  0.29999998730E+02 0.  0.
         12    1    1    2    0    0 -0.21460733858E+02  0.14812038150E+02 -0.31196252016E+02  0.40659140568E+02  0.00000000000E+00 0. -1.
         11    1    3    3    0    0  0.97449891467E+01 -0.57702788097E+01  0.25532318670E+01  0.11609475623E+02  0.51100000000E-03 0. -1.
        -11    1    3    3    0    0  0.16552850425E+02 -0.90635096122E+01  0.28371373195E+02  0.34074607568E+02  0.51100000000E-03 0.  1.
        -12    1    3    3    0    0 -0.48371057133E+01  0.21750272333E-01  0.27164695326E+00  0.48447762408E+01  0.00000000000E+00 0.  1.
</event>
<event>
 7    1  0.2432574E-011  0.5052886E+02  0.7816164E-02  0.1300439E+00
        -11   -1    0    0    0    0  0.00000000000E+00  0.00000000000E+00  0.45593999997E+02  0.45594000000E+02  0.51100000000E-03 0.  1.
         11   -1    0    0    0    0 -0.00000000000E+00 -0.00000000000E+00 -0.45593999997E+02  0.45594000000E+02  0.51100000000E-03 0. -1.
    9900012    2    1    2    0    0  0.14603858189E+01 -0.32442658802E+02  0.24464393013E+02  0.50528863728E+02  0.30000011788E+02 0.  0.
         12    1    1    2    0    0 -0.14603858189E+01  0.32442658802E+02 -0.24464393013E+02  0.40659136272E+02  0.00000000000E+00 0. -1.
         11    1    3    3    0    0 -0.32740148587E+01  0.63617469622E+00  0.47413546930E+01  0.57969247127E+01  0.51100000000E-03 0. -1.
        -11    1    3    3    0    0 -0.20028176375E+01  0.27010998061E+01  0.35593400715E+01  0.48965417038E+01  0.51100000000E-03 0.  1.
        -12    1    3    3    0    0  0.67372183151E+01 -0.35779933304E+02  0.16163698248E+02  0.39835397311E+02  0.00000000000E+00 0.  1.
</event>
<event>
 7    1  0.2432574E-011  0.5052883E+02  0.7816164E-02  0.1300439E+00
        -11   -1    0    0    0    0  0.00000000000E+00  0.00000000000E+00  0.45593999997E+02  0.45594000000E+02  0.51100000000E-03 0.  1.
         11   -1    0    0    0    0 -0.00000000000E+00 -0.00000000000E+00 -0.45593999997E+02  0.45594000000E+02  0.51100000000E-03 0. -1.
    9900012    2    1    2    0    0  0.15216641422E+02 -0.25288304571E+02  0.27966472372E+02  0.50528830048E+02  0.29999909414E+02 0.  0.
         12    1    1    2    0    0 -0.15216641422E+02  0.25288304571E+02 -0.27966472372E+02  0.40659169952E+02  0.00000000000E+00 0. -1.
         11    1    3    3    0    0  0.54544410247E+01  0.97035871741E+00 -0.40993086936E+01  0.68917962070E+01  0.51100000000E-03 0. -1.
        -11    1    3    3    0    0 -0.17553103705E+01 -0.39403795866E+01  0.64817237828E+01  0.77859135136E+01  0.51100000000E-03 0.  1.
        -12    1    3    3    0    0  0.11517510768E+02 -0.22318283702E+02  0.25584057282E+02  0.35851120327E+02  0.00000000000E+00 0.  1.
</event>
<event>
 7    1  0.2432574E-011  0.5052887E+02  0.7816164E-02  0.1300439E+00
        -11   -1    0    0    0    0  0.00000000000E+00  0.00000000000E+00  0.45593999997E+02  0.45594000000E+02  0.51100000000E-03 0.  1.
         11   -1    0    0    0    0 -0.00000000000E+00 -0.00000000000E+00 -0.45593999997E+02  0.45594000000E+02  0.51100000000E-03 0. -1.
    9900012    2    1    2    0    0  0.12163830988E+02 -0.30515052209E+02  0.23959091207E+02  0.50528865146E+02  0.30000016096E+02 0.  0.
         12    1    1    2    0    0 -0.12163830988E+02  0.30515052209E+02 -0.23959091207E+02  0.40659134854E+02  0.00000000000E+00 0. -1.
         11    1    3    3    0    0  0.29868635212E+01 -0.49166225033E+01 -0.39632722839E+01  0.69858469774E+01  0.51100000000E-03 0. -1.
        -11    1    3    3    0    0  0.26536059613E+01 -0.19011194248E+02  0.66101499666E+01  0.20301753968E+02  0.51100000000E-03 0.  1.
         12    1    3    3    0    0  0.65233615058E+01 -0.65872354578E+01  0.21312213524E+02  0.23241264200E+02  0.00000000000E+00 0. -1.
</event>
<event>
 7    1  0.2432574E-011  0.5052887E+02  0.7816164E-02  0.1300439E+00
        -11   -1    0    0    0    0  0.00000000000E+00  0.00000000000E+00  0.45593999997E+02  0.45594000000E+02  0.51100000000E-03 0.  1.
         11   -1    0    0    0    0 -0.00000000000E+00 -0.00000000000E+00 -0.45593999997E+02  0.45594000000E+02  0.51100000000E-03 0. -1.
    9900012    2    1    2    0    0  0.14649921040E+02 -0.31927437892E+02  0.20473963366E+02  0.50528872455E+02  0.30000038313E+02 0.  0.
         12    1    1    2    0    0 -0.14649921040E+02  0.31927437892E+02 -0.20473963366E+02  0.40659127545E+02  0.00000000000E+00 0. -1.
         11    1    3    3    0    0  0.16730370379E+02 -0.30674447027E+02  0.14686476381E+02  0.37901445648E+02  0.51100000000E-03 0. -1.
        -11    1    3    3    0    0  0.45103228003E+01 -0.44776740438E+00  0.17636104457E+01  0.48635202762E+01  0.51100000000E-03 0.  1.
         12    1    3    3    0    0 -0.65907721394E+01 -0.80522346059E+00  0.40238765392E+01  0.77639065307E+01  0.00000000000E+00 0. -1.
</event>
<event>
 7    1  0.2432574E-011  0.5052886E+02  0.7816164E-02  0.1300439E+00
        -11   -1    0    0    0    0  0.00000000000E+00  0.00000000000E+00  0.45593999997E+02  0.45594000000E+02  0.51100000000E-03 0.  1.
         11   -1    0    0    0    0 -0.00000000000E+00 -0.00000000000E+00 -0.45593999997E+02  0.45594000000E+02  0.51100000000E-03 0. -1.
    9900012    2    1    2    0    0  0.53621060072E+01 -0.65766899023E+01  0.39763811851E+02  0.50528858791E+02  0.29999996782E+02 0.  0.
         12    1    1    2    0    0 -0.53621060072E+01  0.65766899023E+01 -0.39763811851E+02  0.40659141209E+02  0.00000000000E+00 0. -1.
         11    1    3    3    0    0  0.45816890549E+01 -0.29266474909E+01  0.40880875929E+01  0.68021761635E+01  0.51100000000E-03 0. -1.
        -11    1    3    3    0    0  0.10537840517E+02 -0.35153574372E+01  0.62962134177E+01  0.12768951576E+02  0.51100000000E-03 0.  1.
        -12    1    3    3    0    0 -0.97574235651E+01 -0.13468497419E+00  0.29379510840E+02  0.30957731052E+02  0.00000000000E+00 0.  1.
</event>
<event>
 7    1  0.2432574E-011  0.5052889E+02  0.7816164E-02  0.1300439E+00
        -11   -1    0    0    0    0  0.00000000000E+00  0.00000000000E+00  0.45593999997E+02  0.45594000000E+02  0.51100000000E-03 0.  1.
         11   -1    0    0    0    0 -0.00000000000E+00 -0.00000000000E+00 -0.45593999997E+02  0.45594000000E+02  0.51100000000E-03 0. -1.
    9900012    2    1    2    0    0  0.22800982803E+02  0.15201653212E+02  0.30036450750E+02  0.50528887235E+02  0.30000083240E+02 0.  0.
         12    1    1    2    0    0 -0.22800982803E+02 -0.15201653212E+02 -0.30036450750E+02  0.40659112765E+02  0.00000000000E+00 0. -1.
         11    1    3    3    0    0  0.95379394630E+01  0.12975250312E+02  0.50363311575E+01  0.16872878878E+02  0.51100000000E-03 0. -1.
        -11    1    3    3    0    0  0.16500432774E+02  0.53232957871E+01  0.22859558480E+02  0.28690785523E+02  0.51100000000E-03 0.  1.
         12    1    3    3    0    0 -0.32373894346E+01 -0.30968928873E+01  0.21405611129E+01  0.49652228333E+01  0.00000000000E+00 0. -1.
</event>
<event>
 7    1  0.2432574E-011  0.5052889E+02  0.7816164E-02  0.1300439E+00
        -11   -1    0    0    0    0  0.00000000000E+00  0.00000000000E+00  0.45593999997E+02  0.45594000000E+02  0.51100000000E-03 0.  1.
         11   -1    0    0    0    0 -0.00000000000E+00 -0.00000000000E+00 -0.45593999997E+02  0.45594000000E+02  0.51100000000E-03 0. -1.
    9900012    2    1    2    0    0 -0.25880182133E+02  0.17168786560E+02  0.26241427344E+02  0.50528885791E+02  0.30000078851E+02 0.  0.
         12    1    1    2    0    0  0.25880182133E+02 -0.17168786560E+02 -0.26241427344E+02  0.40659114209E+02  0.00000000000E+00 0. -1.
         11    1    3    3    0    0  0.39704539422E+01  0.65182775556E+00  0.35284814933E+01  0.53515947006E+01  0.51100000000E-03 0. -1.
        -11    1    3    3    0    0 -0.97970777542E+01  0.14054924104E+02  0.17104362851E+02  0.24209148124E+02  0.51100000000E-03 0.  1.
         12    1    3    3    0    0 -0.20053558321E+02  0.24620347010E+01  0.56085829995E+01  0.20968142967E+02  0.00000000000E+00 0. -1.
</event>
<event>
 7    1  0.2432574E-011  0.5052885E+02  0.7816164E-02  0.1300439E+00
        -11   -1    0    0    0    0  0.00000000000E+00  0.00000000000E+00  0.45593999997E+02  0.45594000000E+02  0.51100000000E-03 0.  1.
         11   -1    0    0    0    0 -0.00000000000E+00 -0.00000000000E+00 -0.45593999997E+02  0.45594000000E+02  0.51100000000E-03 0. -1.
    9900012    2    1    2    0    0  0.30637184469E+01 -0.20298472826E+01  0.40492711365E+02  0.50528851898E+02  0.29999975829E+02 0.  0.
         12    1    1    2    0    0 -0.30637184469E+01  0.20298472826E+01 -0.40492711365E+02  0.40659148102E+02  0.00000000000E+00 0. -1.
         11    1    3    3    0    0 -0.36629482931E+01  0.64800681297E+01  0.62568823486E+01  0.97240449479E+01  0.51100000000E-03 0. -1.
        -11    1    3    3    0    0  0.10187513386E+02  0.26424647216E+01  0.16377713472E+02  0.19467859349E+02  0.51100000000E-03 0.  1.
         12    1    3    3    0    0 -0.34608466456E+01 -0.11152380134E+02  0.17858115544E+02  0.21336947601E+02  0.00000000000E+00 0. -1.
</event>
<event>
 7    1  0.2432574E-011  0.5052880E+02  0.7816164E-02  0.1300439E+00
        -11   -1    0    0    0    0  0.00000000000E+00  0.00000000000E+00  0.45593999997E+02  0.45594000000E+02  0.51100000000E-03 0.  1.
         11   -1    0    0    0    0 -0.00000000000E+00 -0.00000000000E+00 -0.45593999997E+02  0.45594000000E+02  0.51100000000E-03 0. -1.
    9900012    2    1    2    0    0  0.23550588224E+02  0.14377732191E+02  0.29863378225E+02  0.50528797503E+02  0.29999810489E+02 0.  0.
         12    1    1    2    0    0 -0.23550588224E+02 -0.14377732191E+02 -0.29863378225E+02  0.40659202497E+02  0.00000000000E+00 0. -1.
         11    1    3    3    0    0  0.19255296647E+02  0.35555531594E+01  0.70872283297E+01  0.20823957667E+02  0.51100000000E-03 0. -1.
        -11    1    3    3    0    0  0.10620688467E+01  0.83904034812E+01  0.22055904400E+01  0.87402225522E+01  0.51100000000E-03 0.  1.
        -12    1    3    3    0    0  0.32332227304E+01  0.24317755504E+01  0.20570559456E+02  0.20964617284E+02  0.00000000000E+00 0.  1.
</event>
<event>
 7    1  0.2432574E-011  0.5052873E+02  0.7816164E-02  0.1300439E+00
        -11   -1    0    0    0    0  0.00000000000E+00  0.00000000000E+00  0.45593999997E+02  0.45594000000E+02  0.51100000000E-03 0. -1.
         11   -1    0    0    0    0 -0.00000000000E+00 -0.00000000000E+00 -0.45593999997E+02  0.45594000000E+02  0.51100000000E-03 0.  1.
    9900012    2    1    2    0    0 -0.27428412348E+02  0.29308277882E+02  0.64717403203E+01  0.50528728252E+02  0.29999599991E+02 0.  0.
         12    1    1    2    0    0  0.27428412348E+02 -0.29308277882E+02 -0.64717403203E+01  0.40659271748E+02  0.00000000000E+00 0. -1.
         11    1    3    3    0    0 -0.10088155680E+02  0.11543429480E+02  0.13771127081E+02  0.20607415911E+02  0.51100000000E-03 0. -1.
        -11    1    3    3    0    0 -0.35381445631E+01  0.62282929208E+01  0.44525209712E+01  0.84341592893E+01  0.51100000000E-03 0.  1.
         12    1    3    3    0    0 -0.13802112104E+02  0.11536555481E+02 -0.11751907732E+02  0.21487153051E+02  0.00000000000E+00 0. -1.
</event>
<event>
 7    1  0.2432574E-011  0.5052885E+02  0.7816164E-02  0.1300439E+00
        -11   -1    0    0    0    0  0.00000000000E+00  0.00000000000E+00  0.45593999997E+02  0.45594000000E+02  0.51100000000E-03 0.  1.
         11   -1    0    0    0    0 -0.00000000000E+00 -0.00000000000E+00 -0.45593999997E+02  0.45594000000E+02  0.51100000000E-03 0. -1.
    9900012    2    1    2    0    0  0.20252693810E+02  0.28577383326E+02  0.20647707371E+02  0.50528852640E+02  0.29999978084E+02 0.  0.
         12    1    1    2    0    0 -0.20252693810E+02 -0.28577383326E+02 -0.20647707371E+02  0.40659147360E+02  0.00000000000E+00 0. -1.
         11    1    3    3    0    0  0.99524281480E+01  0.25337636716E+02  0.19174869707E+02  0.33297481721E+02  0.51100000000E-03 0. -1.
        -11    1    3    3    0    0  0.82032928883E+01  0.41854318777E+01  0.67874124793E+01  0.11440315670E+02  0.51100000000E-03 0.  1.
         12    1    3    3    0    0  0.20969727739E+01 -0.94568526748E+00 -0.53145748143E+01  0.57910552490E+01  0.00000000000E+00 0. -1.
</event>
<event>
 7    1  0.2432574E-011  0.5052886E+02  0.7816164E-02  0.1300439E+00
        -11   -1    0    0    0    0  0.00000000000E+00  0.00000000000E+00  0.45593999997E+02  0.45594000000E+02  0.51100000000E-03 0.  1.
         11   -1    0    0    0    0 -0.00000000000E+00 -0.00000000000E+00 -0.45593999997E+02  0.45594000000E+02  0.51100000000E-03 0. -1.
    9900012    2    1    2    0    0  0.39495353045E+02 -0.39615452283E+01  0.88084781161E+01  0.50528855402E+02  0.29999986480E+02 0.  0.
         12    1    1    2    0    0 -0.39495353045E+02  0.39615452283E+01 -0.88084781161E+01  0.40659144598E+02  0.00000000000E+00 0. -1.
         11    1    3    3    0    0  0.19360958938E+02  0.11645883935E+02  0.85949738009E+01  0.24173268677E+02  0.51100000000E-03 0.  1.
        -11    1    3    3    0    0  0.90003900859E+01 -0.88356426329E+01  0.31441220778E+01  0.12998504004E+02  0.51100000000E-03 0. -1.
        -12    1    3    3    0    0  0.11134004020E+02 -0.67717865305E+01 -0.29306177626E+01  0.13357082721E+02  0.00000000000E+00 0.  1.
</event>
<event>
 7    1  0.2432574E-011  0.5052887E+02  0.7816164E-02  0.1300439E+00
        -11   -1    0    0    0    0  0.00000000000E+00  0.00000000000E+00  0.45593999997E+02  0.45594000000E+02  0.51100000000E-03 0.  1.
         11   -1    0    0    0    0 -0.00000000000E+00 -0.00000000000E+00 -0.45593999997E+02  0.45594000000E+02  0.51100000000E-03 0. -1.
    9900012    2    1    2    0    0 -0.36268124336E+02  0.26604663492E+01  0.18185426814E+02  0.50528872213E+02  0.30000037577E+02 0.  0.
         12    1    1    2    0    0  0.36268124336E+02 -0.26604663492E+01 -0.18185426814E+02  0.40659127787E+02  0.00000000000E+00 0. -1.
         11    1    3    3    0    0 -0.89682353415E+01  0.14009386379E+02  0.91737386639E+01  0.18996042566E+02  0.51100000000E-03 0. -1.
        -11    1    3    3    0    0 -0.35949326660E+01 -0.19885154389E+01  0.36354751060E+01  0.54858375870E+01  0.51100000000E-03 0.  1.
         12    1    3    3    0    0 -0.23704956328E+02 -0.93604045906E+01  0.53762130437E+01  0.26046992059E+02  0.00000000000E+00 0. -1.
</event>
<event>
 7    1  0.2432574E-011  0.5052886E+02  0.7816164E-02  0.1300439E+00
        -11   -1    0    0    0    0  0.00000000000E+00  0.00000000000E+00  0.45593999997E+02  0.45594000000E+02  0.51100000000E-03 0. -1.
         11   -1    0    0    0    0 -0.00000000000E+00 -0.00000000000E+00 -0.45593999997E+02  0.45594000000E+02  0.51100000000E-03 0.  1.
    9900012    2    1    2    0    0  0.26663068373E+02 -0.10056379549E+01  0.30679553121E+02  0.50528862005E+02  0.30000006551E+02 0.  0.
         12    1    1    2    0    0 -0.26663068373E+02  0.10056379549E+01 -0.30679553121E+02  0.40659137995E+02  0.00000000000E+00 0. -1.
         11    1    3    3    0    0 -0.28669212600E+01 -0.28837131377E+01  0.41699753116E+01  0.58244084105E+01  0.51100000000E-03 0. -1.
        -11    1    3    3    0    0  0.12699295219E+02  0.89899348914E+01  0.47022124821E+01  0.16254286540E+02  0.51100000000E-03 0.  1.
         12    1    3    3    0    0  0.16830694414E+02 -0.71118597087E+01  0.21807365327E+02  0.28450167055E+02  0.00000000000E+00 0. -1.
</event>
<event>
 7    1  0.2432574E-011  0.5052886E+02  0.7816164E-02  0.1300439E+00
        -11   -1    0    0    0    0  0.00000000000E+00  0.00000000000E+00  0.45593999997E+02  0.45594000000E+02  0.51100000000E-03 0.  1.
         11   -1    0    0    0    0 -0.00000000000E+00 -0.00000000000E+00 -0.45593999997E+02  0.45594000000E+02  0.51100000000E-03 0. -1.
    9900012    2    1    2    0    0  0.10568547085E+02  0.17647426946E+01  0.39221896445E+02  0.50528860006E+02  0.30000000476E+02 0.  0.
         12    1    1    2    0    0 -0.10568547085E+02 -0.17647426946E+01 -0.39221896445E+02  0.40659139994E+02  0.00000000000E+00 0. -1.
         11    1    3    3    0    0  0.10745086149E+02 -0.22037304937E+00  0.45315155241E+01  0.11663621815E+02  0.51100000000E-03 0. -1.
        -11    1    3    3    0    0  0.43565936130E+01  0.72405204568E+01  0.93999453983E+01  0.12639779197E+02  0.51100000000E-03 0.  1.
        -12    1    3    3    0    0 -0.45331326771E+01 -0.52554047128E+01  0.25290435523E+02  0.26225458995E+02  0.00000000000E+00 0.  1.
</event>
<event>
 7    1  0.2432574E-011  0.5052887E+02  0.7816164E-02  0.1300439E+00
        -11   -1    0    0    0    0  0.00000000000E+00  0.00000000000E+00  0.45593999997E+02  0.45594000000E+02  0.51100000000E-03 0. -1.
         11   -1    0    0    0    0 -0.00000000000E+00 -0.00000000000E+00 -0.45593999997E+02  0.45594000000E+02  0.51100000000E-03 0.  1.
    9900012    2    1    2    0    0  0.25007628960E+02 -0.32042271489E+02 -0.10373310547E+01  0.50528871577E+02  0.30000035646E+02 0.  0.
         12    1    1    2    0    0 -0.25007628960E+02  0.32042271489E+02  0.10373310547E+01  0.40659128423E+02  0.00000000000E+00 0. -1.
         11    1    3    3    0    0 -0.34563147767E+01 -0.13965317105E+01  0.32142365800E+01  0.49221671759E+01  0.51100000000E-03 0. -1.
        -11    1    3    3    0    0  0.13501542835E+02 -0.25881982699E+02 -0.60161683147E+01  0.29805418447E+02  0.51100000000E-03 0.  1.
         12    1    3    3    0    0  0.14962400901E+02 -0.47637570799E+01  0.17646006799E+01  0.15801285954E+02  0.00000000000E+00 0. -1.
</event>
<event>
 7    1  0.2432574E-011  0.5052880E+02  0.7816164E-02  0.1300439E+00
        -11   -1    0    0    0    0  0.00000000000E+00  0.00000000000E+00  0.45593999997E+02  0.45594000000E+02  0.51100000000E-03 0.  1.
         11   -1    0    0    0    0 -0.00000000000E+00 -0.00000000000E+00 -0.45593999997E+02  0.45594000000E+02  0.51100000000E-03 0. -1.
    9900012    2    1    2    0    0  0.19103288900E+02 -0.56506448079E+01  0.35444391655E+02  0.50528802598E+02  0.29999825978E+02 0.  0.
         12    1    1    2    0    0 -0.19103288900E+02  0.56506448079E+01 -0.35444391655E+02  0.40659197402E+02  0.00000000000E+00 0. -1.
         11    1    3    3    0    0  0.28430505129E+01  0.79651622250E+01  0.99863370362E+01  0.13086392671E+02  0.51100000000E-03 0. -1.
        -11    1    3    3    0    0  0.12142664016E+02  0.91927225553E+00  0.13455651398E+02  0.18147834739E+02  0.51100000000E-03 0.  1.
        -12    1    3    3    0    0  0.41175743702E+01 -0.14535079288E+02  0.12002403221E+02  0.19294575188E+02  0.00000000000E+00 0.  1.
</event>
<event>
 7    1  0.2432574E-011  0.5052886E+02  0.7816164E-02  0.1300439E+00
        -11   -1    0    0    0    0  0.00000000000E+00  0.00000000000E+00  0.45593999997E+02  0.45594000000E+02  0.51100000000E-03 0.  1.
         11   -1    0    0    0    0 -0.00000000000E+00 -0.00000000000E+00 -0.45593999997E+02  0.45594000000E+02  0.51100000000E-03 0. -1.
    9900012    2    1    2    0    0  0.12088640153E+02 -0.30447795203E+02  0.24082409462E+02  0.50528857130E+02  0.29999991731E+02 0.  0.
         12    1    1    2    0    0 -0.12088640153E+02  0.30447795203E+02 -0.24082409462E+02  0.40659142870E+02  0.00000000000E+00 0. -1.
         11    1    3    3    0    0 -0.15898079383E+01 -0.95334553210E+01 -0.89732590851E+00  0.97066705768E+01  0.51100000000E-03 0. -1.
        -11    1    3    3    0    0  0.49926254549E+01 -0.22616884037E+02  0.15596805120E+02  0.27923289253E+02  0.51100000000E-03 0.  1.
        -12    1    3    3    0    0  0.86858226364E+01  0.17025441557E+01  0.93829302502E+01  0.12898897300E+02  0.00000000000E+00 0.  1.
</event>
<event>
 7    1  0.2432574E-011  0.5052888E+02  0.7816164E-02  0.1300439E+00
        -11   -1    0    0    0    0  0.00000000000E+00  0.00000000000E+00  0.45593999997E+02  0.45594000000E+02  0.51100000000E-03 0.  1.
         11   -1    0    0    0    0 -0.00000000000E+00 -0.00000000000E+00 -0.45593999997E+02  0.45594000000E+02  0.51100000000E-03 0. -1.
    9900012    2    1    2    0    0  0.11608694400E+02 -0.29323222984E+02  0.25662246046E+02  0.50528879695E+02  0.30000060320E+02 0.  0.
         12    1    1    2    0    0 -0.11608694400E+02  0.29323222984E+02 -0.25662246046E+02  0.40659120305E+02  0.00000000000E+00 0. -1.
         11    1    3    3    0    0  0.58699872366E+01 -0.22302308357E+02  0.85801131466E+01  0.24606260384E+02  0.51100000000E-03 0. -1.
        -11    1    3    3    0    0  0.99301626133E+01 -0.99779342672E+01  0.10417917257E+02  0.17512861046E+02  0.51100000000E-03 0.  1.
         12    1    3    3    0    0 -0.41914554500E+01  0.29570196405E+01  0.66642156425E+01  0.84097582648E+01  0.00000000000E+00 0. -1.
</event>
<event>
 7    1  0.2432574E-011  0.5052885E+02  0.7816164E-02  0.1300439E+00
        -11   -1    0    0    0    0  0.00000000000E+00  0.00000000000E+00  0.45593999997E+02  0.45594000000E+02  0.51100000000E-03 0.  1.
         11   -1    0    0    0    0 -0.00000000000E+00 -0.00000000000E+00 -0.45593999997E+02  0.45594000000E+02  0.51100000000E-03 0. -1.
    9900012    2    1    2    0    0  0.33936617500E+02 -0.21806858307E+02 -0.50924675308E+01  0.50528852172E+02  0.29999976661E+02 0.  0.
         12    1    1    2    0    0 -0.33936617500E+02  0.21806858307E+02  0.50924675308E+01  0.40659147828E+02  0.00000000000E+00 0. -1.
         11    1    3    3    0    0  0.31269773045E+01  0.35525470207E+01 -0.38011713719E+01  0.60702126369E+01  0.51100000000E-03 0. -1.
        -11    1    3    3    0    0  0.13916194933E+02 -0.14546219823E+01 -0.52003689541E+01  0.14927164636E+02  0.51100000000E-03 0.  1.
        -12    1    3    3    0    0  0.16893445262E+02 -0.23904783345E+02  0.39090727952E+01  0.29531474899E+02  0.00000000000E+00 0.  1.
</event>
<event>
 7    1  0.2432574E-011  0.5052886E+02  0.7816164E-02  0.1300439E+00
        -11   -1    0    0    0    0  0.00000000000E+00  0.00000000000E+00  0.45593999997E+02  0.45594000000E+02  0.51100000000E-03 0.  1.
         11   -1    0    0    0    0 -0.00000000000E+00 -0.00000000000E+00 -0.45593999997E+02  0.45594000000E+02  0.51100000000E-03 0. -1.
    9900012    2    1    2    0    0 -0.28825140172E+01 -0.68361841820E+01  0.39976538711E+02  0.50528856519E+02  0.29999989876E+02 0.  0.
         12    1    1    2    0    0  0.28825140172E+01  0.68361841820E+01 -0.39976538711E+02  0.40659143481E+02  0.00000000000E+00 0. -1.
         11    1    3    3    0    0  0.21988033487E+01  0.27738320758E+01  0.35511605756E+01  0.50139427844E+01  0.51100000000E-03 0. -1.
        -11    1    3    3    0    0 -0.83885941041E+01  0.27128104469E+01  0.29922682699E+02  0.31194467326E+02  0.51100000000E-03 0.  1.
         12    1    3    3    0    0  0.33072767382E+01 -0.12322826705E+02  0.65026954369E+01  0.14320446409E+02  0.00000000000E+00 0. -1.
</event>
<event>
 7    1  0.2432574E-011  0.5052886E+02  0.7816164E-02  0.1300439E+00
        -11   -1    0    0    0    0  0.00000000000E+00  0.00000000000E+00  0.45593999997E+02  0.45594000000E+02  0.51100000000E-03 0.  1.
         11   -1    0    0    0    0 -0.00000000000E+00 -0.00000000000E+00 -0.45593999997E+02  0.45594000000E+02  0.51100000000E-03 0. -1.
    9900012    2    1    2    0    0  0.12623126224E+02  0.12476136856E+02  0.36580983824E+02  0.50528859772E+02  0.29999999763E+02 0.  0.
         12    1    1    2    0    0 -0.12623126224E+02 -0.12476136856E+02 -0.36580983824E+02  0.40659140228E+02  0.00000000000E+00 0. -1.
         11    1    3    3    0    0  0.66965442307E+01 -0.13377849319E+01  0.17990203849E+02  0.19242681932E+02  0.51100000000E-03 0. -1.
        -11    1    3    3    0    0 -0.63884967188E+01  0.43766887796E+00  0.20982119533E+01  0.67384670390E+01  0.51100000000E-03 0.  1.
        -12    1    3    3    0    0  0.12315078712E+02  0.13376252910E+02  0.16492568022E+02  0.24547710801E+02  0.00000000000E+00 0.  1.
</event>
<event>
 7    1  0.2432574E-011  0.5052880E+02  0.7816164E-02  0.1300439E+00
        -11   -1    0    0    0    0  0.00000000000E+00  0.00000000000E+00  0.45593999997E+02  0.45594000000E+02  0.51100000000E-03 0.  1.
         11   -1    0    0    0    0 -0.00000000000E+00 -0.00000000000E+00 -0.45593999997E+02  0.45594000000E+02  0.51100000000E-03 0. -1.
    9900012    2    1    2    0    0  0.13280955887E+01  0.16261959168E+02  0.37241855420E+02  0.50528795028E+02  0.29999802966E+02 0.  0.
         12    1    1    2    0    0 -0.13280955887E+01 -0.16261959168E+02 -0.37241855420E+02  0.40659204972E+02  0.00000000000E+00 0. -1.
         11    1    3    3    0    0  0.10535370457E+02  0.12849930206E+02  0.22116737518E+02  0.27663420173E+02  0.51100000000E-03 0. -1.
        -11    1    3    3    0    0  0.24284941718E+01 -0.29201779700E+01  0.23769949682E+01  0.44805277210E+01  0.51100000000E-03 0.  1.
         12    1    3    3    0    0 -0.11635769041E+02  0.63322069320E+01  0.12748122934E+02  0.18384847134E+02  0.00000000000E+00 0. -1.
</event>
<event>
 7    1  0.2432574E-011  0.5052880E+02  0.7816164E-02  0.1300439E+00
        -11   -1    0    0    0    0  0.00000000000E+00  0.00000000000E+00  0.45593999997E+02  0.45594000000E+02  0.51100000000E-03 0.  1.
         11   -1    0    0    0    0 -0.00000000000E+00 -0.00000000000E+00 -0.45593999997E+02  0.45594000000E+02  0.51100000000E-03 0. -1.
    9900012    2    1    2    0    0  0.18105317860E+02 -0.91656345118E+01  0.35232922313E+02  0.50528804170E+02  0.29999830754E+02 0.  0.
         12    1    1    2    0    0 -0.18105317860E+02  0.91656345118E+01 -0.35232922313E+02  0.40659195830E+02  0.00000000000E+00 0. -1.
         11    1    3    3    0    0  0.17336169217E+01 -0.68265613438E+01  0.15583066591E+01  0.72135765967E+01  0.51100000000E-03 0. -1.
        -11    1    3    3    0    0 -0.16423546234E+01 -0.61488992069E+01  0.19885411550E+01  0.66678771998E+01  0.51100000000E-03 0.  1.
        -12    1    3    3    0    0  0.18014055562E+02  0.38098260388E+01  0.31686074499E+02  0.36647350373E+02  0.00000000000E+00 0.  1.
</event>
<event>
 7    1  0.2432574E-011  0.5052887E+02  0.7816164E-02  0.1300439E+00
        -11   -1    0    0    0    0  0.00000000000E+00  0.00000000000E+00  0.45593999997E+02  0.45594000000E+02  0.51100000000E-03 0.  1.
         11   -1    0    0    0    0 -0.00000000000E+00 -0.00000000000E+00 -0.45593999997E+02  0.45594000000E+02  0.51100000000E-03 0. -1.
    9900012    2    1    2    0    0  0.37942928605E+02 -0.14610329422E+02  0.19352330469E+00  0.50528868083E+02  0.30000025026E+02 0.  0.
         12    1    1    2    0    0 -0.37942928605E+02  0.14610329422E+02 -0.19352330469E+00  0.40659131917E+02  0.00000000000E+00 0. -1.
         11    1    3    3    0    0  0.24143110360E+02 -0.85722998046E+01 -0.65401434932E+01  0.26441398960E+02  0.51100000000E-03 0. -1.
        -11    1    3    3    0    0  0.14990901175E+02  0.46272444756E+00  0.50597150033E+00  0.15006573205E+02  0.51100000000E-03 0.  1.
         12    1    3    3    0    0 -0.11910829294E+01 -0.65007540647E+01  0.62276952976E+01  0.90808959180E+01  0.00000000000E+00 0. -1.
</event>
<event>
 7    1  0.2432574E-011  0.5052886E+02  0.7816164E-02  0.1300439E+00
        -11   -1    0    0    0    0  0.00000000000E+00  0.00000000000E+00  0.45593999997E+02  0.45594000000E+02  0.51100000000E-03 0.  1.
         11   -1    0    0    0    0 -0.00000000000E+00 -0.00000000000E+00 -0.45593999997E+02  0.45594000000E+02  0.51100000000E-03 0. -1.
    9900012    2    1    2    0    0  0.30407046901E+02  0.14210942163E+02  0.22948338962E+02  0.50528860320E+02  0.30000001429E+02 0.  0.
         12    1    1    2    0    0 -0.30407046901E+02 -0.14210942163E+02 -0.22948338962E+02  0.40659139680E+02  0.00000000000E+00 0. -1.
         11    1    3    3    0    0  0.81211343778E+01  0.14778962723E+02  0.10091867952E+01  0.16893460895E+02  0.51100000000E-03 0. -1.
        -11    1    3    3    0    0  0.90765821923E+01  0.58208586094E+01  0.10222050848E+02  0.14857895646E+02  0.51100000000E-03 0.  1.
        -12    1    3    3    0    0  0.13209330331E+02 -0.63888791699E+01  0.11717101319E+02  0.18777503779E+02  0.00000000000E+00 0.  1.
</event>
<event>
 7    1  0.2432574E-011  0.5052886E+02  0.7816164E-02  0.1300439E+00
        -11   -1    0    0    0    0  0.00000000000E+00  0.00000000000E+00  0.45593999997E+02  0.45594000000E+02  0.51100000000E-03 0.  1.
         11   -1    0    0    0    0 -0.00000000000E+00 -0.00000000000E+00 -0.45593999997E+02  0.45594000000E+02  0.51100000000E-03 0. -1.
    9900012    2    1    2    0    0 -0.33747650477E+02  0.14319510571E+02  0.17584454019E+02  0.50528864264E+02  0.30000013415E+02 0.  0.
         12    1    1    2    0    0  0.33747650477E+02 -0.14319510571E+02 -0.17584454019E+02  0.40659135736E+02  0.00000000000E+00 0. -1.
         11    1    3    3    0    0 -0.38880697624E+01  0.62339816897E+01  0.63156107172E+01  0.96884752762E+01  0.51100000000E-03 0. -1.
        -11    1    3    3    0    0 -0.27312435894E+02  0.15479303583E+02  0.97588366222E+01  0.32875718796E+02  0.51100000000E-03 0.  1.
         12    1    3    3    0    0 -0.25471448200E+01 -0.73937747019E+01  0.15100066795E+01  0.79646701908E+01  0.00000000000E+00 0. -1.
</event>
<event>
 7    1  0.2432574E-011  0.5052886E+02  0.7816164E-02  0.1300439E+00
        -11   -1    0    0    0    0  0.00000000000E+00  0.00000000000E+00  0.45593999997E+02  0.45594000000E+02  0.51100000000E-03 0.  1.
         11   -1    0    0    0    0 -0.00000000000E+00 -0.00000000000E+00 -0.45593999997E+02  0.45594000000E+02  0.51100000000E-03 0. -1.
    9900012    2    1    2    0    0  0.35012976102E+02  0.98802600871E+01  0.18155932008E+02  0.50528857092E+02  0.29999991617E+02 0.  0.
         12    1    1    2    0    0 -0.35012976102E+02 -0.98802600871E+01 -0.18155932008E+02  0.40659142908E+02  0.00000000000E+00 0. -1.
         11    1    3    3    0    0  0.12124301117E+02  0.10272621080E+02  0.15294993687E+02  0.22055889317E+02  0.51100000000E-03 0. -1.
        -11    1    3    3    0    0  0.84815781646E+01  0.77444425563E+01 -0.84692144460E+00  0.11516546134E+02  0.51100000000E-03 0.  1.
        -12    1    3    3    0    0  0.14407096821E+02 -0.81368035493E+01  0.37078597656E+01  0.16956421640E+02  0.00000000000E+00 0.  1.
</event>
<event>
 7    1  0.2432574E-011  0.5052886E+02  0.7816164E-02  0.1300439E+00
        -11   -1    0    0    0    0  0.00000000000E+00  0.00000000000E+00  0.45593999997E+02  0.45594000000E+02  0.51100000000E-03 0. -1.
         11   -1    0    0    0    0 -0.00000000000E+00 -0.00000000000E+00 -0.45593999997E+02  0.45594000000E+02  0.51100000000E-03 0.  1.
    9900012    2    1    2    0    0  0.81071302378E+00 -0.40031239208E+02 -0.70716498418E+01  0.50528860810E+02  0.30000002919E+02 0.  0.
         12    1    1    2    0    0 -0.81071302378E+00  0.40031239208E+02  0.70716498418E+01  0.40659139190E+02  0.00000000000E+00 0. -1.
         11    1    3    3    0    0 -0.35689245057E+01 -0.30217161760E+02 -0.10139620506E+02  0.32072199663E+02  0.51100000000E-03 0. -1.
        -11    1    3    3    0    0  0.75705985401E+01 -0.99561581715E+01 -0.17978648313E+01  0.12636113564E+02  0.51100000000E-03 0.  1.
         12    1    3    3    0    0 -0.31909610106E+01  0.14208072278E+00  0.48658354956E+01  0.58205475836E+01  0.00000000000E+00 0. -1.
</event>
<event>
 7    1  0.2432574E-011  0.5052888E+02  0.7816164E-02  0.1300439E+00
        -11   -1    0    0    0    0  0.00000000000E+00  0.00000000000E+00  0.45593999997E+02  0.45594000000E+02  0.51100000000E-03 0.  1.
         11   -1    0    0    0    0 -0.00000000000E+00 -0.00000000000E+00 -0.45593999997E+02  0.45594000000E+02  0.51100000000E-03 0. -1.
    9900012    2    1    2    0    0 -0.21597892124E+02 -0.18575169101E+01  0.34398329972E+02  0.50528875340E+02  0.30000047082E+02 0.  0.
         12    1    1    2    0    0  0.21597892124E+02  0.18575169101E+01 -0.34398329972E+02  0.40659124660E+02  0.00000000000E+00 0. -1.
         11    1    3    3    0    0  0.56064122189E+00 -0.33773438465E+01  0.79065795767E+01  0.86159602425E+01  0.51100000000E-03 0. -1.
        -11    1    3    3    0    0 -0.24786151293E+02  0.18210422259E+01  0.29051899474E+02  0.38231954620E+02  0.51100000000E-03 0.  1.
         12    1    3    3    0    0  0.26276179475E+01 -0.30121528951E+00 -0.25601490788E+01  0.36809604771E+01  0.00000000000E+00 0. -1.
</event>
<event>
 7    1  0.2432574E-011  0.5052887E+02  0.7816164E-02  0.1300439E+00
        -11   -1    0    0    0    0  0.00000000000E+00  0.00000000000E+00  0.45593999997E+02  0.45594000000E+02  0.51100000000E-03 0.  1.
         11   -1    0    0    0    0 -0.00000000000E+00 -0.00000000000E+00 -0.45593999997E+02  0.45594000000E+02  0.51100000000E-03 0. -1.
    9900012    2    1    2    0    0  0.88390644319E+01  0.23766895009E+02  0.31783185103E+02  0.50528865556E+02  0.30000017345E+02 0.  0.
         12    1    1    2    0    0 -0.88390644319E+01 -0.23766895009E+02 -0.31783185103E+02  0.40659134444E+02  0.00000000000E+00 0. -1.
         11    1    3    3    0    0 -0.69896625060E+01  0.44903458911E+01  0.16439331247E+01  0.84688313567E+01  0.51100000000E-03 0. -1.
        -11    1    3    3    0    0  0.19175314938E+01 -0.11817063476E+01  0.97328064360E+01  0.99900389541E+01  0.51100000000E-03 0.  1.
        -12    1    3    3    0    0  0.13911195444E+02  0.20458255465E+02  0.20406445543E+02  0.32069995246E+02  0.00000000000E+00 0.  1.
</event>
<event>
 7    1  0.2432574E-011  0.5052886E+02  0.7816164E-02  0.1300439E+00
        -11   -1    0    0    0    0  0.00000000000E+00  0.00000000000E+00  0.45593999997E+02  0.45594000000E+02  0.51100000000E-03 0.  1.
         11   -1    0    0    0    0 -0.00000000000E+00 -0.00000000000E+00 -0.45593999997E+02  0.45594000000E+02  0.51100000000E-03 0. -1.
    9900012    2    1    2    0    0 -0.24719204764E+02 -0.17833729041E+02  0.26908823602E+02  0.50528858797E+02  0.29999996799E+02 0.  0.
         12    1    1    2    0    0  0.24719204764E+02  0.17833729041E+02 -0.26908823602E+02  0.40659141203E+02  0.00000000000E+00 0. -1.
         11    1    3    3    0    0  0.26156841320E+01 -0.10777089021E+02  0.15925545608E+02  0.19406453937E+02  0.51100000000E-03 0. -1.
        -11    1    3    3    0    0 -0.80382571952E+01 -0.54865414250E+01  0.43139535053E+01  0.10645464323E+02  0.51100000000E-03 0.  1.
        -12    1    3    3    0    0 -0.19296631701E+02 -0.15700985956E+01  0.66693244890E+01  0.20476940537E+02  0.00000000000E+00 0.  1.
</event>
<event>
 7    1  0.2432574E-011  0.5052886E+02  0.7816164E-02  0.1300439E+00
        -11   -1    0    0    0    0  0.00000000000E+00  0.00000000000E+00  0.45593999997E+02  0.45594000000E+02  0.51100000000E-03 0.  1.
         11   -1    0    0    0    0 -0.00000000000E+00 -0.00000000000E+00 -0.45593999997E+02  0.45594000000E+02  0.51100000000E-03 0. -1.
    9900012    2    1    2    0    0  0.29677147781E+02  0.27714013998E+02 -0.20894490390E+01  0.50528862410E+02  0.30000007781E+02 0.  0.
         12    1    1    2    0    0 -0.29677147781E+02 -0.27714013998E+02  0.20894490390E+01  0.40659137590E+02  0.00000000000E+00 0. -1.
         11    1    3    3    0    0  0.40950909773E+00  0.18745983906E+01 -0.33037146792E+01  0.38205166889E+01  0.51100000000E-03 0. -1.
        -11    1    3    3    0    0  0.27951091329E+02  0.17301852304E+02 -0.82523204076E+01  0.33892748369E+02  0.51100000000E-03 0.  1.
        -12    1    3    3    0    0  0.13165473544E+01  0.85375633034E+01  0.94665860478E+01  0.12815597352E+02  0.00000000000E+00 0.  1.
</event>
<event>
 7    1  0.2432574E-011  0.5052887E+02  0.7816164E-02  0.1300439E+00
        -11   -1    0    0    0    0  0.00000000000E+00  0.00000000000E+00  0.45593999997E+02  0.45594000000E+02  0.51100000000E-03 0.  1.
         11   -1    0    0    0    0 -0.00000000000E+00 -0.00000000000E+00 -0.45593999997E+02  0.45594000000E+02  0.51100000000E-03 0. -1.
    9900012    2    1    2    0    0  0.53896303914E+01  0.11263551269E+02  0.38694308094E+02  0.50528865948E+02  0.30000018537E+02 0.  0.
         12    1    1    2    0    0 -0.53896303914E+01 -0.11263551269E+02 -0.38694308094E+02  0.40659134052E+02  0.00000000000E+00 0. -1.
         11    1    3    3    0    0  0.81946011184E+01 -0.15291113988E+01  0.64323922436E+01  0.10529261104E+02  0.51100000000E-03 0. -1.
        -11    1    3    3    0    0  0.53287564394E+00  0.15551554252E+02  0.32092332809E+02  0.35665846709E+02  0.51100000000E-03 0.  1.
         12    1    3    3    0    0 -0.33378463710E+01 -0.27588915835E+01  0.16958304111E+00  0.43337581351E+01  0.00000000000E+00 0. -1.
</event>
<event>
 7    1  0.2432574E-011  0.5052887E+02  0.7816164E-02  0.1300439E+00
        -11   -1    0    0    0    0  0.00000000000E+00  0.00000000000E+00  0.45593999997E+02  0.45594000000E+02  0.51100000000E-03 0.  1.
         11   -1    0    0    0    0 -0.00000000000E+00 -0.00000000000E+00 -0.45593999997E+02  0.45594000000E+02  0.51100000000E-03 0. -1.
    9900012    2    1    2    0    0 -0.22942481613E+02 -0.17439976641E+02  0.28681956931E+02  0.50528869399E+02  0.30000029026E+02 0.  0.
         12    1    1    2    0    0  0.22942481613E+02  0.17439976641E+02 -0.28681956931E+02  0.40659130601E+02  0.00000000000E+00 0. -1.
         11    1    3    3    0    0 -0.39703072610E+01 -0.73312333176E+01  0.10597905014E+02  0.13484283913E+02  0.51100000000E-03 0. -1.
        -11    1    3    3    0    0  0.55167727810E+01 -0.21556278600E+01  0.67015413667E+00  0.59607566815E+01  0.51100000000E-03 0.  1.
         12    1    3    3    0    0 -0.24488947133E+02 -0.79531154639E+01  0.17413897781E+02  0.31083828805E+02  0.00000000000E+00 0. -1.
</event>
<event>
 7    1  0.2432574E-011  0.5052886E+02  0.7816164E-02  0.1300439E+00
        -11   -1    0    0    0    0  0.00000000000E+00  0.00000000000E+00  0.45593999997E+02  0.45594000000E+02  0.51100000000E-03 0. -1.
         11   -1    0    0    0    0 -0.00000000000E+00 -0.00000000000E+00 -0.45593999997E+02  0.45594000000E+02  0.51100000000E-03 0.  1.
    9900012    2    1    2    0    0 -0.18779784655E+02 -0.34042885642E+02 -0.11898190934E+02  0.50528864225E+02  0.30000013298E+02 0.  0.
         12    1    1    2    0    0  0.18779784655E+02  0.34042885642E+02  0.11898190934E+02  0.40659135775E+02  0.00000000000E+00 0. -1.
         11    1    3    3    0    0 -0.18217663481E+02 -0.23645673155E+02 -0.23625007653E+01  0.29942988024E+02  0.51100000000E-03 0. -1.
        -11    1    3    3    0    0  0.18339197034E+00 -0.13179901214E+02 -0.31087450366E+01  0.13542810808E+02  0.51100000000E-03 0.  1.
         12    1    3    3    0    0 -0.74551314378E+00  0.27826887271E+01 -0.64269451317E+01  0.70430653926E+01  0.00000000000E+00 0. -1.
</event>
<event>
 7    1  0.2432574E-011  0.5052884E+02  0.7816164E-02  0.1300439E+00
        -11   -1    0    0    0    0  0.00000000000E+00  0.00000000000E+00  0.45593999997E+02  0.45594000000E+02  0.51100000000E-03 0.  1.
         11   -1    0    0    0    0 -0.00000000000E+00 -0.00000000000E+00 -0.45593999997E+02  0.45594000000E+02  0.51100000000E-03 0. -1.
    9900012    2    1    2    0    0 -0.37702087341E+02  0.14343805623E+02  0.50965560873E+01  0.50528843177E+02  0.29999949322E+02 0.  0.
         12    1    1    2    0    0  0.37702087341E+02 -0.14343805623E+02 -0.50965560873E+01  0.40659156823E+02  0.00000000000E+00 0. -1.
         11    1    3    3    0    0 -0.28406109365E+02  0.13876449345E+02 -0.12375057346E+01  0.31638494218E+02  0.51100000000E-03 0. -1.
        -11    1    3    3    0    0 -0.13458015983E+02  0.76000570155E+00  0.37842266464E+01  0.14000577647E+02  0.51100000000E-03 0.  1.
        -12    1    3    3    0    0  0.41620380077E+01 -0.29264942436E+00  0.25498351755E+01  0.48897713121E+01  0.00000000000E+00 0.  1.
</event>
<event>
 7    1  0.2432574E-011  0.5052889E+02  0.7816164E-02  0.1300439E+00
        -11   -1    0    0    0    0  0.00000000000E+00  0.00000000000E+00  0.45593999997E+02  0.45594000000E+02  0.51100000000E-03 0.  1.
         11   -1    0    0    0    0 -0.00000000000E+00 -0.00000000000E+00 -0.45593999997E+02  0.45594000000E+02  0.51100000000E-03 0. -1.
    9900012    2    1    2    0    0 -0.38445426672E+02  0.44075734536E+01 -0.12477412309E+02  0.50528888430E+02  0.30000086871E+02 0.  0.
         12    1    1    2    0    0  0.38445426672E+02 -0.44075734536E+01  0.12477412309E+02  0.40659111570E+02  0.00000000000E+00 0. -1.
         11    1    3    3    0    0  0.83671877934E+00 -0.33713965903E+01  0.34180852017E+01  0.48733684441E+01  0.51100000000E-03 0. -1.
        -11    1    3    3    0    0 -0.15556113986E+02  0.51462490344E+01 -0.14270864183E+02  0.21728647594E+02  0.51100000000E-03 0.  1.
        -12    1    3    3    0    0 -0.23726031465E+02  0.26327210096E+01 -0.16246333277E+01  0.23926872392E+02  0.00000000000E+00 0.  1.
</event>
<event>
 7    1  0.2432574E-011  0.5052884E+02  0.7816164E-02  0.1300439E+00
        -11   -1    0    0    0    0  0.00000000000E+00  0.00000000000E+00  0.45593999997E+02  0.45594000000E+02  0.51100000000E-03 0.  1.
         11   -1    0    0    0    0 -0.00000000000E+00 -0.00000000000E+00 -0.45593999997E+02  0.45594000000E+02  0.51100000000E-03 0. -1.
    9900012    2    1    2    0    0  0.19312280431E+02 -0.29825934857E+02  0.19764025667E+02  0.50528840195E+02  0.29999940256E+02 0.  0.
         12    1    1    2    0    0 -0.19312280431E+02  0.29825934857E+02 -0.19764025667E+02  0.40659159805E+02  0.00000000000E+00 0. -1.
         11    1    3    3    0    0  0.39944701407E-01 -0.39151258275E+01  0.14407787404E+02  0.14930309573E+02  0.51100000000E-03 0.  1.
        -11    1    3    3    0    0  0.35255586145E+01 -0.91346163099E+01 -0.42385496548E+01  0.10669399332E+02  0.51100000000E-03 0. -1.
        -12    1    3    3    0    0  0.15746777115E+02 -0.16776192719E+02  0.95947879176E+01  0.24929131289E+02  0.00000000000E+00 0.  1.
</event>
<event>
 7    1  0.2432574E-011  0.5052883E+02  0.7816164E-02  0.1300439E+00
        -11   -1    0    0    0    0  0.00000000000E+00  0.00000000000E+00  0.45593999997E+02  0.45594000000E+02  0.51100000000E-03 0. -1.
         11   -1    0    0    0    0 -0.00000000000E+00 -0.00000000000E+00 -0.45593999997E+02  0.45594000000E+02  0.51100000000E-03 0.  1.
    9900012    2    1    2    0    0  0.19062115041E+02  0.33119701065E+02  0.13888443940E+02  0.50528834938E+02  0.29999924276E+02 0.  0.
         12    1    1    2    0    0 -0.19062115041E+02 -0.33119701065E+02 -0.13888443940E+02  0.40659165062E+02  0.00000000000E+00 0. -1.
         11    1    3    3    0    0  0.67334339084E+01  0.12365307566E+02  0.11704126557E+02  0.18309192831E+02  0.51100000000E-03 0. -1.
        -11    1    3    3    0    0  0.13627219459E+02  0.24373630673E+02  0.35281237508E+01  0.28146449862E+02  0.51100000000E-03 0.  1.
        -12    1    3    3    0    0 -0.12985383260E+01 -0.36192371739E+01 -0.13438063680E+01  0.40731922443E+01  0.00000000000E+00 0.  1.
</event>
<event>
 7    1  0.2432574E-011  0.5052885E+02  0.7816164E-02  0.1300439E+00
        -11   -1    0    0    0    0  0.00000000000E+00  0.00000000000E+00  0.45593999997E+02  0.45594000000E+02  0.51100000000E-03 0.  1.
         11   -1    0    0    0    0 -0.00000000000E+00 -0.00000000000E+00 -0.45593999997E+02  0.45594000000E+02  0.51100000000E-03 0. -1.
    9900012    2    1    2    0    0  0.51662545853E+01 -0.39508311033E+02  0.80975235664E+01  0.50528847094E+02  0.29999961228E+02 0.  0.
         12    1    1    2    0    0 -0.51662545853E+01  0.39508311033E+02 -0.80975235664E+01  0.40659152906E+02  0.00000000000E+00 0. -1.
         11    1    3    3    0    0  0.10687926060E-01  0.30462074225E+01  0.18626431056E+01  0.35705648702E+01  0.51100000000E-03 0. -1.
        -11    1    3    3    0    0  0.75247202514E+01 -0.66796117567E+01 -0.15269106251E+01  0.10176938852E+02  0.51100000000E-03 0.  1.
        -12    1    3    3    0    0 -0.23691535922E+01 -0.35874906699E+02  0.77617910858E+01  0.36781343372E+02  0.00000000000E+00 0.  1.
</event>
<event>
 7    1  0.2432574E-011  0.5052886E+02  0.7816164E-02  0.1300439E+00
        -11   -1    0    0    0    0  0.00000000000E+00  0.00000000000E+00  0.45593999997E+02  0.45594000000E+02  0.51100000000E-03 0.  1.
         11   -1    0    0    0    0 -0.00000000000E+00 -0.00000000000E+00 -0.45593999997E+02  0.45594000000E+02  0.51100000000E-03 0. -1.
    9900012    2    1    2    0    0 -0.45105471385E+01  0.35293811287E+02  0.19676569978E+02  0.50528861338E+02  0.30000004522E+02 0.  0.
         12    1    1    2    0    0  0.45105471385E+01 -0.35293811287E+02 -0.19676569978E+02  0.40659138662E+02  0.00000000000E+00 0. -1.
         11    1    3    3    0    0  0.56121501786E+01  0.37479632092E+01  0.80042671076E+01  0.10469563030E+02  0.51100000000E-03 0. -1.
        -11    1    3    3    0    0 -0.15288216506E+01  0.25847380080E+02  0.14076033130E+02  0.29471326092E+02  0.51100000000E-03 0.  1.
         12    1    3    3    0    0 -0.85938756664E+01  0.56984679973E+01 -0.24037302597E+01  0.10587972216E+02  0.00000000000E+00 0. -1.
</event>
<event>
 7    1  0.2432574E-011  0.5052886E+02  0.7816164E-02  0.1300439E+00
        -11   -1    0    0    0    0  0.00000000000E+00  0.00000000000E+00  0.45593999997E+02  0.45594000000E+02  0.51100000000E-03 0. -1.
         11   -1    0    0    0    0 -0.00000000000E+00 -0.00000000000E+00 -0.45593999997E+02  0.45594000000E+02  0.51100000000E-03 0.  1.
    9900012    2    1    2    0    0  0.16870248221E+02 -0.10362499158E+02 -0.35513085529E+02  0.50528857023E+02  0.29999991406E+02 0.  0.
         12    1    1    2    0    0 -0.16870248221E+02  0.10362499158E+02  0.35513085529E+02  0.40659142977E+02  0.00000000000E+00 0. -1.
         11    1    3    3    0    0 -0.51812547322E+01 -0.15837619676E+01 -0.23217399216E+01  0.58944193178E+01  0.51100000000E-03 0. -1.
        -11    1    3    3    0    0  0.42337753031E+01 -0.86151554650E+01 -0.39254086950E+01  0.10370852939E+02  0.51100000000E-03 0.  1.
         12    1    3    3    0    0  0.17817727650E+02 -0.16358172524E+00 -0.29265936913E+02  0.34263584766E+02  0.00000000000E+00 0. -1.
</event>
<event>
 7    1  0.2432574E-011  0.5052886E+02  0.7816164E-02  0.1300439E+00
        -11   -1    0    0    0    0  0.00000000000E+00  0.00000000000E+00  0.45593999997E+02  0.45594000000E+02  0.51100000000E-03 0. -1.
         11   -1    0    0    0    0 -0.00000000000E+00 -0.00000000000E+00 -0.45593999997E+02  0.45594000000E+02  0.51100000000E-03 0.  1.
    9900012    2    1    2    0    0 -0.31631648878E+02 -0.25031886408E+02  0.50999419002E+01  0.50528856437E+02  0.29999989625E+02 0.  0.
         12    1    1    2    0    0  0.31631648878E+02  0.25031886408E+02 -0.50999419002E+01  0.40659143563E+02  0.00000000000E+00 0. -1.
         11    1    3    3    0    0 -0.69709753826E+00 -0.89812321303E+01  0.29356013884E+01  0.94745042788E+01  0.51100000000E-03 0. -1.
        -11    1    3    3    0    0 -0.50747913856E+00  0.36871650643E+01  0.29938361355E+01  0.47765862658E+01  0.51100000000E-03 0.  1.
        -12    1    3    3    0    0 -0.30427072201E+02 -0.19737819342E+02 -0.82949562377E+00  0.36277765892E+02  0.00000000000E+00 0.  1.
</event>
<event>
 7    1  0.2432574E-011  0.5052888E+02  0.7816164E-02  0.1300439E+00
        -11   -1    0    0    0    0  0.00000000000E+00  0.00000000000E+00  0.45593999997E+02  0.45594000000E+02  0.51100000000E-03 0. -1.
         11   -1    0    0    0    0 -0.00000000000E+00 -0.00000000000E+00 -0.45593999997E+02  0.45594000000E+02  0.51100000000E-03 0.  1.
    9900012    2    1    2    0    0  0.25170336122E+01  0.38176637431E+02 -0.13761288363E+02  0.50528878500E+02  0.30000056689E+02 0.  0.
         12    1    1    2    0    0 -0.25170336122E+01 -0.38176637431E+02  0.13761288363E+02  0.40659121500E+02  0.00000000000E+00 0. -1.
         11    1    3    3    0    0  0.42236917931E+01  0.13406551628E+02  0.96828857978E+00  0.14089456411E+02  0.51100000000E-03 0. -1.
        -11    1    3    3    0    0  0.24172028159E+01 -0.36321785060E+01 -0.45854769249E+00  0.43870099612E+01  0.51100000000E-03 0.  1.
        -12    1    3    3    0    0 -0.41238609968E+01  0.28402264309E+02 -0.14271029250E+02  0.32052412128E+02  0.00000000000E+00 0.  1.
</event>
<event>
 7    1  0.2432574E-011  0.5052885E+02  0.7816164E-02  0.1300439E+00
        -11   -1    0    0    0    0  0.00000000000E+00  0.00000000000E+00  0.45593999997E+02  0.45594000000E+02  0.51100000000E-03 0. -1.
         11   -1    0    0    0    0 -0.00000000000E+00 -0.00000000000E+00 -0.45593999997E+02  0.45594000000E+02  0.51100000000E-03 0.  1.
    9900012    2    1    2    0    0  0.15560923041E+02 -0.73999114538E+01 -0.36827515083E+02  0.50528845033E+02  0.29999954963E+02 0.  0.
         12    1    1    2    0    0 -0.15560923041E+02  0.73999114538E+01  0.36827515083E+02  0.40659154967E+02  0.00000000000E+00 0. -1.
         11    1    3    3    0    0 -0.17429199547E+01  0.76496479924E+00 -0.36980070237E+01  0.41591101597E+01  0.51100000000E-03 0. -1.
        -11    1    3    3    0    0  0.49895796330E+01 -0.15583208264E+02 -0.24928793848E+02  0.29819071878E+02  0.51100000000E-03 0.  1.
        -12    1    3    3    0    0  0.12314263363E+02  0.74183320109E+01 -0.82007142115E+01  0.16550662995E+02  0.00000000000E+00 0.  1.
</event>
<event>
 7    1  0.2432574E-011  0.5052874E+02  0.7816164E-02  0.1300439E+00
        -11   -1    0    0    0    0  0.00000000000E+00  0.00000000000E+00  0.45593999997E+02  0.45594000000E+02  0.51100000000E-03 0.  1.
         11   -1    0    0    0    0 -0.00000000000E+00 -0.00000000000E+00 -0.45593999997E+02  0.45594000000E+02  0.51100000000E-03 0. -1.
    9900012    2    1    2    0    0 -0.13183602435E+02  0.17062063113E+02  0.34471061558E+02  0.50528739607E+02  0.29999634506E+02 0.  0.
         12    1    1    2    0    0  0.13183602435E+02 -0.17062063113E+02 -0.34471061558E+02  0.40659260393E+02  0.00000000000E+00 0. -1.
         11    1    3    3    0    0 -0.14643298868E+02  0.13905881779E+02  0.18416560838E+02  0.27330742089E+02  0.51100000000E-03 0. -1.
        -11    1    3    3    0    0 -0.57976905363E+01 -0.15668669994E+01  0.12442185465E+02  0.13815797739E+02  0.51100000000E-03 0.  1.
         12    1    3    3    0    0  0.72573869700E+01  0.47230483331E+01  0.36123152551E+01  0.93821997789E+01  0.00000000000E+00 0. -1.
</event>
<event>
 7    1  0.2432574E-011  0.5052886E+02  0.7816164E-02  0.1300439E+00
        -11   -1    0    0    0    0  0.00000000000E+00  0.00000000000E+00  0.45593999997E+02  0.45594000000E+02  0.51100000000E-03 0.  1.
         11   -1    0    0    0    0 -0.00000000000E+00 -0.00000000000E+00 -0.45593999997E+02  0.45594000000E+02  0.51100000000E-03 0. -1.
    9900012    2    1    2    0    0 -0.20758905739E+02  0.32842144471E+02  0.11984450362E+02  0.50528859928E+02  0.30000000237E+02 0.  0.
         12    1    1    2    0    0  0.20758905739E+02 -0.32842144471E+02 -0.11984450362E+02  0.40659140072E+02  0.00000000000E+00 0. -1.
         11    1    3    3    0    0  0.39802035805E+01  0.13534457175E+02  0.78230593524E+01  0.16131454040E+02  0.51100000000E-03 0. -1.
        -11    1    3    3    0    0  0.71302643933E+00  0.26848318456E+01 -0.19443861917E+01  0.33907767054E+01  0.51100000000E-03 0.  1.
        -12    1    3    3    0    0 -0.25452135759E+02  0.16622855451E+02  0.61057772009E+01  0.31006629183E+02  0.00000000000E+00 0.  1.
</event>
<event>
 7    1  0.2432574E-011  0.5052886E+02  0.7816164E-02  0.1300439E+00
        -11   -1    0    0    0    0  0.00000000000E+00  0.00000000000E+00  0.45593999997E+02  0.45594000000E+02  0.51100000000E-03 0.  1.
         11   -1    0    0    0    0 -0.00000000000E+00 -0.00000000000E+00 -0.45593999997E+02  0.45594000000E+02  0.51100000000E-03 0. -1.
    9900012    2    1    2    0    0 -0.16779509429E+02  0.21080204727E+02  0.30450597607E+02  0.50528857576E+02  0.29999993089E+02 0.  0.
         12    1    1    2    0    0  0.16779509429E+02 -0.21080204727E+02 -0.30450597607E+02  0.40659142424E+02  0.00000000000E+00 0. -1.
         11    1    3    3    0    0 -0.92709938974E+01 -0.35552714130E+00  0.47853430647E+01  0.10439216249E+02  0.51100000000E-03 0. -1.
        -11    1    3    3    0    0 -0.23876000086E+01  0.25108015868E+01  0.19103527511E+02  0.19415187922E+02  0.51100000000E-03 0.  1.
        -12    1    3    3    0    0 -0.51209155229E+01  0.18924930282E+02  0.65617270310E+01  0.20674453405E+02  0.00000000000E+00 0.  1.
</event>
<event>
 7    1  0.2432574E-011  0.5052887E+02  0.7816164E-02  0.1300439E+00
        -11   -1    0    0    0    0  0.00000000000E+00  0.00000000000E+00  0.45593999997E+02  0.45594000000E+02  0.51100000000E-03 0.  1.
         11   -1    0    0    0    0 -0.00000000000E+00 -0.00000000000E+00 -0.45593999997E+02  0.45594000000E+02  0.51100000000E-03 0. -1.
    9900012    2    1    2    0    0 -0.17673628185E+02  0.25306590477E+02  0.26464776261E+02  0.50528867725E+02  0.30000023938E+02 0.  0.
         12    1    1    2    0    0  0.17673628185E+02 -0.25306590477E+02 -0.26464776261E+02  0.40659132275E+02  0.00000000000E+00 0. -1.
         11    1    3    3    0    0 -0.45571405619E-01 -0.26222006454E+01  0.92541331222E-02  0.26226129867E+01  0.51100000000E-03 0. -1.
        -11    1    3    3    0    0 -0.12762337148E+02  0.79309993465E+01  0.84351489159E+00  0.15049568690E+02  0.51100000000E-03 0.  1.
        -12    1    3    3    0    0 -0.48657196309E+01  0.19997791776E+02  0.25612007237E+02  0.32856686049E+02  0.00000000000E+00 0.  1.
</event>
<event>
 7    1  0.2432574E-011  0.5052886E+02  0.7816164E-02  0.1300439E+00
        -11   -1    0    0    0    0  0.00000000000E+00  0.00000000000E+00  0.45593999997E+02  0.45594000000E+02  0.51100000000E-03 0.  1.
         11   -1    0    0    0    0 -0.00000000000E+00 -0.00000000000E+00 -0.45593999997E+02  0.45594000000E+02  0.51100000000E-03 0. -1.
    9900012    2    1    2    0    0  0.77994286619E+01 -0.22339498812E+02  0.33064803586E+02  0.50528861657E+02  0.30000005493E+02 0.  0.
         12    1    1    2    0    0 -0.77994286619E+01  0.22339498812E+02 -0.33064803586E+02  0.40659138343E+02  0.00000000000E+00 0. -1.
         11    1    3    3    0    0 -0.42492395751E+00  0.14246674567E+01 -0.10461406953E+01  0.18178691777E+01  0.51100000000E-03 0. -1.
        -11    1    3    3    0    0 -0.54791844504E+01 -0.78418656562E+01  0.23079059291E+02  0.24983180287E+02  0.51100000000E-03 0.  1.
        -12    1    3    3    0    0  0.13703537070E+02 -0.15922300613E+02  0.11031884990E+02  0.23727812193E+02  0.00000000000E+00 0.  1.
</event>
<event>
 7    1  0.2432574E-011  0.5052885E+02  0.7816164E-02  0.1300439E+00
        -11   -1    0    0    0    0  0.00000000000E+00  0.00000000000E+00  0.45593999997E+02  0.45594000000E+02  0.51100000000E-03 0. -1.
         11   -1    0    0    0    0 -0.00000000000E+00 -0.00000000000E+00 -0.45593999997E+02  0.45594000000E+02  0.51100000000E-03 0.  1.
    9900012    2    1    2    0    0 -0.34464033713E+02  0.55176375453E+01 -0.20855507147E+02  0.50528854384E+02  0.29999983386E+02 0.  0.
         12    1    1    2    0    0  0.34464033713E+02 -0.55176375453E+01  0.20855507147E+02  0.40659145616E+02  0.00000000000E+00 0. -1.
         11    1    3    3    0    0 -0.14853427390E+01  0.27436212850E+01  0.51805303206E+01  0.60474453674E+01  0.51100000000E-03 0. -1.
        -11    1    3    3    0    0 -0.54632745681E+01  0.45703308813E+01 -0.10914971682E+02  0.13033491491E+02  0.51100000000E-03 0.  1.
         12    1    3    3    0    0 -0.27515416406E+02 -0.17963146211E+01 -0.15121065785E+02  0.31447917526E+02  0.00000000000E+00 0. -1.
</event>
<event>
 7    1  0.2432574E-011  0.5052886E+02  0.7816164E-02  0.1300439E+00
        -11   -1    0    0    0    0  0.00000000000E+00  0.00000000000E+00  0.45593999997E+02  0.45594000000E+02  0.51100000000E-03 0.  1.
         11   -1    0    0    0    0 -0.00000000000E+00 -0.00000000000E+00 -0.45593999997E+02  0.45594000000E+02  0.51100000000E-03 0. -1.
    9900012    2    1    2    0    0 -0.12151531385E+01 -0.24593029834E+02  0.32355395241E+02  0.50528864313E+02  0.30000013566E+02 0.  0.
         12    1    1    2    0    0  0.12151531385E+01  0.24593029834E+02 -0.32355395241E+02  0.40659135687E+02  0.00000000000E+00 0. -1.
         11    1    3    3    0    0 -0.10287684322E+02 -0.14973586328E+02  0.25091018878E+02  0.30977475120E+02  0.51100000000E-03 0.  1.
        -11    1    3    3    0    0 -0.19987584960E+01 -0.96660692607E+00 -0.17757840511E+01  0.28430219367E+01  0.51100000000E-03 0. -1.
        -12    1    3    3    0    0  0.11071289680E+02 -0.86528365800E+01  0.90401604147E+01  0.16708367256E+02  0.00000000000E+00 0.  1.
</event>
<event>
 7    1  0.2432574E-011  0.5052887E+02  0.7816164E-02  0.1300439E+00
        -11   -1    0    0    0    0  0.00000000000E+00  0.00000000000E+00  0.45593999997E+02  0.45594000000E+02  0.51100000000E-03 0.  1.
         11   -1    0    0    0    0 -0.00000000000E+00 -0.00000000000E+00 -0.45593999997E+02  0.45594000000E+02  0.51100000000E-03 0. -1.
    9900012    2    1    2    0    0  0.91078846987E+00 -0.28354292669E+02  0.29126786152E+02  0.50528866709E+02  0.30000020849E+02 0.  0.
         12    1    1    2    0    0 -0.91078846987E+00  0.28354292669E+02 -0.29126786152E+02  0.40659133291E+02  0.00000000000E+00 0. -1.
         11    1    3    3    0    0  0.42992045525E+01 -0.16775969908E+02  0.19560096893E+02  0.26124963480E+02  0.51100000000E-03 0.  1.
        -11    1    3    3    0    0 -0.60536440247E+01 -0.13619303378E+02  0.12871766095E+02  0.19693003660E+02  0.51100000000E-03 0. -1.
         12    1    3    3    0    0  0.26652279421E+01  0.20409806165E+01 -0.33050768356E+01  0.47108995690E+01  0.00000000000E+00 0. -1.
</event>
<event>
 7    1  0.2432574E-011  0.5052888E+02  0.7816164E-02  0.1300439E+00
        -11   -1    0    0    0    0  0.00000000000E+00  0.00000000000E+00  0.45593999997E+02  0.45594000000E+02  0.51100000000E-03 0.  1.
         11   -1    0    0    0    0 -0.00000000000E+00 -0.00000000000E+00 -0.45593999997E+02  0.45594000000E+02  0.51100000000E-03 0. -1.
    9900012    2    1    2    0    0 -0.15880348829E+00 -0.53258974113E+01  0.40308481703E+02  0.50528879265E+02  0.30000059013E+02 0.  0.
         12    1    1    2    0    0  0.15880348829E+00  0.53258974113E+01 -0.40308481703E+02  0.40659120735E+02  0.00000000000E+00 0. -1.
         11    1    3    3    0    0  0.36867790352E+01 -0.41354354674E+01  0.10987933337E+02  0.12305642830E+02  0.51100000000E-03 0. -1.
        -11    1    3    3    0    0 -0.91209006897E+01 -0.56023541223E+01  0.29460434712E+02  0.31344766944E+02  0.51100000000E-03 0.  1.
         12    1    3    3    0    0  0.52753181662E+01  0.44118921784E+01 -0.13988634653E+00  0.68784694910E+01  0.00000000000E+00 0. -1.
</event>
<event>
 7    1  0.2432574E-011  0.5052888E+02  0.7816164E-02  0.1300439E+00
        -11   -1    0    0    0    0  0.00000000000E+00  0.00000000000E+00  0.45593999997E+02  0.45594000000E+02  0.51100000000E-03 0. -1.
         11   -1    0    0    0    0 -0.00000000000E+00 -0.00000000000E+00 -0.45593999997E+02  0.45594000000E+02  0.51100000000E-03 0.  1.
    9900012    2    1    2    0    0  0.38178473190E+02 -0.13700163552E+02  0.28059574160E+01  0.50528884251E+02  0.30000074170E+02 0.  0.
         12    1    1    2    0    0 -0.38178473190E+02  0.13700163552E+02 -0.28059574160E+01  0.40659115749E+02  0.00000000000E+00 0. -1.
         11    1    3    3    0    0 -0.38020529916E+01 -0.22558219379E+01 -0.26885343256E+01  0.51742203903E+01  0.51100000000E-03 0. -1.
        -11    1    3    3    0    0  0.49098072829E+01  0.21083195117E+00  0.42142174388E+01  0.64738154553E+01  0.51100000000E-03 0.  1.
        -12    1    3    3    0    0  0.37070718898E+02 -0.11655173565E+02  0.12802743028E+01  0.38880848406E+02  0.00000000000E+00 0.  1.
</event>
<event>
 7    1  0.2432574E-011  0.5052886E+02  0.7816164E-02  0.1300439E+00
        -11   -1    0    0    0    0  0.00000000000E+00  0.00000000000E+00  0.45593999997E+02  0.45594000000E+02  0.51100000000E-03 0.  1.
         11   -1    0    0    0    0 -0.00000000000E+00 -0.00000000000E+00 -0.45593999997E+02  0.45594000000E+02  0.51100000000E-03 0. -1.
    9900012    2    1    2    0    0  0.28214258854E+02  0.21056175105E+02  0.20341064324E+02  0.50528858216E+02  0.29999995034E+02 0.  0.
         12    1    1    2    0    0 -0.28214258854E+02 -0.21056175105E+02 -0.20341064324E+02  0.40659141784E+02  0.00000000000E+00 0. -1.
         11    1    3    3    0    0 -0.20795987117E+01  0.58668762487E+01  0.12569025089E+02  0.14025881779E+02  0.51100000000E-03 0.  1.
        -11    1    3    3    0    0  0.50299738465E+01  0.78391221238E+00 -0.24851049549E+01  0.56648832426E+01  0.51100000000E-03 0. -1.
        -12    1    3    3    0    0  0.25263883720E+02  0.14405386644E+02  0.10257144189E+02  0.30838093195E+02  0.00000000000E+00 0.  1.
</event>
<event>
 7    1  0.2432574E-011  0.5052887E+02  0.7816164E-02  0.1300439E+00
        -11   -1    0    0    0    0  0.00000000000E+00  0.00000000000E+00  0.45593999997E+02  0.45594000000E+02  0.51100000000E-03 0.  1.
         11   -1    0    0    0    0 -0.00000000000E+00 -0.00000000000E+00 -0.45593999997E+02  0.45594000000E+02  0.51100000000E-03 0. -1.
    9900012    2    1    2    0    0 -0.30931070012E+02  0.18492004324E+02  0.18827635868E+02  0.50528865868E+02  0.30000018293E+02 0.  0.
         12    1    1    2    0    0  0.30931070012E+02 -0.18492004324E+02 -0.18827635868E+02  0.40659134132E+02  0.00000000000E+00 0. -1.
         11    1    3    3    0    0 -0.16393552818E+02  0.11297275832E+02  0.28700975390E+01  0.20115031080E+02  0.51100000000E-03 0. -1.
        -11    1    3    3    0    0 -0.68037362824E+01  0.13978120485E+02  0.85988109884E+01  0.17765647480E+02  0.51100000000E-03 0.  1.
         12    1    3    3    0    0 -0.77337809113E+01 -0.67833919927E+01  0.73587273407E+01  0.12648187308E+02  0.00000000000E+00 0. -1.
</event>
<event>
 7    1  0.2432574E-011  0.5052886E+02  0.7816164E-02  0.1300439E+00
        -11   -1    0    0    0    0  0.00000000000E+00  0.00000000000E+00  0.45593999997E+02  0.45594000000E+02  0.51100000000E-03 0.  1.
         11   -1    0    0    0    0 -0.00000000000E+00 -0.00000000000E+00 -0.45593999997E+02  0.45594000000E+02  0.51100000000E-03 0. -1.
    9900012    2    1    2    0    0  0.69357586721E+01  0.15212942890E+02  0.37062476289E+02  0.50528861686E+02  0.30000005582E+02 0.  0.
         12    1    1    2    0    0 -0.69357586721E+01 -0.15212942890E+02 -0.37062476289E+02  0.40659138314E+02  0.00000000000E+00 0. -1.
         11    1    3    3    0    0 -0.40487155829E+01 -0.28424461199E+01  0.46949878993E+01  0.68201546501E+01  0.51100000000E-03 0. -1.
        -11    1    3    3    0    0 -0.62487568526E+00  0.36117252444E+01  0.22339923134E+02  0.22638621750E+02  0.51100000000E-03 0.  1.
         12    1    3    3    0    0  0.11609349940E+02  0.14443663766E+02  0.10027565256E+02  0.21070085286E+02  0.00000000000E+00 0. -1.
</event>
<event>
 7    1  0.2432574E-011  0.5052892E+02  0.7816164E-02  0.1300439E+00
        -11   -1    0    0    0    0  0.00000000000E+00  0.00000000000E+00  0.45593999997E+02  0.45594000000E+02  0.51100000000E-03 0.  1.
         11   -1    0    0    0    0 -0.00000000000E+00 -0.00000000000E+00 -0.45593999997E+02  0.45594000000E+02  0.51100000000E-03 0. -1.
    9900012    2    1    2    0    0  0.11745732058E+02  0.10807239672E+02  0.37395218347E+02  0.50528917298E+02  0.30000174620E+02 0.  0.
         12    1    1    2    0    0 -0.11745732058E+02 -0.10807239672E+02 -0.37395218347E+02  0.40659082702E+02  0.00000000000E+00 0. -1.
         11    1    3    3    0    0  0.52654840135E+01  0.12279884471E+02  0.94312980131E+01  0.16354518244E+02  0.51100000000E-03 0. -1.
        -11    1    3    3    0    0  0.30008436975E+01  0.40934087088E+01  0.27079441497E+02  0.27550992901E+02  0.51100000000E-03 0.  1.
        -12    1    3    3    0    0  0.34794043469E+01 -0.55660535081E+01  0.88447883665E+00  0.66234061536E+01  0.00000000000E+00 0.  1.
</event>
<event>
 7    1  0.2432574E-011  0.5052886E+02  0.7816164E-02  0.1300439E+00
        -11   -1    0    0    0    0  0.00000000000E+00  0.00000000000E+00  0.45593999997E+02  0.45594000000E+02  0.51100000000E-03 0. -1.
         11   -1    0    0    0    0 -0.00000000000E+00 -0.00000000000E+00 -0.45593999997E+02  0.45594000000E+02  0.51100000000E-03 0.  1.
    9900012    2    1    2    0    0 -0.14962309189E+02 -0.37804607561E+02 -0.32629924956E+00  0.50528861786E+02  0.30000005884E+02 0.  0.
         12    1    1    2    0    0  0.14962309189E+02  0.37804607561E+02  0.32629924956E+00  0.40659138214E+02  0.00000000000E+00 0. -1.
         11    1    3    3    0    0  0.15153612414E+01  0.70490730428E+00  0.21964626285E+01  0.27600112933E+01  0.51100000000E-03 0. -1.
        -11    1    3    3    0    0  0.43066591598E+01 -0.14098994571E+02 -0.51142713480E+01  0.15603997332E+02  0.51100000000E-03 0.  1.
         12    1    3    3    0    0 -0.20784329590E+02 -0.24410520294E+02  0.25915094699E+01  0.32164853161E+02  0.00000000000E+00 0. -1.
</event>
<event>
 7    1  0.2432574E-011  0.5052886E+02  0.7816164E-02  0.1300439E+00
        -11   -1    0    0    0    0  0.00000000000E+00  0.00000000000E+00  0.45593999997E+02  0.45594000000E+02  0.51100000000E-03 0.  1.
         11   -1    0    0    0    0 -0.00000000000E+00 -0.00000000000E+00 -0.45593999997E+02  0.45594000000E+02  0.51100000000E-03 0. -1.
    9900012    2    1    2    0    0  0.29426444000E+02 -0.56750521963E+01  0.27478066175E+02  0.50528856568E+02  0.29999990024E+02 0.  0.
         12    1    1    2    0    0 -0.29426444000E+02  0.56750521963E+01 -0.27478066175E+02  0.40659143432E+02  0.00000000000E+00 0. -1.
         11    1    3    3    0    0  0.47097540065E+01 -0.65354792955E+01  0.58779983139E+01  0.99722182519E+01  0.51100000000E-03 0. -1.
        -11    1    3    3    0    0  0.25608830005E+02 -0.62268232394E+01  0.13030406206E+02  0.29400288911E+02  0.51100000000E-03 0.  1.
         12    1    3    3    0    0 -0.89214001231E+00  0.70872503386E+01  0.85696616550E+01  0.11156349405E+02  0.00000000000E+00 0. -1.
</event>
<event>
 7    1  0.2432574E-011  0.5052885E+02  0.7816164E-02  0.1300439E+00
        -11   -1    0    0    0    0  0.00000000000E+00  0.00000000000E+00  0.45593999997E+02  0.45594000000E+02  0.51100000000E-03 0. -1.
         11   -1    0    0    0    0 -0.00000000000E+00 -0.00000000000E+00 -0.45593999997E+02  0.45594000000E+02  0.51100000000E-03 0.  1.
    9900012    2    1    2    0    0  0.33733572290E+02 -0.30262669759E+01 -0.22495649665E+02  0.50528850413E+02  0.29999971316E+02 0.  0.
         12    1    1    2    0    0 -0.33733572290E+02  0.30262669759E+01  0.22495649665E+02  0.40659149587E+02  0.00000000000E+00 0. -1.
         11    1    3    3    0    0  0.34511626010E+01 -0.20115458534E+01 -0.71560449721E+01  0.81954755763E+01  0.51100000000E-03 0.  1.
        -11    1    3    3    0    0  0.27991427405E+02 -0.59407535391E+00 -0.12214496519E+01  0.28024362137E+02  0.51100000000E-03 0. -1.
         12    1    3    3    0    0  0.22909822848E+01 -0.42064576858E+00 -0.14118155041E+02  0.14309012700E+02  0.00000000000E+00 0. -1.
</event>
<event>
 7    1  0.2432574E-011  0.5052886E+02  0.7816164E-02  0.1300439E+00
        -11   -1    0    0    0    0  0.00000000000E+00  0.00000000000E+00  0.45593999997E+02  0.45594000000E+02  0.51100000000E-03 0.  1.
         11   -1    0    0    0    0 -0.00000000000E+00 -0.00000000000E+00 -0.45593999997E+02  0.45594000000E+02  0.51100000000E-03 0. -1.
    9900012    2    1    2    0    0  0.14793503630E+02 -0.92434310682E+01  0.36727058508E+02  0.50528860877E+02  0.30000003122E+02 0.  0.
         12    1    1    2    0    0 -0.14793503630E+02  0.92434310682E+01 -0.36727058508E+02  0.40659139123E+02  0.00000000000E+00 0. -1.
         11    1    3    3    0    0  0.97009401273E+01  0.55354111332E+01  0.53904794841E+01  0.12401866194E+02  0.51100000000E-03 0. -1.
        -11    1    3    3    0    0  0.41592580217E+01  0.40808921910E+00  0.11692806172E+01  0.43397213649E+01  0.51100000000E-03 0.  1.
        -12    1    3    3    0    0  0.93330548081E+00 -0.15186931420E+02  0.30167298407E+02  0.33787273318E+02  0.00000000000E+00 0.  1.
</event>
<event>
 7    1  0.2432574E-011  0.5052886E+02  0.7816164E-02  0.1300439E+00
        -11   -1    0    0    0    0  0.00000000000E+00  0.00000000000E+00  0.45593999997E+02  0.45594000000E+02  0.51100000000E-03 0.  1.
         11   -1    0    0    0    0 -0.00000000000E+00 -0.00000000000E+00 -0.45593999997E+02  0.45594000000E+02  0.51100000000E-03 0. -1.
    9900012    2    1    2    0    0 -0.10594669693E+02  0.16678909397E+02  0.35534950775E+02  0.50528858701E+02  0.29999996508E+02 0.  0.
         12    1    1    2    0    0  0.10594669693E+02 -0.16678909397E+02 -0.35534950775E+02  0.40659141299E+02  0.00000000000E+00 0. -1.
         11    1    3    3    0    0 -0.40657313385E+01  0.10143112936E+02  0.99998382240E+01  0.14812483793E+02  0.51100000000E-03 0. -1.
        -11    1    3    3    0    0 -0.15274963896E+02  0.49493779864E+01  0.15636198800E+02  0.22412308620E+02  0.51100000000E-03 0.  1.
        -12    1    3    3    0    0  0.87460255422E+01  0.15864184747E+01  0.98989137509E+01  0.13304066289E+02  0.00000000000E+00 0.  1.
</event>
<event>
 7    1  0.2432574E-011  0.5052886E+02  0.7816164E-02  0.1300439E+00
        -11   -1    0    0    0    0  0.00000000000E+00  0.00000000000E+00  0.45593999997E+02  0.45594000000E+02  0.51100000000E-03 0. -1.
         11   -1    0    0    0    0 -0.00000000000E+00 -0.00000000000E+00 -0.45593999997E+02  0.45594000000E+02  0.51100000000E-03 0.  1.
    9900012    2    1    2    0    0  0.30430231952E+02 -0.73406546219E+01 -0.25947661509E+02  0.50528863699E+02  0.30000011701E+02 0.  0.
         12    1    1    2    0    0 -0.30430231952E+02  0.73406546219E+01  0.25947661509E+02  0.40659136301E+02  0.00000000000E+00 0. -1.
         11    1    3    3    0    0 -0.40882868181E+00 -0.88136973415E+01 -0.24547843061E+01  0.91582950361E+01  0.51100000000E-03 0. -1.
        -11    1    3    3    0    0  0.19672781259E+02 -0.59425112174E+01 -0.12671350678E+02  0.24143216237E+02  0.51100000000E-03 0.  1.
         12    1    3    3    0    0  0.11166279375E+02  0.74155539370E+01 -0.10821526525E+02  0.17227352426E+02  0.00000000000E+00 0. -1.
</event>
<event>
 7    1  0.2432574E-011  0.5052887E+02  0.7816164E-02  0.1300439E+00
        -11   -1    0    0    0    0  0.00000000000E+00  0.00000000000E+00  0.45593999997E+02  0.45594000000E+02  0.51100000000E-03 0. -1.
         11   -1    0    0    0    0 -0.00000000000E+00 -0.00000000000E+00 -0.45593999997E+02  0.45594000000E+02  0.51100000000E-03 0.  1.
    9900012    2    1    2    0    0 -0.35307845641E+02 -0.18183946128E+02  0.87100435896E+01  0.50528871628E+02  0.30000035801E+02 0.  0.
         12    1    1    2    0    0  0.35307845641E+02  0.18183946128E+02 -0.87100435896E+01  0.40659128372E+02  0.00000000000E+00 0. -1.
         11    1    3    3    0    0 -0.41979603367E+01 -0.10395119799E+02 -0.30366163715E+00  0.11214882847E+02  0.51100000000E-03 0. -1.
        -11    1    3    3    0    0 -0.21500085219E+02 -0.54275159877E+01 -0.44381955345E+01  0.22614357698E+02  0.51100000000E-03 0.  1.
         12    1    3    3    0    0 -0.96098000861E+01 -0.23613103411E+01  0.13451900761E+02  0.16699631083E+02  0.00000000000E+00 0. -1.
</event>
<event>
 7    1  0.2432574E-011  0.5052887E+02  0.7816164E-02  0.1300439E+00
        -11   -1    0    0    0    0  0.00000000000E+00  0.00000000000E+00  0.45593999997E+02  0.45594000000E+02  0.51100000000E-03 0. -1.
         11   -1    0    0    0    0 -0.00000000000E+00 -0.00000000000E+00 -0.45593999997E+02  0.45594000000E+02  0.51100000000E-03 0.  1.
    9900012    2    1    2    0    0  0.40397654794E+02  0.23511617599E+01 -0.39580332058E+01  0.50528874317E+02  0.30000043974E+02 0.  0.
         12    1    1    2    0    0 -0.40397654794E+02 -0.23511617599E+01  0.39580332058E+01  0.40659125683E+02  0.00000000000E+00 0. -1.
         11    1    3    3    0    0  0.18050000317E+02  0.34558041609E+01 -0.84309591790E+01  0.20219450210E+02  0.51100000000E-03 0. -1.
        -11    1    3    3    0    0  0.18397559673E+02 -0.92911855495E+01  0.11895533859E+01  0.20644887221E+02  0.51100000000E-03 0.  1.
         12    1    3    3    0    0  0.39500948027E+01  0.81865431485E+01  0.32833725872E+01  0.96645368859E+01  0.00000000000E+00 0. -1.
</event>
<event>
 7    1  0.2432574E-011  0.5052886E+02  0.7816164E-02  0.1300439E+00
        -11   -1    0    0    0    0  0.00000000000E+00  0.00000000000E+00  0.45593999997E+02  0.45594000000E+02  0.51100000000E-03 0. -1.
         11   -1    0    0    0    0 -0.00000000000E+00 -0.00000000000E+00 -0.45593999997E+02  0.45594000000E+02  0.51100000000E-03 0.  1.
    9900012    2    1    2    0    0 -0.39690730258E+02 -0.83442130541E+01 -0.28610741786E+01  0.50528859510E+02  0.29999998968E+02 0.  0.
         12    1    1    2    0    0  0.39690730258E+02  0.83442130541E+01  0.28610741786E+01  0.40659140490E+02  0.00000000000E+00 0. -1.
         11    1    3    3    0    0 -0.17277554585E+02 -0.38452085539E+01 -0.20808926841E+01  0.17822166981E+02  0.51100000000E-03 0.  1.
        -11    1    3    3    0    0 -0.12597174745E+02 -0.21619844513E+01 -0.12059585251E+02  0.17572608942E+02  0.51100000000E-03 0. -1.
         12    1    3    3    0    0 -0.98160009273E+01 -0.23370200489E+01  0.11279403757E+02  0.15134083587E+02  0.00000000000E+00 0. -1.
</event>
<event>
 7    1  0.2432574E-011  0.5052885E+02  0.7816164E-02  0.1300439E+00
        -11   -1    0    0    0    0  0.00000000000E+00  0.00000000000E+00  0.45593999997E+02  0.45594000000E+02  0.51100000000E-03 0. -1.
         11   -1    0    0    0    0 -0.00000000000E+00 -0.00000000000E+00 -0.45593999997E+02  0.45594000000E+02  0.51100000000E-03 0.  1.
    9900012    2    1    2    0    0 -0.11896766653E+02  0.17882679192E+01 -0.38838580908E+02  0.50528851879E+02  0.29999975772E+02 0.  0.
         12    1    1    2    0    0  0.11896766653E+02 -0.17882679192E+01  0.38838580908E+02  0.40659148121E+02  0.00000000000E+00 0. -1.
         11    1    3    3    0    0  0.21181322479E+01 -0.31446290218E+01 -0.13566618299E+02  0.14086458328E+02  0.51100000000E-03 0. -1.
        -11    1    3    3    0    0 -0.65553813193E+01 -0.85814815482E+01 -0.96934565353E+01  0.14511304203E+02  0.51100000000E-03 0.  1.
        -12    1    3    3    0    0 -0.74595175819E+01  0.13514378489E+02 -0.15578506074E+02  0.21931089348E+02  0.00000000000E+00 0.  1.
</event>
<event>
 7    1  0.2432574E-011  0.5052886E+02  0.7816164E-02  0.1300439E+00
        -11   -1    0    0    0    0  0.00000000000E+00  0.00000000000E+00  0.45593999997E+02  0.45594000000E+02  0.51100000000E-03 0. -1.
         11   -1    0    0    0    0 -0.00000000000E+00 -0.00000000000E+00 -0.45593999997E+02  0.45594000000E+02  0.51100000000E-03 0.  1.
    9900012    2    1    2    0    0 -0.15392741405E+02  0.37303786354E+02 -0.49655617810E+01  0.50528858739E+02  0.29999996622E+02 0.  0.
         12    1    1    2    0    0  0.15392741405E+02 -0.37303786354E+02  0.49655617810E+01  0.40659141261E+02  0.00000000000E+00 0. -1.
         11    1    3    3    0    0 -0.34127825652E+01 -0.22216736985E+01 -0.26525282995E+01  0.48599203183E+01  0.51100000000E-03 0. -1.
        -11    1    3    3    0    0 -0.67363111006E+01  0.55894013794E+01 -0.67379484002E+01  0.11046232115E+02  0.51100000000E-03 0.  1.
        -12    1    3    3    0    0 -0.52436477389E+01  0.33936058673E+02  0.44249149188E+01  0.34622706306E+02  0.00000000000E+00 0.  1.
</event>
<event>
 7    1  0.2432574E-011  0.5052886E+02  0.7816164E-02  0.1300439E+00
        -11   -1    0    0    0    0  0.00000000000E+00  0.00000000000E+00  0.45593999997E+02  0.45594000000E+02  0.51100000000E-03 0. -1.
         11   -1    0    0    0    0 -0.00000000000E+00 -0.00000000000E+00 -0.45593999997E+02  0.45594000000E+02  0.51100000000E-03 0.  1.
    9900012    2    1    2    0    0 -0.21613601083E+02 -0.28723932017E+02 -0.18998782575E+02  0.50528858819E+02  0.29999996865E+02 0.  0.
         12    1    1    2    0    0  0.21613601083E+02  0.28723932017E+02  0.18998782575E+02  0.40659141181E+02  0.00000000000E+00 0. -1.
         11    1    3    3    0    0 -0.11963654521E+02 -0.49994796110E+01 -0.10636288475E+01  0.13009809086E+02  0.51100000000E-03 0. -1.
        -11    1    3    3    0    0  0.11830093678E+01  0.31332774963E+01  0.19002274489E+00  0.33545562952E+01  0.51100000000E-03 0.  1.
        -12    1    3    3    0    0 -0.10832955930E+02 -0.26857729902E+02 -0.18125176472E+02  0.34164493437E+02  0.00000000000E+00 0.  1.
</event>
<event>
 7    1  0.2432574E-011  0.5052888E+02  0.7816164E-02  0.1300439E+00
        -11   -1    0    0    0    0  0.00000000000E+00  0.00000000000E+00  0.45593999997E+02  0.45594000000E+02  0.51100000000E-03 0.  1.
         11   -1    0    0    0    0 -0.00000000000E+00 -0.00000000000E+00 -0.45593999997E+02  0.45594000000E+02  0.51100000000E-03 0. -1.
    9900012    2    1    2    0    0  0.38489296304E+02  0.98454509973E+01  0.86490191886E+01  0.50528875954E+02  0.30000048949E+02 0.  0.
         12    1    1    2    0    0 -0.38489296304E+02 -0.98454509973E+01 -0.86490191886E+01  0.40659124046E+02  0.00000000000E+00 0. -1.
         11    1    3    3    0    0 -0.69163806594E+00 -0.63400472142E-01  0.88734457792E+00  0.11268378300E+01  0.51100000000E-03 0. -1.
        -11    1    3    3    0    0  0.39466738995E+02  0.12064223521E+02  0.13374703161E+02  0.43382619342E+02  0.51100000000E-03 0.  1.
         12    1    3    3    0    0 -0.28580462519E+00 -0.21553720517E+01 -0.56130285503E+01  0.60194187818E+01  0.00000000000E+00 0. -1.
</event>
<event>
 7    1  0.2432574E-011  0.5052885E+02  0.7816164E-02  0.1300439E+00
        -11   -1    0    0    0    0  0.00000000000E+00  0.00000000000E+00  0.45593999997E+02  0.45594000000E+02  0.51100000000E-03 0. -1.
         11   -1    0    0    0    0 -0.00000000000E+00 -0.00000000000E+00 -0.45593999997E+02  0.45594000000E+02  0.51100000000E-03 0.  1.
    9900012    2    1    2    0    0  0.12244799505E+02 -0.20684872916E+02 -0.32792796029E+02  0.50528849076E+02  0.29999967251E+02 0.  0.
         12    1    1    2    0    0 -0.12244799505E+02  0.20684872916E+02  0.32792796029E+02  0.40659150924E+02  0.00000000000E+00 0. -1.
         11    1    3    3    0    0 -0.39569289080E+01 -0.11594718316E+02 -0.76550634246E+01  0.14446272028E+02  0.51100000000E-03 0. -1.
        -11    1    3    3    0    0  0.92496244892E+00  0.26239605110E+01  0.15432711169E+01  0.31815735567E+01  0.51100000000E-03 0.  1.
        -12    1    3    3    0    0  0.15276765964E+02 -0.11714115111E+02 -0.26681003721E+02  0.32901003491E+02  0.00000000000E+00 0.  1.
</event>
<event>
 7    1  0.2432574E-011  0.5052885E+02  0.7816164E-02  0.1300439E+00
        -11   -1    0    0    0    0  0.00000000000E+00  0.00000000000E+00  0.45593999997E+02  0.45594000000E+02  0.51100000000E-03 0.  1.
         11   -1    0    0    0    0 -0.00000000000E+00 -0.00000000000E+00 -0.45593999997E+02  0.45594000000E+02  0.51100000000E-03 0. -1.
    9900012    2    1    2    0    0  0.16782090592E+02 -0.36869001350E+02  0.34934755396E+01  0.50528853471E+02  0.29999980609E+02 0.  0.
         12    1    1    2    0    0 -0.16782090592E+02  0.36869001350E+02 -0.34934755396E+01  0.40659146529E+02  0.00000000000E+00 0. -1.
         11    1    3    3    0    0  0.42677432363E+00  0.30256061200E+01  0.10881552800E+01  0.32435337044E+01  0.51100000000E-03 0. -1.
        -11    1    3    3    0    0  0.65943922766E+01 -0.10287002090E+02  0.93014524432E+01  0.15356608978E+02  0.51100000000E-03 0.  1.
        -12    1    3    3    0    0  0.97609239912E+01 -0.29607605380E+02 -0.68961321835E+01  0.31928710788E+02  0.00000000000E+00 0.  1.
</event>
<event>
 7    1  0.2432574E-011  0.5052886E+02  0.7816164E-02  0.1300439E+00
        -11   -1    0    0    0    0  0.00000000000E+00  0.00000000000E+00  0.45593999997E+02  0.45594000000E+02  0.51100000000E-03 0.  1.
         11   -1    0    0    0    0 -0.00000000000E+00 -0.00000000000E+00 -0.45593999997E+02  0.45594000000E+02  0.51100000000E-03 0. -1.
    9900012    2    1    2    0    0 -0.13818806469E+02  0.23543109672E+02  0.30131842521E+02  0.50528863770E+02  0.30000011915E+02 0.  0.
         12    1    1    2    0    0  0.13818806469E+02 -0.23543109672E+02 -0.30131842521E+02  0.40659136230E+02  0.00000000000E+00 0. -1.
         11    1    3    3    0    0 -0.23998122232E+01  0.48151986351E+01 -0.16024791454E+01  0.56136597933E+01  0.51100000000E-03 0. -1.
        -11    1    3    3    0    0 -0.16177810639E+02  0.20243712949E+02  0.22077431486E+02  0.34043243857E+02  0.51100000000E-03 0.  1.
         12    1    3    3    0    0  0.47588163927E+01 -0.15158019118E+01  0.96568901804E+01  0.10871960120E+02  0.00000000000E+00 0. -1.
</event>
<event>
 7    1  0.2432574E-011  0.5052886E+02  0.7816164E-02  0.1300439E+00
        -11   -1    0    0    0    0  0.00000000000E+00  0.00000000000E+00  0.45593999997E+02  0.45594000000E+02  0.51100000000E-03 0.  1.
         11   -1    0    0    0    0 -0.00000000000E+00 -0.00000000000E+00 -0.45593999997E+02  0.45594000000E+02  0.51100000000E-03 0. -1.
    9900012    2    1    2    0    0 -0.25859986672E+02  0.10000887650E+02  0.29739011812E+02  0.50528862183E+02  0.30000007091E+02 0.  0.
         12    1    1    2    0    0  0.25859986672E+02 -0.10000887650E+02 -0.29739011812E+02  0.40659137817E+02  0.00000000000E+00 0. -1.
         11    1    3    3    0    0 -0.13917291955E+01  0.49610487666E+01  0.13990485218E+02  0.14909144573E+02  0.51100000000E-03 0. -1.
        -11    1    3    3    0    0 -0.91020344441E+01  0.11288618766E+02  0.32782135460E+01  0.14866964350E+02  0.51100000000E-03 0.  1.
         12    1    3    3    0    0 -0.15366223032E+02 -0.62487798829E+01  0.12470313048E+02  0.20752753259E+02  0.00000000000E+00 0. -1.
</event>
<event>
 7    1  0.2432574E-011  0.5052879E+02  0.7816164E-02  0.1300439E+00
        -11   -1    0    0    0    0  0.00000000000E+00  0.00000000000E+00  0.45593999997E+02  0.45594000000E+02  0.51100000000E-03 0. -1.
         11   -1    0    0    0    0 -0.00000000000E+00 -0.00000000000E+00 -0.45593999997E+02  0.45594000000E+02  0.51100000000E-03 0.  1.
    9900012    2    1    2    0    0  0.33382701294E+02 -0.23121272974E+02 -0.20429402876E+01  0.50528786841E+02  0.29999778083E+02 0.  0.
         12    1    1    2    0    0 -0.33382701294E+02  0.23121272974E+02  0.20429402876E+01  0.40659213159E+02  0.00000000000E+00 0. -1.
         11    1    3    3    0    0  0.13700639451E+02  0.62910289385E+00 -0.61107780923E+01  0.15014822709E+02  0.51100000000E-03 0. -1.
        -11    1    3    3    0    0  0.14691956867E+02 -0.19747273657E+02 -0.42946980835E+01  0.24985052438E+02  0.51100000000E-03 0.  1.
         12    1    3    3    0    0  0.49901049766E+01 -0.40031022109E+01  0.83625358882E+01  0.10528911694E+02  0.00000000000E+00 0. -1.
</event>
<event>
 7    1  0.2432574E-011  0.5052887E+02  0.7816164E-02  0.1300439E+00
        -11   -1    0    0    0    0  0.00000000000E+00  0.00000000000E+00  0.45593999997E+02  0.45594000000E+02  0.51100000000E-03 0. -1.
         11   -1    0    0    0    0 -0.00000000000E+00 -0.00000000000E+00 -0.45593999997E+02  0.45594000000E+02  0.51100000000E-03 0.  1.
    9900012    2    1    2    0    0  0.22497937010E+02  0.22423417691E+02 -0.25381062912E+02  0.50528865907E+02  0.30000018412E+02 0.  0.
         12    1    1    2    0    0 -0.22497937010E+02 -0.22423417691E+02  0.25381062912E+02  0.40659134093E+02  0.00000000000E+00 0. -1.
         11    1    3    3    0    0  0.14105719250E+02  0.22408457880E+02 -0.69881851480E+01  0.27385124284E+02  0.51100000000E-03 0. -1.
        -11    1    3    3    0    0 -0.78937388152E+00 -0.51670340538E+00  0.11841480590E+01  0.15140344847E+01  0.51100000000E-03 0.  1.
        -12    1    3    3    0    0  0.91815916412E+01  0.53166321581E+00 -0.19577025823E+02  0.21629707139E+02  0.00000000000E+00 0.  1.
</event>
<event>
 7    1  0.2432574E-011  0.5052887E+02  0.7816164E-02  0.1300439E+00
        -11   -1    0    0    0    0  0.00000000000E+00  0.00000000000E+00  0.45593999997E+02  0.45594000000E+02  0.51100000000E-03 0.  1.
         11   -1    0    0    0    0 -0.00000000000E+00 -0.00000000000E+00 -0.45593999997E+02  0.45594000000E+02  0.51100000000E-03 0. -1.
    9900012    2    1    2    0    0  0.35104336615E+02 -0.11075231692E+02  0.17268163968E+02  0.50528871960E+02  0.30000036808E+02 0.  0.
         12    1    1    2    0    0 -0.35104336615E+02  0.11075231692E+02 -0.17268163968E+02  0.40659128040E+02  0.00000000000E+00 0. -1.
         11    1    3    3    0    0  0.72981362405E+01 -0.13801195901E+02  0.46799720293E+01  0.16298402969E+02  0.51100000000E-03 0. -1.
        -11    1    3    3    0    0  0.17520837603E+02 -0.57976304252E+01  0.67256748975E+01  0.19642478763E+02  0.51100000000E-03 0.  1.
         12    1    3    3    0    0  0.10285362771E+02  0.85235946343E+01  0.58625170408E+01  0.14587990227E+02  0.00000000000E+00 0. -1.
</event>
<event>
 7    1  0.2432574E-011  0.5052890E+02  0.7816164E-02  0.1300439E+00
        -11   -1    0    0    0    0  0.00000000000E+00  0.00000000000E+00  0.45593999997E+02  0.45594000000E+02  0.51100000000E-03 0.  1.
         11   -1    0    0    0    0 -0.00000000000E+00 -0.00000000000E+00 -0.45593999997E+02  0.45594000000E+02  0.51100000000E-03 0. -1.
    9900012    2    1    2    0    0  0.18405291315E+02  0.12723904909E+02  0.33948630963E+02  0.50528904476E+02  0.30000135645E+02 0.  0.
         12    1    1    2    0    0 -0.18405291315E+02 -0.12723904909E+02 -0.33948630963E+02  0.40659095524E+02  0.00000000000E+00 0. -1.
         11    1    3    3    0    0 -0.53006220384E+01  0.12496402069E+01  0.14068118259E+01  0.56247057181E+01  0.51100000000E-03 0. -1.
        -11    1    3    3    0    0  0.97467019838E+01  0.85526217110E+01  0.50165994283E+01  0.13903661668E+02  0.51100000000E-03 0.  1.
        -12    1    3    3    0    0  0.13959211370E+02  0.29216429912E+01  0.27525219709E+02  0.31000537090E+02  0.00000000000E+00 0.  1.
</event>
<event>
 7    1  0.2432574E-011  0.5052885E+02  0.7816164E-02  0.1300439E+00
        -11   -1    0    0    0    0  0.00000000000E+00  0.00000000000E+00  0.45593999997E+02  0.45594000000E+02  0.51100000000E-03 0.  1.
         11   -1    0    0    0    0 -0.00000000000E+00 -0.00000000000E+00 -0.45593999997E+02  0.45594000000E+02  0.51100000000E-03 0. -1.
    9900012    2    1    2    0    0  0.42381799548E+01  0.31349774867E+02  0.25542050262E+02  0.50528845002E+02  0.29999954869E+02 0.  0.
         12    1    1    2    0    0 -0.42381799548E+01 -0.31349774867E+02 -0.25542050262E+02  0.40659154998E+02  0.00000000000E+00 0. -1.
         11    1    3    3    0    0  0.16345380710E+01 -0.39962748853E+00 -0.24597823887E+01  0.29802594679E+01  0.51100000000E-03 0.  1.
        -11    1    3    3    0    0 -0.30135348401E+01  0.42224160593E+01 -0.27701598296E+01  0.58808141743E+01  0.51100000000E-03 0. -1.
        -12    1    3    3    0    0  0.56171767239E+01  0.27526986297E+02  0.30771992480E+02  0.41667771360E+02  0.00000000000E+00 0.  1.
</event>
<event>
 7    1  0.2432574E-011  0.5052885E+02  0.7816164E-02  0.1300439E+00
        -11   -1    0    0    0    0  0.00000000000E+00  0.00000000000E+00  0.45593999997E+02  0.45594000000E+02  0.51100000000E-03 0. -1.
         11   -1    0    0    0    0 -0.00000000000E+00 -0.00000000000E+00 -0.45593999997E+02  0.45594000000E+02  0.51100000000E-03 0.  1.
    9900012    2    1    2    0    0  0.14673476529E+02  0.83342039934E+01 -0.36991841806E+02  0.50528853061E+02  0.29999979364E+02 0.  0.
         12    1    1    2    0    0 -0.14673476529E+02 -0.83342039934E+01  0.36991841806E+02  0.40659146939E+02  0.00000000000E+00 0. -1.
         11    1    3    3    0    0  0.35727317051E+01  0.10626044501E+02 -0.31146269071E+01  0.11635210983E+02  0.51100000000E-03 0. -1.
        -11    1    3    3    0    0  0.85866653634E+00 -0.59341984254E+01 -0.42899079683E+01  0.73726067174E+01  0.51100000000E-03 0.  1.
        -12    1    3    3    0    0  0.10242078287E+02  0.36423579176E+01 -0.29587306930E+02  0.31521035361E+02  0.00000000000E+00 0.  1.
</event>
<event>
 7    1  0.2432574E-011  0.5052887E+02  0.7816164E-02  0.1300439E+00
        -11   -1    0    0    0    0  0.00000000000E+00  0.00000000000E+00  0.45593999997E+02  0.45594000000E+02  0.51100000000E-03 0.  1.
         11   -1    0    0    0    0 -0.00000000000E+00 -0.00000000000E+00 -0.45593999997E+02  0.45594000000E+02  0.51100000000E-03 0. -1.
    9900012    2    1    2    0    0  0.27998646544E+02 -0.58281057718E+01  0.28901110825E+02  0.50528865330E+02  0.30000016657E+02 0.  0.
         12    1    1    2    0    0 -0.27998646544E+02  0.58281057718E+01 -0.28901110825E+02  0.40659134670E+02  0.00000000000E+00 0. -1.
         11    1    3    3    0    0 -0.11277900011E+01  0.27998208325E+01  0.18302557857E+01  0.35299778303E+01  0.51100000000E-03 0. -1.
        -11    1    3    3    0    0  0.57586379357E+01  0.56568855307E+01  0.15072189276E+02  0.17097752911E+02  0.51100000000E-03 0.  1.
         12    1    3    3    0    0  0.23367798609E+02 -0.14284812135E+02  0.11998665763E+02  0.29901134588E+02  0.00000000000E+00 0. -1.
</event>
<event>
 7    1  0.2432574E-011  0.5052885E+02  0.7816164E-02  0.1300439E+00
        -11   -1    0    0    0    0  0.00000000000E+00  0.00000000000E+00  0.45593999997E+02  0.45594000000E+02  0.51100000000E-03 0. -1.
         11   -1    0    0    0    0 -0.00000000000E+00 -0.00000000000E+00 -0.45593999997E+02  0.45594000000E+02  0.51100000000E-03 0.  1.
    9900012    2    1    2    0    0 -0.36401258258E+02  0.16411254431E+02  0.76671584299E+01  0.50528853512E+02  0.29999980736E+02 0.  0.
         12    1    1    2    0    0  0.36401258258E+02 -0.16411254431E+02 -0.76671584299E+01  0.40659146488E+02  0.00000000000E+00 0. -1.
         11    1    3    3    0    0  0.42207209943E+00 -0.21803685157E+00  0.29358229311E+01  0.29740110070E+01  0.51100000000E-03 0. -1.
        -11    1    3    3    0    0 -0.15087681316E+02 -0.15140597899E+01 -0.72544616435E+01  0.16809453249E+02  0.51100000000E-03 0.  1.
         12    1    3    3    0    0 -0.21735649041E+02  0.18143351072E+02  0.11985797142E+02  0.30745389256E+02  0.00000000000E+00 0. -1.
</event>
<event>
 7    1  0.2432574E-011  0.5052887E+02  0.7816164E-02  0.1300439E+00
        -11   -1    0    0    0    0  0.00000000000E+00  0.00000000000E+00  0.45593999997E+02  0.45594000000E+02  0.51100000000E-03 0. -1.
         11   -1    0    0    0    0 -0.00000000000E+00 -0.00000000000E+00 -0.45593999997E+02  0.45594000000E+02  0.51100000000E-03 0.  1.
    9900012    2    1    2    0    0  0.72902532467E+01 -0.22708113401E+02 -0.32929601103E+02  0.50528870209E+02  0.30000031486E+02 0.  0.
         12    1    1    2    0    0 -0.72902532467E+01  0.22708113401E+02  0.32929601103E+02  0.40659129791E+02  0.00000000000E+00 0. -1.
         11    1    3    3    0    0  0.24130885232E+01 -0.34171799074E+01 -0.13515127710E+02  0.14147748656E+02  0.51100000000E-03 0. -1.
        -11    1    3    3    0    0  0.13014367442E+02 -0.15576447300E+02 -0.78543635439E+01  0.21764431932E+02  0.51100000000E-03 0.  1.
         12    1    3    3    0    0 -0.81372027180E+01 -0.37144861930E+01 -0.11560109849E+02  0.14616689621E+02  0.00000000000E+00 0. -1.
</event>
<event>
 7    1  0.2432574E-011  0.5052884E+02  0.7816164E-02  0.1300439E+00
        -11   -1    0    0    0    0  0.00000000000E+00  0.00000000000E+00  0.45593999997E+02  0.45594000000E+02  0.51100000000E-03 0. -1.
         11   -1    0    0    0    0 -0.00000000000E+00 -0.00000000000E+00 -0.45593999997E+02  0.45594000000E+02  0.51100000000E-03 0.  1.
    9900012    2    1    2    0    0 -0.19996578029E+02 -0.86959419361E+01 -0.34317406380E+02  0.50528844578E+02  0.29999953578E+02 0.  0.
         12    1    1    2    0    0  0.19996578029E+02  0.86959419361E+01  0.34317406380E+02  0.40659155422E+02  0.00000000000E+00 0. -1.
         11    1    3    3    0    0 -0.12669315157E+02  0.84893887181E+00 -0.91024908841E+01  0.15623302606E+02  0.51100000000E-03 0. -1.
        -11    1    3    3    0    0 -0.41718644462E+01  0.54705907337E+01 -0.14915908624E+02  0.16426081282E+02  0.51100000000E-03 0.  1.
         12    1    3    3    0    0 -0.31553984261E+01 -0.15015471542E+02 -0.10299006871E+02  0.18479460690E+02  0.00000000000E+00 0. -1.
</event>
<event>
 7    1  0.2432574E-011  0.5052886E+02  0.7816164E-02  0.1300439E+00
        -11   -1    0    0    0    0  0.00000000000E+00  0.00000000000E+00  0.45593999997E+02  0.45594000000E+02  0.51100000000E-03 0. -1.
         11   -1    0    0    0    0 -0.00000000000E+00 -0.00000000000E+00 -0.45593999997E+02  0.45594000000E+02  0.51100000000E-03 0.  1.
    9900012    2    1    2    0    0  0.32133398847E+01  0.26554547479E+02 -0.30621818828E+02  0.50528864085E+02  0.30000012873E+02 0.  0.
         12    1    1    2    0    0 -0.32133398847E+01 -0.26554547479E+02  0.30621818828E+02  0.40659135915E+02  0.00000000000E+00 0. -1.
         11    1    3    3    0    0 -0.27853217197E+01 -0.41906030542E+01 -0.66098817293E+01  0.83072081819E+01  0.51100000000E-03 0. -1.
        -11    1    3    3    0    0  0.74036858306E+01  0.12035107318E+02 -0.17201955379E+02  0.22261303672E+02  0.51100000000E-03 0.  1.
         12    1    3    3    0    0 -0.14050242261E+01  0.18710043215E+02 -0.68099817193E+01  0.19960352232E+02  0.00000000000E+00 0. -1.
</event>
<event>
 7    1  0.2432574E-011  0.5052886E+02  0.7816164E-02  0.1300439E+00
        -11   -1    0    0    0    0  0.00000000000E+00  0.00000000000E+00  0.45593999997E+02  0.45594000000E+02  0.51100000000E-03 0.  1.
         11   -1    0    0    0    0 -0.00000000000E+00 -0.00000000000E+00 -0.45593999997E+02  0.45594000000E+02  0.51100000000E-03 0. -1.
    9900012    2    1    2    0    0  0.40643047017E+02 -0.11431065691E+01 -0.40050312134E-01  0.50528861206E+02  0.30000004120E+02 0.  0.
         12    1    1    2    0    0 -0.40643047017E+02  0.11431065691E+01  0.40050312134E-01  0.40659138794E+02  0.00000000000E+00 0. -1.
         11    1    3    3    0    0  0.14545874511E+02 -0.23459638755E+01 -0.54801591373E+01  0.15719992247E+02  0.51100000000E-03 0.  1.
        -11    1    3    3    0    0  0.16832144328E+02  0.10492827491E+02 -0.16356137554E+01  0.19902154256E+02  0.51100000000E-03 0. -1.
         12    1    3    3    0    0  0.92650281785E+01 -0.92899701849E+01  0.70757225806E+01  0.14906714703E+02  0.00000000000E+00 0. -1.
</event>
<event>
 7    1  0.2432574E-011  0.5052886E+02  0.7816164E-02  0.1300439E+00
        -11   -1    0    0    0    0  0.00000000000E+00  0.00000000000E+00  0.45593999997E+02  0.45594000000E+02  0.51100000000E-03 0. -1.
         11   -1    0    0    0    0 -0.00000000000E+00 -0.00000000000E+00 -0.45593999997E+02  0.45594000000E+02  0.51100000000E-03 0.  1.
    9900012    2    1    2    0    0 -0.11466568312E+02 -0.24485249225E+01 -0.38931841096E+02  0.50528859401E+02  0.29999998635E+02 0.  0.
         12    1    1    2    0    0  0.11466568312E+02  0.24485249225E+01  0.38931841096E+02  0.40659140599E+02  0.00000000000E+00 0. -1.
         11    1    3    3    0    0  0.69016400720E+01 -0.66854064028E+01 -0.11763404522E+02  0.15188975629E+02  0.51100000000E-03 0. -1.
        -11    1    3    3    0    0  0.31783951147E+00 -0.25182420123E-01 -0.87586374776E+01  0.87644387633E+01  0.51100000000E-03 0.  1.
         12    1    3    3    0    0 -0.18686047896E+02  0.42620639004E+01 -0.18409799096E+02  0.26575445008E+02  0.00000000000E+00 0. -1.
</event>
<event>
 7    1  0.2432574E-011  0.5052886E+02  0.7816164E-02  0.1300439E+00
        -11   -1    0    0    0    0  0.00000000000E+00  0.00000000000E+00  0.45593999997E+02  0.45594000000E+02  0.51100000000E-03 0.  1.
         11   -1    0    0    0    0 -0.00000000000E+00 -0.00000000000E+00 -0.45593999997E+02  0.45594000000E+02  0.51100000000E-03 0. -1.
    9900012    2    1    2    0    0  0.23730787147E+02 -0.12602433898E+02  0.30515470616E+02  0.50528861474E+02  0.30000004935E+02 0.  0.
         12    1    1    2    0    0 -0.23730787147E+02  0.12602433898E+02 -0.30515470616E+02  0.40659138526E+02  0.00000000000E+00 0. -1.
         11    1    3    3    0    0  0.72068541611E+00  0.31369763414E-01 -0.22535534567E+01  0.23661941963E+01  0.51100000000E-03 0. -1.
        -11    1    3    3    0    0  0.16991611992E+02  0.28721623736E+01  0.98658494985E+01  0.19856968081E+02  0.51100000000E-03 0.  1.
        -12    1    3    3    0    0  0.60184897392E+01 -0.15505966035E+02  0.22903174575E+02  0.28305699197E+02  0.00000000000E+00 0.  1.
</event>
<event>
 7    1  0.2432574E-011  0.5052885E+02  0.7816164E-02  0.1300439E+00
        -11   -1    0    0    0    0  0.00000000000E+00  0.00000000000E+00  0.45593999997E+02  0.45594000000E+02  0.51100000000E-03 0.  1.
         11   -1    0    0    0    0 -0.00000000000E+00 -0.00000000000E+00 -0.45593999997E+02  0.45594000000E+02  0.51100000000E-03 0. -1.
    9900012    2    1    2    0    0  0.17422839225E+02 -0.13822208722E+02  0.34037595354E+02  0.50528847548E+02  0.29999962607E+02 0.  0.
         12    1    1    2    0    0 -0.17422839225E+02  0.13822208722E+02 -0.34037595354E+02  0.40659152452E+02  0.00000000000E+00 0. -1.
         11    1    3    3    0    0 -0.15347593440E+00  0.57673766939E+01  0.35288729606E+01  0.67630713011E+01  0.51100000000E-03 0.  1.
        -11    1    3    3    0    0 -0.17325150980E+01 -0.47481103493E+01  0.44245745497E+00  0.50736504919E+01  0.51100000000E-03 0. -1.
        -12    1    3    3    0    0  0.19308830257E+02 -0.14841475066E+02  0.30066264939E+02  0.38692125755E+02  0.00000000000E+00 0.  1.
</event>
<event>
 7    1  0.2432574E-011  0.5052884E+02  0.7816164E-02  0.1300439E+00
        -11   -1    0    0    0    0  0.00000000000E+00  0.00000000000E+00  0.45593999997E+02  0.45594000000E+02  0.51100000000E-03 0. -1.
         11   -1    0    0    0    0 -0.00000000000E+00 -0.00000000000E+00 -0.45593999997E+02  0.45594000000E+02  0.51100000000E-03 0.  1.
    9900012    2    1    2    0    0 -0.26386022615E+01 -0.79292969771E+01 -0.39791099958E+02  0.50528836109E+02  0.29999927836E+02 0.  0.
         12    1    1    2    0    0  0.26386022615E+01  0.79292969771E+01  0.39791099958E+02  0.40659163891E+02  0.00000000000E+00 0. -1.
         11    1    3    3    0    0  0.19855445576E+01 -0.97339095890E+01 -0.51823491842E+01  0.11204826032E+02  0.51100000000E-03 0. -1.
        -11    1    3    3    0    0  0.57932722150E+01  0.50587405670E+01 -0.12698399150E+02  0.14845948953E+02  0.51100000000E-03 0.  1.
        -12    1    3    3    0    0 -0.10417419034E+02 -0.32541279551E+01 -0.21910351625E+02  0.24478061124E+02  0.00000000000E+00 0.  1.
</event>
<event>
 7    1  0.2432574E-011  0.5052883E+02  0.7816164E-02  0.1300439E+00
        -11   -1    0    0    0    0  0.00000000000E+00  0.00000000000E+00  0.45593999997E+02  0.45594000000E+02  0.51100000000E-03 0.  1.
         11   -1    0    0    0    0 -0.00000000000E+00 -0.00000000000E+00 -0.45593999997E+02  0.45594000000E+02  0.51100000000E-03 0. -1.
    9900012    2    1    2    0    0  0.78870621158E+01 -0.20398887043E+02  0.34276050050E+02  0.50528831927E+02  0.29999915124E+02 0.  0.
         12    1    1    2    0    0 -0.78870621158E+01  0.20398887043E+02 -0.34276050050E+02  0.40659168073E+02  0.00000000000E+00 0. -1.
         11    1    3    3    0    0 -0.27090049413E+01  0.36218071561E+00  0.18329552552E+02  0.18532198457E+02  0.51100000000E-03 0. -1.
        -11    1    3    3    0    0  0.99244174575E+01 -0.41873765452E+01  0.89076957832E+01  0.13977668927E+02  0.51100000000E-03 0.  1.
        -12    1    3    3    0    0  0.67164959954E+00 -0.16573691213E+02  0.70388017149E+01  0.18018964543E+02  0.00000000000E+00 0.  1.
</event>
<event>
 7    1  0.2432574E-011  0.5052886E+02  0.7816164E-02  0.1300439E+00
        -11   -1    0    0    0    0  0.00000000000E+00  0.00000000000E+00  0.45593999997E+02  0.45594000000E+02  0.51100000000E-03 0.  1.
         11   -1    0    0    0    0 -0.00000000000E+00 -0.00000000000E+00 -0.45593999997E+02  0.45594000000E+02  0.51100000000E-03 0. -1.
    9900012    2    1    2    0    0 -0.23174699187E+01 -0.31800686586E+02  0.25229183599E+02  0.50528855404E+02  0.29999986487E+02 0.  0.
         12    1    1    2    0    0  0.23174699187E+01  0.31800686586E+02 -0.25229183599E+02  0.40659144596E+02  0.00000000000E+00 0. -1.
         11    1    3    3    0    0  0.39264164684E+01  0.95669820187E+00  0.66960399378E+01  0.78210593171E+01  0.51100000000E-03 0. -1.
        -11    1    3    3    0    0  0.69451003677E+01 -0.10192226925E+02  0.55738568093E+01  0.13534540583E+02  0.51100000000E-03 0.  1.
         12    1    3    3    0    0 -0.13188986755E+02 -0.22565157863E+02  0.12959286852E+02  0.29173255504E+02  0.00000000000E+00 0. -1.
</event>
<event>
 7    1  0.2432574E-011  0.5052877E+02  0.7816164E-02  0.1300439E+00
        -11   -1    0    0    0    0  0.00000000000E+00  0.00000000000E+00  0.45593999997E+02  0.45594000000E+02  0.51100000000E-03 0.  1.
         11   -1    0    0    0    0 -0.00000000000E+00 -0.00000000000E+00 -0.45593999997E+02  0.45594000000E+02  0.51100000000E-03 0. -1.
    9900012    2    1    2    0    0 -0.12646900396E+02 -0.30371926396E+02  0.23890896785E+02  0.50528770398E+02  0.29999728101E+02 0.  0.
         12    1    1    2    0    0  0.12646900396E+02  0.30371926396E+02 -0.23890896785E+02  0.40659229602E+02  0.00000000000E+00 0. -1.
         11    1    3    3    0    0  0.22406682175E+01 -0.11740884218E+02  0.11021024320E+02  0.16258288151E+02  0.51100000000E-03 0. -1.
        -11    1    3    3    0    0 -0.10586346905E+02 -0.23108821402E+02  0.90537691016E+01  0.26982570348E+02  0.51100000000E-03 0.  1.
         12    1    3    3    0    0 -0.43012217088E+01  0.44777792240E+01  0.38161033643E+01  0.72879118994E+01  0.00000000000E+00 0. -1.
</event>
<event>
 7    1  0.2432574E-011  0.5052886E+02  0.7816164E-02  0.1300439E+00
        -11   -1    0    0    0    0  0.00000000000E+00  0.00000000000E+00  0.45593999997E+02  0.45594000000E+02  0.51100000000E-03 0.  1.
         11   -1    0    0    0    0 -0.00000000000E+00 -0.00000000000E+00 -0.45593999997E+02  0.45594000000E+02  0.51100000000E-03 0. -1.
    9900012    2    1    2    0    0  0.18343219802E+02  0.20643823016E+02  0.29841654702E+02  0.50528862075E+02  0.30000006763E+02 0.  0.
         12    1    1    2    0    0 -0.18343219802E+02 -0.20643823016E+02 -0.29841654702E+02  0.40659137925E+02  0.00000000000E+00 0. -1.
         11    1    3    3    0    0  0.19330387106E+01 -0.23987927420E+01 -0.29603575390E+01  0.42725358156E+01  0.51100000000E-03 0. -1.
        -11    1    3    3    0    0  0.53080706884E+01  0.10045337754E+02  0.27603075840E+01  0.11692036745E+02  0.51100000000E-03 0.  1.
        -12    1    3    3    0    0  0.11102110403E+02  0.12997278004E+02  0.30041704657E+02  0.34564289514E+02  0.00000000000E+00 0.  1.
</event>
<event>
 7    1  0.2432574E-011  0.5052888E+02  0.7816164E-02  0.1300439E+00
        -11   -1    0    0    0    0  0.00000000000E+00  0.00000000000E+00  0.45593999997E+02  0.45594000000E+02  0.51100000000E-03 0. -1.
         11   -1    0    0    0    0 -0.00000000000E+00 -0.00000000000E+00 -0.45593999997E+02  0.45594000000E+02  0.51100000000E-03 0.  1.
    9900012    2    1    2    0    0 -0.60985817283E+01 -0.22246844723E+02 -0.33482068183E+02  0.50528884306E+02  0.30000074336E+02 0.  0.
         12    1    1    2    0    0  0.60985817283E+01  0.22246844723E+02  0.33482068183E+02  0.40659115694E+02  0.00000000000E+00 0. -1.
         11    1    3    3    0    0  0.42349811724E+01 -0.19245746180E+01 -0.14197200038E+01  0.48636054672E+01  0.51100000000E-03 0. -1.
        -11    1    3    3    0    0  0.21466564407E+01 -0.86831755478E+01 -0.26097160274E+02  0.27587450881E+02  0.51100000000E-03 0.  1.
         12    1    3    3    0    0 -0.12480219341E+02 -0.11639094558E+02 -0.59651879043E+01  0.18077827958E+02  0.00000000000E+00 0. -1.
</event>
<event>
 7    1  0.2432574E-011  0.5052885E+02  0.7816164E-02  0.1300439E+00
        -11   -1    0    0    0    0  0.00000000000E+00  0.00000000000E+00  0.45593999997E+02  0.45594000000E+02  0.51100000000E-03 0.  1.
         11   -1    0    0    0    0 -0.00000000000E+00 -0.00000000000E+00 -0.45593999997E+02  0.45594000000E+02  0.51100000000E-03 0. -1.
    9900012    2    1    2    0    0  0.32561021290E+02 -0.13479462404E+02  0.20279314121E+02  0.50528848566E+02  0.29999965701E+02 0.  0.
         12    1    1    2    0    0 -0.32561021290E+02  0.13479462404E+02 -0.20279314121E+02  0.40659151434E+02  0.00000000000E+00 0. -1.
         11    1    3    3    0    0  0.15240928556E+02  0.35206486244E+01 -0.12186496716E+01  0.15689677412E+02  0.51100000000E-03 0. -1.
        -11    1    3    3    0    0  0.14806737442E+00 -0.61637196996E+01  0.92798551707E+01  0.11141322935E+02  0.51100000000E-03 0.  1.
        -12    1    3    3    0    0  0.17172025359E+02 -0.10836391329E+02  0.12218108622E+02  0.23697848220E+02  0.00000000000E+00 0.  1.
</event>
<event>
 7    1  0.2432574E-011  0.5052886E+02  0.7816164E-02  0.1300439E+00
        -11   -1    0    0    0    0  0.00000000000E+00  0.00000000000E+00  0.45593999997E+02  0.45594000000E+02  0.51100000000E-03 0.  1.
         11   -1    0    0    0    0 -0.00000000000E+00 -0.00000000000E+00 -0.45593999997E+02  0.45594000000E+02  0.51100000000E-03 0. -1.
    9900012    2    1    2    0    0  0.36820379748E+01 -0.33332266870E+01  0.40354651562E+02  0.50528859497E+02  0.29999998926E+02 0.  0.
         12    1    1    2    0    0 -0.36820379748E+01  0.33332266870E+01 -0.40354651562E+02  0.40659140503E+02  0.00000000000E+00 0. -1.
         11    1    3    3    0    0 -0.36096050581E+00 -0.17506724516E+01  0.20585899779E+02  0.20663359274E+02  0.51100000000E-03 0. -1.
        -11    1    3    3    0    0  0.54097223477E+01  0.30655576532E+01  0.23141471271E+02  0.23962271021E+02  0.51100000000E-03 0.  1.
         12    1    3    3    0    0 -0.13667238671E+01 -0.46481118885E+01 -0.33727194888E+01  0.59032292016E+01  0.00000000000E+00 0. -1.
</event>
<event>
 7    1  0.2432574E-011  0.5052886E+02  0.7816164E-02  0.1300439E+00
        -11   -1    0    0    0    0  0.00000000000E+00  0.00000000000E+00  0.45593999997E+02  0.45594000000E+02  0.51100000000E-03 0.  1.
         11   -1    0    0    0    0 -0.00000000000E+00 -0.00000000000E+00 -0.45593999997E+02  0.45594000000E+02  0.51100000000E-03 0. -1.
    9900012    2    1    2    0    0  0.13331434413E+02  0.26783259821E+01  0.38317950698E+02  0.50528856880E+02  0.29999990972E+02 0.  0.
         12    1    1    2    0    0 -0.13331434413E+02 -0.26783259821E+01 -0.38317950698E+02  0.40659143120E+02  0.00000000000E+00 0. -1.
         11    1    3    3    0    0  0.60723403049E+01 -0.54058042906E+00  0.54010054054E+01  0.81447163014E+01  0.51100000000E-03 0. -1.
        -11    1    3    3    0    0  0.46323633889E+01 -0.73660416497E+01  0.29795660572E+02  0.31040276244E+02  0.51100000000E-03 0.  1.
        -12    1    3    3    0    0  0.26267307191E+01  0.10584948061E+02  0.31212847208E+01  0.11343864334E+02  0.00000000000E+00 0.  1.
</event>
<event>
 7    1  0.2432574E-011  0.5052885E+02  0.7816164E-02  0.1300439E+00
        -11   -1    0    0    0    0  0.00000000000E+00  0.00000000000E+00  0.45593999997E+02  0.45594000000E+02  0.51100000000E-03 0.  1.
         11   -1    0    0    0    0 -0.00000000000E+00 -0.00000000000E+00 -0.45593999997E+02  0.45594000000E+02  0.51100000000E-03 0. -1.
    9900012    2    1    2    0    0  0.12939788536E+02  0.15093580923E+02  0.35467051956E+02  0.50528854819E+02  0.29999984707E+02 0.  0.
         12    1    1    2    0    0 -0.12939788536E+02 -0.15093580923E+02 -0.35467051956E+02  0.40659145181E+02  0.00000000000E+00 0. -1.
         11    1    3    3    0    0  0.32531135631E+00 -0.72939426350E+01  0.75283179603E+01  0.10487277922E+02  0.51100000000E-03 0. -1.
        -11    1    3    3    0    0  0.38890738900E+01  0.68897717127E+01  0.13095171955E+01  0.80192696376E+01  0.51100000000E-03 0.  1.
        -12    1    3    3    0    0  0.87254032900E+01  0.15497751845E+02  0.26629216800E+02  0.32022307259E+02  0.00000000000E+00 0.  1.
</event>
<event>
 7    1  0.2432574E-011  0.5052887E+02  0.7816164E-02  0.1300439E+00
        -11   -1    0    0    0    0  0.00000000000E+00  0.00000000000E+00  0.45593999997E+02  0.45594000000E+02  0.51100000000E-03 0.  1.
         11   -1    0    0    0    0 -0.00000000000E+00 -0.00000000000E+00 -0.45593999997E+02  0.45594000000E+02  0.51100000000E-03 0. -1.
    9900012    2    1    2    0    0  0.26530186726E+02  0.79155931483E+01  0.29776794448E+02  0.50528869289E+02  0.30000028691E+02 0.  0.
         12    1    1    2    0    0 -0.26530186726E+02 -0.79155931483E+01 -0.29776794448E+02  0.40659130711E+02  0.00000000000E+00 0. -1.
         11    1    3    3    0    0  0.96747129431E+01  0.10607120689E+02  0.10730901179E+02  0.17923819911E+02  0.51100000000E-03 0. -1.
        -11    1    3    3    0    0  0.18198060423E+02 -0.47209156690E+01  0.21894454912E+02  0.28858683339E+02  0.51100000000E-03 0.  1.
         12    1    3    3    0    0 -0.13425866408E+01  0.20293881286E+01 -0.28485616425E+01  0.37463660387E+01  0.00000000000E+00 0. -1.
</event>
<event>
 7    1  0.2432574E-011  0.5052886E+02  0.7816164E-02  0.1300439E+00
        -11   -1    0    0    0    0  0.00000000000E+00  0.00000000000E+00  0.45593999997E+02  0.45594000000E+02  0.51100000000E-03 0.  1.
         11   -1    0    0    0    0 -0.00000000000E+00 -0.00000000000E+00 -0.45593999997E+02  0.45594000000E+02  0.51100000000E-03 0. -1.
    9900012    2    1    2    0    0  0.13990805300E+02  0.27903852430E+02  0.26053755260E+02  0.50528858635E+02  0.29999996307E+02 0.  0.
         12    1    1    2    0    0 -0.13990805300E+02 -0.27903852430E+02 -0.26053755260E+02  0.40659141365E+02  0.00000000000E+00 0. -1.
         11    1    3    3    0    0  0.13741248308E+02  0.22498375869E+02  0.15058107903E+02  0.30360260797E+02  0.51100000000E-03 0. -1.
        -11    1    3    3    0    0 -0.26447087439E+01  0.10329750908E+02  0.46554094780E+01  0.11634907642E+02  0.51100000000E-03 0.  1.
        -12    1    3    3    0    0  0.28942657358E+01 -0.49242743469E+01  0.63402378795E+01  0.85336901960E+01  0.00000000000E+00 0.  1.
</event>
<event>
 7    1  0.2432574E-011  0.5052885E+02  0.7816164E-02  0.1300439E+00
        -11   -1    0    0    0    0  0.00000000000E+00  0.00000000000E+00  0.45593999997E+02  0.45594000000E+02  0.51100000000E-03 0. -1.
         11   -1    0    0    0    0 -0.00000000000E+00 -0.00000000000E+00 -0.45593999997E+02  0.45594000000E+02  0.51100000000E-03 0.  1.
    9900012    2    1    2    0    0 -0.29291365420E+02  0.27943525860E+02  0.37870118146E+01  0.50528853622E+02  0.29999981069E+02 0.  0.
         12    1    1    2    0    0  0.29291365420E+02 -0.27943525860E+02 -0.37870118146E+01  0.40659146378E+02  0.00000000000E+00 0. -1.
         11    1    3    3    0    0 -0.19242215125E+01  0.48023744172E+00 -0.39691558131E+01  0.44370547168E+01  0.51100000000E-03 0. -1.
        -11    1    3    3    0    0 -0.24548024203E+02  0.13030887199E+02 -0.28831543218E+01  0.27941404628E+02  0.51100000000E-03 0.  1.
        -12    1    3    3    0    0 -0.28191197045E+01  0.14432401220E+02  0.10639321949E+02  0.18150394277E+02  0.00000000000E+00 0.  1.
</event>
<event>
 7    1  0.2432574E-011  0.5052886E+02  0.7816164E-02  0.1300439E+00
        -11   -1    0    0    0    0  0.00000000000E+00  0.00000000000E+00  0.45593999997E+02  0.45594000000E+02  0.51100000000E-03 0. -1.
         11   -1    0    0    0    0 -0.00000000000E+00 -0.00000000000E+00 -0.45593999997E+02  0.45594000000E+02  0.51100000000E-03 0.  1.
    9900012    2    1    2    0    0 -0.33947723052E+02 -0.43154634940E+01  0.21956655960E+02  0.50528857528E+02  0.29999992943E+02 0.  0.
         12    1    1    2    0    0  0.33947723052E+02  0.43154634940E+01 -0.21956655960E+02  0.40659142472E+02  0.00000000000E+00 0. -1.
         11    1    3    3    0    0 -0.90383936411E+01  0.90760769986E+01  0.14815687341E+02  0.19585002551E+02  0.51100000000E-03 0. -1.
        -11    1    3    3    0    0  0.13989033486E+00 -0.29599323026E+01  0.95293318639E+00  0.31126918351E+01  0.51100000000E-03 0.  1.
        -12    1    3    3    0    0 -0.25049219746E+02 -0.10431608190E+02  0.61880354328E+01  0.27831163142E+02  0.00000000000E+00 0.  1.
</event>
<event>
 7    1  0.2432574E-011  0.5052886E+02  0.7816164E-02  0.1300439E+00
        -11   -1    0    0    0    0  0.00000000000E+00  0.00000000000E+00  0.45593999997E+02  0.45594000000E+02  0.51100000000E-03 0.  1.
         11   -1    0    0    0    0 -0.00000000000E+00 -0.00000000000E+00 -0.45593999997E+02  0.45594000000E+02  0.51100000000E-03 0. -1.
    9900012    2    1    2    0    0 -0.31406399545E+01 -0.33646235508E+02  0.22610462313E+02  0.50528858479E+02  0.29999995834E+02 0.  0.
         12    1    1    2    0    0  0.31406399545E+01  0.33646235508E+02 -0.22610462313E+02  0.40659141521E+02  0.00000000000E+00 0. -1.
         11    1    3    3    0    0  0.65504249768E+01 -0.22472510210E+02  0.32813459541E+01  0.23636603268E+02  0.51100000000E-03 0. -1.
        -11    1    3    3    0    0  0.22365621560E+01 -0.98720704119E+00  0.53477399920E+01  0.58800604846E+01  0.51100000000E-03 0.  1.
        -12    1    3    3    0    0 -0.11927627087E+02 -0.10186518257E+02  0.13981376367E+02  0.21012194727E+02  0.00000000000E+00 0.  1.
</event>
<event>
 7    1  0.2432574E-011  0.5052886E+02  0.7816164E-02  0.1300439E+00
        -11   -1    0    0    0    0  0.00000000000E+00  0.00000000000E+00  0.45593999997E+02  0.45594000000E+02  0.51100000000E-03 0. -1.
         11   -1    0    0    0    0 -0.00000000000E+00 -0.00000000000E+00 -0.45593999997E+02  0.45594000000E+02  0.51100000000E-03 0.  1.
    9900012    2    1    2    0    0 -0.86176442269E+01  0.86075815538E+01 -0.38791895471E+02  0.50528863186E+02  0.30000010140E+02 0.  0.
         12    1    1    2    0    0  0.86176442269E+01 -0.86075815538E+01  0.38791895471E+02  0.40659136814E+02  0.00000000000E+00 0. -1.
         11    1    3    3    0    0 -0.11789197901E+01  0.26130506940E+01 -0.15007205305E+02  0.15278550230E+02  0.51100000000E-03 0. -1.
        -11    1    3    3    0    0 -0.50256380386E+01  0.12087807850E+02 -0.25333637353E+02  0.28516053691E+02  0.51100000000E-03 0.  1.
         12    1    3    3    0    0 -0.24130863981E+01 -0.60932769904E+01  0.15489471875E+01  0.67342592641E+01  0.00000000000E+00 0. -1.
</event>
<event>
 7    1  0.2432574E-011  0.5052886E+02  0.7816164E-02  0.1300439E+00
        -11   -1    0    0    0    0  0.00000000000E+00  0.00000000000E+00  0.45593999997E+02  0.45594000000E+02  0.51100000000E-03 0. -1.
         11   -1    0    0    0    0 -0.00000000000E+00 -0.00000000000E+00 -0.45593999997E+02  0.45594000000E+02  0.51100000000E-03 0.  1.
    9900012    2    1    2    0    0 -0.26121519774E+02 -0.11196537138E+02 -0.29076961953E+02  0.50528856433E+02  0.29999989613E+02 0.  0.
         12    1    1    2    0    0  0.26121519774E+02  0.11196537138E+02  0.29076961953E+02  0.40659143567E+02  0.00000000000E+00 0. -1.
         11    1    3    3    0    0 -0.25043774746E+02 -0.97403912864E+01 -0.16869227142E+02  0.31727538521E+02  0.51100000000E-03 0. -1.
        -11    1    3    3    0    0 -0.38426099495E+01 -0.69972394170E+01 -0.80845053868E+01  0.11361612486E+02  0.51100000000E-03 0.  1.
         12    1    3    3    0    0  0.27648649213E+01  0.55410935656E+01 -0.41232294244E+01  0.74397054258E+01  0.00000000000E+00 0. -1.
</event>
<event>
 7    1  0.2432574E-011  0.5052886E+02  0.7816164E-02  0.1300439E+00
        -11   -1    0    0    0    0  0.00000000000E+00  0.00000000000E+00  0.45593999997E+02  0.45594000000E+02  0.51100000000E-03 0. -1.
         11   -1    0    0    0    0 -0.00000000000E+00 -0.00000000000E+00 -0.45593999997E+02  0.45594000000E+02  0.51100000000E-03 0.  1.
    9900012    2    1    2    0    0  0.22700616695E+02  0.33665430635E+02  0.21180543792E+01  0.50528863603E+02  0.30000011409E+02 0.  0.
         12    1    1    2    0    0 -0.22700616695E+02 -0.33665430635E+02 -0.21180543792E+01  0.40659136397E+02  0.00000000000E+00 0. -1.
         11    1    3    3    0    0  0.79004756041E+01  0.11885386923E+02  0.10945148042E+02  0.17985444198E+02  0.51100000000E-03 0. -1.
        -11    1    3    3    0    0  0.56347548573E+00  0.14402739749E+02 -0.37734063875E+00  0.14418696304E+02  0.51100000000E-03 0.  1.
        -12    1    3    3    0    0  0.14236665605E+02  0.73773039627E+01 -0.84497530241E+01  0.18124723101E+02  0.00000000000E+00 0.  1.
</event>
<event>
 7    1  0.2432574E-011  0.5052886E+02  0.7816164E-02  0.1300439E+00
        -11   -1    0    0    0    0  0.00000000000E+00  0.00000000000E+00  0.45593999997E+02  0.45594000000E+02  0.51100000000E-03 0. -1.
         11   -1    0    0    0    0 -0.00000000000E+00 -0.00000000000E+00 -0.45593999997E+02  0.45594000000E+02  0.51100000000E-03 0.  1.
    9900012    2    1    2    0    0 -0.39995518041E+02  0.57179187777E+01 -0.45639624578E+01  0.50528858201E+02  0.29999994987E+02 0.  0.
         12    1    1    2    0    0  0.39995518041E+02 -0.57179187777E+01  0.45639624578E+01  0.40659141799E+02  0.00000000000E+00 0. -1.
         11    1    3    3    0    0 -0.14112255582E+02 -0.56995164011E+01 -0.10258342782E+02  0.18354123289E+02  0.51100000000E-03 0. -1.
        -11    1    3    3    0    0 -0.10159592050E+02  0.99563631955E+01 -0.24060496572E+01  0.14426903823E+02  0.51100000000E-03 0.  1.
         12    1    3    3    0    0 -0.15723670409E+02  0.14610719832E+01  0.81004299809E+01  0.17747831089E+02  0.00000000000E+00 0. -1.
</event>
<event>
 7    1  0.2432574E-011  0.5052885E+02  0.7816164E-02  0.1300439E+00
        -11   -1    0    0    0    0  0.00000000000E+00  0.00000000000E+00  0.45593999997E+02  0.45594000000E+02  0.51100000000E-03 0.  1.
         11   -1    0    0    0    0 -0.00000000000E+00 -0.00000000000E+00 -0.45593999997E+02  0.45594000000E+02  0.51100000000E-03 0. -1.
    9900012    2    1    2    0    0  0.24699297152E+02  0.82460083995E+00  0.32286698810E+02  0.50528853841E+02  0.29999981734E+02 0.  0.
         12    1    1    2    0    0 -0.24699297152E+02 -0.82460083995E+00 -0.32286698810E+02  0.40659146159E+02  0.00000000000E+00 0. -1.
         11    1    3    3    0    0  0.11463563874E+02  0.11754482093E+01  0.36235471660E+01  0.12079944930E+02  0.51100000000E-03 0. -1.
        -11    1    3    3    0    0  0.15435746372E+02 -0.80709596649E+01  0.17423740016E+02  0.24637154307E+02  0.51100000000E-03 0.  1.
         12    1    3    3    0    0 -0.22000130938E+01  0.77201122955E+01  0.11239411629E+02  0.13811754603E+02  0.00000000000E+00 0. -1.
</event>
<event>
 7    1  0.2432574E-011  0.5052886E+02  0.7816164E-02  0.1300439E+00
        -11   -1    0    0    0    0  0.00000000000E+00  0.00000000000E+00  0.45593999997E+02  0.45594000000E+02  0.51100000000E-03 0.  1.
         11   -1    0    0    0    0 -0.00000000000E+00 -0.00000000000E+00 -0.45593999997E+02  0.45594000000E+02  0.51100000000E-03 0. -1.
    9900012    2    1    2    0    0  0.25967212112E+02  0.57628648903E+01  0.30751565505E+02  0.50528862065E+02  0.30000006733E+02 0.  0.
         12    1    1    2    0    0 -0.25967212112E+02 -0.57628648903E+01 -0.30751565505E+02  0.40659137935E+02  0.00000000000E+00 0. -1.
         11    1    3    3    0    0  0.71843034028E+01 -0.93199193097E+01  0.16993075314E+02  0.20669777943E+02  0.51100000000E-03 0. -1.
        -11    1    3    3    0    0  0.15025428175E+02  0.88374743326E+01  0.14305300279E+02  0.22550078952E+02  0.51100000000E-03 0.  1.
        -12    1    3    3    0    0  0.37574805341E+01  0.62453098674E+01 -0.54681008768E+00  0.73090051701E+01  0.00000000000E+00 0.  1.
</event>
<event>
 7    1  0.2432574E-011  0.5052886E+02  0.7816164E-02  0.1300439E+00
        -11   -1    0    0    0    0  0.00000000000E+00  0.00000000000E+00  0.45593999997E+02  0.45594000000E+02  0.51100000000E-03 0. -1.
         11   -1    0    0    0    0 -0.00000000000E+00 -0.00000000000E+00 -0.45593999997E+02  0.45594000000E+02  0.51100000000E-03 0.  1.
    9900012    2    1    2    0    0 -0.27896815760E+02 -0.10161477951E+02 -0.27779090724E+02  0.50528857792E+02  0.29999993744E+02 0.  0.
         12    1    1    2    0    0  0.27896815760E+02  0.10161477951E+02  0.27779090724E+02  0.40659142208E+02  0.00000000000E+00 0. -1.
         11    1    3    3    0    0 -0.11440143383E+02  0.13568211824E+01 -0.15600319369E+02  0.19392983500E+02  0.51100000000E-03 0. -1.
        -11    1    3    3    0    0 -0.42128915164E+01 -0.45269735949E+01 -0.15467718587E+02  0.16658099033E+02  0.51100000000E-03 0.  1.
        -12    1    3    3    0    0 -0.12243780861E+02 -0.69913255381E+01  0.32889472323E+01  0.14477775259E+02  0.00000000000E+00 0.  1.
</event>
<event>
 7    1  0.2432574E-011  0.5052887E+02  0.7816164E-02  0.1300439E+00
        -11   -1    0    0    0    0  0.00000000000E+00  0.00000000000E+00  0.45593999997E+02  0.45594000000E+02  0.51100000000E-03 0.  1.
         11   -1    0    0    0    0 -0.00000000000E+00 -0.00000000000E+00 -0.45593999997E+02  0.45594000000E+02  0.51100000000E-03 0. -1.
    9900012    2    1    2    0    0  0.20412870745E+02  0.42400970682E+00  0.35161057228E+02  0.50528867918E+02  0.30000024523E+02 0.  0.
         12    1    1    2    0    0 -0.20412870745E+02 -0.42400970682E+00 -0.35161057228E+02  0.40659132082E+02  0.00000000000E+00 0. -1.
         11    1    3    3    0    0  0.20945821225E+01 -0.73189657644E+01  0.20971744561E+02  0.22310728458E+02  0.51100000000E-03 0. -1.
        -11    1    3    3    0    0  0.15714475678E+02  0.73818684156E+00  0.13469789540E+02  0.20710502074E+02  0.51100000000E-03 0.  1.
        -12    1    3    3    0    0  0.26038129446E+01  0.70047886296E+01  0.71952312740E+00  0.75076373865E+01  0.00000000000E+00 0.  1.
</event>
<event>
 7    1  0.2432574E-011  0.5052886E+02  0.7816164E-02  0.1300439E+00
        -11   -1    0    0    0    0  0.00000000000E+00  0.00000000000E+00  0.45593999997E+02  0.45594000000E+02  0.51100000000E-03 0. -1.
         11   -1    0    0    0    0 -0.00000000000E+00 -0.00000000000E+00 -0.45593999997E+02  0.45594000000E+02  0.51100000000E-03 0.  1.
    9900012    2    1    2    0    0  0.22149629812E+02 -0.19674056600E+02 -0.27847646529E+02  0.50528855627E+02  0.29999987164E+02 0.  0.
         12    1    1    2    0    0 -0.22149629812E+02  0.19674056600E+02  0.27847646529E+02  0.40659144373E+02  0.00000000000E+00 0. -1.
         11    1    3    3    0    0  0.19687369415E+02 -0.15581200780E+02 -0.29443328604E+02  0.38694649911E+02  0.51100000000E-03 0.  1.
        -11    1    3    3    0    0 -0.28092668446E+01  0.17914320921E+01 -0.10650587026E+01  0.34979364554E+01  0.51100000000E-03 0. -1.
        -12    1    3    3    0    0  0.52715272423E+01 -0.58842879125E+01  0.26607407772E+01  0.83362692607E+01  0.00000000000E+00 0.  1.
</event>
<event>
 7    1  0.2432574E-011  0.5052886E+02  0.7816164E-02  0.1300439E+00
        -11   -1    0    0    0    0  0.00000000000E+00  0.00000000000E+00  0.45593999997E+02  0.45594000000E+02  0.51100000000E-03 0.  1.
         11   -1    0    0    0    0 -0.00000000000E+00 -0.00000000000E+00 -0.45593999997E+02  0.45594000000E+02  0.51100000000E-03 0. -1.
    9900012    2    1    2    0    0  0.47391547028E+01  0.27031529650E+02  0.30000047022E+02  0.50528855840E+02  0.29999987810E+02 0.  0.
         12    1    1    2    0    0 -0.47391547028E+01 -0.27031529650E+02 -0.30000047022E+02  0.40659144160E+02  0.00000000000E+00 0. -1.
         11    1    3    3    0    0  0.12754911120E+02  0.85863457628E+01  0.11274385927E+02  0.19066328161E+02  0.51100000000E-03 0. -1.
        -11    1    3    3    0    0 -0.48715119654E+00 -0.18864482466E+01  0.60326667461E+01  0.63394851215E+01  0.51100000000E-03 0.  1.
        -12    1    3    3    0    0 -0.75286052209E+01  0.20331632134E+02  0.12692994349E+02  0.25123042557E+02  0.00000000000E+00 0.  1.
</event>
<event>
 7    1  0.2675780E-011  0.5052899E+02  0.7816164E-02  0.1300438E+00
        -11   -1    0    0    0    0  0.00000000000E+00  0.00000000000E+00  0.45593999997E+02  0.45594000000E+02  0.51100000000E-03 0.  1.
         11   -1    0    0    0    0 -0.00000000000E+00 -0.00000000000E+00 -0.45593999997E+02  0.45594000000E+02  0.51100000000E-03 0. -1.
    9900012    2    1    2    0    0  0.18229037419E+02 -0.34190781624E+02  0.12322664785E+02  0.50528985985E+02  0.30000383397E+02 0.  0.
         12    1    1    2    0    0 -0.18229037419E+02  0.34190781624E+02 -0.12322664785E+02  0.40659014015E+02  0.00000000000E+00 0. -1.
         11    1    3    3    0    0  0.25294097861E+01 -0.22287669195E+01  0.10777288075E+02  0.11292265244E+02  0.51100000000E-03 0. -1.
        -11    1    3    3    0    0  0.89657836693E+01 -0.16451396292E+02  0.89661149516E+01  0.20770771154E+02  0.51100000000E-03 0.  1.
         12    1    3    3    0    0  0.67338439639E+01 -0.15510618413E+02 -0.74207382409E+01  0.18465949586E+02  0.00000000000E+00 0. -1.
</event>
<event>
 7    1  0.2432574E-011  0.5052885E+02  0.7816164E-02  0.1300439E+00
        -11   -1    0    0    0    0  0.00000000000E+00  0.00000000000E+00  0.45593999997E+02  0.45594000000E+02  0.51100000000E-03 0. -1.
         11   -1    0    0    0    0 -0.00000000000E+00 -0.00000000000E+00 -0.45593999997E+02  0.45594000000E+02  0.51100000000E-03 0.  1.
    9900012    2    1    2    0    0 -0.18204646381E+02  0.20440773266E+02 -0.30065463530E+02  0.50528850244E+02  0.29999970802E+02 0.  0.
         12    1    1    2    0    0  0.18204646381E+02 -0.20440773266E+02  0.30065463530E+02  0.40659149756E+02  0.00000000000E+00 0. -1.
         11    1    3    3    0    0 -0.97701369942E+01 -0.84634327949E+00 -0.63387440952E+01  0.11676966678E+02  0.51100000000E-03 0. -1.
        -11    1    3    3    0    0 -0.49386845884E+01  0.19609267577E+02 -0.27030693029E+02  0.33757552433E+02  0.51100000000E-03 0.  1.
         12    1    3    3    0    0 -0.34958247987E+01  0.16778489691E+01  0.33039735944E+01  0.50943311336E+01  0.00000000000E+00 0. -1.
</event>
<event>
 7    1  0.2432574E-011  0.5052885E+02  0.7816164E-02  0.1300439E+00
        -11   -1    0    0    0    0  0.00000000000E+00  0.00000000000E+00  0.45593999997E+02  0.45594000000E+02  0.51100000000E-03 0.  1.
         11   -1    0    0    0    0 -0.00000000000E+00 -0.00000000000E+00 -0.45593999997E+02  0.45594000000E+02  0.51100000000E-03 0. -1.
    9900012    2    1    2    0    0 -0.34744334637E+02 -0.17749963446E+02 -0.11442750873E+02  0.50528849255E+02  0.29999967797E+02 0.  0.
         12    1    1    2    0    0  0.34744334637E+02  0.17749963446E+02  0.11442750873E+02  0.40659150745E+02  0.00000000000E+00 0. -1.
         11    1    3    3    0    0 -0.16619973995E+02 -0.12492044118E+02 -0.48226430926E+01  0.21343209423E+02  0.51100000000E-03 0. -1.
        -11    1    3    3    0    0 -0.18611621877E+02 -0.45128032038E+01 -0.12739938973E+02  0.23001389240E+02  0.51100000000E-03 0.  1.
         12    1    3    3    0    0  0.48726123503E+00 -0.74511612518E+00  0.61198311933E+01  0.61842505921E+01  0.00000000000E+00 0. -1.
</event>
<event>
 7    1  0.2432574E-011  0.5052886E+02  0.7816164E-02  0.1300439E+00
        -11   -1    0    0    0    0  0.00000000000E+00  0.00000000000E+00  0.45593999997E+02  0.45594000000E+02  0.51100000000E-03 0. -1.
         11   -1    0    0    0    0 -0.00000000000E+00 -0.00000000000E+00 -0.45593999997E+02  0.45594000000E+02  0.51100000000E-03 0.  1.
    9900012    2    1    2    0    0  0.19987559662E+02 -0.30588283340E+02  0.17833122808E+02  0.50528857264E+02  0.29999992141E+02 0.  0.
         12    1    1    2    0    0 -0.19987559662E+02  0.30588283340E+02 -0.17833122808E+02  0.40659142736E+02  0.00000000000E+00 0. -1.
         11    1    3    3    0    0 -0.13217506347E+01 -0.35159186154E+01  0.98878765042E+01  0.10577278028E+02  0.51100000000E-03 0. -1.
        -11    1    3    3    0    0  0.14613613385E+02 -0.28315205189E+02  0.40882012187E+01  0.32125098141E+02  0.51100000000E-03 0.  1.
         12    1    3    3    0    0  0.66956969122E+01  0.12428404653E+01  0.38570450851E+01  0.78264810963E+01  0.00000000000E+00 0. -1.
</event>
<event>
 7    1  0.2432574E-011  0.5052886E+02  0.7816164E-02  0.1300439E+00
        -11   -1    0    0    0    0  0.00000000000E+00  0.00000000000E+00  0.45593999997E+02  0.45594000000E+02  0.51100000000E-03 0.  1.
         11   -1    0    0    0    0 -0.00000000000E+00 -0.00000000000E+00 -0.45593999997E+02  0.45594000000E+02  0.51100000000E-03 0. -1.
    9900012    2    1    2    0    0  0.48081013593E+01 -0.33101069334E+02 -0.23116383066E+02  0.50528858399E+02  0.29999995588E+02 0.  0.
         12    1    1    2    0    0 -0.48081013593E+01  0.33101069334E+02  0.23116383066E+02  0.40659141601E+02  0.00000000000E+00 0. -1.
         11    1    3    3    0    0  0.76602754505E+01 -0.38100470907E+01 -0.80943710403E+01  0.11777738391E+02  0.51100000000E-03 0. -1.
        -11    1    3    3    0    0 -0.50735131432E+01 -0.90596669118E+01 -0.15187176884E+02  0.18397511847E+02  0.51100000000E-03 0.  1.
        -12    1    3    3    0    0  0.22213390520E+01 -0.20231355331E+02  0.16516485912E+00  0.20353608161E+02  0.00000000000E+00 0.  1.
</event>
