<event>
 7    1  0.5832130E-012  0.5930195E+02  0.7816164E-02  0.1266605E+00
        -11   -1    0    0    0    0  0.00000000000E+00  0.00000000000E+00  0.45593999997E+02  0.45594000000E+02  0.51100000000E-03 0.  1.
         11   -1    0    0    0    0 -0.00000000000E+00 -0.00000000000E+00 -0.45593999997E+02  0.45594000000E+02  0.51100000000E-03 0. -1.
    9900012    2    1    2    0    0  0.13311945448E+02  0.17028032280E+02  0.23442663617E+02  0.59301948937E+02  0.50000008953E+02 0.  0.
         12    1    1    2    0    0 -0.13311945448E+02 -0.17028032280E+02 -0.23442663617E+02  0.31886051063E+02  0.00000000000E+00 0. -1.
         11    1    3    3    0    0 -0.10020231388E+01  0.14812441800E+01 -0.12170350638E+02  0.12301039371E+02  0.51100000000E-03 0. -1.
        -11    1    3    3    0    0 -0.45209093565E+01  0.22175784389E+01  0.15814858507E+02  0.16597169198E+02  0.51100000000E-03 0.  1.
        -12    1    3    3    0    0  0.18834877944E+02  0.13329209661E+02  0.19798155748E+02  0.30403740368E+02  0.00000000000E+00 0.  1.
</event>
<event>
 7    1  0.5832130E-012  0.5930192E+02  0.7816164E-02  0.1266605E+00
        -11   -1    0    0    0    0  0.00000000000E+00  0.00000000000E+00  0.45593999997E+02  0.45594000000E+02  0.51100000000E-03 0. -1.
         11   -1    0    0    0    0 -0.00000000000E+00 -0.00000000000E+00 -0.45593999997E+02  0.45594000000E+02  0.51100000000E-03 0.  1.
    9900012    2    1    2    0    0 -0.11088353923E+01 -0.24128316461E+02  0.20816265946E+02  0.59301919979E+02  0.49999956141E+02 0.  0.
         12    1    1    2    0    0  0.11088353923E+01  0.24128316461E+02 -0.20816265946E+02  0.31886080021E+02  0.00000000000E+00 0. -1.
         11    1    3    3    0    0  0.37690758377E+01  0.54606417840E+00  0.15057481047E+02  0.15531640432E+02  0.51100000000E-03 0. -1.
        -11    1    3    3    0    0  0.15030831852E+02 -0.14879828249E+02  0.38799148650E+01  0.21503230793E+02  0.51100000000E-03 0.  1.
         12    1    3    3    0    0 -0.19908743082E+02 -0.97945523897E+01  0.18788700341E+01  0.22267048755E+02  0.00000000000E+00 0. -1.
</event>
<event>
 7    1  0.5832130E-012  0.5930195E+02  0.7816164E-02  0.1266605E+00
        -11   -1    0    0    0    0  0.00000000000E+00  0.00000000000E+00  0.45593999997E+02  0.45594000000E+02  0.51100000000E-03 0. -1.
         11   -1    0    0    0    0 -0.00000000000E+00 -0.00000000000E+00 -0.45593999997E+02  0.45594000000E+02  0.51100000000E-03 0.  1.
    9900012    2    1    2    0    0  0.18271459720E+02  0.24447103073E+02 -0.92310858668E+01  0.59301952342E+02  0.50000015163E+02 0.  0.
         12    1    1    2    0    0 -0.18271459720E+02 -0.24447103073E+02  0.92310858668E+01  0.31886047658E+02  0.00000000000E+00 0. -1.
         11    1    3    3    0    0  0.12558760150E+02 -0.53496801580E+01 -0.13738417781E+01  0.13719656548E+02  0.51100000000E-03 0. -1.
        -11    1    3    3    0    0  0.11498505888E+02  0.18215427596E+01 -0.11996434980E+02  0.16716701474E+02  0.51100000000E-03 0.  1.
        -12    1    3    3    0    0 -0.57858063179E+01  0.27975240472E+02  0.41391908913E+01  0.28865594320E+02  0.00000000000E+00 0.  1.
</event>
<event>
 7    1  0.5832130E-012  0.5930193E+02  0.7816164E-02  0.1266605E+00
        -11   -1    0    0    0    0  0.00000000000E+00  0.00000000000E+00  0.45593999997E+02  0.45594000000E+02  0.51100000000E-03 0.  1.
         11   -1    0    0    0    0 -0.00000000000E+00 -0.00000000000E+00 -0.45593999997E+02  0.45594000000E+02  0.51100000000E-03 0. -1.
    9900012    2    1    2    0    0  0.24729854020E+01 -0.21756627487E+02  0.23178759151E+02  0.59301931378E+02  0.49999976929E+02 0.  0.
         12    1    1    2    0    0 -0.24729854020E+01  0.21756627487E+02 -0.23178759151E+02  0.31886068622E+02  0.00000000000E+00 0. -1.
         11    1    3    3    0    0  0.17907303586E+02  0.34112388826E+00  0.12005683474E+02  0.21562103867E+02  0.51100000000E-03 0. -1.
        -11    1    3    3    0    0  0.56860428588E+00  0.47536465723E+01  0.16191035181E+01  0.50539057205E+01  0.51100000000E-03 0.  1.
        -12    1    3    3    0    0 -0.16002922469E+02 -0.26851397948E+02  0.95539721585E+01  0.32685921791E+02  0.00000000000E+00 0.  1.
</event>
<event>
 7    1  0.5832130E-012  0.5930194E+02  0.7816164E-02  0.1266605E+00
        -11   -1    0    0    0    0  0.00000000000E+00  0.00000000000E+00  0.45593999997E+02  0.45594000000E+02  0.51100000000E-03 0. -1.
         11   -1    0    0    0    0 -0.00000000000E+00 -0.00000000000E+00 -0.45593999997E+02  0.45594000000E+02  0.51100000000E-03 0.  1.
    9900012    2    1    2    0    0 -0.14721804608E+01  0.26282402850E+02 -0.17994131940E+02  0.59301940363E+02  0.49999993317E+02 0.  0.
         12    1    1    2    0    0  0.14721804608E+01 -0.26282402850E+02  0.17994131940E+02  0.31886059637E+02  0.00000000000E+00 0. -1.
         11    1    3    3    0    0  0.14932371983E+01 -0.42364963437E+01 -0.96096394197E+01  0.10607677816E+02  0.51100000000E-03 0. -1.
        -11    1    3    3    0    0  0.11683850472E+01 -0.84261088096E+01  0.54928319984E+00  0.85244440044E+01  0.51100000000E-03 0.  1.
        -12    1    3    3    0    0 -0.41338027062E+01  0.38945008003E+02 -0.89337757197E+01  0.40169818543E+02  0.00000000000E+00 0.  1.
</event>
<event>
 7    1  0.5832130E-012  0.5930194E+02  0.7816164E-02  0.1266605E+00
        -11   -1    0    0    0    0  0.00000000000E+00  0.00000000000E+00  0.45593999997E+02  0.45594000000E+02  0.51100000000E-03 0. -1.
         11   -1    0    0    0    0 -0.00000000000E+00 -0.00000000000E+00 -0.45593999997E+02  0.45594000000E+02  0.51100000000E-03 0.  1.
    9900012    2    1    2    0    0 -0.95962010075E+01  0.25683523188E+02 -0.16278518601E+02  0.59301943409E+02  0.49999998871E+02 0.  0.
         12    1    1    2    0    0  0.95962010075E+01 -0.25683523188E+02  0.16278518601E+02  0.31886056591E+02  0.00000000000E+00 0. -1.
         11    1    3    3    0    0  0.17768131280E+01 -0.12209403659E+02 -0.62007706271E+01  0.13808553843E+02  0.51100000000E-03 0. -1.
        -11    1    3    3    0    0  0.30962310029E+01  0.11174383415E+02  0.36430426536E+01  0.12154227707E+02  0.51100000000E-03 0.  1.
        -12    1    3    3    0    0 -0.14469245138E+02  0.26718543432E+02 -0.13720790627E+02  0.33339161859E+02  0.00000000000E+00 0.  1.
</event>
<event>
 7    1  0.5832130E-012  0.5930193E+02  0.7816164E-02  0.1266605E+00
        -11   -1    0    0    0    0  0.00000000000E+00  0.00000000000E+00  0.45593999997E+02  0.45594000000E+02  0.51100000000E-03 0. -1.
         11   -1    0    0    0    0 -0.00000000000E+00 -0.00000000000E+00 -0.45593999997E+02  0.45594000000E+02  0.51100000000E-03 0.  1.
    9900012    2    1    2    0    0  0.17841878666E+02  0.20985273519E+02 -0.16062594371E+02  0.59301932872E+02  0.49999979654E+02 0.  0.
         12    1    1    2    0    0 -0.17841878666E+02 -0.20985273519E+02  0.16062594371E+02  0.31886067128E+02  0.00000000000E+00 0. -1.
         11    1    3    3    0    0  0.86605812035E+01  0.13416432992E+02  0.83179053424E+01  0.18005385043E+02  0.51100000000E-03 0. -1.
        -11    1    3    3    0    0 -0.94131789304E+01 -0.30747016353E+01 -0.16129060352E+01  0.10033104896E+02  0.51100000000E-03 0.  1.
         12    1    3    3    0    0  0.18594476393E+02  0.10643542162E+02 -0.22767593678E+02  0.31263442932E+02  0.00000000000E+00 0. -1.
</event>
<event>
 7    1  0.5832130E-012  0.5930196E+02  0.7816164E-02  0.1266605E+00
        -11   -1    0    0    0    0  0.00000000000E+00  0.00000000000E+00  0.45593999997E+02  0.45594000000E+02  0.51100000000E-03 0. -1.
         11   -1    0    0    0    0 -0.00000000000E+00 -0.00000000000E+00 -0.45593999997E+02  0.45594000000E+02  0.51100000000E-03 0.  1.
    9900012    2    1    2    0    0 -0.27038013056E+02 -0.11553157841E+02 -0.12336525297E+02  0.59301961323E+02  0.50000031542E+02 0.  0.
         12    1    1    2    0    0  0.27038013056E+02  0.11553157841E+02  0.12336525297E+02  0.31886038677E+02  0.00000000000E+00 0. -1.
         11    1    3    3    0    0  0.55446118422E+00 -0.11423590203E+02 -0.10471001483E+01  0.11484870888E+02  0.51100000000E-03 0. -1.
        -11    1    3    3    0    0 -0.18931014883E+02 -0.16539181500E+02  0.16554614155E+01  0.25192625944E+02  0.51100000000E-03 0.  1.
        -12    1    3    3    0    0 -0.86614593569E+01  0.16409613862E+02 -0.12944886564E+02  0.22624464490E+02  0.00000000000E+00 0.  1.
</event>
<event>
 7    1  0.5832130E-012  0.5930195E+02  0.7816164E-02  0.1266605E+00
        -11   -1    0    0    0    0  0.00000000000E+00  0.00000000000E+00  0.45593999997E+02  0.45594000000E+02  0.51100000000E-03 0.  1.
         11   -1    0    0    0    0 -0.00000000000E+00 -0.00000000000E+00 -0.45593999997E+02  0.45594000000E+02  0.51100000000E-03 0. -1.
    9900012    2    1    2    0    0 -0.14620704006E+02  0.81476858278E+01  0.27139832702E+02  0.59301948362E+02  0.50000007905E+02 0.  0.
         12    1    1    2    0    0  0.14620704006E+02 -0.81476858278E+01 -0.27139832702E+02  0.31886051638E+02  0.00000000000E+00 0. -1.
         11    1    3    3    0    0  0.75505324466E+00  0.15137619001E+02  0.43044327231E+01  0.15755816568E+02  0.51100000000E-03 0. -1.
        -11    1    3    3    0    0 -0.63233604229E+01  0.12672739906E+02  0.14724021155E+02  0.20429880641E+02  0.51100000000E-03 0.  1.
         12    1    3    3    0    0 -0.90523968278E+01 -0.19662673079E+02  0.81113788237E+01  0.23116251153E+02  0.00000000000E+00 0. -1.
</event>
<event>
 7    1  0.5832130E-012  0.5930195E+02  0.7816164E-02  0.1266605E+00
        -11   -1    0    0    0    0  0.00000000000E+00  0.00000000000E+00  0.45593999997E+02  0.45594000000E+02  0.51100000000E-03 0. -1.
         11   -1    0    0    0    0 -0.00000000000E+00 -0.00000000000E+00 -0.45593999997E+02  0.45594000000E+02  0.51100000000E-03 0.  1.
    9900012    2    1    2    0    0 -0.28650037775E+02 -0.52807292527E+01  0.12961837319E+02  0.59301953011E+02  0.50000016383E+02 0.  0.
         12    1    1    2    0    0  0.28650037775E+02  0.52807292527E+01 -0.12961837319E+02  0.31886046989E+02  0.00000000000E+00 0. -1.
         11    1    3    3    0    0 -0.15068185540E+02  0.63922272825E+01  0.55579686349E+01  0.17285884435E+02  0.51100000000E-03 0. -1.
        -11    1    3    3    0    0 -0.19428966631E+02 -0.36412613690E+01  0.18533976686E+02  0.27097081406E+02  0.51100000000E-03 0.  1.
        -12    1    3    3    0    0  0.58471143963E+01 -0.80316951661E+01 -0.11130108002E+02  0.14918987169E+02  0.00000000000E+00 0.  1.
</event>
<event>
 7    1  0.5832130E-012  0.5930194E+02  0.7816164E-02  0.1266605E+00
        -11   -1    0    0    0    0  0.00000000000E+00  0.00000000000E+00  0.45593999997E+02  0.45594000000E+02  0.51100000000E-03 0. -1.
         11   -1    0    0    0    0 -0.00000000000E+00 -0.00000000000E+00 -0.45593999997E+02  0.45594000000E+02  0.51100000000E-03 0.  1.
    9900012    2    1    2    0    0  0.21365416807E+02  0.19174390414E+02 -0.13877409173E+02  0.59301940846E+02  0.49999994196E+02 0.  0.
         12    1    1    2    0    0 -0.21365416807E+02 -0.19174390414E+02  0.13877409173E+02  0.31886059154E+02  0.00000000000E+00 0. -1.
         11    1    3    3    0    0  0.12341217337E+02  0.27175754846E+02 -0.19249114270E+02  0.35515569786E+02  0.51100000000E-03 0.  1.
        -11    1    3    3    0    0 -0.60554291142E+01 -0.37079833706E+00  0.46562096280E-01  0.60669499301E+01  0.51100000000E-03 0. -1.
        -12    1    3    3    0    0  0.15079628584E+02 -0.76305660953E+01  0.53251430013E+01  0.17719421129E+02  0.00000000000E+00 0.  1.
</event>
<event>
 7    1  0.5832130E-012  0.5930194E+02  0.7816164E-02  0.1266605E+00
        -11   -1    0    0    0    0  0.00000000000E+00  0.00000000000E+00  0.45593999997E+02  0.45594000000E+02  0.51100000000E-03 0. -1.
         11   -1    0    0    0    0 -0.00000000000E+00 -0.00000000000E+00 -0.45593999997E+02  0.45594000000E+02  0.51100000000E-03 0.  1.
    9900012    2    1    2    0    0 -0.70680727195E+01  0.30087718985E+02 -0.78416863320E+01  0.59301944580E+02  0.50000001008E+02 0.  0.
         12    1    1    2    0    0  0.70680727195E+01 -0.30087718985E+02  0.78416863320E+01  0.31886055420E+02  0.00000000000E+00 0. -1.
         11    1    3    3    0    0  0.37613839558E+01  0.11057268048E+02  0.17436860802E+02  0.20987026966E+02  0.51100000000E-03 0. -1.
        -11    1    3    3    0    0  0.17193301282E+01 -0.92552249931E+00 -0.10078201170E+02  0.10265613818E+02  0.51100000000E-03 0.  1.
        -12    1    3    3    0    0 -0.12548786803E+02  0.19955973436E+02 -0.15200345965E+02  0.28049303797E+02  0.00000000000E+00 0.  1.
</event>
<event>
 7    1  0.5832130E-012  0.5930195E+02  0.7816164E-02  0.1266605E+00
        -11   -1    0    0    0    0  0.00000000000E+00  0.00000000000E+00  0.45593999997E+02  0.45594000000E+02  0.51100000000E-03 0.  1.
         11   -1    0    0    0    0 -0.00000000000E+00 -0.00000000000E+00 -0.45593999997E+02  0.45594000000E+02  0.51100000000E-03 0. -1.
    9900012    2    1    2    0    0  0.26728343924E+02  0.53128073224E+01  0.16555661140E+02  0.59301949659E+02  0.50000010270E+02 0.  0.
         12    1    1    2    0    0 -0.26728343924E+02 -0.53128073224E+01 -0.16555661140E+02  0.31886050341E+02  0.00000000000E+00 0. -1.
         11    1    3    3    0    0  0.11395547336E+02  0.73987723970E+01  0.34130822923E+00  0.13591056752E+02  0.51100000000E-03 0. -1.
        -11    1    3    3    0    0  0.25702294133E+02  0.79397023464E+01  0.15972491406E+02  0.31285256576E+02  0.51100000000E-03 0.  1.
         12    1    3    3    0    0 -0.10369497545E+02 -0.10025667421E+02  0.24186150493E+00  0.14425636331E+02  0.00000000000E+00 0. -1.
</event>
<event>
 7    1  0.5832130E-012  0.5930194E+02  0.7816164E-02  0.1266605E+00
        -11   -1    0    0    0    0  0.00000000000E+00  0.00000000000E+00  0.45593999997E+02  0.45594000000E+02  0.51100000000E-03 0. -1.
         11   -1    0    0    0    0 -0.00000000000E+00 -0.00000000000E+00 -0.45593999997E+02  0.45594000000E+02  0.51100000000E-03 0.  1.
    9900012    2    1    2    0    0 -0.10658469251E+02  0.11905527538E+02 -0.27593043375E+02  0.59301943557E+02  0.49999999142E+02 0.  0.
         12    1    1    2    0    0  0.10658469251E+02 -0.11905527538E+02  0.27593043375E+02  0.31886056443E+02  0.00000000000E+00 0. -1.
         11    1    3    3    0    0  0.22057400260E+01  0.92437121877E+01 -0.17626209627E+02  0.20024853811E+02  0.51100000000E-03 0. -1.
        -11    1    3    3    0    0 -0.19036191253E+02  0.16732903651E+01 -0.19868911445E+02  0.27567192827E+02  0.51100000000E-03 0.  1.
         12    1    3    3    0    0  0.61719819760E+01  0.98852498509E+00  0.99020776967E+01  0.11709896920E+02  0.00000000000E+00 0. -1.
</event>
<event>
 7    1  0.5832130E-012  0.5930190E+02  0.7816164E-02  0.1266605E+00
        -11   -1    0    0    0    0  0.00000000000E+00  0.00000000000E+00  0.45593999997E+02  0.45594000000E+02  0.51100000000E-03 0. -1.
         11   -1    0    0    0    0 -0.00000000000E+00 -0.00000000000E+00 -0.45593999997E+02  0.45594000000E+02  0.51100000000E-03 0.  1.
    9900012    2    1    2    0    0 -0.28704646034E+02 -0.81721646468E+01 -0.11224199780E+02  0.59301895822E+02  0.49999912084E+02 0.  0.
         12    1    1    2    0    0  0.28704646034E+02  0.81721646468E+01  0.11224199780E+02  0.31886104178E+02  0.00000000000E+00 0. -1.
         11    1    3    3    0    0 -0.12126429500E+02  0.13209013128E+02 -0.40685904314E+01  0.18386999445E+02  0.51100000000E-03 0. -1.
        -11    1    3    3    0    0 -0.35421793098E+00 -0.87783959691E+01 -0.16230694603E+02  0.18455924623E+02  0.51100000000E-03 0.  1.
        -12    1    3    3    0    0 -0.16223998603E+02 -0.12602781805E+02  0.90750852540E+01  0.22458971754E+02  0.00000000000E+00 0.  1.
</event>
<event>
 7    1  0.5832130E-012  0.5930204E+02  0.7816164E-02  0.1266604E+00
        -11   -1    0    0    0    0  0.00000000000E+00  0.00000000000E+00  0.45593999997E+02  0.45594000000E+02  0.51100000000E-03 0.  1.
         11   -1    0    0    0    0 -0.00000000000E+00 -0.00000000000E+00 -0.45593999997E+02  0.45594000000E+02  0.51100000000E-03 0. -1.
    9900012    2    1    2    0    0  0.11380559751E+02  0.97513163968E+00  0.29769889825E+02  0.59302041301E+02  0.50000177404E+02 0.  0.
         12    1    1    2    0    0 -0.11380559751E+02 -0.97513163968E+00 -0.29769889825E+02  0.31885958699E+02  0.00000000000E+00 0. -1.
         11    1    3    3    0    0  0.20068657492E+02 -0.82764340244E+01  0.90111116477E+00  0.21726996462E+02  0.51100000000E-03 0. -1.
        -11    1    3    3    0    0  0.60230108720E+01 -0.10178148992E+01  0.75565169547E+01  0.97166638246E+01  0.51100000000E-03 0.  1.
        -12    1    3    3    0    0 -0.14711108613E+02  0.10269380563E+02  0.21312261705E+02  0.27858381015E+02  0.00000000000E+00 0.  1.
</event>
<event>
 7    1  0.5832130E-012  0.5930194E+02  0.7816164E-02  0.1266605E+00
        -11   -1    0    0    0    0  0.00000000000E+00  0.00000000000E+00  0.45593999997E+02  0.45594000000E+02  0.51100000000E-03 0. -1.
         11   -1    0    0    0    0 -0.00000000000E+00 -0.00000000000E+00 -0.45593999997E+02  0.45594000000E+02  0.51100000000E-03 0.  1.
    9900012    2    1    2    0    0 -0.64480659875E+01  0.25359975318E+02 -0.18221281509E+02  0.59301937168E+02  0.49999987490E+02 0.  0.
         12    1    1    2    0    0  0.64480659875E+01 -0.25359975318E+02  0.18221281509E+02  0.31886062832E+02  0.00000000000E+00 0. -1.
         11    1    3    3    0    0 -0.97644009097E+01  0.88728383183E+01 -0.14401868444E+01  0.13271960042E+02  0.51100000000E-03 0. -1.
        -11    1    3    3    0    0 -0.32615346109E+01  0.51946336535E+01 -0.28087387428E+02  0.28749315811E+02  0.51100000000E-03 0.  1.
         12    1    3    3    0    0  0.65778695331E+01  0.11292503346E+02  0.11306292764E+02  0.17280661315E+02  0.00000000000E+00 0. -1.
</event>
<event>
 7    1  0.5832130E-012  0.5930194E+02  0.7816164E-02  0.1266605E+00
        -11   -1    0    0    0    0  0.00000000000E+00  0.00000000000E+00  0.45593999997E+02  0.45594000000E+02  0.51100000000E-03 0. -1.
         11   -1    0    0    0    0 -0.00000000000E+00 -0.00000000000E+00 -0.45593999997E+02  0.45594000000E+02  0.51100000000E-03 0.  1.
    9900012    2    1    2    0    0  0.13438519407E+02 -0.23852517530E+02 -0.16345773795E+02  0.59301941646E+02  0.49999995656E+02 0.  0.
         12    1    1    2    0    0 -0.13438519407E+02  0.23852517530E+02  0.16345773795E+02  0.31886058354E+02  0.00000000000E+00 0. -1.
         11    1    3    3    0    0  0.21210514996E+02 -0.24880682750E+02 -0.28094918494E+01  0.32815050894E+02  0.51100000000E-03 0. -1.
        -11    1    3    3    0    0  0.50120835436E+01 -0.61250772283E+01 -0.64697188855E+01  0.10222270551E+02  0.51100000000E-03 0.  1.
         12    1    3    3    0    0 -0.12784079132E+02  0.71532424482E+01 -0.70665630606E+01  0.16264620201E+02  0.00000000000E+00 0. -1.
</event>
<event>
 7    1  0.5832130E-012  0.5930195E+02  0.7816164E-02  0.1266605E+00
        -11   -1    0    0    0    0  0.00000000000E+00  0.00000000000E+00  0.45593999997E+02  0.45594000000E+02  0.51100000000E-03 0.  1.
         11   -1    0    0    0    0 -0.00000000000E+00 -0.00000000000E+00 -0.45593999997E+02  0.45594000000E+02  0.51100000000E-03 0. -1.
    9900012    2    1    2    0    0 -0.20001177103E+02  0.21819286492E+02  0.11857131492E+02  0.59301954216E+02  0.50000018581E+02 0.  0.
         12    1    1    2    0    0  0.20001177103E+02 -0.21819286492E+02 -0.11857131492E+02  0.31886045784E+02  0.00000000000E+00 0. -1.
         11    1    3    3    0    0 -0.16935330612E+02  0.27174086732E+02  0.19236172142E+02  0.37353269356E+02  0.51100000000E-03 0.  1.
        -11    1    3    3    0    0 -0.91413864933E+01 -0.80269078210E+01 -0.19358334680E+00  0.12166908850E+02  0.51100000000E-03 0. -1.
        -12    1    3    3    0    0  0.60755400023E+01  0.26721075811E+01 -0.71854573038E+01  0.97817760099E+01  0.00000000000E+00 0.  1.
</event>
<event>
 7    1  0.5832130E-012  0.5930195E+02  0.7816164E-02  0.1266605E+00
        -11   -1    0    0    0    0  0.00000000000E+00  0.00000000000E+00  0.45593999997E+02  0.45594000000E+02  0.51100000000E-03 0. -1.
         11   -1    0    0    0    0 -0.00000000000E+00 -0.00000000000E+00 -0.45593999997E+02  0.45594000000E+02  0.51100000000E-03 0.  1.
    9900012    2    1    2    0    0  0.16300339336E+02  0.62155985355E+01 -0.26690548003E+02  0.59301951635E+02  0.50000013874E+02 0.  0.
         12    1    1    2    0    0 -0.16300339336E+02 -0.62155985355E+01  0.26690548003E+02  0.31886048365E+02  0.00000000000E+00 0. -1.
         11    1    3    3    0    0 -0.14322632362E+02 -0.72313887743E+01 -0.88750924384E+00  0.16069177151E+02  0.51100000000E-03 0. -1.
        -11    1    3    3    0    0  0.12118312119E+02  0.61542541377E+01 -0.16198987642E+02  0.21145579526E+02  0.51100000000E-03 0.  1.
        -12    1    3    3    0    0  0.18504659579E+02  0.72927331721E+01 -0.96040511170E+01  0.22087194958E+02  0.00000000000E+00 0.  1.
</event>
<event>
 7    1  0.5832130E-012  0.5930193E+02  0.7816164E-02  0.1266605E+00
        -11   -1    0    0    0    0  0.00000000000E+00  0.00000000000E+00  0.45593999997E+02  0.45594000000E+02  0.51100000000E-03 0.  1.
         11   -1    0    0    0    0 -0.00000000000E+00 -0.00000000000E+00 -0.45593999997E+02  0.45594000000E+02  0.51100000000E-03 0. -1.
    9900012    2    1    2    0    0 -0.16062956410E+02 -0.26957697082E+02  0.56555698635E+01  0.59301929827E+02  0.49999974101E+02 0.  0.
         12    1    1    2    0    0  0.16062956410E+02  0.26957697082E+02 -0.56555698635E+01  0.31886070173E+02  0.00000000000E+00 0. -1.
         11    1    3    3    0    0  0.30427732305E+01 -0.87259287688E+01 -0.23879199610E+01  0.95447610662E+01  0.51100000000E-03 0. -1.
        -11    1    3    3    0    0 -0.17261602546E+02 -0.31077730120E+02  0.24767437456E+01  0.35635971879E+02  0.51100000000E-03 0.  1.
         12    1    3    3    0    0 -0.18441270937E+01  0.12845961807E+02  0.55667460788E+01  0.14121196882E+02  0.00000000000E+00 0. -1.
</event>
<event>
 7    1  0.5832130E-012  0.5930193E+02  0.7816164E-02  0.1266605E+00
        -11   -1    0    0    0    0  0.00000000000E+00  0.00000000000E+00  0.45593999997E+02  0.45594000000E+02  0.51100000000E-03 0. -1.
         11   -1    0    0    0    0 -0.00000000000E+00 -0.00000000000E+00 -0.45593999997E+02  0.45594000000E+02  0.51100000000E-03 0.  1.
    9900012    2    1    2    0    0  0.14763777362E+02 -0.19084095249E+02 -0.20845857685E+02  0.59301927866E+02  0.49999970526E+02 0.  0.
         12    1    1    2    0    0 -0.14763777362E+02  0.19084095249E+02  0.20845857685E+02  0.31886072134E+02  0.00000000000E+00 0. -1.
         11    1    3    3    0    0 -0.17549573938E+00  0.59652018120E+01  0.10635340914E+01  0.60618096669E+01  0.51100000000E-03 0. -1.
        -11    1    3    3    0    0  0.46535921664E+01  0.53079553571E+01 -0.19911178208E+02  0.21125466338E+02  0.51100000000E-03 0.  1.
         12    1    3    3    0    0  0.10285680935E+02 -0.30357252419E+02 -0.19982135684E+01  0.32114651861E+02  0.00000000000E+00 0. -1.
</event>
<event>
 7    1  0.5832130E-012  0.5930199E+02  0.7816164E-02  0.1266605E+00
        -11   -1    0    0    0    0  0.00000000000E+00  0.00000000000E+00  0.45593999997E+02  0.45594000000E+02  0.51100000000E-03 0. -1.
         11   -1    0    0    0    0 -0.00000000000E+00 -0.00000000000E+00 -0.45593999997E+02  0.45594000000E+02  0.51100000000E-03 0.  1.
    9900012    2    1    2    0    0  0.20555144442E+02 -0.22295046429E+02  0.98557023209E+01  0.59301985408E+02  0.50000075468E+02 0.  0.
         12    1    1    2    0    0 -0.20555144442E+02  0.22295046429E+02 -0.98557023209E+01  0.31886014592E+02  0.00000000000E+00 0. -1.
         11    1    3    3    0    0 -0.45392273136E+01 -0.69202544731E+01  0.18192720689E+02  0.19986735424E+02  0.51100000000E-03 0. -1.
        -11    1    3    3    0    0 -0.44523077709E+01  0.10990705058E+01 -0.12266639729E+01  0.47471786597E+01  0.51100000000E-03 0.  1.
         12    1    3    3    0    0  0.29546679526E+02 -0.16473862462E+02 -0.71103543956E+01  0.34568071324E+02  0.00000000000E+00 0. -1.
</event>
<event>
 7    1  0.5832130E-012  0.5930194E+02  0.7816164E-02  0.1266605E+00
        -11   -1    0    0    0    0  0.00000000000E+00  0.00000000000E+00  0.45593999997E+02  0.45594000000E+02  0.51100000000E-03 0. -1.
         11   -1    0    0    0    0 -0.00000000000E+00 -0.00000000000E+00 -0.45593999997E+02  0.45594000000E+02  0.51100000000E-03 0.  1.
    9900012    2    1    2    0    0 -0.15247330558E+02 -0.25031565715E+02 -0.12556284228E+02  0.59301942782E+02  0.49999997727E+02 0.  0.
         12    1    1    2    0    0  0.15247330558E+02  0.25031565715E+02  0.12556284228E+02  0.31886057218E+02  0.00000000000E+00 0. -1.
         11    1    3    3    0    0 -0.21027951797E+02 -0.16629141171E+02 -0.15395992086E+01  0.26852811005E+02  0.51100000000E-03 0. -1.
        -11    1    3    3    0    0 -0.66028507956E+01 -0.15017215055E+02 -0.70870898270E+01  0.17870121128E+02  0.51100000000E-03 0.  1.
         12    1    3    3    0    0  0.12383472034E+02  0.66147905110E+01 -0.39295951927E+01  0.14579010649E+02  0.00000000000E+00 0. -1.
</event>
<event>
 7    1  0.5832130E-012  0.5930194E+02  0.7816164E-02  0.1266605E+00
        -11   -1    0    0    0    0  0.00000000000E+00  0.00000000000E+00  0.45593999997E+02  0.45594000000E+02  0.51100000000E-03 0. -1.
         11   -1    0    0    0    0 -0.00000000000E+00 -0.00000000000E+00 -0.45593999997E+02  0.45594000000E+02  0.51100000000E-03 0.  1.
    9900012    2    1    2    0    0  0.23854483878E+02 -0.83129067246E+01 -0.19457128243E+02  0.59301942565E+02  0.49999997332E+02 0.  0.
         12    1    1    2    0    0 -0.23854483878E+02  0.83129067246E+01  0.19457128243E+02  0.31886057435E+02  0.00000000000E+00 0. -1.
         11    1    3    3    0    0  0.32312320882E+01  0.83862666313E+01  0.12330786020E+02  0.15258394835E+02  0.51100000000E-03 0. -1.
        -11    1    3    3    0    0  0.85701280291E+01 -0.16200989552E+02 -0.17459485561E+02  0.25313095291E+02  0.51100000000E-03 0.  1.
        -12    1    3    3    0    0  0.12053123760E+02 -0.49818380340E+00 -0.14328428702E+02  0.18730452439E+02  0.00000000000E+00 0.  1.
</event>
<event>
 7    1  0.5832130E-012  0.5930193E+02  0.7816164E-02  0.1266605E+00
        -11   -1    0    0    0    0  0.00000000000E+00  0.00000000000E+00  0.45593999997E+02  0.45594000000E+02  0.51100000000E-03 0.  1.
         11   -1    0    0    0    0 -0.00000000000E+00 -0.00000000000E+00 -0.45593999997E+02  0.45594000000E+02  0.51100000000E-03 0. -1.
    9900012    2    1    2    0    0  0.98894519685E+00 -0.15929629991E+02  0.27604173297E+02  0.59301929254E+02  0.49999973055E+02 0.  0.
         12    1    1    2    0    0 -0.98894519685E+00  0.15929629991E+02 -0.27604173297E+02  0.31886070746E+02  0.00000000000E+00 0. -1.
         11    1    3    3    0    0  0.39599219253E+01 -0.11080129019E+02 -0.57536391055E+01  0.13097885476E+02  0.51100000000E-03 0.  1.
        -11    1    3    3    0    0 -0.50692054065E+01  0.24600373662E+01 -0.47347575461E+01  0.73597932429E+01  0.51100000000E-03 0. -1.
        -12    1    3    3    0    0  0.20982286780E+01 -0.73095383381E+01  0.38092569949E+02  0.38844250535E+02  0.00000000000E+00 0.  1.
</event>
<event>
 7    1  0.5832130E-012  0.5930195E+02  0.7816164E-02  0.1266605E+00
        -11   -1    0    0    0    0  0.00000000000E+00  0.00000000000E+00  0.45593999997E+02  0.45594000000E+02  0.51100000000E-03 0.  1.
         11   -1    0    0    0    0 -0.00000000000E+00 -0.00000000000E+00 -0.45593999997E+02  0.45594000000E+02  0.51100000000E-03 0. -1.
    9900012    2    1    2    0    0  0.10981528839E+02  0.29365931237E+02  0.58110418321E+01  0.59301951324E+02  0.50000013306E+02 0.  0.
         12    1    1    2    0    0 -0.10981528839E+02 -0.29365931237E+02 -0.58110418321E+01  0.31886048676E+02  0.00000000000E+00 0. -1.
         11    1    3    3    0    0  0.77998919634E+01  0.30487515947E+01  0.90034756618E+01  0.12296169126E+02  0.51100000000E-03 0. -1.
        -11    1    3    3    0    0  0.64092206901E+01  0.30506218793E+02  0.10045336706E+02  0.32750821130E+02  0.51100000000E-03 0.  1.
         12    1    3    3    0    0 -0.32275838149E+01 -0.41890391510E+01 -0.13237770535E+02  0.14254961067E+02  0.00000000000E+00 0. -1.
</event>
<event>
 7    1  0.5832130E-012  0.5930195E+02  0.7816164E-02  0.1266605E+00
        -11   -1    0    0    0    0  0.00000000000E+00  0.00000000000E+00  0.45593999997E+02  0.45594000000E+02  0.51100000000E-03 0. -1.
         11   -1    0    0    0    0 -0.00000000000E+00 -0.00000000000E+00 -0.45593999997E+02  0.45594000000E+02  0.51100000000E-03 0.  1.
    9900012    2    1    2    0    0  0.11255470661E+02 -0.28759186503E+02 -0.79337195047E+01  0.59301947668E+02  0.50000006639E+02 0.  0.
         12    1    1    2    0    0 -0.11255470661E+02  0.28759186503E+02  0.79337195047E+01  0.31886052332E+02  0.00000000000E+00 0. -1.
         11    1    3    3    0    0  0.97902619644E+01 -0.13218766371E+02  0.14868229542E+02  0.22173165396E+02  0.51100000000E-03 0. -1.
        -11    1    3    3    0    0 -0.77133445330E+00 -0.98265857065E+01  0.32384932111E+01  0.10375190698E+02  0.51100000000E-03 0.  1.
        -12    1    3    3    0    0  0.22365431497E+01 -0.57138344254E+01 -0.26040442258E+02  0.26753591574E+02  0.00000000000E+00 0.  1.
</event>
<event>
 7    1  0.5832130E-012  0.5930194E+02  0.7816164E-02  0.1266605E+00
        -11   -1    0    0    0    0  0.00000000000E+00  0.00000000000E+00  0.45593999997E+02  0.45594000000E+02  0.51100000000E-03 0.  1.
         11   -1    0    0    0    0 -0.00000000000E+00 -0.00000000000E+00 -0.45593999997E+02  0.45594000000E+02  0.51100000000E-03 0. -1.
    9900012    2    1    2    0    0  0.31280787040E+02 -0.12830184856E+01 -0.60487221106E+01  0.59301940139E+02  0.49999992908E+02 0.  0.
         12    1    1    2    0    0 -0.31280787040E+02  0.12830184856E+01  0.60487221106E+01  0.31886059861E+02  0.00000000000E+00 0. -1.
         11    1    3    3    0    0 -0.90141464742E+01  0.10767119818E+02 -0.54157341694E+01  0.15050444601E+02  0.51100000000E-03 0.  1.
        -11    1    3    3    0    0  0.19036395883E+02 -0.12568689499E+02  0.16134335146E+01  0.22868307588E+02  0.51100000000E-03 0. -1.
        -12    1    3    3    0    0  0.21258537631E+02  0.51855119529E+00 -0.22464214558E+01  0.21383187950E+02  0.00000000000E+00 0.  1.
</event>
<event>
 7    1  0.5832130E-012  0.5930195E+02  0.7816164E-02  0.1266605E+00
        -11   -1    0    0    0    0  0.00000000000E+00  0.00000000000E+00  0.45593999997E+02  0.45594000000E+02  0.51100000000E-03 0. -1.
         11   -1    0    0    0    0 -0.00000000000E+00 -0.00000000000E+00 -0.45593999997E+02  0.45594000000E+02  0.51100000000E-03 0.  1.
    9900012    2    1    2    0    0  0.48209732707E+00  0.29431462012E+02 -0.12258733346E+02  0.59301954193E+02  0.50000018538E+02 0.  0.
         12    1    1    2    0    0 -0.48209732707E+00 -0.29431462012E+02  0.12258733346E+02  0.31886045807E+02  0.00000000000E+00 0. -1.
         11    1    3    3    0    0  0.82219147033E+00 -0.20160960114E+01 -0.58267697972E+01  0.62202804174E+01  0.51100000000E-03 0.  1.
        -11    1    3    3    0    0 -0.14796553472E+02 -0.20572251850E+00 -0.10357606951E+02  0.18062678052E+02  0.51100000000E-03 0. -1.
         12    1    3    3    0    0  0.14456459329E+02  0.31653280542E+02  0.39256434018E+01  0.35018995724E+02  0.00000000000E+00 0. -1.
</event>
<event>
 7    1  0.5832130E-012  0.5930197E+02  0.7816164E-02  0.1266605E+00
        -11   -1    0    0    0    0  0.00000000000E+00  0.00000000000E+00  0.45593999997E+02  0.45594000000E+02  0.51100000000E-03 0. -1.
         11   -1    0    0    0    0 -0.00000000000E+00 -0.00000000000E+00 -0.45593999997E+02  0.45594000000E+02  0.51100000000E-03 0.  1.
    9900012    2    1    2    0    0  0.15512236005E+01  0.21395367452E+02 -0.23591331638E+02  0.59301969022E+02  0.50000045584E+02 0.  0.
         12    1    1    2    0    0 -0.15512236005E+01 -0.21395367452E+02  0.23591331638E+02  0.31886030978E+02  0.00000000000E+00 0. -1.
         11    1    3    3    0    0 -0.58754697038E+01 -0.15702996764E+01  0.29604544466E+01  0.67639689610E+01  0.51100000000E-03 0. -1.
        -11    1    3    3    0    0 -0.12989624657E+02  0.10705938880E+02 -0.22936840544E+02  0.28450766781E+02  0.51100000000E-03 0.  1.
        -12    1    3    3    0    0  0.20416317961E+02  0.12259728249E+02 -0.36149455408E+01  0.24087233280E+02  0.00000000000E+00 0.  1.
</event>
<event>
 7    1  0.5832130E-012  0.5930195E+02  0.7816164E-02  0.1266605E+00
        -11   -1    0    0    0    0  0.00000000000E+00  0.00000000000E+00  0.45593999997E+02  0.45594000000E+02  0.51100000000E-03 0.  1.
         11   -1    0    0    0    0 -0.00000000000E+00 -0.00000000000E+00 -0.45593999997E+02  0.45594000000E+02  0.51100000000E-03 0. -1.
    9900012    2    1    2    0    0  0.26933088831E+02 -0.15331759746E+02  0.75010900005E+01  0.59301945335E+02  0.50000002385E+02 0.  0.
         12    1    1    2    0    0 -0.26933088831E+02  0.15331759746E+02 -0.75010900005E+01  0.31886054665E+02  0.00000000000E+00 0. -1.
         11    1    3    3    0    0  0.66269087265E+01 -0.20689958850E+02 -0.62966904478E+00  0.21734461112E+02  0.51100000000E-03 0. -1.
        -11    1    3    3    0    0  0.20706310417E+02  0.47916562635E+01 -0.70337213069E+01  0.22387150254E+02  0.51100000000E-03 0.  1.
         12    1    3    3    0    0 -0.40013031264E+00  0.56654284020E+00  0.15164480352E+02  0.15180333969E+02  0.00000000000E+00 0. -1.
</event>
<event>
 7    1  0.5832130E-012  0.5930195E+02  0.7816164E-02  0.1266605E+00
        -11   -1    0    0    0    0  0.00000000000E+00  0.00000000000E+00  0.45593999997E+02  0.45594000000E+02  0.51100000000E-03 0. -1.
         11   -1    0    0    0    0 -0.00000000000E+00 -0.00000000000E+00 -0.45593999997E+02  0.45594000000E+02  0.51100000000E-03 0.  1.
    9900012    2    1    2    0    0  0.27151995132E+02 -0.58610236709E+01 -0.15656881290E+02  0.59301947095E+02  0.50000005594E+02 0.  0.
         12    1    1    2    0    0 -0.27151995132E+02  0.58610236709E+01  0.15656881290E+02  0.31886052905E+02  0.00000000000E+00 0. -1.
         11    1    3    3    0    0 -0.11238845145E+02  0.76210495060E+00 -0.16851068555E+01  0.11389996906E+02  0.51100000000E-03 0. -1.
        -11    1    3    3    0    0  0.41771305823E+01 -0.54317085943E+01 -0.11754359305E+02  0.13605764994E+02  0.51100000000E-03 0.  1.
        -12    1    3    3    0    0  0.34213709695E+02 -0.11914200272E+01 -0.22174151299E+01  0.34306185195E+02  0.00000000000E+00 0.  1.
</event>
<event>
 7    1  0.5832130E-012  0.5930194E+02  0.7816164E-02  0.1266605E+00
        -11   -1    0    0    0    0  0.00000000000E+00  0.00000000000E+00  0.45593999997E+02  0.45594000000E+02  0.51100000000E-03 0. -1.
         11   -1    0    0    0    0 -0.00000000000E+00 -0.00000000000E+00 -0.45593999997E+02  0.45594000000E+02  0.51100000000E-03 0.  1.
    9900012    2    1    2    0    0  0.14801885739E+02 -0.12485354929E+02 -0.25332603006E+02  0.59301942166E+02  0.49999996605E+02 0.  0.
         12    1    1    2    0    0 -0.14801885739E+02  0.12485354929E+02  0.25332603006E+02  0.31886057834E+02  0.00000000000E+00 0. -1.
         11    1    3    3    0    0 -0.12890801071E+02 -0.38590759933E+01  0.36919802623E+01  0.13953348641E+02  0.51100000000E-03 0.  1.
        -11    1    3    3    0    0  0.16804193198E+02 -0.95005524716E+01 -0.65931722440E+01  0.20398806995E+02  0.51100000000E-03 0. -1.
        -12    1    3    3    0    0  0.10888493611E+02  0.87427353597E+00 -0.22431411025E+02  0.24949786530E+02  0.00000000000E+00 0.  1.
</event>
<event>
 7    1  0.5832130E-012  0.5930190E+02  0.7816164E-02  0.1266605E+00
        -11   -1    0    0    0    0  0.00000000000E+00  0.00000000000E+00  0.45593999997E+02  0.45594000000E+02  0.51100000000E-03 0.  1.
         11   -1    0    0    0    0 -0.00000000000E+00 -0.00000000000E+00 -0.45593999997E+02  0.45594000000E+02  0.51100000000E-03 0. -1.
    9900012    2    1    2    0    0  0.42092423051E+01 -0.28621603406E+02  0.13409303051E+02  0.59301900981E+02  0.49999921494E+02 0.  0.
         12    1    1    2    0    0 -0.42092423051E+01  0.28621603406E+02 -0.13409303051E+02  0.31886099019E+02  0.00000000000E+00 0. -1.
         11    1    3    3    0    0  0.14514688648E+02 -0.74537799479E+01  0.94924116256E+01  0.18876993955E+02  0.51100000000E-03 0. -1.
        -11    1    3    3    0    0 -0.15361799353E+02 -0.16388750756E+02  0.15233220231E+02  0.27140873780E+02  0.51100000000E-03 0.  1.
         12    1    3    3    0    0  0.50563530100E+01 -0.47790727016E+01 -0.11316328805E+02  0.13284033246E+02  0.00000000000E+00 0. -1.
</event>
<event>
 7    1  0.5832130E-012  0.5930196E+02  0.7816164E-02  0.1266605E+00
        -11   -1    0    0    0    0  0.00000000000E+00  0.00000000000E+00  0.45593999997E+02  0.45594000000E+02  0.51100000000E-03 0. -1.
         11   -1    0    0    0    0 -0.00000000000E+00 -0.00000000000E+00 -0.45593999997E+02  0.45594000000E+02  0.51100000000E-03 0.  1.
    9900012    2    1    2    0    0  0.20543033741E+02  0.24356994380E+02  0.11999996879E+01  0.59301962150E+02  0.50000033050E+02 0.  0.
         12    1    1    2    0    0 -0.20543033741E+02 -0.24356994380E+02 -0.11999996879E+01  0.31886037850E+02  0.00000000000E+00 0. -1.
         11    1    3    3    0    0 -0.73126861267E+01  0.23289917072E+01 -0.94387221572E+01  0.12165075297E+02  0.51100000000E-03 0. -1.
        -11    1    3    3    0    0  0.84408046014E+01  0.10940641127E+02 -0.97234099888E+01  0.16896434910E+02  0.51100000000E-03 0.  1.
         12    1    3    3    0    0  0.19414915267E+02  0.11087361546E+02  0.20362131834E+02  0.30240451943E+02  0.00000000000E+00 0. -1.
</event>
<event>
 7    1  0.5832130E-012  0.5930196E+02  0.7816164E-02  0.1266605E+00
        -11   -1    0    0    0    0  0.00000000000E+00  0.00000000000E+00  0.45593999997E+02  0.45594000000E+02  0.51100000000E-03 0. -1.
         11   -1    0    0    0    0 -0.00000000000E+00 -0.00000000000E+00 -0.45593999997E+02  0.45594000000E+02  0.51100000000E-03 0.  1.
    9900012    2    1    2    0    0 -0.70622583087E+01 -0.87920334139E+01 -0.29825226913E+02  0.59301960666E+02  0.50000030344E+02 0.  0.
         12    1    1    2    0    0  0.70622583087E+01  0.87920334139E+01  0.29825226913E+02  0.31886039334E+02  0.00000000000E+00 0. -1.
         11    1    3    3    0    0  0.41805745053E+00  0.67897455481E+01  0.39506549949E+01  0.78665806924E+01  0.51100000000E-03 0. -1.
        -11    1    3    3    0    0  0.10439511167E+02  0.40876641198E+00 -0.58157495344E+00  0.10463685444E+02  0.51100000000E-03 0.  1.
         12    1    3    3    0    0 -0.17919826926E+02 -0.15990545374E+02 -0.33194306955E+02  0.40971694530E+02  0.00000000000E+00 0. -1.
</event>
<event>
 7    1  0.5832130E-012  0.5930196E+02  0.7816164E-02  0.1266605E+00
        -11   -1    0    0    0    0  0.00000000000E+00  0.00000000000E+00  0.45593999997E+02  0.45594000000E+02  0.51100000000E-03 0.  1.
         11   -1    0    0    0    0 -0.00000000000E+00 -0.00000000000E+00 -0.45593999997E+02  0.45594000000E+02  0.51100000000E-03 0. -1.
    9900012    2    1    2    0    0 -0.42450870300E+01 -0.30821843172E+02 -0.69794664286E+01  0.59301957097E+02  0.50000023834E+02 0.  0.
         12    1    1    2    0    0  0.42450870300E+01  0.30821843172E+02  0.69794664286E+01  0.31886042903E+02  0.00000000000E+00 0. -1.
         11    1    3    3    0    0 -0.11864493852E+02 -0.20625259877E+02  0.10056122478E+02  0.25832018096E+02  0.51100000000E-03 0. -1.
        -11    1    3    3    0    0  0.50816803062E+01 -0.39651058137E+01  0.64026109112E+01  0.90850957942E+01  0.51100000000E-03 0.  1.
         12    1    3    3    0    0  0.25377265159E+01 -0.62314774815E+01 -0.23438199818E+02  0.24384843206E+02  0.00000000000E+00 0. -1.
</event>
<event>
 7    1  0.5832130E-012  0.5930187E+02  0.7816164E-02  0.1266605E+00
        -11   -1    0    0    0    0  0.00000000000E+00  0.00000000000E+00  0.45593999997E+02  0.45594000000E+02  0.51100000000E-03 0.  1.
         11   -1    0    0    0    0 -0.00000000000E+00 -0.00000000000E+00 -0.45593999997E+02  0.45594000000E+02  0.51100000000E-03 0. -1.
    9900012    2    1    2    0    0  0.27605664141E+02 -0.15926440889E+02  0.10005447671E+01  0.59301869757E+02  0.49999864548E+02 0.  0.
         12    1    1    2    0    0 -0.27605664141E+02  0.15926440889E+02 -0.10005447671E+01  0.31886130243E+02  0.00000000000E+00 0. -1.
         11    1    3    3    0    0 -0.94630399385E+01 -0.49373506464E+00  0.48935610257E+01  0.10664888137E+02  0.51100000000E-03 0. -1.
        -11    1    3    3    0    0  0.44471816285E+01 -0.15206919671E+02 -0.70997801397E+00  0.15859757229E+02  0.51100000000E-03 0.  1.
        -12    1    3    3    0    0  0.32621522451E+02 -0.22578615329E+00 -0.31830382446E+01  0.32777224392E+02  0.00000000000E+00 0.  1.
</event>
<event>
 7    1  0.5832130E-012  0.5930194E+02  0.7816164E-02  0.1266605E+00
        -11   -1    0    0    0    0  0.00000000000E+00  0.00000000000E+00  0.45593999997E+02  0.45594000000E+02  0.51100000000E-03 0.  1.
         11   -1    0    0    0    0 -0.00000000000E+00 -0.00000000000E+00 -0.45593999997E+02  0.45594000000E+02  0.51100000000E-03 0. -1.
    9900012    2    1    2    0    0 -0.18260641654E+02 -0.20273947908E+02  0.16499607499E+02  0.59301936508E+02  0.49999986285E+02 0.  0.
         12    1    1    2    0    0  0.18260641654E+02  0.20273947908E+02 -0.16499607499E+02  0.31886063492E+02  0.00000000000E+00 0. -1.
         11    1    3    3    0    0  0.23385041496E+01 -0.11430392574E+02  0.20511716864E+02  0.23597733048E+02  0.51100000000E-03 0. -1.
        -11    1    3    3    0    0 -0.16242755902E+02 -0.17988278252E+02 -0.68480464251E+01  0.25185333309E+02  0.51100000000E-03 0.  1.
        -12    1    3    3    0    0 -0.43563899018E+01  0.91447229185E+01  0.28359370608E+01  0.10518870151E+02  0.00000000000E+00 0.  1.
</event>
<event>
 7    1  0.6833197E-012  0.5930195E+02  0.7816164E-02  0.1266605E+00
        -11   -1    0    0    0    0  0.00000000000E+00  0.00000000000E+00  0.45593999997E+02  0.45594000000E+02  0.51100000000E-03 0. -1.
         11   -1    0    0    0    0 -0.00000000000E+00 -0.00000000000E+00 -0.45593999997E+02  0.45594000000E+02  0.51100000000E-03 0.  1.
    9900012    2    1    2    0    0  0.21420392008E+02  0.14313274986E+02 -0.18788754790E+02  0.59301947545E+02  0.50000006416E+02 0.  0.
         12    1    1    2    0    0 -0.21420392008E+02 -0.14313274986E+02  0.18788754790E+02  0.31886052455E+02  0.00000000000E+00 0. -1.
         11    1    3    3    0    0  0.81432934433E+01  0.11364843404E+02  0.50706520676E+01  0.14872269711E+02  0.51100000000E-03 0. -1.
        -11    1    3    3    0    0  0.21231509337E+02  0.12446121169E+02 -0.12418540359E+02  0.27566339361E+02  0.51100000000E-03 0.  1.
         12    1    3    3    0    0 -0.79544107726E+01 -0.94976895869E+01 -0.11440866499E+02  0.16863338473E+02  0.00000000000E+00 0. -1.
</event>
<event>
 7    1  0.5832130E-012  0.5930218E+02  0.7816164E-02  0.1266604E+00
        -11   -1    0    0    0    0  0.00000000000E+00  0.00000000000E+00  0.45593999997E+02  0.45594000000E+02  0.51100000000E-03 0. -1.
         11   -1    0    0    0    0 -0.00000000000E+00 -0.00000000000E+00 -0.45593999997E+02  0.45594000000E+02  0.51100000000E-03 0.  1.
    9900012    2    1    2    0    0  0.27490836826E+02  0.11560476613E+02 -0.11283373861E+02  0.59302184116E+02  0.50000437861E+02 0.  0.
         12    1    1    2    0    0 -0.27490836826E+02 -0.11560476613E+02  0.11283373861E+02  0.31885815884E+02  0.00000000000E+00 0. -1.
         11    1    3    3    0    0  0.28541777709E+02 -0.57623914666E+01  0.42774500119E+01  0.29430168350E+02  0.51100000000E-03 0. -1.
        -11    1    3    3    0    0  0.82148343258E+01  0.49891908252E+01 -0.32843453556E+01  0.10156891885E+02  0.51100000000E-03 0.  1.
        -12    1    3    3    0    0 -0.92657752090E+01  0.12333677255E+02 -0.12276478517E+02  0.19715123881E+02  0.00000000000E+00 0.  1.
</event>
<event>
 7    1  0.5832130E-012  0.5930195E+02  0.7816164E-02  0.1266605E+00
        -11   -1    0    0    0    0  0.00000000000E+00  0.00000000000E+00  0.45593999997E+02  0.45594000000E+02  0.51100000000E-03 0. -1.
         11   -1    0    0    0    0 -0.00000000000E+00 -0.00000000000E+00 -0.45593999997E+02  0.45594000000E+02  0.51100000000E-03 0.  1.
    9900012    2    1    2    0    0  0.23210327571E+02 -0.21758497397E+02 -0.21374765733E+01  0.59301947861E+02  0.50000006991E+02 0.  0.
         12    1    1    2    0    0 -0.23210327571E+02  0.21758497397E+02  0.21374765733E+01  0.31886052139E+02  0.00000000000E+00 0. -1.
         11    1    3    3    0    0  0.89201489555E+01 -0.10641622420E+02  0.97831117250E+00  0.13920139300E+02  0.51100000000E-03 0. -1.
        -11    1    3    3    0    0 -0.86385720144E+01 -0.19126426821E+02 -0.13400249707E+01  0.21029522024E+02  0.51100000000E-03 0.  1.
         12    1    3    3    0    0  0.22928750629E+02  0.80095518439E+01 -0.17757627751E+01  0.24352286537E+02  0.00000000000E+00 0. -1.
</event>
<event>
 7    1  0.5832130E-012  0.5930207E+02  0.7816164E-02  0.1266604E+00
        -11   -1    0    0    0    0  0.00000000000E+00  0.00000000000E+00  0.45593999997E+02  0.45594000000E+02  0.51100000000E-03 0. -1.
         11   -1    0    0    0    0 -0.00000000000E+00 -0.00000000000E+00 -0.45593999997E+02  0.45594000000E+02  0.51100000000E-03 0.  1.
    9900012    2    1    2    0    0 -0.21902026480E+02 -0.92731073158E+01 -0.21237302824E+02  0.59302073411E+02  0.50000235963E+02 0.  0.
         12    1    1    2    0    0  0.21902026480E+02  0.92731073158E+01  0.21237302824E+02  0.31885926589E+02  0.00000000000E+00 0. -1.
         11    1    3    3    0    0 -0.71573570673E+01 -0.29096779937E+01 -0.18994511092E+02  0.20505741588E+02  0.51100000000E-03 0. -1.
        -11    1    3    3    0    0 -0.10994786661E+02  0.21368941129E+01 -0.17591620404E+02  0.20854657966E+02  0.51100000000E-03 0.  1.
         12    1    3    3    0    0 -0.37498827512E+01 -0.85003234350E+01  0.15348828672E+02  0.17941673856E+02  0.00000000000E+00 0. -1.
</event>
<event>
 7    1  0.5832130E-012  0.5930194E+02  0.7816164E-02  0.1266605E+00
        -11   -1    0    0    0    0  0.00000000000E+00  0.00000000000E+00  0.45593999997E+02  0.45594000000E+02  0.51100000000E-03 0.  1.
         11   -1    0    0    0    0 -0.00000000000E+00 -0.00000000000E+00 -0.45593999997E+02  0.45594000000E+02  0.51100000000E-03 0. -1.
    9900012    2    1    2    0    0  0.27160179377E+02  0.60402951901E+01  0.15574348880E+02  0.59301939522E+02  0.49999991782E+02 0.  0.
         12    1    1    2    0    0 -0.27160179377E+02 -0.60402951901E+01 -0.15574348880E+02  0.31886060478E+02  0.00000000000E+00 0. -1.
         11    1    3    3    0    0  0.68646238122E+01 -0.11593104861E+02  0.21572902610E+01  0.13644670825E+02  0.51100000000E-03 0. -1.
        -11    1    3    3    0    0  0.16401959701E+02 -0.63502373305E+01  0.12051919005E+02  0.21321316754E+02  0.51100000000E-03 0.  1.
         12    1    3    3    0    0  0.38935958646E+01  0.23983637381E+02  0.13651396141E+01  0.24335951943E+02  0.00000000000E+00 0. -1.
</event>
<event>
 7    1  0.1118560E-011  0.5930193E+02  0.7816164E-02  0.1266605E+00
        -11   -1    0    0    0    0  0.00000000000E+00  0.00000000000E+00  0.45593999997E+02  0.45594000000E+02  0.51100000000E-03 0. -1.
         11   -1    0    0    0    0 -0.00000000000E+00 -0.00000000000E+00 -0.45593999997E+02  0.45594000000E+02  0.51100000000E-03 0.  1.
    9900012    2    1    2    0    0  0.13997640092E+02 -0.23232180658E+02 -0.16764641553E+02  0.59301931684E+02  0.49999977487E+02 0.  0.
         12    1    1    2    0    0 -0.13997640092E+02  0.23232180658E+02  0.16764641553E+02  0.31886068316E+02  0.00000000000E+00 0. -1.
         11    1    3    3    0    0 -0.33583663390E+01 -0.85129102162E+01  0.59619127617E+01  0.10922118332E+02  0.51100000000E-03 0. -1.
        -11    1    3    3    0    0 -0.31276925898E+01 -0.15663624474E+02 -0.22843589468E+02  0.27874023259E+02  0.51100000000E-03 0.  1.
         12    1    3    3    0    0  0.20483699020E+02  0.94435403233E+00  0.11703515271E+00  0.20505790093E+02  0.00000000000E+00 0. -1.
</event>
<event>
 7    1  0.5832130E-012  0.5930194E+02  0.7816164E-02  0.1266605E+00
        -11   -1    0    0    0    0  0.00000000000E+00  0.00000000000E+00  0.45593999997E+02  0.45594000000E+02  0.51100000000E-03 0.  1.
         11   -1    0    0    0    0 -0.00000000000E+00 -0.00000000000E+00 -0.45593999997E+02  0.45594000000E+02  0.51100000000E-03 0. -1.
    9900012    2    1    2    0    0 -0.20036124106E+02 -0.14993463991E+02 -0.19760328276E+02  0.59301940268E+02  0.49999993144E+02 0.  0.
         12    1    1    2    0    0  0.20036124106E+02  0.14993463991E+02  0.19760328276E+02  0.31886059732E+02  0.00000000000E+00 0. -1.
         11    1    3    3    0    0 -0.17234950584E+02 -0.12007838108E+02 -0.12898119277E+02  0.24649405243E+02  0.51100000000E-03 0. -1.
        -11    1    3    3    0    0 -0.58012699978E+01 -0.17103499518E+02  0.12358435658E+01  0.18102810249E+02  0.51100000000E-03 0.  1.
         12    1    3    3    0    0  0.30000964760E+01  0.14117873635E+02 -0.80980525640E+01  0.16549724776E+02  0.00000000000E+00 0. -1.
</event>
<event>
 7    1  0.5832130E-012  0.5930206E+02  0.7816164E-02  0.1266604E+00
        -11   -1    0    0    0    0  0.00000000000E+00  0.00000000000E+00  0.45593999997E+02  0.45594000000E+02  0.51100000000E-03 0.  1.
         11   -1    0    0    0    0 -0.00000000000E+00 -0.00000000000E+00 -0.45593999997E+02  0.45594000000E+02  0.51100000000E-03 0. -1.
    9900012    2    1    2    0    0 -0.22280238423E+02  0.15476516912E+02  0.16756535885E+02  0.59302061174E+02  0.50000213647E+02 0.  0.
         12    1    1    2    0    0  0.22280238423E+02 -0.15476516912E+02 -0.16756535885E+02  0.31885938826E+02  0.00000000000E+00 0. -1.
         11    1    3    3    0    0 -0.92049610817E+01  0.37483239985E+00 -0.14126402176E+02  0.16864965062E+02  0.51100000000E-03 0. -1.
        -11    1    3    3    0    0  0.36234768900E+01  0.47073740404E+00 -0.80883159171E+00  0.37423772233E+01  0.51100000000E-03 0.  1.
        -12    1    3    3    0    0 -0.16698754232E+02  0.14630947108E+02  0.31691769653E+02  0.38694718889E+02  0.00000000000E+00 0.  1.
</event>
<event>
 7    1  0.5832130E-012  0.5930211E+02  0.7816164E-02  0.1266604E+00
        -11   -1    0    0    0    0  0.00000000000E+00  0.00000000000E+00  0.45593999997E+02  0.45594000000E+02  0.51100000000E-03 0.  1.
         11   -1    0    0    0    0 -0.00000000000E+00 -0.00000000000E+00 -0.45593999997E+02  0.45594000000E+02  0.51100000000E-03 0. -1.
    9900012    2    1    2    0    0  0.30914595068E+02  0.53245860904E+01  0.57137213127E+01  0.59302109444E+02  0.50000301680E+02 0.  0.
         12    1    1    2    0    0 -0.30914595068E+02 -0.53245860904E+01 -0.57137213127E+01  0.31885890556E+02  0.00000000000E+00 0. -1.
         11    1    3    3    0    0 -0.78804124097E+01  0.35161401185E+01  0.21091741056E+00  0.86318380138E+01  0.51100000000E-03 0. -1.
        -11    1    3    3    0    0  0.51632289324E+01  0.11076419505E+02  0.96062883065E+01  0.15544348727E+02  0.51100000000E-03 0.  1.
        -12    1    3    3    0    0  0.33631778546E+02 -0.92679735327E+01 -0.41034844043E+01  0.35125922704E+02  0.00000000000E+00 0.  1.
</event>
<event>
 7    1  0.5832130E-012  0.5930192E+02  0.7816164E-02  0.1266605E+00
        -11   -1    0    0    0    0  0.00000000000E+00  0.00000000000E+00  0.45593999997E+02  0.45594000000E+02  0.51100000000E-03 0.  1.
         11   -1    0    0    0    0 -0.00000000000E+00 -0.00000000000E+00 -0.45593999997E+02  0.45594000000E+02  0.51100000000E-03 0. -1.
    9900012    2    1    2    0    0 -0.29215764365E+02  0.10730686454E+02  0.69291850406E+01  0.59301919580E+02  0.49999955414E+02 0.  0.
         12    1    1    2    0    0  0.29215764365E+02 -0.10730686454E+02 -0.69291850406E+01  0.31886080420E+02  0.00000000000E+00 0. -1.
         11    1    3    3    0    0  0.13057674470E+01  0.10323487348E+01  0.15841493349E+02  0.15928706297E+02  0.51100000000E-03 0. -1.
        -11    1    3    3    0    0 -0.22290072756E+02  0.28533728720E+01  0.75756518253E+01  0.23714543661E+02  0.51100000000E-03 0.  1.
         12    1    3    3    0    0 -0.82314590557E+01  0.68449648472E+01 -0.16487960133E+02  0.19658669622E+02  0.00000000000E+00 0. -1.
</event>
<event>
 7    1  0.5832130E-012  0.5930189E+02  0.7816164E-02  0.1266605E+00
        -11   -1    0    0    0    0  0.00000000000E+00  0.00000000000E+00  0.45593999997E+02  0.45594000000E+02  0.51100000000E-03 0. -1.
         11   -1    0    0    0    0 -0.00000000000E+00 -0.00000000000E+00 -0.45593999997E+02  0.45594000000E+02  0.51100000000E-03 0.  1.
    9900012    2    1    2    0    0 -0.21086698877E+02 -0.97365761774E+01 -0.21846611610E+02  0.59301886658E+02  0.49999895372E+02 0.  0.
         12    1    1    2    0    0  0.21086698877E+02  0.97365761774E+01  0.21846611610E+02  0.31886113342E+02  0.00000000000E+00 0. -1.
         11    1    3    3    0    0  0.38408671998E+01  0.37400205831E+01  0.78197184439E+01  0.94809288369E+01  0.51100000000E-03 0. -1.
        -11    1    3    3    0    0  0.34040606510E+00  0.68452527144E+01 -0.18509257389E+01  0.70992455490E+01  0.51100000000E-03 0.  1.
        -12    1    3    3    0    0 -0.25267972142E+02 -0.20321849475E+02 -0.27815404316E+02  0.42721712272E+02  0.00000000000E+00 0.  1.
</event>
<event>
 7    1  0.5832130E-012  0.5930200E+02  0.7816164E-02  0.1266605E+00
        -11   -1    0    0    0    0  0.00000000000E+00  0.00000000000E+00  0.45593999997E+02  0.45594000000E+02  0.51100000000E-03 0. -1.
         11   -1    0    0    0    0 -0.00000000000E+00 -0.00000000000E+00 -0.45593999997E+02  0.45594000000E+02  0.51100000000E-03 0.  1.
    9900012    2    1    2    0    0  0.18398508055E+02  0.55732088111E+01 -0.25439166675E+02  0.59302000623E+02  0.50000103216E+02 0.  0.
         12    1    1    2    0    0 -0.18398508055E+02 -0.55732088111E+01  0.25439166675E+02  0.31885999377E+02  0.00000000000E+00 0. -1.
         11    1    3    3    0    0  0.29376167873E+02 -0.43887484532E+01 -0.19895381793E+02  0.35749777186E+02  0.51100000000E-03 0. -1.
        -11    1    3    3    0    0  0.35575364002E+01  0.71637507131E+01 -0.29468957051E+01  0.85240591314E+01  0.51100000000E-03 0.  1.
        -12    1    3    3    0    0 -0.14535196218E+02  0.27982065512E+01 -0.25968891776E+01  0.15028164306E+02  0.00000000000E+00 0.  1.
</event>
<event>
 7    1  0.5832130E-012  0.5930194E+02  0.7816164E-02  0.1266605E+00
        -11   -1    0    0    0    0  0.00000000000E+00  0.00000000000E+00  0.45593999997E+02  0.45594000000E+02  0.51100000000E-03 0.  1.
         11   -1    0    0    0    0 -0.00000000000E+00 -0.00000000000E+00 -0.45593999997E+02  0.45594000000E+02  0.51100000000E-03 0. -1.
    9900012    2    1    2    0    0 -0.87776793503E+01  0.11778721645E+02  0.28300788123E+02  0.59301944321E+02  0.50000000535E+02 0.  0.
         12    1    1    2    0    0  0.87776793503E+01 -0.11778721645E+02 -0.28300788123E+02  0.31886055679E+02  0.00000000000E+00 0. -1.
         11    1    3    3    0    0  0.12084122477E+02 -0.12221105140E+01  0.38111187829E+01  0.12729658157E+02  0.51100000000E-03 0. -1.
        -11    1    3    3    0    0  0.74666000736E+01  0.73327831066E+01  0.89379569327E+01  0.13762517907E+02  0.51100000000E-03 0.  1.
         12    1    3    3    0    0 -0.28328401901E+02  0.56680490526E+01  0.15551712407E+02  0.32809768258E+02  0.00000000000E+00 0. -1.
</event>
<event>
 7    1  0.5832130E-012  0.5930193E+02  0.7816164E-02  0.1266605E+00
        -11   -1    0    0    0    0  0.00000000000E+00  0.00000000000E+00  0.45593999997E+02  0.45594000000E+02  0.51100000000E-03 0.  1.
         11   -1    0    0    0    0 -0.00000000000E+00 -0.00000000000E+00 -0.45593999997E+02  0.45594000000E+02  0.51100000000E-03 0. -1.
    9900012    2    1    2    0    0  0.25249589019E+02  0.74353626244E+01  0.17997094195E+02  0.59301925258E+02  0.49999965768E+02 0.  0.
         12    1    1    2    0    0 -0.25249589019E+02 -0.74353626244E+01 -0.17997094195E+02  0.31886074742E+02  0.00000000000E+00 0. -1.
         11    1    3    3    0    0  0.14399527645E+02 -0.59662124905E+01  0.22620764948E+02  0.27470731606E+02  0.51100000000E-03 0. -1.
        -11    1    3    3    0    0 -0.66972690690E+01  0.36038391633E+00  0.45679830030E+01  0.81147864129E+01  0.51100000000E-03 0.  1.
         12    1    3    3    0    0  0.17547330443E+02  0.13041191199E+02 -0.91916537559E+01  0.23716407239E+02  0.00000000000E+00 0. -1.
</event>
<event>
 7    1  0.5832130E-012  0.5930195E+02  0.7816164E-02  0.1266605E+00
        -11   -1    0    0    0    0  0.00000000000E+00  0.00000000000E+00  0.45593999997E+02  0.45594000000E+02  0.51100000000E-03 0.  1.
         11   -1    0    0    0    0 -0.00000000000E+00 -0.00000000000E+00 -0.45593999997E+02  0.45594000000E+02  0.51100000000E-03 0. -1.
    9900012    2    1    2    0    0  0.18663862670E+00 -0.50928400622E+01  0.31476155774E+02  0.59301949192E+02  0.50000009418E+02 0.  0.
         12    1    1    2    0    0 -0.18663862670E+00  0.50928400622E+01 -0.31476155774E+02  0.31886050808E+02  0.00000000000E+00 0. -1.
         11    1    3    3    0    0 -0.75081664299E+01  0.55992560134E+00 -0.17384877592E+01  0.77271223472E+01  0.51100000000E-03 0. -1.
        -11    1    3    3    0    0  0.14790790108E+02 -0.17738789912E+02  0.11681071218E+02  0.25882031694E+02  0.51100000000E-03 0.  1.
         12    1    3    3    0    0 -0.70959850518E+01  0.12086024248E+02  0.21533572315E+02  0.25692795150E+02  0.00000000000E+00 0. -1.
</event>
<event>
 7    1  0.5832130E-012  0.5930193E+02  0.7816164E-02  0.1266605E+00
        -11   -1    0    0    0    0  0.00000000000E+00  0.00000000000E+00  0.45593999997E+02  0.45594000000E+02  0.51100000000E-03 0. -1.
         11   -1    0    0    0    0 -0.00000000000E+00 -0.00000000000E+00 -0.45593999997E+02  0.45594000000E+02  0.51100000000E-03 0.  1.
    9900012    2    1    2    0    0 -0.27183944148E+02  0.14705525501E+02  0.78423411372E+01  0.59301927583E+02  0.49999970008E+02 0.  0.
         12    1    1    2    0    0  0.27183944148E+02 -0.14705525501E+02 -0.78423411372E+01  0.31886072417E+02  0.00000000000E+00 0. -1.
         11    1    3    3    0    0 -0.11291652296E+02 -0.13562705925E+02 -0.10796773511E+01  0.17680896669E+02  0.51100000000E-03 0. -1.
        -11    1    3    3    0    0 -0.47672305637E+01 -0.40705076358E+01 -0.34850828742E-01  0.62687107528E+01  0.51100000000E-03 0.  1.
        -12    1    3    3    0    0 -0.11125061288E+02  0.32338739062E+02  0.89568693170E+01  0.35352320161E+02  0.00000000000E+00 0.  1.
</event>
<event>
 7    1  0.5832130E-012  0.5930195E+02  0.7816164E-02  0.1266605E+00
        -11   -1    0    0    0    0  0.00000000000E+00  0.00000000000E+00  0.45593999997E+02  0.45594000000E+02  0.51100000000E-03 0.  1.
         11   -1    0    0    0    0 -0.00000000000E+00 -0.00000000000E+00 -0.45593999997E+02  0.45594000000E+02  0.51100000000E-03 0. -1.
    9900012    2    1    2    0    0 -0.87112949738E+01  0.26491837503E+02  0.15460140958E+02  0.59301951752E+02  0.50000014088E+02 0.  0.
         12    1    1    2    0    0  0.87112949738E+01 -0.26491837503E+02 -0.15460140958E+02  0.31886048248E+02  0.00000000000E+00 0. -1.
         11    1    3    3    0    0 -0.13383848514E+02  0.16428853927E+02  0.54491715594E+01  0.21879856337E+02  0.51100000000E-03 0. -1.
        -11    1    3    3    0    0 -0.41600920286E+01  0.18166418244E+02  0.15498500142E+02  0.24238989756E+02  0.51100000000E-03 0.  1.
         12    1    3    3    0    0  0.88326455688E+01 -0.81034346673E+01 -0.54875307435E+01  0.13183105659E+02  0.00000000000E+00 0. -1.
</event>
<event>
 7    1  0.5832130E-012  0.5930202E+02  0.7816164E-02  0.1266604E+00
        -11   -1    0    0    0    0  0.00000000000E+00  0.00000000000E+00  0.45593999997E+02  0.45594000000E+02  0.51100000000E-03 0. -1.
         11   -1    0    0    0    0 -0.00000000000E+00 -0.00000000000E+00 -0.45593999997E+02  0.45594000000E+02  0.51100000000E-03 0.  1.
    9900012    2    1    2    0    0 -0.13129397593E+02 -0.12599376501E+02 -0.26183774902E+02  0.59302024439E+02  0.50000146651E+02 0.  0.
         12    1    1    2    0    0  0.13129397593E+02  0.12599376501E+02  0.26183774902E+02  0.31885975561E+02  0.00000000000E+00 0. -1.
         11    1    3    3    0    0 -0.13205198953E+02 -0.97763493813E+00  0.75346257180E+01  0.15234947799E+02  0.51100000000E-03 0. -1.
        -11    1    3    3    0    0 -0.23886667325E+01 -0.94137093926E+01  0.46570600121E+00  0.97231957518E+01  0.51100000000E-03 0.  1.
        -12    1    3    3    0    0  0.24644680923E+01 -0.22080321699E+01 -0.34184106621E+02  0.34343880889E+02  0.00000000000E+00 0.  1.
</event>
<event>
 7    1  0.5832130E-012  0.5930194E+02  0.7816164E-02  0.1266605E+00
        -11   -1    0    0    0    0  0.00000000000E+00  0.00000000000E+00  0.45593999997E+02  0.45594000000E+02  0.51100000000E-03 0.  1.
         11   -1    0    0    0    0 -0.00000000000E+00 -0.00000000000E+00 -0.45593999997E+02  0.45594000000E+02  0.51100000000E-03 0. -1.
    9900012    2    1    2    0    0  0.28599283735E+02  0.13108012536E+02 -0.51943857974E+01  0.59301942442E+02  0.49999997108E+02 0.  0.
         12    1    1    2    0    0 -0.28599283735E+02 -0.13108012536E+02  0.51943857974E+01  0.31886057558E+02  0.00000000000E+00 0. -1.
         11    1    3    3    0    0  0.29506691553E+01  0.69532555231E+01 -0.40168025718E+01  0.85550519575E+01  0.51100000000E-03 0. -1.
        -11    1    3    3    0    0 -0.77447243007E+01  0.34401299621E+01  0.12045941267E+02  0.14728202535E+02  0.51100000000E-03 0.  1.
         12    1    3    3    0    0  0.33393338880E+02  0.27146270508E+01 -0.13223524492E+02  0.36018687949E+02  0.00000000000E+00 0. -1.
</event>
<event>
 7    1  0.5832130E-012  0.5930196E+02  0.7816164E-02  0.1266605E+00
        -11   -1    0    0    0    0  0.00000000000E+00  0.00000000000E+00  0.45593999997E+02  0.45594000000E+02  0.51100000000E-03 0.  1.
         11   -1    0    0    0    0 -0.00000000000E+00 -0.00000000000E+00 -0.45593999997E+02  0.45594000000E+02  0.51100000000E-03 0. -1.
    9900012    2    1    2    0    0  0.19952673513E+02 -0.24856828727E+02  0.86520327779E+00  0.59301957734E+02  0.50000024998E+02 0.  0.
         12    1    1    2    0    0 -0.19952673513E+02  0.24856828727E+02 -0.86520327779E+00  0.31886042266E+02  0.00000000000E+00 0. -1.
         11    1    3    3    0    0  0.73443893049E+01  0.71057900514E+01 -0.13762457336E+01  0.10311467359E+02  0.51100000000E-03 0. -1.
        -11    1    3    3    0    0 -0.11534141167E+02 -0.59089613446E+01  0.35817943738E+01  0.13445500654E+02  0.51100000000E-03 0.  1.
         12    1    3    3    0    0  0.24142425375E+02 -0.26053657433E+02 -0.13403453625E+01  0.35544989722E+02  0.00000000000E+00 0. -1.
</event>
<event>
 7    1  0.5832130E-012  0.5930194E+02  0.7816164E-02  0.1266605E+00
        -11   -1    0    0    0    0  0.00000000000E+00  0.00000000000E+00  0.45593999997E+02  0.45594000000E+02  0.51100000000E-03 0. -1.
         11   -1    0    0    0    0 -0.00000000000E+00 -0.00000000000E+00 -0.45593999997E+02  0.45594000000E+02  0.51100000000E-03 0.  1.
    9900012    2    1    2    0    0  0.75669458930E+00  0.31163365890E+02 -0.67076483201E+01  0.59301944956E+02  0.50000001693E+02 0.  0.
         12    1    1    2    0    0 -0.75669458930E+00 -0.31163365890E+02  0.67076483201E+01  0.31886055044E+02  0.00000000000E+00 0. -1.
         11    1    3    3    0    0 -0.82092069247E+01  0.48602494696E+01 -0.69308159711E+01  0.11791917296E+02  0.51100000000E-03 0. -1.
        -11    1    3    3    0    0  0.15613576170E+02  0.15173394332E+02 -0.15798827945E+02  0.26900160243E+02  0.51100000000E-03 0.  1.
        -12    1    3    3    0    0 -0.66476746558E+01  0.11129722088E+02  0.16021995596E+02  0.20609867417E+02  0.00000000000E+00 0.  1.
</event>
<event>
 7    1  0.5832130E-012  0.5930191E+02  0.7816164E-02  0.1266605E+00
        -11   -1    0    0    0    0  0.00000000000E+00  0.00000000000E+00  0.45593999997E+02  0.45594000000E+02  0.51100000000E-03 0.  1.
         11   -1    0    0    0    0 -0.00000000000E+00 -0.00000000000E+00 -0.45593999997E+02  0.45594000000E+02  0.51100000000E-03 0. -1.
    9900012    2    1    2    0    0 -0.22618743185E+02  0.22280890822E+02 -0.29456506456E+01  0.59301913742E+02  0.49999944766E+02 0.  0.
         12    1    1    2    0    0  0.22618743185E+02 -0.22280890822E+02  0.29456506456E+01  0.31886086258E+02  0.00000000000E+00 0. -1.
         11    1    3    3    0    0 -0.16000719044E+02 -0.46374694787E+01  0.17351409813E+01  0.16749323795E+02  0.51100000000E-03 0. -1.
        -11    1    3    3    0    0 -0.11826025644E+02  0.31564714831E+02 -0.82661752824E+01  0.34706134313E+02  0.51100000000E-03 0.  1.
         12    1    3    3    0    0  0.52080015030E+01 -0.46463545298E+01  0.35853836555E+01  0.78464556348E+01  0.00000000000E+00 0. -1.
</event>
<event>
 7    1  0.5832130E-012  0.5930197E+02  0.7816164E-02  0.1266605E+00
        -11   -1    0    0    0    0  0.00000000000E+00  0.00000000000E+00  0.45593999997E+02  0.45594000000E+02  0.51100000000E-03 0.  1.
         11   -1    0    0    0    0 -0.00000000000E+00 -0.00000000000E+00 -0.45593999997E+02  0.45594000000E+02  0.51100000000E-03 0. -1.
    9900012    2    1    2    0    0  0.30548923625E+02 -0.34147839554E+01  0.84747500000E+01  0.59301970588E+02  0.50000048439E+02 0.  0.
         12    1    1    2    0    0 -0.30548923625E+02  0.34147839554E+01 -0.84747500000E+01  0.31886029412E+02  0.00000000000E+00 0. -1.
         11    1    3    3    0    0  0.55882412790E+01  0.60932923032E+01  0.74474126045E+01  0.11127470802E+02  0.51100000000E-03 0. -1.
        -11    1    3    3    0    0  0.10550729276E+02  0.66691023065E+01  0.17120042071E+02  0.21187039779E+02  0.51100000000E-03 0.  1.
         12    1    3    3    0    0  0.14409953070E+02 -0.16177178565E+02 -0.16092704676E+02  0.26987460007E+02  0.00000000000E+00 0. -1.
</event>
<event>
 7    1  0.5832130E-012  0.5930194E+02  0.7816164E-02  0.1266605E+00
        -11   -1    0    0    0    0  0.00000000000E+00  0.00000000000E+00  0.45593999997E+02  0.45594000000E+02  0.51100000000E-03 0.  1.
         11   -1    0    0    0    0 -0.00000000000E+00 -0.00000000000E+00 -0.45593999997E+02  0.45594000000E+02  0.51100000000E-03 0. -1.
    9900012    2    1    2    0    0  0.52859393361E+01 -0.19469975360E+02  0.24692104104E+02  0.59301935642E+02  0.49999984706E+02 0.  0.
         12    1    1    2    0    0 -0.52859393361E+01  0.19469975360E+02 -0.24692104104E+02  0.31886064358E+02  0.00000000000E+00 0. -1.
         11    1    3    3    0    0  0.32340192905E+01  0.77235325576E+01  0.82218810584E+00  0.84135503494E+01  0.51100000000E-03 0. -1.
        -11    1    3    3    0    0  0.16261113533E+02 -0.22752685204E+02  0.22583165370E+02  0.35945901793E+02  0.51100000000E-03 0.  1.
         12    1    3    3    0    0 -0.14209193488E+02 -0.44408227135E+01  0.12867506281E+01  0.14942483499E+02  0.00000000000E+00 0. -1.
</event>
<event>
 7    1  0.5832130E-012  0.5930180E+02  0.7816164E-02  0.1266605E+00
        -11   -1    0    0    0    0  0.00000000000E+00  0.00000000000E+00  0.45593999997E+02  0.45594000000E+02  0.51100000000E-03 0.  1.
         11   -1    0    0    0    0 -0.00000000000E+00 -0.00000000000E+00 -0.45593999997E+02  0.45594000000E+02  0.51100000000E-03 0. -1.
    9900012    2    1    2    0    0 -0.24705449398E+02 -0.86870771149E+01  0.18190798105E+02  0.59301801192E+02  0.49999739501E+02 0.  0.
         12    1    1    2    0    0  0.24705449398E+02  0.86870771149E+01 -0.18190798105E+02  0.31886198808E+02  0.00000000000E+00 0. -1.
         11    1    3    3    0    0 -0.82600589683E-01  0.15206918102E+01  0.65838227161E+01  0.67576658883E+01  0.51100000000E-03 0. -1.
        -11    1    3    3    0    0 -0.32809742172E+02 -0.50417319761E+01  0.20817100622E+02  0.39182265392E+02  0.51100000000E-03 0.  1.
         12    1    3    3    0    0  0.81868933639E+01 -0.51660369491E+01 -0.92101252335E+01  0.13361869911E+02  0.00000000000E+00 0. -1.
</event>
<event>
 7    1  0.5832130E-012  0.5930195E+02  0.7816164E-02  0.1266605E+00
        -11   -1    0    0    0    0  0.00000000000E+00  0.00000000000E+00  0.45593999997E+02  0.45594000000E+02  0.51100000000E-03 0. -1.
         11   -1    0    0    0    0 -0.00000000000E+00 -0.00000000000E+00 -0.45593999997E+02  0.45594000000E+02  0.51100000000E-03 0.  1.
    9900012    2    1    2    0    0  0.21528129198E+02 -0.16328390828E+02 -0.16930546304E+02  0.59301951452E+02  0.50000013541E+02 0.  0.
         12    1    1    2    0    0 -0.21528129198E+02  0.16328390828E+02  0.16930546304E+02  0.31886048548E+02  0.00000000000E+00 0. -1.
         11    1    3    3    0    0  0.52432689555E+01 -0.20700573823E+01 -0.11810173392E+02  0.13086527527E+02  0.51100000000E-03 0. -1.
        -11    1    3    3    0    0  0.28151869082E+02 -0.16287305903E+02 -0.86777063836E+01  0.33661649614E+02  0.51100000000E-03 0.  1.
         12    1    3    3    0    0 -0.11867008839E+02  0.20289724575E+01  0.35573334714E+01  0.12553774311E+02  0.00000000000E+00 0. -1.
</event>
<event>
 7    1  0.5832130E-012  0.5930196E+02  0.7816164E-02  0.1266605E+00
        -11   -1    0    0    0    0  0.00000000000E+00  0.00000000000E+00  0.45593999997E+02  0.45594000000E+02  0.51100000000E-03 0.  1.
         11   -1    0    0    0    0 -0.00000000000E+00 -0.00000000000E+00 -0.45593999997E+02  0.45594000000E+02  0.51100000000E-03 0. -1.
    9900012    2    1    2    0    0 -0.81081661119E+01  0.53969330816E+01  0.30361985549E+02  0.59301962133E+02  0.50000033020E+02 0.  0.
         12    1    1    2    0    0  0.81081661119E+01 -0.53969330816E+01 -0.30361985549E+02  0.31886037867E+02  0.00000000000E+00 0. -1.
         11    1    3    3    0    0 -0.43081016362E+01  0.80452189912E+01 -0.13505613205E+01  0.92254704198E+01  0.51100000000E-03 0. -1.
        -11    1    3    3    0    0 -0.18628401635E+02  0.70089795693E+01  0.10672437057E+02  0.22584154957E+02  0.51100000000E-03 0.  1.
        -12    1    3    3    0    0  0.14828337160E+02 -0.96572654789E+01  0.21040109812E+02  0.27492336757E+02  0.00000000000E+00 0.  1.
</event>
<event>
 7    1  0.5832130E-012  0.5930198E+02  0.7816164E-02  0.1266605E+00
        -11   -1    0    0    0    0  0.00000000000E+00  0.00000000000E+00  0.45593999997E+02  0.45594000000E+02  0.51100000000E-03 0.  1.
         11   -1    0    0    0    0 -0.00000000000E+00 -0.00000000000E+00 -0.45593999997E+02  0.45594000000E+02  0.51100000000E-03 0. -1.
    9900012    2    1    2    0    0  0.22666577337E+02 -0.19748872786E+02  0.10626693886E+02  0.59301979122E+02  0.50000064004E+02 0.  0.
         12    1    1    2    0    0 -0.22666577337E+02  0.19748872786E+02 -0.10626693886E+02  0.31886020878E+02  0.00000000000E+00 0. -1.
         11    1    3    3    0    0  0.16090223569E+01  0.90446894090E+01  0.12383422423E+02  0.15418965939E+02  0.51100000000E-03 0. -1.
        -11    1    3    3    0    0  0.68111010335E+01 -0.83711842910E+01  0.11418720045E+02  0.15711619631E+02  0.51100000000E-03 0.  1.
         12    1    3    3    0    0  0.14246453947E+02 -0.20422377904E+02 -0.13175448582E+02  0.28171393552E+02  0.00000000000E+00 0. -1.
</event>
<event>
 7    1  0.5832130E-012  0.5930197E+02  0.7816164E-02  0.1266605E+00
        -11   -1    0    0    0    0  0.00000000000E+00  0.00000000000E+00  0.45593999997E+02  0.45594000000E+02  0.51100000000E-03 0.  1.
         11   -1    0    0    0    0 -0.00000000000E+00 -0.00000000000E+00 -0.45593999997E+02  0.45594000000E+02  0.51100000000E-03 0. -1.
    9900012    2    1    2    0    0  0.11670418226E+02  0.66054537195E+01  0.28929025135E+02  0.59301965821E+02  0.50000039745E+02 0.  0.
         12    1    1    2    0    0 -0.11670418226E+02 -0.66054537195E+01 -0.28929025135E+02  0.31886034179E+02  0.00000000000E+00 0. -1.
         11    1    3    3    0    0 -0.36392600327E+01 -0.44164703314E+01 -0.11995866710E+01  0.58470874986E+01  0.51100000000E-03 0. -1.
        -11    1    3    3    0    0 -0.13704777755E+01 -0.12208089710E+02  0.19294045545E+02  0.22873037783E+02  0.51100000000E-03 0.  1.
         12    1    3    3    0    0  0.16680156034E+02  0.23230013761E+02  0.10834566262E+02  0.30581840539E+02  0.00000000000E+00 0. -1.
</event>
<event>
 7    1  0.5832130E-012  0.5930195E+02  0.7816164E-02  0.1266605E+00
        -11   -1    0    0    0    0  0.00000000000E+00  0.00000000000E+00  0.45593999997E+02  0.45594000000E+02  0.51100000000E-03 0. -1.
         11   -1    0    0    0    0 -0.00000000000E+00 -0.00000000000E+00 -0.45593999997E+02  0.45594000000E+02  0.51100000000E-03 0.  1.
    9900012    2    1    2    0    0 -0.16969261008E+02  0.96879359729E+01 -0.25197380415E+02  0.59301954427E+02  0.50000018965E+02 0.  0.
         12    1    1    2    0    0  0.16969261008E+02 -0.96879359729E+01  0.25197380415E+02  0.31886045573E+02  0.00000000000E+00 0. -1.
         11    1    3    3    0    0  0.42589532412E+00  0.17194205521E+02 -0.10665625096E+02  0.20238024836E+02  0.51100000000E-03 0. -1.
        -11    1    3    3    0    0 -0.83749904777E+01  0.11765455850E+02 -0.26172076729E+01  0.14677063505E+02  0.51100000000E-03 0.  1.
         12    1    3    3    0    0 -0.90201658539E+01 -0.19271725398E+02 -0.11914547646E+02  0.24386866085E+02  0.00000000000E+00 0. -1.
</event>
<event>
 7    1  0.5832130E-012  0.5930194E+02  0.7816164E-02  0.1266605E+00
        -11   -1    0    0    0    0  0.00000000000E+00  0.00000000000E+00  0.45593999997E+02  0.45594000000E+02  0.51100000000E-03 0.  1.
         11   -1    0    0    0    0 -0.00000000000E+00 -0.00000000000E+00 -0.45593999997E+02  0.45594000000E+02  0.51100000000E-03 0. -1.
    9900012    2    1    2    0    0  0.66299347943E+01  0.30962329872E+02  0.37548216571E+01  0.59301943609E+02  0.49999999237E+02 0.  0.
         12    1    1    2    0    0 -0.66299347943E+01 -0.30962329872E+02 -0.37548216571E+01  0.31886056391E+02  0.00000000000E+00 0. -1.
         11    1    3    3    0    0  0.10917260787E+02  0.12846252673E+02  0.50315140753E+01  0.17593434144E+02  0.51100000000E-03 0. -1.
        -11    1    3    3    0    0  0.46280456529E+01  0.26333688928E+02 -0.79164728084E+01  0.27884628760E+02  0.51100000000E-03 0.  1.
        -12    1    3    3    0    0 -0.89153716460E+01 -0.82176117290E+01  0.66397803902E+01  0.13823880705E+02  0.00000000000E+00 0.  1.
</event>
<event>
 7    1  0.5832130E-012  0.5930195E+02  0.7816164E-02  0.1266605E+00
        -11   -1    0    0    0    0  0.00000000000E+00  0.00000000000E+00  0.45593999997E+02  0.45594000000E+02  0.51100000000E-03 0. -1.
         11   -1    0    0    0    0 -0.00000000000E+00 -0.00000000000E+00 -0.45593999997E+02  0.45594000000E+02  0.51100000000E-03 0.  1.
    9900012    2    1    2    0    0 -0.17541751197E+02 -0.16385769187E+02 -0.20988414747E+02  0.59301952573E+02  0.50000015585E+02 0.  0.
         12    1    1    2    0    0  0.17541751197E+02  0.16385769187E+02  0.20988414747E+02  0.31886047427E+02  0.00000000000E+00 0. -1.
         11    1    3    3    0    0  0.57495541069E+01 -0.15758722687E+01 -0.11710564256E+02  0.13140702466E+02  0.51100000000E-03 0. -1.
        -11    1    3    3    0    0  0.15176288698E+01 -0.17050304665E+02 -0.12285971741E+02  0.21070386528E+02  0.51100000000E-03 0.  1.
         12    1    3    3    0    0 -0.24808934174E+02  0.22404077470E+01  0.30081212500E+01  0.25090863580E+02  0.00000000000E+00 0. -1.
</event>
<event>
 7    1  0.5832130E-012  0.5930195E+02  0.7816164E-02  0.1266605E+00
        -11   -1    0    0    0    0  0.00000000000E+00  0.00000000000E+00  0.45593999997E+02  0.45594000000E+02  0.51100000000E-03 0. -1.
         11   -1    0    0    0    0 -0.00000000000E+00 -0.00000000000E+00 -0.45593999997E+02  0.45594000000E+02  0.51100000000E-03 0.  1.
    9900012    2    1    2    0    0  0.16741008293E+02 -0.79237590419E-01 -0.27137662726E+02  0.59301947006E+02  0.50000005432E+02 0.  0.
         12    1    1    2    0    0 -0.16741008293E+02  0.79237590419E-01  0.27137662726E+02  0.31886052994E+02  0.00000000000E+00 0. -1.
         11    1    3    3    0    0  0.10021705332E+02 -0.12408007535E+02 -0.94211227919E+01  0.18524329506E+02  0.51100000000E-03 0. -1.
        -11    1    3    3    0    0  0.38315974219E+01  0.32112696492E+00 -0.25756002840E+02  0.26041427455E+02  0.51100000000E-03 0.  1.
        -12    1    3    3    0    0  0.28877055398E+01  0.12007642980E+02  0.80394629061E+01  0.14736190045E+02  0.00000000000E+00 0.  1.
</event>
<event>
 7    1  0.5832130E-012  0.5930195E+02  0.7816164E-02  0.1266605E+00
        -11   -1    0    0    0    0  0.00000000000E+00  0.00000000000E+00  0.45593999997E+02  0.45594000000E+02  0.51100000000E-03 0. -1.
         11   -1    0    0    0    0 -0.00000000000E+00 -0.00000000000E+00 -0.45593999997E+02  0.45594000000E+02  0.51100000000E-03 0.  1.
    9900012    2    1    2    0    0  0.16930236691E+01  0.29446674978E+02 -0.12113933419E+02  0.59301946947E+02  0.50000005324E+02 0.  0.
         12    1    1    2    0    0 -0.16930236691E+01 -0.29446674978E+02  0.12113933419E+02  0.31886053053E+02  0.00000000000E+00 0. -1.
         11    1    3    3    0    0 -0.15927618396E+01  0.51861399686E+01  0.33358567216E+01  0.63687422918E+01  0.51100000000E-03 0. -1.
        -11    1    3    3    0    0  0.80585778121E+01  0.35901293029E+02 -0.16466149178E+02  0.40311010736E+02  0.51100000000E-03 0.  1.
        -12    1    3    3    0    0 -0.47727923035E+01 -0.11640758020E+02  0.10163590375E+01  0.12622193919E+02  0.00000000000E+00 0.  1.
</event>
<event>
 7    1  0.5832130E-012  0.5930199E+02  0.7816164E-02  0.1266605E+00
        -11   -1    0    0    0    0  0.00000000000E+00  0.00000000000E+00  0.45593999997E+02  0.45594000000E+02  0.51100000000E-03 0.  1.
         11   -1    0    0    0    0 -0.00000000000E+00 -0.00000000000E+00 -0.45593999997E+02  0.45594000000E+02  0.51100000000E-03 0. -1.
    9900012    2    1    2    0    0  0.21976478184E+02  0.19247712966E+02  0.12778009385E+02  0.59301990973E+02  0.50000085618E+02 0.  0.
         12    1    1    2    0    0 -0.21976478184E+02 -0.19247712966E+02 -0.12778009385E+02  0.31886009027E+02  0.00000000000E+00 0. -1.
         11    1    3    3    0    0 -0.32251644101E+00 -0.96102221761E+01 -0.18889060681E+01  0.97994057740E+01  0.51100000000E-03 0. -1.
        -11    1    3    3    0    0  0.23276951820E+02  0.56408277950E+01  0.89828099362E+01  0.25579802557E+02  0.51100000000E-03 0.  1.
         12    1    3    3    0    0 -0.97795719475E+00  0.23217107347E+02  0.56841055170E+01  0.23922782643E+02  0.00000000000E+00 0. -1.
</event>
<event>
 7    1  0.5832130E-012  0.5930194E+02  0.7816164E-02  0.1266605E+00
        -11   -1    0    0    0    0  0.00000000000E+00  0.00000000000E+00  0.45593999997E+02  0.45594000000E+02  0.51100000000E-03 0. -1.
         11   -1    0    0    0    0 -0.00000000000E+00 -0.00000000000E+00 -0.45593999997E+02  0.45594000000E+02  0.51100000000E-03 0.  1.
    9900012    2    1    2    0    0  0.17917644516E+02  0.13332156491E+02  0.22758128036E+02  0.59301940767E+02  0.49999994054E+02 0.  0.
         12    1    1    2    0    0 -0.17917644516E+02 -0.13332156491E+02 -0.22758128036E+02  0.31886059233E+02  0.00000000000E+00 0. -1.
         11    1    3    3    0    0 -0.59244018373E+01 -0.74589798299E+01  0.22941596407E+02  0.24840526629E+02  0.51100000000E-03 0.  1.
        -11    1    3    3    0    0  0.19107448044E+00  0.36146146846E+01  0.34572009135E+01  0.50054157862E+01  0.51100000000E-03 0. -1.
        -12    1    3    3    0    0  0.23650971873E+02  0.17176521636E+02 -0.36406692854E+01  0.29455998352E+02  0.00000000000E+00 0.  1.
</event>
<event>
 7    1  0.5832130E-012  0.5930194E+02  0.7816164E-02  0.1266605E+00
        -11   -1    0    0    0    0  0.00000000000E+00  0.00000000000E+00  0.45593999997E+02  0.45594000000E+02  0.51100000000E-03 0.  1.
         11   -1    0    0    0    0 -0.00000000000E+00 -0.00000000000E+00 -0.45593999997E+02  0.45594000000E+02  0.51100000000E-03 0. -1.
    9900012    2    1    2    0    0  0.55900441213E+01  0.31356880646E+02 -0.14894013397E+01  0.59301939197E+02  0.49999991191E+02 0.  0.
         12    1    1    2    0    0 -0.55900441213E+01 -0.31356880646E+02  0.14894013397E+01  0.31886060803E+02  0.00000000000E+00 0. -1.
         11    1    3    3    0    0 -0.63756193498E+01  0.83875247612E+01 -0.32435663578E+01  0.11023602709E+02  0.51100000000E-03 0. -1.
        -11    1    3    3    0    0  0.83329898404E+01  0.31682537441E+02  0.11490649822E+02  0.34716810510E+02  0.51100000000E-03 0.  1.
         12    1    3    3    0    0  0.36326736307E+01 -0.87131815555E+01 -0.97364848040E+01  0.13561525979E+02  0.00000000000E+00 0. -1.
</event>
<event>
 7    1  0.5832130E-012  0.5930193E+02  0.7816164E-02  0.1266605E+00
        -11   -1    0    0    0    0  0.00000000000E+00  0.00000000000E+00  0.45593999997E+02  0.45594000000E+02  0.51100000000E-03 0.  1.
         11   -1    0    0    0    0 -0.00000000000E+00 -0.00000000000E+00 -0.45593999997E+02  0.45594000000E+02  0.51100000000E-03 0. -1.
    9900012    2    1    2    0    0  0.18836559680E+02 -0.23675140033E+02  0.10069420279E+02  0.59301929986E+02  0.49999974392E+02 0.  0.
         12    1    1    2    0    0 -0.18836559680E+02  0.23675140033E+02 -0.10069420279E+02  0.31886070014E+02  0.00000000000E+00 0. -1.
         11    1    3    3    0    0  0.25108305277E+02 -0.10379716288E+02  0.16709113639E+02  0.31896080998E+02  0.51100000000E-03 0. -1.
        -11    1    3    3    0    0  0.18000662570E+01 -0.55513161400E+01  0.74194875679E+01  0.94396051531E+01  0.51100000000E-03 0.  1.
        -12    1    3    3    0    0 -0.80718118541E+01 -0.77441076046E+01 -0.14059180928E+02  0.17966243836E+02  0.00000000000E+00 0.  1.
</event>
<event>
 7    1  0.5832130E-012  0.5930189E+02  0.7816164E-02  0.1266605E+00
        -11   -1    0    0    0    0  0.00000000000E+00  0.00000000000E+00  0.45593999997E+02  0.45594000000E+02  0.51100000000E-03 0.  1.
         11   -1    0    0    0    0 -0.00000000000E+00 -0.00000000000E+00 -0.45593999997E+02  0.45594000000E+02  0.51100000000E-03 0. -1.
    9900012    2    1    2    0    0 -0.71004960638E+00 -0.31337096646E+02 -0.58486218892E+01  0.59301887433E+02  0.49999896785E+02 0.  0.
         12    1    1    2    0    0  0.71004960638E+00  0.31337096646E+02  0.58486218892E+01  0.31886112567E+02  0.00000000000E+00 0. -1.
         11    1    3    3    0    0  0.33753784082E+01 -0.22927681459E+02 -0.89368332951E+01  0.24838251671E+02  0.51100000000E-03 0. -1.
        -11    1    3    3    0    0 -0.11966576014E+02 -0.17614506108E+02  0.57484289137E+01  0.22057066944E+02  0.51100000000E-03 0.  1.
         12    1    3    3    0    0  0.78811479995E+01  0.92050909210E+01 -0.26602175078E+01  0.12406568818E+02  0.00000000000E+00 0. -1.
</event>
<event>
 7    1  0.5832130E-012  0.5930195E+02  0.7816164E-02  0.1266605E+00
        -11   -1    0    0    0    0  0.00000000000E+00  0.00000000000E+00  0.45593999997E+02  0.45594000000E+02  0.51100000000E-03 0.  1.
         11   -1    0    0    0    0 -0.00000000000E+00 -0.00000000000E+00 -0.45593999997E+02  0.45594000000E+02  0.51100000000E-03 0. -1.
    9900012    2    1    2    0    0  0.22216335116E+02 -0.14638122286E+02  0.17574976830E+02  0.59301953199E+02  0.50000016727E+02 0.  0.
         12    1    1    2    0    0 -0.22216335116E+02  0.14638122286E+02 -0.17574976830E+02  0.31886046801E+02  0.00000000000E+00 0. -1.
         11    1    3    3    0    0  0.16247574118E+01 -0.89823135253E+01  0.15345799757E+02  0.17855401518E+02  0.51100000000E-03 0.  1.
        -11    1    3    3    0    0  0.26984387233E+02 -0.16561351680E+01 -0.84933020460E+01  0.28337891911E+02  0.51100000000E-03 0. -1.
         12    1    3    3    0    0 -0.63928095297E+01 -0.39996735924E+01  0.10722479119E+02  0.13108659770E+02  0.00000000000E+00 0. -1.
</event>
<event>
 7    1  0.5832130E-012  0.5930195E+02  0.7816164E-02  0.1266605E+00
        -11   -1    0    0    0    0  0.00000000000E+00  0.00000000000E+00  0.45593999997E+02  0.45594000000E+02  0.51100000000E-03 0.  1.
         11   -1    0    0    0    0 -0.00000000000E+00 -0.00000000000E+00 -0.45593999997E+02  0.45594000000E+02  0.51100000000E-03 0. -1.
    9900012    2    1    2    0    0 -0.29654842250E+02 -0.82993105461E+01 -0.82723798568E+01  0.59301945166E+02  0.50000002076E+02 0.  0.
         12    1    1    2    0    0  0.29654842250E+02  0.82993105461E+01  0.82723798568E+01  0.31886054834E+02  0.00000000000E+00 0. -1.
         11    1    3    3    0    0  0.30541493466E+01 -0.25086717942E+01  0.14578011218E+01  0.42126531752E+01  0.51100000000E-03 0. -1.
        -11    1    3    3    0    0 -0.18447824124E+02 -0.22618639973E+02  0.34538701687E+01  0.29391398547E+02  0.51100000000E-03 0.  1.
        -12    1    3    3    0    0 -0.14261167472E+02  0.16828001222E+02 -0.13184051147E+02  0.25697893443E+02  0.00000000000E+00 0.  1.
</event>
<event>
 7    1  0.5832130E-012  0.5930194E+02  0.7816164E-02  0.1266605E+00
        -11   -1    0    0    0    0  0.00000000000E+00  0.00000000000E+00  0.45593999997E+02  0.45594000000E+02  0.51100000000E-03 0. -1.
         11   -1    0    0    0    0 -0.00000000000E+00 -0.00000000000E+00 -0.45593999997E+02  0.45594000000E+02  0.51100000000E-03 0.  1.
    9900012    2    1    2    0    0 -0.15842746864E+02  0.23361148826E+02 -0.14831891785E+02  0.59301938522E+02  0.49999989959E+02 0.  0.
         12    1    1    2    0    0  0.15842746864E+02 -0.23361148826E+02  0.14831891785E+02  0.31886061478E+02  0.00000000000E+00 0. -1.
         11    1    3    3    0    0 -0.12938583915E+02 -0.61627111623E+01  0.82121565095E+01  0.16517429504E+02  0.51100000000E-03 0. -1.
        -11    1    3    3    0    0  0.50090825532E+01 -0.43265487413E+00 -0.39027645960E+01  0.63647207337E+01  0.51100000000E-03 0.  1.
        -12    1    3    3    0    0 -0.79132455018E+01  0.29956514863E+02 -0.19141283698E+02  0.36419788285E+02  0.00000000000E+00 0.  1.
</event>
<event>
 7    1  0.5832130E-012  0.5930187E+02  0.7816164E-02  0.1266605E+00
        -11   -1    0    0    0    0  0.00000000000E+00  0.00000000000E+00  0.45593999997E+02  0.45594000000E+02  0.51100000000E-03 0. -1.
         11   -1    0    0    0    0 -0.00000000000E+00 -0.00000000000E+00 -0.45593999997E+02  0.45594000000E+02  0.51100000000E-03 0.  1.
    9900012    2    1    2    0    0  0.12605053774E+02  0.24404886442E+02 -0.16193814538E+02  0.59301866773E+02  0.49999859106E+02 0.  0.
         12    1    1    2    0    0 -0.12605053774E+02 -0.24404886442E+02  0.16193814538E+02  0.31886133227E+02  0.00000000000E+00 0. -1.
         11    1    3    3    0    0 -0.37886900392E+01 -0.67730650401E+01 -0.84038174359E+01  0.11439087814E+02  0.51100000000E-03 0.  1.
        -11    1    3    3    0    0  0.22534971818E+02  0.12345036681E+02 -0.10714242010E+02  0.27839178644E+02  0.51100000000E-03 0. -1.
         12    1    3    3    0    0 -0.61412280043E+01  0.18832914801E+02  0.29242449084E+01  0.20023600315E+02  0.00000000000E+00 0. -1.
</event>
<event>
 7    1  0.5832130E-012  0.5930201E+02  0.7816164E-02  0.1266605E+00
        -11   -1    0    0    0    0  0.00000000000E+00  0.00000000000E+00  0.45593999997E+02  0.45594000000E+02  0.51100000000E-03 0. -1.
         11   -1    0    0    0    0 -0.00000000000E+00 -0.00000000000E+00 -0.45593999997E+02  0.45594000000E+02  0.51100000000E-03 0.  1.
    9900012    2    1    2    0    0 -0.26587090764E+02 -0.14572043130E+01 -0.17541928469E+02  0.59302014142E+02  0.50000127871E+02 0.  0.
         12    1    1    2    0    0  0.26587090764E+02  0.14572043130E+01  0.17541928469E+02  0.31885985858E+02  0.00000000000E+00 0. -1.
         11    1    3    3    0    0  0.62621087907E+01  0.13195000069E+02 -0.71015505109E+01  0.16240506557E+02  0.51100000000E-03 0. -1.
        -11    1    3    3    0    0 -0.14161936985E+02 -0.15523088750E+02 -0.12156100264E+02  0.24275450921E+02  0.51100000000E-03 0.  1.
        -12    1    3    3    0    0 -0.18687262570E+02  0.87088436860E+00  0.17157223053E+01  0.18786056663E+02  0.00000000000E+00 0.  1.
</event>
<event>
 7    1  0.5832130E-012  0.5930189E+02  0.7816164E-02  0.1266605E+00
        -11   -1    0    0    0    0  0.00000000000E+00  0.00000000000E+00  0.45593999997E+02  0.45594000000E+02  0.51100000000E-03 0.  1.
         11   -1    0    0    0    0 -0.00000000000E+00 -0.00000000000E+00 -0.45593999997E+02  0.45594000000E+02  0.51100000000E-03 0. -1.
    9900012    2    1    2    0    0 -0.14481501345E+01  0.92305347727E+01  0.30486452926E+02  0.59301894515E+02  0.49999909701E+02 0.  0.
         12    1    1    2    0    0  0.14481501345E+01 -0.92305347727E+01 -0.30486452926E+02  0.31886105485E+02  0.00000000000E+00 0. -1.
         11    1    3    3    0    0  0.72295588791E+01  0.15427005041E+02  0.34920321927E+01  0.17391184411E+02  0.51100000000E-03 0. -1.
        -11    1    3    3    0    0 -0.37393787004E+01 -0.27794342432E+01  0.33053252380E+02  0.33380019487E+02  0.51100000000E-03 0.  1.
         12    1    3    3    0    0 -0.49383303132E+01 -0.34170360249E+01 -0.60588316474E+01  0.85306906174E+01  0.00000000000E+00 0. -1.
</event>
<event>
 7    1  0.5832130E-012  0.5930195E+02  0.7816164E-02  0.1266605E+00
        -11   -1    0    0    0    0  0.00000000000E+00  0.00000000000E+00  0.45593999997E+02  0.45594000000E+02  0.51100000000E-03 0.  1.
         11   -1    0    0    0    0 -0.00000000000E+00 -0.00000000000E+00 -0.45593999997E+02  0.45594000000E+02  0.51100000000E-03 0. -1.
    9900012    2    1    2    0    0  0.17447465422E+02  0.17804360661E+02  0.19882419826E+02  0.59301954050E+02  0.50000018279E+02 0.  0.
         12    1    1    2    0    0 -0.17447465422E+02 -0.17804360661E+02 -0.19882419826E+02  0.31886045950E+02  0.00000000000E+00 0. -1.
         11    1    3    3    0    0 -0.29987073121E+01  0.15415655486E+02  0.32223650219E+00  0.15707912536E+02  0.51100000000E-03 0. -1.
        -11    1    3    3    0    0 -0.60617765120E+01 -0.81615277888E+01  0.74301018450E+01  0.12592143742E+02  0.51100000000E-03 0.  1.
         12    1    3    3    0    0  0.26507949246E+02  0.10550232963E+02  0.12130081479E+02  0.31001897772E+02  0.00000000000E+00 0. -1.
</event>
<event>
 7    1  0.5832130E-012  0.5930195E+02  0.7816164E-02  0.1266605E+00
        -11   -1    0    0    0    0  0.00000000000E+00  0.00000000000E+00  0.45593999997E+02  0.45594000000E+02  0.51100000000E-03 0. -1.
         11   -1    0    0    0    0 -0.00000000000E+00 -0.00000000000E+00 -0.45593999997E+02  0.45594000000E+02  0.51100000000E-03 0.  1.
    9900012    2    1    2    0    0  0.25269612329E+02 -0.19106655753E+02 -0.36197139406E+01  0.59301953987E+02  0.50000018164E+02 0.  0.
         12    1    1    2    0    0 -0.25269612329E+02  0.19106655753E+02  0.36197139406E+01  0.31886046013E+02  0.00000000000E+00 0. -1.
         11    1    3    3    0    0 -0.13251912477E+01  0.40057298357E+01 -0.32085996527E+01  0.53006712171E+01  0.51100000000E-03 0. -1.
        -11    1    3    3    0    0  0.23685904480E+02 -0.11949225747E+02 -0.18644064244E+02  0.32425409771E+02  0.51100000000E-03 0.  1.
         12    1    3    3    0    0  0.29088990967E+01 -0.11163159841E+02  0.18232949956E+02  0.21575872999E+02  0.00000000000E+00 0. -1.
</event>
<event>
 7    1  0.5832130E-012  0.5930194E+02  0.7816164E-02  0.1266605E+00
        -11   -1    0    0    0    0  0.00000000000E+00  0.00000000000E+00  0.45593999997E+02  0.45594000000E+02  0.51100000000E-03 0.  1.
         11   -1    0    0    0    0 -0.00000000000E+00 -0.00000000000E+00 -0.45593999997E+02  0.45594000000E+02  0.51100000000E-03 0. -1.
    9900012    2    1    2    0    0 -0.40376098360E+01  0.55073032701E+01  0.31146233795E+02  0.59301944080E+02  0.50000000096E+02 0.  0.
         12    1    1    2    0    0  0.40376098360E+01 -0.55073032701E+01 -0.31146233795E+02  0.31886055920E+02  0.00000000000E+00 0. -1.
         11    1    3    3    0    0 -0.16989786649E+02 -0.84182086370E+01  0.12874000802E+02  0.22918529271E+02  0.51100000000E-03 0. -1.
        -11    1    3    3    0    0 -0.27854572045E+01  0.13562797832E+02  0.14792774741E+02  0.20261649530E+02  0.51100000000E-03 0.  1.
         12    1    3    3    0    0  0.15737634018E+02  0.36271407507E+00  0.34794582523E+01  0.16121765279E+02  0.00000000000E+00 0. -1.
</event>
<event>
 7    1  0.5832130E-012  0.5930156E+02  0.7816164E-02  0.1266606E+00
        -11   -1    0    0    0    0  0.00000000000E+00  0.00000000000E+00  0.45593999997E+02  0.45594000000E+02  0.51100000000E-03 0.  1.
         11   -1    0    0    0    0 -0.00000000000E+00 -0.00000000000E+00 -0.45593999997E+02  0.45594000000E+02  0.51100000000E-03 0. -1.
    9900012    2    1    2    0    0  0.44950237179E+01  0.16700842808E+02  0.26788464203E+02  0.59301557692E+02  0.49999295412E+02 0.  0.
         12    1    1    2    0    0 -0.44950237179E+01 -0.16700842808E+02 -0.26788464203E+02  0.31886442308E+02  0.00000000000E+00 0. -1.
         11    1    3    3    0    0  0.20160972174E+01  0.14530984588E+02  0.26887859668E+02  0.30629579803E+02  0.51100000000E-03 0. -1.
        -11    1    3    3    0    0  0.68961279514E+01 -0.55265562237E+01  0.11224064354E+02  0.14285623028E+02  0.51100000000E-03 0.  1.
         12    1    3    3    0    0 -0.44172014509E+01  0.76964144429E+01 -0.11323459819E+02  0.14386354862E+02  0.00000000000E+00 0. -1.
</event>
<event>
 7    1  0.5832130E-012  0.5930195E+02  0.7816164E-02  0.1266605E+00
        -11   -1    0    0    0    0  0.00000000000E+00  0.00000000000E+00  0.45593999997E+02  0.45594000000E+02  0.51100000000E-03 0.  1.
         11   -1    0    0    0    0 -0.00000000000E+00 -0.00000000000E+00 -0.45593999997E+02  0.45594000000E+02  0.51100000000E-03 0. -1.
    9900012    2    1    2    0    0  0.17619411843E+02  0.59941082010E+01  0.25891067479E+02  0.59301946904E+02  0.50000005246E+02 0.  0.
         12    1    1    2    0    0 -0.17619411843E+02 -0.59941082010E+01 -0.25891067479E+02  0.31886053096E+02  0.00000000000E+00 0. -1.
         11    1    3    3    0    0 -0.30784503956E+01  0.42719331572E+01 -0.64770241799E+01  0.83473416263E+01  0.51100000000E-03 0. -1.
        -11    1    3    3    0    0  0.22022571712E+02 -0.25181953004E+01  0.43529853065E+01  0.22589454480E+02  0.51100000000E-03 0.  1.
         12    1    3    3    0    0 -0.13247094735E+01  0.42403703441E+01  0.28015106352E+02  0.28365150798E+02  0.00000000000E+00 0. -1.
</event>
<event>
 7    1  0.5832130E-012  0.5930197E+02  0.7816164E-02  0.1266605E+00
        -11   -1    0    0    0    0  0.00000000000E+00  0.00000000000E+00  0.45593999997E+02  0.45594000000E+02  0.51100000000E-03 0. -1.
         11   -1    0    0    0    0 -0.00000000000E+00 -0.00000000000E+00 -0.45593999997E+02  0.45594000000E+02  0.51100000000E-03 0.  1.
    9900012    2    1    2    0    0 -0.62257752190E+01  0.25497204974E+02 -0.18106668687E+02  0.59301965604E+02  0.50000039350E+02 0.  0.
         12    1    1    2    0    0  0.62257752190E+01 -0.25497204974E+02  0.18106668687E+02  0.31886034396E+02  0.00000000000E+00 0. -1.
         11    1    3    3    0    0  0.49470799650E+01  0.75461479721E+01  0.64951658538E+01  0.11117784362E+02  0.51100000000E-03 0. -1.
        -11    1    3    3    0    0  0.12927446312E+02  0.37651381738E+01 -0.80712662725E+01  0.15698422631E+02  0.51100000000E-03 0.  1.
         12    1    3    3    0    0 -0.24100301496E+02  0.14185918828E+02 -0.16530568269E+02  0.32485758610E+02  0.00000000000E+00 0. -1.
</event>
<event>
 7    1  0.5832130E-012  0.5930194E+02  0.7816164E-02  0.1266605E+00
        -11   -1    0    0    0    0  0.00000000000E+00  0.00000000000E+00  0.45593999997E+02  0.45594000000E+02  0.51100000000E-03 0.  1.
         11   -1    0    0    0    0 -0.00000000000E+00 -0.00000000000E+00 -0.45593999997E+02  0.45594000000E+02  0.51100000000E-03 0. -1.
    9900012    2    1    2    0    0  0.16133146984E+01 -0.27199561204E+02  0.16562053053E+02  0.59301944813E+02  0.50000001433E+02 0.  0.
         12    1    1    2    0    0 -0.16133146984E+01  0.27199561204E+02 -0.16562053053E+02  0.31886055187E+02  0.00000000000E+00 0. -1.
         11    1    3    3    0    0 -0.73969329234E+01 -0.15364488797E+02  0.80985983746E+01  0.18877749563E+02  0.51100000000E-03 0. -1.
        -11    1    3    3    0    0  0.22906415597E+02 -0.31051114750E+01  0.47742677864E+01  0.23603796854E+02  0.51100000000E-03 0.  1.
         12    1    3    3    0    0 -0.13896167975E+02 -0.87299609319E+01  0.36891868924E+01  0.16820398396E+02  0.00000000000E+00 0. -1.
</event>
<event>
 7    1  0.5832130E-012  0.5930194E+02  0.7816164E-02  0.1266605E+00
        -11   -1    0    0    0    0  0.00000000000E+00  0.00000000000E+00  0.45593999997E+02  0.45594000000E+02  0.51100000000E-03 0.  1.
         11   -1    0    0    0    0 -0.00000000000E+00 -0.00000000000E+00 -0.45593999997E+02  0.45594000000E+02  0.51100000000E-03 0. -1.
    9900012    2    1    2    0    0  0.18517828163E+02  0.95237157149E+01  0.24147661675E+02  0.59301942149E+02  0.49999996574E+02 0.  0.
         12    1    1    2    0    0 -0.18517828163E+02 -0.95237157149E+01 -0.24147661675E+02  0.31886057851E+02  0.00000000000E+00 0. -1.
         11    1    3    3    0    0  0.15794858673E+02 -0.83524856131E+01 -0.63467202535E+01  0.18961076833E+02  0.51100000000E-03 0. -1.
        -11    1    3    3    0    0  0.40343918547E+01  0.82068288094E+01  0.91145391474E+00  0.91901635047E+01  0.51100000000E-03 0.  1.
        -12    1    3    3    0    0 -0.13114223643E+01  0.96693725186E+01  0.29582928013E+02  0.31150701812E+02  0.00000000000E+00 0.  1.
</event>
<event>
 7    1  0.5832130E-012  0.5930192E+02  0.7816164E-02  0.1266605E+00
        -11   -1    0    0    0    0  0.00000000000E+00  0.00000000000E+00  0.45593999997E+02  0.45594000000E+02  0.51100000000E-03 0. -1.
         11   -1    0    0    0    0 -0.00000000000E+00 -0.00000000000E+00 -0.45593999997E+02  0.45594000000E+02  0.51100000000E-03 0.  1.
    9900012    2    1    2    0    0 -0.91616995189E+01 -0.54854349557E+00 -0.30536604069E+02  0.59301924259E+02  0.49999963947E+02 0.  0.
         12    1    1    2    0    0  0.91616995189E+01  0.54854349557E+00  0.30536604069E+02  0.31886075741E+02  0.00000000000E+00 0. -1.
         11    1    3    3    0    0  0.11425498190E+02  0.39732372874E+01 -0.65424115786E+01  0.13752518786E+02  0.51100000000E-03 0. -1.
        -11    1    3    3    0    0 -0.43614689300E+01 -0.21149313202E+01  0.81381620381E+01  0.94723295622E+01  0.51100000000E-03 0.  1.
        -12    1    3    3    0    0 -0.16225728779E+02 -0.24068494628E+01 -0.32132354529E+02  0.36077075911E+02  0.00000000000E+00 0.  1.
</event>
<event>
 7    1  0.5832130E-012  0.5930190E+02  0.7816164E-02  0.1266605E+00
        -11   -1    0    0    0    0  0.00000000000E+00  0.00000000000E+00  0.45593999997E+02  0.45594000000E+02  0.51100000000E-03 0. -1.
         11   -1    0    0    0    0 -0.00000000000E+00 -0.00000000000E+00 -0.45593999997E+02  0.45594000000E+02  0.51100000000E-03 0.  1.
    9900012    2    1    2    0    0 -0.18246323986E+01 -0.13721814791E+02 -0.28724657044E+02  0.59301899473E+02  0.49999918742E+02 0.  0.
         12    1    1    2    0    0  0.18246323986E+01  0.13721814791E+02  0.28724657044E+02  0.31886100527E+02  0.00000000000E+00 0. -1.
         11    1    3    3    0    0  0.47992379724E+01  0.76789875009E+01  0.67817221293E+01  0.11313323537E+02  0.51100000000E-03 0. -1.
        -11    1    3    3    0    0 -0.30442859012E+00  0.50584130574E+01 -0.51055455076E+01  0.71935258821E+01  0.51100000000E-03 0.  1.
        -12    1    3    3    0    0 -0.63194417808E+01 -0.26459215349E+02 -0.30400833666E+02  0.40795050054E+02  0.00000000000E+00 0.  1.
</event>
<event>
 7    1  0.5832130E-012  0.5930201E+02  0.7816164E-02  0.1266605E+00
        -11   -1    0    0    0    0  0.00000000000E+00  0.00000000000E+00  0.45593999997E+02  0.45594000000E+02  0.51100000000E-03 0. -1.
         11   -1    0    0    0    0 -0.00000000000E+00 -0.00000000000E+00 -0.45593999997E+02  0.45594000000E+02  0.51100000000E-03 0.  1.
    9900012    2    1    2    0    0  0.22903122150E+02 -0.17902531321E+02 -0.13102017414E+02  0.59302007900E+02  0.50000116487E+02 0.  0.
         12    1    1    2    0    0 -0.22903122150E+02  0.17902531321E+02  0.13102017414E+02  0.31885992100E+02  0.00000000000E+00 0. -1.
         11    1    3    3    0    0 -0.39614469242E+01 -0.83638469410E+01  0.44460741506E+01  0.10267159929E+02  0.51100000000E-03 0. -1.
        -11    1    3    3    0    0  0.16345761109E+02 -0.21020557604E+02 -0.14946256750E+01  0.26669864162E+02  0.51100000000E-03 0.  1.
         12    1    3    3    0    0  0.10518807965E+02  0.11481873224E+02 -0.16053465890E+02  0.22364983809E+02  0.00000000000E+00 0. -1.
</event>
<event>
 7    1  0.5832130E-012  0.5930196E+02  0.7816164E-02  0.1266605E+00
        -11   -1    0    0    0    0  0.00000000000E+00  0.00000000000E+00  0.45593999997E+02  0.45594000000E+02  0.51100000000E-03 0.  1.
         11   -1    0    0    0    0 -0.00000000000E+00 -0.00000000000E+00 -0.45593999997E+02  0.45594000000E+02  0.51100000000E-03 0. -1.
    9900012    2    1    2    0    0 -0.87094601242E+01 -0.19430681475E+02  0.23734227039E+02  0.59301958988E+02  0.50000027285E+02 0.  0.
         12    1    1    2    0    0  0.87094601242E+01  0.19430681475E+02 -0.23734227039E+02  0.31886041012E+02  0.00000000000E+00 0. -1.
         11    1    3    3    0    0 -0.36332357579E+01 -0.27882807261E+00  0.10968445918E+02  0.11557895711E+02  0.51100000000E-03 0.  1.
        -11    1    3    3    0    0  0.48157197203E+01 -0.71494518978E+01 -0.14201564606E+02  0.16612954475E+02  0.51100000000E-03 0. -1.
         12    1    3    3    0    0 -0.98919440865E+01 -0.12002401505E+02  0.26967345727E+02  0.31131108802E+02  0.00000000000E+00 0. -1.
</event>
<event>
 7    1  0.5832130E-012  0.5930194E+02  0.7816164E-02  0.1266605E+00
        -11   -1    0    0    0    0  0.00000000000E+00  0.00000000000E+00  0.45593999997E+02  0.45594000000E+02  0.51100000000E-03 0.  1.
         11   -1    0    0    0    0 -0.00000000000E+00 -0.00000000000E+00 -0.45593999997E+02  0.45594000000E+02  0.51100000000E-03 0. -1.
    9900012    2    1    2    0    0  0.83506175049E+01 -0.22972206416E+02 -0.20475982541E+02  0.59301938133E+02  0.49999989250E+02 0.  0.
         12    1    1    2    0    0 -0.83506175049E+01  0.22972206416E+02  0.20475982541E+02  0.31886061867E+02  0.00000000000E+00 0. -1.
         11    1    3    3    0    0 -0.33143099055E+01 -0.39280541061E+01 -0.95071743217E+01  0.10807433694E+02  0.51100000000E-03 0. -1.
        -11    1    3    3    0    0 -0.13865549411E+02 -0.16534184425E+02 -0.53844533656E+01  0.22240167566E+02  0.51100000000E-03 0.  1.
         12    1    3    3    0    0  0.25530476821E+02 -0.25099678852E+01 -0.55843548542E+01  0.26254336873E+02  0.00000000000E+00 0. -1.
</event>
<event>
 7    1  0.5832130E-012  0.5930193E+02  0.7816164E-02  0.1266605E+00
        -11   -1    0    0    0    0  0.00000000000E+00  0.00000000000E+00  0.45593999997E+02  0.45594000000E+02  0.51100000000E-03 0.  1.
         11   -1    0    0    0    0 -0.00000000000E+00 -0.00000000000E+00 -0.45593999997E+02  0.45594000000E+02  0.51100000000E-03 0. -1.
    9900012    2    1    2    0    0 -0.19953099535E+01 -0.97194305462E+01  0.30303021936E+02  0.59301925761E+02  0.49999966686E+02 0.  0.
         12    1    1    2    0    0  0.19953099535E+01  0.97194305462E+01 -0.30303021936E+02  0.31886074239E+02  0.00000000000E+00 0. -1.
         11    1    3    3    0    0 -0.31839497715E+01 -0.35644033841E+00 -0.58723604024E+01  0.66894844958E+01  0.51100000000E-03 0. -1.
        -11    1    3    3    0    0 -0.33034484937E+01  0.11939267766E+02  0.26972146414E+01  0.12678085574E+02  0.51100000000E-03 0.  1.
        -12    1    3    3    0    0  0.44920883117E+01 -0.21302257973E+02  0.33478167697E+02  0.39934355691E+02  0.00000000000E+00 0.  1.
</event>
<event>
 7    1  0.5832130E-012  0.5930194E+02  0.7816164E-02  0.1266605E+00
        -11   -1    0    0    0    0  0.00000000000E+00  0.00000000000E+00  0.45593999997E+02  0.45594000000E+02  0.51100000000E-03 0. -1.
         11   -1    0    0    0    0 -0.00000000000E+00 -0.00000000000E+00 -0.45593999997E+02  0.45594000000E+02  0.51100000000E-03 0.  1.
    9900012    2    1    2    0    0  0.19282340786E+02  0.24937707359E+02 -0.47982041080E+01  0.59301942276E+02  0.49999996806E+02 0.  0.
         12    1    1    2    0    0 -0.19282340786E+02 -0.24937707359E+02  0.47982041080E+01  0.31886057724E+02  0.00000000000E+00 0. -1.
         11    1    3    3    0    0  0.56698779400E+01 -0.14059538614E+01 -0.59097869346E+01  0.83096211699E+01  0.51100000000E-03 0. -1.
        -11    1    3    3    0    0 -0.70009236918E+00 -0.10952998008E+02 -0.74504337785E+00  0.11000608374E+02  0.51100000000E-03 0.  1.
         12    1    3    3    0    0  0.14312555215E+02  0.37296659229E+02  0.18566262044E+01  0.39991712733E+02  0.00000000000E+00 0. -1.
</event>
<event>
 7    1  0.5832130E-012  0.5930194E+02  0.7816164E-02  0.1266605E+00
        -11   -1    0    0    0    0  0.00000000000E+00  0.00000000000E+00  0.45593999997E+02  0.45594000000E+02  0.51100000000E-03 0.  1.
         11   -1    0    0    0    0 -0.00000000000E+00 -0.00000000000E+00 -0.45593999997E+02  0.45594000000E+02  0.51100000000E-03 0. -1.
    9900012    2    1    2    0    0 -0.49986311707E+00  0.24632116127E+02  0.20241784948E+02  0.59301939316E+02  0.49999991408E+02 0.  0.
         12    1    1    2    0    0  0.49986311707E+00 -0.24632116127E+02 -0.20241784948E+02  0.31886060684E+02  0.00000000000E+00 0. -1.
         11    1    3    3    0    0 -0.37996285076E+01 -0.38506825577E+01  0.34302640614E+01  0.64055948004E+01  0.51100000000E-03 0. -1.
        -11    1    3    3    0    0  0.94688851881E+01  0.29555787674E+01 -0.10886076122E+02  0.14727589285E+02  0.51100000000E-03 0.  1.
        -12    1    3    3    0    0 -0.61691197976E+01  0.25527219918E+02  0.27697597009E+02  0.38168755231E+02  0.00000000000E+00 0.  1.
</event>
<event>
 7    1  0.6236331E-012  0.5930193E+02  0.7816164E-02  0.1266605E+00
        -11   -1    0    0    0    0  0.00000000000E+00  0.00000000000E+00  0.45593999997E+02  0.45594000000E+02  0.51100000000E-03 0. -1.
         11   -1    0    0    0    0 -0.00000000000E+00 -0.00000000000E+00 -0.45593999997E+02  0.45594000000E+02  0.51100000000E-03 0.  1.
    9900012    2    1    2    0    0 -0.70022492264E+01 -0.28292061750E+02 -0.12932494452E+02  0.59301926785E+02  0.49999968554E+02 0.  0.
         12    1    1    2    0    0  0.70022492264E+01  0.28292061750E+02  0.12932494452E+02  0.31886073215E+02  0.00000000000E+00 0. -1.
         11    1    3    3    0    0  0.34367997902E+01  0.19334492801E+01  0.10351440176E+02  0.11077099480E+02  0.51100000000E-03 0. -1.
        -11    1    3    3    0    0 -0.64271827369E+01 -0.89515425881E+00 -0.16674224222E+02  0.17892449043E+02  0.51100000000E-03 0.  1.
        -12    1    3    3    0    0 -0.40118662797E+01 -0.29330356771E+02 -0.66097104062E+01  0.30332378262E+02  0.00000000000E+00 0.  1.
</event>
<event>
 7    1  0.5832130E-012  0.5930180E+02  0.7816164E-02  0.1266605E+00
        -11   -1    0    0    0    0  0.00000000000E+00  0.00000000000E+00  0.45593999997E+02  0.45594000000E+02  0.51100000000E-03 0.  1.
         11   -1    0    0    0    0 -0.00000000000E+00 -0.00000000000E+00 -0.45593999997E+02  0.45594000000E+02  0.51100000000E-03 0. -1.
    9900012    2    1    2    0    0  0.50201853084E+01  0.20503681851E+02  0.23898253943E+02  0.59301799670E+02  0.49999736726E+02 0.  0.
         12    1    1    2    0    0 -0.50201853084E+01 -0.20503681851E+02 -0.23898253943E+02  0.31886200330E+02  0.00000000000E+00 0. -1.
         11    1    3    3    0    0 -0.25881649940E+01  0.14543045306E+02 -0.43292919201E+01  0.15392905301E+02  0.51100000000E-03 0. -1.
        -11    1    3    3    0    0 -0.10520692090E+02 -0.58054751052E+01  0.10431945296E+02  0.15912698897E+02  0.51100000000E-03 0.  1.
        -12    1    3    3    0    0  0.18129042393E+02  0.11766111650E+02  0.17795600567E+02  0.27996195473E+02  0.00000000000E+00 0.  1.
</event>
<event>
 7    1  0.5832130E-012  0.5930194E+02  0.7816164E-02  0.1266605E+00
        -11   -1    0    0    0    0  0.00000000000E+00  0.00000000000E+00  0.45593999997E+02  0.45594000000E+02  0.51100000000E-03 0.  1.
         11   -1    0    0    0    0 -0.00000000000E+00 -0.00000000000E+00 -0.45593999997E+02  0.45594000000E+02  0.51100000000E-03 0. -1.
    9900012    2    1    2    0    0  0.26969699101E+02 -0.16796272165E+02  0.26909707584E+01  0.59301941105E+02  0.49999994669E+02 0.  0.
         12    1    1    2    0    0 -0.26969699101E+02  0.16796272165E+02 -0.26909707584E+01  0.31886058895E+02  0.00000000000E+00 0. -1.
         11    1    3    3    0    0  0.63660664569E+01  0.53851863638E+01  0.88567932589E+00  0.83851930471E+01  0.51100000000E-03 0. -1.
        -11    1    3    3    0    0  0.10190562908E+02  0.11052546425E+01  0.17990990284E+02  0.20706155893E+02  0.51100000000E-03 0.  1.
         12    1    3    3    0    0  0.10413069736E+02 -0.23286713171E+02 -0.16185698851E+02  0.30210592165E+02  0.00000000000E+00 0. -1.
</event>
<event>
 7    1  0.5832130E-012  0.5930195E+02  0.7816164E-02  0.1266605E+00
        -11   -1    0    0    0    0  0.00000000000E+00  0.00000000000E+00  0.45593999997E+02  0.45594000000E+02  0.51100000000E-03 0. -1.
         11   -1    0    0    0    0 -0.00000000000E+00 -0.00000000000E+00 -0.45593999997E+02  0.45594000000E+02  0.51100000000E-03 0.  1.
    9900012    2    1    2    0    0 -0.72802445762E+01  0.75234143809E+00 -0.31034693344E+02  0.59301950234E+02  0.50000011319E+02 0.  0.
         12    1    1    2    0    0  0.72802445762E+01 -0.75234143809E+00  0.31034693344E+02  0.31886049766E+02  0.00000000000E+00 0. -1.
         11    1    3    3    0    0 -0.27143699331E+02  0.53129489229E+01 -0.13816911707E+02  0.30917873294E+02  0.51100000000E-03 0.  1.
        -11    1    3    3    0    0  0.41065004507E+01  0.29261818047E+01 -0.48782969389E+01  0.70159580380E+01  0.51100000000E-03 0. -1.
        -12    1    3    3    0    0  0.15756954304E+02 -0.74867892895E+01 -0.12339484698E+02  0.21368118902E+02  0.00000000000E+00 0.  1.
</event>
<event>
 7    1  0.5832130E-012  0.5930196E+02  0.7816164E-02  0.1266605E+00
        -11   -1    0    0    0    0  0.00000000000E+00  0.00000000000E+00  0.45593999997E+02  0.45594000000E+02  0.51100000000E-03 0. -1.
         11   -1    0    0    0    0 -0.00000000000E+00 -0.00000000000E+00 -0.45593999997E+02  0.45594000000E+02  0.51100000000E-03 0.  1.
    9900012    2    1    2    0    0 -0.14919465611E+02 -0.18083364411E+02  0.21612978448E+02  0.59301962931E+02  0.50000034476E+02 0.  0.
         12    1    1    2    0    0  0.14919465611E+02  0.18083364411E+02 -0.21612978448E+02  0.31886037069E+02  0.00000000000E+00 0. -1.
         11    1    3    3    0    0 -0.55593443954E+01 -0.46475137494E+01  0.14436322894E+02  0.16152805116E+02  0.51100000000E-03 0. -1.
        -11    1    3    3    0    0 -0.20684253824E+02  0.46219570052E+01  0.26546253873E+01  0.21359959715E+02  0.51100000000E-03 0.  1.
         12    1    3    3    0    0  0.11324132608E+02 -0.18057807666E+02  0.45220301666E+01  0.21789198101E+02  0.00000000000E+00 0. -1.
</event>
<event>
 7    1  0.5832130E-012  0.5930196E+02  0.7816164E-02  0.1266605E+00
        -11   -1    0    0    0    0  0.00000000000E+00  0.00000000000E+00  0.45593999997E+02  0.45594000000E+02  0.51100000000E-03 0. -1.
         11   -1    0    0    0    0 -0.00000000000E+00 -0.00000000000E+00 -0.45593999997E+02  0.45594000000E+02  0.51100000000E-03 0.  1.
    9900012    2    1    2    0    0  0.17098277815E+01  0.28000339849E+02 -0.15158387251E+02  0.59301964706E+02  0.50000037713E+02 0.  0.
         12    1    1    2    0    0 -0.17098277815E+01 -0.28000339849E+02  0.15158387251E+02  0.31886035294E+02  0.00000000000E+00 0. -1.
         11    1    3    3    0    0  0.18096109788E+01  0.12057455310E+01  0.56291839251E+01  0.60345858270E+01  0.51100000000E-03 0. -1.
        -11    1    3    3    0    0  0.64371440061E+01 -0.11727428013E+01 -0.23523213409E+02  0.24416259295E+02  0.51100000000E-03 0.  1.
         12    1    3    3    0    0 -0.65369272034E+01  0.27967337119E+02  0.27356422329E+01  0.28851119584E+02  0.00000000000E+00 0. -1.
</event>
<event>
 7    1  0.5832130E-012  0.5930194E+02  0.7816164E-02  0.1266605E+00
        -11   -1    0    0    0    0  0.00000000000E+00  0.00000000000E+00  0.45593999997E+02  0.45594000000E+02  0.51100000000E-03 0. -1.
         11   -1    0    0    0    0 -0.00000000000E+00 -0.00000000000E+00 -0.45593999997E+02  0.45594000000E+02  0.51100000000E-03 0.  1.
    9900012    2    1    2    0    0 -0.30627363820E+02 -0.79054108355E+01 -0.40236320107E+01  0.59301944276E+02  0.50000000453E+02 0.  0.
         12    1    1    2    0    0  0.30627363820E+02  0.79054108355E+01  0.40236320107E+01  0.31886055724E+02  0.00000000000E+00 0. -1.
         11    1    3    3    0    0 -0.21933819974E+02 -0.58366092548E+01 -0.22704552260E+01  0.22810379949E+02  0.51100000000E-03 0. -1.
        -11    1    3    3    0    0 -0.14933398444E+02 -0.15566259349E+02 -0.14195106519E+01  0.21617812793E+02  0.51100000000E-03 0.  1.
         12    1    3    3    0    0  0.62398545976E+01  0.13497457768E+02 -0.33366613279E+00  0.14873751534E+02  0.00000000000E+00 0. -1.
</event>
<event>
 7    1  0.5832130E-012  0.5930195E+02  0.7816164E-02  0.1266605E+00
        -11   -1    0    0    0    0  0.00000000000E+00  0.00000000000E+00  0.45593999997E+02  0.45594000000E+02  0.51100000000E-03 0.  1.
         11   -1    0    0    0    0 -0.00000000000E+00 -0.00000000000E+00 -0.45593999997E+02  0.45594000000E+02  0.51100000000E-03 0. -1.
    9900012    2    1    2    0    0 -0.30050558494E+02 -0.99330642851E+01  0.38753560150E+01  0.59301949506E+02  0.50000009990E+02 0.  0.
         12    1    1    2    0    0  0.30050558494E+02  0.99330642851E+01 -0.38753560150E+01  0.31886050494E+02  0.00000000000E+00 0. -1.
         11    1    3    3    0    0 -0.12783611518E+01 -0.18319145333E+02  0.40026607008E+01  0.18794855304E+02  0.51100000000E-03 0. -1.
        -11    1    3    3    0    0 -0.13622793711E+02 -0.96205224615E+01  0.23630400467E+01  0.16843957950E+02  0.51100000000E-03 0.  1.
        -12    1    3    3    0    0 -0.15149403632E+02  0.18006603509E+02 -0.24903447325E+01  0.23663136251E+02  0.00000000000E+00 0.  1.
</event>
<event>
 7    1  0.5832130E-012  0.5930190E+02  0.7816164E-02  0.1266605E+00
        -11   -1    0    0    0    0  0.00000000000E+00  0.00000000000E+00  0.45593999997E+02  0.45594000000E+02  0.51100000000E-03 0. -1.
         11   -1    0    0    0    0 -0.00000000000E+00 -0.00000000000E+00 -0.45593999997E+02  0.45594000000E+02  0.51100000000E-03 0.  1.
    9900012    2    1    2    0    0  0.10938329460E+02 -0.28370957359E+02 -0.96002616233E+01  0.59301901209E+02  0.49999921910E+02 0.  0.
         12    1    1    2    0    0 -0.10938329460E+02  0.28370957359E+02  0.96002616233E+01  0.31886098791E+02  0.00000000000E+00 0. -1.
         11    1    3    3    0    0  0.12543208591E+02 -0.83794254902E+01 -0.17330760846E+02  0.22976120757E+02  0.51100000000E-03 0. -1.
        -11    1    3    3    0    0  0.90563575835E+01 -0.69448639830E+01 -0.74647838823E+01  0.13637145856E+02  0.51100000000E-03 0.  1.
         12    1    3    3    0    0 -0.10661236714E+02 -0.13046667886E+02  0.15195283105E+02  0.22688634596E+02  0.00000000000E+00 0. -1.
</event>
<event>
 7    1  0.5832130E-012  0.5930195E+02  0.7816164E-02  0.1266605E+00
        -11   -1    0    0    0    0  0.00000000000E+00  0.00000000000E+00  0.45593999997E+02  0.45594000000E+02  0.51100000000E-03 0. -1.
         11   -1    0    0    0    0 -0.00000000000E+00 -0.00000000000E+00 -0.45593999997E+02  0.45594000000E+02  0.51100000000E-03 0.  1.
    9900012    2    1    2    0    0 -0.27469340823E+02 -0.15129801923E+02  0.57658368651E+01  0.59301945584E+02  0.50000002838E+02 0.  0.
         12    1    1    2    0    0  0.27469340823E+02  0.15129801923E+02 -0.57658368651E+01  0.31886054416E+02  0.00000000000E+00 0. -1.
         11    1    3    3    0    0 -0.21941786466E+02 -0.74970109588E+01 -0.30801700194E+01  0.23390908795E+02  0.51100000000E-03 0. -1.
        -11    1    3    3    0    0  0.22112957228E+01  0.76673134612E+01 -0.84042310027E+01  0.11589159741E+02  0.51100000000E-03 0.  1.
         12    1    3    3    0    0 -0.77388500794E+01 -0.15300104425E+02  0.17250237887E+02  0.24321877048E+02  0.00000000000E+00 0. -1.
</event>
<event>
 7    1  0.5832130E-012  0.5930191E+02  0.7816164E-02  0.1266605E+00
        -11   -1    0    0    0    0  0.00000000000E+00  0.00000000000E+00  0.45593999997E+02  0.45594000000E+02  0.51100000000E-03 0.  1.
         11   -1    0    0    0    0 -0.00000000000E+00 -0.00000000000E+00 -0.45593999997E+02  0.45594000000E+02  0.51100000000E-03 0. -1.
    9900012    2    1    2    0    0  0.72991248055E+01  0.30334445579E+02 -0.65777633381E+01  0.59301909270E+02  0.49999936611E+02 0.  0.
         12    1    1    2    0    0 -0.72991248055E+01 -0.30334445579E+02  0.65777633381E+01  0.31886090730E+02  0.00000000000E+00 0. -1.
         11    1    3    3    0    0 -0.29222007377E+01  0.28563576324E+02 -0.15669544344E+02  0.32710117239E+02  0.51100000000E-03 0. -1.
        -11    1    3    3    0    0  0.98676516467E+01  0.96967972786E+01 -0.86371645134E+00  0.13861617252E+02  0.51100000000E-03 0.  1.
         12    1    3    3    0    0  0.35367389641E+00 -0.79259280243E+01  0.99554974572E+01  0.12730174779E+02  0.00000000000E+00 0. -1.
</event>
<event>
 7    1  0.5832130E-012  0.5930193E+02  0.7816164E-02  0.1266605E+00
        -11   -1    0    0    0    0  0.00000000000E+00  0.00000000000E+00  0.45593999997E+02  0.45594000000E+02  0.51100000000E-03 0.  1.
         11   -1    0    0    0    0 -0.00000000000E+00 -0.00000000000E+00 -0.45593999997E+02  0.45594000000E+02  0.51100000000E-03 0. -1.
    9900012    2    1    2    0    0  0.14500467287E+02  0.12545265214E+02  0.25476930107E+02  0.59301934101E+02  0.49999981896E+02 0.  0.
         12    1    1    2    0    0 -0.14500467287E+02 -0.12545265214E+02 -0.25476930107E+02  0.31886065899E+02  0.00000000000E+00 0. -1.
         11    1    3    3    0    0 -0.31243736777E+01 -0.68734583075E+01 -0.10563807861E+02  0.12984613077E+02  0.51100000000E-03 0. -1.
        -11    1    3    3    0    0  0.52938679706E+01  0.96950609642E+01  0.63808137239E+01  0.12756724863E+02  0.51100000000E-03 0.  1.
        -12    1    3    3    0    0  0.12330972994E+02  0.97236625571E+01  0.29659924244E+02  0.33560596161E+02  0.00000000000E+00 0.  1.
</event>
<event>
 7    1  0.5832130E-012  0.5930191E+02  0.7816164E-02  0.1266605E+00
        -11   -1    0    0    0    0  0.00000000000E+00  0.00000000000E+00  0.45593999997E+02  0.45594000000E+02  0.51100000000E-03 0.  1.
         11   -1    0    0    0    0 -0.00000000000E+00 -0.00000000000E+00 -0.45593999997E+02  0.45594000000E+02  0.51100000000E-03 0. -1.
    9900012    2    1    2    0    0 -0.19527576619E+02 -0.25206820435E+02 -0.11202018545E+00  0.59301912226E+02  0.49999942000E+02 0.  0.
         12    1    1    2    0    0  0.19527576619E+02  0.25206820435E+02  0.11202018545E+00  0.31886087774E+02  0.00000000000E+00 0. -1.
         11    1    3    3    0    0  0.25065674461E+01 -0.42571037030E+01 -0.11893384402E+02  0.12878602607E+02  0.51100000000E-03 0. -1.
        -11    1    3    3    0    0  0.21561081537E+01  0.71046534488E+01  0.44665111204E+01  0.86645614343E+01  0.51100000000E-03 0.  1.
        -12    1    3    3    0    0 -0.24190252219E+02 -0.28054370181E+02  0.73148530964E+01  0.37758748185E+02  0.00000000000E+00 0.  1.
</event>
<event>
 7    1  0.5832130E-012  0.5930192E+02  0.7816164E-02  0.1266605E+00
        -11   -1    0    0    0    0  0.00000000000E+00  0.00000000000E+00  0.45593999997E+02  0.45594000000E+02  0.51100000000E-03 0.  1.
         11   -1    0    0    0    0 -0.00000000000E+00 -0.00000000000E+00 -0.45593999997E+02  0.45594000000E+02  0.51100000000E-03 0. -1.
    9900012    2    1    2    0    0 -0.58454486602E+01 -0.18006403311E+02  0.25657790796E+02  0.59301920611E+02  0.49999957294E+02 0.  0.
         12    1    1    2    0    0  0.58454486602E+01  0.18006403311E+02 -0.25657790796E+02  0.31886079389E+02  0.00000000000E+00 0. -1.
         11    1    3    3    0    0 -0.53392591910E+01 -0.17106105712E+00  0.20152671349E+02  0.20848671741E+02  0.51100000000E-03 0. -1.
        -11    1    3    3    0    0 -0.11562447399E+02  0.17210432145E+01  0.10186400876E+02  0.15505319818E+02  0.51100000000E-03 0.  1.
         12    1    3    3    0    0  0.11056257929E+02 -0.19556385469E+02 -0.46812814289E+01  0.22947929053E+02  0.00000000000E+00 0. -1.
</event>
<event>
 7    1  0.5832130E-012  0.5930194E+02  0.7816164E-02  0.1266605E+00
        -11   -1    0    0    0    0  0.00000000000E+00  0.00000000000E+00  0.45593999997E+02  0.45594000000E+02  0.51100000000E-03 0. -1.
         11   -1    0    0    0    0 -0.00000000000E+00 -0.00000000000E+00 -0.45593999997E+02  0.45594000000E+02  0.51100000000E-03 0.  1.
    9900012    2    1    2    0    0  0.10632195044E+02  0.19717546326E+02 -0.22691307549E+02  0.59301942815E+02  0.49999997788E+02 0.  0.
         12    1    1    2    0    0 -0.10632195044E+02 -0.19717546326E+02  0.22691307549E+02  0.31886057185E+02  0.00000000000E+00 0. -1.
         11    1    3    3    0    0  0.22220930618E+02 -0.74894936575E+00 -0.28824827969E+01  0.22419620648E+02  0.51100000000E-03 0. -1.
        -11    1    3    3    0    0 -0.62256794490E+00 -0.55283287538E+00  0.35224242628E+01  0.36194872540E+01  0.51100000000E-03 0.  1.
        -12    1    3    3    0    0 -0.10966167629E+02  0.21019328567E+02 -0.23331249015E+02  0.33262834913E+02  0.00000000000E+00 0.  1.
</event>
<event>
 7    1  0.5832130E-012  0.5930193E+02  0.7816164E-02  0.1266605E+00
        -11   -1    0    0    0    0  0.00000000000E+00  0.00000000000E+00  0.45593999997E+02  0.45594000000E+02  0.51100000000E-03 0.  1.
         11   -1    0    0    0    0 -0.00000000000E+00 -0.00000000000E+00 -0.45593999997E+02  0.45594000000E+02  0.51100000000E-03 0. -1.
    9900012    2    1    2    0    0 -0.30598681155E+02 -0.73114619720E+01  0.51946929166E+01  0.59301927820E+02  0.49999970441E+02 0.  0.
         12    1    1    2    0    0  0.30598681155E+02  0.73114619720E+01 -0.51946929166E+01  0.31886072180E+02  0.00000000000E+00 0. -1.
         11    1    3    3    0    0 -0.87841370611E+01 -0.17374617873E+02 -0.87789995211E+01  0.21356714237E+02  0.51100000000E-03 0. -1.
        -11    1    3    3    0    0 -0.22643443211E+02 -0.21109652754E+01  0.65665297225E+01  0.23670678227E+02  0.51100000000E-03 0.  1.
         12    1    3    3    0    0  0.82889911762E+00  0.12174121176E+02  0.74071627153E+01  0.14274535357E+02  0.00000000000E+00 0. -1.
</event>
<event>
 7    1  0.5832130E-012  0.5930193E+02  0.7816164E-02  0.1266605E+00
        -11   -1    0    0    0    0  0.00000000000E+00  0.00000000000E+00  0.45593999997E+02  0.45594000000E+02  0.51100000000E-03 0.  1.
         11   -1    0    0    0    0 -0.00000000000E+00 -0.00000000000E+00 -0.45593999997E+02  0.45594000000E+02  0.51100000000E-03 0. -1.
    9900012    2    1    2    0    0 -0.28924963229E+02  0.81751200707E+01  0.10641200205E+02  0.59301933642E+02  0.49999981059E+02 0.  0.
         12    1    1    2    0    0  0.28924963229E+02 -0.81751200707E+01 -0.10641200205E+02  0.31886066358E+02  0.00000000000E+00 0. -1.
         11    1    3    3    0    0 -0.23980418080E+02  0.10714164732E+02  0.98592607185E+01  0.28054568244E+02  0.51100000000E-03 0. -1.
        -11    1    3    3    0    0 -0.30628428117E+01  0.13875450583E+02 -0.24308301857E+01  0.14415896455E+02  0.51100000000E-03 0.  1.
         12    1    3    3    0    0 -0.18817023369E+01 -0.16414495244E+02  0.32127696723E+01  0.16831468942E+02  0.00000000000E+00 0. -1.
</event>
<event>
 7    1  0.5832130E-012  0.5930200E+02  0.7816164E-02  0.1266605E+00
        -11   -1    0    0    0    0  0.00000000000E+00  0.00000000000E+00  0.45593999997E+02  0.45594000000E+02  0.51100000000E-03 0.  1.
         11   -1    0    0    0    0 -0.00000000000E+00 -0.00000000000E+00 -0.45593999997E+02  0.45594000000E+02  0.51100000000E-03 0. -1.
    9900012    2    1    2    0    0  0.34719828486E+01  0.16236227408E+02  0.27222184314E+02  0.59301998931E+02  0.50000100130E+02 0.  0.
         12    1    1    2    0    0 -0.34719828486E+01 -0.16236227408E+02 -0.27222184314E+02  0.31886001069E+02  0.00000000000E+00 0. -1.
         11    1    3    3    0    0  0.54805491133E+01  0.16644785502E+01 -0.45255798341E+01  0.72998479795E+01  0.51100000000E-03 0. -1.
        -11    1    3    3    0    0  0.16669618214E+02 -0.58706728499E+00  0.92878809273E+01  0.19091504702E+02  0.51100000000E-03 0.  1.
         12    1    3    3    0    0 -0.18678184479E+02  0.15158816143E+02  0.22459883221E+02  0.32910646250E+02  0.00000000000E+00 0. -1.
</event>
<event>
 7    1  0.5832130E-012  0.5930193E+02  0.7816164E-02  0.1266605E+00
        -11   -1    0    0    0    0  0.00000000000E+00  0.00000000000E+00  0.45593999997E+02  0.45594000000E+02  0.51100000000E-03 0. -1.
         11   -1    0    0    0    0 -0.00000000000E+00 -0.00000000000E+00 -0.45593999997E+02  0.45594000000E+02  0.51100000000E-03 0.  1.
    9900012    2    1    2    0    0  0.26868928156E+02 -0.25015433203E+00 -0.17167402503E+02  0.59301928023E+02  0.49999970811E+02 0.  0.
         12    1    1    2    0    0 -0.26868928156E+02  0.25015433203E+00  0.17167402503E+02  0.31886071977E+02  0.00000000000E+00 0. -1.
         11    1    3    3    0    0 -0.26137848365E+01 -0.48662382593E+01 -0.14237545020E+02  0.15271536741E+02  0.51100000000E-03 0. -1.
        -11    1    3    3    0    0  0.21874303300E+02  0.16444370330E+01 -0.17006014956E+02  0.27755969862E+02  0.51100000000E-03 0.  1.
        -12    1    3    3    0    0  0.76084096919E+01  0.29716468943E+01  0.14076157474E+02  0.16274421419E+02  0.00000000000E+00 0.  1.
</event>
<event>
 7    1  0.5832130E-012  0.5930197E+02  0.7816164E-02  0.1266605E+00
        -11   -1    0    0    0    0  0.00000000000E+00  0.00000000000E+00  0.45593999997E+02  0.45594000000E+02  0.51100000000E-03 0. -1.
         11   -1    0    0    0    0 -0.00000000000E+00 -0.00000000000E+00 -0.45593999997E+02  0.45594000000E+02  0.51100000000E-03 0.  1.
    9900012    2    1    2    0    0  0.10464053597E+02 -0.30119208612E+02 -0.23658021360E+00  0.59301966768E+02  0.50000041473E+02 0.  0.
         12    1    1    2    0    0 -0.10464053597E+02  0.30119208612E+02  0.23658021360E+00  0.31886033232E+02  0.00000000000E+00 0. -1.
         11    1    3    3    0    0 -0.39656797694E+01  0.18221406471E+01  0.55737175718E+01  0.70790635257E+01  0.51100000000E-03 0. -1.
        -11    1    3    3    0    0 -0.84519961994E+01 -0.25784083296E+02  0.21670795458E+01  0.27220422943E+02  0.51100000000E-03 0.  1.
        -12    1    3    3    0    0  0.22881729566E+02 -0.61572659631E+01 -0.79773773312E+01  0.25002480300E+02  0.00000000000E+00 0.  1.
</event>
<event>
 7    1  0.5832130E-012  0.5930194E+02  0.7816164E-02  0.1266605E+00
        -11   -1    0    0    0    0  0.00000000000E+00  0.00000000000E+00  0.45593999997E+02  0.45594000000E+02  0.51100000000E-03 0.  1.
         11   -1    0    0    0    0 -0.00000000000E+00 -0.00000000000E+00 -0.45593999997E+02  0.45594000000E+02  0.51100000000E-03 0. -1.
    9900012    2    1    2    0    0 -0.78954183645E+01  0.14334283753E+02  0.27366246419E+02  0.59301940900E+02  0.49999994296E+02 0.  0.
         12    1    1    2    0    0  0.78954183645E+01 -0.14334283753E+02 -0.27366246419E+02  0.31886059100E+02  0.00000000000E+00 0. -1.
         11    1    3    3    0    0 -0.73552328178E+01 -0.82149993446E+00 -0.37013682261E+01  0.82749283352E+01  0.51100000000E-03 0. -1.
        -11    1    3    3    0    0  0.13489361272E+02 -0.23700931888E+01  0.13206552069E+01  0.13759518149E+02  0.51100000000E-03 0.  1.
         12    1    3    3    0    0 -0.14029546819E+02  0.17525876876E+02  0.29746959438E+02  0.37267494416E+02  0.00000000000E+00 0. -1.
</event>
<event>
 7    1  0.5832130E-012  0.5930198E+02  0.7816164E-02  0.1266605E+00
        -11   -1    0    0    0    0  0.00000000000E+00  0.00000000000E+00  0.45593999997E+02  0.45594000000E+02  0.51100000000E-03 0.  1.
         11   -1    0    0    0    0 -0.00000000000E+00 -0.00000000000E+00 -0.45593999997E+02  0.45594000000E+02  0.51100000000E-03 0. -1.
    9900012    2    1    2    0    0  0.25865070481E+02 -0.17287299740E+02 -0.69904152713E+01  0.59301976275E+02  0.50000058812E+02 0.  0.
         12    1    1    2    0    0 -0.25865070481E+02  0.17287299740E+02  0.69904152713E+01  0.31886023725E+02  0.00000000000E+00 0. -1.
         11    1    3    3    0    0  0.32760331345E+02 -0.15279696677E+02 -0.13237531188E+02  0.38495982551E+02  0.51100000000E-03 0. -1.
        -11    1    3    3    0    0  0.17534265986E+01 -0.80985315571E+01 -0.42888632396E+00  0.82972683432E+01  0.51100000000E-03 0.  1.
        -12    1    3    3    0    0 -0.86486874626E+01  0.60909284934E+01  0.66760022408E+01  0.12508725381E+02  0.00000000000E+00 0.  1.
</event>
<event>
 7    1  0.5832130E-012  0.5930193E+02  0.7816164E-02  0.1266605E+00
        -11   -1    0    0    0    0  0.00000000000E+00  0.00000000000E+00  0.45593999997E+02  0.45594000000E+02  0.51100000000E-03 0.  1.
         11   -1    0    0    0    0 -0.00000000000E+00 -0.00000000000E+00 -0.45593999997E+02  0.45594000000E+02  0.51100000000E-03 0. -1.
    9900012    2    1    2    0    0 -0.12495843458E+02  0.29333741911E+02  0.32670528348E+00  0.59301933222E+02  0.49999980293E+02 0.  0.
         12    1    1    2    0    0  0.12495843458E+02 -0.29333741911E+02 -0.32670528348E+00  0.31886066778E+02  0.00000000000E+00 0. -1.
         11    1    3    3    0    0  0.90113708009E+01  0.57680300506E+01  0.15975386229E+02  0.19227270732E+02  0.51100000000E-03 0. -1.
        -11    1    3    3    0    0 -0.21130575019E+01  0.74151744432E+01  0.34277042956E+01  0.84379488638E+01  0.51100000000E-03 0.  1.
         12    1    3    3    0    0 -0.19394156757E+02  0.16150537417E+02 -0.19076385241E+02  0.31636713626E+02  0.00000000000E+00 0. -1.
</event>
<event>
 7    1  0.5832130E-012  0.5930193E+02  0.7816164E-02  0.1266605E+00
        -11   -1    0    0    0    0  0.00000000000E+00  0.00000000000E+00  0.45593999997E+02  0.45594000000E+02  0.51100000000E-03 0. -1.
         11   -1    0    0    0    0 -0.00000000000E+00 -0.00000000000E+00 -0.45593999997E+02  0.45594000000E+02  0.51100000000E-03 0.  1.
    9900012    2    1    2    0    0 -0.25148650674E+02 -0.18526781837E+02  0.64050794105E+01  0.59301932224E+02  0.49999978473E+02 0.  0.
         12    1    1    2    0    0  0.25148650674E+02  0.18526781837E+02 -0.64050794105E+01  0.31886067776E+02  0.00000000000E+00 0. -1.
         11    1    3    3    0    0 -0.17187583771E+02 -0.18790889409E+01  0.18716623927E+02  0.25480502793E+02  0.51100000000E-03 0. -1.
        -11    1    3    3    0    0  0.61377852713E+01  0.32739364364E+01 -0.40808294518E+01  0.80650007503E+01  0.51100000000E-03 0.  1.
        -12    1    3    3    0    0 -0.14098852174E+02 -0.19921629333E+02 -0.82307150645E+01  0.25756428680E+02  0.00000000000E+00 0.  1.
</event>
<event>
 7    1  0.5832130E-012  0.5930185E+02  0.7816164E-02  0.1266605E+00
        -11   -1    0    0    0    0  0.00000000000E+00  0.00000000000E+00  0.45593999997E+02  0.45594000000E+02  0.51100000000E-03 0.  1.
         11   -1    0    0    0    0 -0.00000000000E+00 -0.00000000000E+00 -0.45593999997E+02  0.45594000000E+02  0.51100000000E-03 0. -1.
    9900012    2    1    2    0    0 -0.16480945381E+02 -0.27280838437E+02  0.92791671250E+00  0.59301847270E+02  0.49999823538E+02 0.  0.
         12    1    1    2    0    0  0.16480945381E+02  0.27280838437E+02 -0.92791671250E+00  0.31886152730E+02  0.00000000000E+00 0. -1.
         11    1    3    3    0    0 -0.10795883661E+02  0.11910128970E+02 -0.10761758078E+01  0.16110879266E+02  0.51100000000E-03 0. -1.
        -11    1    3    3    0    0  0.20139492564E+01 -0.21711381028E+01 -0.39251521234E+01  0.49169758716E+01  0.51100000000E-03 0.  1.
        -12    1    3    3    0    0 -0.76990109767E+01 -0.37019829304E+02  0.59292446437E+01  0.38273992132E+02  0.00000000000E+00 0.  1.
</event>
<event>
 7    1  0.5832130E-012  0.5930197E+02  0.7816164E-02  0.1266605E+00
        -11   -1    0    0    0    0  0.00000000000E+00  0.00000000000E+00  0.45593999997E+02  0.45594000000E+02  0.51100000000E-03 0.  1.
         11   -1    0    0    0    0 -0.00000000000E+00 -0.00000000000E+00 -0.45593999997E+02  0.45594000000E+02  0.51100000000E-03 0. -1.
    9900012    2    1    2    0    0  0.46858866286E+01 -0.32254549273E+01  0.31374476451E+02  0.59301970684E+02  0.50000048614E+02 0.  0.
         12    1    1    2    0    0 -0.46858866286E+01  0.32254549273E+01 -0.31374476451E+02  0.31886029316E+02  0.00000000000E+00 0. -1.
         11    1    3    3    0    0  0.78709246047E+01 -0.90893052165E+01 -0.15143733011E+01  0.12118591098E+02  0.51100000000E-03 0. -1.
        -11    1    3    3    0    0  0.11111271116E+02  0.46324621100E+01  0.30298184777E+02  0.32602147966E+02  0.51100000000E-03 0.  1.
        -12    1    3    3    0    0 -0.14296309092E+02  0.12313881792E+01  0.25906649758E+01  0.14581231619E+02  0.00000000000E+00 0.  1.
</event>
<event>
 7    1  0.5832130E-012  0.5930189E+02  0.7816164E-02  0.1266605E+00
        -11   -1    0    0    0    0  0.00000000000E+00  0.00000000000E+00  0.45593999997E+02  0.45594000000E+02  0.51100000000E-03 0.  1.
         11   -1    0    0    0    0 -0.00000000000E+00 -0.00000000000E+00 -0.45593999997E+02  0.45594000000E+02  0.51100000000E-03 0. -1.
    9900012    2    1    2    0    0 -0.98976406459E+01  0.28072556231E+02  0.11432078613E+02  0.59301888209E+02  0.49999898201E+02 0.  0.
         12    1    1    2    0    0  0.98976406459E+01 -0.28072556231E+02 -0.11432078613E+02  0.31886111791E+02  0.00000000000E+00 0. -1.
         11    1    3    3    0    0 -0.67501280699E+01 -0.10992671529E+02  0.26344168522E+01  0.13165986811E+02  0.51100000000E-03 0. -1.
        -11    1    3    3    0    0  0.24823344638E+01  0.14877312669E+02 -0.70775226648E+01  0.16660964677E+02  0.51100000000E-03 0.  1.
        -12    1    3    3    0    0 -0.56298470398E+01  0.24187915091E+02  0.15875184426E+02  0.29474936721E+02  0.00000000000E+00 0.  1.
</event>
<event>
 7    1  0.5832130E-012  0.5930189E+02  0.7816164E-02  0.1266605E+00
        -11   -1    0    0    0    0  0.00000000000E+00  0.00000000000E+00  0.45593999997E+02  0.45594000000E+02  0.51100000000E-03 0.  1.
         11   -1    0    0    0    0 -0.00000000000E+00 -0.00000000000E+00 -0.45593999997E+02  0.45594000000E+02  0.51100000000E-03 0. -1.
    9900012    2    1    2    0    0 -0.12409651705E+02  0.22974544080E+02  0.18300135865E+02  0.59301888544E+02  0.49999898810E+02 0.  0.
         12    1    1    2    0    0  0.12409651705E+02 -0.22974544080E+02 -0.18300135865E+02  0.31886111456E+02  0.00000000000E+00 0. -1.
         11    1    3    3    0    0 -0.11353199103E+02  0.12489720934E+02 -0.22315630887E+01  0.17025514176E+02  0.51100000000E-03 0. -1.
        -11    1    3    3    0    0 -0.99356867708E+01  0.20528175296E+02  0.16906331893E+02  0.28389221739E+02  0.51100000000E-03 0.  1.
        -12    1    3    3    0    0  0.88792341689E+01 -0.10043352149E+02  0.36253670608E+01  0.13887152629E+02  0.00000000000E+00 0.  1.
</event>
<event>
 7    1  0.5832130E-012  0.5930194E+02  0.7816164E-02  0.1266605E+00
        -11   -1    0    0    0    0  0.00000000000E+00  0.00000000000E+00  0.45593999997E+02  0.45594000000E+02  0.51100000000E-03 0. -1.
         11   -1    0    0    0    0 -0.00000000000E+00 -0.00000000000E+00 -0.45593999997E+02  0.45594000000E+02  0.51100000000E-03 0.  1.
    9900012    2    1    2    0    0  0.52623244253E+01 -0.14148958269E+02 -0.28086217165E+02  0.59301942340E+02  0.49999996922E+02 0.  0.
         12    1    1    2    0    0 -0.52623244253E+01  0.14148958269E+02  0.28086217165E+02  0.31886057660E+02  0.00000000000E+00 0. -1.
         11    1    3    3    0    0  0.11659517709E+02 -0.10616934840E+02 -0.90408341783E+01  0.18176917822E+02  0.51100000000E-03 0. -1.
        -11    1    3    3    0    0  0.10114584812E+02 -0.75934041391E+01  0.32756883591E+01  0.13065019971E+02  0.51100000000E-03 0.  1.
         12    1    3    3    0    0 -0.16511778096E+02  0.40613807103E+01 -0.22321071346E+02  0.28060004547E+02  0.00000000000E+00 0. -1.
</event>
<event>
 7    1  0.5832130E-012  0.5930194E+02  0.7816164E-02  0.1266605E+00
        -11   -1    0    0    0    0  0.00000000000E+00  0.00000000000E+00  0.45593999997E+02  0.45594000000E+02  0.51100000000E-03 0.  1.
         11   -1    0    0    0    0 -0.00000000000E+00 -0.00000000000E+00 -0.45593999997E+02  0.45594000000E+02  0.51100000000E-03 0. -1.
    9900012    2    1    2    0    0  0.17585931682E+02 -0.48679283673E+01  0.26148789364E+02  0.59301938705E+02  0.49999990292E+02 0.  0.
         12    1    1    2    0    0 -0.17585931682E+02  0.48679283673E+01 -0.26148789364E+02  0.31886061295E+02  0.00000000000E+00 0. -1.
         11    1    3    3    0    0 -0.13605177123E+01 -0.92462910732E+01 -0.61662819040E+01  0.11196782566E+02  0.51100000000E-03 0. -1.
        -11    1    3    3    0    0  0.95515276472E+01  0.43081200558E+01 -0.35241591845E+01  0.11054920942E+02  0.51100000000E-03 0.  1.
         12    1    3    3    0    0  0.93949217469E+01  0.70242650090E-01  0.35839230453E+02  0.37050235197E+02  0.00000000000E+00 0. -1.
</event>
<event>
 7    1  0.5832130E-012  0.5930194E+02  0.7816164E-02  0.1266605E+00
        -11   -1    0    0    0    0  0.00000000000E+00  0.00000000000E+00  0.45593999997E+02  0.45594000000E+02  0.51100000000E-03 0.  1.
         11   -1    0    0    0    0 -0.00000000000E+00 -0.00000000000E+00 -0.45593999997E+02  0.45594000000E+02  0.51100000000E-03 0. -1.
    9900012    2    1    2    0    0 -0.21500003563E+02 -0.20149596973E+02 -0.12184609840E+02  0.59301935201E+02  0.49999983903E+02 0.  0.
         12    1    1    2    0    0  0.21500003563E+02  0.20149596973E+02  0.12184609840E+02  0.31886064799E+02  0.00000000000E+00 0. -1.
         11    1    3    3    0    0 -0.81513269194E+01  0.30205118908E+01 -0.11715036646E+02  0.14587998715E+02  0.51100000000E-03 0. -1.
        -11    1    3    3    0    0 -0.25118198836E+02 -0.20737737090E+02 -0.17995914477E+01  0.32622326435E+02  0.51100000000E-03 0.  1.
         12    1    3    3    0    0  0.11769522192E+02 -0.24323717734E+01  0.13300182539E+01  0.12091610051E+02  0.00000000000E+00 0. -1.
</event>
<event>
 7    1  0.5832130E-012  0.5930207E+02  0.7816164E-02  0.1266604E+00
        -11   -1    0    0    0    0  0.00000000000E+00  0.00000000000E+00  0.45593999997E+02  0.45594000000E+02  0.51100000000E-03 0.  1.
         11   -1    0    0    0    0 -0.00000000000E+00 -0.00000000000E+00 -0.45593999997E+02  0.45594000000E+02  0.51100000000E-03 0. -1.
    9900012    2    1    2    0    0  0.18538986053E+02  0.22580554906E+02  0.12772520915E+02  0.59302066514E+02  0.50000223386E+02 0.  0.
         12    1    1    2    0    0 -0.18538986053E+02 -0.22580554906E+02 -0.12772520915E+02  0.31885933486E+02  0.00000000000E+00 0. -1.
         11    1    3    3    0    0  0.40702549991E+01  0.17977791905E+01  0.66035525700E+01  0.79627817113E+01  0.51100000000E-03 0. -1.
        -11    1    3    3    0    0  0.25330844844E+02  0.12373712693E+02  0.17799323857E+02  0.33340311881E+02  0.51100000000E-03 0.  1.
         12    1    3    3    0    0 -0.10862113790E+02  0.84090630225E+01 -0.11630355512E+02  0.17998972922E+02  0.00000000000E+00 0. -1.
</event>
<event>
 7    1  0.5832130E-012  0.5930195E+02  0.7816164E-02  0.1266605E+00
        -11   -1    0    0    0    0  0.00000000000E+00  0.00000000000E+00  0.45593999997E+02  0.45594000000E+02  0.51100000000E-03 0.  1.
         11   -1    0    0    0    0 -0.00000000000E+00 -0.00000000000E+00 -0.45593999997E+02  0.45594000000E+02  0.51100000000E-03 0. -1.
    9900012    2    1    2    0    0  0.12815666322E+02  0.42908127357E+01  0.28880231213E+02  0.59301950822E+02  0.50000012392E+02 0.  0.
         12    1    1    2    0    0 -0.12815666322E+02 -0.42908127357E+01 -0.28880231213E+02  0.31886049178E+02  0.00000000000E+00 0. -1.
         11    1    3    3    0    0  0.39453398879E+00  0.60684601486E+01 -0.19690931580E+01  0.63921196617E+01  0.51100000000E-03 0. -1.
        -11    1    3    3    0    0  0.12245729715E+02  0.18575178595E+02  0.19621579745E+02  0.29664820041E+02  0.51100000000E-03 0.  1.
         12    1    3    3    0    0  0.17540261787E+00 -0.20352826008E+02  0.11227744627E+02  0.23245011120E+02  0.00000000000E+00 0. -1.
</event>
<event>
 7    1  0.5832130E-012  0.5930192E+02  0.7816164E-02  0.1266605E+00
        -11   -1    0    0    0    0  0.00000000000E+00  0.00000000000E+00  0.45593999997E+02  0.45594000000E+02  0.51100000000E-03 0. -1.
         11   -1    0    0    0    0 -0.00000000000E+00 -0.00000000000E+00 -0.45593999997E+02  0.45594000000E+02  0.51100000000E-03 0.  1.
    9900012    2    1    2    0    0 -0.92895817491E+01  0.58232987379E+01 -0.29941864342E+02  0.59301915613E+02  0.49999948179E+02 0.  0.
         12    1    1    2    0    0  0.92895817491E+01 -0.58232987379E+01  0.29941864342E+02  0.31886084387E+02  0.00000000000E+00 0. -1.
         11    1    3    3    0    0 -0.15650851890E+02  0.20283613137E+00 -0.47507270655E+01  0.16357252682E+02  0.51100000000E-03 0. -1.
        -11    1    3    3    0    0 -0.73854388943E+01  0.69680830367E+01  0.37917555743E+01  0.10838648415E+02  0.51100000000E-03 0.  1.
        -12    1    3    3    0    0  0.13746709036E+02 -0.13476204301E+01 -0.28982892850E+02  0.32106014516E+02  0.00000000000E+00 0.  1.
</event>
<event>
 7    1  0.5832130E-012  0.5930190E+02  0.7816164E-02  0.1266605E+00
        -11   -1    0    0    0    0  0.00000000000E+00  0.00000000000E+00  0.45593999997E+02  0.45594000000E+02  0.51100000000E-03 0.  1.
         11   -1    0    0    0    0 -0.00000000000E+00 -0.00000000000E+00 -0.45593999997E+02  0.45594000000E+02  0.51100000000E-03 0. -1.
    9900012    2    1    2    0    0  0.27428779668E+02  0.15811337199E+01  0.16182868287E+02  0.59301903282E+02  0.49999925690E+02 0.  0.
         12    1    1    2    0    0 -0.27428779668E+02 -0.15811337199E+01 -0.16182868287E+02  0.31886096718E+02  0.00000000000E+00 0. -1.
         11    1    3    3    0    0  0.18334210550E+00 -0.70737147129E+01 -0.32945020914E+01  0.78054339059E+01  0.51100000000E-03 0. -1.
        -11    1    3    3    0    0  0.27053970979E+02 -0.85128650947E+01  0.19338180452E+02  0.34327123988E+02  0.51100000000E-03 0.  1.
         12    1    3    3    0    0  0.19146658283E+00  0.17167713528E+02  0.13918992685E+00  0.17169345388E+02  0.00000000000E+00 0. -1.
</event>
<event>
 7    1  0.5832130E-012  0.5930191E+02  0.7816164E-02  0.1266605E+00
        -11   -1    0    0    0    0  0.00000000000E+00  0.00000000000E+00  0.45593999997E+02  0.45594000000E+02  0.51100000000E-03 0. -1.
         11   -1    0    0    0    0 -0.00000000000E+00 -0.00000000000E+00 -0.45593999997E+02  0.45594000000E+02  0.51100000000E-03 0.  1.
    9900012    2    1    2    0    0  0.25079499971E+02  0.12455965703E+02 -0.15250902756E+02  0.59301914708E+02  0.49999946527E+02 0.  0.
         12    1    1    2    0    0 -0.25079499971E+02 -0.12455965703E+02  0.15250902756E+02  0.31886085292E+02  0.00000000000E+00 0. -1.
         11    1    3    3    0    0  0.69079286173E+01  0.17078491124E+02 -0.19363730383E+02  0.26727296748E+02  0.51100000000E-03 0. -1.
        -11    1    3    3    0    0 -0.25113914395E+01  0.76853089242E+01 -0.36570225230E+00  0.80935034825E+01  0.51100000000E-03 0.  1.
        -12    1    3    3    0    0  0.20682962793E+02 -0.12307834345E+02  0.44785298796E+01  0.24481114477E+02  0.00000000000E+00 0.  1.
</event>
<event>
 7    1  0.5832130E-012  0.5930193E+02  0.7816164E-02  0.1266605E+00
        -11   -1    0    0    0    0  0.00000000000E+00  0.00000000000E+00  0.45593999997E+02  0.45594000000E+02  0.51100000000E-03 0. -1.
         11   -1    0    0    0    0 -0.00000000000E+00 -0.00000000000E+00 -0.45593999997E+02  0.45594000000E+02  0.51100000000E-03 0.  1.
    9900012    2    1    2    0    0 -0.30643324862E+02  0.29809213537E+01 -0.82959314600E+01  0.59301925775E+02  0.49999966711E+02 0.  0.
         12    1    1    2    0    0  0.30643324862E+02 -0.29809213537E+01  0.82959314600E+01  0.31886074225E+02  0.00000000000E+00 0. -1.
         11    1    3    3    0    0  0.21663828886E+01  0.11712226735E+01 -0.15322338379E+02  0.15518989369E+02  0.51100000000E-03 0. -1.
        -11    1    3    3    0    0 -0.19871642989E+02  0.33622554046E+01 -0.98734356842E+01  0.22442631062E+02  0.51100000000E-03 0.  1.
         12    1    3    3    0    0 -0.12938064761E+02 -0.15525567244E+01  0.16899842603E+02  0.21340305344E+02  0.00000000000E+00 0. -1.
</event>
<event>
 7    1  0.5832130E-012  0.5930198E+02  0.7816164E-02  0.1266605E+00
        -11   -1    0    0    0    0  0.00000000000E+00  0.00000000000E+00  0.45593999997E+02  0.45594000000E+02  0.51100000000E-03 0.  1.
         11   -1    0    0    0    0 -0.00000000000E+00 -0.00000000000E+00 -0.45593999997E+02  0.45594000000E+02  0.51100000000E-03 0. -1.
    9900012    2    1    2    0    0 -0.27698081997E+02  0.14366421776E+02 -0.65681554693E+01  0.59301976616E+02  0.50000059434E+02 0.  0.
         12    1    1    2    0    0  0.27698081997E+02 -0.14366421776E+02  0.65681554693E+01  0.31886023384E+02  0.00000000000E+00 0. -1.
         11    1    3    3    0    0  0.85610114334E+00  0.56496310770E+01 -0.11347546074E+02  0.12705040049E+02  0.51100000000E-03 0. -1.
        -11    1    3    3    0    0  0.37646594925E+01  0.12300597693E+02 -0.28974669167E+01  0.13186079004E+02  0.51100000000E-03 0.  1.
        -12    1    3    3    0    0 -0.32318842633E+02 -0.35838069945E+01  0.76768575217E+01  0.33410857563E+02  0.00000000000E+00 0.  1.
</event>
<event>
 7    1  0.5832130E-012  0.5930195E+02  0.7816164E-02  0.1266605E+00
        -11   -1    0    0    0    0  0.00000000000E+00  0.00000000000E+00  0.45593999997E+02  0.45594000000E+02  0.51100000000E-03 0.  1.
         11   -1    0    0    0    0 -0.00000000000E+00 -0.00000000000E+00 -0.45593999997E+02  0.45594000000E+02  0.51100000000E-03 0. -1.
    9900012    2    1    2    0    0  0.24600471029E+02 -0.11391984003E+00  0.20286053378E+02  0.59301951103E+02  0.50000012904E+02 0.  0.
         12    1    1    2    0    0 -0.24600471029E+02  0.11391984003E+00 -0.20286053378E+02  0.31886048897E+02  0.00000000000E+00 0. -1.
         11    1    3    3    0    0 -0.83019616083E+01 -0.30670079116E+01  0.49169331402E+01  0.10124491881E+02  0.51100000000E-03 0. -1.
        -11    1    3    3    0    0  0.13589131075E+02 -0.12789425021E+02  0.15503044741E+02  0.24260632148E+02  0.51100000000E-03 0.  1.
         12    1    3    3    0    0  0.19313301563E+02  0.15742513092E+02 -0.13392450300E+00  0.24916827075E+02  0.00000000000E+00 0. -1.
</event>
<event>
 7    1  0.5832130E-012  0.5930195E+02  0.7816164E-02  0.1266605E+00
        -11   -1    0    0    0    0  0.00000000000E+00  0.00000000000E+00  0.45593999997E+02  0.45594000000E+02  0.51100000000E-03 0. -1.
         11   -1    0    0    0    0 -0.00000000000E+00 -0.00000000000E+00 -0.45593999997E+02  0.45594000000E+02  0.51100000000E-03 0.  1.
    9900012    2    1    2    0    0 -0.23981539888E+02 -0.21013842271E+02 -0.15562601915E+00  0.59301952239E+02  0.50000014975E+02 0.  0.
         12    1    1    2    0    0  0.23981539888E+02  0.21013842271E+02  0.15562601915E+00  0.31886047761E+02  0.00000000000E+00 0. -1.
         11    1    3    3    0    0 -0.97147970928E+01  0.28844582252E+01  0.76551211472E+01  0.12700325265E+02  0.51100000000E-03 0. -1.
        -11    1    3    3    0    0 -0.85209757385E+01  0.44859375447E+01 -0.13995746357E+02  0.16988572028E+02  0.51100000000E-03 0.  1.
        -12    1    3    3    0    0 -0.57457670563E+01 -0.28384238041E+02  0.61849991909E+01  0.29613054946E+02  0.00000000000E+00 0.  1.
</event>
<event>
 7    1  0.5832130E-012  0.5930194E+02  0.7816164E-02  0.1266605E+00
        -11   -1    0    0    0    0  0.00000000000E+00  0.00000000000E+00  0.45593999997E+02  0.45594000000E+02  0.51100000000E-03 0.  1.
         11   -1    0    0    0    0 -0.00000000000E+00 -0.00000000000E+00 -0.45593999997E+02  0.45594000000E+02  0.51100000000E-03 0. -1.
    9900012    2    1    2    0    0  0.18470470085E+00 -0.31087020186E+02  0.70910913720E+01  0.59301944792E+02  0.50000001394E+02 0.  0.
         12    1    1    2    0    0 -0.18470470085E+00  0.31087020186E+02 -0.70910913720E+01  0.31886055208E+02  0.00000000000E+00 0. -1.
         11    1    3    3    0    0 -0.50689208770E+01 -0.30497880200E+02 -0.56165345266E+01  0.31422286930E+02  0.51100000000E-03 0. -1.
        -11    1    3    3    0    0 -0.73533092504E+01  0.43416007904E+01 -0.10202535132E+01  0.86000913860E+01  0.51100000000E-03 0.  1.
         12    1    3    3    0    0  0.12606934828E+02 -0.49307407768E+01  0.13727879412E+02  0.19279566476E+02  0.00000000000E+00 0. -1.
</event>
<event>
 7    1  0.5832130E-012  0.5930187E+02  0.7816164E-02  0.1266605E+00
        -11   -1    0    0    0    0  0.00000000000E+00  0.00000000000E+00  0.45593999997E+02  0.45594000000E+02  0.51100000000E-03 0. -1.
         11   -1    0    0    0    0 -0.00000000000E+00 -0.00000000000E+00 -0.45593999997E+02  0.45594000000E+02  0.51100000000E-03 0.  1.
    9900012    2    1    2    0    0  0.28572503215E+02 -0.12500323425E+02 -0.66392117048E+01  0.59301872017E+02  0.49999868669E+02 0.  0.
         12    1    1    2    0    0 -0.28572503215E+02  0.12500323425E+02  0.66392117048E+01  0.31886127983E+02  0.00000000000E+00 0. -1.
         11    1    3    3    0    0  0.35145837276E+02 -0.35598096336E+01 -0.12460801663E+02  0.37458960221E+02  0.51100000000E-03 0. -1.
        -11    1    3    3    0    0 -0.47205641318E+00 -0.52535014731E+00 -0.60344603136E+01  0.60756515348E+01  0.51100000000E-03 0.  1.
         12    1    3    3    0    0 -0.61012776476E+01 -0.84151636442E+01  0.11856050272E+02  0.15767260261E+02  0.00000000000E+00 0. -1.
</event>
<event>
 7    1  0.5832130E-012  0.5930194E+02  0.7816164E-02  0.1266605E+00
        -11   -1    0    0    0    0  0.00000000000E+00  0.00000000000E+00  0.45593999997E+02  0.45594000000E+02  0.51100000000E-03 0.  1.
         11   -1    0    0    0    0 -0.00000000000E+00 -0.00000000000E+00 -0.45593999997E+02  0.45594000000E+02  0.51100000000E-03 0. -1.
    9900012    2    1    2    0    0  0.77975362883E+01 -0.80335154883E+01  0.29856020428E+02  0.59301938796E+02  0.49999990459E+02 0.  0.
         12    1    1    2    0    0 -0.77975362883E+01  0.80335154883E+01 -0.29856020428E+02  0.31886061204E+02  0.00000000000E+00 0. -1.
         11    1    3    3    0    0 -0.21878209264E+01  0.26725893386E+00  0.50786014852E+01  0.55362605656E+01  0.51100000000E-03 0. -1.
        -11    1    3    3    0    0 -0.94799227857E+01 -0.21297339635E+02  0.17836808496E+02  0.29352978540E+02  0.51100000000E-03 0.  1.
         12    1    3    3    0    0  0.19465280001E+02  0.12996565213E+02  0.69406104471E+01  0.24412699691E+02  0.00000000000E+00 0. -1.
</event>
<event>
 7    1  0.5832130E-012  0.5930194E+02  0.7816164E-02  0.1266605E+00
        -11   -1    0    0    0    0  0.00000000000E+00  0.00000000000E+00  0.45593999997E+02  0.45594000000E+02  0.51100000000E-03 0.  1.
         11   -1    0    0    0    0 -0.00000000000E+00 -0.00000000000E+00 -0.45593999997E+02  0.45594000000E+02  0.51100000000E-03 0. -1.
    9900012    2    1    2    0    0  0.14087332438E+02 -0.24816358486E+02  0.14227303332E+02  0.59301941231E+02  0.49999994900E+02 0.  0.
         12    1    1    2    0    0 -0.14087332438E+02  0.24816358486E+02 -0.14227303332E+02  0.31886058769E+02  0.00000000000E+00 0. -1.
         11    1    3    3    0    0 -0.10405467012E+02 -0.10198089926E+02 -0.16713662622E+01  0.14665205328E+02  0.51100000000E-03 0. -1.
        -11    1    3    3    0    0  0.57358359504E+01  0.76142580461E+01  0.11942925547E+02  0.15281040885E+02  0.51100000000E-03 0.  1.
         12    1    3    3    0    0  0.18756963500E+02 -0.22232526606E+02  0.39557440474E+01  0.29355695018E+02  0.00000000000E+00 0. -1.
</event>
<event>
 7    1  0.5832130E-012  0.5930203E+02  0.7816164E-02  0.1266604E+00
        -11   -1    0    0    0    0  0.00000000000E+00  0.00000000000E+00  0.45593999997E+02  0.45594000000E+02  0.51100000000E-03 0.  1.
         11   -1    0    0    0    0 -0.00000000000E+00 -0.00000000000E+00 -0.45593999997E+02  0.45594000000E+02  0.51100000000E-03 0. -1.
    9900012    2    1    2    0    0 -0.28424032781E+02  0.13542543244E+02 -0.50387667462E+01  0.59302026793E+02  0.50000150943E+02 0.  0.
         12    1    1    2    0    0  0.28424032781E+02 -0.13542543244E+02  0.50387667462E+01  0.31885973207E+02  0.00000000000E+00 0. -1.
         11    1    3    3    0    0 -0.20510804444E+02 -0.51741660654E+01  0.62572462083E+01  0.22059424829E+02  0.51100000000E-03 0. -1.
        -11    1    3    3    0    0 -0.61425852274E+01  0.15841340297E+02  0.71910417238E+01  0.18449674713E+02  0.51100000000E-03 0.  1.
         12    1    3    3    0    0 -0.17706431095E+01  0.28753690123E+01 -0.18487054678E+02  0.18792927251E+02  0.00000000000E+00 0. -1.
</event>
<event>
 7    1  0.5832130E-012  0.5930194E+02  0.7816164E-02  0.1266605E+00
        -11   -1    0    0    0    0  0.00000000000E+00  0.00000000000E+00  0.45593999997E+02  0.45594000000E+02  0.51100000000E-03 0.  1.
         11   -1    0    0    0    0 -0.00000000000E+00 -0.00000000000E+00 -0.45593999997E+02  0.45594000000E+02  0.51100000000E-03 0. -1.
    9900012    2    1    2    0    0 -0.41102548675E+01  0.79230004602E+00  0.31610107668E+02  0.59301939704E+02  0.49999992114E+02 0.  0.
         12    1    1    2    0    0  0.41102548675E+01 -0.79230004602E+00 -0.31610107668E+02  0.31886060296E+02  0.00000000000E+00 0. -1.
         11    1    3    3    0    0 -0.67626763377E+01 -0.92649711343E+01 -0.39242535711E+01  0.12123252357E+02  0.51100000000E-03 0. -1.
        -11    1    3    3    0    0 -0.77304947737E+01  0.13962517291E+02  0.31612536316E+02  0.35412778642E+02  0.51100000000E-03 0.  1.
        -12    1    3    3    0    0  0.10382916244E+02 -0.39052461112E+01  0.39218249235E+01  0.11765908705E+02  0.00000000000E+00 0.  1.
</event>
<event>
 7    1  0.5832130E-012  0.5930198E+02  0.7816164E-02  0.1266605E+00
        -11   -1    0    0    0    0  0.00000000000E+00  0.00000000000E+00  0.45593999997E+02  0.45594000000E+02  0.51100000000E-03 0.  1.
         11   -1    0    0    0    0 -0.00000000000E+00 -0.00000000000E+00 -0.45593999997E+02  0.45594000000E+02  0.51100000000E-03 0. -1.
    9900012    2    1    2    0    0  0.20377593133E+02 -0.67401403849E+01  0.23580550285E+02  0.59301981966E+02  0.50000069191E+02 0.  0.
         12    1    1    2    0    0 -0.20377593133E+02  0.67401403849E+01 -0.23580550285E+02  0.31886018034E+02  0.00000000000E+00 0. -1.
         11    1    3    3    0    0 -0.36836476477E+01 -0.86593057802E+01 -0.51851970082E+01  0.10744259158E+02  0.51100000000E-03 0. -1.
        -11    1    3    3    0    0  0.15098383336E+00  0.46130205550E+01 -0.51871847137E+01  0.69433162303E+01  0.51100000000E-03 0.  1.
        -12    1    3    3    0    0  0.23910256948E+02 -0.26938551597E+01  0.33952932007E+02  0.41614406577E+02  0.00000000000E+00 0.  1.
</event>
<event>
 7    1  0.5832130E-012  0.5930197E+02  0.7816164E-02  0.1266605E+00
        -11   -1    0    0    0    0  0.00000000000E+00  0.00000000000E+00  0.45593999997E+02  0.45594000000E+02  0.51100000000E-03 0.  1.
         11   -1    0    0    0    0 -0.00000000000E+00 -0.00000000000E+00 -0.45593999997E+02  0.45594000000E+02  0.51100000000E-03 0. -1.
    9900012    2    1    2    0    0  0.44098104004E+01  0.29062691410E+02 -0.12354454097E+02  0.59301968641E+02  0.50000044890E+02 0.  0.
         12    1    1    2    0    0 -0.44098104004E+01 -0.29062691410E+02  0.12354454097E+02  0.31886031359E+02  0.00000000000E+00 0. -1.
         11    1    3    3    0    0 -0.42360553588E+01  0.10012232897E+02  0.12602462953E+02  0.16643648799E+02  0.51100000000E-03 0. -1.
        -11    1    3    3    0    0  0.47276770104E+01 -0.30794812507E+01  0.33134917820E+01  0.65431920909E+01  0.51100000000E-03 0.  1.
         12    1    3    3    0    0  0.39181887488E+01  0.22129939764E+02 -0.28270408832E+02  0.36115127752E+02  0.00000000000E+00 0. -1.
</event>
<event>
 7    1  0.5832130E-012  0.5930196E+02  0.7816164E-02  0.1266605E+00
        -11   -1    0    0    0    0  0.00000000000E+00  0.00000000000E+00  0.45593999997E+02  0.45594000000E+02  0.51100000000E-03 0. -1.
         11   -1    0    0    0    0 -0.00000000000E+00 -0.00000000000E+00 -0.45593999997E+02  0.45594000000E+02  0.51100000000E-03 0.  1.
    9900012    2    1    2    0    0 -0.10717295012E+01  0.60680513673E+01 -0.31284980059E+02  0.59301955579E+02  0.50000021067E+02 0.  0.
         12    1    1    2    0    0  0.10717295012E+01 -0.60680513673E+01  0.31284980059E+02  0.31886044421E+02  0.00000000000E+00 0. -1.
         11    1    3    3    0    0  0.44358699108E+01 -0.10960991489E+02 -0.67109757407E+01  0.13596230063E+02  0.51100000000E-03 0. -1.
        -11    1    3    3    0    0  0.61513117372E+01  0.12100790849E+02 -0.29222473700E+02  0.32221433001E+02  0.51100000000E-03 0.  1.
         12    1    3    3    0    0 -0.11658911149E+02  0.49282520067E+01  0.46484693812E+01  0.13484292514E+02  0.00000000000E+00 0. -1.
</event>
<event>
 7    1  0.5832130E-012  0.5930193E+02  0.7816164E-02  0.1266605E+00
        -11   -1    0    0    0    0  0.00000000000E+00  0.00000000000E+00  0.45593999997E+02  0.45594000000E+02  0.51100000000E-03 0. -1.
         11   -1    0    0    0    0 -0.00000000000E+00 -0.00000000000E+00 -0.45593999997E+02  0.45594000000E+02  0.51100000000E-03 0.  1.
    9900012    2    1    2    0    0  0.23006726070E+02 -0.76411805611E+01 -0.20712905270E+02  0.59301928911E+02  0.49999972430E+02 0.  0.
         12    1    1    2    0    0 -0.23006726070E+02  0.76411805611E+01  0.20712905270E+02  0.31886071089E+02  0.00000000000E+00 0. -1.
         11    1    3    3    0    0  0.12033640856E+02  0.87215748314E+01 -0.38175597465E+01  0.15344319550E+02  0.51100000000E-03 0. -1.
        -11    1    3    3    0    0 -0.83475509480E+01  0.52494068739E+01 -0.10236459286E+02  0.14213478755E+02  0.51100000000E-03 0.  1.
        -12    1    3    3    0    0  0.19320636162E+02 -0.21612162266E+02 -0.66588862373E+01  0.29744130605E+02  0.00000000000E+00 0.  1.
</event>
<event>
 7    1  0.5832130E-012  0.5930194E+02  0.7816164E-02  0.1266605E+00
        -11   -1    0    0    0    0  0.00000000000E+00  0.00000000000E+00  0.45593999997E+02  0.45594000000E+02  0.51100000000E-03 0.  1.
         11   -1    0    0    0    0 -0.00000000000E+00 -0.00000000000E+00 -0.45593999997E+02  0.45594000000E+02  0.51100000000E-03 0. -1.
    9900012    2    1    2    0    0 -0.17142181202E+02  0.15627582330E+02  0.21877956496E+02  0.59301942133E+02  0.49999996545E+02 0.  0.
         12    1    1    2    0    0  0.17142181202E+02 -0.15627582330E+02 -0.21877956496E+02  0.31886057867E+02  0.00000000000E+00 0. -1.
         11    1    3    3    0    0  0.10795557318E+02  0.73221943029E+01  0.38704174998E+01  0.13606568969E+02  0.51100000000E-03 0. -1.
        -11    1    3    3    0    0  0.97329241255E+00  0.12704248827E+02  0.59759302740E+01  0.14073271804E+02  0.51100000000E-03 0.  1.
        -12    1    3    3    0    0 -0.28911030933E+02 -0.43988608001E+01  0.12031608722E+02  0.31622101360E+02  0.00000000000E+00 0.  1.
</event>
<event>
 7    1  0.6608654E-012  0.5930193E+02  0.7816164E-02  0.1266605E+00
        -11   -1    0    0    0    0  0.00000000000E+00  0.00000000000E+00  0.45593999997E+02  0.45594000000E+02  0.51100000000E-03 0. -1.
         11   -1    0    0    0    0 -0.00000000000E+00 -0.00000000000E+00 -0.45593999997E+02  0.45594000000E+02  0.51100000000E-03 0.  1.
    9900012    2    1    2    0    0  0.25532419889E+02  0.86979447853E+01  0.17004777630E+02  0.59301934530E+02  0.49999982679E+02 0.  0.
         12    1    1    2    0    0 -0.25532419889E+02 -0.86979447853E+01 -0.17004777630E+02  0.31886065470E+02  0.00000000000E+00 0. -1.
         11    1    3    3    0    0 -0.35600264620E+01 -0.69857621107E+01  0.51696709349E+01  0.93914939447E+01  0.51100000000E-03 0. -1.
        -11    1    3    3    0    0  0.29434931422E+02 -0.31126369923E+01  0.87017125608E+01  0.30851636888E+02  0.51100000000E-03 0.  1.
         12    1    3    3    0    0 -0.34248507129E+00  0.18796343888E+02  0.31333941346E+01  0.19058803698E+02  0.00000000000E+00 0. -1.
</event>
<event>
 7    1  0.5832130E-012  0.5930194E+02  0.7816164E-02  0.1266605E+00
        -11   -1    0    0    0    0  0.00000000000E+00  0.00000000000E+00  0.45593999997E+02  0.45594000000E+02  0.51100000000E-03 0.  1.
         11   -1    0    0    0    0 -0.00000000000E+00 -0.00000000000E+00 -0.45593999997E+02  0.45594000000E+02  0.51100000000E-03 0. -1.
    9900012    2    1    2    0    0 -0.21081339566E+02  0.23408142586E+02 -0.49352650561E+01  0.59301939434E+02  0.49999991622E+02 0.  0.
         12    1    1    2    0    0  0.21081339566E+02 -0.23408142586E+02  0.49352650561E+01  0.31886060566E+02  0.00000000000E+00 0. -1.
         11    1    3    3    0    0 -0.13309782741E+02  0.23245268861E+02 -0.17594966273E+02  0.32048021459E+02  0.51100000000E-03 0. -1.
        -11    1    3    3    0    0 -0.55242710013E+01  0.99593489493E+01  0.39335216241E+00  0.11395653898E+02  0.51100000000E-03 0.  1.
        -12    1    3    3    0    0 -0.22472858237E+01 -0.97964752237E+01  0.12266349055E+02  0.15858264076E+02  0.00000000000E+00 0.  1.
</event>
<event>
 7    1  0.5832130E-012  0.5930193E+02  0.7816164E-02  0.1266605E+00
        -11   -1    0    0    0    0  0.00000000000E+00  0.00000000000E+00  0.45593999997E+02  0.45594000000E+02  0.51100000000E-03 0. -1.
         11   -1    0    0    0    0 -0.00000000000E+00 -0.00000000000E+00 -0.45593999997E+02  0.45594000000E+02  0.51100000000E-03 0.  1.
    9900012    2    1    2    0    0 -0.23495290152E+02 -0.19140090770E+02 -0.99171360177E+01  0.59301932183E+02  0.49999978398E+02 0.  0.
         12    1    1    2    0    0  0.23495290152E+02  0.19140090770E+02  0.99171360177E+01  0.31886067817E+02  0.00000000000E+00 0. -1.
         11    1    3    3    0    0 -0.62035696531E+01 -0.43653203531E+01  0.80295445479E+01  0.11045989504E+02  0.51100000000E-03 0. -1.
        -11    1    3    3    0    0 -0.25744611040E+02 -0.20638586350E+02 -0.18724950649E+02  0.37938898523E+02  0.51100000000E-03 0.  1.
         12    1    3    3    0    0  0.84528905405E+01  0.58638159324E+01  0.77827008327E+00  0.10317044155E+02  0.00000000000E+00 0. -1.
</event>
<event>
 7    1  0.5832130E-012  0.5930194E+02  0.7816164E-02  0.1266605E+00
        -11   -1    0    0    0    0  0.00000000000E+00  0.00000000000E+00  0.45593999997E+02  0.45594000000E+02  0.51100000000E-03 0.  1.
         11   -1    0    0    0    0 -0.00000000000E+00 -0.00000000000E+00 -0.45593999997E+02  0.45594000000E+02  0.51100000000E-03 0. -1.
    9900012    2    1    2    0    0  0.10257311175E+02 -0.23490504885E+02  0.18965880428E+02  0.59301939210E+02  0.49999991214E+02 0.  0.
         12    1    1    2    0    0 -0.10257311175E+02  0.23490504885E+02 -0.18965880428E+02  0.31886060790E+02  0.00000000000E+00 0. -1.
         11    1    3    3    0    0  0.15019184434E+02 -0.74073614082E+01  0.13365928640E+02  0.21426454508E+02  0.51100000000E-03 0. -1.
        -11    1    3    3    0    0  0.19162361088E+01 -0.14010863267E+02  0.18450106032E+02  0.23246132220E+02  0.51100000000E-03 0.  1.
         12    1    3    3    0    0 -0.66781093683E+01 -0.20722802089E+01 -0.12850154243E+02  0.14629352483E+02  0.00000000000E+00 0. -1.
</event>
<event>
 7    1  0.5832130E-012  0.5930196E+02  0.7816164E-02  0.1266605E+00
        -11   -1    0    0    0    0  0.00000000000E+00  0.00000000000E+00  0.45593999997E+02  0.45594000000E+02  0.51100000000E-03 0.  1.
         11   -1    0    0    0    0 -0.00000000000E+00 -0.00000000000E+00 -0.45593999997E+02  0.45594000000E+02  0.51100000000E-03 0. -1.
    9900012    2    1    2    0    0  0.52812126847E+01 -0.21448944869E+01  0.31372401537E+02  0.59301962962E+02  0.50000034532E+02 0.  0.
         12    1    1    2    0    0 -0.52812126847E+01  0.21448944869E+01 -0.31372401537E+02  0.31886037038E+02  0.00000000000E+00 0. -1.
         11    1    3    3    0    0  0.19483859169E+02 -0.16629107527E+01  0.16474053362E+02  0.25569131286E+02  0.51100000000E-03 0. -1.
        -11    1    3    3    0    0 -0.10184701283E+02 -0.31436006413E+01  0.22405579998E+02  0.24811698461E+02  0.51100000000E-03 0.  1.
        -12    1    3    3    0    0 -0.40179452012E+01  0.26616169072E+01 -0.75072318229E+01  0.89211332152E+01  0.00000000000E+00 0.  1.
</event>
<event>
 7    1  0.5832130E-012  0.5930196E+02  0.7816164E-02  0.1266605E+00
        -11   -1    0    0    0    0  0.00000000000E+00  0.00000000000E+00  0.45593999997E+02  0.45594000000E+02  0.51100000000E-03 0. -1.
         11   -1    0    0    0    0 -0.00000000000E+00 -0.00000000000E+00 -0.45593999997E+02  0.45594000000E+02  0.51100000000E-03 0.  1.
    9900012    2    1    2    0    0  0.16146174874E+01  0.26443012132E+02 -0.17744848370E+02  0.59301960360E+02  0.50000029787E+02 0.  0.
         12    1    1    2    0    0 -0.16146174874E+01 -0.26443012132E+02  0.17744848370E+02  0.31886039640E+02  0.00000000000E+00 0. -1.
         11    1    3    3    0    0  0.70424632745E+01 -0.37198742377E+01  0.83278891009E+01  0.11523345454E+02  0.51100000000E-03 0. -1.
        -11    1    3    3    0    0 -0.15003698652E+01  0.61238505793E+01 -0.22245835627E+02  0.23122064325E+02  0.51100000000E-03 0.  1.
         12    1    3    3    0    0 -0.39274759218E+01  0.24039035790E+02 -0.38269018439E+01  0.24656550581E+02  0.00000000000E+00 0. -1.
</event>
<event>
 7    1  0.5832130E-012  0.5930195E+02  0.7816164E-02  0.1266605E+00
        -11   -1    0    0    0    0  0.00000000000E+00  0.00000000000E+00  0.45593999997E+02  0.45594000000E+02  0.51100000000E-03 0.  1.
         11   -1    0    0    0    0 -0.00000000000E+00 -0.00000000000E+00 -0.45593999997E+02  0.45594000000E+02  0.51100000000E-03 0. -1.
    9900012    2    1    2    0    0  0.16955416842E+02 -0.26003300027E+01  0.26878844463E+02  0.59301950447E+02  0.50000011707E+02 0.  0.
         12    1    1    2    0    0 -0.16955416842E+02  0.26003300027E+01 -0.26878844463E+02  0.31886049553E+02  0.00000000000E+00 0. -1.
         11    1    3    3    0    0  0.87367271362E-02  0.13458311340E+02  0.12157545073E+02  0.18136485958E+02  0.51100000000E-03 0. -1.
        -11    1    3    3    0    0  0.63622174235E+01 -0.24242756145E+02  0.95867902966E+01  0.26834596783E+02  0.51100000000E-03 0.  1.
         12    1    3    3    0    0  0.10584462692E+02  0.81841148027E+01  0.51345090931E+01  0.14330867706E+02  0.00000000000E+00 0. -1.
</event>
<event>
 7    1  0.5832130E-012  0.5930201E+02  0.7816164E-02  0.1266605E+00
        -11   -1    0    0    0    0  0.00000000000E+00  0.00000000000E+00  0.45593999997E+02  0.45594000000E+02  0.51100000000E-03 0. -1.
         11   -1    0    0    0    0 -0.00000000000E+00 -0.00000000000E+00 -0.45593999997E+02  0.45594000000E+02  0.51100000000E-03 0.  1.
    9900012    2    1    2    0    0 -0.23540436497E+02  0.16372092007E+02 -0.13947011152E+02  0.59302005155E+02  0.50000111481E+02 0.  0.
         12    1    1    2    0    0  0.23540436497E+02 -0.16372092007E+02  0.13947011152E+02  0.31885994845E+02  0.00000000000E+00 0. -1.
         11    1    3    3    0    0  0.93690633444E+00 -0.17101353970E+01 -0.90271768316E+00  0.21487801265E+01  0.51100000000E-03 0. -1.
        -11    1    3    3    0    0 -0.23730778750E+02 -0.10405640059E+02 -0.24462485395E+00  0.25913067103E+02  0.51100000000E-03 0.  1.
         12    1    3    3    0    0 -0.74656408192E+00  0.28487867463E+02 -0.12799668615E+02  0.31240157925E+02  0.00000000000E+00 0. -1.
</event>
<event>
 7    1  0.5832130E-012  0.5930195E+02  0.7816164E-02  0.1266605E+00
        -11   -1    0    0    0    0  0.00000000000E+00  0.00000000000E+00  0.45593999997E+02  0.45594000000E+02  0.51100000000E-03 0.  1.
         11   -1    0    0    0    0 -0.00000000000E+00 -0.00000000000E+00 -0.45593999997E+02  0.45594000000E+02  0.51100000000E-03 0. -1.
    9900012    2    1    2    0    0 -0.95120451958E+01 -0.29795506601E+02  0.62023508683E+01  0.59301947034E+02  0.50000005484E+02 0.  0.
         12    1    1    2    0    0  0.95120451958E+01  0.29795506601E+02 -0.62023508683E+01  0.31886052966E+02  0.00000000000E+00 0. -1.
         11    1    3    3    0    0 -0.10381360874E+02 -0.55227498891E+01  0.90292196608E+01  0.14825661128E+02  0.51100000000E-03 0. -1.
        -11    1    3    3    0    0  0.18113134311E+02 -0.72591106886E+01  0.25005749059E+01  0.19673159321E+02  0.51100000000E-03 0.  1.
         12    1    3    3    0    0 -0.17243818633E+02 -0.17013646023E+02 -0.53274436983E+01  0.24803126585E+02  0.00000000000E+00 0. -1.
</event>
<event>
 7    1  0.5832130E-012  0.5930195E+02  0.7816164E-02  0.1266605E+00
        -11   -1    0    0    0    0  0.00000000000E+00  0.00000000000E+00  0.45593999997E+02  0.45594000000E+02  0.51100000000E-03 0.  1.
         11   -1    0    0    0    0 -0.00000000000E+00 -0.00000000000E+00 -0.45593999997E+02  0.45594000000E+02  0.51100000000E-03 0. -1.
    9900012    2    1    2    0    0 -0.12705993527E+02 -0.18373356513E+02 -0.22752965203E+02  0.59301954046E+02  0.50000018270E+02 0.  0.
         12    1    1    2    0    0  0.12705993527E+02  0.18373356513E+02  0.22752965203E+02  0.31886045954E+02  0.00000000000E+00 0. -1.
         11    1    3    3    0    0 -0.17319858798E+02 -0.65959704441E+00 -0.12816603383E+02  0.21556388834E+02  0.51100000000E-03 0. -1.
        -11    1    3    3    0    0 -0.84574233164E+01 -0.14448241584E+02  0.51529498642E+01  0.17516637422E+02  0.51100000000E-03 0.  1.
        -12    1    3    3    0    0  0.13071288587E+02 -0.32655178851E+01 -0.15089311684E+02  0.20228927789E+02  0.00000000000E+00 0.  1.
</event>
<event>
 7    1  0.5832130E-012  0.5930196E+02  0.7816164E-02  0.1266605E+00
        -11   -1    0    0    0    0  0.00000000000E+00  0.00000000000E+00  0.45593999997E+02  0.45594000000E+02  0.51100000000E-03 0.  1.
         11   -1    0    0    0    0 -0.00000000000E+00 -0.00000000000E+00 -0.45593999997E+02  0.45594000000E+02  0.51100000000E-03 0. -1.
    9900012    2    1    2    0    0 -0.26574147717E+02  0.11915100255E+02 -0.12983247467E+02  0.59301958292E+02  0.50000026015E+02 0.  0.
         12    1    1    2    0    0  0.26574147717E+02 -0.11915100255E+02  0.12983247467E+02  0.31886041708E+02  0.00000000000E+00 0. -1.
         11    1    3    3    0    0 -0.21854392910E+02  0.75676967939E+01 -0.82858255991E+01  0.24567039511E+02  0.51100000000E-03 0. -1.
        -11    1    3    3    0    0 -0.12286156506E+02  0.14507928847E+02  0.39229287033E+01  0.19411826575E+02  0.51100000000E-03 0.  1.
        -12    1    3    3    0    0  0.75664016986E+01 -0.10160525386E+02 -0.86203505712E+01  0.15323092206E+02  0.00000000000E+00 0.  1.
</event>
<event>
 7    1  0.5832130E-012  0.5930192E+02  0.7816164E-02  0.1266605E+00
        -11   -1    0    0    0    0  0.00000000000E+00  0.00000000000E+00  0.45593999997E+02  0.45594000000E+02  0.51100000000E-03 0.  1.
         11   -1    0    0    0    0 -0.00000000000E+00 -0.00000000000E+00 -0.45593999997E+02  0.45594000000E+02  0.51100000000E-03 0. -1.
    9900012    2    1    2    0    0 -0.94718162686E+01  0.64280497843E+01  0.29760494259E+02  0.59301919243E+02  0.49999954799E+02 0.  0.
         12    1    1    2    0    0  0.94718162686E+01 -0.64280497843E+01 -0.29760494259E+02  0.31886080757E+02  0.00000000000E+00 0. -1.
         11    1    3    3    0    0  0.96045351393E+01  0.83404859471E+01 -0.53627661693E+00  0.12731786754E+02  0.51100000000E-03 0. -1.
        -11    1    3    3    0    0  0.14639464952E+01 -0.17334505823E+01 -0.51354405093E+01  0.56143334197E+01  0.51100000000E-03 0.  1.
        -12    1    3    3    0    0 -0.20540297903E+02 -0.17898558049E+00  0.35432211385E+02  0.40955799070E+02  0.00000000000E+00 0.  1.
</event>
<event>
 7    1  0.5832130E-012  0.5930195E+02  0.7816164E-02  0.1266605E+00
        -11   -1    0    0    0    0  0.00000000000E+00  0.00000000000E+00  0.45593999997E+02  0.45594000000E+02  0.51100000000E-03 0.  1.
         11   -1    0    0    0    0 -0.00000000000E+00 -0.00000000000E+00 -0.45593999997E+02  0.45594000000E+02  0.51100000000E-03 0. -1.
    9900012    2    1    2    0    0 -0.20753790308E+02  0.20982240748E+02  0.12072520544E+02  0.59301953033E+02  0.50000016423E+02 0.  0.
         12    1    1    2    0    0  0.20753790308E+02 -0.20982240748E+02 -0.12072520544E+02  0.31886046967E+02  0.00000000000E+00 0. -1.
         11    1    3    3    0    0  0.25261508148E+01 -0.82373796555E+01 -0.24366321968E+01  0.89539398172E+01  0.51100000000E-03 0. -1.
        -11    1    3    3    0    0 -0.20833971434E+02  0.82033612515E+01  0.18219625005E+02  0.28867009494E+02  0.51100000000E-03 0.  1.
        -12    1    3    3    0    0 -0.24459696881E+01  0.21016259152E+02 -0.37104722645E+01  0.21481003721E+02  0.00000000000E+00 0.  1.
</event>
<event>
 7    1  0.5832130E-012  0.5930195E+02  0.7816164E-02  0.1266605E+00
        -11   -1    0    0    0    0  0.00000000000E+00  0.00000000000E+00  0.45593999997E+02  0.45594000000E+02  0.51100000000E-03 0.  1.
         11   -1    0    0    0    0 -0.00000000000E+00 -0.00000000000E+00 -0.45593999997E+02  0.45594000000E+02  0.51100000000E-03 0. -1.
    9900012    2    1    2    0    0  0.31030506379E+01  0.67145085416E+01  0.31016231172E+02  0.59301950632E+02  0.50000012044E+02 0.  0.
         12    1    1    2    0    0 -0.31030506379E+01 -0.67145085416E+01 -0.31016231172E+02  0.31886049368E+02  0.00000000000E+00 0. -1.
         11    1    3    3    0    0 -0.79917748440E+01  0.12502847822E+02  0.21691080791E+02  0.26281032228E+02  0.51100000000E-03 0. -1.
        -11    1    3    3    0    0  0.10812390377E+02  0.83351965020E+01  0.12535513520E+02  0.18534356904E+02  0.51100000000E-03 0.  1.
        -12    1    3    3    0    0  0.28243510527E+00 -0.14123535783E+02 -0.32103631396E+01  0.14486561500E+02  0.00000000000E+00 0.  1.
</event>
<event>
 7    1  0.5832130E-012  0.5930193E+02  0.7816164E-02  0.1266605E+00
        -11   -1    0    0    0    0  0.00000000000E+00  0.00000000000E+00  0.45593999997E+02  0.45594000000E+02  0.51100000000E-03 0.  1.
         11   -1    0    0    0    0 -0.00000000000E+00 -0.00000000000E+00 -0.45593999997E+02  0.45594000000E+02  0.51100000000E-03 0. -1.
    9900012    2    1    2    0    0  0.24611643713E+02 -0.11186171711E+02 -0.16907342017E+02  0.59301926897E+02  0.49999968758E+02 0.  0.
         12    1    1    2    0    0 -0.24611643713E+02  0.11186171711E+02  0.16907342017E+02  0.31886073103E+02  0.00000000000E+00 0. -1.
         11    1    3    3    0    0  0.11330601179E+02 -0.56234405220E+01 -0.15220396328E+02  0.19790555097E+02  0.51100000000E-03 0. -1.
        -11    1    3    3    0    0  0.26084450004E+02 -0.51536177771E+01  0.16292761590E-01  0.26588692596E+02  0.51100000000E-03 0.  1.
        -12    1    3    3    0    0 -0.12803407470E+02 -0.40911341171E+00 -0.17032384502E+01  0.12922679205E+02  0.00000000000E+00 0.  1.
</event>
<event>
 7    1  0.5832130E-012  0.5930193E+02  0.7816164E-02  0.1266605E+00
        -11   -1    0    0    0    0  0.00000000000E+00  0.00000000000E+00  0.45593999997E+02  0.45594000000E+02  0.51100000000E-03 0.  1.
         11   -1    0    0    0    0 -0.00000000000E+00 -0.00000000000E+00 -0.45593999997E+02  0.45594000000E+02  0.51100000000E-03 0. -1.
    9900012    2    1    2    0    0 -0.29573798570E+02  0.84415890024E+01  0.84173144331E+01  0.59301934563E+02  0.49999982739E+02 0.  0.
         12    1    1    2    0    0  0.29573798570E+02 -0.84415890024E+01 -0.84173144331E+01  0.31886065437E+02  0.00000000000E+00 0. -1.
         11    1    3    3    0    0  0.30777894597E+01  0.72806746397E+01 -0.42328901466E+01  0.89665138389E+01  0.51100000000E-03 0. -1.
        -11    1    3    3    0    0  0.41863736330E+01  0.69318229300E+01  0.10121849495E+02  0.12962551091E+02  0.51100000000E-03 0.  1.
        -12    1    3    3    0    0 -0.36837961663E+02 -0.57709085674E+01  0.25283550842E+01  0.37372869633E+02  0.00000000000E+00 0.  1.
</event>
<event>
 7    1  0.5832130E-012  0.5930190E+02  0.7816164E-02  0.1266605E+00
        -11   -1    0    0    0    0  0.00000000000E+00  0.00000000000E+00  0.45593999997E+02  0.45594000000E+02  0.51100000000E-03 0. -1.
         11   -1    0    0    0    0 -0.00000000000E+00 -0.00000000000E+00 -0.45593999997E+02  0.45594000000E+02  0.51100000000E-03 0.  1.
    9900012    2    1    2    0    0  0.13424106704E+01  0.11604945456E+02 -0.29668945086E+02  0.59301903845E+02  0.49999926717E+02 0.  0.
         12    1    1    2    0    0 -0.13424106704E+01 -0.11604945456E+02  0.29668945086E+02  0.31886096155E+02  0.00000000000E+00 0. -1.
         11    1    3    3    0    0  0.14653554517E+01  0.14538632662E+02  0.12271402239E+01  0.14663730073E+02  0.51100000000E-03 0. -1.
        -11    1    3    3    0    0  0.12688885995E+02  0.21784184043E+01 -0.27600976708E+02  0.30455988739E+02  0.51100000000E-03 0.  1.
        -12    1    3    3    0    0 -0.12811830777E+02 -0.51121056102E+01 -0.32951086021E+01  0.14182185033E+02  0.00000000000E+00 0.  1.
</event>
<event>
 7    1  0.5832130E-012  0.5930194E+02  0.7816164E-02  0.1266605E+00
        -11   -1    0    0    0    0  0.00000000000E+00  0.00000000000E+00  0.45593999997E+02  0.45594000000E+02  0.51100000000E-03 0. -1.
         11   -1    0    0    0    0 -0.00000000000E+00 -0.00000000000E+00 -0.45593999997E+02  0.45594000000E+02  0.51100000000E-03 0.  1.
    9900012    2    1    2    0    0 -0.18909346638E+02  0.22738130921E+02 -0.11922033080E+02  0.59301939396E+02  0.49999991554E+02 0.  0.
         12    1    1    2    0    0  0.18909346638E+02 -0.22738130921E+02  0.11922033080E+02  0.31886060604E+02  0.00000000000E+00 0. -1.
         11    1    3    3    0    0 -0.31257731076E+01 -0.11552427094E+02  0.46442927438E+01  0.12837386207E+02  0.51100000000E-03 0. -1.
        -11    1    3    3    0    0  0.71005683998E+00  0.11265387170E+02  0.34260414223E+01  0.11796223501E+02  0.51100000000E-03 0.  1.
        -12    1    3    3    0    0 -0.16493630371E+02  0.23025170845E+02 -0.19992367246E+02  0.34668329688E+02  0.00000000000E+00 0.  1.
</event>
<event>
 7    1  0.5832130E-012  0.5930192E+02  0.7816164E-02  0.1266605E+00
        -11   -1    0    0    0    0  0.00000000000E+00  0.00000000000E+00  0.45593999997E+02  0.45594000000E+02  0.51100000000E-03 0.  1.
         11   -1    0    0    0    0 -0.00000000000E+00 -0.00000000000E+00 -0.45593999997E+02  0.45594000000E+02  0.51100000000E-03 0. -1.
    9900012    2    1    2    0    0 -0.15285376094E+02  0.12764745623E+02  0.24902620290E+02  0.59301922310E+02  0.49999960392E+02 0.  0.
         12    1    1    2    0    0  0.15285376094E+02 -0.12764745623E+02 -0.24902620290E+02  0.31886077690E+02  0.00000000000E+00 0. -1.
         11    1    3    3    0    0 -0.57434181278E+01 -0.34835649593E+01  0.14977530956E+01  0.68822482673E+01  0.51100000000E-03 0. -1.
        -11    1    3    3    0    0 -0.19005694155E+02 -0.81626761626E+01  0.11391050003E+02  0.23613591698E+02  0.51100000000E-03 0.  1.
        -12    1    3    3    0    0  0.94637361890E+01  0.24410986745E+02  0.12013817191E+02  0.28806082344E+02  0.00000000000E+00 0.  1.
</event>
<event>
 7    1  0.5832130E-012  0.5930181E+02  0.7816164E-02  0.1266605E+00
        -11   -1    0    0    0    0  0.00000000000E+00  0.00000000000E+00  0.45593999997E+02  0.45594000000E+02  0.51100000000E-03 0. -1.
         11   -1    0    0    0    0 -0.00000000000E+00 -0.00000000000E+00 -0.45593999997E+02  0.45594000000E+02  0.51100000000E-03 0.  1.
    9900012    2    1    2    0    0 -0.31625165143E+02  0.21749003338E+01 -0.34420339016E+01  0.59301813976E+02  0.49999762816E+02 0.  0.
         12    1    1    2    0    0  0.31625165143E+02 -0.21749003338E+01  0.34420339016E+01  0.31886186024E+02  0.00000000000E+00 0. -1.
         11    1    3    3    0    0 -0.30745134189E-01  0.49706298034E+01  0.53847677975E+01  0.73282897323E+01  0.51100000000E-03 0. -1.
        -11    1    3    3    0    0 -0.30712199358E+02  0.14385678957E+02 -0.73851517537E+01  0.34709183441E+02  0.51100000000E-03 0.  1.
        -12    1    3    3    0    0 -0.88222065102E+00 -0.17181408426E+02 -0.14416499454E+01  0.17264340803E+02  0.00000000000E+00 0.  1.
</event>
<event>
 7    1  0.5832130E-012  0.5930196E+02  0.7816164E-02  0.1266605E+00
        -11   -1    0    0    0    0  0.00000000000E+00  0.00000000000E+00  0.45593999997E+02  0.45594000000E+02  0.51100000000E-03 0. -1.
         11   -1    0    0    0    0 -0.00000000000E+00 -0.00000000000E+00 -0.45593999997E+02  0.45594000000E+02  0.51100000000E-03 0.  1.
    9900012    2    1    2    0    0 -0.23836617301E+02 -0.50652703613E+01 -0.20563998044E+02  0.59301963813E+02  0.50000036083E+02 0.  0.
         12    1    1    2    0    0  0.23836617301E+02  0.50652703613E+01  0.20563998044E+02  0.31886036187E+02  0.00000000000E+00 0. -1.
         11    1    3    3    0    0 -0.21673406403E+02  0.91440517409E+01 -0.55712045176E+01  0.24174129713E+02  0.51100000000E-03 0. -1.
        -11    1    3    3    0    0 -0.12496283396E+02 -0.17691745754E+00 -0.12225790803E+02  0.17483087815E+02  0.51100000000E-03 0.  1.
         12    1    3    3    0    0  0.10333072499E+02 -0.14032404645E+02 -0.27670027233E+01  0.17644746285E+02  0.00000000000E+00 0. -1.
</event>
<event>
 7    1  0.5832130E-012  0.5930198E+02  0.7816164E-02  0.1266605E+00
        -11   -1    0    0    0    0  0.00000000000E+00  0.00000000000E+00  0.45593999997E+02  0.45594000000E+02  0.51100000000E-03 0.  1.
         11   -1    0    0    0    0 -0.00000000000E+00 -0.00000000000E+00 -0.45593999997E+02  0.45594000000E+02  0.51100000000E-03 0. -1.
    9900012    2    1    2    0    0 -0.13094514530E+02  0.21234429444E+02  0.19858271994E+02  0.59301980004E+02  0.50000065613E+02 0.  0.
         12    1    1    2    0    0  0.13094514530E+02 -0.21234429444E+02 -0.19858271994E+02  0.31886019996E+02  0.00000000000E+00 0. -1.
         11    1    3    3    0    0 -0.20714659330E+02  0.15938896898E+02  0.84437427287E+01  0.27467113737E+02  0.51100000000E-03 0. -1.
        -11    1    3    3    0    0 -0.93522443862E+01 -0.30381149856E+01  0.16764015675E+00  0.98347710298E+01  0.51100000000E-03 0.  1.
         12    1    3    3    0    0  0.16972389186E+02  0.83336475318E+01  0.11246889108E+02  0.22000095238E+02  0.00000000000E+00 0. -1.
</event>
<event>
 7    1  0.5832130E-012  0.5930195E+02  0.7816164E-02  0.1266605E+00
        -11   -1    0    0    0    0  0.00000000000E+00  0.00000000000E+00  0.45593999997E+02  0.45594000000E+02  0.51100000000E-03 0. -1.
         11   -1    0    0    0    0 -0.00000000000E+00 -0.00000000000E+00 -0.45593999997E+02  0.45594000000E+02  0.51100000000E-03 0.  1.
    9900012    2    1    2    0    0 -0.22146613928E+02  0.13551196377E+01 -0.22900026302E+02  0.59301951917E+02  0.50000014388E+02 0.  0.
         12    1    1    2    0    0  0.22146613928E+02 -0.13551196377E+01  0.22900026302E+02  0.31886048083E+02  0.00000000000E+00 0. -1.
         11    1    3    3    0    0  0.12820778501E+02  0.11366745181E+01 -0.86189202839E+01  0.15490325285E+02  0.51100000000E-03 0. -1.
        -11    1    3    3    0    0 -0.13781111983E+02 -0.48750432838E+01 -0.16340222219E+02  0.21924597076E+02  0.51100000000E-03 0.  1.
        -12    1    3    3    0    0 -0.21186280446E+02  0.50934884034E+01  0.20591162009E+01  0.21887029556E+02  0.00000000000E+00 0.  1.
</event>
<event>
 7    1  0.5832130E-012  0.5930209E+02  0.7816164E-02  0.1266604E+00
        -11   -1    0    0    0    0  0.00000000000E+00  0.00000000000E+00  0.45593999997E+02  0.45594000000E+02  0.51100000000E-03 0.  1.
         11   -1    0    0    0    0 -0.00000000000E+00 -0.00000000000E+00 -0.45593999997E+02  0.45594000000E+02  0.51100000000E-03 0. -1.
    9900012    2    1    2    0    0  0.68968917777E+01 -0.87340367007E+01  0.29880770209E+02  0.59302094939E+02  0.50000275225E+02 0.  0.
         12    1    1    2    0    0 -0.68968917777E+01  0.87340367007E+01 -0.29880770209E+02  0.31885905061E+02  0.00000000000E+00 0. -1.
         11    1    3    3    0    0 -0.12490402347E+01 -0.10169272943E+02 -0.17910050360E+01  0.10401053456E+02  0.51100000000E-03 0. -1.
        -11    1    3    3    0    0 -0.73370880181E+01  0.17186943933E+01 -0.50339617321E+01  0.90624247298E+01  0.51100000000E-03 0.  1.
         12    1    3    3    0    0  0.15483020030E+02 -0.28345815109E+00  0.36705736977E+02  0.39838616753E+02  0.00000000000E+00 0. -1.
</event>
<event>
 7    1  0.5832130E-012  0.5930194E+02  0.7816164E-02  0.1266605E+00
        -11   -1    0    0    0    0  0.00000000000E+00  0.00000000000E+00  0.45593999997E+02  0.45594000000E+02  0.51100000000E-03 0. -1.
         11   -1    0    0    0    0 -0.00000000000E+00 -0.00000000000E+00 -0.45593999997E+02  0.45594000000E+02  0.51100000000E-03 0.  1.
    9900012    2    1    2    0    0  0.29225841633E+02  0.11826187300E+02 -0.47657515793E+01  0.59301938572E+02  0.49999990051E+02 0.  0.
         12    1    1    2    0    0 -0.29225841633E+02 -0.11826187300E+02  0.47657515793E+01  0.31886061428E+02  0.00000000000E+00 0. -1.
         11    1    3    3    0    0  0.17557778359E+02  0.18669572832E+02  0.83034719080E+01  0.26940233418E+02  0.51100000000E-03 0.  1.
        -11    1    3    3    0    0  0.10319433241E+01  0.96983978075E+01 -0.26537877024E+01  0.10107740424E+02  0.51100000000E-03 0. -1.
        -12    1    3    3    0    0  0.10636119950E+02 -0.16541783339E+02 -0.10415435785E+02  0.22253964730E+02  0.00000000000E+00 0.  1.
</event>
<event>
 7    1  0.5832130E-012  0.5930179E+02  0.7816164E-02  0.1266605E+00
        -11   -1    0    0    0    0  0.00000000000E+00  0.00000000000E+00  0.45593999997E+02  0.45594000000E+02  0.51100000000E-03 0.  1.
         11   -1    0    0    0    0 -0.00000000000E+00 -0.00000000000E+00 -0.45593999997E+02  0.45594000000E+02  0.51100000000E-03 0. -1.
    9900012    2    1    2    0    0  0.28549588773E+02 -0.34596174163E+01  0.13772530937E+02  0.59301786989E+02  0.49999713598E+02 0.  0.
         12    1    1    2    0    0 -0.28549588773E+02  0.34596174163E+01 -0.13772530937E+02  0.31886213011E+02  0.00000000000E+00 0. -1.
         11    1    3    3    0    0  0.28654892995E+02 -0.17333150064E+02  0.11313666455E+02  0.35348833540E+02  0.51100000000E-03 0. -1.
        -11    1    3    3    0    0  0.43909646812E+01  0.10954816072E+01  0.81005964481E+01  0.92790254801E+01  0.51100000000E-03 0.  1.
        -12    1    3    3    0    0 -0.44962689034E+01  0.12778051041E+02 -0.56417319662E+01  0.14673927969E+02  0.00000000000E+00 0.  1.
</event>
<event>
 7    1  0.5832130E-012  0.5930203E+02  0.7816164E-02  0.1266604E+00
        -11   -1    0    0    0    0  0.00000000000E+00  0.00000000000E+00  0.45593999997E+02  0.45594000000E+02  0.51100000000E-03 0.  1.
         11   -1    0    0    0    0 -0.00000000000E+00 -0.00000000000E+00 -0.45593999997E+02  0.45594000000E+02  0.51100000000E-03 0. -1.
    9900012    2    1    2    0    0  0.28032427175E+02 -0.89167039763E+01  0.12304078007E+02  0.59302032573E+02  0.50000161485E+02 0.  0.
         12    1    1    2    0    0 -0.28032427175E+02  0.89167039763E+01 -0.12304078007E+02  0.31885967427E+02  0.00000000000E+00 0. -1.
         11    1    3    3    0    0 -0.11754665475E+02  0.39799601618E+01  0.62845410536E+01  0.13910704506E+02  0.51100000000E-03 0. -1.
        -11    1    3    3    0    0  0.27923657729E+02 -0.96299352594E+00  0.59364557230E+01  0.28563954984E+02  0.51100000000E-03 0.  1.
        -12    1    3    3    0    0  0.11863434922E+02 -0.11933670612E+02  0.83081230728E-01  0.16827373084E+02  0.00000000000E+00 0.  1.
</event>
<event>
 7    1  0.5832130E-012  0.5930192E+02  0.7816164E-02  0.1266605E+00
        -11   -1    0    0    0    0  0.00000000000E+00  0.00000000000E+00  0.45593999997E+02  0.45594000000E+02  0.51100000000E-03 0. -1.
         11   -1    0    0    0    0 -0.00000000000E+00 -0.00000000000E+00 -0.45593999997E+02  0.45594000000E+02  0.51100000000E-03 0.  1.
    9900012    2    1    2    0    0 -0.42447487469E+01  0.32106784506E+01 -0.31438758044E+02  0.59301923801E+02  0.49999963111E+02 0.  0.
         12    1    1    2    0    0  0.42447487469E+01 -0.32106784506E+01  0.31438758044E+02  0.31886076199E+02  0.00000000000E+00 0. -1.
         11    1    3    3    0    0  0.15853354924E+02 -0.14566246276E+01 -0.17618790975E+02  0.23745997838E+02  0.51100000000E-03 0. -1.
        -11    1    3    3    0    0 -0.64172163610E+01 -0.95113471244E+01 -0.10543741449E+02  0.15582582390E+02  0.51100000000E-03 0.  1.
         12    1    3    3    0    0 -0.13680887310E+02  0.14178650203E+02 -0.32762256198E+01  0.19973343573E+02  0.00000000000E+00 0. -1.
</event>
<event>
 7    1  0.5832130E-012  0.5930183E+02  0.7816164E-02  0.1266605E+00
        -11   -1    0    0    0    0  0.00000000000E+00  0.00000000000E+00  0.45593999997E+02  0.45594000000E+02  0.51100000000E-03 0.  1.
         11   -1    0    0    0    0 -0.00000000000E+00 -0.00000000000E+00 -0.45593999997E+02  0.45594000000E+02  0.51100000000E-03 0. -1.
    9900012    2    1    2    0    0  0.30306915431E+02  0.97340326800E+01 -0.18620446528E+01  0.59301831754E+02  0.49999795239E+02 0.  0.
         12    1    1    2    0    0 -0.30306915431E+02 -0.97340326800E+01  0.18620446528E+01  0.31886168246E+02  0.00000000000E+00 0. -1.
         11    1    3    3    0    0  0.19059703813E+02  0.10781592727E+02 -0.74116357264E+01  0.23118118340E+02  0.51100000000E-03 0. -1.
        -11    1    3    3    0    0  0.16217820818E+02 -0.13808791427E+02  0.69784620351E+01  0.22414267006E+02  0.51100000000E-03 0.  1.
         12    1    3    3    0    0 -0.49706092010E+01  0.12761231380E+02 -0.14288709615E+01  0.13769446408E+02  0.00000000000E+00 0. -1.
</event>
<event>
 7    1  0.5832130E-012  0.5930195E+02  0.7816164E-02  0.1266605E+00
        -11   -1    0    0    0    0  0.00000000000E+00  0.00000000000E+00  0.45593999997E+02  0.45594000000E+02  0.51100000000E-03 0.  1.
         11   -1    0    0    0    0 -0.00000000000E+00 -0.00000000000E+00 -0.45593999997E+02  0.45594000000E+02  0.51100000000E-03 0. -1.
    9900012    2    1    2    0    0 -0.12158950585E+02 -0.28581060530E+02  0.72113150932E+01  0.59301950296E+02  0.50000011432E+02 0.  0.
         12    1    1    2    0    0  0.12158950585E+02  0.28581060530E+02 -0.72113150932E+01  0.31886049704E+02  0.00000000000E+00 0. -1.
         11    1    3    3    0    0 -0.59869352544E+01 -0.24402422508E+02  0.12382004139E+02  0.28011348500E+02  0.51100000000E-03 0. -1.
        -11    1    3    3    0    0 -0.12895939201E+02  0.87032948644E+00  0.83361335062E+01  0.15380306999E+02  0.51100000000E-03 0.  1.
         12    1    3    3    0    0  0.67239238705E+01 -0.50489675081E+01 -0.13506822552E+02  0.15910294798E+02  0.00000000000E+00 0. -1.
</event>
<event>
 7    1  0.5832130E-012  0.5930191E+02  0.7816164E-02  0.1266605E+00
        -11   -1    0    0    0    0  0.00000000000E+00  0.00000000000E+00  0.45593999997E+02  0.45594000000E+02  0.51100000000E-03 0. -1.
         11   -1    0    0    0    0 -0.00000000000E+00 -0.00000000000E+00 -0.45593999997E+02  0.45594000000E+02  0.51100000000E-03 0.  1.
    9900012    2    1    2    0    0  0.15962301101E+02  0.73220741745E+01 -0.26614183314E+02  0.59301912436E+02  0.49999942385E+02 0.  0.
         12    1    1    2    0    0 -0.15962301101E+02 -0.73220741745E+01  0.26614183314E+02  0.31886087564E+02  0.00000000000E+00 0. -1.
         11    1    3    3    0    0 -0.38227051593E+01  0.89102459602E+00 -0.24739012798E+01  0.46397400109E+01  0.51100000000E-03 0. -1.
        -11    1    3    3    0    0 -0.14858313426E+01  0.18242624296E+02  0.26259605846E+01  0.18490449028E+02  0.51100000000E-03 0.  1.
        -12    1    3    3    0    0  0.21270837603E+02 -0.11811574718E+02 -0.26766242618E+02  0.36171723398E+02  0.00000000000E+00 0.  1.
</event>
<event>
 7    1  0.5832130E-012  0.5930197E+02  0.7816164E-02  0.1266605E+00
        -11   -1    0    0    0    0  0.00000000000E+00  0.00000000000E+00  0.45593999997E+02  0.45594000000E+02  0.51100000000E-03 0.  1.
         11   -1    0    0    0    0 -0.00000000000E+00 -0.00000000000E+00 -0.45593999997E+02  0.45594000000E+02  0.51100000000E-03 0. -1.
    9900012    2    1    2    0    0  0.20595304167E+02 -0.54975368429E+01  0.23713484267E+02  0.59301971694E+02  0.50000050456E+02 0.  0.
         12    1    1    2    0    0 -0.20595304167E+02  0.54975368429E+01 -0.23713484267E+02  0.31886028306E+02  0.00000000000E+00 0. -1.
         11    1    3    3    0    0  0.74429640727E+01  0.15604604626E+02  0.23810193794E+02  0.29424933789E+02  0.51100000000E-03 0. -1.
        -11    1    3    3    0    0 -0.23347041718E+01  0.46934681910E+00  0.21745918031E+01  0.32248999640E+01  0.51100000000E-03 0.  1.
         12    1    3    3    0    0  0.15487044267E+02 -0.21571488288E+02 -0.22713013300E+01  0.26652137941E+02  0.00000000000E+00 0. -1.
</event>
<event>
 7    1  0.5832130E-012  0.5930191E+02  0.7816164E-02  0.1266605E+00
        -11   -1    0    0    0    0  0.00000000000E+00  0.00000000000E+00  0.45593999997E+02  0.45594000000E+02  0.51100000000E-03 0.  1.
         11   -1    0    0    0    0 -0.00000000000E+00 -0.00000000000E+00 -0.45593999997E+02  0.45594000000E+02  0.51100000000E-03 0. -1.
    9900012    2    1    2    0    0  0.14077678877E+02 -0.27541745346E+02  0.77455777163E+01  0.59301909719E+02  0.49999937429E+02 0.  0.
         12    1    1    2    0    0 -0.14077678877E+02  0.27541745346E+02 -0.77455777163E+01  0.31886090281E+02  0.00000000000E+00 0. -1.
         11    1    3    3    0    0  0.17233752610E+02 -0.11897096439E+01  0.76416478578E+01  0.18889479091E+02  0.51100000000E-03 0. -1.
        -11    1    3    3    0    0 -0.32001061108E+01 -0.11085178252E+02  0.15105976577E+02  0.19008218870E+02  0.51100000000E-03 0.  1.
         12    1    3    3    0    0  0.44032377163E-01 -0.15266857450E+02 -0.15002046719E+02  0.21404211758E+02  0.00000000000E+00 0. -1.
</event>
<event>
 7    1  0.5832130E-012  0.5930194E+02  0.7816164E-02  0.1266605E+00
        -11   -1    0    0    0    0  0.00000000000E+00  0.00000000000E+00  0.45593999997E+02  0.45594000000E+02  0.51100000000E-03 0. -1.
         11   -1    0    0    0    0 -0.00000000000E+00 -0.00000000000E+00 -0.45593999997E+02  0.45594000000E+02  0.51100000000E-03 0.  1.
    9900012    2    1    2    0    0 -0.25133229468E+02  0.19330921721E+02 -0.33699775956E+01  0.59301944944E+02  0.50000001671E+02 0.  0.
         12    1    1    2    0    0  0.25133229468E+02 -0.19330921721E+02  0.33699775956E+01  0.31886055056E+02  0.00000000000E+00 0. -1.
         11    1    3    3    0    0 -0.18855518148E+01 -0.27417572485E+01  0.95839103794E+01  0.10145140555E+02  0.51100000000E-03 0. -1.
        -11    1    3    3    0    0 -0.14854857312E+01  0.12239985826E+02  0.10119299125E+02  0.15950678228E+02  0.51100000000E-03 0.  1.
        -12    1    3    3    0    0 -0.21762191922E+02  0.98326931428E+01 -0.23073187100E+02  0.33206126161E+02  0.00000000000E+00 0.  1.
</event>
<event>
 7    1  0.5832130E-012  0.5930194E+02  0.7816164E-02  0.1266605E+00
        -11   -1    0    0    0    0  0.00000000000E+00  0.00000000000E+00  0.45593999997E+02  0.45594000000E+02  0.51100000000E-03 0.  1.
         11   -1    0    0    0    0 -0.00000000000E+00 -0.00000000000E+00 -0.45593999997E+02  0.45594000000E+02  0.51100000000E-03 0. -1.
    9900012    2    1    2    0    0 -0.17575056813E+02 -0.10354822436E+02  0.24507465386E+02  0.59301939891E+02  0.49999992455E+02 0.  0.
         12    1    1    2    0    0  0.17575056813E+02  0.10354822436E+02 -0.24507465386E+02  0.31886060109E+02  0.00000000000E+00 0. -1.
         11    1    3    3    0    0 -0.16511318794E+02  0.70856708036E+01  0.16896042565E+02  0.24663873047E+02  0.51100000000E-03 0. -1.
        -11    1    3    3    0    0 -0.13877405911E+02 -0.27508049610E+01  0.48214043079E+01  0.14946413032E+02  0.51100000000E-03 0.  1.
         12    1    3    3    0    0  0.12813667892E+02 -0.14689688278E+02  0.27900185134E+01  0.19691653812E+02  0.00000000000E+00 0. -1.
</event>
<event>
 7    1  0.5832130E-012  0.5930194E+02  0.7816164E-02  0.1266605E+00
        -11   -1    0    0    0    0  0.00000000000E+00  0.00000000000E+00  0.45593999997E+02  0.45594000000E+02  0.51100000000E-03 0.  1.
         11   -1    0    0    0    0 -0.00000000000E+00 -0.00000000000E+00 -0.45593999997E+02  0.45594000000E+02  0.51100000000E-03 0. -1.
    9900012    2    1    2    0    0 -0.19441503579E+02  0.19145316313E+02  0.16498663106E+02  0.59301935922E+02  0.49999985217E+02 0.  0.
         12    1    1    2    0    0  0.19441503579E+02 -0.19145316313E+02 -0.16498663106E+02  0.31886064078E+02  0.00000000000E+00 0. -1.
         11    1    3    3    0    0 -0.67809413912E+01 -0.22976144079E+00  0.14375795488E+02  0.15896460381E+02  0.51100000000E-03 0. -1.
        -11    1    3    3    0    0 -0.19931555158E+02  0.19147807130E+02  0.12821491224E+02  0.30467951135E+02  0.51100000000E-03 0.  1.
        -12    1    3    3    0    0  0.72709929703E+01  0.22727062403E+00 -0.10698623606E+02  0.12937524406E+02  0.00000000000E+00 0.  1.
</event>
<event>
 7    1  0.5832130E-012  0.5930186E+02  0.7816164E-02  0.1266605E+00
        -11   -1    0    0    0    0  0.00000000000E+00  0.00000000000E+00  0.45593999997E+02  0.45594000000E+02  0.51100000000E-03 0.  1.
         11   -1    0    0    0    0 -0.00000000000E+00 -0.00000000000E+00 -0.45593999997E+02  0.45594000000E+02  0.51100000000E-03 0. -1.
    9900012    2    1    2    0    0  0.19792577874E+02 -0.23656750883E+02  0.80831914494E+01  0.59301859041E+02  0.49999845005E+02 0.  0.
         12    1    1    2    0    0 -0.19792577874E+02  0.23656750883E+02 -0.80831914494E+01  0.31886140959E+02  0.00000000000E+00 0. -1.
         11    1    3    3    0    0  0.15399598167E+01 -0.59934186082E+01  0.11541380529E+02  0.13095648423E+02  0.51100000000E-03 0. -1.
        -11    1    3    3    0    0  0.10878214721E+02  0.51950769487E+01  0.12502875751E+02  0.17367967133E+02  0.51100000000E-03 0.  1.
         12    1    3    3    0    0  0.73744033356E+01 -0.22858409224E+02 -0.15961064830E+02  0.28838243485E+02  0.00000000000E+00 0. -1.
</event>
<event>
 7    1  0.5832130E-012  0.5930198E+02  0.7816164E-02  0.1266605E+00
        -11   -1    0    0    0    0  0.00000000000E+00  0.00000000000E+00  0.45593999997E+02  0.45594000000E+02  0.51100000000E-03 0.  1.
         11   -1    0    0    0    0 -0.00000000000E+00 -0.00000000000E+00 -0.45593999997E+02  0.45594000000E+02  0.51100000000E-03 0. -1.
    9900012    2    1    2    0    0 -0.94335408379E+01  0.27253061815E+02  0.13601365901E+02  0.59301980722E+02  0.50000066921E+02 0.  0.
         12    1    1    2    0    0  0.94335408379E+01 -0.27253061815E+02 -0.13601365901E+02  0.31886019278E+02  0.00000000000E+00 0. -1.
         11    1    3    3    0    0  0.29420862666E+01  0.51942349086E+01 -0.34846572975E+01  0.69122199493E+01  0.51100000000E-03 0. -1.
        -11    1    3    3    0    0 -0.23599551653E+02  0.89788124240E+01 -0.35550235222E+01  0.25498943179E+02  0.51100000000E-03 0.  1.
         12    1    3    3    0    0  0.11223924548E+02  0.13080014482E+02  0.20641046721E+02  0.26890817594E+02  0.00000000000E+00 0. -1.
</event>
<event>
 7    1  0.5832130E-012  0.5930194E+02  0.7816164E-02  0.1266605E+00
        -11   -1    0    0    0    0  0.00000000000E+00  0.00000000000E+00  0.45593999997E+02  0.45594000000E+02  0.51100000000E-03 0.  1.
         11   -1    0    0    0    0 -0.00000000000E+00 -0.00000000000E+00 -0.45593999997E+02  0.45594000000E+02  0.51100000000E-03 0. -1.
    9900012    2    1    2    0    0 -0.24522067823E+02 -0.50960125147E+01 -0.19733714874E+02  0.59301942599E+02  0.49999997394E+02 0.  0.
         12    1    1    2    0    0  0.24522067823E+02  0.50960125147E+01  0.19733714874E+02  0.31886057401E+02  0.00000000000E+00 0. -1.
         11    1    3    3    0    0 -0.21890156883E+02 -0.33969034869E+01 -0.31702299747E+02  0.38674975516E+02  0.51100000000E-03 0. -1.
        -11    1    3    3    0    0 -0.68621091439E+01 -0.17363407989E+01 -0.84919673448E+00  0.71291343533E+01  0.51100000000E-03 0.  1.
        -12    1    3    3    0    0  0.42301982037E+01  0.37231771149E-01  0.12817781607E+02  0.13497832729E+02  0.00000000000E+00 0.  1.
</event>
<event>
 7    1  0.5832130E-012  0.5930194E+02  0.7816164E-02  0.1266605E+00
        -11   -1    0    0    0    0  0.00000000000E+00  0.00000000000E+00  0.45593999997E+02  0.45594000000E+02  0.51100000000E-03 0. -1.
         11   -1    0    0    0    0 -0.00000000000E+00 -0.00000000000E+00 -0.45593999997E+02  0.45594000000E+02  0.51100000000E-03 0.  1.
    9900012    2    1    2    0    0 -0.44026373802E+01 -0.31050714566E+02 -0.57611456108E+01  0.59301938944E+02  0.49999990728E+02 0.  0.
         12    1    1    2    0    0  0.44026373802E+01  0.31050714566E+02  0.57611456108E+01  0.31886061056E+02  0.00000000000E+00 0. -1.
         11    1    3    3    0    0 -0.68242175307E+01  0.28244561790E+01  0.10237490404E+02  0.12623537842E+02  0.51100000000E-03 0. -1.
        -11    1    3    3    0    0  0.21075041259E+01 -0.22527718322E+02  0.46649614177E+01  0.23101981121E+02  0.51100000000E-03 0.  1.
        -12    1    3    3    0    0  0.31407602468E+00 -0.11347452423E+02 -0.20663597433E+02  0.23576419981E+02  0.00000000000E+00 0.  1.
</event>
<event>
 7    1  0.5832130E-012  0.5930194E+02  0.7816164E-02  0.1266605E+00
        -11   -1    0    0    0    0  0.00000000000E+00  0.00000000000E+00  0.45593999997E+02  0.45594000000E+02  0.51100000000E-03 0.  1.
         11   -1    0    0    0    0 -0.00000000000E+00 -0.00000000000E+00 -0.45593999997E+02  0.45594000000E+02  0.51100000000E-03 0. -1.
    9900012    2    1    2    0    0  0.94639224643E+01  0.27352040219E+02  0.13379867089E+02  0.59301940728E+02  0.49999993982E+02 0.  0.
         12    1    1    2    0    0 -0.94639224643E+01 -0.27352040219E+02 -0.13379867089E+02  0.31886059272E+02  0.00000000000E+00 0. -1.
         11    1    3    3    0    0  0.79162162073E+01  0.12562235053E+02 -0.20470038709E+01  0.14988877666E+02  0.51100000000E-03 0. -1.
        -11    1    3    3    0    0 -0.34100115784E+01  0.27233418796E+02  0.64666507298E+01  0.28197603625E+02  0.51100000000E-03 0.  1.
         12    1    3    3    0    0  0.49577178354E+01 -0.12443613630E+02  0.89602202300E+01  0.16115459437E+02  0.00000000000E+00 0. -1.
</event>
<event>
 7    1  0.5832130E-012  0.5930195E+02  0.7816164E-02  0.1266605E+00
        -11   -1    0    0    0    0  0.00000000000E+00  0.00000000000E+00  0.45593999997E+02  0.45594000000E+02  0.51100000000E-03 0.  1.
         11   -1    0    0    0    0 -0.00000000000E+00 -0.00000000000E+00 -0.45593999997E+02  0.45594000000E+02  0.51100000000E-03 0. -1.
    9900012    2    1    2    0    0  0.28842507411E+02  0.50475303179E+01  0.12623492999E+02  0.59301947068E+02  0.50000005545E+02 0.  0.
         12    1    1    2    0    0 -0.28842507411E+02 -0.50475303179E+01 -0.12623492999E+02  0.31886052932E+02  0.00000000000E+00 0. -1.
         11    1    3    3    0    0  0.20551729737E+02 -0.50279530800E+01 -0.62591536706E+01  0.22064245110E+02  0.51100000000E-03 0. -1.
        -11    1    3    3    0    0  0.50155384185E+00  0.13855555433E+02 -0.25727016365E+01  0.14101303720E+02  0.51100000000E-03 0.  1.
         12    1    3    3    0    0  0.77892238319E+01 -0.37800720354E+01  0.21455348306E+02  0.23136398238E+02  0.00000000000E+00 0. -1.
</event>
<event>
 7    1  0.5832130E-012  0.5930199E+02  0.7816164E-02  0.1266605E+00
        -11   -1    0    0    0    0  0.00000000000E+00  0.00000000000E+00  0.45593999997E+02  0.45594000000E+02  0.51100000000E-03 0.  1.
         11   -1    0    0    0    0 -0.00000000000E+00 -0.00000000000E+00 -0.45593999997E+02  0.45594000000E+02  0.51100000000E-03 0. -1.
    9900012    2    1    2    0    0  0.17985393407E+02 -0.79192135323E+01  0.25110340261E+02  0.59301991987E+02  0.50000087467E+02 0.  0.
         12    1    1    2    0    0 -0.17985393407E+02  0.79192135323E+01 -0.25110340261E+02  0.31886008013E+02  0.00000000000E+00 0. -1.
         11    1    3    3    0    0  0.39743538338E+01  0.11681019417E+02  0.99354933212E+00  0.12378563873E+02  0.51100000000E-03 0. -1.
        -11    1    3    3    0    0 -0.10129140425E+02 -0.10029561752E+02  0.77019045705E+01  0.16202189018E+02  0.51100000000E-03 0.  1.
         12    1    3    3    0    0  0.24140179998E+02 -0.95706711967E+01  0.16414886358E+02  0.30721239097E+02  0.00000000000E+00 0. -1.
</event>
<event>
 7    1  0.5832130E-012  0.5930194E+02  0.7816164E-02  0.1266605E+00
        -11   -1    0    0    0    0  0.00000000000E+00  0.00000000000E+00  0.45593999997E+02  0.45594000000E+02  0.51100000000E-03 0. -1.
         11   -1    0    0    0    0 -0.00000000000E+00 -0.00000000000E+00 -0.45593999997E+02  0.45594000000E+02  0.51100000000E-03 0.  1.
    9900012    2    1    2    0    0 -0.14000143075E+02  0.15484125363E+02 -0.24103081893E+02  0.59301941901E+02  0.49999996121E+02 0.  0.
         12    1    1    2    0    0  0.14000143075E+02 -0.15484125363E+02  0.24103081893E+02  0.31886058099E+02  0.00000000000E+00 0. -1.
         11    1    3    3    0    0 -0.11692422355E+02  0.39679138517E+01 -0.33259395711E+00  0.12351829818E+02  0.51100000000E-03 0. -1.
        -11    1    3    3    0    0 -0.64310992795E+01  0.57342990230E+01  0.95608981720E+01  0.12870586519E+02  0.51100000000E-03 0.  1.
        -12    1    3    3    0    0  0.41233785598E+01  0.57819124880E+01 -0.33331386108E+02  0.34079525564E+02  0.00000000000E+00 0.  1.
</event>
<event>
 7    1  0.5832130E-012  0.5930196E+02  0.7816164E-02  0.1266605E+00
        -11   -1    0    0    0    0  0.00000000000E+00  0.00000000000E+00  0.45593999997E+02  0.45594000000E+02  0.51100000000E-03 0. -1.
         11   -1    0    0    0    0 -0.00000000000E+00 -0.00000000000E+00 -0.45593999997E+02  0.45594000000E+02  0.51100000000E-03 0.  1.
    9900012    2    1    2    0    0 -0.14253414439E+02  0.18147485819E+02 -0.22005191022E+02  0.59301960788E+02  0.50000030566E+02 0.  0.
         12    1    1    2    0    0  0.14253414439E+02 -0.18147485819E+02  0.22005191022E+02  0.31886039212E+02  0.00000000000E+00 0. -1.
         11    1    3    3    0    0  0.81675264908E+01  0.23251783401E+02 -0.70812992379E+01  0.25641737840E+02  0.51100000000E-03 0. -1.
        -11    1    3    3    0    0 -0.35476529203E+01  0.16272356641E+01  0.43590805156E+01  0.58510956540E+01  0.51100000000E-03 0.  1.
        -12    1    3    3    0    0 -0.18873288010E+02 -0.67315332457E+01 -0.19282972300E+02  0.27809127294E+02  0.00000000000E+00 0.  1.
</event>
<event>
 7    1  0.5832130E-012  0.5930196E+02  0.7816164E-02  0.1266605E+00
        -11   -1    0    0    0    0  0.00000000000E+00  0.00000000000E+00  0.45593999997E+02  0.45594000000E+02  0.51100000000E-03 0. -1.
         11   -1    0    0    0    0 -0.00000000000E+00 -0.00000000000E+00 -0.45593999997E+02  0.45594000000E+02  0.51100000000E-03 0.  1.
    9900012    2    1    2    0    0 -0.13877556604E+02  0.26686633130E+02 -0.10580960468E+02  0.59301957764E+02  0.50000025051E+02 0.  0.
         12    1    1    2    0    0  0.13877556604E+02 -0.26686633130E+02  0.10580960468E+02  0.31886042236E+02  0.00000000000E+00 0. -1.
         11    1    3    3    0    0  0.92866984562E+01  0.21919454186E+01  0.84248890644E+01  0.12728949247E+02  0.51100000000E-03 0. -1.
        -11    1    3    3    0    0 -0.11411791720E+01  0.16131062143E+02 -0.16129760699E+02  0.22840372944E+02  0.51100000000E-03 0.  1.
        -12    1    3    3    0    0 -0.22023075888E+02  0.83636255680E+01 -0.28760888328E+01  0.23732635572E+02  0.00000000000E+00 0.  1.
</event>
<event>
 7    1  0.5832130E-012  0.5930193E+02  0.7816164E-02  0.1266605E+00
        -11   -1    0    0    0    0  0.00000000000E+00  0.00000000000E+00  0.45593999997E+02  0.45594000000E+02  0.51100000000E-03 0.  1.
         11   -1    0    0    0    0 -0.00000000000E+00 -0.00000000000E+00 -0.45593999997E+02  0.45594000000E+02  0.51100000000E-03 0. -1.
    9900012    2    1    2    0    0  0.19137368774E+02  0.10614512048E+02  0.23190827279E+02  0.59301933772E+02  0.49999981296E+02 0.  0.
         12    1    1    2    0    0 -0.19137368774E+02 -0.10614512048E+02 -0.23190827279E+02  0.31886066228E+02  0.00000000000E+00 0. -1.
         11    1    3    3    0    0 -0.11948584399E+02  0.24782183226E+01  0.68852076632E+01  0.14011292590E+02  0.51100000000E-03 0. -1.
        -11    1    3    3    0    0  0.78330435293E+01  0.15151735195E+02  0.21851380664E+01  0.17196118137E+02  0.51100000000E-03 0.  1.
        -12    1    3    3    0    0  0.23252909644E+02 -0.70154414698E+01  0.14120481549E+02  0.28094523045E+02  0.00000000000E+00 0.  1.
</event>
<event>
 7    1  0.5832130E-012  0.5930191E+02  0.7816164E-02  0.1266605E+00
        -11   -1    0    0    0    0  0.00000000000E+00  0.00000000000E+00  0.45593999997E+02  0.45594000000E+02  0.51100000000E-03 0.  1.
         11   -1    0    0    0    0 -0.00000000000E+00 -0.00000000000E+00 -0.45593999997E+02  0.45594000000E+02  0.51100000000E-03 0. -1.
    9900012    2    1    2    0    0  0.10298805280E+01  0.16680788814E+02  0.27155353708E+02  0.59301912056E+02  0.49999941692E+02 0.  0.
         12    1    1    2    0    0 -0.10298805280E+01 -0.16680788814E+02 -0.27155353708E+02  0.31886087944E+02  0.00000000000E+00 0. -1.
         11    1    3    3    0    0 -0.52327459293E+01 -0.13589400661E+01 -0.80149907025E+01  0.96679069237E+01  0.51100000000E-03 0. -1.
        -11    1    3    3    0    0 -0.11250371409E+02  0.99016629768E+01  0.20440283166E+02  0.25345985140E+02  0.51100000000E-03 0.  1.
         12    1    3    3    0    0  0.17512997866E+02  0.81380659029E+01  0.14730061244E+02  0.24288019993E+02  0.00000000000E+00 0. -1.
</event>
<event>
 7    1  0.5832130E-012  0.5930194E+02  0.7816164E-02  0.1266605E+00
        -11   -1    0    0    0    0  0.00000000000E+00  0.00000000000E+00  0.45593999997E+02  0.45594000000E+02  0.51100000000E-03 0.  1.
         11   -1    0    0    0    0 -0.00000000000E+00 -0.00000000000E+00 -0.45593999997E+02  0.45594000000E+02  0.51100000000E-03 0. -1.
    9900012    2    1    2    0    0  0.23128139873E+02 -0.10348421134E+02  0.19357688016E+02  0.59301940989E+02  0.49999994457E+02 0.  0.
         12    1    1    2    0    0 -0.23128139873E+02  0.10348421134E+02 -0.19357688016E+02  0.31886059011E+02  0.00000000000E+00 0. -1.
         11    1    3    3    0    0  0.19802398474E+02  0.40967669291E+01  0.12654557675E+02  0.23854901275E+02  0.51100000000E-03 0.  1.
        -11    1    3    3    0    0  0.71673179287E+00  0.41862909593E+01 -0.96350839906E+01  0.10529652427E+02  0.51100000000E-03 0. -1.
        -12    1    3    3    0    0  0.26090096057E+01 -0.18631479022E+02  0.16338214331E+02  0.24917387287E+02  0.00000000000E+00 0.  1.
</event>
<event>
 7    1  0.5832130E-012  0.5930189E+02  0.7816164E-02  0.1266605E+00
        -11   -1    0    0    0    0  0.00000000000E+00  0.00000000000E+00  0.45593999997E+02  0.45594000000E+02  0.51100000000E-03 0. -1.
         11   -1    0    0    0    0 -0.00000000000E+00 -0.00000000000E+00 -0.45593999997E+02  0.45594000000E+02  0.51100000000E-03 0.  1.
    9900012    2    1    2    0    0  0.10373110958E+02 -0.27034974943E+02 -0.13350376170E+02  0.59301892601E+02  0.49999906211E+02 0.  0.
         12    1    1    2    0    0 -0.10373110958E+02  0.27034974943E+02  0.13350376170E+02  0.31886107399E+02  0.00000000000E+00 0. -1.
         11    1    3    3    0    0  0.23715825632E+02 -0.14118835831E+02 -0.44269804942E+01  0.27953176334E+02  0.51100000000E-03 0. -1.
        -11    1    3    3    0    0 -0.67063811708E+01  0.65947245070E+01 -0.20728783582E+01  0.96313428285E+01  0.51100000000E-03 0.  1.
        -12    1    3    3    0    0 -0.66363335031E+01 -0.19510863620E+02 -0.68505173181E+01  0.21717373439E+02  0.00000000000E+00 0.  1.
</event>
<event>
 7    1  0.5832130E-012  0.5930192E+02  0.7816164E-02  0.1266605E+00
        -11   -1    0    0    0    0  0.00000000000E+00  0.00000000000E+00  0.45593999997E+02  0.45594000000E+02  0.51100000000E-03 0.  1.
         11   -1    0    0    0    0 -0.00000000000E+00 -0.00000000000E+00 -0.45593999997E+02  0.45594000000E+02  0.51100000000E-03 0. -1.
    9900012    2    1    2    0    0  0.80481457992E+01 -0.87205244423E+01  0.29595639065E+02  0.59301920764E+02  0.49999957573E+02 0.  0.
         12    1    1    2    0    0 -0.80481457992E+01  0.87205244423E+01 -0.29595639065E+02  0.31886079236E+02  0.00000000000E+00 0. -1.
         11    1    3    3    0    0  0.50463489866E+01  0.28286360073E+01  0.87501492959E+00  0.58508521725E+01  0.51100000000E-03 0. -1.
        -11    1    3    3    0    0  0.13472669898E+02  0.56905730184E+01 -0.38655263068E+01  0.15127384088E+02  0.51100000000E-03 0.  1.
        -12    1    3    3    0    0 -0.10470873086E+02 -0.17239733468E+02  0.32586150443E+02  0.38323684503E+02  0.00000000000E+00 0.  1.
</event>
<event>
 7    1  0.5832130E-012  0.5930196E+02  0.7816164E-02  0.1266605E+00
        -11   -1    0    0    0    0  0.00000000000E+00  0.00000000000E+00  0.45593999997E+02  0.45594000000E+02  0.51100000000E-03 0. -1.
         11   -1    0    0    0    0 -0.00000000000E+00 -0.00000000000E+00 -0.45593999997E+02  0.45594000000E+02  0.51100000000E-03 0.  1.
    9900012    2    1    2    0    0  0.30419564684E+02  0.59890558475E+01 -0.74498760320E+01  0.59301962955E+02  0.50000034519E+02 0.  0.
         12    1    1    2    0    0 -0.30419564684E+02 -0.59890558475E+01  0.74498760320E+01  0.31886037045E+02  0.00000000000E+00 0. -1.
         11    1    3    3    0    0 -0.98500821904E+01  0.40175737655E+01  0.56880131467E+01  0.12063105402E+02  0.51100000000E-03 0. -1.
        -11    1    3    3    0    0  0.28333996924E+02  0.97877670262E+01 -0.38700095262E+01  0.30225696667E+02  0.51100000000E-03 0.  1.
        -12    1    3    3    0    0  0.11935649951E+02 -0.78162849442E+01 -0.92678796525E+01  0.17013160886E+02  0.00000000000E+00 0.  1.
</event>
<event>
 7    1  0.5832130E-012  0.5930195E+02  0.7816164E-02  0.1266605E+00
        -11   -1    0    0    0    0  0.00000000000E+00  0.00000000000E+00  0.45593999997E+02  0.45594000000E+02  0.51100000000E-03 0. -1.
         11   -1    0    0    0    0 -0.00000000000E+00 -0.00000000000E+00 -0.45593999997E+02  0.45594000000E+02  0.51100000000E-03 0.  1.
    9900012    2    1    2    0    0  0.29942575088E+02  0.10387081247E+02 -0.35030081563E+01  0.59301947785E+02  0.50000006852E+02 0.  0.
         12    1    1    2    0    0 -0.29942575088E+02 -0.10387081247E+02  0.35030081563E+01  0.31886052215E+02  0.00000000000E+00 0. -1.
         11    1    3    3    0    0  0.14849055764E+02  0.58585268862E+01  0.82869945271E+00  0.15984478015E+02  0.51100000000E-03 0. -1.
        -11    1    3    3    0    0  0.14822526451E+02  0.20649297998E+02 -0.82524286592E+01  0.26724583761E+02  0.51100000000E-03 0.  1.
         12    1    3    3    0    0  0.27099287318E+00 -0.16120743637E+02  0.39207210502E+01  0.16592886009E+02  0.00000000000E+00 0. -1.
</event>
<event>
 7    1  0.5832130E-012  0.5930194E+02  0.7816164E-02  0.1266605E+00
        -11   -1    0    0    0    0  0.00000000000E+00  0.00000000000E+00  0.45593999997E+02  0.45594000000E+02  0.51100000000E-03 0.  1.
         11   -1    0    0    0    0 -0.00000000000E+00 -0.00000000000E+00 -0.45593999997E+02  0.45594000000E+02  0.51100000000E-03 0. -1.
    9900012    2    1    2    0    0  0.82194785171E+00 -0.17007172750E+02  0.26959257884E+02  0.59301935506E+02  0.49999984459E+02 0.  0.
         12    1    1    2    0    0 -0.82194785171E+00  0.17007172750E+02 -0.26959257884E+02  0.31886064494E+02  0.00000000000E+00 0. -1.
         11    1    3    3    0    0  0.57662055187E+01 -0.11141026001E+02 -0.28006331803E+01  0.12853603888E+02  0.51100000000E-03 0.  1.
        -11    1    3    3    0    0 -0.66193715313E+01 -0.20033911800E+02  0.14773159013E+02  0.25756939433E+02  0.51100000000E-03 0. -1.
         12    1    3    3    0    0  0.16751138643E+01  0.14167765050E+02  0.14986732052E+02  0.20691392185E+02  0.00000000000E+00 0. -1.
</event>
<event>
 7    1  0.5832130E-012  0.5930196E+02  0.7816164E-02  0.1266605E+00
        -11   -1    0    0    0    0  0.00000000000E+00  0.00000000000E+00  0.45593999997E+02  0.45594000000E+02  0.51100000000E-03 0. -1.
         11   -1    0    0    0    0 -0.00000000000E+00 -0.00000000000E+00 -0.45593999997E+02  0.45594000000E+02  0.51100000000E-03 0.  1.
    9900012    2    1    2    0    0  0.99384001730E+00  0.15515011664E+02 -0.27839118996E+02  0.59301955225E+02  0.50000020421E+02 0.  0.
         12    1    1    2    0    0 -0.99384001730E+00 -0.15515011664E+02  0.27839118996E+02  0.31886044775E+02  0.00000000000E+00 0. -1.
         11    1    3    3    0    0 -0.15550484583E+02  0.33246204712E+01 -0.10710610122E+02  0.19172580460E+02  0.51100000000E-03 0.  1.
        -11    1    3    3    0    0 -0.23431492184E+00 -0.65433448999E+01 -0.13119749238E+02  0.14662813041E+02  0.51100000000E-03 0. -1.
        -12    1    3    3    0    0  0.16778639523E+02  0.18733736092E+02 -0.40087596363E+01  0.25466561724E+02  0.00000000000E+00 0.  1.
</event>
<event>
 7    1  0.5832130E-012  0.5930200E+02  0.7816164E-02  0.1266605E+00
        -11   -1    0    0    0    0  0.00000000000E+00  0.00000000000E+00  0.45593999997E+02  0.45594000000E+02  0.51100000000E-03 0.  1.
         11   -1    0    0    0    0 -0.00000000000E+00 -0.00000000000E+00 -0.45593999997E+02  0.45594000000E+02  0.51100000000E-03 0. -1.
    9900012    2    1    2    0    0  0.13793710143E+02  0.89988754244E+01  0.27303316509E+02  0.59301995377E+02  0.50000093649E+02 0.  0.
         12    1    1    2    0    0 -0.13793710143E+02 -0.89988754244E+01 -0.27303316509E+02  0.31886004623E+02  0.00000000000E+00 0. -1.
         11    1    3    3    0    0  0.33007259218E+01  0.13323017343E+02 -0.42163332113E+01  0.14358796911E+02  0.51100000000E-03 0. -1.
        -11    1    3    3    0    0 -0.61614621934E+01 -0.82284660046E+01  0.14953601792E+01  0.10387847298E+02  0.51100000000E-03 0.  1.
         12    1    3    3    0    0  0.16654446414E+02  0.39043240862E+01  0.30024289541E+02  0.34555351169E+02  0.00000000000E+00 0. -1.
</event>
<event>
 7    1  0.5832130E-012  0.5930194E+02  0.7816164E-02  0.1266605E+00
        -11   -1    0    0    0    0  0.00000000000E+00  0.00000000000E+00  0.45593999997E+02  0.45594000000E+02  0.51100000000E-03 0.  1.
         11   -1    0    0    0    0 -0.00000000000E+00 -0.00000000000E+00 -0.45593999997E+02  0.45594000000E+02  0.51100000000E-03 0. -1.
    9900012    2    1    2    0    0 -0.74181640536E+01 -0.76403451211E+01  0.30055229628E+02  0.59301939417E+02  0.49999991592E+02 0.  0.
         12    1    1    2    0    0  0.74181640536E+01  0.76403451211E+01 -0.30055229628E+02  0.31886060583E+02  0.00000000000E+00 0. -1.
         11    1    3    3    0    0  0.38346877125E+01 -0.13657384739E+02  0.68656580843E+01  0.15759639874E+02  0.51100000000E-03 0. -1.
        -11    1    3    3    0    0  0.23788388761E+01 -0.90708839617E+01  0.21113862802E+02  0.23102705749E+02  0.51100000000E-03 0.  1.
        -12    1    3    3    0    0 -0.13631690642E+02  0.15087923580E+02  0.20757087421E+01  0.20439593795E+02  0.00000000000E+00 0.  1.
</event>
<event>
 7    1  0.5832130E-012  0.5930195E+02  0.7816164E-02  0.1266605E+00
        -11   -1    0    0    0    0  0.00000000000E+00  0.00000000000E+00  0.45593999997E+02  0.45594000000E+02  0.51100000000E-03 0.  1.
         11   -1    0    0    0    0 -0.00000000000E+00 -0.00000000000E+00 -0.45593999997E+02  0.45594000000E+02  0.51100000000E-03 0. -1.
    9900012    2    1    2    0    0  0.23237849146E+02 -0.18580541488E+02  0.11466741022E+02  0.59301948119E+02  0.50000007461E+02 0.  0.
         12    1    1    2    0    0 -0.23237849146E+02  0.18580541488E+02 -0.11466741022E+02  0.31886051881E+02  0.00000000000E+00 0. -1.
         11    1    3    3    0    0  0.16247355291E+01 -0.85213535812E+01  0.11426899247E+02  0.14346681116E+02  0.51100000000E-03 0. -1.
        -11    1    3    3    0    0  0.24592881916E+02 -0.18977428349E+02  0.86078143466E+01  0.32234253454E+02  0.51100000000E-03 0.  1.
         12    1    3    3    0    0 -0.29797682994E+01  0.89182404419E+01 -0.85679725719E+01  0.12721013548E+02  0.00000000000E+00 0. -1.
</event>
<event>
 7    1  0.5832130E-012  0.5930202E+02  0.7816164E-02  0.1266605E+00
        -11   -1    0    0    0    0  0.00000000000E+00  0.00000000000E+00  0.45593999997E+02  0.45594000000E+02  0.51100000000E-03 0.  1.
         11   -1    0    0    0    0 -0.00000000000E+00 -0.00000000000E+00 -0.45593999997E+02  0.45594000000E+02  0.51100000000E-03 0. -1.
    9900012    2    1    2    0    0  0.27932194482E+02  0.55604424841E+01  0.14338404392E+02  0.59302017975E+02  0.50000134862E+02 0.  0.
         12    1    1    2    0    0 -0.27932194482E+02 -0.55604424841E+01 -0.14338404392E+02  0.31885982025E+02  0.00000000000E+00 0. -1.
         11    1    3    3    0    0 -0.82719739067E+01  0.31456426665E+01 -0.48107387929E+00  0.88629595755E+01  0.51100000000E-03 0. -1.
        -11    1    3    3    0    0  0.37053110837E+01  0.12792538463E+02  0.19171056367E+00  0.13319726865E+02  0.51100000000E-03 0.  1.
        -12    1    3    3    0    0  0.32498857305E+02 -0.10377738645E+02  0.14627767708E+02  0.37119331535E+02  0.00000000000E+00 0.  1.
</event>
<event>
 7    1  0.5832130E-012  0.5930192E+02  0.7816164E-02  0.1266605E+00
        -11   -1    0    0    0    0  0.00000000000E+00  0.00000000000E+00  0.45593999997E+02  0.45594000000E+02  0.51100000000E-03 0.  1.
         11   -1    0    0    0    0 -0.00000000000E+00 -0.00000000000E+00 -0.45593999997E+02  0.45594000000E+02  0.51100000000E-03 0. -1.
    9900012    2    1    2    0    0  0.28119282060E+02  0.89421482633E+01  0.12085768732E+02  0.59301923964E+02  0.49999963408E+02 0.  0.
         12    1    1    2    0    0 -0.28119282060E+02 -0.89421482633E+01 -0.12085768732E+02  0.31886076036E+02  0.00000000000E+00 0. -1.
         11    1    3    3    0    0 -0.69336117229E+01  0.44537175169E+01  0.65035501001E+01  0.10497939579E+02  0.51100000000E-03 0. -1.
        -11    1    3    3    0    0  0.19327855318E+01 -0.11178402546E+02  0.43343250325E+01  0.12144081569E+02  0.51100000000E-03 0.  1.
         12    1    3    3    0    0  0.33120108251E+02  0.15666833293E+02  0.12478935990E+01  0.36659902816E+02  0.00000000000E+00 0. -1.
</event>
<event>
 7    1  0.6292605E-012  0.5930194E+02  0.7816164E-02  0.1266605E+00
        -11   -1    0    0    0    0  0.00000000000E+00  0.00000000000E+00  0.45593999997E+02  0.45594000000E+02  0.51100000000E-03 0.  1.
         11   -1    0    0    0    0 -0.00000000000E+00 -0.00000000000E+00 -0.45593999997E+02  0.45594000000E+02  0.51100000000E-03 0. -1.
    9900012    2    1    2    0    0  0.28765063011E+01 -0.31721853958E+02 -0.14732454683E+01  0.59301940989E+02  0.49999994458E+02 0.  0.
         12    1    1    2    0    0 -0.28765063011E+01  0.31721853958E+02  0.14732454683E+01  0.31886059011E+02  0.00000000000E+00 0. -1.
         11    1    3    3    0    0 -0.68792795440E+01 -0.21626742293E+02  0.66141090987E+01  0.23638674005E+02  0.51100000000E-03 0. -1.
        -11    1    3    3    0    0  0.19640959921E+02 -0.13504701367E+02 -0.29653723528E+01  0.24019527454E+02  0.51100000000E-03 0.  1.
         12    1    3    3    0    0 -0.98851740763E+01  0.34095897020E+01 -0.51219822142E+01  0.11643739531E+02  0.00000000000E+00 0. -1.
</event>
<event>
 7    1  0.5832130E-012  0.5930196E+02  0.7816164E-02  0.1266605E+00
        -11   -1    0    0    0    0  0.00000000000E+00  0.00000000000E+00  0.45593999997E+02  0.45594000000E+02  0.51100000000E-03 0.  1.
         11   -1    0    0    0    0 -0.00000000000E+00 -0.00000000000E+00 -0.45593999997E+02  0.45594000000E+02  0.51100000000E-03 0. -1.
    9900012    2    1    2    0    0  0.78753493746E+01  0.30190712469E+02 -0.65741470427E+01  0.59301958281E+02  0.50000025995E+02 0.  0.
         12    1    1    2    0    0 -0.78753493746E+01 -0.30190712469E+02  0.65741470427E+01  0.31886041719E+02  0.00000000000E+00 0. -1.
         11    1    3    3    0    0  0.10980270948E+01 -0.28106333576E+01 -0.38243899228E+01  0.48714763588E+01  0.51100000000E-03 0. -1.
        -11    1    3    3    0    0 -0.15482108100E+02  0.26182634898E+02  0.26478167937E+01  0.30532555993E+02  0.51100000000E-03 0.  1.
         12    1    3    3    0    0  0.22259430380E+02  0.68187109289E+01 -0.53975739136E+01  0.23897925929E+02  0.00000000000E+00 0. -1.
</event>
<event>
 7    1  0.5832130E-012  0.5930194E+02  0.7816164E-02  0.1266605E+00
        -11   -1    0    0    0    0  0.00000000000E+00  0.00000000000E+00  0.45593999997E+02  0.45594000000E+02  0.51100000000E-03 0.  1.
         11   -1    0    0    0    0 -0.00000000000E+00 -0.00000000000E+00 -0.45593999997E+02  0.45594000000E+02  0.51100000000E-03 0. -1.
    9900012    2    1    2    0    0  0.28182670179E+02 -0.14914325705E+02  0.14471127775E+00  0.59301937982E+02  0.49999988974E+02 0.  0.
         12    1    1    2    0    0 -0.28182670179E+02  0.14914325705E+02 -0.14471127775E+00  0.31886062018E+02  0.00000000000E+00 0. -1.
         11    1    3    3    0    0 -0.13946402265E+01  0.18549106365E+00 -0.55191761969E+01  0.56956768211E+01  0.51100000000E-03 0. -1.
        -11    1    3    3    0    0  0.10124261672E+02 -0.26028663313E+02  0.12021003909E+02  0.30405534422E+02  0.51100000000E-03 0.  1.
         12    1    3    3    0    0  0.19453048734E+02  0.10928846544E+02 -0.63571164342E+01  0.23200726739E+02  0.00000000000E+00 0. -1.
</event>
<event>
 7    1  0.5832130E-012  0.5930197E+02  0.7816164E-02  0.1266605E+00
        -11   -1    0    0    0    0  0.00000000000E+00  0.00000000000E+00  0.45593999997E+02  0.45594000000E+02  0.51100000000E-03 0. -1.
         11   -1    0    0    0    0 -0.00000000000E+00 -0.00000000000E+00 -0.45593999997E+02  0.45594000000E+02  0.51100000000E-03 0.  1.
    9900012    2    1    2    0    0  0.15948892033E+02 -0.19613483291E+02 -0.19433561656E+02  0.59301965400E+02  0.50000038977E+02 0.  0.
         12    1    1    2    0    0 -0.15948892033E+02  0.19613483291E+02  0.19433561656E+02  0.31886034600E+02  0.00000000000E+00 0. -1.
         11    1    3    3    0    0 -0.55698766622E+01  0.10165477277E+01 -0.16418904097E+02  0.17367708753E+02  0.51100000000E-03 0. -1.
        -11    1    3    3    0    0 -0.65606153049E+01 -0.30377414321E+01 -0.49188450310E+01  0.87444029463E+01  0.51100000000E-03 0.  1.
         12    1    3    3    0    0  0.28079384000E+02 -0.17592289587E+02  0.19041874718E+01  0.33189853700E+02  0.00000000000E+00 0. -1.
</event>
<event>
 7    1  0.5832130E-012  0.5930195E+02  0.7816164E-02  0.1266605E+00
        -11   -1    0    0    0    0  0.00000000000E+00  0.00000000000E+00  0.45593999997E+02  0.45594000000E+02  0.51100000000E-03 0. -1.
         11   -1    0    0    0    0 -0.00000000000E+00 -0.00000000000E+00 -0.45593999997E+02  0.45594000000E+02  0.51100000000E-03 0.  1.
    9900012    2    1    2    0    0 -0.27020891706E+02  0.13304468889E+02 -0.10468179064E+02  0.59301948913E+02  0.50000008910E+02 0.  0.
         12    1    1    2    0    0  0.27020891706E+02 -0.13304468889E+02  0.10468179064E+02  0.31886051087E+02  0.00000000000E+00 0. -1.
         11    1    3    3    0    0 -0.65594767577E+01  0.15483635712E+02 -0.41172529228E+01  0.17312466089E+02  0.51100000000E-03 0. -1.
        -11    1    3    3    0    0 -0.16075739535E+02  0.12976806373E+02 -0.13487632740E+02  0.24672720613E+02  0.51100000000E-03 0.  1.
         12    1    3    3    0    0 -0.43856754135E+01 -0.15155973197E+02  0.71367065993E+01  0.17316762211E+02  0.00000000000E+00 0. -1.
</event>
<event>
 7    1  0.5832130E-012  0.5930194E+02  0.7816164E-02  0.1266605E+00
        -11   -1    0    0    0    0  0.00000000000E+00  0.00000000000E+00  0.45593999997E+02  0.45594000000E+02  0.51100000000E-03 0. -1.
         11   -1    0    0    0    0 -0.00000000000E+00 -0.00000000000E+00 -0.45593999997E+02  0.45594000000E+02  0.51100000000E-03 0.  1.
    9900012    2    1    2    0    0  0.28080887055E+02  0.23308240534E+01 -0.14924864981E+02  0.59301944219E+02  0.50000000349E+02 0.  0.
         12    1    1    2    0    0 -0.28080887055E+02 -0.23308240534E+01  0.14924864981E+02  0.31886055781E+02  0.00000000000E+00 0. -1.
         11    1    3    3    0    0 -0.50630534483E+01 -0.43718691003E+01 -0.10756480161E+02  0.12666870781E+02  0.51100000000E-03 0. -1.
        -11    1    3    3    0    0  0.20600548388E+02  0.36679524172E+01 -0.18084104359E+02  0.27656306687E+02  0.51100000000E-03 0.  1.
         12    1    3    3    0    0  0.12543392115E+02  0.30347407366E+01  0.13915719540E+02  0.18978766751E+02  0.00000000000E+00 0. -1.
</event>
<event>
 7    1  0.5832130E-012  0.5930193E+02  0.7816164E-02  0.1266605E+00
        -11   -1    0    0    0    0  0.00000000000E+00  0.00000000000E+00  0.45593999997E+02  0.45594000000E+02  0.51100000000E-03 0.  1.
         11   -1    0    0    0    0 -0.00000000000E+00 -0.00000000000E+00 -0.45593999997E+02  0.45594000000E+02  0.51100000000E-03 0. -1.
    9900012    2    1    2    0    0 -0.15146791199E+02 -0.15642624723E+02  0.23293867104E+02  0.59301933505E+02  0.49999980810E+02 0.  0.
         12    1    1    2    0    0  0.15146791199E+02  0.15642624723E+02 -0.23293867104E+02  0.31886066495E+02  0.00000000000E+00 0. -1.
         11    1    3    3    0    0  0.70150092506E+01 -0.16905178958E+01  0.15309972271E+02  0.16925231365E+02  0.51100000000E-03 0. -1.
        -11    1    3    3    0    0 -0.83841231660E+01 -0.17338286805E+02  0.16897772189E+02  0.25621171242E+02  0.51100000000E-03 0.  1.
         12    1    3    3    0    0 -0.13777677283E+02  0.33861799772E+01 -0.89138773570E+01  0.16755530899E+02  0.00000000000E+00 0. -1.
</event>
<event>
 7    1  0.5832130E-012  0.5930195E+02  0.7816164E-02  0.1266605E+00
        -11   -1    0    0    0    0  0.00000000000E+00  0.00000000000E+00  0.45593999997E+02  0.45594000000E+02  0.51100000000E-03 0.  1.
         11   -1    0    0    0    0 -0.00000000000E+00 -0.00000000000E+00 -0.45593999997E+02  0.45594000000E+02  0.51100000000E-03 0. -1.
    9900012    2    1    2    0    0  0.87889383645E+01  0.23790200106E+02  0.19326171638E+02  0.59301953383E+02  0.50000017062E+02 0.  0.
         12    1    1    2    0    0 -0.87889383645E+01 -0.23790200106E+02 -0.19326171638E+02  0.31886046617E+02  0.00000000000E+00 0. -1.
         11    1    3    3    0    0  0.51563146423E+01 -0.70472281320E+00  0.28374397331E+00  0.52119790711E+01  0.51100000000E-03 0. -1.
        -11    1    3    3    0    0  0.12887018835E+02  0.74272839862E+01  0.28760034097E+02  0.32378686870E+02  0.51100000000E-03 0.  1.
         12    1    3    3    0    0 -0.92543951125E+01  0.17067638933E+02 -0.97176064324E+01  0.21711287443E+02  0.00000000000E+00 0. -1.
</event>
<event>
 7    1  0.5832130E-012  0.5930198E+02  0.7816164E-02  0.1266605E+00
        -11   -1    0    0    0    0  0.00000000000E+00  0.00000000000E+00  0.45593999997E+02  0.45594000000E+02  0.51100000000E-03 0.  1.
         11   -1    0    0    0    0 -0.00000000000E+00 -0.00000000000E+00 -0.45593999997E+02  0.45594000000E+02  0.51100000000E-03 0. -1.
    9900012    2    1    2    0    0 -0.30435113948E+02 -0.49842715070E+01 -0.80980967111E+01  0.59301979649E+02  0.50000064964E+02 0.  0.
         12    1    1    2    0    0  0.30435113948E+02  0.49842715070E+01  0.80980967111E+01  0.31886020351E+02  0.00000000000E+00 0. -1.
         11    1    3    3    0    0  0.11045304894E+02  0.91732460152E+00 -0.82408501197E+01  0.13811294493E+02  0.51100000000E-03 0. -1.
        -11    1    3    3    0    0 -0.20885974748E+02  0.49738422914E+01  0.41259478323E+01  0.21862902234E+02  0.51100000000E-03 0.  1.
        -12    1    3    3    0    0 -0.20594444095E+02 -0.10875438400E+02 -0.39831944237E+01  0.23627782922E+02  0.00000000000E+00 0.  1.
</event>
<event>
 7    1  0.5832130E-012  0.5930193E+02  0.7816164E-02  0.1266605E+00
        -11   -1    0    0    0    0  0.00000000000E+00  0.00000000000E+00  0.45593999997E+02  0.45594000000E+02  0.51100000000E-03 0.  1.
         11   -1    0    0    0    0 -0.00000000000E+00 -0.00000000000E+00 -0.45593999997E+02  0.45594000000E+02  0.51100000000E-03 0. -1.
    9900012    2    1    2    0    0 -0.17532399731E+02 -0.43192577262E+01  0.26280804986E+02  0.59301925636E+02  0.49999966458E+02 0.  0.
         12    1    1    2    0    0  0.17532399731E+02  0.43192577262E+01 -0.26280804986E+02  0.31886074364E+02  0.00000000000E+00 0. -1.
         11    1    3    3    0    0 -0.23587693855E+01 -0.87384724549E+01 -0.10591063816E+02  0.13931809893E+02  0.51100000000E-03 0. -1.
        -11    1    3    3    0    0  0.16881813182E+01  0.80681932090E+01  0.67349987662E+01  0.10644524718E+02  0.51100000000E-03 0.  1.
        -12    1    3    3    0    0 -0.16861811663E+02 -0.36489784803E+01  0.30136870036E+02  0.34725591026E+02  0.00000000000E+00 0.  1.
</event>
<event>
 7    1  0.5832130E-012  0.5930196E+02  0.7816164E-02  0.1266605E+00
        -11   -1    0    0    0    0  0.00000000000E+00  0.00000000000E+00  0.45593999997E+02  0.45594000000E+02  0.51100000000E-03 0. -1.
         11   -1    0    0    0    0 -0.00000000000E+00 -0.00000000000E+00 -0.45593999997E+02  0.45594000000E+02  0.51100000000E-03 0.  1.
    9900012    2    1    2    0    0 -0.25028376526E+02 -0.14347317494E+02 -0.13581397600E+02  0.59301960554E+02  0.50000030140E+02 0.  0.
         12    1    1    2    0    0  0.25028376526E+02  0.14347317494E+02  0.13581397600E+02  0.31886039446E+02  0.00000000000E+00 0. -1.
         11    1    3    3    0    0  0.38264428867E+01 -0.80967769744E+01  0.76729519476E+01  0.11792949351E+02  0.51100000000E-03 0. -1.
        -11    1    3    3    0    0 -0.16506520976E+02  0.47756991554E+01  0.36860346157E+01  0.17574395824E+02  0.51100000000E-03 0.  1.
         12    1    3    3    0    0 -0.12348298437E+02 -0.11026239675E+02 -0.24940384163E+02  0.29934615379E+02  0.00000000000E+00 0. -1.
</event>
<event>
 7    1  0.5832130E-012  0.5930205E+02  0.7816164E-02  0.1266604E+00
        -11   -1    0    0    0    0  0.00000000000E+00  0.00000000000E+00  0.45593999997E+02  0.45594000000E+02  0.51100000000E-03 0. -1.
         11   -1    0    0    0    0 -0.00000000000E+00 -0.00000000000E+00 -0.45593999997E+02  0.45594000000E+02  0.51100000000E-03 0.  1.
    9900012    2    1    2    0    0 -0.19870021431E+02 -0.14114900520E+02 -0.20558835674E+02  0.59302048663E+02  0.50000190830E+02 0.  0.
         12    1    1    2    0    0  0.19870021431E+02  0.14114900520E+02  0.20558835674E+02  0.31885951337E+02  0.00000000000E+00 0. -1.
         11    1    3    3    0    0 -0.30311720095E+01 -0.96386794133E+01 -0.13667994490E+02  0.16997241489E+02  0.51100000000E-03 0. -1.
        -11    1    3    3    0    0 -0.21812828420E+02 -0.99736755404E+01 -0.17265957018E+02  0.29553120977E+02  0.51100000000E-03 0.  1.
         12    1    3    3    0    0  0.49739789978E+01  0.54974544335E+01  0.10375115834E+02  0.12751686198E+02  0.00000000000E+00 0. -1.
</event>
<event>
 7    1  0.5832130E-012  0.5930191E+02  0.7816164E-02  0.1266605E+00
        -11   -1    0    0    0    0  0.00000000000E+00  0.00000000000E+00  0.45593999997E+02  0.45594000000E+02  0.51100000000E-03 0.  1.
         11   -1    0    0    0    0 -0.00000000000E+00 -0.00000000000E+00 -0.45593999997E+02  0.45594000000E+02  0.51100000000E-03 0. -1.
    9900012    2    1    2    0    0  0.19814194260E+02 -0.23353262354E+02  0.88738819822E+01  0.59301906822E+02  0.49999932146E+02 0.  0.
         12    1    1    2    0    0 -0.19814194260E+02  0.23353262354E+02 -0.88738819822E+01  0.31886093178E+02  0.00000000000E+00 0. -1.
         11    1    3    3    0    0  0.13512690907E+01  0.84685944022E+01 -0.45490328412E+01  0.97075599074E+01  0.51100000000E-03 0. -1.
        -11    1    3    3    0    0  0.18707448604E+02 -0.23364059986E+02 -0.40277788180E+01  0.30200512160E+02  0.51100000000E-03 0.  1.
        -12    1    3    3    0    0 -0.24452343469E+00 -0.84577967701E+01  0.17450693641E+02  0.19393834754E+02  0.00000000000E+00 0.  1.
</event>
<event>
 7    1  0.5832130E-012  0.5930195E+02  0.7816164E-02  0.1266605E+00
        -11   -1    0    0    0    0  0.00000000000E+00  0.00000000000E+00  0.45593999997E+02  0.45594000000E+02  0.51100000000E-03 0.  1.
         11   -1    0    0    0    0 -0.00000000000E+00 -0.00000000000E+00 -0.45593999997E+02  0.45594000000E+02  0.51100000000E-03 0. -1.
    9900012    2    1    2    0    0  0.12127056846E+02 -0.76061614742E+01  0.28492123315E+02  0.59301948330E+02  0.50000007845E+02 0.  0.
         12    1    1    2    0    0 -0.12127056846E+02  0.76061614742E+01 -0.28492123315E+02  0.31886051670E+02  0.00000000000E+00 0. -1.
         11    1    3    3    0    0  0.16062527610E+02 -0.20848241226E+01  0.13448066151E+02  0.21052357785E+02  0.51100000000E-03 0. -1.
        -11    1    3    3    0    0 -0.68597485302E+01  0.43990392909E+01  0.23511127286E+02  0.24883343889E+02  0.51100000000E-03 0.  1.
         12    1    3    3    0    0  0.29242777662E+01 -0.99203766426E+01 -0.84670701222E+01  0.13366246655E+02  0.00000000000E+00 0. -1.
</event>
<event>
 7    1  0.5832130E-012  0.5930193E+02  0.7816164E-02  0.1266605E+00
        -11   -1    0    0    0    0  0.00000000000E+00  0.00000000000E+00  0.45593999997E+02  0.45594000000E+02  0.51100000000E-03 0. -1.
         11   -1    0    0    0    0 -0.00000000000E+00 -0.00000000000E+00 -0.45593999997E+02  0.45594000000E+02  0.51100000000E-03 0.  1.
    9900012    2    1    2    0    0 -0.13918733098E+02  0.15470881216E+02 -0.24158680568E+02  0.59301934965E+02  0.49999983471E+02 0.  0.
         12    1    1    2    0    0  0.13918733098E+02 -0.15470881216E+02  0.24158680568E+02  0.31886065035E+02  0.00000000000E+00 0. -1.
         11    1    3    3    0    0  0.40523830254E+00 -0.10140696612E+02 -0.12629432774E+02  0.16201867741E+02  0.51100000000E-03 0. -1.
        -11    1    3    3    0    0 -0.13396252582E+02 -0.22988185359E+01 -0.42523463415E+01  0.14241720387E+02  0.51100000000E-03 0.  1.
         12    1    3    3    0    0 -0.92771881809E+00  0.27910396363E+02 -0.72769014531E+01  0.28858346836E+02  0.00000000000E+00 0. -1.
</event>
<event>
 7    1  0.5832130E-012  0.5930194E+02  0.7816164E-02  0.1266605E+00
        -11   -1    0    0    0    0  0.00000000000E+00  0.00000000000E+00  0.45593999997E+02  0.45594000000E+02  0.51100000000E-03 0.  1.
         11   -1    0    0    0    0 -0.00000000000E+00 -0.00000000000E+00 -0.45593999997E+02  0.45594000000E+02  0.51100000000E-03 0. -1.
    9900012    2    1    2    0    0 -0.30254871484E+01  0.40385289940E+01  0.31484243531E+02  0.59301939102E+02  0.49999991016E+02 0.  0.
         12    1    1    2    0    0  0.30254871484E+01 -0.40385289940E+01 -0.31484243531E+02  0.31886060898E+02  0.00000000000E+00 0. -1.
         11    1    3    3    0    0 -0.78528174409E+00 -0.62101650249E+01 -0.34186646433E+00  0.62689464820E+01  0.51100000000E-03 0. -1.
        -11    1    3    3    0    0 -0.15727999834E+02 -0.79070116970E+01  0.57597081047E+01  0.18522015292E+02  0.51100000000E-03 0.  1.
        -12    1    3    3    0    0  0.13487794430E+02  0.18155705716E+02  0.26066401890E+02  0.34510977328E+02  0.00000000000E+00 0.  1.
</event>
<event>
 7    1  0.5832130E-012  0.5930195E+02  0.7816164E-02  0.1266605E+00
        -11   -1    0    0    0    0  0.00000000000E+00  0.00000000000E+00  0.45593999997E+02  0.45594000000E+02  0.51100000000E-03 0.  1.
         11   -1    0    0    0    0 -0.00000000000E+00 -0.00000000000E+00 -0.45593999997E+02  0.45594000000E+02  0.51100000000E-03 0. -1.
    9900012    2    1    2    0    0  0.14036714968E+02  0.21097840658E+02  0.19353865607E+02  0.59301947227E+02  0.50000005835E+02 0.  0.
         12    1    1    2    0    0 -0.14036714968E+02 -0.21097840658E+02 -0.19353865607E+02  0.31886052773E+02  0.00000000000E+00 0. -1.
         11    1    3    3    0    0  0.11818763495E+02  0.10171628840E+02  0.84956035981E+01  0.17757265683E+02  0.51100000000E-03 0. -1.
        -11    1    3    3    0    0 -0.10989367702E+02  0.15970672928E+02  0.17323454340E+02  0.25998666635E+02  0.51100000000E-03 0.  1.
         12    1    3    3    0    0  0.13207319175E+02 -0.50444611094E+01 -0.64651923313E+01  0.15546014909E+02  0.00000000000E+00 0. -1.
</event>
<event>
 7    1  0.5832130E-012  0.5930194E+02  0.7816164E-02  0.1266605E+00
        -11   -1    0    0    0    0  0.00000000000E+00  0.00000000000E+00  0.45593999997E+02  0.45594000000E+02  0.51100000000E-03 0.  1.
         11   -1    0    0    0    0 -0.00000000000E+00 -0.00000000000E+00 -0.45593999997E+02  0.45594000000E+02  0.51100000000E-03 0. -1.
    9900012    2    1    2    0    0 -0.27321788046E+02  0.49332475773E-01  0.16438924538E+02  0.59301940731E+02  0.49999993988E+02 0.  0.
         12    1    1    2    0    0  0.27321788046E+02 -0.49332475773E-01 -0.16438924538E+02  0.31886059269E+02  0.00000000000E+00 0. -1.
         11    1    3    3    0    0 -0.19466986619E+02 -0.10751158682E+02  0.10580074828E+02  0.24626996663E+02  0.51100000000E-03 0. -1.
        -11    1    3    3    0    0 -0.19531767534E+02  0.11121150478E+02  0.33052022320E+01  0.22717708798E+02  0.51100000000E-03 0.  1.
        -12    1    3    3    0    0  0.11676966107E+02 -0.32065932103E+00  0.25536474782E+01  0.11957235270E+02  0.00000000000E+00 0.  1.
</event>
<event>
 7    1  0.5832130E-012  0.5930195E+02  0.7816164E-02  0.1266605E+00
        -11   -1    0    0    0    0  0.00000000000E+00  0.00000000000E+00  0.45593999997E+02  0.45594000000E+02  0.51100000000E-03 0.  1.
         11   -1    0    0    0    0 -0.00000000000E+00 -0.00000000000E+00 -0.45593999997E+02  0.45594000000E+02  0.51100000000E-03 0. -1.
    9900012    2    1    2    0    0 -0.25111595857E+02 -0.52885262608E+00  0.19643021396E+02  0.59301949427E+02  0.50000009846E+02 0.  0.
         12    1    1    2    0    0  0.25111595857E+02  0.52885262608E+00 -0.19643021396E+02  0.31886050573E+02  0.00000000000E+00 0. -1.
         11    1    3    3    0    0 -0.32998738469E+01  0.14188039993E+02  0.32802229977E+01  0.14931493878E+02  0.51100000000E-03 0. -1.
        -11    1    3    3    0    0  0.40195264840E+01  0.45943069142E+01 -0.29484787752E+01  0.67792165127E+01  0.51100000000E-03 0.  1.
        -12    1    3    3    0    0 -0.25831248494E+02 -0.19311199533E+02  0.19311277174E+02  0.37591239036E+02  0.00000000000E+00 0.  1.
</event>
<event>
 7    1  0.5832130E-012  0.5930195E+02  0.7816164E-02  0.1266605E+00
        -11   -1    0    0    0    0  0.00000000000E+00  0.00000000000E+00  0.45593999997E+02  0.45594000000E+02  0.51100000000E-03 0. -1.
         11   -1    0    0    0    0 -0.00000000000E+00 -0.00000000000E+00 -0.45593999997E+02  0.45594000000E+02  0.51100000000E-03 0.  1.
    9900012    2    1    2    0    0 -0.29335866473E+02 -0.20594186878E+01 -0.12324193153E+02  0.59301952833E+02  0.50000016059E+02 0.  0.
         12    1    1    2    0    0  0.29335866473E+02  0.20594186878E+01  0.12324193153E+02  0.31886047167E+02  0.00000000000E+00 0. -1.
         11    1    3    3    0    0 -0.74719110624E+00 -0.42610906397E+00 -0.12796597877E+02  0.12825473908E+02  0.51100000000E-03 0. -1.
        -11    1    3    3    0    0 -0.32795161272E+02  0.54939654925E+01 -0.84477012926E+01  0.34308452561E+02  0.51100000000E-03 0.  1.
        -12    1    3    3    0    0  0.42064859058E+01 -0.71272751163E+01  0.89201060167E+01  0.12168026365E+02  0.00000000000E+00 0.  1.
</event>
<event>
 7    1  0.5832130E-012  0.5930185E+02  0.7816164E-02  0.1266605E+00
        -11   -1    0    0    0    0  0.00000000000E+00  0.00000000000E+00  0.45593999997E+02  0.45594000000E+02  0.51100000000E-03 0. -1.
         11   -1    0    0    0    0 -0.00000000000E+00 -0.00000000000E+00 -0.45593999997E+02  0.45594000000E+02  0.51100000000E-03 0.  1.
    9900012    2    1    2    0    0 -0.13259963310E+02  0.25719475376E+02 -0.13394356871E+02  0.59301845691E+02  0.49999820658E+02 0.  0.
         12    1    1    2    0    0  0.13259963310E+02 -0.25719475376E+02  0.13394356871E+02  0.31886154309E+02  0.00000000000E+00 0. -1.
         11    1    3    3    0    0  0.12072254857E+02  0.27214666745E+01 -0.63162472668E+01  0.13893908665E+02  0.51100000000E-03 0.  1.
        -11    1    3    3    0    0  0.18453147008E+01 -0.18458057438E+00  0.68275597189E+01  0.70749436966E+01  0.51100000000E-03 0. -1.
        -12    1    3    3    0    0 -0.27177532868E+02  0.23182589276E+02 -0.13905669323E+02  0.38332993330E+02  0.00000000000E+00 0.  1.
</event>
<event>
 7    1  0.5832130E-012  0.5930193E+02  0.7816164E-02  0.1266605E+00
        -11   -1    0    0    0    0  0.00000000000E+00  0.00000000000E+00  0.45593999997E+02  0.45594000000E+02  0.51100000000E-03 0.  1.
         11   -1    0    0    0    0 -0.00000000000E+00 -0.00000000000E+00 -0.45593999997E+02  0.45594000000E+02  0.51100000000E-03 0. -1.
    9900012    2    1    2    0    0 -0.97246702632E+01 -0.68407369613E+01  0.29586422337E+02  0.59301932814E+02  0.49999979549E+02 0.  0.
         12    1    1    2    0    0  0.97246702632E+01  0.68407369613E+01 -0.29586422337E+02  0.31886067186E+02  0.00000000000E+00 0. -1.
         11    1    3    3    0    0 -0.98883442526E+01 -0.14654603461E+02  0.24322120057E+02  0.30068293583E+02  0.51100000000E-03 0. -1.
        -11    1    3    3    0    0  0.67595185345E+01 -0.86500405920E+01  0.27806924891E+01  0.11324599068E+02  0.51100000000E-03 0.  1.
         12    1    3    3    0    0 -0.65958445451E+01  0.16463907092E+02  0.24836097910E+01  0.17909040164E+02  0.00000000000E+00 0. -1.
</event>
<event>
 7    1  0.5832130E-012  0.5930193E+02  0.7816164E-02  0.1266605E+00
        -11   -1    0    0    0    0  0.00000000000E+00  0.00000000000E+00  0.45593999997E+02  0.45594000000E+02  0.51100000000E-03 0.  1.
         11   -1    0    0    0    0 -0.00000000000E+00 -0.00000000000E+00 -0.45593999997E+02  0.45594000000E+02  0.51100000000E-03 0. -1.
    9900012    2    1    2    0    0  0.29739675032E+01  0.74351066346E+01  0.30864152668E+02  0.59301933869E+02  0.49999981473E+02 0.  0.
         12    1    1    2    0    0 -0.29739675032E+01 -0.74351066346E+01 -0.30864152668E+02  0.31886066131E+02  0.00000000000E+00 0. -1.
         11    1    3    3    0    0  0.10607887634E+02 -0.98137401911E+01  0.12983470068E+02  0.19426972792E+02  0.51100000000E-03 0. -1.
        -11    1    3    3    0    0 -0.43344487367E+01 -0.66436714079E+00  0.20949665448E+02  0.21403675203E+02  0.51100000000E-03 0.  1.
        -12    1    3    3    0    0 -0.32994713944E+01  0.17913213966E+02 -0.30689828483E+01  0.18471285873E+02  0.00000000000E+00 0.  1.
</event>
<event>
 7    1  0.5832130E-012  0.5930198E+02  0.7816164E-02  0.1266605E+00
        -11   -1    0    0    0    0  0.00000000000E+00  0.00000000000E+00  0.45593999997E+02  0.45594000000E+02  0.51100000000E-03 0.  1.
         11   -1    0    0    0    0 -0.00000000000E+00 -0.00000000000E+00 -0.45593999997E+02  0.45594000000E+02  0.51100000000E-03 0. -1.
    9900012    2    1    2    0    0 -0.85895180106E+01 -0.24237216784E+02  0.18854593337E+02  0.59301981324E+02  0.50000068020E+02 0.  0.
         12    1    1    2    0    0  0.85895180106E+01  0.24237216784E+02 -0.18854593337E+02  0.31886018676E+02  0.00000000000E+00 0. -1.
         11    1    3    3    0    0 -0.18420217653E+01 -0.11190643774E+02  0.51911311166E+01  0.12472826255E+02  0.51100000000E-03 0. -1.
        -11    1    3    3    0    0 -0.20102377491E+02 -0.19286846590E+02  0.18162311962E+01  0.27917498602E+02  0.51100000000E-03 0.  1.
         12    1    3    3    0    0  0.13354881245E+02  0.62402735794E+01  0.11847231024E+02  0.18911656468E+02  0.00000000000E+00 0. -1.
</event>
<event>
 7    1  0.5832130E-012  0.5930195E+02  0.7816164E-02  0.1266605E+00
        -11   -1    0    0    0    0  0.00000000000E+00  0.00000000000E+00  0.45593999997E+02  0.45594000000E+02  0.51100000000E-03 0.  1.
         11   -1    0    0    0    0 -0.00000000000E+00 -0.00000000000E+00 -0.45593999997E+02  0.45594000000E+02  0.51100000000E-03 0. -1.
    9900012    2    1    2    0    0 -0.83665025067E+01  0.18504055347E+02  0.24582959027E+02  0.59301948143E+02  0.50000007505E+02 0.  0.
         12    1    1    2    0    0  0.83665025067E+01 -0.18504055347E+02 -0.24582959027E+02  0.31886051857E+02  0.00000000000E+00 0. -1.
         11    1    3    3    0    0 -0.19464796211E+02  0.74357403526E+01  0.11808614488E+01  0.20870145187E+02  0.51100000000E-03 0. -1.
        -11    1    3    3    0    0 -0.22769007192E+01 -0.18418580289E+01  0.19136390209E+02  0.19359187700E+02  0.51100000000E-03 0.  1.
         12    1    3    3    0    0  0.13375194423E+02  0.12910173023E+02  0.42657073692E+01  0.19072615256E+02  0.00000000000E+00 0. -1.
</event>
<event>
 7    1  0.5832130E-012  0.5930186E+02  0.7816164E-02  0.1266605E+00
        -11   -1    0    0    0    0  0.00000000000E+00  0.00000000000E+00  0.45593999997E+02  0.45594000000E+02  0.51100000000E-03 0.  1.
         11   -1    0    0    0    0 -0.00000000000E+00 -0.00000000000E+00 -0.45593999997E+02  0.45594000000E+02  0.51100000000E-03 0. -1.
    9900012    2    1    2    0    0  0.60982346005E+01 -0.23423758089E+02  0.20757290893E+02  0.59301858285E+02  0.49999843626E+02 0.  0.
         12    1    1    2    0    0 -0.60982346005E+01  0.23423758089E+02 -0.20757290893E+02  0.31886141715E+02  0.00000000000E+00 0. -1.
         11    1    3    3    0    0 -0.69360952388E+01 -0.31822340118E+01  0.23531538375E+02  0.24738013845E+02  0.51100000000E-03 0. -1.
        -11    1    3    3    0    0  0.59449590147E+01 -0.18923087472E+02  0.81748548601E+01  0.21453531863E+02  0.51100000000E-03 0.  1.
         12    1    3    3    0    0  0.70893708246E+01 -0.13184366058E+01 -0.10949102342E+02  0.13110312577E+02  0.00000000000E+00 0. -1.
</event>
<event>
 7    1  0.5832130E-012  0.5930195E+02  0.7816164E-02  0.1266605E+00
        -11   -1    0    0    0    0  0.00000000000E+00  0.00000000000E+00  0.45593999997E+02  0.45594000000E+02  0.51100000000E-03 0. -1.
         11   -1    0    0    0    0 -0.00000000000E+00 -0.00000000000E+00 -0.45593999997E+02  0.45594000000E+02  0.51100000000E-03 0.  1.
    9900012    2    1    2    0    0  0.12452683677E+01 -0.30788992668E+02 -0.81980131170E+01  0.59301950043E+02  0.50000010970E+02 0.  0.
         12    1    1    2    0    0 -0.12452683677E+01  0.30788992668E+02  0.81980131170E+01  0.31886049957E+02  0.00000000000E+00 0. -1.
         11    1    3    3    0    0 -0.14680513782E+02  0.16234086751E+01 -0.38782637317E+01  0.15270686640E+02  0.51100000000E-03 0. -1.
        -11    1    3    3    0    0 -0.67497646525E+01 -0.74678122839E+01 -0.18445963688E+00  0.10067848270E+02  0.51100000000E-03 0.  1.
        -12    1    3    3    0    0  0.22675546802E+02 -0.24944589059E+02 -0.41352897484E+01  0.33963415132E+02  0.00000000000E+00 0.  1.
</event>
<event>
 7    1  0.5832130E-012  0.5930192E+02  0.7816164E-02  0.1266605E+00
        -11   -1    0    0    0    0  0.00000000000E+00  0.00000000000E+00  0.45593999997E+02  0.45594000000E+02  0.51100000000E-03 0.  1.
         11   -1    0    0    0    0 -0.00000000000E+00 -0.00000000000E+00 -0.45593999997E+02  0.45594000000E+02  0.51100000000E-03 0. -1.
    9900012    2    1    2    0    0 -0.34672415505E+01  0.13963047926E+02  0.28455821123E+02  0.59301917971E+02  0.49999952479E+02 0.  0.
         12    1    1    2    0    0  0.34672415505E+01 -0.13963047926E+02 -0.28455821123E+02  0.31886082029E+02  0.00000000000E+00 0. -1.
         11    1    3    3    0    0  0.30054689618E+01 -0.54687207755E+01 -0.32808470460E+01  0.70500856875E+01  0.51100000000E-03 0. -1.
        -11    1    3    3    0    0 -0.17067480640E+02 -0.11519031991E+01  0.73250766558E+01  0.18608667998E+02  0.51100000000E-03 0.  1.
        -12    1    3    3    0    0  0.10594770127E+02  0.20583671901E+02  0.24411591513E+02  0.33643164286E+02  0.00000000000E+00 0.  1.
</event>
<event>
 7    1  0.5832130E-012  0.5930228E+02  0.7816164E-02  0.1266604E+00
        -11   -1    0    0    0    0  0.00000000000E+00  0.00000000000E+00  0.45593999997E+02  0.45594000000E+02  0.51100000000E-03 0. -1.
         11   -1    0    0    0    0 -0.00000000000E+00 -0.00000000000E+00 -0.45593999997E+02  0.45594000000E+02  0.51100000000E-03 0.  1.
    9900012    2    1    2    0    0 -0.28225324239E+02 -0.10905274386E+02  0.10055120040E+02  0.59302276285E+02  0.50000605953E+02 0.  0.
         12    1    1    2    0    0  0.28225324239E+02  0.10905274386E+02 -0.10055120040E+02  0.31885723715E+02  0.00000000000E+00 0. -1.
         11    1    3    3    0    0 -0.63259129694E+01  0.47750765622E+01 -0.45330485578E+01  0.91305564211E+01  0.51100000000E-03 0. -1.
        -11    1    3    3    0    0 -0.25187436019E+02 -0.10796758533E+02 -0.65944071719E+01  0.28186222419E+02  0.51100000000E-03 0.  1.
         12    1    3    3    0    0  0.32880247496E+01 -0.48835924153E+01  0.21182575770E+02  0.21985497445E+02  0.00000000000E+00 0. -1.
</event>
<event>
 7    1  0.5832130E-012  0.5930193E+02  0.7816164E-02  0.1266605E+00
        -11   -1    0    0    0    0  0.00000000000E+00  0.00000000000E+00  0.45593999997E+02  0.45594000000E+02  0.51100000000E-03 0. -1.
         11   -1    0    0    0    0 -0.00000000000E+00 -0.00000000000E+00 -0.45593999997E+02  0.45594000000E+02  0.51100000000E-03 0.  1.
    9900012    2    1    2    0    0  0.27275899980E+02  0.11967979524E+02  0.11380440470E+02  0.59301926568E+02  0.49999968158E+02 0.  0.
         12    1    1    2    0    0 -0.27275899980E+02 -0.11967979524E+02 -0.11380440470E+02  0.31886073432E+02  0.00000000000E+00 0. -1.
         11    1    3    3    0    0  0.11098737246E+02  0.12148120198E+02  0.45973673504E+01  0.17084922582E+02  0.51100000000E-03 0. -1.
        -11    1    3    3    0    0 -0.20340840356E+01  0.16226863876E+02  0.67836359251E+01  0.17704980252E+02  0.51100000000E-03 0.  1.
        -12    1    3    3    0    0  0.18211246769E+02 -0.16407004551E+02 -0.56280543684E-03  0.24512023734E+02  0.00000000000E+00 0.  1.
</event>
<event>
 7    1  0.5832130E-012  0.5930196E+02  0.7816164E-02  0.1266605E+00
        -11   -1    0    0    0    0  0.00000000000E+00  0.00000000000E+00  0.45593999997E+02  0.45594000000E+02  0.51100000000E-03 0. -1.
         11   -1    0    0    0    0 -0.00000000000E+00 -0.00000000000E+00 -0.45593999997E+02  0.45594000000E+02  0.51100000000E-03 0.  1.
    9900012    2    1    2    0    0  0.22914632420E+01 -0.28957374327E+02 -0.13150646776E+02  0.59301955367E+02  0.50000020681E+02 0.  0.
         12    1    1    2    0    0 -0.22914632420E+01  0.28957374327E+02  0.13150646776E+02  0.31886044633E+02  0.00000000000E+00 0. -1.
         11    1    3    3    0    0  0.46618986490E+01 -0.12640006432E+00  0.49610173244E+01  0.68088889801E+01  0.51100000000E-03 0. -1.
        -11    1    3    3    0    0 -0.14671278991E+02 -0.88280934792E+01  0.66488633417E+01  0.18368153029E+02  0.51100000000E-03 0.  1.
        -12    1    3    3    0    0  0.12300843584E+02 -0.20002880783E+02 -0.24760527442E+02  0.34124913358E+02  0.00000000000E+00 0.  1.
</event>
<event>
 7    1  0.5832130E-012  0.5930195E+02  0.7816164E-02  0.1266605E+00
        -11   -1    0    0    0    0  0.00000000000E+00  0.00000000000E+00  0.45593999997E+02  0.45594000000E+02  0.51100000000E-03 0.  1.
         11   -1    0    0    0    0 -0.00000000000E+00 -0.00000000000E+00 -0.45593999997E+02  0.45594000000E+02  0.51100000000E-03 0. -1.
    9900012    2    1    2    0    0 -0.66817060764E+01 -0.18202909341E+02  0.25312622787E+02  0.59301953257E+02  0.50000016831E+02 0.  0.
         12    1    1    2    0    0  0.66817060764E+01  0.18202909341E+02 -0.25312622787E+02  0.31886046743E+02  0.00000000000E+00 0. -1.
         11    1    3    3    0    0  0.11723885257E+02 -0.34136609081E+01  0.10919411302E+02  0.16380967912E+02  0.51100000000E-03 0.  1.
        -11    1    3    3    0    0 -0.55497380363E+01  0.94236190201E+01  0.10627285567E+02  0.15249373315E+02  0.51100000000E-03 0. -1.
         12    1    3    3    0    0 -0.12855853297E+02 -0.24212867453E+02  0.37659259176E+01  0.27671612029E+02  0.00000000000E+00 0. -1.
</event>
<event>
 7    1  0.5832130E-012  0.5930190E+02  0.7816164E-02  0.1266605E+00
        -11   -1    0    0    0    0  0.00000000000E+00  0.00000000000E+00  0.45593999997E+02  0.45594000000E+02  0.51100000000E-03 0. -1.
         11   -1    0    0    0    0 -0.00000000000E+00 -0.00000000000E+00 -0.45593999997E+02  0.45594000000E+02  0.51100000000E-03 0.  1.
    9900012    2    1    2    0    0 -0.28836536078E+02  0.55331760306E+01 -0.12432268491E+02  0.59301903503E+02  0.49999926093E+02 0.  0.
         12    1    1    2    0    0  0.28836536078E+02 -0.55331760306E+01  0.12432268491E+02  0.31886096497E+02  0.00000000000E+00 0. -1.
         11    1    3    3    0    0 -0.39403925857E+01  0.71211552981E+01  0.88831799532E+01  0.12047756341E+02  0.51100000000E-03 0. -1.
        -11    1    3    3    0    0  0.10018324389E+01  0.11648868253E+02 -0.11901949968E+02  0.16684010703E+02  0.51100000000E-03 0.  1.
        -12    1    3    3    0    0 -0.25897975931E+02 -0.13236847521E+02 -0.94134984763E+01  0.30570136460E+02  0.00000000000E+00 0.  1.
</event>
<event>
 7    1  0.5832130E-012  0.5930198E+02  0.7816164E-02  0.1266605E+00
        -11   -1    0    0    0    0  0.00000000000E+00  0.00000000000E+00  0.45593999997E+02  0.45594000000E+02  0.51100000000E-03 0.  1.
         11   -1    0    0    0    0 -0.00000000000E+00 -0.00000000000E+00 -0.45593999997E+02  0.45594000000E+02  0.51100000000E-03 0. -1.
    9900012    2    1    2    0    0  0.12927948164E+01 -0.14003985888E+02  0.28617043613E+02  0.59301982307E+02  0.50000069812E+02 0.  0.
         12    1    1    2    0    0 -0.12927948164E+01  0.14003985888E+02 -0.28617043613E+02  0.31886017693E+02  0.00000000000E+00 0. -1.
         11    1    3    3    0    0 -0.55188986461E+01  0.10602629708E+02 -0.19207776084E+01  0.12106336600E+02  0.51100000000E-03 0. -1.
        -11    1    3    3    0    0 -0.69791914198E+01 -0.33228295787E+01  0.16470838090E+02  0.18194472153E+02  0.51100000000E-03 0.  1.
        -12    1    3    3    0    0  0.13790884882E+02 -0.21283786017E+02  0.14066983131E+02  0.29001173554E+02  0.00000000000E+00 0.  1.
</event>
<event>
 7    1  0.5832130E-012  0.5930193E+02  0.7816164E-02  0.1266605E+00
        -11   -1    0    0    0    0  0.00000000000E+00  0.00000000000E+00  0.45593999997E+02  0.45594000000E+02  0.51100000000E-03 0.  1.
         11   -1    0    0    0    0 -0.00000000000E+00 -0.00000000000E+00 -0.45593999997E+02  0.45594000000E+02  0.51100000000E-03 0. -1.
    9900012    2    1    2    0    0  0.31163585976E+02 -0.67044449259E+01 -0.77644882121E+00  0.59301928661E+02  0.49999971975E+02 0.  0.
         12    1    1    2    0    0 -0.31163585976E+02  0.67044449259E+01  0.77644882121E+00  0.31886071339E+02  0.00000000000E+00 0. -1.
         11    1    3    3    0    0 -0.79195264976E+01 -0.38893301174E+01 -0.25884928023E+01  0.91948944505E+01  0.51100000000E-03 0. -1.
        -11    1    3    3    0    0  0.74307414787E+01 -0.13226432577E+02  0.64122112419E+01  0.16470303303E+02  0.51100000000E-03 0.  1.
         12    1    3    3    0    0  0.31652370995E+02  0.10411317768E+02 -0.46001672608E+01  0.33636730907E+02  0.00000000000E+00 0. -1.
</event>
<event>
 7    1  0.5832130E-012  0.5930191E+02  0.7816164E-02  0.1266605E+00
        -11   -1    0    0    0    0  0.00000000000E+00  0.00000000000E+00  0.45593999997E+02  0.45594000000E+02  0.51100000000E-03 0. -1.
         11   -1    0    0    0    0 -0.00000000000E+00 -0.00000000000E+00 -0.45593999997E+02  0.45594000000E+02  0.51100000000E-03 0.  1.
    9900012    2    1    2    0    0  0.14119029052E+02  0.27376438546E+02 -0.82405169258E+01  0.59301913880E+02  0.49999945018E+02 0.  0.
         12    1    1    2    0    0 -0.14119029052E+02 -0.27376438546E+02  0.82405169258E+01  0.31886086120E+02  0.00000000000E+00 0. -1.
         11    1    3    3    0    0 -0.26898112666E+01  0.15635906863E+02  0.17361114958E+01  0.15960286697E+02  0.51100000000E-03 0.  1.
        -11    1    3    3    0    0 -0.49446064753E+01  0.14361539721E+02 -0.14466270562E+02  0.20975603462E+02  0.51100000000E-03 0. -1.
         12    1    3    3    0    0  0.21753446793E+02 -0.26210080378E+01  0.44896421405E+01  0.22366023721E+02  0.00000000000E+00 0. -1.
</event>
<event>
 7    1  0.5832130E-012  0.5930195E+02  0.7816164E-02  0.1266605E+00
        -11   -1    0    0    0    0  0.00000000000E+00  0.00000000000E+00  0.45593999997E+02  0.45594000000E+02  0.51100000000E-03 0.  1.
         11   -1    0    0    0    0 -0.00000000000E+00 -0.00000000000E+00 -0.45593999997E+02  0.45594000000E+02  0.51100000000E-03 0. -1.
    9900012    2    1    2    0    0  0.25646023659E+02 -0.49398343998E+01  0.18292060611E+02  0.59301953289E+02  0.50000016891E+02 0.  0.
         12    1    1    2    0    0 -0.25646023659E+02  0.49398343998E+01 -0.18292060611E+02  0.31886046711E+02  0.00000000000E+00 0. -1.
         11    1    3    3    0    0  0.36035189538E+01  0.44867095411E+01 -0.12693228449E+01  0.58929697184E+01  0.51100000000E-03 0. -1.
        -11    1    3    3    0    0  0.28869210299E+02 -0.21086578908E+02  0.10961968050E+02  0.37393045571E+02  0.51100000000E-03 0.  1.
         12    1    3    3    0    0 -0.68267055933E+01  0.11660034967E+02  0.85994154061E+01  0.16015938000E+02  0.00000000000E+00 0. -1.
</event>
<event>
 7    1  0.5832130E-012  0.5930195E+02  0.7816164E-02  0.1266605E+00
        -11   -1    0    0    0    0  0.00000000000E+00  0.00000000000E+00  0.45593999997E+02  0.45594000000E+02  0.51100000000E-03 0.  1.
         11   -1    0    0    0    0 -0.00000000000E+00 -0.00000000000E+00 -0.45593999997E+02  0.45594000000E+02  0.51100000000E-03 0. -1.
    9900012    2    1    2    0    0 -0.82244105017E+01  0.93373199930E+00  0.30792972782E+02  0.59301953580E+02  0.50000017421E+02 0.  0.
         12    1    1    2    0    0  0.82244105017E+01 -0.93373199930E+00 -0.30792972782E+02  0.31886046420E+02  0.00000000000E+00 0. -1.
         11    1    3    3    0    0 -0.97946980356E+00  0.59781390248E+01 -0.69521082158E+01  0.92211342144E+01  0.51100000000E-03 0. -1.
        -11    1    3    3    0    0 -0.37571281024E+01 -0.11531668365E+02  0.52571971537E+00  0.12139677440E+02  0.51100000000E-03 0.  1.
        -12    1    3    3    0    0 -0.34878125957E+01  0.64872613398E+01  0.37219361282E+02  0.37941141926E+02  0.00000000000E+00 0.  1.
</event>
<event>
 7    1  0.5832130E-012  0.5930194E+02  0.7816164E-02  0.1266605E+00
        -11   -1    0    0    0    0  0.00000000000E+00  0.00000000000E+00  0.45593999997E+02  0.45594000000E+02  0.51100000000E-03 0.  1.
         11   -1    0    0    0    0 -0.00000000000E+00 -0.00000000000E+00 -0.45593999997E+02  0.45594000000E+02  0.51100000000E-03 0. -1.
    9900012    2    1    2    0    0  0.69214911825E+01 -0.11484869161E+02  0.28929424090E+02  0.59301939754E+02  0.49999992206E+02 0.  0.
         12    1    1    2    0    0 -0.69214911825E+01  0.11484869161E+02 -0.28929424090E+02  0.31886060246E+02  0.00000000000E+00 0. -1.
         11    1    3    3    0    0 -0.27399646263E+01 -0.17194578430E+02  0.13058177664E+02  0.21764120421E+02  0.51100000000E-03 0. -1.
        -11    1    3    3    0    0 -0.92529195275E+01  0.98123448525E+01  0.11433973769E+02  0.17681470179E+02  0.51100000000E-03 0.  1.
         12    1    3    3    0    0  0.18914375336E+02 -0.41026355829E+01  0.44372726575E+01  0.19856349154E+02  0.00000000000E+00 0. -1.
</event>
<event>
 7    1  0.5832130E-012  0.5930167E+02  0.7816164E-02  0.1266606E+00
        -11   -1    0    0    0    0  0.00000000000E+00  0.00000000000E+00  0.45593999997E+02  0.45594000000E+02  0.51100000000E-03 0. -1.
         11   -1    0    0    0    0 -0.00000000000E+00 -0.00000000000E+00 -0.45593999997E+02  0.45594000000E+02  0.51100000000E-03 0.  1.
    9900012    2    1    2    0    0 -0.14814238151E+01 -0.44862472482E+01 -0.31534379667E+02  0.59301668573E+02  0.49999497634E+02 0.  0.
         12    1    1    2    0    0  0.14814238151E+01  0.44862472482E+01  0.31534379667E+02  0.31886331427E+02  0.00000000000E+00 0. -1.
         11    1    3    3    0    0  0.26749403283E+01  0.61286284552E+01 -0.18533679526E+02  0.19703113194E+02  0.51100000000E-03 0. -1.
        -11    1    3    3    0    0 -0.17750125188E+02  0.31637675896E+01 -0.68846248485E+01  0.19299596605E+02  0.51100000000E-03 0.  1.
         12    1    3    3    0    0  0.13593761044E+02 -0.13778643293E+02 -0.61160752932E+01  0.20298958774E+02  0.00000000000E+00 0. -1.
</event>
<event>
 7    1  0.5832130E-012  0.5930196E+02  0.7816164E-02  0.1266605E+00
        -11   -1    0    0    0    0  0.00000000000E+00  0.00000000000E+00  0.45593999997E+02  0.45594000000E+02  0.51100000000E-03 0.  1.
         11   -1    0    0    0    0 -0.00000000000E+00 -0.00000000000E+00 -0.45593999997E+02  0.45594000000E+02  0.51100000000E-03 0. -1.
    9900012    2    1    2    0    0  0.76587240518E+01 -0.49651341884E+01  0.30551770724E+02  0.59301963778E+02  0.50000036019E+02 0.  0.
         12    1    1    2    0    0 -0.76587240518E+01  0.49651341884E+01 -0.30551770724E+02  0.31886036222E+02  0.00000000000E+00 0. -1.
         11    1    3    3    0    0  0.10033075560E+02 -0.25896740478E+01  0.26662284937E+01  0.10699429494E+02  0.51100000000E-03 0. -1.
        -11    1    3    3    0    0  0.40140752056E+01 -0.19240821059E+02  0.22293440637E+02  0.29720691285E+02  0.51100000000E-03 0.  1.
        -12    1    3    3    0    0 -0.63884267135E+01  0.16865360918E+02  0.55921015934E+01  0.18881842998E+02  0.00000000000E+00 0.  1.
</event>
<event>
 7    1  0.5832130E-012  0.5930200E+02  0.7816164E-02  0.1266605E+00
        -11   -1    0    0    0    0  0.00000000000E+00  0.00000000000E+00  0.45593999997E+02  0.45594000000E+02  0.51100000000E-03 0.  1.
         11   -1    0    0    0    0 -0.00000000000E+00 -0.00000000000E+00 -0.45593999997E+02  0.45594000000E+02  0.51100000000E-03 0. -1.
    9900012    2    1    2    0    0  0.21609790490E+01 -0.41528864246E+01  0.31540464983E+02  0.59301996370E+02  0.50000095460E+02 0.  0.
         12    1    1    2    0    0 -0.21609790490E+01  0.41528864246E+01 -0.31540464983E+02  0.31886003630E+02  0.00000000000E+00 0. -1.
         11    1    3    3    0    0  0.95066977938E+01  0.23956637313E+01  0.22005503709E+01  0.10047832097E+02  0.51100000000E-03 0. -1.
        -11    1    3    3    0    0  0.11249650226E+02 -0.12203055215E+02  0.23851682544E+02  0.29058078864E+02  0.51100000000E-03 0.  1.
         12    1    3    3    0    0 -0.18595368971E+02  0.56545050594E+01  0.54882320683E+01  0.20196085409E+02  0.00000000000E+00 0. -1.
</event>
<event>
 7    1  0.5832130E-012  0.5930191E+02  0.7816164E-02  0.1266605E+00
        -11   -1    0    0    0    0  0.00000000000E+00  0.00000000000E+00  0.45593999997E+02  0.45594000000E+02  0.51100000000E-03 0.  1.
         11   -1    0    0    0    0 -0.00000000000E+00 -0.00000000000E+00 -0.45593999997E+02  0.45594000000E+02  0.51100000000E-03 0. -1.
    9900012    2    1    2    0    0 -0.26383868694E+02  0.17837525720E+02  0.15610438850E+01  0.59301910414E+02  0.49999938696E+02 0.  0.
         12    1    1    2    0    0  0.26383868694E+02 -0.17837525720E+02 -0.15610438850E+01  0.31886089586E+02  0.00000000000E+00 0. -1.
         11    1    3    3    0    0 -0.64715155206E+01  0.32529848516E+01 -0.68361046425E+01  0.99596561448E+01  0.51100000000E-03 0. -1.
        -11    1    3    3    0    0 -0.17828829036E+02  0.27895696710E+02 -0.65081988141E+00  0.33112846548E+02  0.51100000000E-03 0.  1.
         12    1    3    3    0    0 -0.20835241371E+01 -0.13311155841E+02  0.90479684089E+01  0.16229407721E+02  0.00000000000E+00 0. -1.
</event>
<event>
 7    1  0.5832130E-012  0.5930193E+02  0.7816164E-02  0.1266605E+00
        -11   -1    0    0    0    0  0.00000000000E+00  0.00000000000E+00  0.45593999997E+02  0.45594000000E+02  0.51100000000E-03 0.  1.
         11   -1    0    0    0    0 -0.00000000000E+00 -0.00000000000E+00 -0.45593999997E+02  0.45594000000E+02  0.51100000000E-03 0. -1.
    9900012    2    1    2    0    0 -0.53885404531E+00  0.29812374655E+02  0.11298371296E+02  0.59301933448E+02  0.49999980705E+02 0.  0.
         12    1    1    2    0    0  0.53885404531E+00 -0.29812374655E+02 -0.11298371296E+02  0.31886066552E+02  0.00000000000E+00 0. -1.
         11    1    3    3    0    0  0.80527543468E+00  0.12313193432E+02 -0.12485461967E+02  0.17554200688E+02  0.51100000000E-03 0. -1.
        -11    1    3    3    0    0  0.22809414279E+01  0.23666325498E+02  0.91813952891E+01  0.25487166890E+02  0.51100000000E-03 0.  1.
        -12    1    3    3    0    0 -0.36250709079E+01 -0.61671442757E+01  0.14602437974E+02  0.16260565869E+02  0.00000000000E+00 0.  1.
</event>
<event>
 7    1  0.5832130E-012  0.5930196E+02  0.7816164E-02  0.1266605E+00
        -11   -1    0    0    0    0  0.00000000000E+00  0.00000000000E+00  0.45593999997E+02  0.45594000000E+02  0.51100000000E-03 0.  1.
         11   -1    0    0    0    0 -0.00000000000E+00 -0.00000000000E+00 -0.45593999997E+02  0.45594000000E+02  0.51100000000E-03 0. -1.
    9900012    2    1    2    0    0  0.48397363405E+01 -0.31452681397E+02  0.20062740199E+01  0.59301963082E+02  0.50000034750E+02 0.  0.
         12    1    1    2    0    0 -0.48397363405E+01  0.31452681397E+02 -0.20062740199E+01  0.31886036918E+02  0.00000000000E+00 0. -1.
         11    1    3    3    0    0 -0.65797537008E+01 -0.18656950715E+02  0.90491232357E+01  0.21754576537E+02  0.51100000000E-03 0.  1.
        -11    1    3    3    0    0  0.11251143800E+02 -0.93185386274E+01  0.11555097335E+02  0.18626424070E+02  0.51100000000E-03 0. -1.
         12    1    3    3    0    0  0.16834624143E+00 -0.34771920553E+01 -0.18597946551E+02  0.18920962474E+02  0.00000000000E+00 0. -1.
</event>
<event>
 7    1  0.5832130E-012  0.5930192E+02  0.7816164E-02  0.1266605E+00
        -11   -1    0    0    0    0  0.00000000000E+00  0.00000000000E+00  0.45593999997E+02  0.45594000000E+02  0.51100000000E-03 0. -1.
         11   -1    0    0    0    0 -0.00000000000E+00 -0.00000000000E+00 -0.45593999997E+02  0.45594000000E+02  0.51100000000E-03 0.  1.
    9900012    2    1    2    0    0  0.96170764902E+01  0.27558659286E+02  0.12835670402E+02  0.59301916884E+02  0.49999950495E+02 0.  0.
         12    1    1    2    0    0 -0.96170764902E+01 -0.27558659286E+02 -0.12835670402E+02  0.31886083116E+02  0.00000000000E+00 0. -1.
         11    1    3    3    0    0  0.66510911059E+01  0.10255771273E+02  0.47333566884E+01  0.13108109059E+02  0.51100000000E-03 0. -1.
        -11    1    3    3    0    0  0.11174827832E+02  0.17839670008E+01  0.21374525044E+02  0.24185318614E+02  0.51100000000E-03 0.  1.
        -12    1    3    3    0    0 -0.82088424476E+01  0.15518921012E+02 -0.13272211331E+02  0.22008489210E+02  0.00000000000E+00 0.  1.
</event>
<event>
 7    1  0.5832130E-012  0.5930194E+02  0.7816164E-02  0.1266605E+00
        -11   -1    0    0    0    0  0.00000000000E+00  0.00000000000E+00  0.45593999997E+02  0.45594000000E+02  0.51100000000E-03 0.  1.
         11   -1    0    0    0    0 -0.00000000000E+00 -0.00000000000E+00 -0.45593999997E+02  0.45594000000E+02  0.51100000000E-03 0. -1.
    9900012    2    1    2    0    0 -0.20315028299E+02  0.17488564332E+02  0.17267618518E+02  0.59301938680E+02  0.49999990247E+02 0.  0.
         12    1    1    2    0    0  0.20315028299E+02 -0.17488564332E+02 -0.17267618518E+02  0.31886061320E+02  0.00000000000E+00 0. -1.
         11    1    3    3    0    0 -0.12378950646E+02  0.96396564023E+01 -0.78344229254E+01  0.17536806365E+02  0.51100000000E-03 0. -1.
        -11    1    3    3    0    0 -0.17080019295E+02 -0.48272710877E+01  0.13207273767E+02  0.22123781004E+02  0.51100000000E-03 0.  1.
        -12    1    3    3    0    0  0.91439416422E+01  0.12676179018E+02  0.11894767676E+02  0.19641351311E+02  0.00000000000E+00 0.  1.
</event>
<event>
 7    1  0.5832130E-012  0.5930194E+02  0.7816164E-02  0.1266605E+00
        -11   -1    0    0    0    0  0.00000000000E+00  0.00000000000E+00  0.45593999997E+02  0.45594000000E+02  0.51100000000E-03 0. -1.
         11   -1    0    0    0    0 -0.00000000000E+00 -0.00000000000E+00 -0.45593999997E+02  0.45594000000E+02  0.51100000000E-03 0.  1.
    9900012    2    1    2    0    0  0.42363199665E+01 -0.12100619020E+02 -0.29195021739E+02  0.59301942203E+02  0.49999996671E+02 0.  0.
         12    1    1    2    0    0 -0.42363199665E+01  0.12100619020E+02  0.29195021739E+02  0.31886057797E+02  0.00000000000E+00 0. -1.
         11    1    3    3    0    0 -0.29562335594E+01 -0.62883080035E+00  0.11815992975E+01  0.32451382396E+01  0.51100000000E-03 0. -1.
        -11    1    3    3    0    0 -0.36028023180E+01  0.15507534431E+02 -0.31364971631E+01  0.16226565360E+02  0.51100000000E-03 0.  1.
         12    1    3    3    0    0  0.10795355844E+02 -0.26979322651E+02 -0.27240123873E+02  0.39830238603E+02  0.00000000000E+00 0. -1.
</event>
<event>
 7    1  0.5832130E-012  0.5930198E+02  0.7816164E-02  0.1266605E+00
        -11   -1    0    0    0    0  0.00000000000E+00  0.00000000000E+00  0.45593999997E+02  0.45594000000E+02  0.51100000000E-03 0. -1.
         11   -1    0    0    0    0 -0.00000000000E+00 -0.00000000000E+00 -0.45593999997E+02  0.45594000000E+02  0.51100000000E-03 0.  1.
    9900012    2    1    2    0    0  0.15648800593E+02  0.17383270937E+02 -0.21671535507E+02  0.59301976107E+02  0.50000058505E+02 0.  0.
         12    1    1    2    0    0 -0.15648800593E+02 -0.17383270937E+02  0.21671535507E+02  0.31886023893E+02  0.00000000000E+00 0. -1.
         11    1    3    3    0    0  0.41104736706E+01  0.80425989303E+01  0.12992433513E+02  0.15823486348E+02  0.51100000000E-03 0. -1.
        -11    1    3    3    0    0  0.13476564650E+02  0.37296486571E+01 -0.78925297333E+01  0.16056777377E+02  0.51100000000E-03 0.  1.
        -12    1    3    3    0    0 -0.19382377276E+01  0.56110233496E+01 -0.26771439287E+02  0.27421712383E+02  0.00000000000E+00 0.  1.
</event>
<event>
 7    1  0.5832130E-012  0.5930194E+02  0.7816164E-02  0.1266605E+00
        -11   -1    0    0    0    0  0.00000000000E+00  0.00000000000E+00  0.45593999997E+02  0.45594000000E+02  0.51100000000E-03 0. -1.
         11   -1    0    0    0    0 -0.00000000000E+00 -0.00000000000E+00 -0.45593999997E+02  0.45594000000E+02  0.51100000000E-03 0.  1.
    9900012    2    1    2    0    0  0.17856611583E+02  0.71918980761E+01 -0.25419255581E+02  0.59301944593E+02  0.50000001031E+02 0.  0.
         12    1    1    2    0    0 -0.17856611583E+02 -0.71918980761E+01  0.25419255581E+02  0.31886055407E+02  0.00000000000E+00 0. -1.
         11    1    3    3    0    0 -0.10667973993E+02 -0.68852350651E+01 -0.13885569285E+02  0.18815450185E+02  0.51100000000E-03 0.  1.
        -11    1    3    3    0    0  0.58783518056E+01  0.99398624498E+01  0.45409323028E+01  0.12408704683E+02  0.51100000000E-03 0. -1.
        -12    1    3    3    0    0  0.22646233771E+02  0.41372706913E+01 -0.16074618598E+02  0.28077789725E+02  0.00000000000E+00 0.  1.
</event>
<event>
 7    1  0.5832130E-012  0.5930200E+02  0.7816164E-02  0.1266605E+00
        -11   -1    0    0    0    0  0.00000000000E+00  0.00000000000E+00  0.45593999997E+02  0.45594000000E+02  0.51100000000E-03 0. -1.
         11   -1    0    0    0    0 -0.00000000000E+00 -0.00000000000E+00 -0.45593999997E+02  0.45594000000E+02  0.51100000000E-03 0.  1.
    9900012    2    1    2    0    0 -0.14302742078E+02  0.22572689061E+02  0.17396041572E+02  0.59302000176E+02  0.50000102400E+02 0.  0.
         12    1    1    2    0    0  0.14302742078E+02 -0.22572689061E+02 -0.17396041572E+02  0.31885999824E+02  0.00000000000E+00 0. -1.
         11    1    3    3    0    0 -0.51025979651E+01  0.85954404445E+01  0.36019360939E+01  0.10625066885E+02  0.51100000000E-03 0. -1.
        -11    1    3    3    0    0 -0.30376105651E+01  0.19592178394E+02 -0.10891946941E+02  0.22621119349E+02  0.51100000000E-03 0.  1.
         12    1    3    3    0    0 -0.61625335478E+01 -0.56149297774E+01  0.24686052419E+02  0.26055813942E+02  0.00000000000E+00 0. -1.
</event>
<event>
 7    1  0.5832130E-012  0.5930195E+02  0.7816164E-02  0.1266605E+00
        -11   -1    0    0    0    0  0.00000000000E+00  0.00000000000E+00  0.45593999997E+02  0.45594000000E+02  0.51100000000E-03 0.  1.
         11   -1    0    0    0    0 -0.00000000000E+00 -0.00000000000E+00 -0.45593999997E+02  0.45594000000E+02  0.51100000000E-03 0. -1.
    9900012    2    1    2    0    0 -0.11408381812E+02 -0.22302489176E+01  0.29691664329E+02  0.59301951069E+02  0.50000012841E+02 0.  0.
         12    1    1    2    0    0  0.11408381812E+02  0.22302489176E+01 -0.29691664329E+02  0.31886048931E+02  0.00000000000E+00 0. -1.
         11    1    3    3    0    0  0.60994420132E+01  0.66519870749E+01 -0.10716987067E+01  0.90884907051E+01  0.51100000000E-03 0. -1.
        -11    1    3    3    0    0  0.70191660591E+01  0.68918012559E+01  0.12086952098E+02  0.15583967017E+02  0.51100000000E-03 0.  1.
        -12    1    3    3    0    0 -0.24526989885E+02 -0.15774037248E+02  0.18676410938E+02  0.34629493347E+02  0.00000000000E+00 0.  1.
</event>
<event>
 7    1  0.5832130E-012  0.5930191E+02  0.7816164E-02  0.1266605E+00
        -11   -1    0    0    0    0  0.00000000000E+00  0.00000000000E+00  0.45593999997E+02  0.45594000000E+02  0.51100000000E-03 0. -1.
         11   -1    0    0    0    0 -0.00000000000E+00 -0.00000000000E+00 -0.45593999997E+02  0.45594000000E+02  0.51100000000E-03 0.  1.
    9900012    2    1    2    0    0 -0.16695509802E+02  0.20829334998E+02 -0.17439087270E+02  0.59301905714E+02  0.49999930125E+02 0.  0.
         12    1    1    2    0    0  0.16695509802E+02 -0.20829334998E+02  0.17439087270E+02  0.31886094286E+02  0.00000000000E+00 0. -1.
         11    1    3    3    0    0  0.11951940966E+02  0.73856560728E+01 -0.42773043297E+01  0.14686461149E+02  0.51100000000E-03 0. -1.
        -11    1    3    3    0    0  0.39921314616E+01  0.87498434080E+01 -0.22011516778E+01  0.98662020171E+01  0.51100000000E-03 0.  1.
        -12    1    3    3    0    0 -0.32639582230E+02  0.46938355170E+01 -0.10960631263E+02  0.34749242548E+02  0.00000000000E+00 0.  1.
</event>
<event>
 7    1  0.5832130E-012  0.5930195E+02  0.7816164E-02  0.1266605E+00
        -11   -1    0    0    0    0  0.00000000000E+00  0.00000000000E+00  0.45593999997E+02  0.45594000000E+02  0.51100000000E-03 0.  1.
         11   -1    0    0    0    0 -0.00000000000E+00 -0.00000000000E+00 -0.45593999997E+02  0.45594000000E+02  0.51100000000E-03 0. -1.
    9900012    2    1    2    0    0 -0.22402051400E+02  0.22093795418E+02  0.51703206298E+01  0.59301954175E+02  0.50000018506E+02 0.  0.
         12    1    1    2    0    0  0.22402051400E+02 -0.22093795418E+02 -0.51703206298E+01  0.31886045825E+02  0.00000000000E+00 0. -1.
         11    1    3    3    0    0  0.53653497495E+01  0.12430867585E+02 -0.87803291037E+01  0.16137150500E+02  0.51100000000E-03 0. -1.
        -11    1    3    3    0    0 -0.18970880526E+02  0.16090411881E+02 -0.72639888141E+00  0.24886207385E+02  0.51100000000E-03 0.  1.
         12    1    3    3    0    0 -0.87965206241E+01 -0.64274840475E+01  0.14677048615E+02  0.18278596289E+02  0.00000000000E+00 0. -1.
</event>
<event>
 7    1  0.5832130E-012  0.5930194E+02  0.7816164E-02  0.1266605E+00
        -11   -1    0    0    0    0  0.00000000000E+00  0.00000000000E+00  0.45593999997E+02  0.45594000000E+02  0.51100000000E-03 0. -1.
         11   -1    0    0    0    0 -0.00000000000E+00 -0.00000000000E+00 -0.45593999997E+02  0.45594000000E+02  0.51100000000E-03 0.  1.
    9900012    2    1    2    0    0  0.12012555903E+02  0.49350322495E+01 -0.29121549071E+02  0.59301942500E+02  0.49999997213E+02 0.  0.
         12    1    1    2    0    0 -0.12012555903E+02 -0.49350322495E+01  0.29121549071E+02  0.31886057500E+02  0.00000000000E+00 0. -1.
         11    1    3    3    0    0  0.12058847424E+02 -0.10200780761E+02  0.68813610064E-02  0.15794675588E+02  0.51100000000E-03 0. -1.
        -11    1    3    3    0    0 -0.87713882214E+01  0.93690970578E+01 -0.29715541667E+00  0.12837660714E+02  0.51100000000E-03 0.  1.
         12    1    3    3    0    0  0.87250967003E+01  0.57667159523E+01 -0.28831275015E+02  0.30669606197E+02  0.00000000000E+00 0. -1.
</event>
<event>
 7    1  0.5832130E-012  0.5930194E+02  0.7816164E-02  0.1266605E+00
        -11   -1    0    0    0    0  0.00000000000E+00  0.00000000000E+00  0.45593999997E+02  0.45594000000E+02  0.51100000000E-03 0.  1.
         11   -1    0    0    0    0 -0.00000000000E+00 -0.00000000000E+00 -0.45593999997E+02  0.45594000000E+02  0.51100000000E-03 0. -1.
    9900012    2    1    2    0    0  0.37546364065E+01  0.19968018295E+02  0.24574417390E+02  0.59301936599E+02  0.49999986452E+02 0.  0.
         12    1    1    2    0    0 -0.37546364065E+01 -0.19968018295E+02 -0.24574417390E+02  0.31886063401E+02  0.00000000000E+00 0. -1.
         11    1    3    3    0    0  0.16917030154E+01  0.11239003670E+01  0.62465786688E+01  0.65684668268E+01  0.51100000000E-03 0. -1.
        -11    1    3    3    0    0 -0.36743813548E+01  0.33502978578E+02  0.12605924260E+02  0.35984162887E+02  0.51100000000E-03 0.  1.
         12    1    3    3    0    0  0.57373147459E+01 -0.14658860650E+02  0.57219144610E+01  0.16749306886E+02  0.00000000000E+00 0. -1.
</event>
<event>
 7    1  0.5832130E-012  0.5930203E+02  0.7816164E-02  0.1266604E+00
        -11   -1    0    0    0    0  0.00000000000E+00  0.00000000000E+00  0.45593999997E+02  0.45594000000E+02  0.51100000000E-03 0. -1.
         11   -1    0    0    0    0 -0.00000000000E+00 -0.00000000000E+00 -0.45593999997E+02  0.45594000000E+02  0.51100000000E-03 0.  1.
    9900012    2    1    2    0    0  0.16764710094E+02  0.26716958854E+02 -0.46758761732E+01  0.59302027960E+02  0.50000153073E+02 0.  0.
         12    1    1    2    0    0 -0.16764710094E+02 -0.26716958854E+02  0.46758761732E+01  0.31885972040E+02  0.00000000000E+00 0. -1.
         11    1    3    3    0    0 -0.92843807844E+01 -0.43763272939E+01  0.58790177097E+01  0.11828559364E+02  0.51100000000E-03 0. -1.
        -11    1    3    3    0    0  0.10257710778E+02  0.24271190232E+02 -0.14136786155E+02  0.29902508736E+02  0.51100000000E-03 0.  1.
        -12    1    3    3    0    0  0.15791380101E+02  0.68220959159E+01  0.35818922719E+01  0.17570959860E+02  0.00000000000E+00 0.  1.
</event>
<event>
 7    1  0.5832130E-012  0.5930193E+02  0.7816164E-02  0.1266605E+00
        -11   -1    0    0    0    0  0.00000000000E+00  0.00000000000E+00  0.45593999997E+02  0.45594000000E+02  0.51100000000E-03 0.  1.
         11   -1    0    0    0    0 -0.00000000000E+00 -0.00000000000E+00 -0.45593999997E+02  0.45594000000E+02  0.51100000000E-03 0. -1.
    9900012    2    1    2    0    0 -0.19563122288E-02 -0.21627486516E+02  0.23430172867E+02  0.59301934432E+02  0.49999982500E+02 0.  0.
         12    1    1    2    0    0  0.19563122288E-02  0.21627486516E+02 -0.23430172867E+02  0.31886065568E+02  0.00000000000E+00 0. -1.
         11    1    3    3    0    0 -0.31056180365E+01 -0.86927340432E+01  0.14270277248E+02  0.16995567114E+02  0.51100000000E-03 0. -1.
        -11    1    3    3    0    0  0.14855595817E+02 -0.14456293915E+02 -0.73420542372E+01  0.21990427952E+02  0.51100000000E-03 0.  1.
         12    1    3    3    0    0 -0.11751934092E+02  0.15215414427E+01  0.16501949856E+02  0.20315939366E+02  0.00000000000E+00 0. -1.
</event>
<event>
 7    1  0.5832130E-012  0.5930200E+02  0.7816164E-02  0.1266605E+00
        -11   -1    0    0    0    0  0.00000000000E+00  0.00000000000E+00  0.45593999997E+02  0.45594000000E+02  0.51100000000E-03 0.  1.
         11   -1    0    0    0    0 -0.00000000000E+00 -0.00000000000E+00 -0.45593999997E+02  0.45594000000E+02  0.51100000000E-03 0. -1.
    9900012    2    1    2    0    0 -0.21428762758E+02  0.86347675351E+01  0.21976482117E+02  0.59302002290E+02  0.50000106256E+02 0.  0.
         12    1    1    2    0    0  0.21428762758E+02 -0.86347675351E+01 -0.21976482117E+02  0.31885997710E+02  0.00000000000E+00 0. -1.
         11    1    3    3    0    0  0.80533709565E-01 -0.27966570194E+00 -0.34942525523E+01  0.35063513435E+01  0.51100000000E-03 0. -1.
        -11    1    3    3    0    0 -0.34399616567E+02  0.69567674757E+01  0.12107767164E+02  0.37125843554E+02  0.51100000000E-03 0.  1.
         12    1    3    3    0    0  0.12890320100E+02  0.19576657614E+01  0.13362967506E+02  0.18669807393E+02  0.00000000000E+00 0. -1.
</event>
<event>
 7    1  0.5832130E-012  0.5930196E+02  0.7816164E-02  0.1266605E+00
        -11   -1    0    0    0    0  0.00000000000E+00  0.00000000000E+00  0.45593999997E+02  0.45594000000E+02  0.51100000000E-03 0.  1.
         11   -1    0    0    0    0 -0.00000000000E+00 -0.00000000000E+00 -0.45593999997E+02  0.45594000000E+02  0.51100000000E-03 0. -1.
    9900012    2    1    2    0    0  0.26734902834E+02  0.60642619639E+01  0.16284639856E+02  0.59301956063E+02  0.50000021950E+02 0.  0.
         12    1    1    2    0    0 -0.26734902834E+02 -0.60642619639E+01 -0.16284639856E+02  0.31886043937E+02  0.00000000000E+00 0. -1.
         11    1    3    3    0    0 -0.62400718740E+01  0.32875686371E+01  0.46942006936E+01  0.84724332366E+01  0.51100000000E-03 0. -1.
        -11    1    3    3    0    0 -0.22873451463E+01  0.64139568409E+01 -0.78560322959E+01  0.10396539514E+02  0.51100000000E-03 0.  1.
         12    1    3    3    0    0  0.35262319854E+02 -0.36372635141E+01  0.19446471458E+02  0.40432983312E+02  0.00000000000E+00 0. -1.
</event>
<event>
 7    1  0.5832130E-012  0.5930184E+02  0.7816164E-02  0.1266605E+00
        -11   -1    0    0    0    0  0.00000000000E+00  0.00000000000E+00  0.45593999997E+02  0.45594000000E+02  0.51100000000E-03 0.  1.
         11   -1    0    0    0    0 -0.00000000000E+00 -0.00000000000E+00 -0.45593999997E+02  0.45594000000E+02  0.51100000000E-03 0. -1.
    9900012    2    1    2    0    0  0.26714792076E+02  0.13051157340E+02  0.11520159625E+02  0.59301844676E+02  0.49999818806E+02 0.  0.
         12    1    1    2    0    0 -0.26714792076E+02 -0.13051157340E+02 -0.11520159625E+02  0.31886155324E+02  0.00000000000E+00 0. -1.
         11    1    3    3    0    0  0.46663986736E+01 -0.11875559233E+02 -0.46146832913E+01  0.13568326567E+02  0.51100000000E-03 0. -1.
        -11    1    3    3    0    0  0.22648129434E+02  0.55801160789E+01  0.10456014191E+02  0.25561762368E+02  0.51100000000E-03 0.  1.
        -12    1    3    3    0    0 -0.59973603238E+00  0.19346600494E+02  0.56788287253E+01  0.20171755741E+02  0.00000000000E+00 0.  1.
</event>
<event>
 7    1  0.5832130E-012  0.5930190E+02  0.7816164E-02  0.1266605E+00
        -11   -1    0    0    0    0  0.00000000000E+00  0.00000000000E+00  0.45593999997E+02  0.45594000000E+02  0.51100000000E-03 0.  1.
         11   -1    0    0    0    0 -0.00000000000E+00 -0.00000000000E+00 -0.45593999997E+02  0.45594000000E+02  0.51100000000E-03 0. -1.
    9900012    2    1    2    0    0  0.10600698907E+02  0.70272272897E+01  0.29239810349E+02  0.59301901933E+02  0.49999923229E+02 0.  0.
         12    1    1    2    0    0 -0.10600698907E+02 -0.70272272897E+01 -0.29239810349E+02  0.31886098067E+02  0.00000000000E+00 0. -1.
         11    1    3    3    0    0 -0.34094504589E+01 -0.54976290172E+01 -0.22575543520E+01  0.68516296715E+01  0.51100000000E-03 0. -1.
        -11    1    3    3    0    0  0.18333331295E+02 -0.23892581646E+01  0.31952126968E+02  0.36915552400E+02  0.51100000000E-03 0.  1.
         12    1    3    3    0    0 -0.43231819289E+01  0.14914114471E+02 -0.45476226752E+00  0.15534719862E+02  0.00000000000E+00 0. -1.
</event>
<event>
 7    1  0.5832130E-012  0.5930193E+02  0.7816164E-02  0.1266605E+00
        -11   -1    0    0    0    0  0.00000000000E+00  0.00000000000E+00  0.45593999997E+02  0.45594000000E+02  0.51100000000E-03 0. -1.
         11   -1    0    0    0    0 -0.00000000000E+00 -0.00000000000E+00 -0.45593999997E+02  0.45594000000E+02  0.51100000000E-03 0.  1.
    9900012    2    1    2    0    0 -0.71671743660E+01  0.41812782484E+01 -0.30787498649E+02  0.59301928601E+02  0.49999971866E+02 0.  0.
         12    1    1    2    0    0  0.71671743660E+01 -0.41812782484E+01  0.30787498649E+02  0.31886071399E+02  0.00000000000E+00 0. -1.
         11    1    3    3    0    0 -0.85603757612E+01  0.15066832242E+02 -0.17935932957E+02  0.24939670372E+02  0.51100000000E-03 0. -1.
        -11    1    3    3    0    0 -0.11365601574E+01 -0.50555834791E+01 -0.22345028851E+02  0.22937981776E+02  0.51100000000E-03 0.  1.
        -12    1    3    3    0    0  0.25297615525E+01 -0.58299705143E+01  0.94934631600E+01  0.11424276453E+02  0.00000000000E+00 0.  1.
</event>
<event>
 7    1  0.5832130E-012  0.5930195E+02  0.7816164E-02  0.1266605E+00
        -11   -1    0    0    0    0  0.00000000000E+00  0.00000000000E+00  0.45593999997E+02  0.45594000000E+02  0.51100000000E-03 0.  1.
         11   -1    0    0    0    0 -0.00000000000E+00 -0.00000000000E+00 -0.45593999997E+02  0.45594000000E+02  0.51100000000E-03 0. -1.
    9900012    2    1    2    0    0 -0.21178315169E+02  0.11864678660E+02  0.20674349373E+02  0.59301947327E+02  0.50000006016E+02 0.  0.
         12    1    1    2    0    0  0.21178315169E+02 -0.11864678660E+02 -0.20674349373E+02  0.31886052673E+02  0.00000000000E+00 0. -1.
         11    1    3    3    0    0  0.22706870211E+01  0.98788776387E+01 -0.10900593684E+02  0.14885267411E+02  0.51100000000E-03 0. -1.
        -11    1    3    3    0    0 -0.20052218513E+01  0.68269269728E+01  0.15892941244E+02  0.17413024672E+02  0.51100000000E-03 0.  1.
        -12    1    3    3    0    0 -0.21443780339E+02 -0.48411259512E+01  0.15682001814E+02  0.27003655244E+02  0.00000000000E+00 0.  1.
</event>
<event>
 7    1  0.5832130E-012  0.5930197E+02  0.7816164E-02  0.1266605E+00
        -11   -1    0    0    0    0  0.00000000000E+00  0.00000000000E+00  0.45593999997E+02  0.45594000000E+02  0.51100000000E-03 0. -1.
         11   -1    0    0    0    0 -0.00000000000E+00 -0.00000000000E+00 -0.45593999997E+02  0.45594000000E+02  0.51100000000E-03 0.  1.
    9900012    2    1    2    0    0 -0.63001813644E+01 -0.17602498592E+02 -0.25829806756E+02  0.59301966083E+02  0.50000040224E+02 0.  0.
         12    1    1    2    0    0  0.63001813644E+01  0.17602498592E+02  0.25829806756E+02  0.31886033917E+02  0.00000000000E+00 0. -1.
         11    1    3    3    0    0 -0.44891387183E+01 -0.15040136889E+01 -0.13608337510E+02  0.14408375122E+02  0.51100000000E-03 0. -1.
        -11    1    3    3    0    0  0.12885143062E+02  0.46948872572E+01 -0.13704751914E+02  0.19387859690E+02  0.51100000000E-03 0.  1.
         12    1    3    3    0    0 -0.14696185708E+02 -0.20793372160E+02  0.14832826685E+01  0.25505731271E+02  0.00000000000E+00 0. -1.
</event>
<event>
 7    1  0.6528019E-012  0.5930193E+02  0.7816164E-02  0.1266605E+00
        -11   -1    0    0    0    0  0.00000000000E+00  0.00000000000E+00  0.45593999997E+02  0.45594000000E+02  0.51100000000E-03 0. -1.
         11   -1    0    0    0    0 -0.00000000000E+00 -0.00000000000E+00 -0.45593999997E+02  0.45594000000E+02  0.51100000000E-03 0.  1.
    9900012    2    1    2    0    0  0.19053264315E+02 -0.16722788239E+02 -0.19340190104E+02  0.59301929674E+02  0.49999973823E+02 0.  0.
         12    1    1    2    0    0 -0.19053264315E+02  0.16722788239E+02  0.19340190104E+02  0.31886070326E+02  0.00000000000E+00 0. -1.
         11    1    3    3    0    0 -0.16305630246E+01 -0.60143920639E+01 -0.10844767425E+02  0.12507622813E+02  0.51100000000E-03 0. -1.
        -11    1    3    3    0    0  0.23969746487E+02  0.29695348002E+01 -0.17734349780E+02  0.29964546483E+02  0.51100000000E-03 0.  1.
         12    1    3    3    0    0 -0.32859191479E+01 -0.13677930975E+02  0.92389271002E+01  0.16829760378E+02  0.00000000000E+00 0. -1.
</event>
<event>
 7    1  0.5832130E-012  0.5930194E+02  0.7816164E-02  0.1266605E+00
        -11   -1    0    0    0    0  0.00000000000E+00  0.00000000000E+00  0.45593999997E+02  0.45594000000E+02  0.51100000000E-03 0.  1.
         11   -1    0    0    0    0 -0.00000000000E+00 -0.00000000000E+00 -0.45593999997E+02  0.45594000000E+02  0.51100000000E-03 0. -1.
    9900012    2    1    2    0    0 -0.16771481828E+02  0.21504452017E+02  0.16522620003E+02  0.59301936727E+02  0.49999986686E+02 0.  0.
         12    1    1    2    0    0  0.16771481828E+02 -0.21504452017E+02 -0.16522620003E+02  0.31886063273E+02  0.00000000000E+00 0. -1.
         11    1    3    3    0    0 -0.15216517621E+02 -0.22092962258E+01  0.15525234817E+02  0.21850773778E+02  0.51100000000E-03 0. -1.
        -11    1    3    3    0    0 -0.14273977261E+02  0.75672699168E+01  0.40899052110E+01  0.16665453062E+02  0.51100000000E-03 0.  1.
         12    1    3    3    0    0  0.12719013055E+02  0.16146478326E+02 -0.30925200249E+01  0.20785709888E+02  0.00000000000E+00 0. -1.
</event>
<event>
 7    1  0.5832130E-012  0.5930186E+02  0.7816164E-02  0.1266605E+00
        -11   -1    0    0    0    0  0.00000000000E+00  0.00000000000E+00  0.45593999997E+02  0.45594000000E+02  0.51100000000E-03 0.  1.
         11   -1    0    0    0    0 -0.00000000000E+00 -0.00000000000E+00 -0.45593999997E+02  0.45594000000E+02  0.51100000000E-03 0. -1.
    9900012    2    1    2    0    0  0.28726016460E+02 -0.10841479937E+02 -0.86025525191E+01  0.59301864788E+02  0.49999855486E+02 0.  0.
         12    1    1    2    0    0 -0.28726016460E+02  0.10841479937E+02  0.86025525191E+01  0.31886135212E+02  0.00000000000E+00 0. -1.
         11    1    3    3    0    0  0.89763703492E+01  0.51858637877E+01 -0.36948999923E+00  0.10373279664E+02  0.51100000000E-03 0. -1.
        -11    1    3    3    0    0  0.14593743003E+02  0.35047814540E+01  0.12829185963E+02  0.19744590161E+02  0.51100000000E-03 0.  1.
         12    1    3    3    0    0  0.51559031079E+01 -0.19532125178E+02 -0.21062248483E+02  0.29183994963E+02  0.00000000000E+00 0. -1.
</event>
<event>
 7    1  0.5832130E-012  0.5930206E+02  0.7816164E-02  0.1266604E+00
        -11   -1    0    0    0    0  0.00000000000E+00  0.00000000000E+00  0.45593999997E+02  0.45594000000E+02  0.51100000000E-03 0.  1.
         11   -1    0    0    0    0 -0.00000000000E+00 -0.00000000000E+00 -0.45593999997E+02  0.45594000000E+02  0.51100000000E-03 0. -1.
    9900012    2    1    2    0    0  0.15801878502E+02  0.91492485976E+01  0.26140102306E+02  0.59302061678E+02  0.50000214566E+02 0.  0.
         12    1    1    2    0    0 -0.15801878502E+02 -0.91492485976E+01 -0.26140102306E+02  0.31885938322E+02  0.00000000000E+00 0. -1.
         11    1    3    3    0    0  0.35260132535E+01  0.19374662351E+02  0.10220296677E+02  0.22187040702E+02  0.51100000000E-03 0. -1.
        -11    1    3    3    0    0  0.38060657463E+01  0.14102169211E+01  0.21350304598E+02  0.21732702430E+02  0.51100000000E-03 0.  1.
         12    1    3    3    0    0  0.84697995022E+01 -0.11635630674E+02 -0.54304989695E+01  0.15382318546E+02  0.00000000000E+00 0. -1.
</event>
<event>
 7    1  0.5832130E-012  0.5930195E+02  0.7816164E-02  0.1266605E+00
        -11   -1    0    0    0    0  0.00000000000E+00  0.00000000000E+00  0.45593999997E+02  0.45594000000E+02  0.51100000000E-03 0. -1.
         11   -1    0    0    0    0 -0.00000000000E+00 -0.00000000000E+00 -0.45593999997E+02  0.45594000000E+02  0.51100000000E-03 0.  1.
    9900012    2    1    2    0    0  0.17107132316E+02 -0.18755623755E+02 -0.19294888505E+02  0.59301950998E+02  0.50000012712E+02 0.  0.
         12    1    1    2    0    0 -0.17107132316E+02  0.18755623755E+02  0.19294888505E+02  0.31886049002E+02  0.00000000000E+00 0. -1.
         11    1    3    3    0    0 -0.43966749859E+01  0.12076614760E+02  0.18537892606E+01  0.12985064877E+02  0.51100000000E-03 0. -1.
        -11    1    3    3    0    0  0.32947078200E+01 -0.26425992792E+01  0.28187474668E+01  0.50777719634E+01  0.51100000000E-03 0.  1.
        -12    1    3    3    0    0  0.18209099482E+02 -0.28189639236E+02 -0.23967425232E+02  0.41239114157E+02  0.00000000000E+00 0.  1.
</event>
<event>
 7    1  0.5832130E-012  0.5930195E+02  0.7816164E-02  0.1266605E+00
        -11   -1    0    0    0    0  0.00000000000E+00  0.00000000000E+00  0.45593999997E+02  0.45594000000E+02  0.51100000000E-03 0.  1.
         11   -1    0    0    0    0 -0.00000000000E+00 -0.00000000000E+00 -0.45593999997E+02  0.45594000000E+02  0.51100000000E-03 0. -1.
    9900012    2    1    2    0    0 -0.99729409422E+01 -0.28761168763E+02  0.94897764654E+01  0.59301949178E+02  0.50000009393E+02 0.  0.
         12    1    1    2    0    0  0.99729409422E+01  0.28761168763E+02 -0.94897764654E+01  0.31886050822E+02  0.00000000000E+00 0. -1.
         11    1    3    3    0    0 -0.11599110642E+02  0.39862189606E+01  0.72177706073E+01  0.14231146197E+02  0.51100000000E-03 0. -1.
        -11    1    3    3    0    0  0.12062393406E+02 -0.50611226578E+01  0.74190222085E+01  0.15038556714E+02  0.51100000000E-03 0.  1.
        -12    1    3    3    0    0 -0.10436223707E+02 -0.27686265066E+02 -0.51470163504E+01  0.30032246267E+02  0.00000000000E+00 0.  1.
</event>
<event>
 7    1  0.5832130E-012  0.5930196E+02  0.7816164E-02  0.1266605E+00
        -11   -1    0    0    0    0  0.00000000000E+00  0.00000000000E+00  0.45593999997E+02  0.45594000000E+02  0.51100000000E-03 0.  1.
         11   -1    0    0    0    0 -0.00000000000E+00 -0.00000000000E+00 -0.45593999997E+02  0.45594000000E+02  0.51100000000E-03 0. -1.
    9900012    2    1    2    0    0 -0.16648645287E+01 -0.11521732716E+02  0.29684967453E+02  0.59301962439E+02  0.50000033577E+02 0.  0.
         12    1    1    2    0    0  0.16648645287E+01  0.11521732716E+02 -0.29684967453E+02  0.31886037561E+02  0.00000000000E+00 0. -1.
         11    1    3    3    0    0  0.11430258613E+02 -0.83049804282E+01 -0.60974871471E+01  0.15388400230E+02  0.51100000000E-03 0. -1.
        -11    1    3    3    0    0  0.26558844717E+01  0.64424958691E+01  0.10377408083E+02  0.12500002965E+02  0.51100000000E-03 0.  1.
        -12    1    3    3    0    0 -0.15751007614E+02 -0.96592481565E+01  0.25405046517E+02  0.31413559243E+02  0.00000000000E+00 0.  1.
</event>
<event>
 7    1  0.5832130E-012  0.5930194E+02  0.7816164E-02  0.1266605E+00
        -11   -1    0    0    0    0  0.00000000000E+00  0.00000000000E+00  0.45593999997E+02  0.45594000000E+02  0.51100000000E-03 0. -1.
         11   -1    0    0    0    0 -0.00000000000E+00 -0.00000000000E+00 -0.45593999997E+02  0.45594000000E+02  0.51100000000E-03 0.  1.
    9900012    2    1    2    0    0 -0.29971658723E+02 -0.88969313525E+01  0.62661785719E+01  0.59301941793E+02  0.49999995924E+02 0.  0.
         12    1    1    2    0    0  0.29971658723E+02  0.88969313525E+01 -0.62661785719E+01  0.31886058207E+02  0.00000000000E+00 0. -1.
         11    1    3    3    0    0 -0.26148498119E+01  0.11423774117E+02 -0.16791538111E+01  0.11838902500E+02  0.51100000000E-03 0. -1.
        -11    1    3    3    0    0  0.25232427857E+01  0.17145819614E+01 -0.68488590481E+01  0.74975606686E+01  0.51100000000E-03 0.  1.
         12    1    3    3    0    0 -0.29880051697E+02 -0.22035287431E+02  0.14794191431E+02  0.39965478624E+02  0.00000000000E+00 0. -1.
</event>
<event>
 7    1  0.5832130E-012  0.5930194E+02  0.7816164E-02  0.1266605E+00
        -11   -1    0    0    0    0  0.00000000000E+00  0.00000000000E+00  0.45593999997E+02  0.45594000000E+02  0.51100000000E-03 0. -1.
         11   -1    0    0    0    0 -0.00000000000E+00 -0.00000000000E+00 -0.45593999997E+02  0.45594000000E+02  0.51100000000E-03 0.  1.
    9900012    2    1    2    0    0  0.17462292278E+02  0.26624016949E+02  0.17178307024E+01  0.59301939215E+02  0.49999991222E+02 0.  0.
         12    1    1    2    0    0 -0.17462292278E+02 -0.26624016949E+02 -0.17178307024E+01  0.31886060785E+02  0.00000000000E+00 0. -1.
         11    1    3    3    0    0  0.16517155199E+02  0.36238333408E+01 -0.53813511564E+01  0.17745633955E+02  0.51100000000E-03 0. -1.
        -11    1    3    3    0    0  0.75414182144E+01  0.28894825123E+02 -0.54065174400E+00  0.29867644905E+02  0.51100000000E-03 0.  1.
         12    1    3    3    0    0 -0.65962811349E+01 -0.58946415155E+01  0.76398336028E+01  0.11688660355E+02  0.00000000000E+00 0. -1.
</event>
<event>
 7    1  0.5832130E-012  0.5930196E+02  0.7816164E-02  0.1266605E+00
        -11   -1    0    0    0    0  0.00000000000E+00  0.00000000000E+00  0.45593999997E+02  0.45594000000E+02  0.51100000000E-03 0. -1.
         11   -1    0    0    0    0 -0.00000000000E+00 -0.00000000000E+00 -0.45593999997E+02  0.45594000000E+02  0.51100000000E-03 0.  1.
    9900012    2    1    2    0    0 -0.17534109152E+02 -0.16544654211E+02 -0.20869803670E+02  0.59301964311E+02  0.50000036992E+02 0.  0.
         12    1    1    2    0    0  0.17534109152E+02  0.16544654211E+02  0.20869803670E+02  0.31886035689E+02  0.00000000000E+00 0. -1.
         11    1    3    3    0    0  0.57545763702E+01 -0.68334628310E+01 -0.16737186885E+02  0.18972210955E+02  0.51100000000E-03 0. -1.
        -11    1    3    3    0    0  0.45751359400E+01 -0.10929641771E+02 -0.37804824491E+01  0.12437081085E+02  0.51100000000E-03 0.  1.
        -12    1    3    3    0    0 -0.27863821462E+02  0.12184503907E+01 -0.35213433669E+00  0.27892672271E+02  0.00000000000E+00 0.  1.
</event>
<event>
 7    1  0.5832130E-012  0.5930190E+02  0.7816164E-02  0.1266605E+00
        -11   -1    0    0    0    0  0.00000000000E+00  0.00000000000E+00  0.45593999997E+02  0.45594000000E+02  0.51100000000E-03 0.  1.
         11   -1    0    0    0    0 -0.00000000000E+00 -0.00000000000E+00 -0.45593999997E+02  0.45594000000E+02  0.51100000000E-03 0. -1.
    9900012    2    1    2    0    0  0.12659323695E+02  0.23443318837E+01  0.29171378453E+02  0.59301895045E+02  0.49999910667E+02 0.  0.
         12    1    1    2    0    0 -0.12659323695E+02 -0.23443318837E+01 -0.29171378453E+02  0.31886104955E+02  0.00000000000E+00 0. -1.
         11    1    3    3    0    0 -0.67051608660E+01 -0.29488707134E+01 -0.30625674388E+00  0.73313582764E+01  0.51100000000E-03 0. -1.
        -11    1    3    3    0    0 -0.83518959407E+01  0.10231166717E+01  0.21079224377E+02  0.22696577586E+02  0.51100000000E-03 0.  1.
        -12    1    3    3    0    0  0.27716380501E+02  0.42700859255E+01  0.83984108200E+01  0.29273959182E+02  0.00000000000E+00 0.  1.
</event>
<event>
 7    1  0.5832130E-012  0.5930195E+02  0.7816164E-02  0.1266605E+00
        -11   -1    0    0    0    0  0.00000000000E+00  0.00000000000E+00  0.45593999997E+02  0.45594000000E+02  0.51100000000E-03 0. -1.
         11   -1    0    0    0    0 -0.00000000000E+00 -0.00000000000E+00 -0.45593999997E+02  0.45594000000E+02  0.51100000000E-03 0.  1.
    9900012    2    1    2    0    0  0.35828914809E+01  0.91150477502E+01 -0.30344670076E+02  0.59301949620E+02  0.50000010198E+02 0.  0.
         12    1    1    2    0    0 -0.35828914809E+01 -0.91150477502E+01  0.30344670076E+02  0.31886050380E+02  0.00000000000E+00 0. -1.
         11    1    3    3    0    0  0.96769491332E+01  0.19897508680E+02 -0.75436967209E+01  0.23376517206E+02  0.51100000000E-03 0. -1.
        -11    1    3    3    0    0 -0.45785296735E+01 -0.56915985589E+01  0.41871376805E+01  0.84195813639E+01  0.51100000000E-03 0.  1.
        -12    1    3    3    0    0 -0.15155279788E+01 -0.50908623709E+01 -0.26988111035E+02  0.27505851050E+02  0.00000000000E+00 0.  1.
</event>
<event>
 7    1  0.5832130E-012  0.5930193E+02  0.7816164E-02  0.1266605E+00
        -11   -1    0    0    0    0  0.00000000000E+00  0.00000000000E+00  0.45593999997E+02  0.45594000000E+02  0.51100000000E-03 0.  1.
         11   -1    0    0    0    0 -0.00000000000E+00 -0.00000000000E+00 -0.45593999997E+02  0.45594000000E+02  0.51100000000E-03 0. -1.
    9900012    2    1    2    0    0  0.62396702458E+01  0.10829526633E+02  0.29334435561E+02  0.59301933426E+02  0.49999980665E+02 0.  0.
         12    1    1    2    0    0 -0.62396702458E+01 -0.10829526633E+02 -0.29334435561E+02  0.31886066574E+02  0.00000000000E+00 0. -1.
         11    1    3    3    0    0 -0.72797457451E+01  0.17730110448E+02  0.18082597150E+02  0.26350177126E+02  0.51100000000E-03 0. -1.
        -11    1    3    3    0    0  0.79330118359E+01  0.10132241006E+02  0.64492058849E+01  0.14394000187E+02  0.51100000000E-03 0.  1.
        -12    1    3    3    0    0  0.55864041551E+01 -0.17032824821E+02  0.48026325262E+01  0.18557756113E+02  0.00000000000E+00 0.  1.
</event>
<event>
 7    1  0.5832130E-012  0.5930196E+02  0.7816164E-02  0.1266605E+00
        -11   -1    0    0    0    0  0.00000000000E+00  0.00000000000E+00  0.45593999997E+02  0.45594000000E+02  0.51100000000E-03 0.  1.
         11   -1    0    0    0    0 -0.00000000000E+00 -0.00000000000E+00 -0.45593999997E+02  0.45594000000E+02  0.51100000000E-03 0. -1.
    9900012    2    1    2    0    0  0.74322830841E+01  0.27954836140E+02  0.13416711299E+02  0.59301955442E+02  0.50000020817E+02 0.  0.
         12    1    1    2    0    0 -0.74322830841E+01 -0.27954836140E+02 -0.13416711299E+02  0.31886044558E+02  0.00000000000E+00 0. -1.
         11    1    3    3    0    0  0.88247373000E+01  0.55594519565E+01 -0.80638534104E+01  0.13183672726E+02  0.51100000000E-03 0. -1.
        -11    1    3    3    0    0 -0.45216126883E+01  0.23813993780E+02 -0.12648238250E+00  0.24239787109E+02  0.51100000000E-03 0.  1.
        -12    1    3    3    0    0  0.31291584723E+01 -0.14186095963E+01  0.21607047092E+02  0.21878495606E+02  0.00000000000E+00 0.  1.
</event>
<event>
 7    1  0.5832130E-012  0.5930196E+02  0.7816164E-02  0.1266605E+00
        -11   -1    0    0    0    0  0.00000000000E+00  0.00000000000E+00  0.45593999997E+02  0.45594000000E+02  0.51100000000E-03 0. -1.
         11   -1    0    0    0    0 -0.00000000000E+00 -0.00000000000E+00 -0.45593999997E+02  0.45594000000E+02  0.51100000000E-03 0.  1.
    9900012    2    1    2    0    0 -0.15109776511E+02  0.25172208849E+01 -0.27965648874E+02  0.59301964434E+02  0.50000037216E+02 0.  0.
         12    1    1    2    0    0  0.15109776511E+02 -0.25172208849E+01  0.27965648874E+02  0.31886035566E+02  0.00000000000E+00 0. -1.
         11    1    3    3    0    0 -0.51751771010E+01 -0.80520802489E+01 -0.27447362953E+02  0.29068474121E+02  0.51100000000E-03 0. -1.
        -11    1    3    3    0    0  0.42663274172E+01 -0.33024914955E+01 -0.74569570239E+01  0.92040321613E+01  0.51100000000E-03 0.  1.
         12    1    3    3    0    0 -0.14200926827E+02  0.13871792629E+02  0.69386711028E+01  0.21029458152E+02  0.00000000000E+00 0. -1.
</event>
<event>
 7    1  0.5832130E-012  0.5930194E+02  0.7816164E-02  0.1266605E+00
        -11   -1    0    0    0    0  0.00000000000E+00  0.00000000000E+00  0.45593999997E+02  0.45594000000E+02  0.51100000000E-03 0.  1.
         11   -1    0    0    0    0 -0.00000000000E+00 -0.00000000000E+00 -0.45593999997E+02  0.45594000000E+02  0.51100000000E-03 0. -1.
    9900012    2    1    2    0    0 -0.15127871882E+02  0.28022888803E+02 -0.16081413414E+01  0.59301938420E+02  0.49999989772E+02 0.  0.
         12    1    1    2    0    0  0.15127871882E+02 -0.28022888803E+02  0.16081413414E+01  0.31886061580E+02  0.00000000000E+00 0. -1.
         11    1    3    3    0    0  0.29540199345E+01 -0.41493658437E+01 -0.86657827032E+01  0.10051828729E+02  0.51100000000E-03 0. -1.
        -11    1    3    3    0    0  0.63598364354E+01 -0.17808166492E+00  0.59170068040E+01  0.86885097884E+01  0.51100000000E-03 0.  1.
         12    1    3    3    0    0 -0.24441728252E+02  0.32350336311E+02  0.11406345578E+01  0.40561599902E+02  0.00000000000E+00 0. -1.
</event>
<event>
 7    1  0.5832130E-012  0.5930194E+02  0.7816164E-02  0.1266605E+00
        -11   -1    0    0    0    0  0.00000000000E+00  0.00000000000E+00  0.45593999997E+02  0.45594000000E+02  0.51100000000E-03 0.  1.
         11   -1    0    0    0    0 -0.00000000000E+00 -0.00000000000E+00 -0.45593999997E+02  0.45594000000E+02  0.51100000000E-03 0. -1.
    9900012    2    1    2    0    0 -0.98306782939E+01  0.42191465839E+01  0.30037937013E+02  0.59301935746E+02  0.49999984897E+02 0.  0.
         12    1    1    2    0    0  0.98306782939E+01 -0.42191465839E+01 -0.30037937013E+02  0.31886064254E+02  0.00000000000E+00 0. -1.
         11    1    3    3    0    0 -0.24269082123E+01  0.14891339241E+02  0.22488023896E+00  0.15089481079E+02  0.51100000000E-03 0. -1.
        -11    1    3    3    0    0  0.99017628894E+01  0.25890534874E+01  0.13706053509E+02  0.17105671847E+02  0.51100000000E-03 0.  1.
        -12    1    3    3    0    0 -0.17305532971E+02 -0.13261246144E+02  0.16107003265E+02  0.27106782821E+02  0.00000000000E+00 0.  1.
</event>
<event>
 7    1  0.5832130E-012  0.5930193E+02  0.7816164E-02  0.1266605E+00
        -11   -1    0    0    0    0  0.00000000000E+00  0.00000000000E+00  0.45593999997E+02  0.45594000000E+02  0.51100000000E-03 0. -1.
         11   -1    0    0    0    0 -0.00000000000E+00 -0.00000000000E+00 -0.45593999997E+02  0.45594000000E+02  0.51100000000E-03 0.  1.
    9900012    2    1    2    0    0  0.48518014051E+01  0.26878049555E+02 -0.16454549874E+02  0.59301925668E+02  0.49999966517E+02 0.  0.
         12    1    1    2    0    0 -0.48518014051E+01 -0.26878049555E+02  0.16454549874E+02  0.31886074332E+02  0.00000000000E+00 0. -1.
         11    1    3    3    0    0 -0.63838168152E+00 -0.96586323181E+01  0.21168356500E+01  0.99084662213E+01  0.51100000000E-03 0. -1.
        -11    1    3    3    0    0  0.14023051534E+02  0.89644582616E+01 -0.93699765197E+01  0.19099841531E+02  0.51100000000E-03 0.  1.
        -12    1    3    3    0    0 -0.85328684474E+01  0.27572223611E+02 -0.92014090044E+01  0.30293617916E+02  0.00000000000E+00 0.  1.
</event>
<event>
 7    1  0.5832130E-012  0.5930195E+02  0.7816164E-02  0.1266605E+00
        -11   -1    0    0    0    0  0.00000000000E+00  0.00000000000E+00  0.45593999997E+02  0.45594000000E+02  0.51100000000E-03 0.  1.
         11   -1    0    0    0    0 -0.00000000000E+00 -0.00000000000E+00 -0.45593999997E+02  0.45594000000E+02  0.51100000000E-03 0. -1.
    9900012    2    1    2    0    0  0.75417228268E+01 -0.13273140430E+02  0.27994045022E+02  0.59301946673E+02  0.50000004825E+02 0.  0.
         12    1    1    2    0    0 -0.75417228268E+01  0.13273140430E+02 -0.27994045022E+02  0.31886053327E+02  0.00000000000E+00 0. -1.
         11    1    3    3    0    0  0.73939445831E+01  0.70969807643E+01  0.63284556334E+01  0.12045202507E+02  0.51100000000E-03 0. -1.
        -11    1    3    3    0    0  0.13324814762E+02  0.23511524125E+00  0.18194734027E+02  0.22553365917E+02  0.51100000000E-03 0.  1.
        -12    1    3    3    0    0 -0.13177036518E+02 -0.20605236436E+02  0.34708553612E+01  0.24703378249E+02  0.00000000000E+00 0.  1.
</event>
<event>
 7    1  0.5832130E-012  0.5930191E+02  0.7816164E-02  0.1266605E+00
        -11   -1    0    0    0    0  0.00000000000E+00  0.00000000000E+00  0.45593999997E+02  0.45594000000E+02  0.51100000000E-03 0.  1.
         11   -1    0    0    0    0 -0.00000000000E+00 -0.00000000000E+00 -0.45593999997E+02  0.45594000000E+02  0.51100000000E-03 0. -1.
    9900012    2    1    2    0    0 -0.44141602410E+01  0.15506515416E+02  0.27509747046E+02  0.59301905640E+02  0.49999929991E+02 0.  0.
         12    1    1    2    0    0  0.44141602410E+01 -0.15506515416E+02 -0.27509747046E+02  0.31886094360E+02  0.00000000000E+00 0. -1.
         11    1    3    3    0    0  0.41430548783E+01 -0.44127946964E+01  0.15266419851E+02  0.16422583112E+02  0.51100000000E-03 0. -1.
        -11    1    3    3    0    0  0.37482037591E+01  0.26397148112E+02  0.11247936454E+02  0.28937424464E+02  0.51100000000E-03 0.  1.
        -12    1    3    3    0    0 -0.12305418878E+02 -0.64778379992E+01  0.99539074147E+00  0.13941898065E+02  0.00000000000E+00 0.  1.
</event>
<event>
 7    1  0.5832130E-012  0.5930194E+02  0.7816164E-02  0.1266605E+00
        -11   -1    0    0    0    0  0.00000000000E+00  0.00000000000E+00  0.45593999997E+02  0.45594000000E+02  0.51100000000E-03 0.  1.
         11   -1    0    0    0    0 -0.00000000000E+00 -0.00000000000E+00 -0.45593999997E+02  0.45594000000E+02  0.51100000000E-03 0. -1.
    9900012    2    1    2    0    0 -0.12770693734E+02  0.20827479235E+02  0.20490152367E+02  0.59301939507E+02  0.49999991756E+02 0.  0.
         12    1    1    2    0    0  0.12770693734E+02 -0.20827479235E+02 -0.20490152367E+02  0.31886060493E+02  0.00000000000E+00 0. -1.
         11    1    3    3    0    0 -0.24087493269E+02  0.10691711815E+02  0.17085723210E+02  0.31407673766E+02  0.51100000000E-03 0.  1.
        -11    1    3    3    0    0 -0.58276877776E+01  0.28510548067E+01 -0.42490815415E+01  0.77553305894E+01  0.51100000000E-03 0. -1.
         12    1    3    3    0    0  0.17144487312E+02  0.72847126134E+01  0.76535106978E+01  0.20138935152E+02  0.00000000000E+00 0. -1.
</event>
<event>
 7    1  0.5832130E-012  0.5930194E+02  0.7816164E-02  0.1266605E+00
        -11   -1    0    0    0    0  0.00000000000E+00  0.00000000000E+00  0.45593999997E+02  0.45594000000E+02  0.51100000000E-03 0.  1.
         11   -1    0    0    0    0 -0.00000000000E+00 -0.00000000000E+00 -0.45593999997E+02  0.45594000000E+02  0.51100000000E-03 0. -1.
    9900012    2    1    2    0    0 -0.17026160363E+02  0.19696160203E+01 -0.26887751864E+02  0.59301941538E+02  0.49999995459E+02 0.  0.
         12    1    1    2    0    0  0.17026160363E+02 -0.19696160203E+01  0.26887751864E+02  0.31886058462E+02  0.00000000000E+00 0. -1.
         11    1    3    3    0    0  0.21738560480E+01  0.46418864532E+01 -0.23546317660E+01  0.56406605088E+01  0.51100000000E-03 0. -1.
        -11    1    3    3    0    0 -0.10071828864E+02 -0.13377068119E+01 -0.36876970172E+02  0.38251040842E+02  0.51100000000E-03 0.  1.
        -12    1    3    3    0    0 -0.91281875470E+01 -0.13345636210E+01  0.12343850075E+02  0.15410240187E+02  0.00000000000E+00 0.  1.
</event>
<event>
 7    1  0.5832130E-012  0.5930195E+02  0.7816164E-02  0.1266605E+00
        -11   -1    0    0    0    0  0.00000000000E+00  0.00000000000E+00  0.45593999997E+02  0.45594000000E+02  0.51100000000E-03 0.  1.
         11   -1    0    0    0    0 -0.00000000000E+00 -0.00000000000E+00 -0.45593999997E+02  0.45594000000E+02  0.51100000000E-03 0. -1.
    9900012    2    1    2    0    0  0.13517207133E+02  0.97765671075E+01  0.27173958560E+02  0.59301950120E+02  0.50000011111E+02 0.  0.
         12    1    1    2    0    0 -0.13517207133E+02 -0.97765671075E+01 -0.27173958560E+02  0.31886049880E+02  0.00000000000E+00 0. -1.
         11    1    3    3    0    0 -0.46420429673E+01  0.54197047993E+01  0.15005589006E+01  0.72920120884E+01  0.51100000000E-03 0. -1.
        -11    1    3    3    0    0 -0.12612110611E+00  0.12637396818E+02  0.29026903467E+02  0.31658819151E+02  0.51100000000E-03 0.  1.
        -12    1    3    3    0    0  0.18285371207E+02 -0.82805345094E+01 -0.33535038075E+01  0.20351118881E+02  0.00000000000E+00 0.  1.
</event>
<event>
 7    1  0.5832130E-012  0.5930196E+02  0.7816164E-02  0.1266605E+00
        -11   -1    0    0    0    0  0.00000000000E+00  0.00000000000E+00  0.45593999997E+02  0.45594000000E+02  0.51100000000E-03 0.  1.
         11   -1    0    0    0    0 -0.00000000000E+00 -0.00000000000E+00 -0.45593999997E+02  0.45594000000E+02  0.51100000000E-03 0. -1.
    9900012    2    1    2    0    0  0.91688804510E+01 -0.43914185739E+01  0.30221961043E+02  0.59301955167E+02  0.50000020314E+02 0.  0.
         12    1    1    2    0    0 -0.91688804510E+01  0.43914185739E+01 -0.30221961043E+02  0.31886044833E+02  0.00000000000E+00 0. -1.
         11    1    3    3    0    0  0.10463008870E+02 -0.11906111004E+02  0.91027754923E+01  0.18278144211E+02  0.51100000000E-03 0. -1.
        -11    1    3    3    0    0  0.21438322706E+01 -0.11733461418E+02  0.17438680223E+02  0.21127652539E+02  0.51100000000E-03 0.  1.
        -12    1    3    3    0    0 -0.34379606899E+01  0.19248153848E+02  0.36805053283E+01  0.19896158417E+02  0.00000000000E+00 0.  1.
</event>
<event>
 7    1  0.5832130E-012  0.5930192E+02  0.7816164E-02  0.1266605E+00
        -11   -1    0    0    0    0  0.00000000000E+00  0.00000000000E+00  0.45593999997E+02  0.45594000000E+02  0.51100000000E-03 0. -1.
         11   -1    0    0    0    0 -0.00000000000E+00 -0.00000000000E+00 -0.45593999997E+02  0.45594000000E+02  0.51100000000E-03 0.  1.
    9900012    2    1    2    0    0  0.17988810717E+02 -0.23949421494E+02  0.10933890387E+02  0.59301920593E+02  0.49999957261E+02 0.  0.
         12    1    1    2    0    0 -0.17988810717E+02  0.23949421494E+02 -0.10933890387E+02  0.31886079407E+02  0.00000000000E+00 0. -1.
         11    1    3    3    0    0  0.36161498915E+01 -0.15620304231E+02  0.23121769927E+02  0.28136927499E+02  0.51100000000E-03 0. -1.
        -11    1    3    3    0    0 -0.37261164489E+01  0.44791707009E+01  0.75942831538E-01  0.58268929571E+01  0.51100000000E-03 0.  1.
        -12    1    3    3    0    0  0.18098777275E+02 -0.12808287964E+02 -0.12263822371E+02  0.25338100137E+02  0.00000000000E+00 0.  1.
</event>
<event>
 7    1  0.5832130E-012  0.5930193E+02  0.7816164E-02  0.1266605E+00
        -11   -1    0    0    0    0  0.00000000000E+00  0.00000000000E+00  0.45593999997E+02  0.45594000000E+02  0.51100000000E-03 0. -1.
         11   -1    0    0    0    0 -0.00000000000E+00 -0.00000000000E+00 -0.45593999997E+02  0.45594000000E+02  0.51100000000E-03 0.  1.
    9900012    2    1    2    0    0 -0.24042376723E+02  0.58756953517E+01 -0.20103781814E+02  0.59301925962E+02  0.49999967052E+02 0.  0.
         12    1    1    2    0    0  0.24042376723E+02 -0.58756953517E+01  0.20103781814E+02  0.31886074038E+02  0.00000000000E+00 0. -1.
         11    1    3    3    0    0 -0.11915567435E+02 -0.41680574252E+01 -0.24600788190E+00  0.12625924526E+02  0.51100000000E-03 0. -1.
        -11    1    3    3    0    0  0.10867722640E+01 -0.14368469216E+02 -0.80958824602E+01  0.16528075950E+02  0.51100000000E-03 0.  1.
        -12    1    3    3    0    0 -0.13213581552E+02  0.24412221992E+02 -0.11761891472E+02  0.30147925485E+02  0.00000000000E+00 0.  1.
</event>
<event>
 7    1  0.5832130E-012  0.5930194E+02  0.7816164E-02  0.1266605E+00
        -11   -1    0    0    0    0  0.00000000000E+00  0.00000000000E+00  0.45593999997E+02  0.45594000000E+02  0.51100000000E-03 0. -1.
         11   -1    0    0    0    0 -0.00000000000E+00 -0.00000000000E+00 -0.45593999997E+02  0.45594000000E+02  0.51100000000E-03 0.  1.
    9900012    2    1    2    0    0 -0.17005555562E+02 -0.21508568715E+02 -0.16276152239E+02  0.59301943803E+02  0.49999999590E+02 0.  0.
         12    1    1    2    0    0  0.17005555562E+02  0.21508568715E+02  0.16276152239E+02  0.31886056197E+02  0.00000000000E+00 0. -1.
         11    1    3    3    0    0  0.72753752779E+01 -0.49739000494E+01 -0.75853701656E+01  0.11627923630E+02  0.51100000000E-03 0. -1.
        -11    1    3    3    0    0 -0.21899513911E+02 -0.23367563200E+02 -0.17322789325E+02  0.36410311036E+02  0.51100000000E-03 0.  1.
        -12    1    3    3    0    0 -0.23814169281E+01  0.68328945349E+01  0.86320072525E+01  0.11263709137E+02  0.00000000000E+00 0.  1.
</event>
<event>
 7    1  0.5832130E-012  0.5930195E+02  0.7816164E-02  0.1266605E+00
        -11   -1    0    0    0    0  0.00000000000E+00  0.00000000000E+00  0.45593999997E+02  0.45594000000E+02  0.51100000000E-03 0. -1.
         11   -1    0    0    0    0 -0.00000000000E+00 -0.00000000000E+00 -0.45593999997E+02  0.45594000000E+02  0.51100000000E-03 0.  1.
    9900012    2    1    2    0    0  0.81049679667E+01  0.30388877544E+02  0.52483999120E+01  0.59301951550E+02  0.50000013719E+02 0.  0.
         12    1    1    2    0    0 -0.81049679667E+01 -0.30388877544E+02 -0.52483999120E+01  0.31886048450E+02  0.00000000000E+00 0. -1.
         11    1    3    3    0    0 -0.22458758500E+01 -0.36154517389E+01 -0.42275601972E+01  0.59989761703E+01  0.51100000000E-03 0.  1.
        -11    1    3    3    0    0 -0.47764830319E+01 -0.54383746700E+01  0.83409436373E+01  0.11043642978E+02  0.51100000000E-03 0. -1.
         12    1    3    3    0    0  0.15127326849E+02  0.39442703952E+02  0.11350164719E+01  0.42259332402E+02  0.00000000000E+00 0. -1.
</event>
<event>
 7    1  0.5832130E-012  0.5930194E+02  0.7816164E-02  0.1266605E+00
        -11   -1    0    0    0    0  0.00000000000E+00  0.00000000000E+00  0.45593999997E+02  0.45594000000E+02  0.51100000000E-03 0. -1.
         11   -1    0    0    0    0 -0.00000000000E+00 -0.00000000000E+00 -0.45593999997E+02  0.45594000000E+02  0.51100000000E-03 0.  1.
    9900012    2    1    2    0    0  0.22033937890E+01 -0.30792843977E+02 -0.79791325922E+01  0.59301941271E+02  0.49999994972E+02 0.  0.
         12    1    1    2    0    0 -0.22033937890E+01  0.30792843977E+02  0.79791325922E+01  0.31886058729E+02  0.00000000000E+00 0. -1.
         11    1    3    3    0    0  0.73336006690E+01 -0.28520537731E+01  0.55646709280E+01  0.96375034265E+01  0.51100000000E-03 0. -1.
        -11    1    3    3    0    0 -0.11322457212E+02 -0.37328692287E+01  0.98277354440E+01  0.15450460647E+02  0.51100000000E-03 0.  1.
        -12    1    3    3    0    0  0.61922503315E+01 -0.24207920975E+02 -0.23371538964E+02  0.34213977197E+02  0.00000000000E+00 0.  1.
</event>
<event>
 7    1  0.5832130E-012  0.5930185E+02  0.7816164E-02  0.1266605E+00
        -11   -1    0    0    0    0  0.00000000000E+00  0.00000000000E+00  0.45593999997E+02  0.45594000000E+02  0.51100000000E-03 0.  1.
         11   -1    0    0    0    0 -0.00000000000E+00 -0.00000000000E+00 -0.45593999997E+02  0.45594000000E+02  0.51100000000E-03 0. -1.
    9900012    2    1    2    0    0  0.29907514728E+02 -0.82141634166E+01  0.74023296583E+01  0.59301852503E+02  0.49999833080E+02 0.  0.
         12    1    1    2    0    0 -0.29907514728E+02  0.82141634166E+01 -0.74023296583E+01  0.31886147497E+02  0.00000000000E+00 0. -1.
         11    1    3    3    0    0  0.12932450868E+02  0.80816513002E+01 -0.15132696237E+01  0.15324860796E+02  0.51100000000E-03 0. -1.
        -11    1    3    3    0    0 -0.76345241619E+00  0.10639323346E+02  0.66754048160E+00  0.10687547492E+02  0.51100000000E-03 0.  1.
        -12    1    3    3    0    0  0.17738516276E+02 -0.26935138063E+02  0.82480588004E+01  0.33289444215E+02  0.00000000000E+00 0.  1.
</event>
<event>
 7    1  0.5832130E-012  0.5930197E+02  0.7816164E-02  0.1266605E+00
        -11   -1    0    0    0    0  0.00000000000E+00  0.00000000000E+00  0.45593999997E+02  0.45594000000E+02  0.51100000000E-03 0. -1.
         11   -1    0    0    0    0 -0.00000000000E+00 -0.00000000000E+00 -0.45593999997E+02  0.45594000000E+02  0.51100000000E-03 0.  1.
    9900012    2    1    2    0    0  0.13203445102E+02  0.11700202549E+02 -0.26561122384E+02  0.59301969758E+02  0.50000046927E+02 0.  0.
         12    1    1    2    0    0 -0.13203445102E+02 -0.11700202549E+02  0.26561122384E+02  0.31886030242E+02  0.00000000000E+00 0. -1.
         11    1    3    3    0    0  0.11493907786E+02 -0.38752763143E+01  0.28620949861E+01  0.12462715221E+02  0.51100000000E-03 0. -1.
        -11    1    3    3    0    0  0.11368657442E+02  0.18005242015E+02 -0.71867962317E+01  0.22474099590E+02  0.51100000000E-03 0.  1.
         12    1    3    3    0    0 -0.96591201255E+01 -0.24297631513E+01 -0.22236421139E+02  0.24365154948E+02  0.00000000000E+00 0. -1.
</event>
<event>
 7    1  0.5832130E-012  0.5930190E+02  0.7816164E-02  0.1266605E+00
        -11   -1    0    0    0    0  0.00000000000E+00  0.00000000000E+00  0.45593999997E+02  0.45594000000E+02  0.51100000000E-03 0. -1.
         11   -1    0    0    0    0 -0.00000000000E+00 -0.00000000000E+00 -0.45593999997E+02  0.45594000000E+02  0.51100000000E-03 0.  1.
    9900012    2    1    2    0    0  0.16962771527E+02  0.25332726526E+02 -0.93402701466E+01  0.59301901187E+02  0.49999921869E+02 0.  0.
         12    1    1    2    0    0 -0.16962771527E+02 -0.25332726526E+02  0.93402701466E+01  0.31886098813E+02  0.00000000000E+00 0. -1.
         11    1    3    3    0    0 -0.46048363775E+01  0.36076915947E+01  0.64391896776E+01  0.86996046273E+01  0.51100000000E-03 0. -1.
        -11    1    3    3    0    0  0.10827103725E+02 -0.85285633574E+01  0.19635854240E+01  0.13921861801E+02  0.51100000000E-03 0.  1.
        -12    1    3    3    0    0  0.10740504179E+02  0.30253598289E+02 -0.17743045248E+02  0.36680434759E+02  0.00000000000E+00 0.  1.
</event>
<event>
 7    1  0.5832130E-012  0.5930195E+02  0.7816164E-02  0.1266605E+00
        -11   -1    0    0    0    0  0.00000000000E+00  0.00000000000E+00  0.45593999997E+02  0.45594000000E+02  0.51100000000E-03 0.  1.
         11   -1    0    0    0    0 -0.00000000000E+00 -0.00000000000E+00 -0.45593999997E+02  0.45594000000E+02  0.51100000000E-03 0. -1.
    9900012    2    1    2    0    0  0.28555691898E+02  0.14178308152E+02 -0.51778940868E+00  0.59301951833E+02  0.50000014235E+02 0.  0.
         12    1    1    2    0    0 -0.28555691898E+02 -0.14178308152E+02  0.51778940868E+00  0.31886048167E+02  0.00000000000E+00 0. -1.
         11    1    3    3    0    0  0.15655396355E+02  0.99947747702E+00 -0.14111030574E+02  0.21100037307E+02  0.51100000000E-03 0. -1.
        -11    1    3    3    0    0  0.22349009199E+02  0.12666545450E+02  0.68625755614E+01  0.26589744816E+02  0.51100000000E-03 0.  1.
         12    1    3    3    0    0 -0.94487136554E+01  0.51228522536E+00  0.67306656038E+01  0.11612169710E+02  0.00000000000E+00 0. -1.
</event>
<event>
 7    1  0.5832130E-012  0.5930194E+02  0.7816164E-02  0.1266605E+00
        -11   -1    0    0    0    0  0.00000000000E+00  0.00000000000E+00  0.45593999997E+02  0.45594000000E+02  0.51100000000E-03 0.  1.
         11   -1    0    0    0    0 -0.00000000000E+00 -0.00000000000E+00 -0.45593999997E+02  0.45594000000E+02  0.51100000000E-03 0. -1.
    9900012    2    1    2    0    0 -0.20532618761E+02 -0.11736551335E+02  0.21386571525E+02  0.59301944866E+02  0.50000001529E+02 0.  0.
         12    1    1    2    0    0  0.20532618761E+02  0.11736551335E+02 -0.21386571525E+02  0.31886055134E+02  0.00000000000E+00 0. -1.
         11    1    3    3    0    0 -0.53657539851E+01 -0.12569696764E+00  0.30126485157E+00  0.53756744998E+01  0.51100000000E-03 0. -1.
        -11    1    3    3    0    0 -0.17390221924E+02 -0.27058698179E+02  0.70326569071E+01  0.32924933244E+02  0.51100000000E-03 0.  1.
         12    1    3    3    0    0  0.22233571487E+01  0.15447843812E+02  0.14052649767E+02  0.21001337122E+02  0.00000000000E+00 0. -1.
</event>
<event>
 7    1  0.5832130E-012  0.5930193E+02  0.7816164E-02  0.1266605E+00
        -11   -1    0    0    0    0  0.00000000000E+00  0.00000000000E+00  0.45593999997E+02  0.45594000000E+02  0.51100000000E-03 0.  1.
         11   -1    0    0    0    0 -0.00000000000E+00 -0.00000000000E+00 -0.45593999997E+02  0.45594000000E+02  0.51100000000E-03 0. -1.
    9900012    2    1    2    0    0 -0.11799258451E+02 -0.81427447189E+01  0.28481482641E+02  0.59301927100E+02  0.49999969128E+02 0.  0.
         12    1    1    2    0    0  0.11799258451E+02  0.81427447189E+01 -0.28481482641E+02  0.31886072900E+02  0.00000000000E+00 0. -1.
         11    1    3    3    0    0  0.57133671976E+01 -0.42462974787E+01  0.76162104178E+01  0.10424982897E+02  0.51100000000E-03 0. -1.
        -11    1    3    3    0    0 -0.22354666206E+02  0.13467775076E+02  0.13730798068E+02  0.29489775898E+02  0.51100000000E-03 0.  1.
         12    1    3    3    0    0  0.48420405565E+01 -0.17364222317E+02  0.71344741556E+01  0.19387168305E+02  0.00000000000E+00 0. -1.
</event>
<event>
 7    1  0.5832130E-012  0.5930194E+02  0.7816164E-02  0.1266605E+00
        -11   -1    0    0    0    0  0.00000000000E+00  0.00000000000E+00  0.45593999997E+02  0.45594000000E+02  0.51100000000E-03 0. -1.
         11   -1    0    0    0    0 -0.00000000000E+00 -0.00000000000E+00 -0.45593999997E+02  0.45594000000E+02  0.51100000000E-03 0.  1.
    9900012    2    1    2    0    0  0.14120466408E+02 -0.10849964637E+02 -0.26450169387E+02  0.59301940902E+02  0.49999994299E+02 0.  0.
         12    1    1    2    0    0 -0.14120466408E+02  0.10849964637E+02  0.26450169387E+02  0.31886059098E+02  0.00000000000E+00 0. -1.
         11    1    3    3    0    0  0.15451319711E+02  0.23354936627E+01  0.10629539255E+01  0.15662939787E+02  0.51100000000E-03 0. -1.
        -11    1    3    3    0    0  0.10671226605E+02 -0.11314547239E+02 -0.23927902915E+01  0.15735930291E+02  0.51100000000E-03 0.  1.
         12    1    3    3    0    0 -0.12002079908E+02 -0.18709110603E+01 -0.25120333021E+02  0.27903070824E+02  0.00000000000E+00 0. -1.
</event>
<event>
 7    1  0.5832130E-012  0.5930191E+02  0.7816164E-02  0.1266605E+00
        -11   -1    0    0    0    0  0.00000000000E+00  0.00000000000E+00  0.45593999997E+02  0.45594000000E+02  0.51100000000E-03 0.  1.
         11   -1    0    0    0    0 -0.00000000000E+00 -0.00000000000E+00 -0.45593999997E+02  0.45594000000E+02  0.51100000000E-03 0. -1.
    9900012    2    1    2    0    0 -0.25632197407E+02  0.11023963182E+02  0.15433256198E+02  0.59301910477E+02  0.49999938812E+02 0.  0.
         12    1    1    2    0    0  0.25632197407E+02 -0.11023963182E+02 -0.15433256198E+02  0.31886089523E+02  0.00000000000E+00 0. -1.
         11    1    3    3    0    0  0.12693115264E+02  0.36351544663E+00 -0.37797155519E+01  0.13248908200E+02  0.51100000000E-03 0. -1.
        -11    1    3    3    0    0 -0.48177802160E+01 -0.27787542681E+01  0.41267793231E+01  0.69255172612E+01  0.51100000000E-03 0.  1.
        -12    1    3    3    0    0 -0.33507532455E+02  0.13439202004E+02  0.15086192427E+02  0.39127485016E+02  0.00000000000E+00 0.  1.
</event>
<event>
 7    1  0.5832130E-012  0.5930195E+02  0.7816164E-02  0.1266605E+00
        -11   -1    0    0    0    0  0.00000000000E+00  0.00000000000E+00  0.45593999997E+02  0.45594000000E+02  0.51100000000E-03 0.  1.
         11   -1    0    0    0    0 -0.00000000000E+00 -0.00000000000E+00 -0.45593999997E+02  0.45594000000E+02  0.51100000000E-03 0. -1.
    9900012    2    1    2    0    0 -0.19603141503E+02  0.23752678572E+02  0.82612052693E+01  0.59301946487E+02  0.50000004485E+02 0.  0.
         12    1    1    2    0    0  0.19603141503E+02 -0.23752678572E+02 -0.82612052693E+01  0.31886053513E+02  0.00000000000E+00 0. -1.
         11    1    3    3    0    0  0.87608337372E+01 -0.15224340552E+01  0.31008800014E+01  0.94172963353E+01  0.51100000000E-03 0. -1.
        -11    1    3    3    0    0 -0.18726328299E+01  0.66051767607E+01 -0.11538343608E+02  0.13426410065E+02  0.51100000000E-03 0.  1.
        -12    1    3    3    0    0 -0.26491342411E+02  0.18669935866E+02  0.16698668876E+02  0.36458240086E+02  0.00000000000E+00 0.  1.
</event>
<event>
 7    1  0.5832130E-012  0.5930189E+02  0.7816164E-02  0.1266605E+00
        -11   -1    0    0    0    0  0.00000000000E+00  0.00000000000E+00  0.45593999997E+02  0.45594000000E+02  0.51100000000E-03 0. -1.
         11   -1    0    0    0    0 -0.00000000000E+00 -0.00000000000E+00 -0.45593999997E+02  0.45594000000E+02  0.51100000000E-03 0.  1.
    9900012    2    1    2    0    0  0.11490325848E+02 -0.20780598588E+02 -0.21280580263E+02  0.59301890766E+02  0.49999902863E+02 0.  0.
         12    1    1    2    0    0 -0.11490325848E+02  0.20780598588E+02  0.21280580263E+02  0.31886109234E+02  0.00000000000E+00 0. -1.
         11    1    3    3    0    0  0.62514197236E+01 -0.51832236477E+01 -0.30043545391E+02  0.31121707471E+02  0.51100000000E-03 0. -1.
        -11    1    3    3    0    0 -0.48273715790E+01 -0.12901494861E+02 -0.11168085989E+01  0.13820251362E+02  0.51100000000E-03 0.  1.
         12    1    3    3    0    0  0.10066277703E+02 -0.26958800797E+01  0.98797737274E+01  0.14359931933E+02  0.00000000000E+00 0. -1.
</event>
<event>
 7    1  0.5832130E-012  0.5930195E+02  0.7816164E-02  0.1266605E+00
        -11   -1    0    0    0    0  0.00000000000E+00  0.00000000000E+00  0.45593999997E+02  0.45594000000E+02  0.51100000000E-03 0.  1.
         11   -1    0    0    0    0 -0.00000000000E+00 -0.00000000000E+00 -0.45593999997E+02  0.45594000000E+02  0.51100000000E-03 0. -1.
    9900012    2    1    2    0    0 -0.15718929520E+02  0.17906554479E+02  0.21189399557E+02  0.59301951450E+02  0.50000013536E+02 0.  0.
         12    1    1    2    0    0  0.15718929520E+02 -0.17906554479E+02 -0.21189399557E+02  0.31886048550E+02  0.00000000000E+00 0. -1.
         11    1    3    3    0    0 -0.81362619334E+01  0.39172989019E+01  0.14387885582E+02  0.16986913808E+02  0.51100000000E-03 0.  1.
        -11    1    3    3    0    0  0.45549543264E+01 -0.10898799096E+01  0.18910861049E+02  0.19482199901E+02  0.51100000000E-03 0. -1.
         12    1    3    3    0    0 -0.12137621913E+02  0.15079135487E+02 -0.12109347074E+02  0.22832837741E+02  0.00000000000E+00 0. -1.
</event>
<event>
 7    1  0.5832130E-012  0.5930196E+02  0.7816164E-02  0.1266605E+00
        -11   -1    0    0    0    0  0.00000000000E+00  0.00000000000E+00  0.45593999997E+02  0.45594000000E+02  0.51100000000E-03 0.  1.
         11   -1    0    0    0    0 -0.00000000000E+00 -0.00000000000E+00 -0.45593999997E+02  0.45594000000E+02  0.51100000000E-03 0. -1.
    9900012    2    1    2    0    0 -0.16147011322E+02 -0.24006398154E+02 -0.13404712982E+02  0.59301961408E+02  0.50000031697E+02 0.  0.
         12    1    1    2    0    0  0.16147011322E+02  0.24006398154E+02  0.13404712982E+02  0.31886038592E+02  0.00000000000E+00 0. -1.
         11    1    3    3    0    0  0.45156949896E+00 -0.28694828647E+01 -0.84285055427E+01  0.89150183885E+01  0.51100000000E-03 0. -1.
        -11    1    3    3    0    0  0.88652324721E+00 -0.28735721274E+02 -0.10388381062E+02  0.30568710505E+02  0.51100000000E-03 0.  1.
         12    1    3    3    0    0 -0.17485104068E+02  0.75988059848E+01  0.54121736220E+01  0.19818232514E+02  0.00000000000E+00 0. -1.
</event>
<event>
 7    1  0.5832130E-012  0.5930206E+02  0.7816164E-02  0.1266604E+00
        -11   -1    0    0    0    0  0.00000000000E+00  0.00000000000E+00  0.45593999997E+02  0.45594000000E+02  0.51100000000E-03 0.  1.
         11   -1    0    0    0    0 -0.00000000000E+00 -0.00000000000E+00 -0.45593999997E+02  0.45594000000E+02  0.51100000000E-03 0. -1.
    9900012    2    1    2    0    0  0.30331297676E+02 -0.97990990838E+01 -0.83874451934E+00  0.59302055543E+02  0.50000203376E+02 0.  0.
         12    1    1    2    0    0 -0.30331297676E+02  0.97990990838E+01  0.83874451934E+00  0.31885944457E+02  0.00000000000E+00 0. -1.
         11    1    3    3    0    0  0.11784706891E+02  0.62444380782E+01  0.27506633024E+01  0.13617579531E+02  0.51100000000E-03 0. -1.
        -11    1    3    3    0    0  0.24899786450E+01  0.11919044390E+02  0.35004625722E+01  0.12669524510E+02  0.51100000000E-03 0.  1.
        -12    1    3    3    0    0  0.16056612140E+02 -0.27962581552E+02 -0.70898703940E+01  0.33014951502E+02  0.00000000000E+00 0.  1.
</event>
<event>
 7    1  0.5832130E-012  0.5930196E+02  0.7816164E-02  0.1266605E+00
        -11   -1    0    0    0    0  0.00000000000E+00  0.00000000000E+00  0.45593999997E+02  0.45594000000E+02  0.51100000000E-03 0. -1.
         11   -1    0    0    0    0 -0.00000000000E+00 -0.00000000000E+00 -0.45593999997E+02  0.45594000000E+02  0.51100000000E-03 0.  1.
    9900012    2    1    2    0    0  0.20071615507E+02  0.13774513240E+02 -0.20593989521E+02  0.59301962798E+02  0.50000034233E+02 0.  0.
         12    1    1    2    0    0 -0.20071615507E+02 -0.13774513240E+02  0.20593989521E+02  0.31886037202E+02  0.00000000000E+00 0. -1.
         11    1    3    3    0    0  0.13036974901E+02  0.27436236126E+02 -0.18299071255E+02  0.35462173881E+02  0.51100000000E-03 0. -1.
        -11    1    3    3    0    0 -0.27014528828E+01  0.24886019792E+01 -0.33239164050E+01  0.49537266797E+01  0.51100000000E-03 0.  1.
         12    1    3    3    0    0  0.97360934888E+01 -0.16150324865E+02  0.10289981386E+01  0.18886062238E+02  0.00000000000E+00 0. -1.
</event>
<event>
 7    1  0.5832130E-012  0.5930194E+02  0.7816164E-02  0.1266605E+00
        -11   -1    0    0    0    0  0.00000000000E+00  0.00000000000E+00  0.45593999997E+02  0.45594000000E+02  0.51100000000E-03 0. -1.
         11   -1    0    0    0    0 -0.00000000000E+00 -0.00000000000E+00 -0.45593999997E+02  0.45594000000E+02  0.51100000000E-03 0.  1.
    9900012    2    1    2    0    0 -0.21375594595E+02 -0.10337871050E+02 -0.21282232500E+02  0.59301936550E+02  0.49999986363E+02 0.  0.
         12    1    1    2    0    0  0.21375594595E+02  0.10337871050E+02  0.21282232500E+02  0.31886063450E+02  0.00000000000E+00 0. -1.
         11    1    3    3    0    0 -0.19352968759E+02  0.97265554423E+00 -0.19357754345E+02  0.27389890692E+02  0.51100000000E-03 0. -1.
        -11    1    3    3    0    0 -0.43470206849E+01 -0.13374200767E+02 -0.13760135174E+02  0.19675038889E+02  0.51100000000E-03 0.  1.
         12    1    3    3    0    0  0.23243948490E+01  0.20636741731E+01  0.11835657019E+02  0.12237006970E+02  0.00000000000E+00 0. -1.
</event>
<event>
 7    1  0.5832130E-012  0.5930194E+02  0.7816164E-02  0.1266605E+00
        -11   -1    0    0    0    0  0.00000000000E+00  0.00000000000E+00  0.45593999997E+02  0.45594000000E+02  0.51100000000E-03 0. -1.
         11   -1    0    0    0    0 -0.00000000000E+00 -0.00000000000E+00 -0.45593999997E+02  0.45594000000E+02  0.51100000000E-03 0.  1.
    9900012    2    1    2    0    0  0.12332579763E+02 -0.16282605568E+02 -0.24484797342E+02  0.59301936139E+02  0.49999985612E+02 0.  0.
         12    1    1    2    0    0 -0.12332579763E+02  0.16282605568E+02  0.24484797342E+02  0.31886063861E+02  0.00000000000E+00 0. -1.
         11    1    3    3    0    0 -0.24839129836E+01 -0.14631306671E+01 -0.65188300504E+01  0.71278131671E+01  0.51100000000E-03 0. -1.
        -11    1    3    3    0    0  0.29929029042E+02 -0.98461823572E+01 -0.17955648024E+02  0.36264299010E+02  0.51100000000E-03 0.  1.
         12    1    3    3    0    0 -0.15112536296E+02 -0.49732925434E+01 -0.10319267805E-01  0.15909823962E+02  0.00000000000E+00 0. -1.
</event>
<event>
 7    1  0.5832130E-012  0.5930204E+02  0.7816164E-02  0.1266604E+00
        -11   -1    0    0    0    0  0.00000000000E+00  0.00000000000E+00  0.45593999997E+02  0.45594000000E+02  0.51100000000E-03 0. -1.
         11   -1    0    0    0    0 -0.00000000000E+00 -0.00000000000E+00 -0.45593999997E+02  0.45594000000E+02  0.51100000000E-03 0.  1.
    9900012    2    1    2    0    0  0.10129149732E+02  0.18668767154E+02 -0.23782173681E+02  0.59302041862E+02  0.50000178426E+02 0.  0.
         12    1    1    2    0    0 -0.10129149732E+02 -0.18668767154E+02  0.23782173681E+02  0.31885958138E+02  0.00000000000E+00 0. -1.
         11    1    3    3    0    0  0.16407891127E+01  0.42863068132E+01  0.27488507422E+01  0.53498407147E+01  0.51100000000E-03 0.  1.
        -11    1    3    3    0    0  0.37699008039E+01  0.29266512703E+02 -0.24205221526E+02  0.38165870451E+02  0.51100000000E-03 0. -1.
        -12    1    3    3    0    0  0.47184598152E+01 -0.14884052362E+02 -0.23258028979E+01  0.15786330697E+02  0.00000000000E+00 0.  1.
</event>
<event>
 7    1  0.5832130E-012  0.5930188E+02  0.7816164E-02  0.1266605E+00
        -11   -1    0    0    0    0  0.00000000000E+00  0.00000000000E+00  0.45593999997E+02  0.45594000000E+02  0.51100000000E-03 0. -1.
         11   -1    0    0    0    0 -0.00000000000E+00 -0.00000000000E+00 -0.45593999997E+02  0.45594000000E+02  0.51100000000E-03 0.  1.
    9900012    2    1    2    0    0  0.26971286191E+02 -0.82303923230E+01 -0.14884043800E+02  0.59301883955E+02  0.49999890441E+02 0.  0.
         12    1    1    2    0    0 -0.26971286191E+02  0.82303923230E+01  0.14884043800E+02  0.31886116045E+02  0.00000000000E+00 0. -1.
         11    1    3    3    0    0 -0.84434506991E+01 -0.88643994059E+01  0.31897767028E+01  0.12650854209E+02  0.51100000000E-03 0. -1.
        -11    1    3    3    0    0  0.64198123705E+01  0.92718621145E+01 -0.10622890268E+02  0.15492811748E+02  0.51100000000E-03 0.  1.
         12    1    3    3    0    0  0.28994924520E+02 -0.86378550316E+01 -0.74509302349E+01  0.31158217998E+02  0.00000000000E+00 0. -1.
</event>
<event>
 7    1  0.5832130E-012  0.5930194E+02  0.7816164E-02  0.1266605E+00
        -11   -1    0    0    0    0  0.00000000000E+00  0.00000000000E+00  0.45593999997E+02  0.45594000000E+02  0.51100000000E-03 0. -1.
         11   -1    0    0    0    0 -0.00000000000E+00 -0.00000000000E+00 -0.45593999997E+02  0.45594000000E+02  0.51100000000E-03 0.  1.
    9900012    2    1    2    0    0 -0.23167441798E+02  0.21478237263E+02  0.43215170547E+01  0.59301944349E+02  0.50000000585E+02 0.  0.
         12    1    1    2    0    0  0.23167441798E+02 -0.21478237263E+02 -0.43215170547E+01  0.31886055651E+02  0.00000000000E+00 0. -1.
         11    1    3    3    0    0 -0.28476722598E+02 -0.27491758294E+01  0.11694402632E+02  0.30906969293E+02  0.51100000000E-03 0. -1.
        -11    1    3    3    0    0  0.44184787583E+01  0.17233085617E+01 -0.15604848885E+00  0.47452184701E+01  0.51100000000E-03 0.  1.
        -12    1    3    3    0    0  0.89080204252E+00  0.22504104530E+02 -0.72168370888E+01  0.23649756585E+02  0.00000000000E+00 0.  1.
</event>
<event>
 7    1  0.5832130E-012  0.5930192E+02  0.7816164E-02  0.1266605E+00
        -11   -1    0    0    0    0  0.00000000000E+00  0.00000000000E+00  0.45593999997E+02  0.45594000000E+02  0.51100000000E-03 0. -1.
         11   -1    0    0    0    0 -0.00000000000E+00 -0.00000000000E+00 -0.45593999997E+02  0.45594000000E+02  0.51100000000E-03 0.  1.
    9900012    2    1    2    0    0  0.37214582355E+00 -0.28239687433E+02 -0.14802158398E+02  0.59301916326E+02  0.49999949478E+02 0.  0.
         12    1    1    2    0    0 -0.37214582355E+00  0.28239687433E+02  0.14802158398E+02  0.31886083674E+02  0.00000000000E+00 0. -1.
         11    1    3    3    0    0  0.74292591872E+00  0.70942768126E+00 -0.14349512790E+00  0.10372163075E+01  0.51100000000E-03 0. -1.
        -11    1    3    3    0    0  0.13329277717E+02 -0.36552507981E+02 -0.35722792083E+01  0.39070662436E+02  0.51100000000E-03 0.  1.
        -12    1    3    3    0    0 -0.13700057812E+02  0.76033928669E+01 -0.11086384062E+02  0.19194037582E+02  0.00000000000E+00 0.  1.
</event>
<event>
 7    1  0.5832130E-012  0.5930195E+02  0.7816164E-02  0.1266605E+00
        -11   -1    0    0    0    0  0.00000000000E+00  0.00000000000E+00  0.45593999997E+02  0.45594000000E+02  0.51100000000E-03 0.  1.
         11   -1    0    0    0    0 -0.00000000000E+00 -0.00000000000E+00 -0.45593999997E+02  0.45594000000E+02  0.51100000000E-03 0. -1.
    9900012    2    1    2    0    0 -0.18200275152E+02 -0.21140418257E+02  0.15445163518E+02  0.59301947003E+02  0.50000005425E+02 0.  0.
         12    1    1    2    0    0  0.18200275152E+02  0.21140418257E+02 -0.15445163518E+02  0.31886052997E+02  0.00000000000E+00 0. -1.
         11    1    3    3    0    0 -0.25265692050E+02 -0.76057870607E+01  0.16374012812E+02  0.31053365154E+02  0.51100000000E-03 0. -1.
        -11    1    3    3    0    0  0.12408202136E+01 -0.13101913936E+01  0.10423353205E+02  0.10578399151E+02  0.51100000000E-03 0.  1.
         12    1    3    3    0    0  0.58245966846E+01 -0.12224439802E+02 -0.11352202499E+02  0.17670182698E+02  0.00000000000E+00 0. -1.
</event>
<event>
 7    1  0.5832130E-012  0.5930212E+02  0.7816164E-02  0.1266604E+00
        -11   -1    0    0    0    0  0.00000000000E+00  0.00000000000E+00  0.45593999997E+02  0.45594000000E+02  0.51100000000E-03 0.  1.
         11   -1    0    0    0    0 -0.00000000000E+00 -0.00000000000E+00 -0.45593999997E+02  0.45594000000E+02  0.51100000000E-03 0. -1.
    9900012    2    1    2    0    0 -0.20905364255E+01  0.96183244525E+01  0.30328643721E+02  0.59302123224E+02  0.50000326810E+02 0.  0.
         12    1    1    2    0    0  0.20905364255E+01 -0.96183244525E+01 -0.30328643721E+02  0.31885876776E+02  0.00000000000E+00 0. -1.
         11    1    3    3    0    0  0.86018832010E+01  0.16763562495E+01  0.16130422897E+02  0.18357372033E+02  0.51100000000E-03 0. -1.
        -11    1    3    3    0    0  0.24481087977E+01  0.18869104657E+02  0.14385858363E+02  0.23853495936E+02  0.51100000000E-03 0.  1.
         12    1    3    3    0    0 -0.13140528424E+02 -0.10927136454E+02 -0.18763753955E+00  0.17091255255E+02  0.00000000000E+00 0. -1.
</event>
<event>
 7    1  0.5832130E-012  0.5930196E+02  0.7816164E-02  0.1266605E+00
        -11   -1    0    0    0    0  0.00000000000E+00  0.00000000000E+00  0.45593999997E+02  0.45594000000E+02  0.51100000000E-03 0. -1.
         11   -1    0    0    0    0 -0.00000000000E+00 -0.00000000000E+00 -0.45593999997E+02  0.45594000000E+02  0.51100000000E-03 0.  1.
    9900012    2    1    2    0    0  0.17364782882E+02 -0.25191700592E+02  0.89756220488E+01  0.59301964586E+02  0.50000037493E+02 0.  0.
         12    1    1    2    0    0 -0.17364782882E+02  0.25191700592E+02 -0.89756220488E+01  0.31886035414E+02  0.00000000000E+00 0. -1.
         11    1    3    3    0    0  0.19555439060E+01  0.11927074179E+01  0.47497597671E+01  0.52732268166E+01  0.51100000000E-03 0. -1.
        -11    1    3    3    0    0  0.25374369420E+02 -0.16496501692E+02  0.17286667602E+02  0.34854297706E+02  0.51100000000E-03 0.  1.
        -12    1    3    3    0    0 -0.99651304434E+01 -0.98879063182E+01 -0.13060805321E+02  0.19174440063E+02  0.00000000000E+00 0.  1.
</event>
<event>
 7    1  0.5832130E-012  0.5930195E+02  0.7816164E-02  0.1266605E+00
        -11   -1    0    0    0    0  0.00000000000E+00  0.00000000000E+00  0.45593999997E+02  0.45594000000E+02  0.51100000000E-03 0.  1.
         11   -1    0    0    0    0 -0.00000000000E+00 -0.00000000000E+00 -0.45593999997E+02  0.45594000000E+02  0.51100000000E-03 0. -1.
    9900012    2    1    2    0    0  0.12491418961E+02 -0.28255739876E+02 -0.78928971898E+01  0.59301949608E+02  0.50000010176E+02 0.  0.
         12    1    1    2    0    0 -0.12491418961E+02  0.28255739876E+02  0.78928971898E+01  0.31886050392E+02  0.00000000000E+00 0. -1.
         11    1    3    3    0    0 -0.16960180569E+01 -0.24352122082E+01  0.52690697035E+01  0.60472995254E+01  0.51100000000E-03 0. -1.
        -11    1    3    3    0    0 -0.12923436075E+02 -0.17324785288E+02 -0.12217656026E+02  0.24828099087E+02  0.51100000000E-03 0.  1.
         12    1    3    3    0    0  0.27110873093E+02 -0.84957423796E+01 -0.94431086746E+00  0.28426550995E+02  0.00000000000E+00 0. -1.
</event>
<event>
 7    1  0.5832130E-012  0.5930194E+02  0.7816164E-02  0.1266605E+00
        -11   -1    0    0    0    0  0.00000000000E+00  0.00000000000E+00  0.45593999997E+02  0.45594000000E+02  0.51100000000E-03 0. -1.
         11   -1    0    0    0    0 -0.00000000000E+00 -0.00000000000E+00 -0.45593999997E+02  0.45594000000E+02  0.51100000000E-03 0.  1.
    9900012    2    1    2    0    0  0.23923974271E+02 -0.17480013790E+02 -0.11781917967E+02  0.59301936932E+02  0.49999987059E+02 0.  0.
         12    1    1    2    0    0 -0.23923974271E+02  0.17480013790E+02  0.11781917967E+02  0.31886063068E+02  0.00000000000E+00 0. -1.
         11    1    3    3    0    0  0.21001266141E+02 -0.23222674419E+02  0.22366246743E+01  0.31390257675E+02  0.51100000000E-03 0. -1.
        -11    1    3    3    0    0  0.10867491006E+02 -0.34600113128E+01 -0.37738041723E+01  0.12013144353E+02  0.51100000000E-03 0.  1.
         12    1    3    3    0    0 -0.79447828760E+01  0.92026719418E+01 -0.10244738469E+02  0.15898534904E+02  0.00000000000E+00 0. -1.
</event>
<event>
 7    1  0.5832130E-012  0.5930195E+02  0.7816164E-02  0.1266605E+00
        -11   -1    0    0    0    0  0.00000000000E+00  0.00000000000E+00  0.45593999997E+02  0.45594000000E+02  0.51100000000E-03 0. -1.
         11   -1    0    0    0    0 -0.00000000000E+00 -0.00000000000E+00 -0.45593999997E+02  0.45594000000E+02  0.51100000000E-03 0.  1.
    9900012    2    1    2    0    0  0.23549247106E+02 -0.69274973564E+01 -0.20350996876E+02  0.59301947677E+02  0.50000006656E+02 0.  0.
         12    1    1    2    0    0 -0.23549247106E+02  0.69274973564E+01  0.20350996876E+02  0.31886052323E+02  0.00000000000E+00 0. -1.
         11    1    3    3    0    0 -0.68606535381E+01 -0.64396262169E+01 -0.14317908434E+02  0.17133004844E+02  0.51100000000E-03 0. -1.
        -11    1    3    3    0    0  0.13596537455E+02  0.10041315565E+02 -0.12806683331E+02  0.21206248778E+02  0.51100000000E-03 0.  1.
         12    1    3    3    0    0  0.16813363188E+02 -0.10529186704E+02  0.67735948888E+01  0.20962694055E+02  0.00000000000E+00 0. -1.
</event>
<event>
 7    1  0.5832130E-012  0.5930191E+02  0.7816164E-02  0.1266605E+00
        -11   -1    0    0    0    0  0.00000000000E+00  0.00000000000E+00  0.45593999997E+02  0.45594000000E+02  0.51100000000E-03 0.  1.
         11   -1    0    0    0    0 -0.00000000000E+00 -0.00000000000E+00 -0.45593999997E+02  0.45594000000E+02  0.51100000000E-03 0. -1.
    9900012    2    1    2    0    0 -0.24965489879E+02 -0.17394172384E+02 -0.95336170919E+01  0.59301909417E+02  0.49999936878E+02 0.  0.
         12    1    1    2    0    0  0.24965489879E+02  0.17394172384E+02  0.95336170919E+01  0.31886090583E+02  0.00000000000E+00 0. -1.
         11    1    3    3    0    0 -0.84586096429E+01  0.50656164561E+00 -0.77657561547E+01  0.11493983239E+02  0.51100000000E-03 0. -1.
        -11    1    3    3    0    0 -0.16958783196E+02 -0.20477593663E+02 -0.17519016414E+02  0.31840981551E+02  0.51100000000E-03 0.  1.
        -12    1    3    3    0    0  0.45190296032E+00  0.25768596328E+01  0.15751155477E+02  0.15966944627E+02  0.00000000000E+00 0.  1.
</event>
<event>
 7    1  0.5832130E-012  0.5930196E+02  0.7816164E-02  0.1266605E+00
        -11   -1    0    0    0    0  0.00000000000E+00  0.00000000000E+00  0.45593999997E+02  0.45594000000E+02  0.51100000000E-03 0. -1.
         11   -1    0    0    0    0 -0.00000000000E+00 -0.00000000000E+00 -0.45593999997E+02  0.45594000000E+02  0.51100000000E-03 0.  1.
    9900012    2    1    2    0    0 -0.83683700736E+01  0.19488434759E+02 -0.23809473206E+02  0.59301957264E+02  0.50000024140E+02 0.  0.
         12    1    1    2    0    0  0.83683700736E+01 -0.19488434759E+02  0.23809473206E+02  0.31886042736E+02  0.00000000000E+00 0. -1.
         11    1    3    3    0    0  0.58255015298E+01  0.48795471635E+01 -0.35160430970E+01  0.83731122001E+01  0.51100000000E-03 0. -1.
        -11    1    3    3    0    0  0.34592421190E+01  0.47834414737E+01 -0.28512900507E+02  0.29117574830E+02  0.51100000000E-03 0.  1.
         12    1    3    3    0    0 -0.17653113722E+02  0.98254461218E+01  0.82194703986E+01  0.21811270234E+02  0.00000000000E+00 0. -1.
</event>
<event>
 7    1  0.5832130E-012  0.5930194E+02  0.7816164E-02  0.1266605E+00
        -11   -1    0    0    0    0  0.00000000000E+00  0.00000000000E+00  0.45593999997E+02  0.45594000000E+02  0.51100000000E-03 0.  1.
         11   -1    0    0    0    0 -0.00000000000E+00 -0.00000000000E+00 -0.45593999997E+02  0.45594000000E+02  0.51100000000E-03 0. -1.
    9900012    2    1    2    0    0  0.14897811117E+02 -0.10841920118E+02 -0.26023621753E+02  0.59301938828E+02  0.49999990517E+02 0.  0.
         12    1    1    2    0    0 -0.14897811117E+02  0.10841920118E+02  0.26023621753E+02  0.31886061172E+02  0.00000000000E+00 0. -1.
         11    1    3    3    0    0  0.12346720538E+02 -0.77366555327E+01  0.17558718228E+00  0.14571485099E+02  0.51100000000E-03 0. -1.
        -11    1    3    3    0    0  0.94036355645E+01  0.11767016637E+02 -0.15563663811E+01  0.15143094761E+02  0.51100000000E-03 0.  1.
         12    1    3    3    0    0 -0.68525449861E+01 -0.14872281223E+02 -0.24642842554E+02  0.29587358968E+02  0.00000000000E+00 0. -1.
</event>
<event>
 7    1  0.5832130E-012  0.5930195E+02  0.7816164E-02  0.1266605E+00
        -11   -1    0    0    0    0  0.00000000000E+00  0.00000000000E+00  0.45593999997E+02  0.45594000000E+02  0.51100000000E-03 0.  1.
         11   -1    0    0    0    0 -0.00000000000E+00 -0.00000000000E+00 -0.45593999997E+02  0.45594000000E+02  0.51100000000E-03 0. -1.
    9900012    2    1    2    0    0 -0.14739140527E+02  0.77194245385E+01  0.27200888281E+02  0.59301951296E+02  0.50000013255E+02 0.  0.
         12    1    1    2    0    0  0.14739140527E+02 -0.77194245385E+01 -0.27200888281E+02  0.31886048704E+02  0.00000000000E+00 0. -1.
         11    1    3    3    0    0 -0.90083862425E+01 -0.12675532624E+02  0.14914613797E+02  0.21546829348E+02  0.51100000000E-03 0. -1.
        -11    1    3    3    0    0 -0.15697565107E+02  0.14225449066E+02  0.14703098855E+02  0.25786780869E+02  0.51100000000E-03 0.  1.
         12    1    3    3    0    0  0.99668108223E+01  0.61695080965E+01 -0.24168243705E+01  0.11968341078E+02  0.00000000000E+00 0. -1.
</event>
<event>
 7    1  0.5832130E-012  0.5930197E+02  0.7816164E-02  0.1266605E+00
        -11   -1    0    0    0    0  0.00000000000E+00  0.00000000000E+00  0.45593999997E+02  0.45594000000E+02  0.51100000000E-03 0.  1.
         11   -1    0    0    0    0 -0.00000000000E+00 -0.00000000000E+00 -0.45593999997E+02  0.45594000000E+02  0.51100000000E-03 0. -1.
    9900012    2    1    2    0    0 -0.21301942906E+02 -0.22976588651E+01  0.23614977681E+02  0.59301965773E+02  0.50000039659E+02 0.  0.
         12    1    1    2    0    0  0.21301942906E+02  0.22976588651E+01 -0.23614977681E+02  0.31886034227E+02  0.00000000000E+00 0. -1.
         11    1    3    3    0    0 -0.10385308937E+02 -0.82651277542E+01 -0.16349165718E+01  0.13373104762E+02  0.51100000000E-03 0. -1.
        -11    1    3    3    0    0 -0.19658561247E+02 -0.89031706914E+00  0.28242345271E+02  0.34422111519E+02  0.51100000000E-03 0.  1.
        -12    1    3    3    0    0  0.87419272781E+01  0.68577859582E+01 -0.29924510181E+01  0.11506749492E+02  0.00000000000E+00 0.  1.
</event>
<event>
 7    1  0.5832130E-012  0.5930190E+02  0.7816164E-02  0.1266605E+00
        -11   -1    0    0    0    0  0.00000000000E+00  0.00000000000E+00  0.45593999997E+02  0.45594000000E+02  0.51100000000E-03 0.  1.
         11   -1    0    0    0    0 -0.00000000000E+00 -0.00000000000E+00 -0.45593999997E+02  0.45594000000E+02  0.51100000000E-03 0. -1.
    9900012    2    1    2    0    0  0.18323375276E+02 -0.25785575512E+02  0.40101418141E+01  0.59301902350E+02  0.49999923989E+02 0.  0.
         12    1    1    2    0    0 -0.18323375276E+02  0.25785575512E+02 -0.40101418141E+01  0.31886097650E+02  0.00000000000E+00 0. -1.
         11    1    3    3    0    0  0.71660581030E+00  0.10864589355E+02  0.12496224281E+01  0.10959670717E+02  0.51100000000E-03 0. -1.
        -11    1    3    3    0    0  0.17323461830E+02 -0.72767288578E+01  0.25866474437E+01  0.18966914823E+02  0.51100000000E-03 0.  1.
        -12    1    3    3    0    0  0.28330763551E+00 -0.29373436010E+02  0.17387194229E+00  0.29375316810E+02  0.00000000000E+00 0.  1.
</event>
<event>
 7    1  0.5832130E-012  0.5930192E+02  0.7816164E-02  0.1266605E+00
        -11   -1    0    0    0    0  0.00000000000E+00  0.00000000000E+00  0.45593999997E+02  0.45594000000E+02  0.51100000000E-03 0.  1.
         11   -1    0    0    0    0 -0.00000000000E+00 -0.00000000000E+00 -0.45593999997E+02  0.45594000000E+02  0.51100000000E-03 0. -1.
    9900012    2    1    2    0    0  0.47376322127E+01 -0.28723002661E+02  0.13010241170E+02  0.59301915008E+02  0.49999947074E+02 0.  0.
         12    1    1    2    0    0 -0.47376322127E+01  0.28723002661E+02 -0.13010241170E+02  0.31886084992E+02  0.00000000000E+00 0. -1.
         11    1    3    3    0    0 -0.11296806166E+01 -0.53464142686E+01 -0.16529512276E+01  0.57089904404E+01  0.51100000000E-03 0. -1.
        -11    1    3    3    0    0 -0.56385175042E+01 -0.29849390524E+02 -0.40980413063E+01  0.30652454015E+02  0.51100000000E-03 0.  1.
         12    1    3    3    0    0  0.11505830334E+02  0.64728021316E+01  0.18761233704E+02  0.22940470553E+02  0.00000000000E+00 0. -1.
</event>
<event>
 7    1  0.5832130E-012  0.5930194E+02  0.7816164E-02  0.1266605E+00
        -11   -1    0    0    0    0  0.00000000000E+00  0.00000000000E+00  0.45593999997E+02  0.45594000000E+02  0.51100000000E-03 0.  1.
         11   -1    0    0    0    0 -0.00000000000E+00 -0.00000000000E+00 -0.45593999997E+02  0.45594000000E+02  0.51100000000E-03 0. -1.
    9900012    2    1    2    0    0  0.75347950487E+01 -0.23995627678E+02  0.19599938106E+02  0.59301939443E+02  0.49999991639E+02 0.  0.
         12    1    1    2    0    0 -0.75347950487E+01  0.23995627678E+02 -0.19599938106E+02  0.31886060557E+02  0.00000000000E+00 0. -1.
         11    1    3    3    0    0  0.73877314393E+01 -0.18710431203E+02  0.63761797975E+00  0.20126235827E+02  0.51100000000E-03 0. -1.
        -11    1    3    3    0    0  0.10648524304E+02 -0.15776185790E+02  0.13599112167E+02  0.23392626187E+02  0.51100000000E-03 0.  1.
         12    1    3    3    0    0 -0.10501460694E+02  0.10490989315E+02  0.53632079588E+01  0.15783077429E+02  0.00000000000E+00 0. -1.
</event>
<event>
 7    1  0.6028183E-012  0.5930193E+02  0.7816164E-02  0.1266605E+00
        -11   -1    0    0    0    0  0.00000000000E+00  0.00000000000E+00  0.45593999997E+02  0.45594000000E+02  0.51100000000E-03 0. -1.
         11   -1    0    0    0    0 -0.00000000000E+00 -0.00000000000E+00 -0.45593999997E+02  0.45594000000E+02  0.51100000000E-03 0.  1.
    9900012    2    1    2    0    0  0.10992629499E+02  0.20761806345E+02 -0.21559944889E+02  0.59301925773E+02  0.49999966708E+02 0.  0.
         12    1    1    2    0    0 -0.10992629499E+02 -0.20761806345E+02  0.21559944889E+02  0.31886074227E+02  0.00000000000E+00 0. -1.
         11    1    3    3    0    0 -0.56729288827E+01 -0.52727276759E+01 -0.83545353180E+00  0.77898499419E+01  0.51100000000E-03 0. -1.
        -11    1    3    3    0    0 -0.48989100885E+01  0.24495872553E+02 -0.15035866018E+02  0.29156892142E+02  0.51100000000E-03 0.  1.
         12    1    3    3    0    0  0.21564468470E+02  0.15386614674E+01 -0.56886253387E+01  0.22355183689E+02  0.00000000000E+00 0. -1.
</event>
<event>
 7    1  0.5832130E-012  0.5930192E+02  0.7816164E-02  0.1266605E+00
        -11   -1    0    0    0    0  0.00000000000E+00  0.00000000000E+00  0.45593999997E+02  0.45594000000E+02  0.51100000000E-03 0.  1.
         11   -1    0    0    0    0 -0.00000000000E+00 -0.00000000000E+00 -0.45593999997E+02  0.45594000000E+02  0.51100000000E-03 0. -1.
    9900012    2    1    2    0    0 -0.26599469661E+02 -0.16920941011E+02  0.47824705042E+01  0.59301920670E+02  0.49999957401E+02 0.  0.
         12    1    1    2    0    0  0.26599469661E+02  0.16920941011E+02 -0.47824705042E+01  0.31886079330E+02  0.00000000000E+00 0. -1.
         11    1    3    3    0    0  0.57513074215E+01 -0.90060472388E+01  0.50775317551E+01  0.11830796799E+02  0.51100000000E-03 0. -1.
        -11    1    3    3    0    0 -0.39399846739E+01 -0.16669091372E+02 -0.37742608888E+01  0.17539302493E+02  0.51100000000E-03 0.  1.
        -12    1    3    3    0    0 -0.28410792408E+02  0.87541976002E+01  0.34791996379E+01  0.29931821378E+02  0.00000000000E+00 0.  1.
</event>
<event>
 7    1  0.5832130E-012  0.5930194E+02  0.7816164E-02  0.1266605E+00
        -11   -1    0    0    0    0  0.00000000000E+00  0.00000000000E+00  0.45593999997E+02  0.45594000000E+02  0.51100000000E-03 0. -1.
         11   -1    0    0    0    0 -0.00000000000E+00 -0.00000000000E+00 -0.45593999997E+02  0.45594000000E+02  0.51100000000E-03 0.  1.
    9900012    2    1    2    0    0  0.19400615521E+02  0.23002459912E+02 -0.10546280921E+02  0.59301935867E+02  0.49999985117E+02 0.  0.
         12    1    1    2    0    0 -0.19400615521E+02 -0.23002459912E+02  0.10546280921E+02  0.31886064133E+02  0.00000000000E+00 0. -1.
         11    1    3    3    0    0  0.15939507984E+01  0.16645476975E+02 -0.19561407431E+02  0.25734436924E+02  0.51100000000E-03 0. -1.
        -11    1    3    3    0    0  0.10425540268E+02  0.11978116570E+02 -0.50978856755E+01  0.16677997634E+02  0.51100000000E-03 0.  1.
         12    1    3    3    0    0  0.73811244545E+01 -0.56211336324E+01  0.14113012185E+02  0.16889501309E+02  0.00000000000E+00 0. -1.
</event>
<event>
 7    1  0.5832130E-012  0.5930195E+02  0.7816164E-02  0.1266605E+00
        -11   -1    0    0    0    0  0.00000000000E+00  0.00000000000E+00  0.45593999997E+02  0.45594000000E+02  0.51100000000E-03 0. -1.
         11   -1    0    0    0    0 -0.00000000000E+00 -0.00000000000E+00 -0.45593999997E+02  0.45594000000E+02  0.51100000000E-03 0.  1.
    9900012    2    1    2    0    0  0.21554519060E+02 -0.19860483591E+02 -0.12557238074E+02  0.59301947745E+02  0.50000006779E+02 0.  0.
         12    1    1    2    0    0 -0.21554519060E+02  0.19860483591E+02  0.12557238074E+02  0.31886052255E+02  0.00000000000E+00 0. -1.
         11    1    3    3    0    0 -0.25579662531E+01 -0.66141607082E+01  0.34571349260E+01  0.78893659685E+01  0.51100000000E-03 0. -1.
        -11    1    3    3    0    0  0.27212968439E+02 -0.23734746791E+02 -0.17918862309E+02  0.40310910225E+02  0.51100000000E-03 0.  1.
         12    1    3    3    0    0 -0.31004831255E+01  0.10488423909E+02  0.19044893090E+01  0.11101671551E+02  0.00000000000E+00 0. -1.
</event>
<event>
 7    1  0.5832130E-012  0.5930187E+02  0.7816164E-02  0.1266605E+00
        -11   -1    0    0    0    0  0.00000000000E+00  0.00000000000E+00  0.45593999997E+02  0.45594000000E+02  0.51100000000E-03 0. -1.
         11   -1    0    0    0    0 -0.00000000000E+00 -0.00000000000E+00 -0.45593999997E+02  0.45594000000E+02  0.51100000000E-03 0.  1.
    9900012    2    1    2    0    0  0.29229094713E+02  0.27831519368E+01 -0.12435395308E+02  0.59301874978E+02  0.49999874070E+02 0.  0.
         12    1    1    2    0    0 -0.29229094713E+02 -0.27831519368E+01  0.12435395308E+02  0.31886125022E+02  0.00000000000E+00 0. -1.
         11    1    3    3    0    0 -0.52409284776E+01 -0.12838615755E+01 -0.82793822102E+01  0.98824997797E+01  0.51100000000E-03 0. -1.
        -11    1    3    3    0    0 -0.12236796996E+00  0.44524868810E+01  0.10836217677E+02  0.11715939021E+02  0.51100000000E-03 0.  1.
        -12    1    3    3    0    0  0.34592391161E+02 -0.38547336872E+00 -0.14992230775E+02  0.37703436177E+02  0.00000000000E+00 0.  1.
</event>
<event>
 7    1  0.5832130E-012  0.5930194E+02  0.7816164E-02  0.1266605E+00
        -11   -1    0    0    0    0  0.00000000000E+00  0.00000000000E+00  0.45593999997E+02  0.45594000000E+02  0.51100000000E-03 0.  1.
         11   -1    0    0    0    0 -0.00000000000E+00 -0.00000000000E+00 -0.45593999997E+02  0.45594000000E+02  0.51100000000E-03 0. -1.
    9900012    2    1    2    0    0  0.15726960277E+02 -0.11824861059E+02  0.25090961843E+02  0.59301937452E+02  0.49999988007E+02 0.  0.
         12    1    1    2    0    0 -0.15726960277E+02  0.11824861059E+02 -0.25090961843E+02  0.31886062548E+02  0.00000000000E+00 0. -1.
         11    1    3    3    0    0  0.25341439606E+01 -0.24597198378E+02  0.32191263842E+01  0.24936054792E+02  0.51100000000E-03 0. -1.
        -11    1    3    3    0    0  0.86432963133E+01 -0.36129582455E+01  0.61481310794E+01  0.11205335982E+02  0.51100000000E-03 0.  1.
         12    1    3    3    0    0  0.45495200028E+01  0.16385295564E+02  0.15723704380E+02  0.23160546677E+02  0.00000000000E+00 0. -1.
</event>
<event>
 7    1  0.5832130E-012  0.5930184E+02  0.7816164E-02  0.1266605E+00
        -11   -1    0    0    0    0  0.00000000000E+00  0.00000000000E+00  0.45593999997E+02  0.45594000000E+02  0.51100000000E-03 0.  1.
         11   -1    0    0    0    0 -0.00000000000E+00 -0.00000000000E+00 -0.45593999997E+02  0.45594000000E+02  0.51100000000E-03 0. -1.
    9900012    2    1    2    0    0  0.15342867800E+02 -0.63091681419E+01  0.27230825328E+02  0.59301842454E+02  0.49999814754E+02 0.  0.
         12    1    1    2    0    0 -0.15342867800E+02  0.63091681419E+01 -0.27230825328E+02  0.31886157546E+02  0.00000000000E+00 0. -1.
         11    1    3    3    0    0  0.10738927180E+01 -0.73276989979E+01 -0.85537906942E+01  0.11314404698E+02  0.51100000000E-03 0. -1.
        -11    1    3    3    0    0 -0.40420100372E+01 -0.98562806151E+01  0.12798866916E+02  0.16652180256E+02  0.51100000000E-03 0.  1.
         12    1    3    3    0    0  0.18310985119E+02  0.10874811471E+02  0.22985749107E+02  0.31335257500E+02  0.00000000000E+00 0. -1.
</event>
<event>
 7    1  0.5832130E-012  0.5930196E+02  0.7816164E-02  0.1266605E+00
        -11   -1    0    0    0    0  0.00000000000E+00  0.00000000000E+00  0.45593999997E+02  0.45594000000E+02  0.51100000000E-03 0.  1.
         11   -1    0    0    0    0 -0.00000000000E+00 -0.00000000000E+00 -0.45593999997E+02  0.45594000000E+02  0.51100000000E-03 0. -1.
    9900012    2    1    2    0    0  0.26131501735E+02 -0.18068157416E+02 -0.27214187741E+01  0.59301955788E+02  0.50000021448E+02 0.  0.
         12    1    1    2    0    0 -0.26131501735E+02  0.18068157416E+02  0.27214187741E+01  0.31886044212E+02  0.00000000000E+00 0. -1.
         11    1    3    3    0    0  0.86011126309E+01  0.17969241289E+01 -0.60244339413E+01  0.10653726080E+02  0.51100000000E-03 0. -1.
        -11    1    3    3    0    0  0.25926578851E+02  0.11019477023E+01  0.18537207638E+01  0.26016111557E+02  0.51100000000E-03 0.  1.
         12    1    3    3    0    0 -0.83961897462E+01 -0.20967029247E+02  0.14492944034E+01  0.22632118151E+02  0.00000000000E+00 0. -1.
</event>
<event>
 7    1  0.5832130E-012  0.5930193E+02  0.7816164E-02  0.1266605E+00
        -11   -1    0    0    0    0  0.00000000000E+00  0.00000000000E+00  0.45593999997E+02  0.45594000000E+02  0.51100000000E-03 0. -1.
         11   -1    0    0    0    0 -0.00000000000E+00 -0.00000000000E+00 -0.45593999997E+02  0.45594000000E+02  0.51100000000E-03 0.  1.
    9900012    2    1    2    0    0 -0.29162919441E+02 -0.96337330964E+01 -0.85695303586E+01  0.59301928836E+02  0.49999972295E+02 0.  0.
         12    1    1    2    0    0  0.29162919441E+02  0.96337330964E+01  0.85695303586E+01  0.31886071164E+02  0.00000000000E+00 0. -1.
         11    1    3    3    0    0 -0.51539633618E+01  0.11270552844E+02 -0.76790281295E+01  0.14579306328E+02  0.51100000000E-03 0. -1.
        -11    1    3    3    0    0 -0.98605960200E+01  0.54572447940E+01 -0.81840758343E+01  0.13928100091E+02  0.51100000000E-03 0.  1.
         12    1    3    3    0    0 -0.14148360059E+02 -0.26361530734E+02  0.72935736052E+01  0.30794522418E+02  0.00000000000E+00 0. -1.
</event>
<event>
 7    1  0.5832130E-012  0.5930201E+02  0.7816164E-02  0.1266605E+00
        -11   -1    0    0    0    0  0.00000000000E+00  0.00000000000E+00  0.45593999997E+02  0.45594000000E+02  0.51100000000E-03 0.  1.
         11   -1    0    0    0    0 -0.00000000000E+00 -0.00000000000E+00 -0.45593999997E+02  0.45594000000E+02  0.51100000000E-03 0. -1.
    9900012    2    1    2    0    0 -0.78323319049E+00 -0.31263215753E+02 -0.62220649173E+01  0.59302012400E+02  0.50000124694E+02 0.  0.
         12    1    1    2    0    0  0.78323319049E+00  0.31263215753E+02  0.62220649173E+01  0.31885987600E+02  0.00000000000E+00 0. -1.
         11    1    3    3    0    0  0.10285224858E+02 -0.66809840947E+01  0.79680640953E+01  0.14625711762E+02  0.51100000000E-03 0.  1.
        -11    1    3    3    0    0 -0.76147995811E+01 -0.68100635144E+01  0.10110381307E+02  0.14372958922E+02  0.51100000000E-03 0. -1.
         12    1    3    3    0    0 -0.34536584673E+01 -0.17772168143E+02 -0.24300510320E+02  0.30303341716E+02  0.00000000000E+00 0. -1.
</event>
<event>
 7    1  0.5832130E-012  0.5930199E+02  0.7816164E-02  0.1266605E+00
        -11   -1    0    0    0    0  0.00000000000E+00  0.00000000000E+00  0.45593999997E+02  0.45594000000E+02  0.51100000000E-03 0.  1.
         11   -1    0    0    0    0 -0.00000000000E+00 -0.00000000000E+00 -0.45593999997E+02  0.45594000000E+02  0.51100000000E-03 0. -1.
    9900012    2    1    2    0    0 -0.14703944311E+02 -0.22837492179E+02  0.16702106780E+02  0.59301993693E+02  0.50000090578E+02 0.  0.
         12    1    1    2    0    0  0.14703944311E+02  0.22837492179E+02 -0.16702106780E+02  0.31886006307E+02  0.00000000000E+00 0. -1.
         11    1    3    3    0    0 -0.49542603780E+00 -0.10687463732E+02  0.17443723945E+01  0.10840210482E+02  0.51100000000E-03 0. -1.
        -11    1    3    3    0    0 -0.20054674159E+02 -0.12307152065E+02 -0.79365569360E+01  0.24832335448E+02  0.51100000000E-03 0.  1.
         12    1    3    3    0    0  0.58461558857E+01  0.15712361873E+00  0.22894291321E+02  0.23629447763E+02  0.00000000000E+00 0. -1.
</event>
<event>
 7    1  0.5832130E-012  0.5930192E+02  0.7816164E-02  0.1266605E+00
        -11   -1    0    0    0    0  0.00000000000E+00  0.00000000000E+00  0.45593999997E+02  0.45594000000E+02  0.51100000000E-03 0.  1.
         11   -1    0    0    0    0 -0.00000000000E+00 -0.00000000000E+00 -0.45593999997E+02  0.45594000000E+02  0.51100000000E-03 0. -1.
    9900012    2    1    2    0    0  0.10376548976E+01 -0.17127804336E+02  0.26875332970E+02  0.59301922610E+02  0.49999960939E+02 0.  0.
         12    1    1    2    0    0 -0.10376548976E+01  0.17127804336E+02 -0.26875332970E+02  0.31886077390E+02  0.00000000000E+00 0. -1.
         11    1    3    3    0    0 -0.13519972562E+00 -0.35359082380E+01  0.19629472954E+02  0.19945855077E+02  0.51100000000E-03 0. -1.
        -11    1    3    3    0    0  0.25881457123E+01 -0.25612724847E+02  0.86809606029E+01  0.27167429940E+02  0.51100000000E-03 0.  1.
         12    1    3    3    0    0 -0.14152910891E+01  0.12020828749E+02 -0.14351005869E+01  0.12188637593E+02  0.00000000000E+00 0. -1.
</event>
<event>
 7    1  0.5832130E-012  0.5930194E+02  0.7816164E-02  0.1266605E+00
        -11   -1    0    0    0    0  0.00000000000E+00  0.00000000000E+00  0.45593999997E+02  0.45594000000E+02  0.51100000000E-03 0. -1.
         11   -1    0    0    0    0 -0.00000000000E+00 -0.00000000000E+00 -0.45593999997E+02  0.45594000000E+02  0.51100000000E-03 0.  1.
    9900012    2    1    2    0    0 -0.16647573492E+02 -0.23780625373E+02 -0.13193215815E+02  0.59301940509E+02  0.49999993583E+02 0.  0.
         12    1    1    2    0    0  0.16647573492E+02  0.23780625373E+02  0.13193215815E+02  0.31886059491E+02  0.00000000000E+00 0. -1.
         11    1    3    3    0    0  0.97905987624E+01  0.66886117503E+01 -0.11705665173E+02  0.16661811086E+02  0.51100000000E-03 0. -1.
        -11    1    3    3    0    0 -0.34677417753E+01 -0.98999475149E+01 -0.49746942879E+01  0.11609555432E+02  0.51100000000E-03 0.  1.
        -12    1    3    3    0    0 -0.22970430479E+02 -0.20569289608E+02  0.34871436458E+01  0.31030573991E+02  0.00000000000E+00 0.  1.
</event>
<event>
 7    1  0.5832130E-012  0.5930197E+02  0.7816164E-02  0.1266605E+00
        -11   -1    0    0    0    0  0.00000000000E+00  0.00000000000E+00  0.45593999997E+02  0.45594000000E+02  0.51100000000E-03 0. -1.
         11   -1    0    0    0    0 -0.00000000000E+00 -0.00000000000E+00 -0.45593999997E+02  0.45594000000E+02  0.51100000000E-03 0.  1.
    9900012    2    1    2    0    0 -0.51754845186E+01 -0.11788500892E+02 -0.29171297708E+02  0.59301968524E+02  0.50000044676E+02 0.  0.
         12    1    1    2    0    0  0.51754845186E+01  0.11788500892E+02  0.29171297708E+02  0.31886031476E+02  0.00000000000E+00 0. -1.
         11    1    3    3    0    0  0.41853646719E+01 -0.20759336041E+01  0.89718212530E+01  0.10115352422E+02  0.51100000000E-03 0. -1.
        -11    1    3    3    0    0  0.24522408150E+01  0.70394191206E+01 -0.21371222551E+01  0.77546243213E+01  0.51100000000E-03 0.  1.
        -12    1    3    3    0    0 -0.11813090006E+02 -0.16751986409E+02 -0.36005996706E+02  0.41431991781E+02  0.00000000000E+00 0.  1.
</event>
<event>
 7    1  0.5832130E-012  0.5930196E+02  0.7816164E-02  0.1266605E+00
        -11   -1    0    0    0    0  0.00000000000E+00  0.00000000000E+00  0.45593999997E+02  0.45594000000E+02  0.51100000000E-03 0.  1.
         11   -1    0    0    0    0 -0.00000000000E+00 -0.00000000000E+00 -0.45593999997E+02  0.45594000000E+02  0.51100000000E-03 0. -1.
    9900012    2    1    2    0    0  0.20095143460E+02 -0.78001014705E+00  0.24744617368E+02  0.59301963947E+02  0.50000036327E+02 0.  0.
         12    1    1    2    0    0 -0.20095143460E+02  0.78001014705E+00 -0.24744617368E+02  0.31886036053E+02  0.00000000000E+00 0. -1.
         11    1    3    3    0    0  0.91328203867E+01 -0.10431425995E+02 -0.18187226158E+01  0.13983233129E+02  0.51100000000E-03 0. -1.
        -11    1    3    3    0    0 -0.54928724077E+01 -0.81404008227E+01  0.16236948137E+02  0.18975675427E+02  0.51100000000E-03 0.  1.
         12    1    3    3    0    0  0.16455195481E+02  0.17791816671E+02  0.10326391847E+02  0.26343055391E+02  0.00000000000E+00 0. -1.
</event>
<event>
 7    1  0.5832130E-012  0.5930194E+02  0.7816164E-02  0.1266605E+00
        -11   -1    0    0    0    0  0.00000000000E+00  0.00000000000E+00  0.45593999997E+02  0.45594000000E+02  0.51100000000E-03 0.  1.
         11   -1    0    0    0    0 -0.00000000000E+00 -0.00000000000E+00 -0.45593999997E+02  0.45594000000E+02  0.51100000000E-03 0. -1.
    9900012    2    1    2    0    0 -0.90325751529E+01 -0.24453190336E+02  0.18362325104E+02  0.59301938551E+02  0.49999990012E+02 0.  0.
         12    1    1    2    0    0  0.90325751529E+01  0.24453190336E+02 -0.18362325104E+02  0.31886061449E+02  0.00000000000E+00 0. -1.
         11    1    3    3    0    0 -0.66084301445E+01  0.10486817505E+01 -0.58656674922E+01  0.88981536163E+01  0.51100000000E-03 0. -1.
        -11    1    3    3    0    0  0.14364444717E+02 -0.46371922320E+01  0.13018711752E+01  0.15150435394E+02  0.51100000000E-03 0.  1.
        -12    1    3    3    0    0 -0.16788589725E+02 -0.20864679854E+02  0.22926121422E+02  0.35253349540E+02  0.00000000000E+00 0.  1.
</event>
<event>
 7    1  0.5832130E-012  0.5930194E+02  0.7816164E-02  0.1266605E+00
        -11   -1    0    0    0    0  0.00000000000E+00  0.00000000000E+00  0.45593999997E+02  0.45594000000E+02  0.51100000000E-03 0.  1.
         11   -1    0    0    0    0 -0.00000000000E+00 -0.00000000000E+00 -0.45593999997E+02  0.45594000000E+02  0.51100000000E-03 0. -1.
    9900012    2    1    2    0    0 -0.62599626362E-01 -0.31336771939E+02  0.58926566408E+01  0.59301943541E+02  0.49999999112E+02 0.  0.
         12    1    1    2    0    0  0.62599626362E-01  0.31336771939E+02 -0.58926566408E+01  0.31886056459E+02  0.00000000000E+00 0. -1.
         11    1    3    3    0    0 -0.28425936595E+01 -0.11416207293E+01  0.94469988924E+01  0.99312348143E+01  0.51100000000E-03 0.  1.
        -11    1    3    3    0    0 -0.14794076697E+02 -0.24319626023E+02 -0.93386907090E+01  0.29958639148E+02  0.51100000000E-03 0. -1.
         12    1    3    3    0    0  0.17574070730E+02 -0.58755251865E+01  0.57843484575E+01  0.19412069578E+02  0.00000000000E+00 0. -1.
</event>
<event>
 7    1  0.5832130E-012  0.5930195E+02  0.7816164E-02  0.1266605E+00
        -11   -1    0    0    0    0  0.00000000000E+00  0.00000000000E+00  0.45593999997E+02  0.45594000000E+02  0.51100000000E-03 0.  1.
         11   -1    0    0    0    0 -0.00000000000E+00 -0.00000000000E+00 -0.45593999997E+02  0.45594000000E+02  0.51100000000E-03 0. -1.
    9900012    2    1    2    0    0  0.18434112411E+02 -0.84276010378E+01  0.24614610604E+02  0.59301952662E+02  0.50000015747E+02 0.  0.
         12    1    1    2    0    0 -0.18434112411E+02  0.84276010378E+01 -0.24614610604E+02  0.31886047338E+02  0.00000000000E+00 0. -1.
         11    1    3    3    0    0 -0.39225786248E+00 -0.19498572060E+02  0.12209643527E+02  0.23009206286E+02  0.51100000000E-03 0. -1.
        -11    1    3    3    0    0  0.11617063461E+02 -0.77292239384E+01  0.44924070993E+01  0.14658744419E+02  0.51100000000E-03 0.  1.
        -12    1    3    3    0    0  0.72093068130E+01  0.18800194960E+02  0.79125599775E+01  0.21634001957E+02  0.00000000000E+00 0.  1.
</event>
<event>
 7    1  0.5832130E-012  0.5930193E+02  0.7816164E-02  0.1266605E+00
        -11   -1    0    0    0    0  0.00000000000E+00  0.00000000000E+00  0.45593999997E+02  0.45594000000E+02  0.51100000000E-03 0. -1.
         11   -1    0    0    0    0 -0.00000000000E+00 -0.00000000000E+00 -0.45593999997E+02  0.45594000000E+02  0.51100000000E-03 0.  1.
    9900012    2    1    2    0    0 -0.25270944333E+02  0.10120237446E+02 -0.16603668499E+02  0.59301927162E+02  0.49999969240E+02 0.  0.
         12    1    1    2    0    0  0.25270944333E+02 -0.10120237446E+02  0.16603668499E+02  0.31886072838E+02  0.00000000000E+00 0. -1.
         11    1    3    3    0    0 -0.80531678444E+01  0.24934864927E+01 -0.73829374774E+01  0.11206192631E+02  0.51100000000E-03 0. -1.
        -11    1    3    3    0    0  0.64093109990E+01  0.38742064435E+01 -0.20369203455E+02  0.21702377582E+02  0.51100000000E-03 0.  1.
         12    1    3    3    0    0 -0.23627087487E+02  0.37525445097E+01  0.11148472434E+02  0.26393356949E+02  0.00000000000E+00 0. -1.
</event>
<event>
 7    1  0.5832130E-012  0.5930192E+02  0.7816164E-02  0.1266605E+00
        -11   -1    0    0    0    0  0.00000000000E+00  0.00000000000E+00  0.45593999997E+02  0.45594000000E+02  0.51100000000E-03 0.  1.
         11   -1    0    0    0    0 -0.00000000000E+00 -0.00000000000E+00 -0.45593999997E+02  0.45594000000E+02  0.51100000000E-03 0. -1.
    9900012    2    1    2    0    0 -0.23981925947E+02  0.14505291059E+02  0.15204789384E+02  0.59301923712E+02  0.49999962949E+02 0.  0.
         12    1    1    2    0    0  0.23981925947E+02 -0.14505291059E+02 -0.15204789384E+02  0.31886076288E+02  0.00000000000E+00 0. -1.
         11    1    3    3    0    0 -0.15588615364E+02  0.69228045522E+01  0.15493987167E+02  0.23043302507E+02  0.51100000000E-03 0. -1.
        -11    1    3    3    0    0 -0.20410727608E+01 -0.13800621475E+02 -0.84234078236E-01  0.13950993755E+02  0.51100000000E-03 0.  1.
         12    1    3    3    0    0 -0.63522378225E+01  0.21383107982E+02 -0.20496370457E+00  0.22307627450E+02  0.00000000000E+00 0. -1.
</event>
<event>
 7    1  0.5832130E-012  0.5930194E+02  0.7816164E-02  0.1266605E+00
        -11   -1    0    0    0    0  0.00000000000E+00  0.00000000000E+00  0.45593999997E+02  0.45594000000E+02  0.51100000000E-03 0. -1.
         11   -1    0    0    0    0 -0.00000000000E+00 -0.00000000000E+00 -0.45593999997E+02  0.45594000000E+02  0.51100000000E-03 0.  1.
    9900012    2    1    2    0    0 -0.18972683789E+02  0.17677606290E+02 -0.18554247400E+02  0.59301943629E+02  0.49999999273E+02 0.  0.
         12    1    1    2    0    0  0.18972683789E+02 -0.17677606290E+02  0.18554247400E+02  0.31886056371E+02  0.00000000000E+00 0. -1.
         11    1    3    3    0    0 -0.79249836139E+01  0.54990746040E+01 -0.39604670820E+01  0.10427391167E+02  0.51100000000E-03 0. -1.
        -11    1    3    3    0    0 -0.11683603768E+02 -0.60169811635E+01 -0.24752954096E+02  0.28025334897E+02  0.51100000000E-03 0.  1.
         12    1    3    3    0    0  0.63590359248E+00  0.18195512849E+02  0.10159173778E+02  0.20849217565E+02  0.00000000000E+00 0. -1.
</event>
<event>
 7    1  0.5832130E-012  0.5930195E+02  0.7816164E-02  0.1266605E+00
        -11   -1    0    0    0    0  0.00000000000E+00  0.00000000000E+00  0.45593999997E+02  0.45594000000E+02  0.51100000000E-03 0.  1.
         11   -1    0    0    0    0 -0.00000000000E+00 -0.00000000000E+00 -0.45593999997E+02  0.45594000000E+02  0.51100000000E-03 0. -1.
    9900012    2    1    2    0    0  0.19257910973E+02  0.24682834790E+02 -0.60506725280E+01  0.59301951227E+02  0.50000013130E+02 0.  0.
         12    1    1    2    0    0 -0.19257910973E+02 -0.24682834790E+02  0.60506725280E+01  0.31886048773E+02  0.00000000000E+00 0. -1.
         11    1    3    3    0    0 -0.44606064465E+01  0.95981218031E+01 -0.16154087463E+02  0.19312573471E+02  0.51100000000E-03 0. -1.
        -11    1    3    3    0    0  0.15497940327E+02 -0.20854011274E+01 -0.41839998730E+01  0.16187677642E+02  0.51100000000E-03 0.  1.
         12    1    3    3    0    0  0.82205770922E+01  0.17170114115E+02  0.14287414808E+02  0.23801700115E+02  0.00000000000E+00 0. -1.
</event>
<event>
 7    1  0.5832130E-012  0.5930196E+02  0.7816164E-02  0.1266605E+00
        -11   -1    0    0    0    0  0.00000000000E+00  0.00000000000E+00  0.45593999997E+02  0.45594000000E+02  0.51100000000E-03 0.  1.
         11   -1    0    0    0    0 -0.00000000000E+00 -0.00000000000E+00 -0.45593999997E+02  0.45594000000E+02  0.51100000000E-03 0. -1.
    9900012    2    1    2    0    0  0.13600708665E+02 -0.13900462956E+01  0.28806393635E+02  0.59301955730E+02  0.50000021343E+02 0.  0.
         12    1    1    2    0    0 -0.13600708665E+02  0.13900462956E+01 -0.28806393635E+02  0.31886044270E+02  0.00000000000E+00 0. -1.
         11    1    3    3    0    0 -0.11026097131E+02 -0.25690202870E+01  0.47531920338E+01  0.12278742523E+02  0.51100000000E-03 0. -1.
        -11    1    3    3    0    0 -0.14485259777E+01  0.10736430170E+02  0.13510539492E+02  0.17317731893E+02  0.51100000000E-03 0.  1.
        -12    1    3    3    0    0  0.26075331774E+02 -0.95574561788E+01  0.10542662109E+02  0.29705481314E+02  0.00000000000E+00 0.  1.
</event>
<event>
 7    1  0.5832130E-012  0.5930192E+02  0.7816164E-02  0.1266605E+00
        -11   -1    0    0    0    0  0.00000000000E+00  0.00000000000E+00  0.45593999997E+02  0.45594000000E+02  0.51100000000E-03 0.  1.
         11   -1    0    0    0    0 -0.00000000000E+00 -0.00000000000E+00 -0.45593999997E+02  0.45594000000E+02  0.51100000000E-03 0. -1.
    9900012    2    1    2    0    0 -0.90025451237E+01 -0.29477375082E+02 -0.81707360021E+01  0.59301915461E+02  0.49999947901E+02 0.  0.
         12    1    1    2    0    0  0.90025451237E+01  0.29477375082E+02  0.81707360021E+01  0.31886084539E+02  0.00000000000E+00 0. -1.
         11    1    3    3    0    0 -0.84486067631E+01 -0.58526646842E+01 -0.45632511748E+01  0.11245261299E+02  0.51100000000E-03 0. -1.
        -11    1    3    3    0    0  0.41883711921E+00 -0.34012693261E+02  0.51903689595E+01  0.34408990942E+02  0.51100000000E-03 0.  1.
         12    1    3    3    0    0 -0.97277547981E+00  0.10387982864E+02 -0.87978537868E+01  0.13647663220E+02  0.00000000000E+00 0. -1.
</event>
<event>
 7    1  0.5832130E-012  0.5930195E+02  0.7816164E-02  0.1266605E+00
        -11   -1    0    0    0    0  0.00000000000E+00  0.00000000000E+00  0.45593999997E+02  0.45594000000E+02  0.51100000000E-03 0. -1.
         11   -1    0    0    0    0 -0.00000000000E+00 -0.00000000000E+00 -0.45593999997E+02  0.45594000000E+02  0.51100000000E-03 0.  1.
    9900012    2    1    2    0    0  0.20371622460E+02  0.12436898181E+02 -0.21143339553E+02  0.59301949045E+02  0.50000009151E+02 0.  0.
         12    1    1    2    0    0 -0.20371622460E+02 -0.12436898181E+02  0.21143339553E+02  0.31886050955E+02  0.00000000000E+00 0. -1.
         11    1    3    3    0    0  0.40125446021E+01  0.10273645401E+02  0.29937983859E+01  0.11428522785E+02  0.51100000000E-03 0. -1.
        -11    1    3    3    0    0  0.22171918773E+02  0.83593820201E+01 -0.15554869399E+01  0.23746426883E+02  0.51100000000E-03 0.  1.
         12    1    3    3    0    0 -0.58128409149E+01 -0.61961292405E+01 -0.22581650999E+02  0.24126999377E+02  0.00000000000E+00 0. -1.
</event>
<event>
 7    1  0.5832130E-012  0.5930193E+02  0.7816164E-02  0.1266605E+00
        -11   -1    0    0    0    0  0.00000000000E+00  0.00000000000E+00  0.45593999997E+02  0.45594000000E+02  0.51100000000E-03 0.  1.
         11   -1    0    0    0    0 -0.00000000000E+00 -0.00000000000E+00 -0.45593999997E+02  0.45594000000E+02  0.51100000000E-03 0. -1.
    9900012    2    1    2    0    0 -0.18946747191E+02 -0.61241314209E+01  0.24904556941E+02  0.59301934530E+02  0.49999982678E+02 0.  0.
         12    1    1    2    0    0  0.18946747191E+02  0.61241314209E+01 -0.24904556941E+02  0.31886065470E+02  0.00000000000E+00 0. -1.
         11    1    3    3    0    0 -0.84161779112E+01 -0.10934597586E+02  0.26177242157E+02  0.29591307545E+02  0.51100000000E-03 0. -1.
        -11    1    3    3    0    0 -0.16111550144E+02 -0.46040557000E+01  0.44819131406E+01  0.17345515922E+02  0.51100000000E-03 0.  1.
        -12    1    3    3    0    0  0.55809808641E+01  0.94145218647E+01 -0.57545983574E+01  0.12365111063E+02  0.00000000000E+00 0.  1.
</event>
<event>
 7    1  0.5832130E-012  0.5930198E+02  0.7816164E-02  0.1266605E+00
        -11   -1    0    0    0    0  0.00000000000E+00  0.00000000000E+00  0.45593999997E+02  0.45594000000E+02  0.51100000000E-03 0.  1.
         11   -1    0    0    0    0 -0.00000000000E+00 -0.00000000000E+00 -0.45593999997E+02  0.45594000000E+02  0.51100000000E-03 0. -1.
    9900012    2    1    2    0    0  0.23697126686E+02  0.42918724199E+01  0.20898429421E+02  0.59301979014E+02  0.50000063807E+02 0.  0.
         12    1    1    2    0    0 -0.23697126686E+02 -0.42918724199E+01 -0.20898429421E+02  0.31886020986E+02  0.00000000000E+00 0. -1.
         11    1    3    3    0    0  0.11938524989E+02 -0.13279642420E+02  0.53446008157E+01  0.18639797205E+02  0.51100000000E-03 0. -1.
        -11    1    3    3    0    0  0.16006745757E+02 -0.32224343006E+01  0.61319368286E+01  0.17441348631E+02  0.51100000000E-03 0.  1.
         12    1    3    3    0    0 -0.42481440602E+01  0.20793949140E+02  0.94218917767E+01  0.23220833178E+02  0.00000000000E+00 0. -1.
</event>
<event>
 7    1  0.5832130E-012  0.5930194E+02  0.7816164E-02  0.1266605E+00
        -11   -1    0    0    0    0  0.00000000000E+00  0.00000000000E+00  0.45593999997E+02  0.45594000000E+02  0.51100000000E-03 0.  1.
         11   -1    0    0    0    0 -0.00000000000E+00 -0.00000000000E+00 -0.45593999997E+02  0.45594000000E+02  0.51100000000E-03 0. -1.
    9900012    2    1    2    0    0  0.27734616129E+02 -0.15168702464E+02 -0.41740284498E+01  0.59301937532E+02  0.49999988153E+02 0.  0.
         12    1    1    2    0    0 -0.27734616129E+02  0.15168702464E+02  0.41740284498E+01  0.31886062468E+02  0.00000000000E+00 0. -1.
         11    1    3    3    0    0  0.15413317663E+02  0.78056365187E+01 -0.32193707367E+01  0.17574489211E+02  0.51100000000E-03 0. -1.
        -11    1    3    3    0    0  0.18748952786E+02 -0.20831470928E+02 -0.10579794865E+02  0.29956726645E+02  0.51100000000E-03 0.  1.
        -12    1    3    3    0    0 -0.64276543207E+01 -0.21428680547E+01  0.96251371521E+01  0.11770721676E+02  0.00000000000E+00 0.  1.
</event>
<event>
 7    1  0.5832130E-012  0.5930194E+02  0.7816164E-02  0.1266605E+00
        -11   -1    0    0    0    0  0.00000000000E+00  0.00000000000E+00  0.45593999997E+02  0.45594000000E+02  0.51100000000E-03 0. -1.
         11   -1    0    0    0    0 -0.00000000000E+00 -0.00000000000E+00 -0.45593999997E+02  0.45594000000E+02  0.51100000000E-03 0.  1.
    9900012    2    1    2    0    0  0.17275771166E+02 -0.51641724379E+01 -0.26298292013E+02  0.59301935503E+02  0.49999984452E+02 0.  0.
         12    1    1    2    0    0 -0.17275771166E+02  0.51641724379E+01  0.26298292013E+02  0.31886064497E+02  0.00000000000E+00 0. -1.
         11    1    3    3    0    0  0.40768040354E-02 -0.59064281639E+01 -0.12982850858E+02  0.14263250924E+02  0.51100000000E-03 0. -1.
        -11    1    3    3    0    0  0.67869506240E+01  0.11294662209E+02 -0.23547624249E+02  0.26983748835E+02  0.51100000000E-03 0.  1.
         12    1    3    3    0    0  0.10484743738E+02 -0.10552406483E+02  0.10232183094E+02  0.18054935743E+02  0.00000000000E+00 0. -1.
</event>
<event>
 7    1  0.5832130E-012  0.5930192E+02  0.7816164E-02  0.1266605E+00
        -11   -1    0    0    0    0  0.00000000000E+00  0.00000000000E+00  0.45593999997E+02  0.45594000000E+02  0.51100000000E-03 0.  1.
         11   -1    0    0    0    0 -0.00000000000E+00 -0.00000000000E+00 -0.45593999997E+02  0.45594000000E+02  0.51100000000E-03 0. -1.
    9900012    2    1    2    0    0  0.28616257369E+02  0.10721217596E+02  0.91042471880E+01  0.59301921386E+02  0.49999958706E+02 0.  0.
         12    1    1    2    0    0 -0.28616257369E+02 -0.10721217596E+02 -0.91042471880E+01  0.31886078614E+02  0.00000000000E+00 0. -1.
         11    1    3    3    0    0  0.13159075663E+02  0.20531766556E+00  0.19153681703E+02  0.23239340582E+02  0.51100000000E-03 0. -1.
        -11    1    3    3    0    0  0.16888499888E+02  0.33091275847E+01  0.61493685037E+01  0.18275297183E+02  0.51100000000E-03 0.  1.
         12    1    3    3    0    0 -0.14313181825E+01  0.72067723462E+01 -0.16198803019E+02  0.17787283621E+02  0.00000000000E+00 0. -1.
</event>
<event>
 7    1  0.5832130E-012  0.5930196E+02  0.7816164E-02  0.1266605E+00
        -11   -1    0    0    0    0  0.00000000000E+00  0.00000000000E+00  0.45593999997E+02  0.45594000000E+02  0.51100000000E-03 0.  1.
         11   -1    0    0    0    0 -0.00000000000E+00 -0.00000000000E+00 -0.45593999997E+02  0.45594000000E+02  0.51100000000E-03 0. -1.
    9900012    2    1    2    0    0  0.10983921948E+02 -0.18332841525E+02  0.23663890172E+02  0.59301963591E+02  0.50000035680E+02 0.  0.
         12    1    1    2    0    0 -0.10983921948E+02  0.18332841525E+02 -0.23663890172E+02  0.31886036409E+02  0.00000000000E+00 0. -1.
         11    1    3    3    0    0 -0.98146685760E+01 -0.40168897608E+01  0.17946580535E+00  0.10606381609E+02  0.51100000000E-03 0. -1.
        -11    1    3    3    0    0  0.13742609680E+02  0.98325679209E+01  0.55007897475E+01  0.17770689375E+02  0.51100000000E-03 0.  1.
         12    1    3    3    0    0  0.70559808444E+01 -0.24148519685E+02  0.17983634620E+02  0.30924892608E+02  0.00000000000E+00 0. -1.
</event>
<event>
 7    1  0.5832130E-012  0.5930184E+02  0.7816164E-02  0.1266605E+00
        -11   -1    0    0    0    0  0.00000000000E+00  0.00000000000E+00  0.45593999997E+02  0.45594000000E+02  0.51100000000E-03 0. -1.
         11   -1    0    0    0    0 -0.00000000000E+00 -0.00000000000E+00 -0.45593999997E+02  0.45594000000E+02  0.51100000000E-03 0.  1.
    9900012    2    1    2    0    0  0.16248959999E+02 -0.23251716771E+02 -0.14562143332E+02  0.59301842310E+02  0.49999814490E+02 0.  0.
         12    1    1    2    0    0 -0.16248959999E+02  0.23251716771E+02  0.14562143332E+02  0.31886157690E+02  0.00000000000E+00 0. -1.
         11    1    3    3    0    0 -0.14663918917E+02 -0.83665895441E+01 -0.97504832575E+01  0.19496211494E+02  0.51100000000E-03 0. -1.
        -11    1    3    3    0    0  0.11420557049E+01 -0.38377530383E+01  0.51517084512E+01  0.65247789114E+01  0.51100000000E-03 0.  1.
        -12    1    3    3    0    0  0.29770823211E+02 -0.11047374189E+02 -0.99633685254E+01  0.33280851904E+02  0.00000000000E+00 0.  1.
</event>
<event>
 7    1  0.5832130E-012  0.5930194E+02  0.7816164E-02  0.1266605E+00
        -11   -1    0    0    0    0  0.00000000000E+00  0.00000000000E+00  0.45593999997E+02  0.45594000000E+02  0.51100000000E-03 0.  1.
         11   -1    0    0    0    0 -0.00000000000E+00 -0.00000000000E+00 -0.45593999997E+02  0.45594000000E+02  0.51100000000E-03 0. -1.
    9900012    2    1    2    0    0  0.49836541953E+01  0.29227356871E+02  0.11732239330E+02  0.59301942883E+02  0.49999997912E+02 0.  0.
         12    1    1    2    0    0 -0.49836541953E+01 -0.29227356871E+02 -0.11732239330E+02  0.31886057117E+02  0.00000000000E+00 0. -1.
         11    1    3    3    0    0  0.11232070579E+02  0.77039049901E+01 -0.29145767519E+01  0.13928543337E+02  0.51100000000E-03 0. -1.
        -11    1    3    3    0    0  0.99929039157E+01  0.22965258900E+02  0.14753947695E+02  0.29067855406E+02  0.51100000000E-03 0.  1.
         12    1    3    3    0    0 -0.16241320299E+02 -0.14418070195E+01 -0.10713161361E+00  0.16305544140E+02  0.00000000000E+00 0. -1.
</event>
<event>
 7    1  0.5832130E-012  0.5930232E+02  0.7816164E-02  0.1266603E+00
        -11   -1    0    0    0    0  0.00000000000E+00  0.00000000000E+00  0.45593999997E+02  0.45594000000E+02  0.51100000000E-03 0.  1.
         11   -1    0    0    0    0 -0.00000000000E+00 -0.00000000000E+00 -0.45593999997E+02  0.45594000000E+02  0.51100000000E-03 0. -1.
    9900012    2    1    2    0    0  0.16655659873E+02  0.25430392461E+02 -0.96218794410E+01  0.59302322486E+02  0.50000690213E+02 0.  0.
         12    1    1    2    0    0 -0.16655659873E+02 -0.25430392461E+02  0.96218794410E+01  0.31885677514E+02  0.00000000000E+00 0. -1.
         11    1    3    3    0    0  0.10987200282E+02  0.58732155022E+01 -0.63415833544E+01  0.13979589053E+02  0.51100000000E-03 0. -1.
        -11    1    3    3    0    0  0.21716366779E+02  0.10815672512E+02  0.57593185576E+01  0.24934897402E+02  0.51100000000E-03 0.  1.
        -12    1    3    3    0    0 -0.16047907188E+02  0.87415044472E+01 -0.90396146442E+01  0.20387836031E+02  0.00000000000E+00 0.  1.
</event>
<event>
 7    1  0.5832130E-012  0.5930195E+02  0.7816164E-02  0.1266605E+00
        -11   -1    0    0    0    0  0.00000000000E+00  0.00000000000E+00  0.45593999997E+02  0.45594000000E+02  0.51100000000E-03 0. -1.
         11   -1    0    0    0    0 -0.00000000000E+00 -0.00000000000E+00 -0.45593999997E+02  0.45594000000E+02  0.51100000000E-03 0.  1.
    9900012    2    1    2    0    0 -0.24851735990E+02  0.17367198896E+02  0.98738087919E+01  0.59301945379E+02  0.50000002464E+02 0.  0.
         12    1    1    2    0    0  0.24851735990E+02 -0.17367198896E+02 -0.98738087919E+01  0.31886054621E+02  0.00000000000E+00 0. -1.
         11    1    3    3    0    0 -0.13575758352E+02 -0.33322338976E+01  0.18968441258E+02  0.23562825841E+02  0.51100000000E-03 0. -1.
        -11    1    3    3    0    0 -0.10279412384E+02  0.53865361825E+01  0.69584423331E+01  0.13531482216E+02  0.51100000000E-03 0.  1.
        -12    1    3    3    0    0 -0.99656525494E+00  0.15312896611E+02 -0.16053074799E+02  0.22207637322E+02  0.00000000000E+00 0.  1.
</event>
<event>
 7    1  0.5832130E-012  0.5930194E+02  0.7816164E-02  0.1266605E+00
        -11   -1    0    0    0    0  0.00000000000E+00  0.00000000000E+00  0.45593999997E+02  0.45594000000E+02  0.51100000000E-03 0.  1.
         11   -1    0    0    0    0 -0.00000000000E+00 -0.00000000000E+00 -0.45593999997E+02  0.45594000000E+02  0.51100000000E-03 0. -1.
    9900012    2    1    2    0    0 -0.29396701298E+02 -0.26885988740E-01  0.12351284349E+02  0.59301937291E+02  0.49999987713E+02 0.  0.
         12    1    1    2    0    0  0.29396701298E+02  0.26885988740E-01 -0.12351284349E+02  0.31886062709E+02  0.00000000000E+00 0. -1.
         11    1    3    3    0    0 -0.96102450624E+01  0.11568258117E+02  0.95660269276E+01  0.17823868196E+02  0.51100000000E-03 0. -1.
        -11    1    3    3    0    0 -0.25214733464E+02  0.28544838075E+01  0.50611275353E+01  0.25875584509E+02  0.51100000000E-03 0.  1.
         12    1    3    3    0    0  0.54282772290E+01 -0.14449627913E+02 -0.22758701142E+01  0.15602484587E+02  0.00000000000E+00 0. -1.
</event>
<event>
 7    1  0.5832130E-012  0.5930194E+02  0.7816164E-02  0.1266605E+00
        -11   -1    0    0    0    0  0.00000000000E+00  0.00000000000E+00  0.45593999997E+02  0.45594000000E+02  0.51100000000E-03 0.  1.
         11   -1    0    0    0    0 -0.00000000000E+00 -0.00000000000E+00 -0.45593999997E+02  0.45594000000E+02  0.51100000000E-03 0. -1.
    9900012    2    1    2    0    0  0.30897832444E+02  0.73701554274E+01 -0.27794574535E+01  0.59301943102E+02  0.49999998312E+02 0.  0.
         12    1    1    2    0    0 -0.30897832444E+02 -0.73701554274E+01  0.27794574535E+01  0.31886056898E+02  0.00000000000E+00 0. -1.
         11    1    3    3    0    0  0.98102843559E+01  0.95623417841E+00 -0.23018996193E+02  0.25040572057E+02  0.51100000000E-03 0. -1.
        -11    1    3    3    0    0  0.17105951858E+02  0.77672277740E+01  0.64790383219E+01  0.19872628263E+02  0.51100000000E-03 0.  1.
        -12    1    3    3    0    0  0.39815962303E+01 -0.13533065251E+01  0.13760500417E+02  0.14388742781E+02  0.00000000000E+00 0.  1.
</event>
<event>
 7    1  0.5832130E-012  0.5930197E+02  0.7816164E-02  0.1266605E+00
        -11   -1    0    0    0    0  0.00000000000E+00  0.00000000000E+00  0.45593999997E+02  0.45594000000E+02  0.51100000000E-03 0.  1.
         11   -1    0    0    0    0 -0.00000000000E+00 -0.00000000000E+00 -0.45593999997E+02  0.45594000000E+02  0.51100000000E-03 0. -1.
    9900012    2    1    2    0    0 -0.31212574750E+01  0.30474747225E+02  0.88468175807E+01  0.59301974096E+02  0.50000054837E+02 0.  0.
         12    1    1    2    0    0  0.31212574750E+01 -0.30474747225E+02 -0.88468175807E+01  0.31886025904E+02  0.00000000000E+00 0. -1.
         11    1    3    3    0    0  0.14489053924E+02  0.15903789907E+02  0.14642120680E+02  0.26024121797E+02  0.51100000000E-03 0. -1.
        -11    1    3    3    0    0 -0.56368246767E+01  0.19102412253E+02 -0.44256774924E+01  0.20402513763E+02  0.51100000000E-03 0.  1.
        -12    1    3    3    0    0 -0.11973486722E+02 -0.45314549348E+01 -0.13696256069E+01  0.12875338536E+02  0.00000000000E+00 0.  1.
</event>
<event>
 7    1  0.5832130E-012  0.5930208E+02  0.7816164E-02  0.1266604E+00
        -11   -1    0    0    0    0  0.00000000000E+00  0.00000000000E+00  0.45593999997E+02  0.45594000000E+02  0.51100000000E-03 0. -1.
         11   -1    0    0    0    0 -0.00000000000E+00 -0.00000000000E+00 -0.45593999997E+02  0.45594000000E+02  0.51100000000E-03 0.  1.
    9900012    2    1    2    0    0  0.15085091938E+02  0.19696207703E+02 -0.20030252527E+02  0.59302084411E+02  0.50000256025E+02 0.  0.
         12    1    1    2    0    0 -0.15085091938E+02 -0.19696207703E+02  0.20030252527E+02  0.31885915589E+02  0.00000000000E+00 0. -1.
         11    1    3    3    0    0  0.23380378331E+01  0.16020605396E+02  0.99709675404E+00  0.16220987034E+02  0.51100000000E-03 0. -1.
        -11    1    3    3    0    0 -0.10566728645E+01  0.17714097324E+02 -0.11999594969E+02  0.21421859891E+02  0.51100000000E-03 0.  1.
        -12    1    3    3    0    0  0.13803726969E+02 -0.14038495016E+02 -0.90277543123E+01  0.21659237486E+02  0.00000000000E+00 0.  1.
</event>
<event>
 7    1  0.5832130E-012  0.5930195E+02  0.7816164E-02  0.1266605E+00
        -11   -1    0    0    0    0  0.00000000000E+00  0.00000000000E+00  0.45593999997E+02  0.45594000000E+02  0.51100000000E-03 0.  1.
         11   -1    0    0    0    0 -0.00000000000E+00 -0.00000000000E+00 -0.45593999997E+02  0.45594000000E+02  0.51100000000E-03 0. -1.
    9900012    2    1    2    0    0 -0.11553260179E+02  0.69910684024E+01  0.28885420715E+02  0.59301946810E+02  0.50000005074E+02 0.  0.
         12    1    1    2    0    0  0.11553260179E+02 -0.69910684024E+01 -0.28885420715E+02  0.31886053190E+02  0.00000000000E+00 0. -1.
         11    1    3    3    0    0  0.11820666227E+02  0.57204659460E+01  0.53329283874E+01  0.14173637717E+02  0.51100000000E-03 0. -1.
        -11    1    3    3    0    0 -0.57042871814E+01 -0.92232552014E+01 -0.32802091008E+01  0.11329920598E+02  0.51100000000E-03 0.  1.
        -12    1    3    3    0    0 -0.17669639225E+02  0.10493857658E+02  0.26832701428E+02  0.33798388494E+02  0.00000000000E+00 0.  1.
</event>
<event>
 7    1  0.5832130E-012  0.5930194E+02  0.7816164E-02  0.1266605E+00
        -11   -1    0    0    0    0  0.00000000000E+00  0.00000000000E+00  0.45593999997E+02  0.45594000000E+02  0.51100000000E-03 0. -1.
         11   -1    0    0    0    0 -0.00000000000E+00 -0.00000000000E+00 -0.45593999997E+02  0.45594000000E+02  0.51100000000E-03 0.  1.
    9900012    2    1    2    0    0  0.20467343204E+02 -0.18776579658E+02 -0.15660424089E+02  0.59301937777E+02  0.49999988599E+02 0.  0.
         12    1    1    2    0    0 -0.20467343204E+02  0.18776579658E+02  0.15660424089E+02  0.31886062223E+02  0.00000000000E+00 0. -1.
         11    1    3    3    0    0  0.61155227124E+01  0.22029193089E+01  0.10048727700E+02  0.11967848603E+02  0.51100000000E-03 0. -1.
        -11    1    3    3    0    0  0.64644958391E+01 -0.13593735622E+02  0.41215795689E+01  0.15606625933E+02  0.51100000000E-03 0.  1.
         12    1    3    3    0    0  0.78873246521E+01 -0.73857633451E+01 -0.29830731358E+02  0.31727463241E+02  0.00000000000E+00 0. -1.
</event>
<event>
 7    1  0.5832130E-012  0.5930195E+02  0.7816164E-02  0.1266605E+00
        -11   -1    0    0    0    0  0.00000000000E+00  0.00000000000E+00  0.45593999997E+02  0.45594000000E+02  0.51100000000E-03 0.  1.
         11   -1    0    0    0    0 -0.00000000000E+00 -0.00000000000E+00 -0.45593999997E+02  0.45594000000E+02  0.51100000000E-03 0. -1.
    9900012    2    1    2    0    0 -0.30484586182E+02 -0.41275582701E+01 -0.83888956504E+01  0.59301948156E+02  0.50000007529E+02 0.  0.
         12    1    1    2    0    0  0.30484586182E+02  0.41275582701E+01  0.83888956504E+01  0.31886051844E+02  0.00000000000E+00 0. -1.
         11    1    3    3    0    0 -0.13856023841E+02 -0.17007146105E+02 -0.11704574948E+02  0.24864221087E+02  0.51100000000E-03 0. -1.
        -11    1    3    3    0    0 -0.69508488339E+01  0.10998405021E+02 -0.11012313147E+02  0.17045534712E+02  0.51100000000E-03 0.  1.
        -12    1    3    3    0    0 -0.96777135071E+01  0.18811828134E+01  0.14327992444E+02  0.17392192357E+02  0.00000000000E+00 0.  1.
</event>
<event>
 7    1  0.5832130E-012  0.5930195E+02  0.7816164E-02  0.1266605E+00
        -11   -1    0    0    0    0  0.00000000000E+00  0.00000000000E+00  0.45593999997E+02  0.45594000000E+02  0.51100000000E-03 0.  1.
         11   -1    0    0    0    0 -0.00000000000E+00 -0.00000000000E+00 -0.45593999997E+02  0.45594000000E+02  0.51100000000E-03 0. -1.
    9900012    2    1    2    0    0  0.31789085006E+02 -0.18966894016E+01 -0.16053392975E+01  0.59301945518E+02  0.50000002717E+02 0.  0.
         12    1    1    2    0    0 -0.31789085006E+02  0.18966894016E+01  0.16053392975E+01  0.31886054482E+02  0.00000000000E+00 0. -1.
         11    1    3    3    0    0  0.18857296244E+02  0.54218081531E+01 -0.27028211244E+01  0.19806535982E+02  0.51100000000E-03 0. -1.
        -11    1    3    3    0    0  0.14240492546E+02 -0.20964743601E+02 -0.20605569093E+01  0.25427504738E+02  0.51100000000E-03 0.  1.
         12    1    3    3    0    0 -0.13087037844E+01  0.13646246046E+02  0.31580387362E+01  0.14067904798E+02  0.00000000000E+00 0. -1.
</event>
<event>
 7    1  0.5832130E-012  0.5930197E+02  0.7816164E-02  0.1266605E+00
        -11   -1    0    0    0    0  0.00000000000E+00  0.00000000000E+00  0.45593999997E+02  0.45594000000E+02  0.51100000000E-03 0.  1.
         11   -1    0    0    0    0 -0.00000000000E+00 -0.00000000000E+00 -0.45593999997E+02  0.45594000000E+02  0.51100000000E-03 0. -1.
    9900012    2    1    2    0    0  0.14518644010E+01  0.72860769981E+01  0.31008450263E+02  0.59301971461E+02  0.50000050032E+02 0.  0.
         12    1    1    2    0    0 -0.14518644010E+01 -0.72860769981E+01 -0.31008450263E+02  0.31886028539E+02  0.00000000000E+00 0. -1.
         11    1    3    3    0    0 -0.35843124196E+01  0.12885575675E+02  0.35984166452E+01  0.13850413662E+02  0.51100000000E-03 0. -1.
        -11    1    3    3    0    0  0.16839691965E+02 -0.15210896238E+01  0.18567143064E+01  0.17009889106E+02  0.51100000000E-03 0.  1.
        -12    1    3    3    0    0 -0.11803515145E+02 -0.40784090531E+01  0.25553319312E+02  0.28441668693E+02  0.00000000000E+00 0.  1.
</event>
<event>
 7    1  0.5832130E-012  0.5930193E+02  0.7816164E-02  0.1266605E+00
        -11   -1    0    0    0    0  0.00000000000E+00  0.00000000000E+00  0.45593999997E+02  0.45594000000E+02  0.51100000000E-03 0.  1.
         11   -1    0    0    0    0 -0.00000000000E+00 -0.00000000000E+00 -0.45593999997E+02  0.45594000000E+02  0.51100000000E-03 0. -1.
    9900012    2    1    2    0    0  0.94518369547E+01 -0.21532951729E+02  0.21534068157E+02  0.59301932143E+02  0.49999978326E+02 0.  0.
         12    1    1    2    0    0 -0.94518369547E+01  0.21532951729E+02 -0.21534068157E+02  0.31886067857E+02  0.00000000000E+00 0. -1.
         11    1    3    3    0    0  0.15113360781E+02 -0.87145144858E+01  0.28898821063E+02  0.33756455618E+02  0.51100000000E-03 0.  1.
        -11    1    3    3    0    0 -0.77466230723E+01 -0.15482280147E+02  0.14086047860E+00  0.17312741247E+02  0.51100000000E-03 0. -1.
        -12    1    3    3    0    0  0.20850992457E+01  0.26638429037E+01 -0.75056133843E+01  0.82327352778E+01  0.00000000000E+00 0.  1.
</event>
<event>
 7    1  0.5832130E-012  0.5930195E+02  0.7816164E-02  0.1266605E+00
        -11   -1    0    0    0    0  0.00000000000E+00  0.00000000000E+00  0.45593999997E+02  0.45594000000E+02  0.51100000000E-03 0.  1.
         11   -1    0    0    0    0 -0.00000000000E+00 -0.00000000000E+00 -0.45593999997E+02  0.45594000000E+02  0.51100000000E-03 0. -1.
    9900012    2    1    2    0    0 -0.15041012176E+01 -0.10363190679E+02  0.30117472832E+02  0.59301949581E+02  0.50000010128E+02 0.  0.
         12    1    1    2    0    0  0.15041012176E+01  0.10363190679E+02 -0.30117472832E+02  0.31886050419E+02  0.00000000000E+00 0. -1.
         11    1    3    3    0    0 -0.10289355728E+02 -0.51945457977E+01  0.15037616806E+02  0.18946874856E+02  0.51100000000E-03 0. -1.
        -11    1    3    3    0    0 -0.37878998963E+01  0.20761738698E+00  0.23823892805E+02  0.24124036960E+02  0.51100000000E-03 0.  1.
         12    1    3    3    0    0  0.12573154407E+02 -0.53762622686E+01 -0.87440367789E+01  0.16231037765E+02  0.00000000000E+00 0. -1.
</event>
<event>
 7    1  0.5832130E-012  0.5930196E+02  0.7816164E-02  0.1266605E+00
        -11   -1    0    0    0    0  0.00000000000E+00  0.00000000000E+00  0.45593999997E+02  0.45594000000E+02  0.51100000000E-03 0.  1.
         11   -1    0    0    0    0 -0.00000000000E+00 -0.00000000000E+00 -0.45593999997E+02  0.45594000000E+02  0.51100000000E-03 0. -1.
    9900012    2    1    2    0    0 -0.19092161044E+02  0.13653078242E+02  0.21582448804E+02  0.59301964574E+02  0.50000037472E+02 0.  0.
         12    1    1    2    0    0  0.19092161044E+02 -0.13653078242E+02 -0.21582448804E+02  0.31886035426E+02  0.00000000000E+00 0. -1.
         11    1    3    3    0    0 -0.72598155392E+01  0.81396288579E+01  0.28091924609E+01  0.11262772401E+02  0.51100000000E-03 0. -1.
        -11    1    3    3    0    0  0.11289304715E+02  0.12315756746E+02 -0.11818253825E+01  0.16748820157E+02  0.51100000000E-03 0.  1.
        -12    1    3    3    0    0 -0.23121650219E+02 -0.68023073612E+01  0.19955081725E+02  0.31290372017E+02  0.00000000000E+00 0.  1.
</event>
<event>
 7    1  0.5832130E-012  0.5930190E+02  0.7816164E-02  0.1266605E+00
        -11   -1    0    0    0    0  0.00000000000E+00  0.00000000000E+00  0.45593999997E+02  0.45594000000E+02  0.51100000000E-03 0. -1.
         11   -1    0    0    0    0 -0.00000000000E+00 -0.00000000000E+00 -0.45593999997E+02  0.45594000000E+02  0.51100000000E-03 0.  1.
    9900012    2    1    2    0    0  0.27925304206E+02  0.81064926964E+01 -0.13083793060E+02  0.59301898331E+02  0.49999916659E+02 0.  0.
         12    1    1    2    0    0 -0.27925304206E+02 -0.81064926964E+01  0.13083793060E+02  0.31886101669E+02  0.00000000000E+00 0. -1.
         11    1    3    3    0    0 -0.11357532084E+02  0.30746621725E+00 -0.41299658145E+01  0.12089031740E+02  0.51100000000E-03 0. -1.
        -11    1    3    3    0    0  0.14103382623E+02  0.14549119096E+02 -0.46807670170E+01  0.20796438349E+02  0.51100000000E-03 0.  1.
        -12    1    3    3    0    0  0.25179453667E+02 -0.67500926170E+01 -0.42730602288E+01  0.26416428242E+02  0.00000000000E+00 0.  1.
</event>
<event>
 7    1  0.5832130E-012  0.5930207E+02  0.7816164E-02  0.1266604E+00
        -11   -1    0    0    0    0  0.00000000000E+00  0.00000000000E+00  0.45593999997E+02  0.45594000000E+02  0.51100000000E-03 0.  1.
         11   -1    0    0    0    0 -0.00000000000E+00 -0.00000000000E+00 -0.45593999997E+02  0.45594000000E+02  0.51100000000E-03 0. -1.
    9900012    2    1    2    0    0  0.20822796055E+02  0.19523054004E+02 -0.14211765214E+02  0.59302066680E+02  0.50000223688E+02 0.  0.
         12    1    1    2    0    0 -0.20822796055E+02 -0.19523054004E+02  0.14211765214E+02  0.31885933320E+02  0.00000000000E+00 0. -1.
         11    1    3    3    0    0  0.23945375788E+02  0.56451765908E+01 -0.14407242284E+02  0.28509957398E+02  0.51100000000E-03 0. -1.
        -11    1    3    3    0    0  0.90353562077E+01  0.76589343304E+01  0.87069649377E+01  0.14700618203E+02  0.51100000000E-03 0.  1.
        -12    1    3    3    0    0 -0.12157935941E+02  0.62189430831E+01 -0.85114878670E+01  0.16091491078E+02  0.00000000000E+00 0.  1.
</event>
<event>
 7    1  0.5832130E-012  0.5930199E+02  0.7816164E-02  0.1266605E+00
        -11   -1    0    0    0    0  0.00000000000E+00  0.00000000000E+00  0.45593999997E+02  0.45594000000E+02  0.51100000000E-03 0.  1.
         11   -1    0    0    0    0 -0.00000000000E+00 -0.00000000000E+00 -0.45593999997E+02  0.45594000000E+02  0.51100000000E-03 0. -1.
    9900012    2    1    2    0    0  0.13741993120E+02  0.10951933542E+02 -0.26606964369E+02  0.59301987766E+02  0.50000079769E+02 0.  0.
         12    1    1    2    0    0 -0.13741993120E+02 -0.10951933542E+02  0.26606964369E+02  0.31886012234E+02  0.00000000000E+00 0. -1.
         11    1    3    3    0    0  0.11927469479E+02  0.62763714973E+01 -0.24652759285E+02  0.28096546192E+02  0.51100000000E-03 0. -1.
        -11    1    3    3    0    0  0.11294943592E+02  0.13897111010E+02 -0.72565110183E+00  0.17922946603E+02  0.51100000000E-03 0.  1.
         12    1    3    3    0    0 -0.94804199510E+01 -0.92215489647E+01 -0.12285539830E+01  0.13282494971E+02  0.00000000000E+00 0. -1.
</event>
<event>
 7    1  0.5832130E-012  0.5930195E+02  0.7816164E-02  0.1266605E+00
        -11   -1    0    0    0    0  0.00000000000E+00  0.00000000000E+00  0.45593999997E+02  0.45594000000E+02  0.51100000000E-03 0. -1.
         11   -1    0    0    0    0 -0.00000000000E+00 -0.00000000000E+00 -0.45593999997E+02  0.45594000000E+02  0.51100000000E-03 0.  1.
    9900012    2    1    2    0    0  0.58100318399E+01 -0.21991880605E+01 -0.31275024609E+02  0.59301951916E+02  0.50000014386E+02 0.  0.
         12    1    1    2    0    0 -0.58100318399E+01  0.21991880605E+01  0.31275024609E+02  0.31886048084E+02  0.00000000000E+00 0. -1.
         11    1    3    3    0    0  0.94347939073E+01 -0.16550418505E+02 -0.23664690072E+00  0.19052235847E+02  0.51100000000E-03 0. -1.
        -11    1    3    3    0    0 -0.57357990135E+01 -0.26946862526E+01 -0.16745565050E+02  0.17904599226E+02  0.51100000000E-03 0.  1.
        -12    1    3    3    0    0  0.21110369460E+01  0.17045916697E+02 -0.14292812658E+02  0.22345116843E+02  0.00000000000E+00 0.  1.
</event>
<event>
 7    1  0.5832130E-012  0.5930192E+02  0.7816164E-02  0.1266605E+00
        -11   -1    0    0    0    0  0.00000000000E+00  0.00000000000E+00  0.45593999997E+02  0.45594000000E+02  0.51100000000E-03 0. -1.
         11   -1    0    0    0    0 -0.00000000000E+00 -0.00000000000E+00 -0.45593999997E+02  0.45594000000E+02  0.51100000000E-03 0.  1.
    9900012    2    1    2    0    0 -0.19702100069E+02 -0.36008081120E+01 -0.24810950144E+02  0.59301924462E+02  0.49999964316E+02 0.  0.
         12    1    1    2    0    0  0.19702100069E+02  0.36008081120E+01  0.24810950144E+02  0.31886075538E+02  0.00000000000E+00 0. -1.
         11    1    3    3    0    0 -0.62702971822E+01  0.31426414832E+01 -0.12208043096E+02  0.14079387016E+02  0.51100000000E-03 0. -1.
        -11    1    3    3    0    0  0.62449446872E+00 -0.18948426468E+02 -0.17683957855E+02  0.25925956581E+02  0.51100000000E-03 0.  1.
         12    1    3    3    0    0 -0.14056297355E+02  0.12204976873E+02  0.50810508065E+01  0.19296580865E+02  0.00000000000E+00 0. -1.
</event>
<event>
 7    1  0.5832130E-012  0.5930194E+02  0.7816164E-02  0.1266605E+00
        -11   -1    0    0    0    0  0.00000000000E+00  0.00000000000E+00  0.45593999997E+02  0.45594000000E+02  0.51100000000E-03 0.  1.
         11   -1    0    0    0    0 -0.00000000000E+00 -0.00000000000E+00 -0.45593999997E+02  0.45594000000E+02  0.51100000000E-03 0. -1.
    9900012    2    1    2    0    0  0.13624026098E+02  0.28554195497E+02 -0.39704523906E+01  0.59301942549E+02  0.49999997303E+02 0.  0.
         12    1    1    2    0    0 -0.13624026098E+02 -0.28554195497E+02  0.39704523906E+01  0.31886057451E+02  0.00000000000E+00 0. -1.
         11    1    3    3    0    0  0.24302840186E+02  0.12194824061E+02  0.12198362522E+02  0.29801708398E+02  0.51100000000E-03 0. -1.
        -11    1    3    3    0    0 -0.17644437945E+01  0.98626902112E+01 -0.11234359487E+00  0.10019907258E+02  0.51100000000E-03 0.  1.
        -12    1    3    3    0    0 -0.89143702937E+01  0.64966812247E+01 -0.16056471318E+02  0.19480326893E+02  0.00000000000E+00 0.  1.
</event>
<event>
 7    1  0.5832130E-012  0.5930197E+02  0.7816164E-02  0.1266605E+00
        -11   -1    0    0    0    0  0.00000000000E+00  0.00000000000E+00  0.45593999997E+02  0.45594000000E+02  0.51100000000E-03 0.  1.
         11   -1    0    0    0    0 -0.00000000000E+00 -0.00000000000E+00 -0.45593999997E+02  0.45594000000E+02  0.51100000000E-03 0. -1.
    9900012    2    1    2    0    0  0.36923563206E+01  0.11460783986E+02  0.29525175842E+02  0.59301967426E+02  0.50000042673E+02 0.  0.
         12    1    1    2    0    0 -0.36923563206E+01 -0.11460783986E+02 -0.29525175842E+02  0.31886032574E+02  0.00000000000E+00 0. -1.
         11    1    3    3    0    0  0.55799052360E+01 -0.91674901231E+01  0.64027760418E+01  0.12496949984E+02  0.51100000000E-03 0. -1.
        -11    1    3    3    0    0  0.15147319383E+02  0.17158066824E+02  0.16440786366E+02  0.28180489673E+02  0.51100000000E-03 0.  1.
         12    1    3    3    0    0 -0.17034868298E+02  0.34702072843E+01  0.66816134344E+01  0.18624527769E+02  0.00000000000E+00 0. -1.
</event>
<event>
 7    1  0.5832130E-012  0.5930194E+02  0.7816164E-02  0.1266605E+00
        -11   -1    0    0    0    0  0.00000000000E+00  0.00000000000E+00  0.45593999997E+02  0.45594000000E+02  0.51100000000E-03 0.  1.
         11   -1    0    0    0    0 -0.00000000000E+00 -0.00000000000E+00 -0.45593999997E+02  0.45594000000E+02  0.51100000000E-03 0. -1.
    9900012    2    1    2    0    0  0.24343036278E+02 -0.18201020433E+02 -0.96363918067E+01  0.59301943375E+02  0.49999998810E+02 0.  0.
         12    1    1    2    0    0 -0.24343036278E+02  0.18201020433E+02  0.96363918067E+01  0.31886056625E+02  0.00000000000E+00 0. -1.
         11    1    3    3    0    0  0.57386892030E+01  0.85667095943E+01 -0.31176226808E+00  0.10315922790E+02  0.51100000000E-03 0. -1.
        -11    1    3    3    0    0 -0.32784605459E+01 -0.13844321660E+02 -0.17254461930E+02  0.22363586531E+02  0.51100000000E-03 0.  1.
         12    1    3    3    0    0  0.21882807621E+02 -0.12923408367E+02  0.79298323910E+01  0.26622434054E+02  0.00000000000E+00 0. -1.
</event>
<event>
 7    1  0.5832130E-012  0.5930195E+02  0.7816164E-02  0.1266605E+00
        -11   -1    0    0    0    0  0.00000000000E+00  0.00000000000E+00  0.45593999997E+02  0.45594000000E+02  0.51100000000E-03 0. -1.
         11   -1    0    0    0    0 -0.00000000000E+00 -0.00000000000E+00 -0.45593999997E+02  0.45594000000E+02  0.51100000000E-03 0.  1.
    9900012    2    1    2    0    0  0.12954619592E+02 -0.12579243124E+02 -0.26280421614E+02  0.59301951538E+02  0.50000013696E+02 0.  0.
         12    1    1    2    0    0 -0.12954619592E+02  0.12579243124E+02  0.26280421614E+02  0.31886048462E+02  0.00000000000E+00 0. -1.
         11    1    3    3    0    0 -0.14724127649E+02  0.11886904083E+01 -0.44947676811E+01  0.15440720731E+02  0.51100000000E-03 0. -1.
        -11    1    3    3    0    0  0.37850221230E+01 -0.71899881161E+01 -0.16686154274E+02  0.18559365999E+02  0.51100000000E-03 0.  1.
        -12    1    3    3    0    0  0.23893725119E+02 -0.65779454162E+01 -0.50994996584E+01  0.25301864807E+02  0.00000000000E+00 0.  1.
</event>
<event>
 7    1  0.5832130E-012  0.5930172E+02  0.7816164E-02  0.1266606E+00
        -11   -1    0    0    0    0  0.00000000000E+00  0.00000000000E+00  0.45593999997E+02  0.45594000000E+02  0.51100000000E-03 0. -1.
         11   -1    0    0    0    0 -0.00000000000E+00 -0.00000000000E+00 -0.45593999997E+02  0.45594000000E+02  0.51100000000E-03 0.  1.
    9900012    2    1    2    0    0 -0.11125212907E+02  0.29311642153E+02 -0.58130794426E+01  0.59301723633E+02  0.49999598052E+02 0.  0.
         12    1    1    2    0    0  0.11125212907E+02 -0.29311642153E+02  0.58130794426E+01  0.31886276367E+02  0.00000000000E+00 0. -1.
         11    1    3    3    0    0 -0.14802609321E+02  0.36672320733E+02 -0.15825208021E+02  0.42595933607E+02  0.51100000000E-03 0.  1.
        -11    1    3    3    0    0  0.39830314097E+01 -0.23721755350E+01 -0.88278774538E+00  0.47192235001E+01  0.51100000000E-03 0. -1.
        -12    1    3    3    0    0 -0.30563499572E+00 -0.49885030454E+01  0.10894916324E+02  0.11986566526E+02  0.00000000000E+00 0.  1.
</event>
<event>
 7    1  0.5832130E-012  0.5930192E+02  0.7816164E-02  0.1266605E+00
        -11   -1    0    0    0    0  0.00000000000E+00  0.00000000000E+00  0.45593999997E+02  0.45594000000E+02  0.51100000000E-03 0. -1.
         11   -1    0    0    0    0 -0.00000000000E+00 -0.00000000000E+00 -0.45593999997E+02  0.45594000000E+02  0.51100000000E-03 0.  1.
    9900012    2    1    2    0    0 -0.19926443090E+02 -0.21486525388E+02 -0.12569323816E+02  0.59301924533E+02  0.49999964447E+02 0.  0.
         12    1    1    2    0    0  0.19926443090E+02  0.21486525388E+02  0.12569323816E+02  0.31886075467E+02  0.00000000000E+00 0. -1.
         11    1    3    3    0    0  0.12432039392E+02 -0.29138539866E+01 -0.38285273648E+00  0.12774690798E+02  0.51100000000E-03 0. -1.
        -11    1    3    3    0    0 -0.50844812739E+01 -0.15331779026E+02  0.74364989553E+00  0.16169984952E+02  0.51100000000E-03 0.  1.
         12    1    3    3    0    0 -0.27274001208E+02 -0.32408923757E+01 -0.12930120975E+02  0.30357248784E+02  0.00000000000E+00 0. -1.
</event>
<event>
 7    1  0.5832130E-012  0.5930194E+02  0.7816164E-02  0.1266605E+00
        -11   -1    0    0    0    0  0.00000000000E+00  0.00000000000E+00  0.45593999997E+02  0.45594000000E+02  0.51100000000E-03 0.  1.
         11   -1    0    0    0    0 -0.00000000000E+00 -0.00000000000E+00 -0.45593999997E+02  0.45594000000E+02  0.51100000000E-03 0. -1.
    9900012    2    1    2    0    0 -0.12820923747E+02 -0.19977638334E+02  0.21289396291E+02  0.59301944841E+02  0.50000001484E+02 0.  0.
         12    1    1    2    0    0  0.12820923747E+02  0.19977638334E+02 -0.21289396291E+02  0.31886055159E+02  0.00000000000E+00 0. -1.
         11    1    3    3    0    0 -0.26302860542E+02 -0.11829349239E+02  0.13169436938E+02  0.31705016096E+02  0.51100000000E-03 0. -1.
        -11    1    3    3    0    0 -0.40511414278E+01 -0.73646740339E+01  0.37587365503E+00  0.84137656111E+01  0.51100000000E-03 0.  1.
         12    1    3    3    0    0  0.17533078223E+02 -0.78361506081E+00  0.77440856985E+01  0.19183163134E+02  0.00000000000E+00 0. -1.
</event>
<event>
 7    1  0.5832130E-012  0.5930196E+02  0.7816164E-02  0.1266605E+00
        -11   -1    0    0    0    0  0.00000000000E+00  0.00000000000E+00  0.45593999997E+02  0.45594000000E+02  0.51100000000E-03 0.  1.
         11   -1    0    0    0    0 -0.00000000000E+00 -0.00000000000E+00 -0.45593999997E+02  0.45594000000E+02  0.51100000000E-03 0. -1.
    9900012    2    1    2    0    0  0.21442157261E+02  0.23314990693E+02  0.36557335713E+01  0.59301964075E+02  0.50000036562E+02 0.  0.
         12    1    1    2    0    0 -0.21442157261E+02 -0.23314990693E+02 -0.36557335713E+01  0.31886035925E+02  0.00000000000E+00 0. -1.
         11    1    3    3    0    0  0.79058376191E+01  0.31555503065E+01  0.22269440983E+00  0.85152427598E+01  0.51100000000E-03 0. -1.
        -11    1    3    3    0    0  0.29863871755E+02  0.14521258583E+02  0.43383692342E+01  0.33489389886E+02  0.51100000000E-03 0.  1.
         12    1    3    3    0    0 -0.16327552113E+02  0.56381818039E+01 -0.90533007277E+00  0.17297331430E+02  0.00000000000E+00 0. -1.
</event>
<event>
 7    1  0.5832130E-012  0.5930195E+02  0.7816164E-02  0.1266605E+00
        -11   -1    0    0    0    0  0.00000000000E+00  0.00000000000E+00  0.45593999997E+02  0.45594000000E+02  0.51100000000E-03 0.  1.
         11   -1    0    0    0    0 -0.00000000000E+00 -0.00000000000E+00 -0.45593999997E+02  0.45594000000E+02  0.51100000000E-03 0. -1.
    9900012    2    1    2    0    0 -0.28304803896E+02 -0.12865114539E+02 -0.70743890758E+01  0.59301951695E+02  0.50000013984E+02 0.  0.
         12    1    1    2    0    0  0.28304803896E+02  0.12865114539E+02  0.70743890758E+01  0.31886048305E+02  0.00000000000E+00 0. -1.
         11    1    3    3    0    0  0.28665142155E+00  0.76068522368E+01 -0.10333202047E+02  0.12834384862E+02  0.51100000000E-03 0. -1.
        -11    1    3    3    0    0 -0.15268909870E+02 -0.14790616488E+00  0.13226357984E+02  0.20201436351E+02  0.51100000000E-03 0.  1.
         12    1    3    3    0    0 -0.13322545447E+02 -0.20324060611E+02 -0.99675450134E+01  0.26266130482E+02  0.00000000000E+00 0. -1.
</event>
<event>
 7    1  0.5832130E-012  0.5930191E+02  0.7816164E-02  0.1266605E+00
        -11   -1    0    0    0    0  0.00000000000E+00  0.00000000000E+00  0.45593999997E+02  0.45594000000E+02  0.51100000000E-03 0. -1.
         11   -1    0    0    0    0 -0.00000000000E+00 -0.00000000000E+00 -0.45593999997E+02  0.45594000000E+02  0.51100000000E-03 0.  1.
    9900012    2    1    2    0    0  0.70866241664E+01  0.26693374555E+02 -0.15936308941E+02  0.59301914793E+02  0.49999946682E+02 0.  0.
         12    1    1    2    0    0 -0.70866241664E+01 -0.26693374555E+02  0.15936308941E+02  0.31886085207E+02  0.00000000000E+00 0. -1.
         11    1    3    3    0    0  0.10414476502E+02  0.82752267017E+01 -0.74541538445E+01  0.15248118165E+02  0.51100000000E-03 0. -1.
        -11    1    3    3    0    0 -0.89103611186E+01  0.26144673731E+02 -0.15993660620E+02  0.31917639011E+02  0.51100000000E-03 0.  1.
         12    1    3    3    0    0  0.55825087825E+01 -0.77265258775E+01  0.75115055242E+01  0.12136157616E+02  0.00000000000E+00 0. -1.
</event>
<event>
 7    1  0.5832130E-012  0.5930195E+02  0.7816164E-02  0.1266605E+00
        -11   -1    0    0    0    0  0.00000000000E+00  0.00000000000E+00  0.45593999997E+02  0.45594000000E+02  0.51100000000E-03 0.  1.
         11   -1    0    0    0    0 -0.00000000000E+00 -0.00000000000E+00 -0.45593999997E+02  0.45594000000E+02  0.51100000000E-03 0. -1.
    9900012    2    1    2    0    0  0.30656063875E+02 -0.11876896495E+01  0.86899503518E+01  0.59301951388E+02  0.50000013423E+02 0.  0.
         12    1    1    2    0    0 -0.30656063875E+02  0.11876896495E+01 -0.86899503518E+01  0.31886048612E+02  0.00000000000E+00 0. -1.
         11    1    3    3    0    0 -0.57750315821E+01 -0.30726310761E+01 -0.12465581335E+02  0.14077740223E+02  0.51100000000E-03 0. -1.
        -11    1    3    3    0    0  0.82666519741E+01  0.55716265113E+01  0.27902441693E+00  0.99728838221E+01  0.51100000000E-03 0.  1.
        -12    1    3    3    0    0  0.28164443483E+02 -0.36866850847E+01  0.20876507270E+02  0.35251327342E+02  0.00000000000E+00 0.  1.
</event>
<event>
 7    1  0.5832130E-012  0.5930192E+02  0.7816164E-02  0.1266605E+00
        -11   -1    0    0    0    0  0.00000000000E+00  0.00000000000E+00  0.45593999997E+02  0.45594000000E+02  0.51100000000E-03 0.  1.
         11   -1    0    0    0    0 -0.00000000000E+00 -0.00000000000E+00 -0.45593999997E+02  0.45594000000E+02  0.51100000000E-03 0. -1.
    9900012    2    1    2    0    0  0.14535896601E+02  0.23333888618E+02  0.16154245090E+02  0.59301917104E+02  0.49999950898E+02 0.  0.
         12    1    1    2    0    0 -0.14535896601E+02 -0.23333888618E+02 -0.16154245090E+02  0.31886082896E+02  0.00000000000E+00 0. -1.
         11    1    3    3    0    0 -0.89785249909E+01 -0.11702243015E+01 -0.24838332221E+01  0.93889703197E+01  0.51100000000E-03 0. -1.
        -11    1    3    3    0    0  0.40661634041E+01 -0.21227087994E+01  0.16214656293E+02  0.16850954170E+02  0.51100000000E-03 0.  1.
         12    1    3    3    0    0  0.19448258188E+02  0.26626821718E+02  0.24234220189E+01  0.33061992615E+02  0.00000000000E+00 0. -1.
</event>
<event>
 7    1  0.5832130E-012  0.5930194E+02  0.7816164E-02  0.1266605E+00
        -11   -1    0    0    0    0  0.00000000000E+00  0.00000000000E+00  0.45593999997E+02  0.45594000000E+02  0.51100000000E-03 0.  1.
         11   -1    0    0    0    0 -0.00000000000E+00 -0.00000000000E+00 -0.45593999997E+02  0.45594000000E+02  0.51100000000E-03 0. -1.
    9900012    2    1    2    0    0 -0.18005497183E+02 -0.17864652604E+02  0.19322961941E+02  0.59301943492E+02  0.49999999022E+02 0.  0.
         12    1    1    2    0    0  0.18005497183E+02  0.17864652604E+02 -0.19322961941E+02  0.31886056508E+02  0.00000000000E+00 0. -1.
         11    1    3    3    0    0 -0.14645085215E+00 -0.10095667623E+02  0.14963738184E+02  0.18051521080E+02  0.51100000000E-03 0.  1.
        -11    1    3    3    0    0 -0.18701146969E+02 -0.18432622574E+01  0.18206492326E+02  0.26164993346E+02  0.51100000000E-03 0. -1.
         12    1    3    3    0    0  0.84210063813E+00 -0.59257227235E+01 -0.13847268569E+02  0.15085429066E+02  0.00000000000E+00 0. -1.
</event>
<event>
 7    1  0.5832130E-012  0.5930194E+02  0.7816164E-02  0.1266605E+00
        -11   -1    0    0    0    0  0.00000000000E+00  0.00000000000E+00  0.45593999997E+02  0.45594000000E+02  0.51100000000E-03 0.  1.
         11   -1    0    0    0    0 -0.00000000000E+00 -0.00000000000E+00 -0.45593999997E+02  0.45594000000E+02  0.51100000000E-03 0. -1.
    9900012    2    1    2    0    0 -0.27664350595E+02  0.88987271620E+01  0.13123161482E+02  0.59301937116E+02  0.49999987394E+02 0.  0.
         12    1    1    2    0    0  0.27664350595E+02 -0.88987271620E+01 -0.13123161482E+02  0.31886062884E+02  0.00000000000E+00 0. -1.
         11    1    3    3    0    0 -0.31380857945E+01 -0.11215566062E+02 -0.99024048323E+00  0.11688330977E+02  0.51100000000E-03 0. -1.
        -11    1    3    3    0    0 -0.76346542370E+01  0.12799296331E+02 -0.94996108806E+01  0.17673498212E+02  0.51100000000E-03 0.  1.
         12    1    3    3    0    0 -0.16891610564E+02  0.73149968932E+01  0.23613012846E+02  0.29940107927E+02  0.00000000000E+00 0. -1.
</event>
<event>
 7    1  0.5832130E-012  0.5930196E+02  0.7816164E-02  0.1266605E+00
        -11   -1    0    0    0    0  0.00000000000E+00  0.00000000000E+00  0.45593999997E+02  0.45594000000E+02  0.51100000000E-03 0. -1.
         11   -1    0    0    0    0 -0.00000000000E+00 -0.00000000000E+00 -0.45593999997E+02  0.45594000000E+02  0.51100000000E-03 0.  1.
    9900012    2    1    2    0    0  0.12948267735E+02  0.26056012113E+02 -0.13044000423E+02  0.59301963062E+02  0.50000034714E+02 0.  0.
         12    1    1    2    0    0 -0.12948267735E+02 -0.26056012113E+02  0.13044000423E+02  0.31886036938E+02  0.00000000000E+00 0. -1.
         11    1    3    3    0    0  0.84858510165E+01 -0.56890736735E+01 -0.71147599614E+01  0.12449700250E+02  0.51100000000E-03 0. -1.
        -11    1    3    3    0    0  0.17937123489E+02  0.14504328685E+02  0.29142947292E+01  0.23251001348E+02  0.51100000000E-03 0.  1.
         12    1    3    3    0    0 -0.13474706771E+02  0.17240757102E+02 -0.88435351909E+01  0.23601261464E+02  0.00000000000E+00 0. -1.
</event>
<event>
 7    1  0.5832130E-012  0.5930196E+02  0.7816164E-02  0.1266605E+00
        -11   -1    0    0    0    0  0.00000000000E+00  0.00000000000E+00  0.45593999997E+02  0.45594000000E+02  0.51100000000E-03 0. -1.
         11   -1    0    0    0    0 -0.00000000000E+00 -0.00000000000E+00 -0.45593999997E+02  0.45594000000E+02  0.51100000000E-03 0.  1.
    9900012    2    1    2    0    0 -0.17745222968E+02  0.25060902533E+02 -0.85893960659E+01  0.59301960755E+02  0.50000030507E+02 0.  0.
         12    1    1    2    0    0  0.17745222968E+02 -0.25060902533E+02  0.85893960659E+01  0.31886039245E+02  0.00000000000E+00 0. -1.
         11    1    3    3    0    0 -0.12105094809E+02  0.62837554934E+01 -0.33393734951E+01  0.14041734901E+02  0.51100000000E-03 0.  1.
        -11    1    3    3    0    0 -0.40409198501E+01  0.14669517386E+02  0.16862451704E+02  0.22712684810E+02  0.51100000000E-03 0. -1.
         12    1    3    3    0    0 -0.15992083095E+01  0.41076296532E+01 -0.22112474274E+02  0.22547541044E+02  0.00000000000E+00 0. -1.
</event>
<event>
 7    1  0.5832130E-012  0.5930194E+02  0.7816164E-02  0.1266605E+00
        -11   -1    0    0    0    0  0.00000000000E+00  0.00000000000E+00  0.45593999997E+02  0.45594000000E+02  0.51100000000E-03 0.  1.
         11   -1    0    0    0    0 -0.00000000000E+00 -0.00000000000E+00 -0.45593999997E+02  0.45594000000E+02  0.51100000000E-03 0. -1.
    9900012    2    1    2    0    0 -0.12257565372E+02 -0.26979478317E+02 -0.11772035550E+02  0.59301937526E+02  0.49999988142E+02 0.  0.
         12    1    1    2    0    0  0.12257565372E+02  0.26979478317E+02  0.11772035550E+02  0.31886062474E+02  0.00000000000E+00 0. -1.
         11    1    3    3    0    0 -0.11176056654E+02 -0.36644946297E+01 -0.13965671506E+02  0.18258497860E+02  0.51100000000E-03 0. -1.
        -11    1    3    3    0    0 -0.13446410750E+02 -0.17496365120E+02  0.11130893438E+02  0.24714885058E+02  0.51100000000E-03 0.  1.
        -12    1    3    3    0    0  0.12364902031E+02 -0.58186185674E+01 -0.89372574821E+01  0.16328554608E+02  0.00000000000E+00 0.  1.
</event>
<event>
 7    1  0.5832130E-012  0.5930195E+02  0.7816164E-02  0.1266605E+00
        -11   -1    0    0    0    0  0.00000000000E+00  0.00000000000E+00  0.45593999997E+02  0.45594000000E+02  0.51100000000E-03 0.  1.
         11   -1    0    0    0    0 -0.00000000000E+00 -0.00000000000E+00 -0.45593999997E+02  0.45594000000E+02  0.51100000000E-03 0. -1.
    9900012    2    1    2    0    0  0.21752086843E+02  0.16044046508E+02  0.16916128015E+02  0.59301951367E+02  0.50000013385E+02 0.  0.
         12    1    1    2    0    0 -0.21752086843E+02 -0.16044046508E+02 -0.16916128015E+02  0.31886048633E+02  0.00000000000E+00 0. -1.
         11    1    3    3    0    0  0.23983056653E+02 -0.80990314160E+01  0.11532037185E+02  0.27816707178E+02  0.51100000000E-03 0. -1.
        -11    1    3    3    0    0  0.10292368461E+01  0.69337943471E+01 -0.70991015478E+01  0.99766765799E+01  0.51100000000E-03 0.  1.
        -12    1    3    3    0    0 -0.32602066560E+01  0.17209283577E+02  0.12483192378E+02  0.21508567610E+02  0.00000000000E+00 0.  1.
</event>
<event>
 7    1  0.5832130E-012  0.5930195E+02  0.7816164E-02  0.1266605E+00
        -11   -1    0    0    0    0  0.00000000000E+00  0.00000000000E+00  0.45593999997E+02  0.45594000000E+02  0.51100000000E-03 0. -1.
         11   -1    0    0    0    0 -0.00000000000E+00 -0.00000000000E+00 -0.45593999997E+02  0.45594000000E+02  0.51100000000E-03 0.  1.
    9900012    2    1    2    0    0 -0.15562680535E+01 -0.26171035634E+02 -0.18148688328E+02  0.59301953453E+02  0.50000017189E+02 0.  0.
         12    1    1    2    0    0  0.15562680535E+01  0.26171035634E+02  0.18148688328E+02  0.31886046547E+02  0.00000000000E+00 0. -1.
         11    1    3    3    0    0  0.77946106418E+01 -0.56147346580E+01 -0.39451272214E+01  0.10384855771E+02  0.51100000000E-03 0. -1.
        -11    1    3    3    0    0  0.65750455588E+01 -0.28268528241E+02 -0.73339376909E+01  0.29935389681E+02  0.51100000000E-03 0.  1.
         12    1    3    3    0    0 -0.15925924254E+02  0.77122272654E+01 -0.68696234152E+01  0.18981708000E+02  0.00000000000E+00 0. -1.
</event>
<event>
 7    1  0.5832130E-012  0.5930196E+02  0.7816164E-02  0.1266605E+00
        -11   -1    0    0    0    0  0.00000000000E+00  0.00000000000E+00  0.45593999997E+02  0.45594000000E+02  0.51100000000E-03 0.  1.
         11   -1    0    0    0    0 -0.00000000000E+00 -0.00000000000E+00 -0.45593999997E+02  0.45594000000E+02  0.51100000000E-03 0. -1.
    9900012    2    1    2    0    0  0.10885660427E+02  0.29741209647E+02  0.36989428037E+01  0.59301963369E+02  0.50000035273E+02 0.  0.
         12    1    1    2    0    0 -0.10885660427E+02 -0.29741209647E+02 -0.36989428037E+01  0.31886036631E+02  0.00000000000E+00 0. -1.
         11    1    3    3    0    0 -0.12693420793E+02  0.32232029456E+01 -0.30451227588E+01  0.13445621649E+02  0.51100000000E-03 0. -1.
        -11    1    3    3    0    0  0.23108285881E+02  0.94699743511E+01  0.12407787517E+02  0.27885954922E+02  0.51100000000E-03 0.  1.
         12    1    3    3    0    0  0.47079533834E+00  0.17048032350E+02 -0.56637219543E+01  0.17970386797E+02  0.00000000000E+00 0. -1.
</event>
<event>
 7    1  0.5832130E-012  0.5930194E+02  0.7816164E-02  0.1266605E+00
        -11   -1    0    0    0    0  0.00000000000E+00  0.00000000000E+00  0.45593999997E+02  0.45594000000E+02  0.51100000000E-03 0.  1.
         11   -1    0    0    0    0 -0.00000000000E+00 -0.00000000000E+00 -0.45593999997E+02  0.45594000000E+02  0.51100000000E-03 0. -1.
    9900012    2    1    2    0    0  0.20059105184E+02 -0.24287436062E+02  0.49470602670E+01  0.59301942600E+02  0.49999997396E+02 0.  0.
         12    1    1    2    0    0 -0.20059105184E+02  0.24287436062E+02 -0.49470602670E+01  0.31886057400E+02  0.00000000000E+00 0. -1.
         11    1    3    3    0    0 -0.24721746411E+01 -0.23755129802E+02  0.20349208041E+02  0.31376872176E+02  0.51100000000E-03 0.  1.
        -11    1    3    3    0    0  0.26190583654E+01  0.16909259435E+01 -0.31918403690E+01  0.44616748504E+01  0.51100000000E-03 0. -1.
        -12    1    3    3    0    0  0.19912221460E+02 -0.22232322028E+01 -0.12210307405E+02  0.23463395573E+02  0.00000000000E+00 0.  1.
</event>
<event>
 7    1  0.5832130E-012  0.5930199E+02  0.7816164E-02  0.1266605E+00
        -11   -1    0    0    0    0  0.00000000000E+00  0.00000000000E+00  0.45593999997E+02  0.45594000000E+02  0.51100000000E-03 0. -1.
         11   -1    0    0    0    0 -0.00000000000E+00 -0.00000000000E+00 -0.45593999997E+02  0.45594000000E+02  0.51100000000E-03 0.  1.
    9900012    2    1    2    0    0  0.85903536891E+01 -0.11085963066E+02 -0.28636081800E+02  0.59301985284E+02  0.50000075241E+02 0.  0.
         12    1    1    2    0    0 -0.85903536891E+01  0.11085963066E+02  0.28636081800E+02  0.31886014716E+02  0.00000000000E+00 0. -1.
         11    1    3    3    0    0  0.11504045150E+02  0.13077775784E+02 -0.20372461526E+02  0.26803142785E+02  0.51100000000E-03 0. -1.
        -11    1    3    3    0    0  0.85534437082E+01 -0.10732811851E+02 -0.44886837497E+01  0.14439630589E+02  0.51100000000E-03 0.  1.
        -12    1    3    3    0    0 -0.11467135169E+02 -0.13430926999E+02 -0.37749365248E+01  0.18059211910E+02  0.00000000000E+00 0.  1.
</event>
<event>
 7    1  0.9764589E-012  0.5930215E+02  0.7816164E-02  0.1266604E+00
        -11   -1    0    0    0    0  0.00000000000E+00  0.00000000000E+00  0.45593999997E+02  0.45594000000E+02  0.51100000000E-03 0. -1.
         11   -1    0    0    0    0 -0.00000000000E+00 -0.00000000000E+00 -0.45593999997E+02  0.45594000000E+02  0.51100000000E-03 0.  1.
    9900012    2    1    2    0    0  0.17525416829E+02 -0.11121361146E+02 -0.24205016611E+02  0.59302145175E+02  0.50000366843E+02 0.  0.
         12    1    1    2    0    0 -0.17525416829E+02  0.11121361146E+02  0.24205016611E+02  0.31885854825E+02  0.00000000000E+00 0. -1.
         11    1    3    3    0    0  0.67872109709E+01 -0.95670132592E+01 -0.59256711037E+01  0.13141824598E+02  0.51100000000E-03 0. -1.
        -11    1    3    3    0    0  0.12493969185E+02 -0.12345698800E+02 -0.26975795954E+02  0.32190202119E+02  0.51100000000E-03 0.  1.
         12    1    3    3    0    0 -0.17557633264E+01  0.10791350913E+02  0.86964504460E+01  0.13970118459E+02  0.00000000000E+00 0. -1.
</event>
<event>
 7    1  0.5832130E-012  0.5930198E+02  0.7816164E-02  0.1266605E+00
        -11   -1    0    0    0    0  0.00000000000E+00  0.00000000000E+00  0.45593999997E+02  0.45594000000E+02  0.51100000000E-03 0.  1.
         11   -1    0    0    0    0 -0.00000000000E+00 -0.00000000000E+00 -0.45593999997E+02  0.45594000000E+02  0.51100000000E-03 0. -1.
    9900012    2    1    2    0    0  0.69666748519E+01  0.93366751288E+01  0.29681818724E+02  0.59301977612E+02  0.50000061250E+02 0.  0.
         12    1    1    2    0    0 -0.69666748519E+01 -0.93366751288E+01 -0.29681818724E+02  0.31886022388E+02  0.00000000000E+00 0. -1.
         11    1    3    3    0    0  0.13293892684E+01 -0.11476537189E+02  0.12419803244E+02  0.16962596928E+02  0.51100000000E-03 0.  1.
        -11    1    3    3    0    0  0.26173961049E+01  0.75667048510E+01 -0.94408689325E+01  0.12378844499E+02  0.51100000000E-03 0. -1.
        -12    1    3    3    0    0  0.30198894786E+01  0.13246507467E+02  0.26702884413E+02  0.29960536185E+02  0.00000000000E+00 0.  1.
</event>
<event>
 7    1  0.5832130E-012  0.5930197E+02  0.7816164E-02  0.1266605E+00
        -11   -1    0    0    0    0  0.00000000000E+00  0.00000000000E+00  0.45593999997E+02  0.45594000000E+02  0.51100000000E-03 0.  1.
         11   -1    0    0    0    0 -0.00000000000E+00 -0.00000000000E+00 -0.45593999997E+02  0.45594000000E+02  0.51100000000E-03 0. -1.
    9900012    2    1    2    0    0  0.17180900567E+02  0.14319611640E+02  0.22726283779E+02  0.59301974907E+02  0.50000056317E+02 0.  0.
         12    1    1    2    0    0 -0.17180900567E+02 -0.14319611640E+02 -0.22726283779E+02  0.31886025093E+02  0.00000000000E+00 0. -1.
         11    1    3    3    0    0 -0.47312515564E+01 -0.14717792522E+02  0.14279508464E+01  0.15525372843E+02  0.51100000000E-03 0. -1.
        -11    1    3    3    0    0  0.15990698906E+02  0.16318234594E+02  0.73684663646E+01  0.24005864462E+02  0.51100000000E-03 0.  1.
        -12    1    3    3    0    0  0.59214532170E+01  0.12719169569E+02  0.13929866568E+02  0.19770737602E+02  0.00000000000E+00 0.  1.
</event>
<event>
 7    1  0.5832130E-012  0.5930192E+02  0.7816164E-02  0.1266605E+00
        -11   -1    0    0    0    0  0.00000000000E+00  0.00000000000E+00  0.45593999997E+02  0.45594000000E+02  0.51100000000E-03 0. -1.
         11   -1    0    0    0    0 -0.00000000000E+00 -0.00000000000E+00 -0.45593999997E+02  0.45594000000E+02  0.51100000000E-03 0.  1.
    9900012    2    1    2    0    0  0.10269803410E+02 -0.19806438282E+01 -0.30121926298E+02  0.59301917519E+02  0.49999951655E+02 0.  0.
         12    1    1    2    0    0 -0.10269803410E+02  0.19806438282E+01  0.30121926298E+02  0.31886082481E+02  0.00000000000E+00 0. -1.
         11    1    3    3    0    0 -0.64846262734E+01  0.72788709934E+01  0.85010788918E+01  0.12934476543E+02  0.51100000000E-03 0. -1.
        -11    1    3    3    0    0  0.82075730179E+01 -0.12067123345E+02 -0.14291648453E+02  0.20426231576E+02  0.51100000000E-03 0.  1.
        -12    1    3    3    0    0  0.85468566656E+01  0.28076085230E+01 -0.24331356737E+02  0.25941209400E+02  0.00000000000E+00 0.  1.
</event>
<event>
 7    1  0.5832130E-012  0.5930195E+02  0.7816164E-02  0.1266605E+00
        -11   -1    0    0    0    0  0.00000000000E+00  0.00000000000E+00  0.45593999997E+02  0.45594000000E+02  0.51100000000E-03 0. -1.
         11   -1    0    0    0    0 -0.00000000000E+00 -0.00000000000E+00 -0.45593999997E+02  0.45594000000E+02  0.51100000000E-03 0.  1.
    9900012    2    1    2    0    0  0.20771489296E+02  0.29961899042E+01 -0.24006004431E+02  0.59301950225E+02  0.50000011302E+02 0.  0.
         12    1    1    2    0    0 -0.20771489296E+02 -0.29961899042E+01  0.24006004431E+02  0.31886049775E+02  0.00000000000E+00 0. -1.
         11    1    3    3    0    0  0.75433985856E+01  0.23489010378E+02 -0.50273399271E+01  0.25177581650E+02  0.51100000000E-03 0. -1.
        -11    1    3    3    0    0 -0.52834104569E+00  0.15621057933E+01  0.40649396389E+00  0.16983981788E+01  0.51100000000E-03 0.  1.
        -12    1    3    3    0    0  0.13756431756E+02 -0.22054926267E+02 -0.19385158468E+02  0.32425970396E+02  0.00000000000E+00 0.  1.
</event>
<event>
 7    1  0.5832130E-012  0.5930195E+02  0.7816164E-02  0.1266605E+00
        -11   -1    0    0    0    0  0.00000000000E+00  0.00000000000E+00  0.45593999997E+02  0.45594000000E+02  0.51100000000E-03 0.  1.
         11   -1    0    0    0    0 -0.00000000000E+00 -0.00000000000E+00 -0.45593999997E+02  0.45594000000E+02  0.51100000000E-03 0. -1.
    9900012    2    1    2    0    0 -0.11747489945E+02 -0.29489302007E+02  0.30162896951E+01  0.59301945738E+02  0.50000003120E+02 0.  0.
         12    1    1    2    0    0  0.11747489945E+02  0.29489302007E+02 -0.30162896951E+01  0.31886054262E+02  0.00000000000E+00 0. -1.
         11    1    3    3    0    0  0.71014881137E+01  0.10420254711E+02 -0.46438669079E+01  0.13437944106E+02  0.51100000000E-03 0. -1.
        -11    1    3    3    0    0 -0.85184733341E+01 -0.10937111835E+02  0.58646749796E+01  0.15052548492E+02  0.51100000000E-03 0.  1.
        -12    1    3    3    0    0 -0.10330504725E+02 -0.28972444883E+02  0.17954816234E+01  0.30811453140E+02  0.00000000000E+00 0.  1.
</event>
<event>
 7    1  0.5832130E-012  0.5930194E+02  0.7816164E-02  0.1266605E+00
        -11   -1    0    0    0    0  0.00000000000E+00  0.00000000000E+00  0.45593999997E+02  0.45594000000E+02  0.51100000000E-03 0. -1.
         11   -1    0    0    0    0 -0.00000000000E+00 -0.00000000000E+00 -0.45593999997E+02  0.45594000000E+02  0.51100000000E-03 0.  1.
    9900012    2    1    2    0    0  0.23303676706E+02  0.20527466135E+01  0.21666695849E+02  0.59301939947E+02  0.49999992558E+02 0.  0.
         12    1    1    2    0    0 -0.23303676706E+02 -0.20527466135E+01 -0.21666695849E+02  0.31886060053E+02  0.00000000000E+00 0. -1.
         11    1    3    3    0    0  0.70794892179E+01 -0.64789624595E+01 -0.95094635853E+01  0.13510219098E+02  0.51100000000E-03 0. -1.
        -11    1    3    3    0    0  0.16563662897E+02  0.82195258381E+00  0.33549210048E+01  0.16919989061E+02  0.51100000000E-03 0.  1.
         12    1    3    3    0    0 -0.33947540871E+00  0.77097564891E+01  0.27821238429E+02  0.28871731788E+02  0.00000000000E+00 0. -1.
</event>
<event>
 7    1  0.5832130E-012  0.5930191E+02  0.7816164E-02  0.1266605E+00
        -11   -1    0    0    0    0  0.00000000000E+00  0.00000000000E+00  0.45593999997E+02  0.45594000000E+02  0.51100000000E-03 0.  1.
         11   -1    0    0    0    0 -0.00000000000E+00 -0.00000000000E+00 -0.45593999997E+02  0.45594000000E+02  0.51100000000E-03 0. -1.
    9900012    2    1    2    0    0 -0.89166985864E+01  0.22987011686E+02  0.20219111935E+02  0.59301910441E+02  0.49999938746E+02 0.  0.
         12    1    1    2    0    0  0.89166985864E+01 -0.22987011686E+02 -0.20219111935E+02  0.31886089559E+02  0.00000000000E+00 0. -1.
         11    1    3    3    0    0 -0.88567116745E+01  0.49211230296E+01  0.11347628085E+02  0.15212739956E+02  0.51100000000E-03 0.  1.
        -11    1    3    3    0    0 -0.10797071900E+01 -0.34679072596E+01 -0.12929104670E+02  0.13429590321E+02  0.51100000000E-03 0. -1.
         12    1    3    3    0    0  0.10197202781E+01  0.21533795916E+02  0.21800588519E+02  0.30659580163E+02  0.00000000000E+00 0. -1.
</event>
<event>
 7    1  0.5832130E-012  0.5930197E+02  0.7816164E-02  0.1266605E+00
        -11   -1    0    0    0    0  0.00000000000E+00  0.00000000000E+00  0.45593999997E+02  0.45594000000E+02  0.51100000000E-03 0.  1.
         11   -1    0    0    0    0 -0.00000000000E+00 -0.00000000000E+00 -0.45593999997E+02  0.45594000000E+02  0.51100000000E-03 0. -1.
    9900012    2    1    2    0    0  0.11088127745E+02  0.29331232569E+02  0.57836967282E+01  0.59301969692E+02  0.50000046806E+02 0.  0.
         12    1    1    2    0    0 -0.11088127745E+02 -0.29331232569E+02 -0.57836967282E+01  0.31886030308E+02  0.00000000000E+00 0. -1.
         11    1    3    3    0    0  0.82654868572E+00 -0.40424001113E+01  0.43721894973E+01  0.60116738644E+01  0.51100000000E-03 0. -1.
        -11    1    3    3    0    0 -0.10213657282E+02  0.18439058064E+02  0.13684949147E+02  0.25131563636E+02  0.51100000000E-03 0.  1.
         12    1    3    3    0    0  0.20475236342E+02  0.14934574617E+02 -0.12273441916E+02  0.28158732193E+02  0.00000000000E+00 0. -1.
</event>
<event>
 7    1  0.5832130E-012  0.5930195E+02  0.7816164E-02  0.1266605E+00
        -11   -1    0    0    0    0  0.00000000000E+00  0.00000000000E+00  0.45593999997E+02  0.45594000000E+02  0.51100000000E-03 0.  1.
         11   -1    0    0    0    0 -0.00000000000E+00 -0.00000000000E+00 -0.45593999997E+02  0.45594000000E+02  0.51100000000E-03 0. -1.
    9900012    2    1    2    0    0 -0.10869443692E+02  0.19927256442E+02  0.22393738949E+02  0.59301954469E+02  0.50000019042E+02 0.  0.
         12    1    1    2    0    0  0.10869443692E+02 -0.19927256442E+02 -0.22393738949E+02  0.31886045531E+02  0.00000000000E+00 0. -1.
         11    1    3    3    0    0 -0.15431750254E+02  0.12139664887E+02 -0.74080910085E+01  0.20985475742E+02  0.51100000000E-03 0. -1.
        -11    1    3    3    0    0 -0.57528884198E+01 -0.50217486413E+01  0.95728565515E+01  0.12245540715E+02  0.51100000000E-03 0.  1.
         12    1    3    3    0    0  0.10315194981E+02  0.12809340196E+02  0.20228973406E+02  0.26070938012E+02  0.00000000000E+00 0. -1.
</event>
<event>
 7    1  0.5832130E-012  0.5930195E+02  0.7816164E-02  0.1266605E+00
        -11   -1    0    0    0    0  0.00000000000E+00  0.00000000000E+00  0.45593999997E+02  0.45594000000E+02  0.51100000000E-03 0.  1.
         11   -1    0    0    0    0 -0.00000000000E+00 -0.00000000000E+00 -0.45593999997E+02  0.45594000000E+02  0.51100000000E-03 0. -1.
    9900012    2    1    2    0    0  0.29720381960E+02 -0.11502378224E+02  0.10556418782E+01  0.59301949940E+02  0.50000010782E+02 0.  0.
         12    1    1    2    0    0 -0.29720381960E+02  0.11502378224E+02 -0.10556418782E+01  0.31886050060E+02  0.00000000000E+00 0. -1.
         11    1    3    3    0    0  0.57850355295E+01 -0.12153730944E+02  0.16894371204E+02  0.21600916430E+02  0.51100000000E-03 0. -1.
        -11    1    3    3    0    0  0.79514404066E+01 -0.60364348601E+01  0.45273210410E+01  0.10961778434E+02  0.51100000000E-03 0.  1.
         12    1    3    3    0    0  0.15983906024E+02  0.66877875799E+01 -0.20366050367E+02  0.26739255077E+02  0.00000000000E+00 0. -1.
</event>
<event>
 7    1  0.5832130E-012  0.5930195E+02  0.7816164E-02  0.1266605E+00
        -11   -1    0    0    0    0  0.00000000000E+00  0.00000000000E+00  0.45593999997E+02  0.45594000000E+02  0.51100000000E-03 0.  1.
         11   -1    0    0    0    0 -0.00000000000E+00 -0.00000000000E+00 -0.45593999997E+02  0.45594000000E+02  0.51100000000E-03 0. -1.
    9900012    2    1    2    0    0  0.22197004249E+02 -0.18001649581E+02  0.14140502086E+02  0.59301950001E+02  0.50000010895E+02 0.  0.
         12    1    1    2    0    0 -0.22197004249E+02  0.18001649581E+02 -0.14140502086E+02  0.31886049999E+02  0.00000000000E+00 0. -1.
         11    1    3    3    0    0  0.13732354907E+02 -0.22350258209E+01 -0.29215976519E+01  0.14216492001E+02  0.51100000000E-03 0. -1.
        -11    1    3    3    0    0  0.62403905638E+01  0.11887628242E+02  0.91091382812E+01  0.16224505542E+02  0.51100000000E-03 0.  1.
         12    1    3    3    0    0  0.22242587788E+01 -0.27654252002E+02  0.79529614563E+01  0.28860952459E+02  0.00000000000E+00 0. -1.
</event>
<event>
 7    1  0.5832130E-012  0.5930197E+02  0.7816164E-02  0.1266605E+00
        -11   -1    0    0    0    0  0.00000000000E+00  0.00000000000E+00  0.45593999997E+02  0.45594000000E+02  0.51100000000E-03 0.  1.
         11   -1    0    0    0    0 -0.00000000000E+00 -0.00000000000E+00 -0.45593999997E+02  0.45594000000E+02  0.51100000000E-03 0. -1.
    9900012    2    1    2    0    0  0.28640268527E+02 -0.13619860941E+02  0.33096124221E+01  0.59301966572E+02  0.50000041116E+02 0.  0.
         12    1    1    2    0    0 -0.28640268527E+02  0.13619860941E+02 -0.33096124221E+01  0.31886033428E+02  0.00000000000E+00 0. -1.
         11    1    3    3    0    0  0.14846588045E+02  0.13912391927E+02  0.15923690051E+01  0.20408612521E+02  0.51100000000E-03 0. -1.
        -11    1    3    3    0    0  0.70081448606E+01  0.10506798788E+01  0.58983122183E+01  0.92199842668E+01  0.51100000000E-03 0.  1.
        -12    1    3    3    0    0  0.67855356212E+01 -0.28582932747E+02 -0.41810688013E+01  0.29673369785E+02  0.00000000000E+00 0.  1.
</event>
<event>
 7    1  0.5832130E-012  0.5930197E+02  0.7816164E-02  0.1266605E+00
        -11   -1    0    0    0    0  0.00000000000E+00  0.00000000000E+00  0.45593999997E+02  0.45594000000E+02  0.51100000000E-03 0.  1.
         11   -1    0    0    0    0 -0.00000000000E+00 -0.00000000000E+00 -0.45593999997E+02  0.45594000000E+02  0.51100000000E-03 0. -1.
    9900012    2    1    2    0    0 -0.17220559349E+02 -0.13808720904E+02  0.23010659102E+02  0.59301970620E+02  0.50000048498E+02 0.  0.
         12    1    1    2    0    0  0.17220559349E+02  0.13808720904E+02 -0.23010659102E+02  0.31886029380E+02  0.00000000000E+00 0. -1.
         11    1    3    3    0    0 -0.42519427012E+00 -0.24422596260E+02  0.16193687055E+02  0.29306645986E+02  0.51100000000E-03 0. -1.
        -11    1    3    3    0    0 -0.10151949116E+02 -0.35008632712E+01 -0.34973976903E+01  0.11293799421E+02  0.51100000000E-03 0.  1.
        -12    1    3    3    0    0 -0.66434159636E+01  0.14114738628E+02  0.10314369738E+02  0.18701525213E+02  0.00000000000E+00 0.  1.
</event>
<event>
 7    1  0.5832130E-012  0.5930195E+02  0.7816164E-02  0.1266605E+00
        -11   -1    0    0    0    0  0.00000000000E+00  0.00000000000E+00  0.45593999997E+02  0.45594000000E+02  0.51100000000E-03 0. -1.
         11   -1    0    0    0    0 -0.00000000000E+00 -0.00000000000E+00 -0.45593999997E+02  0.45594000000E+02  0.51100000000E-03 0.  1.
    9900012    2    1    2    0    0 -0.14596111780E+02 -0.12266074473E+02 -0.25558113158E+02  0.59301949598E+02  0.50000010158E+02 0.  0.
         12    1    1    2    0    0  0.14596111780E+02  0.12266074473E+02  0.25558113158E+02  0.31886050402E+02  0.00000000000E+00 0. -1.
         11    1    3    3    0    0  0.89044170523E+01  0.50050170845E+01 -0.61931990675E+01  0.11945482577E+02  0.51100000000E-03 0. -1.
        -11    1    3    3    0    0  0.45072884797E+01 -0.52866606955E+01 -0.15065831925E+02  0.16590470837E+02  0.51100000000E-03 0.  1.
         12    1    3    3    0    0 -0.28007817312E+02 -0.11984430862E+02 -0.42990821656E+01  0.30765996183E+02  0.00000000000E+00 0. -1.
</event>
<event>
 7    1  0.5832130E-012  0.5930195E+02  0.7816164E-02  0.1266605E+00
        -11   -1    0    0    0    0  0.00000000000E+00  0.00000000000E+00  0.45593999997E+02  0.45594000000E+02  0.51100000000E-03 0.  1.
         11   -1    0    0    0    0 -0.00000000000E+00 -0.00000000000E+00 -0.45593999997E+02  0.45594000000E+02  0.51100000000E-03 0. -1.
    9900012    2    1    2    0    0 -0.23116734965E+02 -0.39359245887E+01  0.21606608279E+02  0.59301945695E+02  0.50000003041E+02 0.  0.
         12    1    1    2    0    0  0.23116734965E+02  0.39359245887E+01 -0.21606608279E+02  0.31886054305E+02  0.00000000000E+00 0. -1.
         11    1    3    3    0    0 -0.66280452613E+01 -0.63402801992E+01 -0.88938944561E+01  0.12776208195E+02  0.51100000000E-03 0.  1.
        -11    1    3    3    0    0  0.77026194188E+01  0.63140371852E+01  0.49455046185E+01  0.11120046209E+02  0.51100000000E-03 0. -1.
        -12    1    3    3    0    0 -0.24191309123E+02 -0.39096815747E+01  0.25554998117E+02  0.35405691291E+02  0.00000000000E+00 0.  1.
</event>
<event>
 7    1  0.5832130E-012  0.5930195E+02  0.7816164E-02  0.1266605E+00
        -11   -1    0    0    0    0  0.00000000000E+00  0.00000000000E+00  0.45593999997E+02  0.45594000000E+02  0.51100000000E-03 0.  1.
         11   -1    0    0    0    0 -0.00000000000E+00 -0.00000000000E+00 -0.45593999997E+02  0.45594000000E+02  0.51100000000E-03 0. -1.
    9900012    2    1    2    0    0 -0.14422449839E+02 -0.37830916869E+01  0.28185130768E+02  0.59301946019E+02  0.50000003631E+02 0.  0.
         12    1    1    2    0    0  0.14422449839E+02  0.37830916869E+01 -0.28185130768E+02  0.31886053981E+02  0.00000000000E+00 0. -1.
         11    1    3    3    0    0 -0.14285362793E+01  0.74674917444E+01  0.53530507296E+01  0.92983493819E+01  0.51100000000E-03 0. -1.
        -11    1    3    3    0    0 -0.10080367693E+02  0.11531692356E+02 -0.28177173583E+01  0.15573479790E+02  0.51100000000E-03 0.  1.
        -12    1    3    3    0    0 -0.29135458670E+01 -0.22782275787E+02  0.25649797397E+02  0.34430116846E+02  0.00000000000E+00 0.  1.
</event>
<event>
 7    1  0.5832130E-012  0.5930195E+02  0.7816164E-02  0.1266605E+00
        -11   -1    0    0    0    0  0.00000000000E+00  0.00000000000E+00  0.45593999997E+02  0.45594000000E+02  0.51100000000E-03 0.  1.
         11   -1    0    0    0    0 -0.00000000000E+00 -0.00000000000E+00 -0.45593999997E+02  0.45594000000E+02  0.51100000000E-03 0. -1.
    9900012    2    1    2    0    0 -0.59103665398E+01  0.31216773289E+02  0.27020456199E+01  0.59301946344E+02  0.50000004224E+02 0.  0.
         12    1    1    2    0    0  0.59103665398E+01 -0.31216773289E+02 -0.27020456199E+01  0.31886053656E+02  0.00000000000E+00 0. -1.
         11    1    3    3    0    0 -0.11582073598E+02  0.18608680158E+02 -0.21128735824E+02  0.30444225788E+02  0.51100000000E-03 0. -1.
        -11    1    3    3    0    0  0.31285399195E+01 -0.18340117420E+00  0.34458971745E+01  0.46578541859E+01  0.51100000000E-03 0.  1.
        -12    1    3    3    0    0  0.25431671391E+01  0.12791494305E+02  0.20384884269E+02  0.24199866370E+02  0.00000000000E+00 0.  1.
</event>
<event>
 7    1  0.5832130E-012  0.5930194E+02  0.7816164E-02  0.1266605E+00
        -11   -1    0    0    0    0  0.00000000000E+00  0.00000000000E+00  0.45593999997E+02  0.45594000000E+02  0.51100000000E-03 0.  1.
         11   -1    0    0    0    0 -0.00000000000E+00 -0.00000000000E+00 -0.45593999997E+02  0.45594000000E+02  0.51100000000E-03 0. -1.
    9900012    2    1    2    0    0  0.13796309184E+01  0.12583139772E+02  0.29265714662E+02  0.59301939681E+02  0.49999992073E+02 0.  0.
         12    1    1    2    0    0 -0.13796309184E+01 -0.12583139772E+02 -0.29265714662E+02  0.31886060319E+02  0.00000000000E+00 0. -1.
         11    1    3    3    0    0  0.10445472171E+02  0.76090574233E+01 -0.62059973960E+01  0.14335970413E+02  0.51100000000E-03 0. -1.
        -11    1    3    3    0    0 -0.27715571265E+01 -0.65607053196E+00 -0.38267800115E+01  0.47703462103E+01  0.51100000000E-03 0.  1.
        -12    1    3    3    0    0 -0.62942841259E+01  0.56301528802E+01  0.39298492069E+02  0.40195623058E+02  0.00000000000E+00 0.  1.
</event>
<event>
 7    1  0.5832130E-012  0.5930195E+02  0.7816164E-02  0.1266605E+00
        -11   -1    0    0    0    0  0.00000000000E+00  0.00000000000E+00  0.45593999997E+02  0.45594000000E+02  0.51100000000E-03 0.  1.
         11   -1    0    0    0    0 -0.00000000000E+00 -0.00000000000E+00 -0.45593999997E+02  0.45594000000E+02  0.51100000000E-03 0. -1.
    9900012    2    1    2    0    0 -0.73100894631E+01  0.94961384815E+01  0.29548370410E+02  0.59301949007E+02  0.50000009081E+02 0.  0.
         12    1    1    2    0    0  0.73100894631E+01 -0.94961384815E+01 -0.29548370410E+02  0.31886050993E+02  0.00000000000E+00 0. -1.
         11    1    3    3    0    0  0.78187512119E+01  0.82294579294E+01  0.86912771417E+00  0.11384736781E+02  0.51100000000E-03 0. -1.
        -11    1    3    3    0    0  0.40495418219E+01 -0.73317424316E+01  0.25273680243E+02  0.26625404209E+02  0.51100000000E-03 0.  1.
         12    1    3    3    0    0 -0.19178382497E+02  0.85984229836E+01  0.34055624534E+01  0.21291808017E+02  0.00000000000E+00 0. -1.
</event>
<event>
 7    1  0.5832130E-012  0.5930195E+02  0.7816164E-02  0.1266605E+00
        -11   -1    0    0    0    0  0.00000000000E+00  0.00000000000E+00  0.45593999997E+02  0.45594000000E+02  0.51100000000E-03 0.  1.
         11   -1    0    0    0    0 -0.00000000000E+00 -0.00000000000E+00 -0.45593999997E+02  0.45594000000E+02  0.51100000000E-03 0. -1.
    9900012    2    1    2    0    0  0.26552147424E+02  0.30390639957E+01  0.17391607554E+02  0.59301945742E+02  0.50000003127E+02 0.  0.
         12    1    1    2    0    0 -0.26552147424E+02 -0.30390639957E+01 -0.17391607554E+02  0.31886054258E+02  0.00000000000E+00 0. -1.
         11    1    3    3    0    0  0.47638416720E+01 -0.86840905128E+01  0.19202277244E+02  0.21606366357E+02  0.51100000000E-03 0. -1.
        -11    1    3    3    0    0  0.11111235910E+02  0.73490758755E+01  0.13205907695E+02  0.18758051018E+02  0.51100000000E-03 0.  1.
         12    1    3    3    0    0  0.10677069842E+02  0.43740786331E+01 -0.15016577386E+02  0.18937528368E+02  0.00000000000E+00 0. -1.
</event>
<event>
 7    1  0.5832130E-012  0.5930197E+02  0.7816164E-02  0.1266605E+00
        -11   -1    0    0    0    0  0.00000000000E+00  0.00000000000E+00  0.45593999997E+02  0.45594000000E+02  0.51100000000E-03 0. -1.
         11   -1    0    0    0    0 -0.00000000000E+00 -0.00000000000E+00 -0.45593999997E+02  0.45594000000E+02  0.51100000000E-03 0.  1.
    9900012    2    1    2    0    0  0.15728025106E+02  0.14657308240E+02 -0.23548069262E+02  0.59301968191E+02  0.50000044068E+02 0.  0.
         12    1    1    2    0    0 -0.15728025106E+02 -0.14657308240E+02  0.23548069262E+02  0.31886031809E+02  0.00000000000E+00 0. -1.
         11    1    3    3    0    0 -0.10877886493E+02  0.93056254802E+01 -0.44179602808E-01  0.14315202836E+02  0.51100000000E-03 0. -1.
        -11    1    3    3    0    0  0.49333139061E+01  0.90715574780E+01  0.28029819445E+01  0.10699880804E+02  0.51100000000E-03 0.  1.
         12    1    3    3    0    0  0.21672597693E+02 -0.37198747183E+01 -0.26306871603E+02  0.34286884551E+02  0.00000000000E+00 0. -1.
</event>
<event>
 7    1  0.5832130E-012  0.5930196E+02  0.7816164E-02  0.1266605E+00
        -11   -1    0    0    0    0  0.00000000000E+00  0.00000000000E+00  0.45593999997E+02  0.45594000000E+02  0.51100000000E-03 0. -1.
         11   -1    0    0    0    0 -0.00000000000E+00 -0.00000000000E+00 -0.45593999997E+02  0.45594000000E+02  0.51100000000E-03 0.  1.
    9900012    2    1    2    0    0 -0.28965700850E+02  0.26378951670E+01  0.13067113074E+02  0.59301956647E+02  0.50000023014E+02 0.  0.
         12    1    1    2    0    0  0.28965700850E+02 -0.26378951670E+01 -0.13067113074E+02  0.31886043353E+02  0.00000000000E+00 0. -1.
         11    1    3    3    0    0  0.46476802605E+01 -0.11383703564E+01 -0.17371750889E+01  0.50906381154E+01  0.51100000000E-03 0. -1.
        -11    1    3    3    0    0 -0.80278774510E+01 -0.57651599511E+01  0.23548665359E+02  0.25538667273E+02  0.51100000000E-03 0.  1.
        -12    1    3    3    0    0 -0.25585503660E+02  0.95414254745E+01 -0.87443771964E+01  0.28672651258E+02  0.00000000000E+00 0.  1.
</event>
<event>
 7    1  0.5832130E-012  0.5930190E+02  0.7816164E-02  0.1266605E+00
        -11   -1    0    0    0    0  0.00000000000E+00  0.00000000000E+00  0.45593999997E+02  0.45594000000E+02  0.51100000000E-03 0.  1.
         11   -1    0    0    0    0 -0.00000000000E+00 -0.00000000000E+00 -0.45593999997E+02  0.45594000000E+02  0.51100000000E-03 0. -1.
    9900012    2    1    2    0    0 -0.29358800381E+01 -0.31354784063E+02 -0.49981694147E+01  0.59301896871E+02  0.49999913998E+02 0.  0.
         12    1    1    2    0    0  0.29358800381E+01  0.31354784063E+02  0.49981694147E+01  0.31886103129E+02  0.00000000000E+00 0. -1.
         11    1    3    3    0    0  0.10635009340E+01 -0.11814344020E+02 -0.32750374101E+01  0.12305918460E+02  0.51100000000E-03 0. -1.
        -11    1    3    3    0    0 -0.14250035863E+02 -0.29328004965E+02 -0.31135572365E+01  0.32754994066E+02  0.51100000000E-03 0.  1.
         12    1    3    3    0    0  0.10250654890E+02  0.97875649223E+01  0.13904252319E+01  0.14240984345E+02  0.00000000000E+00 0. -1.
</event>
<event>
 7    1  0.5832130E-012  0.5930196E+02  0.7816164E-02  0.1266605E+00
        -11   -1    0    0    0    0  0.00000000000E+00  0.00000000000E+00  0.45593999997E+02  0.45594000000E+02  0.51100000000E-03 0.  1.
         11   -1    0    0    0    0 -0.00000000000E+00 -0.00000000000E+00 -0.45593999997E+02  0.45594000000E+02  0.51100000000E-03 0. -1.
    9900012    2    1    2    0    0  0.29117189404E+02  0.11788997277E+02  0.54707067552E+01  0.59301955906E+02  0.50000021662E+02 0.  0.
         12    1    1    2    0    0 -0.29117189404E+02 -0.11788997277E+02 -0.54707067552E+01  0.31886044094E+02  0.00000000000E+00 0. -1.
         11    1    3    3    0    0 -0.39215345623E+00 -0.67660746411E+01  0.63885317561E+01  0.93138009772E+01  0.51100000000E-03 0. -1.
        -11    1    3    3    0    0  0.11089430942E+02 -0.10249516765E+02  0.35349034947E+01  0.15508823796E+02  0.51100000000E-03 0.  1.
        -12    1    3    3    0    0  0.18419911918E+02  0.28804588684E+02 -0.44527284957E+01  0.34479331133E+02  0.00000000000E+00 0.  1.
</event>
<event>
 7    1  0.5832130E-012  0.5930194E+02  0.7816164E-02  0.1266605E+00
        -11   -1    0    0    0    0  0.00000000000E+00  0.00000000000E+00  0.45593999997E+02  0.45594000000E+02  0.51100000000E-03 0.  1.
         11   -1    0    0    0    0 -0.00000000000E+00 -0.00000000000E+00 -0.45593999997E+02  0.45594000000E+02  0.51100000000E-03 0. -1.
    9900012    2    1    2    0    0  0.43912553616E+01 -0.29673791214E+02 -0.10812199845E+02  0.59301942323E+02  0.49999996891E+02 0.  0.
         12    1    1    2    0    0 -0.43912553616E+01  0.29673791214E+02  0.10812199845E+02  0.31886057677E+02  0.00000000000E+00 0. -1.
         11    1    3    3    0    0 -0.13896771988E+02 -0.10957061174E+02 -0.20070352066E+02  0.26758110800E+02  0.51100000000E-03 0. -1.
        -11    1    3    3    0    0 -0.22532253192E+01 -0.38050331340E+01  0.52203371159E+01  0.68415803258E+01  0.51100000000E-03 0.  1.
        -12    1    3    3    0    0  0.20541252668E+02 -0.14911696906E+02  0.40378151047E+01  0.25702251198E+02  0.00000000000E+00 0.  1.
</event>
<event>
 7    1  0.5832130E-012  0.5930206E+02  0.7816164E-02  0.1266604E+00
        -11   -1    0    0    0    0  0.00000000000E+00  0.00000000000E+00  0.45593999997E+02  0.45594000000E+02  0.51100000000E-03 0. -1.
         11   -1    0    0    0    0 -0.00000000000E+00 -0.00000000000E+00 -0.45593999997E+02  0.45594000000E+02  0.51100000000E-03 0.  1.
    9900012    2    1    2    0    0  0.27904193628E+02  0.13287616065E+02 -0.78427279877E+01  0.59302060387E+02  0.50000212212E+02 0.  0.
         12    1    1    2    0    0 -0.27904193628E+02 -0.13287616065E+02  0.78427279877E+01  0.31885939613E+02  0.00000000000E+00 0. -1.
         11    1    3    3    0    0  0.54512515947E+01  0.20573755201E+02 -0.11785979657E+02  0.24329095005E+02  0.51100000000E-03 0. -1.
        -11    1    3    3    0    0  0.84526227842E+01  0.14222058208E+01 -0.10148412077E+02  0.13283816066E+02  0.51100000000E-03 0.  1.
         12    1    3    3    0    0  0.14000319249E+02 -0.87083449574E+01  0.14091663746E+02  0.21689149317E+02  0.00000000000E+00 0. -1.
</event>
<event>
 7    1  0.5832130E-012  0.5930196E+02  0.7816164E-02  0.1266605E+00
        -11   -1    0    0    0    0  0.00000000000E+00  0.00000000000E+00  0.45593999997E+02  0.45594000000E+02  0.51100000000E-03 0. -1.
         11   -1    0    0    0    0 -0.00000000000E+00 -0.00000000000E+00 -0.45593999997E+02  0.45594000000E+02  0.51100000000E-03 0.  1.
    9900012    2    1    2    0    0  0.26071280141E+02 -0.81907583103E+01 -0.16429223097E+02  0.59301960085E+02  0.50000029285E+02 0.  0.
         12    1    1    2    0    0 -0.26071280141E+02  0.81907583103E+01  0.16429223097E+02  0.31886039915E+02  0.00000000000E+00 0. -1.
         11    1    3    3    0    0  0.14723439535E+01 -0.32093987894E+01  0.82985383882E+01  0.90185241004E+01  0.51100000000E-03 0. -1.
        -11    1    3    3    0    0 -0.75279192680E+01 -0.69777537937E+01 -0.10377984392E+01  0.10316765112E+02  0.51100000000E-03 0.  1.
        -12    1    3    3    0    0  0.32126855455E+02  0.19963942727E+01 -0.23689963046E+02  0.39966670873E+02  0.00000000000E+00 0.  1.
</event>
<event>
 7    1  0.5832130E-012  0.5930188E+02  0.7816164E-02  0.1266605E+00
        -11   -1    0    0    0    0  0.00000000000E+00  0.00000000000E+00  0.45593999997E+02  0.45594000000E+02  0.51100000000E-03 0.  1.
         11   -1    0    0    0    0 -0.00000000000E+00 -0.00000000000E+00 -0.45593999997E+02  0.45594000000E+02  0.51100000000E-03 0. -1.
    9900012    2    1    2    0    0  0.15778306441E+02 -0.89922121698E+01  0.26208969268E+02  0.59301875996E+02  0.49999875927E+02 0.  0.
         12    1    1    2    0    0 -0.15778306441E+02  0.89922121698E+01 -0.26208969268E+02  0.31886124004E+02  0.00000000000E+00 0. -1.
         11    1    3    3    0    0  0.51752137752E+01 -0.10355709391E+02  0.13756990004E+02  0.17979942403E+02  0.51100000000E-03 0.  1.
        -11    1    3    3    0    0 -0.96054816093E+01  0.12295923163E+02  0.92091634669E+01  0.18118048885E+02  0.51100000000E-03 0. -1.
         12    1    3    3    0    0  0.20208574276E+02 -0.10932425942E+02  0.32428157979E+01  0.23203884708E+02  0.00000000000E+00 0. -1.
</event>
<event>
 7    1  0.5832130E-012  0.5930195E+02  0.7816164E-02  0.1266605E+00
        -11   -1    0    0    0    0  0.00000000000E+00  0.00000000000E+00  0.45593999997E+02  0.45594000000E+02  0.51100000000E-03 0.  1.
         11   -1    0    0    0    0 -0.00000000000E+00 -0.00000000000E+00 -0.45593999997E+02  0.45594000000E+02  0.51100000000E-03 0. -1.
    9900012    2    1    2    0    0  0.96263501598E+01  0.27408488404E+02 -0.13146427191E+02  0.59301946593E+02  0.50000004679E+02 0.  0.
         12    1    1    2    0    0 -0.96263501598E+01 -0.27408488404E+02  0.13146427191E+02  0.31886053407E+02  0.00000000000E+00 0. -1.
         11    1    3    3    0    0  0.95386101000E+01  0.26326753340E+01 -0.11416347429E+02  0.15107913520E+02  0.51100000000E-03 0. -1.
        -11    1    3    3    0    0 -0.20953022937E+01  0.12453509883E+02 -0.19032055406E+02  0.22840738458E+02  0.51100000000E-03 0.  1.
        -12    1    3    3    0    0  0.21830423535E+01  0.12322303187E+02  0.17301975643E+02  0.21353294615E+02  0.00000000000E+00 0.  1.
</event>
<event>
 7    1  0.5832130E-012  0.5930171E+02  0.7816164E-02  0.1266606E+00
        -11   -1    0    0    0    0  0.00000000000E+00  0.00000000000E+00  0.45593999997E+02  0.45594000000E+02  0.51100000000E-03 0.  1.
         11   -1    0    0    0    0 -0.00000000000E+00 -0.00000000000E+00 -0.45593999997E+02  0.45594000000E+02  0.51100000000E-03 0. -1.
    9900012    2    1    2    0    0  0.20744648767E+02  0.13310658240E+02  0.20229217522E+02  0.59301712716E+02  0.49999578141E+02 0.  0.
         12    1    1    2    0    0 -0.20744648767E+02 -0.13310658240E+02 -0.20229217522E+02  0.31886287284E+02  0.00000000000E+00 0. -1.
         11    1    3    3    0    0 -0.56213611851E+01  0.18652260369E+02  0.30622648388E+01  0.19720141598E+02  0.51100000000E-03 0. -1.
        -11    1    3    3    0    0  0.37655729246E+01 -0.41394788270E+01  0.15964957575E+02  0.16917289826E+02  0.51100000000E-03 0.  1.
        -12    1    3    3    0    0  0.22600437027E+02 -0.12021233013E+01  0.12019951074E+01  0.22664281292E+02  0.00000000000E+00 0.  1.
</event>
<event>
 7    1  0.5832130E-012  0.5930192E+02  0.7816164E-02  0.1266605E+00
        -11   -1    0    0    0    0  0.00000000000E+00  0.00000000000E+00  0.45593999997E+02  0.45594000000E+02  0.51100000000E-03 0.  1.
         11   -1    0    0    0    0 -0.00000000000E+00 -0.00000000000E+00 -0.45593999997E+02  0.45594000000E+02  0.51100000000E-03 0. -1.
    9900012    2    1    2    0    0 -0.20534594715E+01  0.76559418814E+01  0.30885137737E+02  0.59301923494E+02  0.49999962552E+02 0.  0.
         12    1    1    2    0    0  0.20534594715E+01 -0.76559418814E+01 -0.30885137737E+02  0.31886076506E+02  0.00000000000E+00 0. -1.
         11    1    3    3    0    0  0.17007717681E+02  0.12600340777E+02  0.19785027016E+01  0.21259010363E+02  0.51100000000E-03 0. -1.
        -11    1    3    3    0    0 -0.20239307755E+00  0.86491460903E+00  0.12071302516E+02  0.12103940884E+02  0.51100000000E-03 0.  1.
        -12    1    3    3    0    0 -0.18858784075E+02 -0.58093135045E+01  0.16835332520E+02  0.25938972247E+02  0.00000000000E+00 0.  1.
</event>
<event>
 7    1  0.5832130E-012  0.5930193E+02  0.7816164E-02  0.1266605E+00
        -11   -1    0    0    0    0  0.00000000000E+00  0.00000000000E+00  0.45593999997E+02  0.45594000000E+02  0.51100000000E-03 0. -1.
         11   -1    0    0    0    0 -0.00000000000E+00 -0.00000000000E+00 -0.45593999997E+02  0.45594000000E+02  0.51100000000E-03 0.  1.
    9900012    2    1    2    0    0  0.27413299031E+01 -0.12750105168E+01 -0.31742412424E+02  0.59301932699E+02  0.49999979338E+02 0.  0.
         12    1    1    2    0    0 -0.27413299031E+01  0.12750105168E+01  0.31742412424E+02  0.31886067301E+02  0.00000000000E+00 0. -1.
         11    1    3    3    0    0  0.11385075647E+02  0.76601320621E+01 -0.13550586614E+02  0.19285122985E+02  0.51100000000E-03 0. -1.
        -11    1    3    3    0    0  0.35359449682E+01 -0.11506297331E+02 -0.23562757243E+02  0.26459427700E+02  0.51100000000E-03 0.  1.
        -12    1    3    3    0    0 -0.12179690712E+02  0.25711547522E+01  0.53709314323E+01  0.13557382014E+02  0.00000000000E+00 0.  1.
</event>
<event>
 7    1  0.5832130E-012  0.5930196E+02  0.7816164E-02  0.1266605E+00
        -11   -1    0    0    0    0  0.00000000000E+00  0.00000000000E+00  0.45593999997E+02  0.45594000000E+02  0.51100000000E-03 0.  1.
         11   -1    0    0    0    0 -0.00000000000E+00 -0.00000000000E+00 -0.45593999997E+02  0.45594000000E+02  0.51100000000E-03 0. -1.
    9900012    2    1    2    0    0  0.19380489554E+00 -0.35929701087E+01  0.31682366754E+02  0.59301962967E+02  0.50000034541E+02 0.  0.
         12    1    1    2    0    0 -0.19380489554E+00  0.35929701087E+01 -0.31682366754E+02  0.31886037033E+02  0.00000000000E+00 0. -1.
         11    1    3    3    0    0 -0.44754906549E+00  0.11161462252E+02  0.90963514867E+01  0.14405629122E+02  0.51100000000E-03 0. -1.
        -11    1    3    3    0    0 -0.10555397560E+02  0.80767976761E+01  0.63867535596E+01  0.14745904504E+02  0.51100000000E-03 0.  1.
        -12    1    3    3    0    0  0.11196751521E+02 -0.22831230037E+02  0.16199261707E+02  0.30150429341E+02  0.00000000000E+00 0.  1.
</event>
<event>
 7    1  0.6547598E-012  0.5930196E+02  0.7816164E-02  0.1266605E+00
        -11   -1    0    0    0    0  0.00000000000E+00  0.00000000000E+00  0.45593999997E+02  0.45594000000E+02  0.51100000000E-03 0. -1.
         11   -1    0    0    0    0 -0.00000000000E+00 -0.00000000000E+00 -0.45593999997E+02  0.45594000000E+02  0.51100000000E-03 0.  1.
    9900012    2    1    2    0    0 -0.34300557155E+01  0.22692819904E+02 -0.22135724580E+02  0.59301958225E+02  0.50000025892E+02 0.  0.
         12    1    1    2    0    0  0.34300557155E+01 -0.22692819904E+02  0.22135724580E+02  0.31886041775E+02  0.00000000000E+00 0. -1.
         11    1    3    3    0    0 -0.89868742899E+01  0.27988756427E+01  0.79332645070E+01  0.12309926903E+02  0.51100000000E-03 0. -1.
        -11    1    3    3    0    0 -0.12003881626E+01  0.23494272300E+02 -0.10092358306E+02  0.25598387822E+02  0.51100000000E-03 0.  1.
         12    1    3    3    0    0  0.67572067370E+01 -0.36003280382E+01 -0.19976630780E+02  0.21393643500E+02  0.00000000000E+00 0. -1.
</event>
<event>
 7    1  0.5832130E-012  0.5930195E+02  0.7816164E-02  0.1266605E+00
        -11   -1    0    0    0    0  0.00000000000E+00  0.00000000000E+00  0.45593999997E+02  0.45594000000E+02  0.51100000000E-03 0.  1.
         11   -1    0    0    0    0 -0.00000000000E+00 -0.00000000000E+00 -0.45593999997E+02  0.45594000000E+02  0.51100000000E-03 0. -1.
    9900012    2    1    2    0    0 -0.19730860513E+02  0.22655980197E+02  0.10682686430E+02  0.59301951567E+02  0.50000013750E+02 0.  0.
         12    1    1    2    0    0  0.19730860513E+02 -0.22655980197E+02 -0.10682686430E+02  0.31886048433E+02  0.00000000000E+00 0. -1.
         11    1    3    3    0    0 -0.57175867941E+01 -0.80491419895E+01 -0.39818980549E+01  0.10645891127E+02  0.51100000000E-03 0. -1.
        -11    1    3    3    0    0 -0.15178870115E+02  0.73398518189E+01 -0.55372850533E+01  0.17746353110E+02  0.51100000000E-03 0.  1.
        -12    1    3    3    0    0  0.11655963960E+01  0.23365270368E+02  0.20201869539E+02  0.30909707329E+02  0.00000000000E+00 0.  1.
</event>
<event>
 7    1  0.5832130E-012  0.5930195E+02  0.7816164E-02  0.1266605E+00
        -11   -1    0    0    0    0  0.00000000000E+00  0.00000000000E+00  0.45593999997E+02  0.45594000000E+02  0.51100000000E-03 0. -1.
         11   -1    0    0    0    0 -0.00000000000E+00 -0.00000000000E+00 -0.45593999997E+02  0.45594000000E+02  0.51100000000E-03 0.  1.
    9900012    2    1    2    0    0 -0.28805367545E+02 -0.95658476294E+01 -0.97706492922E+01  0.59301949321E+02  0.50000009654E+02 0.  0.
         12    1    1    2    0    0  0.28805367545E+02  0.95658476294E+01  0.97706492922E+01  0.31886050679E+02  0.00000000000E+00 0. -1.
         11    1    3    3    0    0 -0.32747250816E+02 -0.17253588549E+01 -0.30400532776E+01  0.32933284430E+02  0.51100000000E-03 0. -1.
        -11    1    3    3    0    0 -0.66580990209E+01 -0.11938665283E+02 -0.11788607019E+01  0.13720485565E+02  0.51100000000E-03 0.  1.
         12    1    3    3    0    0  0.10599982292E+02  0.40981765088E+01 -0.55517353127E+01  0.12648179326E+02  0.00000000000E+00 0. -1.
</event>
<event>
 7    1  0.5832130E-012  0.5930196E+02  0.7816164E-02  0.1266605E+00
        -11   -1    0    0    0    0  0.00000000000E+00  0.00000000000E+00  0.45593999997E+02  0.45594000000E+02  0.51100000000E-03 0.  1.
         11   -1    0    0    0    0 -0.00000000000E+00 -0.00000000000E+00 -0.45593999997E+02  0.45594000000E+02  0.51100000000E-03 0. -1.
    9900012    2    1    2    0    0  0.30059541323E+02  0.26033577860E+01  0.10313403301E+02  0.59301956283E+02  0.50000022350E+02 0.  0.
         12    1    1    2    0    0 -0.30059541323E+02 -0.26033577860E+01 -0.10313403301E+02  0.31886043717E+02  0.00000000000E+00 0. -1.
         11    1    3    3    0    0 -0.48229037229E+01 -0.96305419485E+01 -0.94379147193E+01  0.14320683400E+02  0.51100000000E-03 0. -1.
        -11    1    3    3    0    0  0.10722449486E+02 -0.21754069423E+01  0.61386266193E+00  0.10958108686E+02  0.51100000000E-03 0.  1.
        -12    1    3    3    0    0  0.24159995559E+02  0.14409306677E+02  0.19137455359E+02  0.34023164196E+02  0.00000000000E+00 0.  1.
</event>
<event>
 7    1  0.5832130E-012  0.5930196E+02  0.7816164E-02  0.1266605E+00
        -11   -1    0    0    0    0  0.00000000000E+00  0.00000000000E+00  0.45593999997E+02  0.45594000000E+02  0.51100000000E-03 0.  1.
         11   -1    0    0    0    0 -0.00000000000E+00 -0.00000000000E+00 -0.45593999997E+02  0.45594000000E+02  0.51100000000E-03 0. -1.
    9900012    2    1    2    0    0 -0.23058919927E+02  0.10133573074E+01  0.21999523254E+02  0.59301957526E+02  0.50000024618E+02 0.  0.
         12    1    1    2    0    0  0.23058919927E+02 -0.10133573074E+01 -0.21999523254E+02  0.31886042474E+02  0.00000000000E+00 0. -1.
         11    1    3    3    0    0 -0.21018788247E+02 -0.98314455538E+01  0.17830064450E+02  0.29263594782E+02  0.51100000000E-03 0. -1.
        -11    1    3    3    0    0 -0.14626668140E+02  0.35979721060E+01  0.36835100837E+01  0.15506549292E+02  0.51100000000E-03 0.  1.
         12    1    3    3    0    0  0.12586536459E+02  0.72468307552E+01  0.48594872010E+00  0.14531813452E+02  0.00000000000E+00 0. -1.
</event>
<event>
 7    1  0.5832130E-012  0.5930194E+02  0.7816164E-02  0.1266605E+00
        -11   -1    0    0    0    0  0.00000000000E+00  0.00000000000E+00  0.45593999997E+02  0.45594000000E+02  0.51100000000E-03 0. -1.
         11   -1    0    0    0    0 -0.00000000000E+00 -0.00000000000E+00 -0.45593999997E+02  0.45594000000E+02  0.51100000000E-03 0.  1.
    9900012    2    1    2    0    0 -0.35558218297E+01  0.70303050286E+01 -0.30897443058E+02  0.59301936505E+02  0.49999986280E+02 0.  0.
         12    1    1    2    0    0  0.35558218297E+01 -0.70303050286E+01  0.30897443058E+02  0.31886063495E+02  0.00000000000E+00 0. -1.
         11    1    3    3    0    0 -0.47918821487E+01 -0.10414287248E+02  0.33874895274E+01  0.11953852892E+02  0.51100000000E-03 0. -1.
        -11    1    3    3    0    0  0.13918547489E+02  0.59825127251E+01 -0.12396132606E+02  0.19574997486E+02  0.51100000000E-03 0.  1.
         12    1    3    3    0    0 -0.12682487170E+02  0.11462079552E+02 -0.21888799979E+02  0.27773086127E+02  0.00000000000E+00 0. -1.
</event>
<event>
 7    1  0.5832130E-012  0.5930195E+02  0.7816164E-02  0.1266605E+00
        -11   -1    0    0    0    0  0.00000000000E+00  0.00000000000E+00  0.45593999997E+02  0.45594000000E+02  0.51100000000E-03 0. -1.
         11   -1    0    0    0    0 -0.00000000000E+00 -0.00000000000E+00 -0.45593999997E+02  0.45594000000E+02  0.51100000000E-03 0.  1.
    9900012    2    1    2    0    0 -0.29569724445E+02 -0.11727789274E+02 -0.21933516424E+01  0.59301946051E+02  0.50000003690E+02 0.  0.
         12    1    1    2    0    0  0.29569724445E+02  0.11727789274E+02  0.21933516424E+01  0.31886053949E+02  0.00000000000E+00 0. -1.
         11    1    3    3    0    0 -0.27072625294E+02 -0.76377018745E+01 -0.40328642646E+01  0.28416993590E+02  0.51100000000E-03 0. -1.
        -11    1    3    3    0    0 -0.14521125791E+02  0.42808882327E+01 -0.30431147176E+01  0.15441814846E+02  0.51100000000E-03 0.  1.
         12    1    3    3    0    0  0.12024026640E+02 -0.83709756318E+01  0.48826273398E+01  0.15443137615E+02  0.00000000000E+00 0. -1.
</event>
<event>
 7    1  0.5832130E-012  0.5930190E+02  0.7816164E-02  0.1266605E+00
        -11   -1    0    0    0    0  0.00000000000E+00  0.00000000000E+00  0.45593999997E+02  0.45594000000E+02  0.51100000000E-03 0.  1.
         11   -1    0    0    0    0 -0.00000000000E+00 -0.00000000000E+00 -0.45593999997E+02  0.45594000000E+02  0.51100000000E-03 0. -1.
    9900012    2    1    2    0    0 -0.16727108416E+02 -0.13651591297E+02  0.23464047904E+02  0.59301895739E+02  0.49999911932E+02 0.  0.
         12    1    1    2    0    0  0.16727108416E+02  0.13651591297E+02 -0.23464047904E+02  0.31886104261E+02  0.00000000000E+00 0. -1.
         11    1    3    3    0    0 -0.17572795806E+02 -0.10456594736E+02  0.88860194482E+00  0.20467856253E+02  0.51100000000E-03 0. -1.
        -11    1    3    3    0    0 -0.41851063509E+01 -0.16626222043E+02  0.13902302359E+02  0.22073069242E+02  0.51100000000E-03 0.  1.
         12    1    3    3    0    0  0.50307937406E+01  0.13431225482E+02  0.86731436004E+01  0.16760970244E+02  0.00000000000E+00 0. -1.
</event>
<event>
 7    1  0.5832130E-012  0.5930194E+02  0.7816164E-02  0.1266605E+00
        -11   -1    0    0    0    0  0.00000000000E+00  0.00000000000E+00  0.45593999997E+02  0.45594000000E+02  0.51100000000E-03 0.  1.
         11   -1    0    0    0    0 -0.00000000000E+00 -0.00000000000E+00 -0.45593999997E+02  0.45594000000E+02  0.51100000000E-03 0. -1.
    9900012    2    1    2    0    0 -0.19083819592E+02 -0.23726278384E+02 -0.94653118350E+01  0.59301943732E+02  0.49999999461E+02 0.  0.
         12    1    1    2    0    0  0.19083819592E+02  0.23726278384E+02  0.94653118350E+01  0.31886056268E+02  0.00000000000E+00 0. -1.
         11    1    3    3    0    0  0.18639558146E+01 -0.16025841690E+02 -0.20051566678E+02  0.25736496647E+02  0.51100000000E-03 0. -1.
        -11    1    3    3    0    0 -0.21432365001E+02 -0.27109098623E+01 -0.27309548297E+00  0.21604857862E+02  0.51100000000E-03 0.  1.
        -12    1    3    3    0    0  0.48458959498E+00 -0.49895268319E+01  0.10859350326E+02  0.11960589224E+02  0.00000000000E+00 0.  1.
</event>
<event>
 7    1  0.5832130E-012  0.5930193E+02  0.7816164E-02  0.1266605E+00
        -11   -1    0    0    0    0  0.00000000000E+00  0.00000000000E+00  0.45593999997E+02  0.45594000000E+02  0.51100000000E-03 0.  1.
         11   -1    0    0    0    0 -0.00000000000E+00 -0.00000000000E+00 -0.45593999997E+02  0.45594000000E+02  0.51100000000E-03 0. -1.
    9900012    2    1    2    0    0  0.24135318357E+02 -0.18325331108E+02  0.99191829299E+01  0.59301928708E+02  0.49999972061E+02 0.  0.
         12    1    1    2    0    0 -0.24135318357E+02  0.18325331108E+02 -0.99191829299E+01  0.31886071292E+02  0.00000000000E+00 0. -1.
         11    1    3    3    0    0  0.80166555250E+01 -0.60455125992E+01  0.37759472850E+01  0.10727197516E+02  0.51100000000E-03 0. -1.
        -11    1    3    3    0    0  0.31172201308E+02 -0.10854229227E+02  0.31243153567E+01  0.33155418459E+02  0.51100000000E-03 0.  1.
         12    1    3    3    0    0 -0.15053538476E+02 -0.14255892819E+01  0.30189202882E+01  0.15419312733E+02  0.00000000000E+00 0. -1.
</event>
<event>
 7    1  0.5832130E-012  0.5930197E+02  0.7816164E-02  0.1266605E+00
        -11   -1    0    0    0    0  0.00000000000E+00  0.00000000000E+00  0.45593999997E+02  0.45594000000E+02  0.51100000000E-03 0.  1.
         11   -1    0    0    0    0 -0.00000000000E+00 -0.00000000000E+00 -0.45593999997E+02  0.45594000000E+02  0.51100000000E-03 0. -1.
    9900012    2    1    2    0    0 -0.19817220340E+02 -0.48099639043E+01  0.24512459037E+02  0.59301974491E+02  0.50000055557E+02 0.  0.
         12    1    1    2    0    0  0.19817220340E+02  0.48099639043E+01 -0.24512459037E+02  0.31886025509E+02  0.00000000000E+00 0. -1.
         11    1    3    3    0    0 -0.64549522515E+01 -0.61592539012E+01 -0.10261416647E+02  0.13597775151E+02  0.51100000000E-03 0. -1.
        -11    1    3    3    0    0  0.17360531550E+01 -0.96023036521E+01  0.61328626466E+01  0.11525195030E+02  0.51100000000E-03 0.  1.
        -12    1    3    3    0    0 -0.15098321243E+02  0.10951593649E+02  0.28641013037E+02  0.34179004310E+02  0.00000000000E+00 0.  1.
</event>
<event>
 7    1  0.5832130E-012  0.5930202E+02  0.7816164E-02  0.1266604E+00
        -11   -1    0    0    0    0  0.00000000000E+00  0.00000000000E+00  0.45593999997E+02  0.45594000000E+02  0.51100000000E-03 0. -1.
         11   -1    0    0    0    0 -0.00000000000E+00 -0.00000000000E+00 -0.45593999997E+02  0.45594000000E+02  0.51100000000E-03 0.  1.
    9900012    2    1    2    0    0  0.91578310946E+01 -0.18281042302E+02 -0.24467388155E+02  0.59302024068E+02  0.50000145975E+02 0.  0.
         12    1    1    2    0    0 -0.91578310946E+01  0.18281042302E+02  0.24467388155E+02  0.31885975932E+02  0.00000000000E+00 0. -1.
         11    1    3    3    0    0 -0.14244892356E+02 -0.28656731861E+00 -0.81333158686E+01  0.16405788806E+02  0.51100000000E-03 0. -1.
        -11    1    3    3    0    0 -0.16235884232E+01  0.52539434594E+01 -0.19877032354E+01  0.58473007154E+01  0.51100000000E-03 0.  1.
         12    1    3    3    0    0  0.25026311874E+02 -0.23248418443E+02 -0.14346369051E+02  0.37048934547E+02  0.00000000000E+00 0. -1.
</event>
<event>
 7    1  0.5832130E-012  0.5930203E+02  0.7816164E-02  0.1266604E+00
        -11   -1    0    0    0    0  0.00000000000E+00  0.00000000000E+00  0.45593999997E+02  0.45594000000E+02  0.51100000000E-03 0. -1.
         11   -1    0    0    0    0 -0.00000000000E+00 -0.00000000000E+00 -0.45593999997E+02  0.45594000000E+02  0.51100000000E-03 0.  1.
    9900012    2    1    2    0    0 -0.88765852276E+01  0.18909438918E+02 -0.24090550224E+02  0.59302027291E+02  0.50000151851E+02 0.  0.
         12    1    1    2    0    0  0.88765852276E+01 -0.18909438918E+02  0.24090550224E+02  0.31885972709E+02  0.00000000000E+00 0. -1.
         11    1    3    3    0    0 -0.46086505911E+01  0.18333051393E+02 -0.24816838375E+01  0.19065654685E+02  0.51100000000E-03 0. -1.
        -11    1    3    3    0    0  0.61927381270E+01  0.70323791075E+01  0.52194279467E+01  0.10725986657E+02  0.51100000000E-03 0.  1.
        -12    1    3    3    0    0 -0.10460672764E+02 -0.64559915818E+01 -0.26828294334E+02  0.29510385948E+02  0.00000000000E+00 0.  1.
</event>
<event>
 7    1  0.5832130E-012  0.5930194E+02  0.7816164E-02  0.1266605E+00
        -11   -1    0    0    0    0  0.00000000000E+00  0.00000000000E+00  0.45593999997E+02  0.45594000000E+02  0.51100000000E-03 0.  1.
         11   -1    0    0    0    0 -0.00000000000E+00 -0.00000000000E+00 -0.45593999997E+02  0.45594000000E+02  0.51100000000E-03 0. -1.
    9900012    2    1    2    0    0  0.14975653878E+02 -0.20078750713E+02  0.19730546437E+02  0.59301938751E+02  0.49999990377E+02 0.  0.
         12    1    1    2    0    0 -0.14975653878E+02  0.20078750713E+02 -0.19730546437E+02  0.31886061249E+02  0.00000000000E+00 0. -1.
         11    1    3    3    0    0 -0.23266394323E+01  0.12207649914E+02  0.75166093285E+01  0.14523752391E+02  0.51100000000E-03 0. -1.
        -11    1    3    3    0    0  0.99128514641E+01 -0.13151759278E+00  0.11536406569E+01  0.99806216266E+01  0.51100000000E-03 0.  1.
         12    1    3    3    0    0  0.73894418466E+01 -0.32154883034E+02  0.11060296451E+02  0.34797564733E+02  0.00000000000E+00 0. -1.
</event>
<event>
 7    1  0.5832130E-012  0.5930195E+02  0.7816164E-02  0.1266605E+00
        -11   -1    0    0    0    0  0.00000000000E+00  0.00000000000E+00  0.45593999997E+02  0.45594000000E+02  0.51100000000E-03 0.  1.
         11   -1    0    0    0    0 -0.00000000000E+00 -0.00000000000E+00 -0.45593999997E+02  0.45594000000E+02  0.51100000000E-03 0. -1.
    9900012    2    1    2    0    0  0.12516960753E+02 -0.25281736282E+02 -0.14862025616E+02  0.59301948170E+02  0.50000007554E+02 0.  0.
         12    1    1    2    0    0 -0.12516960753E+02  0.25281736282E+02  0.14862025616E+02  0.31886051830E+02  0.00000000000E+00 0. -1.
         11    1    3    3    0    0 -0.68834819188E+01 -0.17883259755E+02 -0.14481505706E+02  0.24018894866E+02  0.51100000000E-03 0. -1.
        -11    1    3    3    0    0 -0.66899870454E+01  0.21220228214E+01  0.22878948051E+01  0.73819625048E+01  0.51100000000E-03 0.  1.
        -12    1    3    3    0    0  0.26090429717E+02 -0.95204993476E+01 -0.26684147149E+01  0.27901090799E+02  0.00000000000E+00 0.  1.
</event>
<event>
 7    1  0.5832130E-012  0.5930198E+02  0.7816164E-02  0.1266605E+00
        -11   -1    0    0    0    0  0.00000000000E+00  0.00000000000E+00  0.45593999997E+02  0.45594000000E+02  0.51100000000E-03 0.  1.
         11   -1    0    0    0    0 -0.00000000000E+00 -0.00000000000E+00 -0.45593999997E+02  0.45594000000E+02  0.51100000000E-03 0. -1.
    9900012    2    1    2    0    0  0.23015766294E+02  0.12395033576E+02  0.18258039361E+02  0.59301978662E+02  0.50000063164E+02 0.  0.
         12    1    1    2    0    0 -0.23015766294E+02 -0.12395033576E+02 -0.18258039361E+02  0.31886021338E+02  0.00000000000E+00 0. -1.
         11    1    3    3    0    0  0.65646705945E+01  0.17957351288E+02 -0.44091112315E+01  0.19621458340E+02  0.51100000000E-03 0. -1.
        -11    1    3    3    0    0 -0.38652390165E+01  0.43106233672E+01 -0.21008507504E+01  0.61591493410E+01  0.51100000000E-03 0.  1.
        -12    1    3    3    0    0  0.20316334716E+02 -0.98729410787E+01  0.24768001343E+02  0.33521370980E+02  0.00000000000E+00 0.  1.
</event>
<event>
 7    1  0.5832130E-012  0.5930194E+02  0.7816164E-02  0.1266605E+00
        -11   -1    0    0    0    0  0.00000000000E+00  0.00000000000E+00  0.45593999997E+02  0.45594000000E+02  0.51100000000E-03 0.  1.
         11   -1    0    0    0    0 -0.00000000000E+00 -0.00000000000E+00 -0.45593999997E+02  0.45594000000E+02  0.51100000000E-03 0. -1.
    9900012    2    1    2    0    0  0.15221620838E+02 -0.16716883139E+02  0.22484862125E+02  0.59301938036E+02  0.49999989073E+02 0.  0.
         12    1    1    2    0    0 -0.15221620838E+02  0.16716883139E+02 -0.22484862125E+02  0.31886061964E+02  0.00000000000E+00 0. -1.
         11    1    3    3    0    0 -0.23799193375E+01 -0.59273218572E+01 -0.99446609314E+01  0.11819198017E+02  0.51100000000E-03 0. -1.
        -11    1    3    3    0    0  0.54943749461E+01 -0.83362190180E+01 -0.26182472553E+01  0.10321624025E+02  0.51100000000E-03 0.  1.
        -12    1    3    3    0    0  0.12107165229E+02 -0.24533422636E+01  0.35047770312E+02  0.37161115994E+02  0.00000000000E+00 0.  1.
</event>
<event>
 7    1  0.5832130E-012  0.5930191E+02  0.7816164E-02  0.1266605E+00
        -11   -1    0    0    0    0  0.00000000000E+00  0.00000000000E+00  0.45593999997E+02  0.45594000000E+02  0.51100000000E-03 0.  1.
         11   -1    0    0    0    0 -0.00000000000E+00 -0.00000000000E+00 -0.45593999997E+02  0.45594000000E+02  0.51100000000E-03 0. -1.
    9900012    2    1    2    0    0 -0.99767250013E+01  0.73739869452E+01  0.29373660629E+02  0.59301911122E+02  0.49999939987E+02 0.  0.
         12    1    1    2    0    0  0.99767250013E+01 -0.73739869452E+01 -0.29373660629E+02  0.31886088878E+02  0.00000000000E+00 0. -1.
         11    1    3    3    0    0 -0.19193151620E+01  0.20406923829E+02  0.74013012443E+01  0.21792328266E+02  0.51100000000E-03 0. -1.
        -11    1    3    3    0    0 -0.79576307648E+01 -0.40592712477E+01 -0.41782103236E+01  0.98619983888E+01  0.51100000000E-03 0.  1.
        -12    1    3    3    0    0 -0.99779074536E-01 -0.89736656365E+01  0.26150569708E+02  0.27647584467E+02  0.00000000000E+00 0.  1.
</event>
<event>
 7    1  0.5832130E-012  0.5930188E+02  0.7816164E-02  0.1266605E+00
        -11   -1    0    0    0    0  0.00000000000E+00  0.00000000000E+00  0.45593999997E+02  0.45594000000E+02  0.51100000000E-03 0. -1.
         11   -1    0    0    0    0 -0.00000000000E+00 -0.00000000000E+00 -0.45593999997E+02  0.45594000000E+02  0.51100000000E-03 0.  1.
    9900012    2    1    2    0    0  0.22245844473E+02 -0.22827454136E+02  0.86863582175E+00  0.59301877833E+02  0.49999879277E+02 0.  0.
         12    1    1    2    0    0 -0.22245844473E+02  0.22827454136E+02 -0.86863582175E+00  0.31886122167E+02  0.00000000000E+00 0. -1.
         11    1    3    3    0    0 -0.99810396770E+01 -0.10812531007E+02 -0.37853618989E+01  0.15194108884E+02  0.51100000000E-03 0. -1.
        -11    1    3    3    0    0  0.85192554026E+01  0.88242896457E+01  0.20519946919E+01  0.12436095965E+02  0.51100000000E-03 0.  1.
         12    1    3    3    0    0  0.23707628747E+02 -0.20839212774E+02  0.26020030288E+01  0.31671672984E+02  0.00000000000E+00 0. -1.
</event>
<event>
 7    1  0.5832130E-012  0.5930196E+02  0.7816164E-02  0.1266605E+00
        -11   -1    0    0    0    0  0.00000000000E+00  0.00000000000E+00  0.45593999997E+02  0.45594000000E+02  0.51100000000E-03 0.  1.
         11   -1    0    0    0    0 -0.00000000000E+00 -0.00000000000E+00 -0.45593999997E+02  0.45594000000E+02  0.51100000000E-03 0. -1.
    9900012    2    1    2    0    0 -0.83007263860E+01 -0.21529687422E+02  0.22006595447E+02  0.59301956937E+02  0.50000023544E+02 0.  0.
         12    1    1    2    0    0  0.83007263860E+01  0.21529687422E+02 -0.22006595447E+02  0.31886043063E+02  0.00000000000E+00 0. -1.
         11    1    3    3    0    0 -0.19641493081E+02 -0.17542463679E+02 -0.27398816141E+01  0.26477032196E+02  0.51100000000E-03 0. -1.
        -11    1    3    3    0    0 -0.16223654915E+01 -0.65860222685E+01  0.30942418940E+01  0.74553398494E+01  0.51100000000E-03 0.  1.
         12    1    3    3    0    0  0.12963132187E+02  0.25987985257E+01  0.21652235167E+02  0.25369584892E+02  0.00000000000E+00 0. -1.
</event>
<event>
 7    1  0.5832130E-012  0.5930194E+02  0.7816164E-02  0.1266605E+00
        -11   -1    0    0    0    0  0.00000000000E+00  0.00000000000E+00  0.45593999997E+02  0.45594000000E+02  0.51100000000E-03 0. -1.
         11   -1    0    0    0    0 -0.00000000000E+00 -0.00000000000E+00 -0.45593999997E+02  0.45594000000E+02  0.51100000000E-03 0.  1.
    9900012    2    1    2    0    0 -0.11826872122E+01  0.72632218764E+01 -0.31025274986E+02  0.59301939895E+02  0.49999992463E+02 0.  0.
         12    1    1    2    0    0  0.11826872122E+01 -0.72632218764E+01  0.31025274986E+02  0.31886060105E+02  0.00000000000E+00 0. -1.
         11    1    3    3    0    0  0.19312203962E+01  0.81780267611E+01 -0.26605531515E+01  0.88140953737E+01  0.51100000000E-03 0.  1.
        -11    1    3    3    0    0 -0.18879785184E+02  0.11000889287E+02 -0.17048910367E+02  0.27715179932E+02  0.51100000000E-03 0. -1.
         12    1    3    3    0    0  0.15765877576E+02 -0.11915694171E+02 -0.11315811467E+02  0.22772664589E+02  0.00000000000E+00 0. -1.
</event>
<event>
 7    1  0.5832130E-012  0.5930197E+02  0.7816164E-02  0.1266605E+00
        -11   -1    0    0    0    0  0.00000000000E+00  0.00000000000E+00  0.45593999997E+02  0.45594000000E+02  0.51100000000E-03 0. -1.
         11   -1    0    0    0    0 -0.00000000000E+00 -0.00000000000E+00 -0.45593999997E+02  0.45594000000E+02  0.51100000000E-03 0.  1.
    9900012    2    1    2    0    0  0.19910900293E+02  0.36624424317E+01 -0.24634563624E+02  0.59301966066E+02  0.50000040193E+02 0.  0.
         12    1    1    2    0    0 -0.19910900293E+02 -0.36624424317E+01  0.24634563624E+02  0.31886033934E+02  0.00000000000E+00 0. -1.
         11    1    3    3    0    0  0.23275773157E+01  0.13544364949E+02 -0.43331118809E+01  0.14409833340E+02  0.51100000000E-03 0. -1.
        -11    1    3    3    0    0 -0.95562306216E+00 -0.10579482935E+02  0.63826302374E+01  0.12392604392E+02  0.51100000000E-03 0.  1.
        -12    1    3    3    0    0  0.18538946040E+02  0.69756041751E+00 -0.26684081981E+02  0.32499528335E+02  0.00000000000E+00 0.  1.
</event>
<event>
 7    1  0.5832130E-012  0.5930212E+02  0.7816164E-02  0.1266604E+00
        -11   -1    0    0    0    0  0.00000000000E+00  0.00000000000E+00  0.45593999997E+02  0.45594000000E+02  0.51100000000E-03 0.  1.
         11   -1    0    0    0    0 -0.00000000000E+00 -0.00000000000E+00 -0.45593999997E+02  0.45594000000E+02  0.51100000000E-03 0. -1.
    9900012    2    1    2    0    0  0.28314492718E+02  0.11747373265E+02  0.87748714740E+01  0.59302115256E+02  0.50000312279E+02 0.  0.
         12    1    1    2    0    0 -0.28314492718E+02 -0.11747373265E+02 -0.87748714740E+01  0.31885884744E+02  0.00000000000E+00 0. -1.
         11    1    3    3    0    0  0.23624220998E+02  0.24756493279E+02  0.99038094742E+01  0.35624053947E+02  0.51100000000E-03 0. -1.
        -11    1    3    3    0    0  0.14620116781E+01  0.44012962707E+01  0.29639838819E+01  0.55040065155E+01  0.51100000000E-03 0.  1.
         12    1    3    3    0    0  0.32282600419E+01 -0.17410416285E+02 -0.40929218820E+01  0.18174054794E+02  0.00000000000E+00 0. -1.
</event>
<event>
 7    1  0.5832130E-012  0.5930194E+02  0.7816164E-02  0.1266605E+00
        -11   -1    0    0    0    0  0.00000000000E+00  0.00000000000E+00  0.45593999997E+02  0.45594000000E+02  0.51100000000E-03 0.  1.
         11   -1    0    0    0    0 -0.00000000000E+00 -0.00000000000E+00 -0.45593999997E+02  0.45594000000E+02  0.51100000000E-03 0. -1.
    9900012    2    1    2    0    0 -0.17945962510E+02 -0.22363866218E+02  0.13947077545E+02  0.59301936357E+02  0.49999986010E+02 0.  0.
         12    1    1    2    0    0  0.17945962510E+02  0.22363866218E+02 -0.13947077545E+02  0.31886063643E+02  0.00000000000E+00 0. -1.
         11    1    3    3    0    0 -0.46095689853E+01 -0.61970783279E+00 -0.13351570563E+02  0.14138479437E+02  0.51100000000E-03 0. -1.
        -11    1    3    3    0    0  0.70748908751E+01 -0.15015709859E+01  0.55309811714E+01  0.91049738770E+01  0.51100000000E-03 0.  1.
        -12    1    3    3    0    0 -0.20411284400E+02 -0.20242587399E+02  0.21767666937E+02  0.36058483043E+02  0.00000000000E+00 0.  1.
</event>
<event>
 7    1  0.5832130E-012  0.5930188E+02  0.7816164E-02  0.1266605E+00
        -11   -1    0    0    0    0  0.00000000000E+00  0.00000000000E+00  0.45593999997E+02  0.45594000000E+02  0.51100000000E-03 0. -1.
         11   -1    0    0    0    0 -0.00000000000E+00 -0.00000000000E+00 -0.45593999997E+02  0.45594000000E+02  0.51100000000E-03 0.  1.
    9900012    2    1    2    0    0  0.15330119436E+02  0.77375345870E+01 -0.26867135223E+02  0.59301875141E+02  0.49999874368E+02 0.  0.
         12    1    1    2    0    0 -0.15330119436E+02 -0.77375345870E+01  0.26867135223E+02  0.31886124859E+02  0.00000000000E+00 0. -1.
         11    1    3    3    0    0  0.37952757196E+01  0.58117428321E+01 -0.22707923376E+02  0.23745110167E+02  0.51100000000E-03 0. -1.
        -11    1    3    3    0    0  0.42860192090E+01  0.16508342291E+02 -0.79792640714E+01  0.18829869390E+02  0.51100000000E-03 0.  1.
         12    1    3    3    0    0  0.72488245073E+01 -0.14582550536E+02  0.38200522247E+01  0.16726895584E+02  0.00000000000E+00 0. -1.
</event>
<event>
 7    1  0.5832130E-012  0.5930195E+02  0.7816164E-02  0.1266605E+00
        -11   -1    0    0    0    0  0.00000000000E+00  0.00000000000E+00  0.45593999997E+02  0.45594000000E+02  0.51100000000E-03 0.  1.
         11   -1    0    0    0    0 -0.00000000000E+00 -0.00000000000E+00 -0.45593999997E+02  0.45594000000E+02  0.51100000000E-03 0. -1.
    9900012    2    1    2    0    0 -0.59518014232E+01 -0.27190810658E+02 -0.15554946347E+02  0.59301945363E+02  0.50000002435E+02 0.  0.
         12    1    1    2    0    0  0.59518014232E+01  0.27190810658E+02  0.15554946347E+02  0.31886054637E+02  0.00000000000E+00 0. -1.
         11    1    3    3    0    0 -0.66394489135E+01 -0.48890136486E+01 -0.28451233153E+01  0.87223542276E+01  0.51100000000E-03 0. -1.
        -11    1    3    3    0    0 -0.15183248949E+02  0.61394964252E+01 -0.47186009349E+01  0.17043757216E+02  0.51100000000E-03 0.  1.
        -12    1    3    3    0    0  0.15870896440E+02 -0.28441293435E+02 -0.79912220970E+01  0.33535833919E+02  0.00000000000E+00 0.  1.
</event>
<event>
 7    1  0.5832130E-012  0.5930190E+02  0.7816164E-02  0.1266605E+00
        -11   -1    0    0    0    0  0.00000000000E+00  0.00000000000E+00  0.45593999997E+02  0.45594000000E+02  0.51100000000E-03 0. -1.
         11   -1    0    0    0    0 -0.00000000000E+00 -0.00000000000E+00 -0.45593999997E+02  0.45594000000E+02  0.51100000000E-03 0.  1.
    9900012    2    1    2    0    0  0.20273183773E+02  0.19169122931E+02 -0.15435873026E+02  0.59301899104E+02  0.49999918071E+02 0.  0.
         12    1    1    2    0    0 -0.20273183773E+02 -0.19169122931E+02  0.15435873026E+02  0.31886100896E+02  0.00000000000E+00 0. -1.
         11    1    3    3    0    0  0.22200295928E+02 -0.11399177104E+01  0.57053144630E+01  0.22950014489E+02  0.51100000000E-03 0. -1.
        -11    1    3    3    0    0 -0.59494261066E+00 -0.67203259551E+00  0.37007512291E+01  0.38080368223E+01  0.51100000000E-03 0.  1.
        -12    1    3    3    0    0 -0.13321695445E+01  0.20981073237E+02 -0.24841938719E+02  0.32543847793E+02  0.00000000000E+00 0.  1.
</event>
<event>
 7    1  0.5832130E-012  0.5930194E+02  0.7816164E-02  0.1266605E+00
        -11   -1    0    0    0    0  0.00000000000E+00  0.00000000000E+00  0.45593999997E+02  0.45594000000E+02  0.51100000000E-03 0.  1.
         11   -1    0    0    0    0 -0.00000000000E+00 -0.00000000000E+00 -0.45593999997E+02  0.45594000000E+02  0.51100000000E-03 0. -1.
    9900012    2    1    2    0    0 -0.27473331652E+02 -0.26441686778E+01  0.15967009964E+02  0.59301937414E+02  0.49999987938E+02 0.  0.
         12    1    1    2    0    0  0.27473331652E+02  0.26441686778E+01 -0.15967009964E+02  0.31886062586E+02  0.00000000000E+00 0. -1.
         11    1    3    3    0    0 -0.24013222162E+02 -0.62593133308E+01  0.18098429358E+02  0.30714279862E+02  0.51100000000E-03 0. -1.
        -11    1    3    3    0    0 -0.14507607759E+02 -0.36169828771E+01  0.11054390017E+01  0.14992506251E+02  0.51100000000E-03 0.  1.
         12    1    3    3    0    0  0.11047498270E+02  0.72321275300E+01 -0.32368583952E+01  0.13595151301E+02  0.00000000000E+00 0. -1.
</event>
<event>
 7    1  0.5832130E-012  0.5930195E+02  0.7816164E-02  0.1266605E+00
        -11   -1    0    0    0    0  0.00000000000E+00  0.00000000000E+00  0.45593999997E+02  0.45594000000E+02  0.51100000000E-03 0.  1.
         11   -1    0    0    0    0 -0.00000000000E+00 -0.00000000000E+00 -0.45593999997E+02  0.45594000000E+02  0.51100000000E-03 0. -1.
    9900012    2    1    2    0    0  0.14262596213E+02 -0.27871324700E+02  0.60405261537E+01  0.59301947447E+02  0.50000006235E+02 0.  0.
         12    1    1    2    0    0 -0.14262596213E+02  0.27871324700E+02 -0.60405261537E+01  0.31886052553E+02  0.00000000000E+00 0. -1.
         11    1    3    3    0    0 -0.40716072060E+01  0.27925012454E+01  0.84963143324E+01  0.98266680997E+01  0.51100000000E-03 0. -1.
        -11    1    3    3    0    0  0.26752438681E+02 -0.15356390503E+02  0.34397416355E+01  0.31037775813E+02  0.51100000000E-03 0.  1.
         12    1    3    3    0    0 -0.84182352627E+01 -0.15307435442E+02 -0.58955298142E+01  0.18437503533E+02  0.00000000000E+00 0. -1.
</event>
<event>
 7    1  0.5832130E-012  0.5930190E+02  0.7816164E-02  0.1266605E+00
        -11   -1    0    0    0    0  0.00000000000E+00  0.00000000000E+00  0.45593999997E+02  0.45594000000E+02  0.51100000000E-03 0.  1.
         11   -1    0    0    0    0 -0.00000000000E+00 -0.00000000000E+00 -0.45593999997E+02  0.45594000000E+02  0.51100000000E-03 0. -1.
    9900012    2    1    2    0    0  0.20062290796E+02  0.58228106848E+01  0.24089884235E+02  0.59301903364E+02  0.49999925838E+02 0.  0.
         12    1    1    2    0    0 -0.20062290796E+02 -0.58228106848E+01 -0.24089884235E+02  0.31886096636E+02  0.00000000000E+00 0. -1.
         11    1    3    3    0    0  0.26458665399E+01  0.48975386759E+01  0.11101323269E+02  0.12418771011E+02  0.51100000000E-03 0.  1.
        -11    1    3    3    0    0 -0.89312816076E+01  0.12104281453E+02  0.10095067764E+02  0.18116065082E+02  0.51100000000E-03 0. -1.
         12    1    3    3    0    0  0.26347705864E+02 -0.11179009444E+02  0.28934932017E+01  0.28767067270E+02  0.00000000000E+00 0. -1.
</event>
<event>
 7    1  0.5832130E-012  0.5930197E+02  0.7816164E-02  0.1266605E+00
        -11   -1    0    0    0    0  0.00000000000E+00  0.00000000000E+00  0.45593999997E+02  0.45594000000E+02  0.51100000000E-03 0. -1.
         11   -1    0    0    0    0 -0.00000000000E+00 -0.00000000000E+00 -0.45593999997E+02  0.45594000000E+02  0.51100000000E-03 0.  1.
    9900012    2    1    2    0    0  0.16922064073E+02 -0.26604149741E+02 -0.47520516341E+01  0.59301968095E+02  0.50000043893E+02 0.  0.
         12    1    1    2    0    0 -0.16922064073E+02  0.26604149741E+02  0.47520516341E+01  0.31886031905E+02  0.00000000000E+00 0. -1.
         11    1    3    3    0    0  0.12761390600E+02  0.13773672865E+00  0.12117795257E+01  0.12819534755E+02  0.51100000000E-03 0. -1.
        -11    1    3    3    0    0  0.84123882884E+01 -0.20000658711E+01 -0.16989577647E+02  0.19063428052E+02  0.51100000000E-03 0.  1.
        -12    1    3    3    0    0 -0.42517148158E+01 -0.24741820598E+02  0.11025746487E+02  0.27419005288E+02  0.00000000000E+00 0.  1.
</event>
<event>
 7    1  0.5832130E-012  0.5930193E+02  0.7816164E-02  0.1266605E+00
        -11   -1    0    0    0    0  0.00000000000E+00  0.00000000000E+00  0.45593999997E+02  0.45594000000E+02  0.51100000000E-03 0.  1.
         11   -1    0    0    0    0 -0.00000000000E+00 -0.00000000000E+00 -0.45593999997E+02  0.45594000000E+02  0.51100000000E-03 0. -1.
    9900012    2    1    2    0    0 -0.83893428412E+01  0.13997300967E+02  0.27393715807E+02  0.59301934495E+02  0.49999982615E+02 0.  0.
         12    1    1    2    0    0  0.83893428412E+01 -0.13997300967E+02 -0.27393715807E+02  0.31886065505E+02  0.00000000000E+00 0. -1.
         11    1    3    3    0    0 -0.15301152431E+02 -0.43951311343E+01  0.13983660466E+02  0.21189270957E+02  0.51100000000E-03 0. -1.
        -11    1    3    3    0    0  0.12223144244E+02 -0.24725217687E+01  0.10662788095E+02  0.16407731998E+02  0.51100000000E-03 0.  1.
        -12    1    3    3    0    0 -0.53113346543E+01  0.20864953870E+02  0.27472672461E+01  0.21704931540E+02  0.00000000000E+00 0.  1.
</event>
<event>
 7    1  0.5832130E-012  0.5930193E+02  0.7816164E-02  0.1266605E+00
        -11   -1    0    0    0    0  0.00000000000E+00  0.00000000000E+00  0.45593999997E+02  0.45594000000E+02  0.51100000000E-03 0.  1.
         11   -1    0    0    0    0 -0.00000000000E+00 -0.00000000000E+00 -0.45593999997E+02  0.45594000000E+02  0.51100000000E-03 0. -1.
    9900012    2    1    2    0    0  0.21365797419E+02  0.16096810834E+02  0.17352723518E+02  0.59301927306E+02  0.49999969503E+02 0.  0.
         12    1    1    2    0    0 -0.21365797419E+02 -0.16096810834E+02 -0.17352723518E+02  0.31886072694E+02  0.00000000000E+00 0. -1.
         11    1    3    3    0    0  0.60489621987E-02  0.10180827376E+02  0.87531117329E+01  0.13426326672E+02  0.51100000000E-03 0. -1.
        -11    1    3    3    0    0  0.27513342976E+02  0.13007769743E+02  0.15566940260E+02  0.34183559568E+02  0.51100000000E-03 0.  1.
         12    1    3    3    0    0 -0.61535945198E+01 -0.70917862845E+01 -0.69673284743E+01  0.11692041066E+02  0.00000000000E+00 0. -1.
</event>
<event>
 7    1  0.5832130E-012  0.5930194E+02  0.7816164E-02  0.1266605E+00
        -11   -1    0    0    0    0  0.00000000000E+00  0.00000000000E+00  0.45593999997E+02  0.45594000000E+02  0.51100000000E-03 0.  1.
         11   -1    0    0    0    0 -0.00000000000E+00 -0.00000000000E+00 -0.45593999997E+02  0.45594000000E+02  0.51100000000E-03 0. -1.
    9900012    2    1    2    0    0 -0.44254920564E+01 -0.13497952846E+02  0.28547175712E+02  0.59301937965E+02  0.49999988943E+02 0.  0.
         12    1    1    2    0    0  0.44254920564E+01  0.13497952846E+02 -0.28547175712E+02  0.31886062035E+02  0.00000000000E+00 0. -1.
         11    1    3    3    0    0  0.12393394399E+02 -0.37680744363E+01  0.26475375250E+01  0.13221348831E+02  0.51100000000E-03 0. -1.
        -11    1    3    3    0    0  0.26961533487E+01 -0.16343582019E+02  0.65444378847E+01  0.17810434682E+02  0.51100000000E-03 0.  1.
        -12    1    3    3    0    0 -0.19515039805E+02  0.66137036092E+01  0.19355200302E+02  0.28270154452E+02  0.00000000000E+00 0.  1.
</event>
<event>
 7    1  0.5832130E-012  0.5930196E+02  0.7816164E-02  0.1266605E+00
        -11   -1    0    0    0    0  0.00000000000E+00  0.00000000000E+00  0.45593999997E+02  0.45594000000E+02  0.51100000000E-03 0.  1.
         11   -1    0    0    0    0 -0.00000000000E+00 -0.00000000000E+00 -0.45593999997E+02  0.45594000000E+02  0.51100000000E-03 0. -1.
    9900012    2    1    2    0    0 -0.25270520939E+02  0.56892326102E+01 -0.18594434103E+02  0.59301959546E+02  0.50000028302E+02 0.  0.
         12    1    1    2    0    0  0.25270520939E+02 -0.56892326102E+01  0.18594434103E+02  0.31886040454E+02  0.00000000000E+00 0. -1.
         11    1    3    3    0    0 -0.16649328131E+02 -0.49850598277E+01 -0.15995334589E+02  0.23619942371E+02  0.51100000000E-03 0. -1.
        -11    1    3    3    0    0  0.21267519647E+01  0.12112268480E+02 -0.14876642095E+02  0.19301414507E+02  0.51100000000E-03 0.  1.
        -12    1    3    3    0    0 -0.10747944772E+02 -0.14379760424E+01  0.12277542582E+02  0.16380602669E+02  0.00000000000E+00 0.  1.
</event>
<event>
 7    1  0.5832130E-012  0.5930193E+02  0.7816164E-02  0.1266605E+00
        -11   -1    0    0    0    0  0.00000000000E+00  0.00000000000E+00  0.45593999997E+02  0.45594000000E+02  0.51100000000E-03 0.  1.
         11   -1    0    0    0    0 -0.00000000000E+00 -0.00000000000E+00 -0.45593999997E+02  0.45594000000E+02  0.51100000000E-03 0. -1.
    9900012    2    1    2    0    0 -0.29897346470E+02  0.11037262183E+02  0.10243488209E+01  0.59301925094E+02  0.49999965469E+02 0.  0.
         12    1    1    2    0    0  0.29897346470E+02 -0.11037262183E+02 -0.10243488209E+01  0.31886074906E+02  0.00000000000E+00 0. -1.
         11    1    3    3    0    0 -0.12924443661E+00  0.14215575018E+02  0.76036849324E+01  0.16121888910E+02  0.51100000000E-03 0.  1.
        -11    1    3    3    0    0 -0.34583965839E+01  0.10226407682E+02 -0.82774205305E+01  0.13603514690E+02  0.51100000000E-03 0. -1.
         12    1    3    3    0    0 -0.26309705449E+02 -0.13404720517E+02  0.16980844190E+01  0.29576521494E+02  0.00000000000E+00 0. -1.
</event>
<event>
 7    1  0.5832130E-012  0.5930197E+02  0.7816164E-02  0.1266605E+00
        -11   -1    0    0    0    0  0.00000000000E+00  0.00000000000E+00  0.45593999997E+02  0.45594000000E+02  0.51100000000E-03 0.  1.
         11   -1    0    0    0    0 -0.00000000000E+00 -0.00000000000E+00 -0.45593999997E+02  0.45594000000E+02  0.51100000000E-03 0. -1.
    9900012    2    1    2    0    0 -0.12705056963E+02 -0.25568630584E+02 -0.14196675098E+02  0.59301969733E+02  0.50000046880E+02 0.  0.
         12    1    1    2    0    0  0.12705056963E+02  0.25568630584E+02  0.14196675098E+02  0.31886030267E+02  0.00000000000E+00 0. -1.
         11    1    3    3    0    0 -0.12280135112E+02 -0.34407373896E+01 -0.21827686973E+02  0.25280196024E+02  0.51100000000E-03 0. -1.
        -11    1    3    3    0    0 -0.10632754516E+02 -0.25383151435E+01  0.39740459475E+01  0.11631489751E+02  0.51100000000E-03 0.  1.
        -12    1    3    3    0    0  0.10207832666E+02 -0.19589578051E+02  0.36569659277E+01  0.22390283958E+02  0.00000000000E+00 0.  1.
</event>
<event>
 7    1  0.5832130E-012  0.5930195E+02  0.7816164E-02  0.1266605E+00
        -11   -1    0    0    0    0  0.00000000000E+00  0.00000000000E+00  0.45593999997E+02  0.45594000000E+02  0.51100000000E-03 0.  1.
         11   -1    0    0    0    0 -0.00000000000E+00 -0.00000000000E+00 -0.45593999997E+02  0.45594000000E+02  0.51100000000E-03 0. -1.
    9900012    2    1    2    0    0  0.29908964812E+02  0.10875449359E+02  0.19744661274E+01  0.59301951461E+02  0.50000013557E+02 0.  0.
         12    1    1    2    0    0 -0.29908964812E+02 -0.10875449359E+02 -0.19744661274E+01  0.31886048539E+02  0.00000000000E+00 0. -1.
         11    1    3    3    0    0  0.20414310745E+02  0.52326247961E+01  0.14413960470E+02  0.25532072030E+02  0.51100000000E-03 0. -1.
        -11    1    3    3    0    0  0.18783414787E+02  0.97462957132E+01 -0.72733229651E+01  0.22376509522E+02  0.51100000000E-03 0.  1.
         12    1    3    3    0    0 -0.92887607198E+01 -0.41034711498E+01 -0.51661713773E+01  0.11393369909E+02  0.00000000000E+00 0. -1.
</event>
<event>
 7    1  0.5832130E-012  0.5930196E+02  0.7816164E-02  0.1266605E+00
        -11   -1    0    0    0    0  0.00000000000E+00  0.00000000000E+00  0.45593999997E+02  0.45594000000E+02  0.51100000000E-03 0.  1.
         11   -1    0    0    0    0 -0.00000000000E+00 -0.00000000000E+00 -0.45593999997E+02  0.45594000000E+02  0.51100000000E-03 0. -1.
    9900012    2    1    2    0    0  0.21037150941E+02  0.18546978999E+02  0.15171275309E+02  0.59301956906E+02  0.50000023486E+02 0.  0.
         12    1    1    2    0    0 -0.21037150941E+02 -0.18546978999E+02 -0.15171275309E+02  0.31886043094E+02  0.00000000000E+00 0. -1.
         11    1    3    3    0    0  0.99732830380E+01  0.18540066071E+01 -0.27680809782E+01  0.10515036263E+02  0.51100000000E-03 0. -1.
        -11    1    3    3    0    0  0.18870196790E+02 -0.49223179034E+01  0.16860905962E+02  0.25779908660E+02  0.51100000000E-03 0.  1.
         12    1    3    3    0    0 -0.78063288865E+01  0.21615290295E+02  0.10784503259E+01  0.23007011982E+02  0.00000000000E+00 0. -1.
</event>
<event>
 7    1  0.5832130E-012  0.5930195E+02  0.7816164E-02  0.1266605E+00
        -11   -1    0    0    0    0  0.00000000000E+00  0.00000000000E+00  0.45593999997E+02  0.45594000000E+02  0.51100000000E-03 0.  1.
         11   -1    0    0    0    0 -0.00000000000E+00 -0.00000000000E+00 -0.45593999997E+02  0.45594000000E+02  0.51100000000E-03 0. -1.
    9900012    2    1    2    0    0 -0.26673455302E+02  0.12557045782E+02  0.12147739556E+02  0.59301949871E+02  0.50000010657E+02 0.  0.
         12    1    1    2    0    0  0.26673455302E+02 -0.12557045782E+02 -0.12147739556E+02  0.31886050129E+02  0.00000000000E+00 0. -1.
         11    1    3    3    0    0 -0.20282527902E+02  0.11473003945E+02 -0.10657625352E+02  0.25624124102E+02  0.51100000000E-03 0. -1.
        -11    1    3    3    0    0 -0.82448005702E+01  0.96276128545E+01  0.46039008706E+01  0.13485680154E+02  0.51100000000E-03 0.  1.
        -12    1    3    3    0    0  0.18538731703E+01 -0.85435710169E+01  0.18201464037E+02  0.20192145615E+02  0.00000000000E+00 0.  1.
</event>
<event>
 7    1  0.5832130E-012  0.5930194E+02  0.7816164E-02  0.1266605E+00
        -11   -1    0    0    0    0  0.00000000000E+00  0.00000000000E+00  0.45593999997E+02  0.45594000000E+02  0.51100000000E-03 0.  1.
         11   -1    0    0    0    0 -0.00000000000E+00 -0.00000000000E+00 -0.45593999997E+02  0.45594000000E+02  0.51100000000E-03 0. -1.
    9900012    2    1    2    0    0 -0.68069610866E+01  0.21175429636E+02  0.22847039054E+02  0.59301941400E+02  0.49999995207E+02 0.  0.
         12    1    1    2    0    0  0.68069610866E+01 -0.21175429636E+02 -0.22847039054E+02  0.31886058600E+02  0.00000000000E+00 0. -1.
         11    1    3    3    0    0 -0.83237547165E+01 -0.10590680990E+02  0.97051856227E+01  0.16602350576E+02  0.51100000000E-03 0. -1.
        -11    1    3    3    0    0  0.98638174171E+01  0.10646687922E+02 -0.30225091559E+01  0.14825060526E+02  0.51100000000E-03 0.  1.
        -12    1    3    3    0    0 -0.83470237871E+01  0.21119422704E+02  0.16164362588E+02  0.27874530297E+02  0.00000000000E+00 0.  1.
</event>
<event>
 7    1  0.5832130E-012  0.5930200E+02  0.7816164E-02  0.1266605E+00
        -11   -1    0    0    0    0  0.00000000000E+00  0.00000000000E+00  0.45593999997E+02  0.45594000000E+02  0.51100000000E-03 0.  1.
         11   -1    0    0    0    0 -0.00000000000E+00 -0.00000000000E+00 -0.45593999997E+02  0.45594000000E+02  0.51100000000E-03 0. -1.
    9900012    2    1    2    0    0 -0.13797856681E+02 -0.19493199299E+01  0.28679896668E+02  0.59301997270E+02  0.50000097102E+02 0.  0.
         12    1    1    2    0    0  0.13797856681E+02  0.19493199299E+01 -0.28679896668E+02  0.31886002730E+02  0.00000000000E+00 0. -1.
         11    1    3    3    0    0 -0.68822524796E+00  0.67498301852E+01  0.74868013936E-01  0.67852389053E+01  0.51100000000E-03 0. -1.
        -11    1    3    3    0    0 -0.81495717500E+01 -0.10955485671E+02  0.38703757198E+02  0.41041674034E+02  0.51100000000E-03 0.  1.
         12    1    3    3    0    0 -0.49600596828E+01  0.22563355558E+01 -0.10098728544E+02  0.11475084331E+02  0.00000000000E+00 0. -1.
</event>
<event>
 7    1  0.5832130E-012  0.5930194E+02  0.7816164E-02  0.1266605E+00
        -11   -1    0    0    0    0  0.00000000000E+00  0.00000000000E+00  0.45593999997E+02  0.45594000000E+02  0.51100000000E-03 0.  1.
         11   -1    0    0    0    0 -0.00000000000E+00 -0.00000000000E+00 -0.45593999997E+02  0.45594000000E+02  0.51100000000E-03 0. -1.
    9900012    2    1    2    0    0 -0.16892863840E+02  0.18999566561E+02  0.19244957326E+02  0.59301940966E+02  0.49999994417E+02 0.  0.
         12    1    1    2    0    0  0.16892863840E+02 -0.18999566561E+02 -0.19244957326E+02  0.31886059034E+02  0.00000000000E+00 0. -1.
         11    1    3    3    0    0 -0.14286679937E+02 -0.52674450614E+01  0.11186262070E+02  0.18894117086E+02  0.51100000000E-03 0. -1.
        -11    1    3    3    0    0 -0.35015459157E+01  0.23743802671E+02  0.18257967115E+02  0.30155967113E+02  0.51100000000E-03 0.  1.
         12    1    3    3    0    0  0.89536201273E+00  0.52320895181E+00 -0.10199271859E+02  0.10251856768E+02  0.00000000000E+00 0. -1.
</event>
<event>
 7    1  0.5832130E-012  0.5930185E+02  0.7816164E-02  0.1266605E+00
        -11   -1    0    0    0    0  0.00000000000E+00  0.00000000000E+00  0.45593999997E+02  0.45594000000E+02  0.51100000000E-03 0.  1.
         11   -1    0    0    0    0 -0.00000000000E+00 -0.00000000000E+00 -0.45593999997E+02  0.45594000000E+02  0.51100000000E-03 0. -1.
    9900012    2    1    2    0    0  0.15316756628E+02  0.27013218010E+02 -0.72394410922E+01  0.59301851155E+02  0.49999830622E+02 0.  0.
         12    1    1    2    0    0 -0.15316756628E+02 -0.27013218010E+02  0.72394410922E+01  0.31886148845E+02  0.00000000000E+00 0. -1.
         11    1    3    3    0    0  0.10166635135E+02  0.33521654828E+01 -0.44053287796E+00  0.10714081989E+02  0.51100000000E-03 0. -1.
        -11    1    3    3    0    0 -0.51852860423E+00 -0.11223114795E+02 -0.70151644169E+01  0.13245365592E+02  0.51100000000E-03 0.  1.
        -12    1    3    3    0    0  0.56686500973E+01  0.34884167321E+02  0.21625620269E+00  0.35342403574E+02  0.00000000000E+00 0.  1.
</event>
<event>
 7    1  0.5832130E-012  0.5930194E+02  0.7816164E-02  0.1266605E+00
        -11   -1    0    0    0    0  0.00000000000E+00  0.00000000000E+00  0.45593999997E+02  0.45594000000E+02  0.51100000000E-03 0.  1.
         11   -1    0    0    0    0 -0.00000000000E+00 -0.00000000000E+00 -0.45593999997E+02  0.45594000000E+02  0.51100000000E-03 0. -1.
    9900012    2    1    2    0    0  0.32157381310E+01 -0.22670906215E+02  0.22190313010E+02  0.59301937970E+02  0.49999988952E+02 0.  0.
         12    1    1    2    0    0 -0.32157381310E+01  0.22670906215E+02 -0.22190313010E+02  0.31886062030E+02  0.00000000000E+00 0. -1.
         11    1    3    3    0    0 -0.50829570683E+01  0.51545188099E+01 -0.46172224309E+01  0.85862832447E+01  0.51100000000E-03 0. -1.
        -11    1    3    3    0    0  0.18575590854E+01 -0.26223093444E+01  0.24378415111E+02  0.24589309783E+02  0.51100000000E-03 0.  1.
         12    1    3    3    0    0  0.64411361140E+01 -0.25203115680E+02  0.24291203300E+01  0.26126344942E+02  0.00000000000E+00 0. -1.
</event>
<event>
 7    1  0.5832130E-012  0.5930193E+02  0.7816164E-02  0.1266605E+00
        -11   -1    0    0    0    0  0.00000000000E+00  0.00000000000E+00  0.45593999997E+02  0.45594000000E+02  0.51100000000E-03 0.  1.
         11   -1    0    0    0    0 -0.00000000000E+00 -0.00000000000E+00 -0.45593999997E+02  0.45594000000E+02  0.51100000000E-03 0. -1.
    9900012    2    1    2    0    0  0.12424215426E+02 -0.87437413455E+01  0.28034042986E+02  0.59301926115E+02  0.49999967332E+02 0.  0.
         12    1    1    2    0    0 -0.12424215426E+02  0.87437413455E+01 -0.28034042986E+02  0.31886073885E+02  0.00000000000E+00 0. -1.
         11    1    3    3    0    0  0.19638527929E+02  0.28577036998E+01  0.26838305359E+02  0.33378629158E+02  0.51100000000E-03 0. -1.
        -11    1    3    3    0    0  0.24801863714E+01 -0.12956469832E+02  0.65905147275E+01  0.14746400225E+02  0.51100000000E-03 0.  1.
         12    1    3    3    0    0 -0.96944988746E+01  0.13550247868E+01 -0.53947771012E+01  0.11176896733E+02  0.00000000000E+00 0. -1.
</event>
<event>
 7    1  0.5832130E-012  0.5930195E+02  0.7816164E-02  0.1266605E+00
        -11   -1    0    0    0    0  0.00000000000E+00  0.00000000000E+00  0.45593999997E+02  0.45594000000E+02  0.51100000000E-03 0.  1.
         11   -1    0    0    0    0 -0.00000000000E+00 -0.00000000000E+00 -0.45593999997E+02  0.45594000000E+02  0.51100000000E-03 0. -1.
    9900012    2    1    2    0    0 -0.74415561677E+01  0.16381513840E+02  0.26324692020E+02  0.59301950326E+02  0.50000011486E+02 0.  0.
         12    1    1    2    0    0  0.74415561677E+01 -0.16381513840E+02 -0.26324692020E+02  0.31886049674E+02  0.00000000000E+00 0. -1.
         11    1    3    3    0    0 -0.93423941667E+01 -0.18787831860E+01  0.67616620580E+01  0.11684615059E+02  0.51100000000E-03 0. -1.
        -11    1    3    3    0    0 -0.10971852043E+02 -0.32773373774E+01  0.19397757938E+02  0.22525440969E+02  0.51100000000E-03 0.  1.
        -12    1    3    3    0    0  0.12872690042E+02  0.21537634403E+02  0.16527202391E+00  0.25091894298E+02  0.00000000000E+00 0.  1.
</event>
<event>
 7    1  0.5832130E-012  0.5930193E+02  0.7816164E-02  0.1266605E+00
        -11   -1    0    0    0    0  0.00000000000E+00  0.00000000000E+00  0.45593999997E+02  0.45594000000E+02  0.51100000000E-03 0.  1.
         11   -1    0    0    0    0 -0.00000000000E+00 -0.00000000000E+00 -0.45593999997E+02  0.45594000000E+02  0.51100000000E-03 0. -1.
    9900012    2    1    2    0    0 -0.22927146301E+02  0.16075248280E+01  0.22101663170E+02  0.59301926418E+02  0.49999967885E+02 0.  0.
         12    1    1    2    0    0  0.22927146301E+02 -0.16075248280E+01 -0.22101663170E+02  0.31886073582E+02  0.00000000000E+00 0. -1.
         11    1    3    3    0    0 -0.18407449664E+02 -0.33788549515E+01  0.67597298581E+01  0.19898362042E+02  0.51100000000E-03 0. -1.
        -11    1    3    3    0    0 -0.15167121844E+02  0.39262654350E+01  0.21844976835E+02  0.26882339156E+02  0.51100000000E-03 0.  1.
         12    1    3    3    0    0  0.10647425207E+02  0.10601143444E+01 -0.65030435233E+01  0.12521225221E+02  0.00000000000E+00 0. -1.
</event>
<event>
 7    1  0.5832130E-012  0.5930195E+02  0.7816164E-02  0.1266605E+00
        -11   -1    0    0    0    0  0.00000000000E+00  0.00000000000E+00  0.45593999997E+02  0.45594000000E+02  0.51100000000E-03 0. -1.
         11   -1    0    0    0    0 -0.00000000000E+00 -0.00000000000E+00 -0.45593999997E+02  0.45594000000E+02  0.51100000000E-03 0.  1.
    9900012    2    1    2    0    0  0.15237075078E+02 -0.24835404829E+02 -0.12952003770E+02  0.59301949890E+02  0.50000010692E+02 0.  0.
         12    1    1    2    0    0 -0.15237075078E+02  0.24835404829E+02  0.12952003770E+02  0.31886050110E+02  0.00000000000E+00 0. -1.
         11    1    3    3    0    0  0.28591932905E+02 -0.18774537641E+02 -0.12178605983E+02  0.36308405842E+02  0.51100000000E-03 0. -1.
        -11    1    3    3    0    0  0.21885325115E+01 -0.72874892451E-01 -0.52982895224E+01  0.57329623607E+01  0.51100000000E-03 0.  1.
         12    1    3    3    0    0 -0.15543390339E+02 -0.59879922962E+01  0.45248917355E+01  0.17260581687E+02  0.00000000000E+00 0. -1.
</event>
<event>
 7    1  0.5832130E-012  0.5930195E+02  0.7816164E-02  0.1266605E+00
        -11   -1    0    0    0    0  0.00000000000E+00  0.00000000000E+00  0.45593999997E+02  0.45594000000E+02  0.51100000000E-03 0.  1.
         11   -1    0    0    0    0 -0.00000000000E+00 -0.00000000000E+00 -0.45593999997E+02  0.45594000000E+02  0.51100000000E-03 0. -1.
    9900012    2    1    2    0    0 -0.10661255572E+01  0.42895500561E+01  0.31578214522E+02  0.59301945121E+02  0.50000001994E+02 0.  0.
         12    1    1    2    0    0  0.10661255572E+01 -0.42895500561E+01 -0.31578214522E+02  0.31886054879E+02  0.00000000000E+00 0. -1.
         11    1    3    3    0    0 -0.13086989458E+01 -0.64471863736E+01 -0.35412764296E+01  0.74712478261E+01  0.51100000000E-03 0. -1.
        -11    1    3    3    0    0 -0.13642315046E+02 -0.71240900889E+01  0.12346519028E+02  0.19730736220E+02  0.51100000000E-03 0.  1.
        -12    1    3    3    0    0  0.13884888435E+02  0.17860826519E+02  0.22772971923E+02  0.32099961074E+02  0.00000000000E+00 0.  1.
</event>
<event>
 7    1  0.5832130E-012  0.5930188E+02  0.7816164E-02  0.1266605E+00
        -11   -1    0    0    0    0  0.00000000000E+00  0.00000000000E+00  0.45593999997E+02  0.45594000000E+02  0.51100000000E-03 0.  1.
         11   -1    0    0    0    0 -0.00000000000E+00 -0.00000000000E+00 -0.45593999997E+02  0.45594000000E+02  0.51100000000E-03 0. -1.
    9900012    2    1    2    0    0 -0.15516626087E+02 -0.27794325125E+02  0.18532122071E+01  0.59301880924E+02  0.49999884914E+02 0.  0.
         12    1    1    2    0    0  0.15516626087E+02  0.27794325125E+02 -0.18532122071E+01  0.31886119076E+02  0.00000000000E+00 0. -1.
         11    1    3    3    0    0 -0.20365438475E+02 -0.12066785720E+02  0.20104826277E+01  0.23757113515E+02  0.51100000000E-03 0. -1.
        -11    1    3    3    0    0 -0.19591086387E+01  0.23259840047E+01  0.12239075023E+02  0.12611235702E+02  0.51100000000E-03 0.  1.
         12    1    3    3    0    0  0.68079210274E+01 -0.18053523409E+02 -0.12396345444E+02  0.22933531707E+02  0.00000000000E+00 0. -1.
</event>
<event>
 7    1  0.5832130E-012  0.5930196E+02  0.7816164E-02  0.1266605E+00
        -11   -1    0    0    0    0  0.00000000000E+00  0.00000000000E+00  0.45593999997E+02  0.45594000000E+02  0.51100000000E-03 0.  1.
         11   -1    0    0    0    0 -0.00000000000E+00 -0.00000000000E+00 -0.45593999997E+02  0.45594000000E+02  0.51100000000E-03 0. -1.
    9900012    2    1    2    0    0 -0.29861619949E+02  0.94446014274E+01  0.59835571488E+01  0.59301956058E+02  0.50000021940E+02 0.  0.
         12    1    1    2    0    0  0.29861619949E+02 -0.94446014274E+01 -0.59835571488E+01  0.31886043942E+02  0.00000000000E+00 0. -1.
         11    1    3    3    0    0 -0.53607090039E+01  0.13870703837E+02 -0.56825613986E+01  0.15919331967E+02  0.51100000000E-03 0. -1.
        -11    1    3    3    0    0 -0.18101928626E+02  0.90088950792E+01 -0.52124033061E+01  0.20880832335E+02  0.51100000000E-03 0.  1.
        -12    1    3    3    0    0 -0.63989823195E+01 -0.13434997489E+02  0.16878521854E+02  0.22501791756E+02  0.00000000000E+00 0.  1.
</event>
<event>
 7    1  0.5832130E-012  0.5930194E+02  0.7816164E-02  0.1266605E+00
        -11   -1    0    0    0    0  0.00000000000E+00  0.00000000000E+00  0.45593999997E+02  0.45594000000E+02  0.51100000000E-03 0. -1.
         11   -1    0    0    0    0 -0.00000000000E+00 -0.00000000000E+00 -0.45593999997E+02  0.45594000000E+02  0.51100000000E-03 0.  1.
    9900012    2    1    2    0    0 -0.24798279462E+02  0.14192734130E+02 -0.14153880953E+02  0.59301941724E+02  0.49999995798E+02 0.  0.
         12    1    1    2    0    0  0.24798279462E+02 -0.14192734130E+02  0.14153880953E+02  0.31886058276E+02  0.00000000000E+00 0. -1.
         11    1    3    3    0    0  0.24456672538E+01  0.50267338943E+01  0.54350507023E+01  0.77967376741E+01  0.51100000000E-03 0. -1.
        -11    1    3    3    0    0 -0.18063404609E+02 -0.13701970230E+02 -0.12371701979E+02  0.25828077443E+02  0.51100000000E-03 0.  1.
         12    1    3    3    0    0 -0.91805421065E+01  0.22867970466E+02 -0.72172296764E+01  0.25677126607E+02  0.00000000000E+00 0. -1.
</event>
<event>
 7    1  0.5832130E-012  0.5930196E+02  0.7816164E-02  0.1266605E+00
        -11   -1    0    0    0    0  0.00000000000E+00  0.00000000000E+00  0.45593999997E+02  0.45594000000E+02  0.51100000000E-03 0.  1.
         11   -1    0    0    0    0 -0.00000000000E+00 -0.00000000000E+00 -0.45593999997E+02  0.45594000000E+02  0.51100000000E-03 0. -1.
    9900012    2    1    2    0    0  0.12709302958E+01  0.17430548349E+02  0.26669842171E+02  0.59301956643E+02  0.50000023007E+02 0.  0.
         12    1    1    2    0    0 -0.12709302958E+01 -0.17430548349E+02 -0.26669842171E+02  0.31886043357E+02  0.00000000000E+00 0. -1.
         11    1    3    3    0    0  0.10362505618E+02  0.92141441016E+01  0.23963145239E+01  0.14072110637E+02  0.51100000000E-03 0. -1.
        -11    1    3    3    0    0 -0.12935036634E+02  0.21028777390E+02  0.14165478439E+02  0.28463756444E+02  0.51100000000E-03 0.  1.
        -12    1    3    3    0    0  0.38434613121E+01 -0.12812373143E+02  0.10108049208E+02  0.16766089562E+02  0.00000000000E+00 0.  1.
</event>
<event>
 7    1  0.5832130E-012  0.5930195E+02  0.7816164E-02  0.1266605E+00
        -11   -1    0    0    0    0  0.00000000000E+00  0.00000000000E+00  0.45593999997E+02  0.45594000000E+02  0.51100000000E-03 0.  1.
         11   -1    0    0    0    0 -0.00000000000E+00 -0.00000000000E+00 -0.45593999997E+02  0.45594000000E+02  0.51100000000E-03 0. -1.
    9900012    2    1    2    0    0 -0.16016514323E+02  0.45897543117E+01  0.27186867962E+02  0.59301947166E+02  0.50000005724E+02 0.  0.
         12    1    1    2    0    0  0.16016514323E+02 -0.45897543117E+01 -0.27186867962E+02  0.31886052834E+02  0.00000000000E+00 0. -1.
         11    1    3    3    0    0  0.82337916093E+01 -0.78178680904E+01 -0.41539018644E+01  0.12090049078E+02  0.51100000000E-03 0. -1.
        -11    1    3    3    0    0 -0.73155727993E+00  0.11436854036E+02  0.74244025967E+01  0.13654982991E+02  0.51100000000E-03 0.  1.
        -12    1    3    3    0    0 -0.23518748653E+02  0.97076836581E+00  0.23916367230E+02  0.33556915098E+02  0.00000000000E+00 0.  1.
</event>
<event>
 7    1  0.5832130E-012  0.5930191E+02  0.7816164E-02  0.1266605E+00
        -11   -1    0    0    0    0  0.00000000000E+00  0.00000000000E+00  0.45593999997E+02  0.45594000000E+02  0.51100000000E-03 0. -1.
         11   -1    0    0    0    0 -0.00000000000E+00 -0.00000000000E+00 -0.45593999997E+02  0.45594000000E+02  0.51100000000E-03 0.  1.
    9900012    2    1    2    0    0  0.15494118758E+02  0.38976965914E+01 -0.27594618535E+02  0.59301910134E+02  0.49999938187E+02 0.  0.
         12    1    1    2    0    0 -0.15494118758E+02 -0.38976965914E+01  0.27594618535E+02  0.31886089866E+02  0.00000000000E+00 0. -1.
         11    1    3    3    0    0  0.54330354997E+01  0.14583412088E+01 -0.11821060331E+00  0.56265982467E+01  0.51100000000E-03 0. -1.
        -11    1    3    3    0    0  0.31573552788E+01 -0.73760835672E+01  0.10861256186E+02  0.13503421320E+02  0.51100000000E-03 0.  1.
         12    1    3    3    0    0  0.69037279798E+01  0.98154389498E+01 -0.38337664118E+02  0.40171890568E+02  0.00000000000E+00 0. -1.
</event>
<event>
 7    1  0.5832130E-012  0.5930190E+02  0.7816164E-02  0.1266605E+00
        -11   -1    0    0    0    0  0.00000000000E+00  0.00000000000E+00  0.45593999997E+02  0.45594000000E+02  0.51100000000E-03 0.  1.
         11   -1    0    0    0    0 -0.00000000000E+00 -0.00000000000E+00 -0.45593999997E+02  0.45594000000E+02  0.51100000000E-03 0. -1.
    9900012    2    1    2    0    0  0.26688419101E+02 -0.55951761698E+01  0.16527125421E+02  0.59301896676E+02  0.49999913642E+02 0.  0.
         12    1    1    2    0    0 -0.26688419101E+02  0.55951761698E+01 -0.16527125421E+02  0.31886103324E+02  0.00000000000E+00 0. -1.
         11    1    3    3    0    0  0.16691269452E+01 -0.19484641388E+01 -0.91975210851E+01  0.95486591535E+01  0.51100000000E-03 0. -1.
        -11    1    3    3    0    0  0.10450507406E+02  0.13392890274E+02  0.19887571778E+01  0.17103735566E+02  0.51100000000E-03 0.  1.
         12    1    3    3    0    0  0.14568784750E+02 -0.17039602305E+02  0.23735889328E+02  0.32649501957E+02  0.00000000000E+00 0. -1.
</event>
<event>
 7    1  0.5832130E-012  0.5930185E+02  0.7816164E-02  0.1266605E+00
        -11   -1    0    0    0    0  0.00000000000E+00  0.00000000000E+00  0.45593999997E+02  0.45594000000E+02  0.51100000000E-03 0.  1.
         11   -1    0    0    0    0 -0.00000000000E+00 -0.00000000000E+00 -0.45593999997E+02  0.45594000000E+02  0.51100000000E-03 0. -1.
    9900012    2    1    2    0    0 -0.65934389483E+01 -0.27997623872E+02  0.13761765259E+02  0.59301849986E+02  0.49999828491E+02 0.  0.
         12    1    1    2    0    0  0.65934389483E+01  0.27997623872E+02 -0.13761765259E+02  0.31886150014E+02  0.00000000000E+00 0. -1.
         11    1    3    3    0    0  0.13953352024E+02 -0.46302331234E+00 -0.53078276592E+01  0.14935978643E+02  0.51100000000E-03 0. -1.
        -11    1    3    3    0    0 -0.78563770334E+01 -0.40964461052E+01 -0.34148237060E+01  0.94955016712E+01  0.51100000000E-03 0.  1.
        -12    1    3    3    0    0 -0.12690413939E+02 -0.23438154455E+02  0.22484416624E+02  0.34870369673E+02  0.00000000000E+00 0.  1.
</event>
<event>
 7    1  0.5832130E-012  0.5930196E+02  0.7816164E-02  0.1266605E+00
        -11   -1    0    0    0    0  0.00000000000E+00  0.00000000000E+00  0.45593999997E+02  0.45594000000E+02  0.51100000000E-03 0. -1.
         11   -1    0    0    0    0 -0.00000000000E+00 -0.00000000000E+00 -0.45593999997E+02  0.45594000000E+02  0.51100000000E-03 0.  1.
    9900012    2    1    2    0    0 -0.17085791608E+02  0.21850107876E+02  0.15727941503E+02  0.59301958650E+02  0.50000026667E+02 0.  0.
         12    1    1    2    0    0  0.17085791608E+02 -0.21850107876E+02 -0.15727941503E+02  0.31886041350E+02  0.00000000000E+00 0. -1.
         11    1    3    3    0    0  0.98443413871E+01 -0.92257511275E+00 -0.92152420450E+00  0.99303277541E+01  0.51100000000E-03 0. -1.
        -11    1    3    3    0    0 -0.19780674628E+01  0.20923913378E+02  0.10997982080E+02  0.23720845516E+02  0.51100000000E-03 0.  1.
         12    1    3    3    0    0 -0.24952065532E+02  0.18487696115E+01  0.56514836278E+01  0.25650785379E+02  0.00000000000E+00 0. -1.
</event>
<event>
 7    1  0.5832130E-012  0.5930206E+02  0.7816164E-02  0.1266604E+00
        -11   -1    0    0    0    0  0.00000000000E+00  0.00000000000E+00  0.45593999997E+02  0.45594000000E+02  0.51100000000E-03 0.  1.
         11   -1    0    0    0    0 -0.00000000000E+00 -0.00000000000E+00 -0.45593999997E+02  0.45594000000E+02  0.51100000000E-03 0. -1.
    9900012    2    1    2    0    0  0.31463165340E+02  0.11303444253E+01  0.50502173552E+01  0.59302060355E+02  0.50000212152E+02 0.  0.
         12    1    1    2    0    0 -0.31463165340E+02 -0.11303444253E+01 -0.50502173552E+01  0.31885939645E+02  0.00000000000E+00 0. -1.
         11    1    3    3    0    0  0.91463991803E+01 -0.14611930960E+02 -0.11854749931E+02  0.20921286780E+02  0.51100000000E-03 0. -1.
        -11    1    3    3    0    0 -0.77737769436E+00 -0.37838856758E+01  0.38074278344E+01  0.54238928697E+01  0.51100000000E-03 0.  1.
         12    1    3    3    0    0  0.23094143854E+02  0.19526161061E+02  0.13097539451E+02  0.32956880705E+02  0.00000000000E+00 0. -1.
</event>
<event>
 7    1  0.5832130E-012  0.5930198E+02  0.7816164E-02  0.1266605E+00
        -11   -1    0    0    0    0  0.00000000000E+00  0.00000000000E+00  0.45593999997E+02  0.45594000000E+02  0.51100000000E-03 0. -1.
         11   -1    0    0    0    0 -0.00000000000E+00 -0.00000000000E+00 -0.45593999997E+02  0.45594000000E+02  0.51100000000E-03 0.  1.
    9900012    2    1    2    0    0  0.12065217325E+02 -0.17770609477E+02 -0.23565958619E+02  0.59301977421E+02  0.50000060901E+02 0.  0.
         12    1    1    2    0    0 -0.12065217325E+02  0.17770609477E+02  0.23565958619E+02  0.31886022579E+02  0.00000000000E+00 0. -1.
         11    1    3    3    0    0  0.37126542723E+01  0.15268793025E+02 -0.77261313033E+01  0.17510366854E+02  0.51100000000E-03 0. -1.
        -11    1    3    3    0    0 -0.54515118021E+01 -0.67615328501E+01 -0.58534176308E+01  0.10473767499E+02  0.51100000000E-03 0.  1.
        -12    1    3    3    0    0  0.13804074855E+02 -0.26277869652E+02 -0.99864096848E+01  0.31317843068E+02  0.00000000000E+00 0.  1.
</event>
<event>
 7    1  0.5832130E-012  0.5930195E+02  0.7816164E-02  0.1266605E+00
        -11   -1    0    0    0    0  0.00000000000E+00  0.00000000000E+00  0.45593999997E+02  0.45594000000E+02  0.51100000000E-03 0.  1.
         11   -1    0    0    0    0 -0.00000000000E+00 -0.00000000000E+00 -0.45593999997E+02  0.45594000000E+02  0.51100000000E-03 0. -1.
    9900012    2    1    2    0    0  0.12369304189E+02  0.37813396907E+01  0.29144845098E+02  0.59301949574E+02  0.50000010115E+02 0.  0.
         12    1    1    2    0    0 -0.12369304189E+02 -0.37813396907E+01 -0.29144845098E+02  0.31886050426E+02  0.00000000000E+00 0. -1.
         11    1    3    3    0    0  0.15063587834E+02 -0.18086878649E+01  0.15119923332E+02  0.21419503077E+02  0.51100000000E-03 0. -1.
        -11    1    3    3    0    0 -0.52685198893E+01 -0.14229510468E+02  0.52657889578E+01  0.16061282751E+02  0.51100000000E-03 0.  1.
         12    1    3    3    0    0  0.25742362439E+01  0.19819538024E+02  0.87591328080E+01  0.21821163747E+02  0.00000000000E+00 0. -1.
</event>
<event>
 7    1  0.5832130E-012  0.5930198E+02  0.7816164E-02  0.1266605E+00
        -11   -1    0    0    0    0  0.00000000000E+00  0.00000000000E+00  0.45593999997E+02  0.45594000000E+02  0.51100000000E-03 0. -1.
         11   -1    0    0    0    0 -0.00000000000E+00 -0.00000000000E+00 -0.45593999997E+02  0.45594000000E+02  0.51100000000E-03 0.  1.
    9900012    2    1    2    0    0 -0.31525577571E+02 -0.44512361852E+01  0.17443511748E+01  0.59301979462E+02  0.50000064623E+02 0.  0.
         12    1    1    2    0    0  0.31525577571E+02  0.44512361852E+01 -0.17443511748E+01  0.31886020538E+02  0.00000000000E+00 0. -1.
         11    1    3    3    0    0  0.76248023027E+01  0.19819504457E+01  0.32160124389E+01  0.85093168934E+01  0.51100000000E-03 0. -1.
        -11    1    3    3    0    0 -0.67099944434E+00 -0.10386665870E+02 -0.57227375144E+01  0.11877827793E+02  0.51100000000E-03 0.  1.
        -12    1    3    3    0    0 -0.38479380429E+02  0.39534792394E+01  0.42510762503E+01  0.38914834775E+02  0.00000000000E+00 0.  1.
</event>
<event>
 7    1  0.5832130E-012  0.5930198E+02  0.7816164E-02  0.1266605E+00
        -11   -1    0    0    0    0  0.00000000000E+00  0.00000000000E+00  0.45593999997E+02  0.45594000000E+02  0.51100000000E-03 0. -1.
         11   -1    0    0    0    0 -0.00000000000E+00 -0.00000000000E+00 -0.45593999997E+02  0.45594000000E+02  0.51100000000E-03 0.  1.
    9900012    2    1    2    0    0 -0.21500496305E+02 -0.50564666474E+01 -0.22997374807E+02  0.59301977289E+02  0.50000060660E+02 0.  0.
         12    1    1    2    0    0  0.21500496305E+02  0.50564666474E+01  0.22997374807E+02  0.31886022711E+02  0.00000000000E+00 0. -1.
         11    1    3    3    0    0 -0.19763461686E+01  0.86949931593E+00 -0.51852147772E+01  0.56167985352E+01  0.51100000000E-03 0. -1.
        -11    1    3    3    0    0 -0.34089384888E+02 -0.89999801603E+00 -0.17371349604E+02  0.38270875948E+02  0.51100000000E-03 0.  1.
         12    1    3    3    0    0  0.14565234751E+02 -0.50259679473E+01 -0.44081042549E+00  0.15414302806E+02  0.00000000000E+00 0. -1.
</event>
<event>
 7    1  0.5832130E-012  0.5930193E+02  0.7816164E-02  0.1266605E+00
        -11   -1    0    0    0    0  0.00000000000E+00  0.00000000000E+00  0.45593999997E+02  0.45594000000E+02  0.51100000000E-03 0.  1.
         11   -1    0    0    0    0 -0.00000000000E+00 -0.00000000000E+00 -0.45593999997E+02  0.45594000000E+02  0.51100000000E-03 0. -1.
    9900012    2    1    2    0    0 -0.10724068706E+02 -0.78779779818E+01  0.28976772320E+02  0.59301929048E+02  0.49999972680E+02 0.  0.
         12    1    1    2    0    0  0.10724068706E+02  0.78779779818E+01 -0.28976772320E+02  0.31886070952E+02  0.00000000000E+00 0. -1.
         11    1    3    3    0    0 -0.81065983647E+01 -0.60261559809E+01  0.14884259180E+02  0.17988125655E+02  0.51100000000E-03 0. -1.
        -11    1    3    3    0    0 -0.18550923366E+02  0.21592568273E+01 -0.14032398630E+01  0.18728807494E+02  0.51100000000E-03 0.  1.
        -12    1    3    3    0    0  0.15933453024E+02 -0.40110788282E+01  0.15495753002E+02  0.22584995899E+02  0.00000000000E+00 0.  1.
</event>
<event>
 7    1  0.5832130E-012  0.5930192E+02  0.7816164E-02  0.1266605E+00
        -11   -1    0    0    0    0  0.00000000000E+00  0.00000000000E+00  0.45593999997E+02  0.45594000000E+02  0.51100000000E-03 0.  1.
         11   -1    0    0    0    0 -0.00000000000E+00 -0.00000000000E+00 -0.45593999997E+02  0.45594000000E+02  0.51100000000E-03 0. -1.
    9900012    2    1    2    0    0 -0.19214943088E+02  0.14883279483E+02  0.20639673559E+02  0.59301918857E+02  0.49999954094E+02 0.  0.
         12    1    1    2    0    0  0.19214943088E+02 -0.14883279483E+02 -0.20639673559E+02  0.31886081143E+02  0.00000000000E+00 0. -1.
         11    1    3    3    0    0 -0.83183742525E+01 -0.29352176535E+01  0.10831781268E+02  0.13969192481E+02  0.51100000000E-03 0. -1.
        -11    1    3    3    0    0 -0.21877645043E+02  0.23298696112E+02  0.63865812810E+01  0.32592161847E+02  0.51100000000E-03 0.  1.
         12    1    3    3    0    0  0.10981076207E+02 -0.54801989751E+01  0.34213110100E+01  0.12740564528E+02  0.00000000000E+00 0. -1.
</event>
<event>
 7    1  0.5832130E-012  0.5930193E+02  0.7816164E-02  0.1266605E+00
        -11   -1    0    0    0    0  0.00000000000E+00  0.00000000000E+00  0.45593999997E+02  0.45594000000E+02  0.51100000000E-03 0.  1.
         11   -1    0    0    0    0 -0.00000000000E+00 -0.00000000000E+00 -0.45593999997E+02  0.45594000000E+02  0.51100000000E-03 0. -1.
    9900012    2    1    2    0    0  0.13309746856E+02  0.34518916409E+01  0.28769025774E+02  0.59301925277E+02  0.49999965802E+02 0.  0.
         12    1    1    2    0    0 -0.13309746856E+02 -0.34518916409E+01 -0.28769025774E+02  0.31886074723E+02  0.00000000000E+00 0. -1.
         11    1    3    3    0    0  0.37036527297E+01  0.33477515824E+01 -0.11862498367E+02  0.12870250657E+02  0.51100000000E-03 0. -1.
        -11    1    3    3    0    0  0.32129031452E+01 -0.16599443768E+00 -0.16866116745E+01  0.36324867481E+01  0.51100000000E-03 0.  1.
        -12    1    3    3    0    0  0.63931909807E+01  0.27013449624E+00  0.42318135816E+02  0.42799187872E+02  0.00000000000E+00 0.  1.
</event>
<event>
 7    1  0.5832130E-012  0.5930190E+02  0.7816164E-02  0.1266605E+00
        -11   -1    0    0    0    0  0.00000000000E+00  0.00000000000E+00  0.45593999997E+02  0.45594000000E+02  0.51100000000E-03 0. -1.
         11   -1    0    0    0    0 -0.00000000000E+00 -0.00000000000E+00 -0.45593999997E+02  0.45594000000E+02  0.51100000000E-03 0.  1.
    9900012    2    1    2    0    0  0.80958658801E+01 -0.19566030939E+02 -0.23840113833E+02  0.59301895839E+02  0.49999912114E+02 0.  0.
         12    1    1    2    0    0 -0.80958658801E+01  0.19566030939E+02  0.23840113833E+02  0.31886104161E+02  0.00000000000E+00 0. -1.
         11    1    3    3    0    0 -0.90307177978E+01  0.58020961681E+01 -0.16612357871E+02  0.19778488774E+02  0.51100000000E-03 0. -1.
        -11    1    3    3    0    0  0.91308373162E+01 -0.44517716279E+00 -0.95823735713E+01  0.13243574152E+02  0.51100000000E-03 0.  1.
        -12    1    3    3    0    0  0.79957463617E+01 -0.24922949944E+02  0.23546176102E+01  0.26279832912E+02  0.00000000000E+00 0.  1.
</event>
<event>
 7    1  0.5832130E-012  0.5930189E+02  0.7816164E-02  0.1266605E+00
        -11   -1    0    0    0    0  0.00000000000E+00  0.00000000000E+00  0.45593999997E+02  0.45594000000E+02  0.51100000000E-03 0.  1.
         11   -1    0    0    0    0 -0.00000000000E+00 -0.00000000000E+00 -0.45593999997E+02  0.45594000000E+02  0.51100000000E-03 0. -1.
    9900012    2    1    2    0    0  0.11719071212E+02  0.19114431141E+02  0.22672139342E+02  0.59301890011E+02  0.49999901486E+02 0.  0.
         12    1    1    2    0    0 -0.11719071212E+02 -0.19114431141E+02 -0.22672139342E+02  0.31886109989E+02  0.00000000000E+00 0. -1.
         11    1    3    3    0    0 -0.24459289755E+01 -0.12219005826E+02  0.18357513139E+01  0.12595898343E+02  0.51100000000E-03 0. -1.
        -11    1    3    3    0    0 -0.47199163544E+01  0.98386611679E+00 -0.85108151797E+00  0.48959108386E+01  0.51100000000E-03 0.  1.
         12    1    3    3    0    0  0.18884916542E+02  0.30349570850E+02  0.21687469546E+02  0.41810080829E+02  0.00000000000E+00 0. -1.
</event>
<event>
 7    1  0.5832130E-012  0.5930183E+02  0.7816164E-02  0.1266605E+00
        -11   -1    0    0    0    0  0.00000000000E+00  0.00000000000E+00  0.45593999997E+02  0.45594000000E+02  0.51100000000E-03 0. -1.
         11   -1    0    0    0    0 -0.00000000000E+00 -0.00000000000E+00 -0.45593999997E+02  0.45594000000E+02  0.51100000000E-03 0.  1.
    9900012    2    1    2    0    0 -0.21118392765E+02 -0.94006668659E+01 -0.21962888842E+02  0.59301834712E+02  0.49999800634E+02 0.  0.
         12    1    1    2    0    0  0.21118392765E+02  0.94006668659E+01  0.21962888842E+02  0.31886165288E+02  0.00000000000E+00 0. -1.
         11    1    3    3    0    0 -0.13808307826E+01  0.27886422640E+00  0.13371204236E+02  0.13445205908E+02  0.51100000000E-03 0. -1.
        -11    1    3    3    0    0 -0.10805084201E+02 -0.84625177767E+01 -0.56643286224E+01  0.14847513957E+02  0.51100000000E-03 0.  1.
        -12    1    3    3    0    0 -0.89324777810E+01 -0.12170133156E+01 -0.29669764456E+02  0.31009114847E+02  0.00000000000E+00 0.  1.
</event>
<event>
 7    1  0.5832130E-012  0.5930197E+02  0.7816164E-02  0.1266605E+00
        -11   -1    0    0    0    0  0.00000000000E+00  0.00000000000E+00  0.45593999997E+02  0.45594000000E+02  0.51100000000E-03 0.  1.
         11   -1    0    0    0    0 -0.00000000000E+00 -0.00000000000E+00 -0.45593999997E+02  0.45594000000E+02  0.51100000000E-03 0. -1.
    9900012    2    1    2    0    0 -0.23875153793E+02  0.19787571252E+02  0.74261604505E+01  0.59301971654E+02  0.50000050383E+02 0.  0.
         12    1    1    2    0    0  0.23875153793E+02 -0.19787571252E+02 -0.74261604505E+01  0.31886028346E+02  0.00000000000E+00 0. -1.
         11    1    3    3    0    0 -0.43302353409E+01  0.59193044840E+01  0.14153997211E+02  0.15941290443E+02  0.51100000000E-03 0. -1.
        -11    1    3    3    0    0  0.71339914133E+01  0.14427133704E+02 -0.14576318825E+01  0.16160467548E+02  0.51100000000E-03 0.  1.
        -12    1    3    3    0    0 -0.26678909865E+02 -0.55886693670E+00 -0.52702048776E+01  0.27200213663E+02  0.00000000000E+00 0.  1.
</event>
<event>
 7    1  0.5832130E-012  0.5930194E+02  0.7816164E-02  0.1266605E+00
        -11   -1    0    0    0    0  0.00000000000E+00  0.00000000000E+00  0.45593999997E+02  0.45594000000E+02  0.51100000000E-03 0. -1.
         11   -1    0    0    0    0 -0.00000000000E+00 -0.00000000000E+00 -0.45593999997E+02  0.45594000000E+02  0.51100000000E-03 0.  1.
    9900012    2    1    2    0    0 -0.12466624244E+02  0.12073276837E+02 -0.26749586847E+02  0.59301935174E+02  0.49999983852E+02 0.  0.
         12    1    1    2    0    0  0.12466624244E+02 -0.12073276837E+02  0.26749586847E+02  0.31886064826E+02  0.00000000000E+00 0. -1.
         11    1    3    3    0    0  0.70851192510E+01  0.12762786038E+02 -0.23960979537E+02  0.28057372701E+02  0.51100000000E-03 0. -1.
        -11    1    3    3    0    0  0.50549210180E+01 -0.36847426874E+01  0.31181973794E+00  0.62631291684E+01  0.51100000000E-03 0.  1.
         12    1    3    3    0    0 -0.24606664512E+02  0.29952334866E+01 -0.31004270484E+01  0.24981433305E+02  0.00000000000E+00 0. -1.
</event>
<event>
 7    1  0.5832130E-012  0.5930196E+02  0.7816164E-02  0.1266605E+00
        -11   -1    0    0    0    0  0.00000000000E+00  0.00000000000E+00  0.45593999997E+02  0.45594000000E+02  0.51100000000E-03 0.  1.
         11   -1    0    0    0    0 -0.00000000000E+00 -0.00000000000E+00 -0.45593999997E+02  0.45594000000E+02  0.51100000000E-03 0. -1.
    9900012    2    1    2    0    0 -0.30766474516E+01  0.27818863546E+02  0.15276272992E+02  0.59301961597E+02  0.50000032043E+02 0.  0.
         12    1    1    2    0    0  0.30766474516E+01 -0.27818863546E+02 -0.15276272992E+02  0.31886038403E+02  0.00000000000E+00 0. -1.
         11    1    3    3    0    0 -0.18317672046E+02  0.25851665028E+00  0.34658903000E+01  0.18644471992E+02  0.51100000000E-03 0. -1.
        -11    1    3    3    0    0  0.66298235646E+01 -0.28910154029E+01  0.27815121316E+01  0.77491509572E+01  0.51100000000E-03 0.  1.
        -12    1    3    3    0    0  0.86112010293E+01  0.30451362298E+02  0.90288705599E+01  0.32908338648E+02  0.00000000000E+00 0.  1.
</event>
<event>
 7    1  0.5832130E-012  0.5930192E+02  0.7816164E-02  0.1266605E+00
        -11   -1    0    0    0    0  0.00000000000E+00  0.00000000000E+00  0.45593999997E+02  0.45594000000E+02  0.51100000000E-03 0. -1.
         11   -1    0    0    0    0 -0.00000000000E+00 -0.00000000000E+00 -0.45593999997E+02  0.45594000000E+02  0.51100000000E-03 0.  1.
    9900012    2    1    2    0    0 -0.63317814425E+01  0.20553773252E+02 -0.23540878772E+02  0.59301921149E+02  0.49999958274E+02 0.  0.
         12    1    1    2    0    0  0.63317814425E+01 -0.20553773252E+02  0.23540878772E+02  0.31886078851E+02  0.00000000000E+00 0. -1.
         11    1    3    3    0    0 -0.15071178582E+02  0.16782070308E+02 -0.81831722340E+01  0.23994637228E+02  0.51100000000E-03 0. -1.
        -11    1    3    3    0    0 -0.81661786555E+01  0.81431389190E+01 -0.13487658497E+02  0.17745819713E+02  0.51100000000E-03 0.  1.
         12    1    3    3    0    0  0.16905575795E+02 -0.43714359743E+01 -0.18700480410E+01  0.17561464207E+02  0.00000000000E+00 0. -1.
</event>
<event>
 7    1  0.5832130E-012  0.5930195E+02  0.7816164E-02  0.1266605E+00
        -11   -1    0    0    0    0  0.00000000000E+00  0.00000000000E+00  0.45593999997E+02  0.45594000000E+02  0.51100000000E-03 0.  1.
         11   -1    0    0    0    0 -0.00000000000E+00 -0.00000000000E+00 -0.45593999997E+02  0.45594000000E+02  0.51100000000E-03 0. -1.
    9900012    2    1    2    0    0  0.27276584643E+01 -0.22023086736E+01  0.31692743554E+02  0.59301948533E+02  0.50000008216E+02 0.  0.
         12    1    1    2    0    0 -0.27276584643E+01  0.22023086736E+01 -0.31692743554E+02  0.31886051467E+02  0.00000000000E+00 0. -1.
         11    1    3    3    0    0  0.21473824560E+01  0.88808497304E+01  0.61303313577E+01  0.11002804468E+02  0.51100000000E-03 0. -1.
        -11    1    3    3    0    0 -0.11750069074E+02  0.10430468814E+02  0.64175547577E+01  0.16971853530E+02  0.51100000000E-03 0.  1.
         12    1    3    3    0    0  0.12330345082E+02 -0.21513627218E+02  0.19144857438E+02  0.31327290535E+02  0.00000000000E+00 0. -1.
</event>
<event>
 7    1  0.5832130E-012  0.5930194E+02  0.7816164E-02  0.1266605E+00
        -11   -1    0    0    0    0  0.00000000000E+00  0.00000000000E+00  0.45593999997E+02  0.45594000000E+02  0.51100000000E-03 0. -1.
         11   -1    0    0    0    0 -0.00000000000E+00 -0.00000000000E+00 -0.45593999997E+02  0.45594000000E+02  0.51100000000E-03 0.  1.
    9900012    2    1    2    0    0 -0.75615329477E+01 -0.19409670319E+02 -0.24141431132E+02  0.59301940672E+02  0.49999993879E+02 0.  0.
         12    1    1    2    0    0  0.75615329477E+01  0.19409670319E+02  0.24141431132E+02  0.31886059328E+02  0.00000000000E+00 0. -1.
         11    1    3    3    0    0  0.36357914948E-01  0.66315184881E+01  0.76737028898E+01  0.10142192843E+02  0.51100000000E-03 0. -1.
        -11    1    3    3    0    0 -0.79995797967E+01 -0.11373849198E+02  0.23855103360E+00  0.13907358820E+02  0.51100000000E-03 0.  1.
         12    1    3    3    0    0  0.40168893402E+00 -0.14667339609E+02 -0.32053685055E+02  0.35252389009E+02  0.00000000000E+00 0. -1.
</event>
<event>
 7    1  0.5832130E-012  0.5930178E+02  0.7816164E-02  0.1266605E+00
        -11   -1    0    0    0    0  0.00000000000E+00  0.00000000000E+00  0.45593999997E+02  0.45594000000E+02  0.51100000000E-03 0.  1.
         11   -1    0    0    0    0 -0.00000000000E+00 -0.00000000000E+00 -0.45593999997E+02  0.45594000000E+02  0.51100000000E-03 0. -1.
    9900012    2    1    2    0    0 -0.12689993103E+02 -0.19487869128E+02  0.21815546941E+02  0.59301779521E+02  0.49999699978E+02 0.  0.
         12    1    1    2    0    0  0.12689993103E+02  0.19487869128E+02 -0.21815546941E+02  0.31886220479E+02  0.00000000000E+00 0. -1.
         11    1    3    3    0    0 -0.24913190175E+01 -0.12395942956E+02 -0.27847192146E+01  0.12946842610E+02  0.51100000000E-03 0. -1.
        -11    1    3    3    0    0 -0.15756188278E+02  0.71117880430E+01 -0.14417911074E+00  0.17287445910E+02  0.51100000000E-03 0.  1.
        -12    1    3    3    0    0  0.55575141920E+01 -0.14203714215E+02  0.24744445266E+02  0.29067491000E+02  0.00000000000E+00 0.  1.
</event>
<event>
 7    1  0.5832130E-012  0.5930194E+02  0.7816164E-02  0.1266605E+00
        -11   -1    0    0    0    0  0.00000000000E+00  0.00000000000E+00  0.45593999997E+02  0.45594000000E+02  0.51100000000E-03 0.  1.
         11   -1    0    0    0    0 -0.00000000000E+00 -0.00000000000E+00 -0.45593999997E+02  0.45594000000E+02  0.51100000000E-03 0. -1.
    9900012    2    1    2    0    0 -0.18300647988E+02  0.34428533761E+01  0.25883472777E+02  0.59301935346E+02  0.49999984167E+02 0.  0.
         12    1    1    2    0    0  0.18300647988E+02 -0.34428533761E+01 -0.25883472777E+02  0.31886064654E+02  0.00000000000E+00 0. -1.
         11    1    3    3    0    0  0.53388762345E+01 -0.74369503028E+01 -0.15134279425E+01  0.92791321605E+01  0.51100000000E-03 0. -1.
        -11    1    3    3    0    0 -0.18641029844E+02 -0.94625942017E+01  0.13566754820E+02  0.24921587415E+02  0.51100000000E-03 0.  1.
        -12    1    3    3    0    0 -0.49984943786E+01  0.20342397881E+02  0.13830145899E+02  0.25101215771E+02  0.00000000000E+00 0.  1.
</event>
<event>
 7    1  0.5832130E-012  0.5930210E+02  0.7816164E-02  0.1266604E+00
        -11   -1    0    0    0    0  0.00000000000E+00  0.00000000000E+00  0.45593999997E+02  0.45594000000E+02  0.51100000000E-03 0.  1.
         11   -1    0    0    0    0 -0.00000000000E+00 -0.00000000000E+00 -0.45593999997E+02  0.45594000000E+02  0.51100000000E-03 0. -1.
    9900012    2    1    2    0    0  0.38760906048E+01  0.15592911420E+02  0.27541744318E+02  0.59302099589E+02  0.50000283706E+02 0.  0.
         12    1    1    2    0    0 -0.38760906048E+01 -0.15592911420E+02 -0.27541744318E+02  0.31885900411E+02  0.00000000000E+00 0. -1.
         11    1    3    3    0    0 -0.20248455654E+01  0.16458268597E+01  0.29397828325E+02  0.29513404685E+02  0.51100000000E-03 0. -1.
        -11    1    3    3    0    0 -0.94977202977E+01  0.94419856266E+00 -0.12428878813E+01  0.96251219382E+01  0.51100000000E-03 0.  1.
        -12    1    3    3    0    0  0.15398656468E+02  0.13002885998E+02 -0.61319612563E+00  0.20163572966E+02  0.00000000000E+00 0.  1.
</event>
<event>
 7    1  0.5832130E-012  0.5930194E+02  0.7816164E-02  0.1266605E+00
        -11   -1    0    0    0    0  0.00000000000E+00  0.00000000000E+00  0.45593999997E+02  0.45594000000E+02  0.51100000000E-03 0.  1.
         11   -1    0    0    0    0 -0.00000000000E+00 -0.00000000000E+00 -0.45593999997E+02  0.45594000000E+02  0.51100000000E-03 0. -1.
    9900012    2    1    2    0    0 -0.16375530882E+02 -0.72927743516E+01  0.26370026746E+02  0.59301939095E+02  0.49999991004E+02 0.  0.
         12    1    1    2    0    0  0.16375530882E+02  0.72927743516E+01 -0.26370026746E+02  0.31886060905E+02  0.00000000000E+00 0. -1.
         11    1    3    3    0    0 -0.26398034987E+02  0.17018348210E+01  0.21668615651E+02  0.34194756871E+02  0.51100000000E-03 0.  1.
        -11    1    3    3    0    0 -0.57257850438E-01  0.21411179309E+01 -0.61924020394E+01  0.65523665750E+01  0.51100000000E-03 0. -1.
        -12    1    3    3    0    0  0.10079761955E+02 -0.11135727103E+02  0.10893813134E+02  0.18554815650E+02  0.00000000000E+00 0.  1.
</event>
<event>
 7    1  0.5832130E-012  0.5930183E+02  0.7816164E-02  0.1266605E+00
        -11   -1    0    0    0    0  0.00000000000E+00  0.00000000000E+00  0.45593999997E+02  0.45594000000E+02  0.51100000000E-03 0. -1.
         11   -1    0    0    0    0 -0.00000000000E+00 -0.00000000000E+00 -0.45593999997E+02  0.45594000000E+02  0.51100000000E-03 0.  1.
    9900012    2    1    2    0    0 -0.20820944216E+02  0.39921387177E+01 -0.23817615702E+02  0.59301832038E+02  0.49999795757E+02 0.  0.
         12    1    1    2    0    0  0.20820944216E+02 -0.39921387177E+01  0.23817615702E+02  0.31886167962E+02  0.00000000000E+00 0. -1.
         11    1    3    3    0    0  0.28653332662E+01  0.12648403288E+02 -0.13069121097E+02  0.18411794236E+02  0.51100000000E-03 0. -1.
        -11    1    3    3    0    0  0.51103741588E+00 -0.29845204818E+01 -0.15323082491E+02  0.15619391122E+02  0.51100000000E-03 0.  1.
        -12    1    3    3    0    0 -0.24197314898E+02 -0.56717440886E+01  0.45745878868E+01  0.25270646680E+02  0.00000000000E+00 0.  1.
</event>
<event>
 7    1  0.5832130E-012  0.5930195E+02  0.7816164E-02  0.1266605E+00
        -11   -1    0    0    0    0  0.00000000000E+00  0.00000000000E+00  0.45593999997E+02  0.45594000000E+02  0.51100000000E-03 0.  1.
         11   -1    0    0    0    0 -0.00000000000E+00 -0.00000000000E+00 -0.45593999997E+02  0.45594000000E+02  0.51100000000E-03 0. -1.
    9900012    2    1    2    0    0 -0.15587154443E+02  0.27501535928E+02  0.41744814233E+01  0.59301950430E+02  0.50000011677E+02 0.  0.
         12    1    1    2    0    0  0.15587154443E+02 -0.27501535928E+02 -0.41744814233E+01  0.31886049570E+02  0.00000000000E+00 0. -1.
         11    1    3    3    0    0 -0.14054284003E+02 -0.48992166366E+01  0.10771471528E+02  0.18372528994E+02  0.51100000000E-03 0. -1.
        -11    1    3    3    0    0 -0.17264282757E+01 -0.14842537566E+01  0.46900699110E+01  0.52134748331E+01  0.51100000000E-03 0.  1.
         12    1    3    3    0    0  0.19355783567E+00  0.33885006321E+02 -0.11287060016E+02  0.35715946604E+02  0.00000000000E+00 0. -1.
</event>
<event>
 7    1  0.5832130E-012  0.5930195E+02  0.7816164E-02  0.1266605E+00
        -11   -1    0    0    0    0  0.00000000000E+00  0.00000000000E+00  0.45593999997E+02  0.45594000000E+02  0.51100000000E-03 0.  1.
         11   -1    0    0    0    0 -0.00000000000E+00 -0.00000000000E+00 -0.45593999997E+02  0.45594000000E+02  0.51100000000E-03 0. -1.
    9900012    2    1    2    0    0  0.78192259164E+01 -0.30906947449E+02 -0.58362616376E+00  0.59301947970E+02  0.50000007190E+02 0.  0.
         12    1    1    2    0    0 -0.78192259164E+01  0.30906947449E+02  0.58362616376E+00  0.31886052030E+02  0.00000000000E+00 0. -1.
         11    1    3    3    0    0  0.13849616977E+01 -0.56938368002E+01 -0.12865067206E+02  0.14136755317E+02  0.51100000000E-03 0. -1.
        -11    1    3    3    0    0 -0.86858034706E+01 -0.49050240917E+01 -0.79504532136E+01  0.12755867271E+02  0.51100000000E-03 0.  1.
        -12    1    3    3    0    0  0.15120067689E+02 -0.20308086557E+02  0.20231894256E+02  0.32409325382E+02  0.00000000000E+00 0.  1.
</event>
<event>
 7    1  0.5832130E-012  0.5930193E+02  0.7816164E-02  0.1266605E+00
        -11   -1    0    0    0    0  0.00000000000E+00  0.00000000000E+00  0.45593999997E+02  0.45594000000E+02  0.51100000000E-03 0.  1.
         11   -1    0    0    0    0 -0.00000000000E+00 -0.00000000000E+00 -0.45593999997E+02  0.45594000000E+02  0.51100000000E-03 0. -1.
    9900012    2    1    2    0    0  0.93784959425E+01  0.17553841131E+02  0.24912404961E+02  0.59301930228E+02  0.49999974832E+02 0.  0.
         12    1    1    2    0    0 -0.93784959425E+01 -0.17553841131E+02 -0.24912404961E+02  0.31886069772E+02  0.00000000000E+00 0. -1.
         11    1    3    3    0    0 -0.61589417127E+01  0.30500087932E+01  0.18897765538E+01  0.71278588892E+01  0.51100000000E-03 0. -1.
        -11    1    3    3    0    0 -0.70273862438E+01  0.20788044014E+02  0.17603034141E+02  0.28131721287E+02  0.51100000000E-03 0.  1.
         12    1    3    3    0    0  0.22564823899E+02 -0.62842116757E+01  0.54195942654E+01  0.24042350051E+02  0.00000000000E+00 0. -1.
</event>
<event>
 7    1  0.5832130E-012  0.5930192E+02  0.7816164E-02  0.1266605E+00
        -11   -1    0    0    0    0  0.00000000000E+00  0.00000000000E+00  0.45593999997E+02  0.45594000000E+02  0.51100000000E-03 0.  1.
         11   -1    0    0    0    0 -0.00000000000E+00 -0.00000000000E+00 -0.45593999997E+02  0.45594000000E+02  0.51100000000E-03 0. -1.
    9900012    2    1    2    0    0 -0.18479033567E+02  0.17272129956E+02  0.19414447098E+02  0.59301922930E+02  0.49999961522E+02 0.  0.
         12    1    1    2    0    0  0.18479033567E+02 -0.17272129956E+02 -0.19414447098E+02  0.31886077070E+02  0.00000000000E+00 0. -1.
         11    1    3    3    0    0 -0.16177279468E+02 -0.38879290439E+01  0.18811060170E+01  0.16743921982E+02  0.51100000000E-03 0. -1.
        -11    1    3    3    0    0  0.72501467155E+01 -0.53471207532E+01 -0.63742529473E+00  0.90312036304E+01  0.51100000000E-03 0.  1.
        -12    1    3    3    0    0 -0.95519008149E+01  0.26507179754E+02  0.18170766376E+02  0.33526797317E+02  0.00000000000E+00 0.  1.
</event>
<event>
 7    1  0.5832130E-012  0.5930197E+02  0.7816164E-02  0.1266605E+00
        -11   -1    0    0    0    0  0.00000000000E+00  0.00000000000E+00  0.45593999997E+02  0.45594000000E+02  0.51100000000E-03 0. -1.
         11   -1    0    0    0    0 -0.00000000000E+00 -0.00000000000E+00 -0.45593999997E+02  0.45594000000E+02  0.51100000000E-03 0.  1.
    9900012    2    1    2    0    0  0.29758969330E+02 -0.81919224826E+01 -0.80009310274E+01  0.59301972546E+02  0.50000052010E+02 0.  0.
         12    1    1    2    0    0 -0.29758969330E+02  0.81919224826E+01  0.80009310274E+01  0.31886027454E+02  0.00000000000E+00 0. -1.
         11    1    3    3    0    0  0.22821607914E+02 -0.55072508407E+01  0.12718088014E+02  0.26700287688E+02  0.51100000000E-03 0. -1.
        -11    1    3    3    0    0 -0.28027915102E+01 -0.59305116339E+01  0.26517921016E+01  0.70752109580E+01  0.51100000000E-03 0.  1.
         12    1    3    3    0    0  0.97401529257E+01  0.32458399920E+01 -0.23370811143E+02  0.25526473900E+02  0.00000000000E+00 0. -1.
</event>
<event>
 7    1  0.5832130E-012  0.5930196E+02  0.7816164E-02  0.1266605E+00
        -11   -1    0    0    0    0  0.00000000000E+00  0.00000000000E+00  0.45593999997E+02  0.45594000000E+02  0.51100000000E-03 0.  1.
         11   -1    0    0    0    0 -0.00000000000E+00 -0.00000000000E+00 -0.45593999997E+02  0.45594000000E+02  0.51100000000E-03 0. -1.
    9900012    2    1    2    0    0 -0.10294965734E+02  0.24652097199E+02 -0.17407098227E+02  0.59301964115E+02  0.50000036634E+02 0.  0.
         12    1    1    2    0    0  0.10294965734E+02 -0.24652097199E+02  0.17407098227E+02  0.31886035885E+02  0.00000000000E+00 0. -1.
         11    1    3    3    0    0  0.59933126570E+01  0.23302115876E+02 -0.14573978439E+02  0.28130219493E+02  0.51100000000E-03 0. -1.
        -11    1    3    3    0    0 -0.64011620172E+01  0.13743056044E+02 -0.72058860986E+00  0.15177803293E+02  0.51100000000E-03 0.  1.
        -12    1    3    3    0    0 -0.98871163739E+01 -0.12393074722E+02 -0.21125311786E+01  0.15993941329E+02  0.00000000000E+00 0.  1.
</event>
<event>
 7    1  0.5832130E-012  0.5930188E+02  0.7816164E-02  0.1266605E+00
        -11   -1    0    0    0    0  0.00000000000E+00  0.00000000000E+00  0.45593999997E+02  0.45594000000E+02  0.51100000000E-03 0. -1.
         11   -1    0    0    0    0 -0.00000000000E+00 -0.00000000000E+00 -0.45593999997E+02  0.45594000000E+02  0.51100000000E-03 0.  1.
    9900012    2    1    2    0    0  0.14521916468E+02 -0.12205078218E+02 -0.25629563093E+02  0.59301882386E+02  0.49999887580E+02 0.  0.
         12    1    1    2    0    0 -0.14521916468E+02  0.12205078218E+02  0.25629563093E+02  0.31886117614E+02  0.00000000000E+00 0. -1.
         11    1    3    3    0    0  0.12990966029E+02  0.76309750243E+01 -0.23050433995E+02  0.27537601308E+02  0.51100000000E-03 0. -1.
        -11    1    3    3    0    0  0.76881136754E+01  0.45754767031E+00  0.50690743372E+01  0.92201928751E+01  0.51100000000E-03 0.  1.
        -12    1    3    3    0    0 -0.61571632364E+01 -0.20293600912E+02 -0.76482034345E+01  0.22544088202E+02  0.00000000000E+00 0.  1.
</event>
<event>
 7    1  0.5832130E-012  0.5930186E+02  0.7816164E-02  0.1266605E+00
        -11   -1    0    0    0    0  0.00000000000E+00  0.00000000000E+00  0.45593999997E+02  0.45594000000E+02  0.51100000000E-03 0. -1.
         11   -1    0    0    0    0 -0.00000000000E+00 -0.00000000000E+00 -0.45593999997E+02  0.45594000000E+02  0.51100000000E-03 0.  1.
    9900012    2    1    2    0    0  0.18942789451E+01 -0.16715374250E+02 -0.27087518991E+02  0.59301863292E+02  0.49999852758E+02 0.  0.
         12    1    1    2    0    0 -0.18942789451E+01  0.16715374250E+02  0.27087518991E+02  0.31886136708E+02  0.00000000000E+00 0. -1.
         11    1    3    3    0    0  0.12579769179E+02  0.54305067420E+01  0.45816900178E+01  0.14447590794E+02  0.51100000000E-03 0. -1.
        -11    1    3    3    0    0 -0.62171664678E+01 -0.13485252365E+02 -0.31812811077E+02  0.35107835865E+02  0.51100000000E-03 0.  1.
        -12    1    3    3    0    0 -0.44683237657E+01 -0.86606286273E+01  0.14360206849E+00  0.97464366334E+01  0.00000000000E+00 0.  1.
</event>
<event>
 7    1  0.5832130E-012  0.5930217E+02  0.7816164E-02  0.1266604E+00
        -11   -1    0    0    0    0  0.00000000000E+00  0.00000000000E+00  0.45593999997E+02  0.45594000000E+02  0.51100000000E-03 0.  1.
         11   -1    0    0    0    0 -0.00000000000E+00 -0.00000000000E+00 -0.45593999997E+02  0.45594000000E+02  0.51100000000E-03 0. -1.
    9900012    2    1    2    0    0 -0.29632661028E+02  0.23659392647E+01 -0.11533153661E+02  0.59302173970E+02  0.50000419358E+02 0.  0.
         12    1    1    2    0    0  0.29632661028E+02 -0.23659392647E+01  0.11533153661E+02  0.31885826030E+02  0.00000000000E+00 0. -1.
         11    1    3    3    0    0 -0.11273977368E+02 -0.16927403561E+02  0.68731340907E+01  0.21468104935E+02  0.51100000000E-03 0. -1.
        -11    1    3    3    0    0 -0.23050131127E+01 -0.19365977412E+01 -0.91846701546E+01  0.96654882117E+01  0.51100000000E-03 0.  1.
        -12    1    3    3    0    0 -0.16053670548E+02  0.21229940567E+02 -0.92216175974E+01  0.28168580824E+02  0.00000000000E+00 0.  1.
</event>
<event>
 7    1  0.5832130E-012  0.5930194E+02  0.7816164E-02  0.1266605E+00
        -11   -1    0    0    0    0  0.00000000000E+00  0.00000000000E+00  0.45593999997E+02  0.45594000000E+02  0.51100000000E-03 0.  1.
         11   -1    0    0    0    0 -0.00000000000E+00 -0.00000000000E+00 -0.45593999997E+02  0.45594000000E+02  0.51100000000E-03 0. -1.
    9900012    2    1    2    0    0  0.26577947491E+02 -0.17604957183E+02 -0.63183483682E+00  0.59301936814E+02  0.49999986844E+02 0.  0.
         12    1    1    2    0    0 -0.26577947491E+02  0.17604957183E+02  0.63183483682E+00  0.31886063186E+02  0.00000000000E+00 0. -1.
         11    1    3    3    0    0  0.80971182859E+01 -0.14967809215E+02 -0.96837628693E+01  0.19579936180E+02  0.51100000000E-03 0. -1.
        -11    1    3    3    0    0  0.21140499395E+02 -0.14892156783E+02  0.83025429817E+01  0.27159331151E+02  0.51100000000E-03 0.  1.
        -12    1    3    3    0    0 -0.26596701903E+01  0.12255008816E+02  0.74938505079E+00  0.12562669483E+02  0.00000000000E+00 0.  1.
</event>
<event>
 7    1  0.5832130E-012  0.5930191E+02  0.7816164E-02  0.1266605E+00
        -11   -1    0    0    0    0  0.00000000000E+00  0.00000000000E+00  0.45593999997E+02  0.45594000000E+02  0.51100000000E-03 0.  1.
         11   -1    0    0    0    0 -0.00000000000E+00 -0.00000000000E+00 -0.45593999997E+02  0.45594000000E+02  0.51100000000E-03 0. -1.
    9900012    2    1    2    0    0  0.71411392793E+01 -0.44529822026E+01  0.30755447521E+02  0.59301914117E+02  0.49999945450E+02 0.  0.
         12    1    1    2    0    0 -0.71411392793E+01  0.44529822026E+01 -0.30755447521E+02  0.31886085883E+02  0.00000000000E+00 0. -1.
         11    1    3    3    0    0  0.13924100966E+01  0.18420001420E+02  0.18522855755E+02  0.26159729428E+02  0.51100000000E-03 0.  1.
        -11    1    3    3    0    0 -0.14225793418E+00  0.20875119814E+01 -0.27382272072E+01  0.34461329185E+01  0.51100000000E-03 0. -1.
        -12    1    3    3    0    0  0.58909871169E+01 -0.24960495604E+02  0.14970818974E+02  0.29696051770E+02  0.00000000000E+00 0.  1.
</event>
<event>
 7    1  0.5832130E-012  0.5930194E+02  0.7816164E-02  0.1266605E+00
        -11   -1    0    0    0    0  0.00000000000E+00  0.00000000000E+00  0.45593999997E+02  0.45594000000E+02  0.51100000000E-03 0.  1.
         11   -1    0    0    0    0 -0.00000000000E+00 -0.00000000000E+00 -0.45593999997E+02  0.45594000000E+02  0.51100000000E-03 0. -1.
    9900012    2    1    2    0    0 -0.16119400568E+02  0.21758789924E+01  0.27425373291E+02  0.59301943106E+02  0.49999998320E+02 0.  0.
         12    1    1    2    0    0  0.16119400568E+02 -0.21758789924E+01 -0.27425373291E+02  0.31886056894E+02  0.00000000000E+00 0. -1.
         11    1    3    3    0    0  0.73695530353E+01 -0.68821438729E+01  0.62173893011E+01  0.11846102575E+02  0.51100000000E-03 0.  1.
        -11    1    3    3    0    0 -0.42859116540E+01 -0.79702668844E+01 -0.53582675374E+01  0.10516901834E+02  0.51100000000E-03 0. -1.
         12    1    3    3    0    0 -0.19203041950E+02  0.17028289750E+02  0.26566251527E+02  0.36938938698E+02  0.00000000000E+00 0. -1.
</event>
<event>
 7    1  0.5832130E-012  0.5930196E+02  0.7816164E-02  0.1266605E+00
        -11   -1    0    0    0    0  0.00000000000E+00  0.00000000000E+00  0.45593999997E+02  0.45594000000E+02  0.51100000000E-03 0.  1.
         11   -1    0    0    0    0 -0.00000000000E+00 -0.00000000000E+00 -0.45593999997E+02  0.45594000000E+02  0.51100000000E-03 0. -1.
    9900012    2    1    2    0    0 -0.26384772200E+02  0.17290321372E+02  0.46484553721E+01  0.59301959880E+02  0.50000028911E+02 0.  0.
         12    1    1    2    0    0  0.26384772200E+02 -0.17290321372E+02 -0.46484553721E+01  0.31886040120E+02  0.00000000000E+00 0. -1.
         11    1    3    3    0    0  0.86664556978E+01 -0.41682650669E+01 -0.66811312832E+01  0.11709799465E+02  0.51100000000E-03 0. -1.
        -11    1    3    3    0    0 -0.76545922936E+01 -0.35131662164E+01 -0.11005965090E+01  0.84939056377E+01  0.51100000000E-03 0.  1.
        -12    1    3    3    0    0 -0.27396635604E+02  0.24971752655E+02  0.12430183164E+02  0.39098254777E+02  0.00000000000E+00 0.  1.
</event>
<event>
 7    1  0.5832130E-012  0.5930196E+02  0.7816164E-02  0.1266605E+00
        -11   -1    0    0    0    0  0.00000000000E+00  0.00000000000E+00  0.45593999997E+02  0.45594000000E+02  0.51100000000E-03 0.  1.
         11   -1    0    0    0    0 -0.00000000000E+00 -0.00000000000E+00 -0.45593999997E+02  0.45594000000E+02  0.51100000000E-03 0. -1.
    9900012    2    1    2    0    0 -0.31209507764E+02 -0.15891317515E+00  0.65315491920E+01  0.59301956609E+02  0.50000022946E+02 0.  0.
         12    1    1    2    0    0  0.31209507764E+02  0.15891317515E+00 -0.65315491920E+01  0.31886043391E+02  0.00000000000E+00 0. -1.
         11    1    3    3    0    0 -0.35147206624E+00  0.33939586365E+01  0.59481084082E+01  0.68572940535E+01  0.51100000000E-03 0. -1.
        -11    1    3    3    0    0 -0.23337275358E+02  0.17953945072E+02  0.26712937854E+01  0.29565323870E+02  0.51100000000E-03 0.  1.
        -12    1    3    3    0    0 -0.75207603395E+01 -0.21506816884E+02 -0.20878530017E+01  0.22879338686E+02  0.00000000000E+00 0.  1.
</event>
<event>
 7    1  0.5832130E-012  0.5930198E+02  0.7816164E-02  0.1266605E+00
        -11   -1    0    0    0    0  0.00000000000E+00  0.00000000000E+00  0.45593999997E+02  0.45594000000E+02  0.51100000000E-03 0.  1.
         11   -1    0    0    0    0 -0.00000000000E+00 -0.00000000000E+00 -0.45593999997E+02  0.45594000000E+02  0.51100000000E-03 0. -1.
    9900012    2    1    2    0    0  0.20618619209E+02 -0.19452198677E+02  0.14601461742E+02  0.59301981490E+02  0.50000068322E+02 0.  0.
         12    1    1    2    0    0 -0.20618619209E+02  0.19452198677E+02 -0.14601461742E+02  0.31886018510E+02  0.00000000000E+00 0. -1.
         11    1    3    3    0    0 -0.33708349024E+01 -0.49231438890E+01 -0.10128485224E+02  0.11755257840E+02  0.51100000000E-03 0. -1.
        -11    1    3    3    0    0  0.16722360091E+02  0.65841995141E+01  0.81402095265E+01  0.19729470891E+02  0.51100000000E-03 0.  1.
        -12    1    3    3    0    0  0.72670940201E+01 -0.21113254302E+02  0.16589737439E+02  0.27817252758E+02  0.00000000000E+00 0.  1.
</event>
<event>
 7    1  0.5832130E-012  0.5930196E+02  0.7816164E-02  0.1266605E+00
        -11   -1    0    0    0    0  0.00000000000E+00  0.00000000000E+00  0.45593999997E+02  0.45594000000E+02  0.51100000000E-03 0.  1.
         11   -1    0    0    0    0 -0.00000000000E+00 -0.00000000000E+00 -0.45593999997E+02  0.45594000000E+02  0.51100000000E-03 0. -1.
    9900012    2    1    2    0    0 -0.99098317458E+01 -0.29209493854E+02  0.80821138016E+01  0.59301955091E+02  0.50000020176E+02 0.  0.
         12    1    1    2    0    0  0.99098317458E+01  0.29209493854E+02 -0.80821138016E+01  0.31886044909E+02  0.00000000000E+00 0. -1.
         11    1    3    3    0    0  0.17647166196E+02 -0.10741864407E+02 -0.34475760472E+00  0.20662259890E+02  0.51100000000E-03 0. -1.
        -11    1    3    3    0    0 -0.12673121891E+02 -0.34207842592E+00  0.83602303797E+01  0.15186128156E+02  0.51100000000E-03 0.  1.
        -12    1    3    3    0    0 -0.14883876051E+02 -0.18125551021E+02  0.66641026645E-01  0.23453567045E+02  0.00000000000E+00 0.  1.
</event>
<event>
 7    1  0.5832130E-012  0.5930194E+02  0.7816164E-02  0.1266605E+00
        -11   -1    0    0    0    0  0.00000000000E+00  0.00000000000E+00  0.45593999997E+02  0.45594000000E+02  0.51100000000E-03 0. -1.
         11   -1    0    0    0    0 -0.00000000000E+00 -0.00000000000E+00 -0.45593999997E+02  0.45594000000E+02  0.51100000000E-03 0.  1.
    9900012    2    1    2    0    0 -0.23963483170E+02 -0.11733590841E+02 -0.17458381553E+02  0.59301940882E+02  0.49999994263E+02 0.  0.
         12    1    1    2    0    0  0.23963483170E+02  0.11733590841E+02  0.17458381553E+02  0.31886059118E+02  0.00000000000E+00 0. -1.
         11    1    3    3    0    0  0.25002479951E+01 -0.22385106423E+01 -0.12344954502E+02  0.12792969626E+02  0.51100000000E-03 0. -1.
        -11    1    3    3    0    0 -0.12526087184E+02 -0.27072655659E+01 -0.20815039690E+02  0.24443772715E+02  0.51100000000E-03 0.  1.
         12    1    3    3    0    0 -0.13937643981E+02 -0.67878146328E+01  0.15701612639E+02  0.22065198542E+02  0.00000000000E+00 0. -1.
</event>
<event>
 7    1  0.5832130E-012  0.5930197E+02  0.7816164E-02  0.1266605E+00
        -11   -1    0    0    0    0  0.00000000000E+00  0.00000000000E+00  0.45593999997E+02  0.45594000000E+02  0.51100000000E-03 0.  1.
         11   -1    0    0    0    0 -0.00000000000E+00 -0.00000000000E+00 -0.45593999997E+02  0.45594000000E+02  0.51100000000E-03 0. -1.
    9900012    2    1    2    0    0  0.23507196882E+02  0.20036096838E+02 -0.79174296358E+01  0.59301965850E+02  0.50000039799E+02 0.  0.
         12    1    1    2    0    0 -0.23507196882E+02 -0.20036096838E+02  0.79174296358E+01  0.31886034150E+02  0.00000000000E+00 0. -1.
         11    1    3    3    0    0 -0.35391570177E+01 -0.14913823074E+00 -0.30153426631E+01  0.46518992084E+01  0.51100000000E-03 0. -1.
        -11    1    3    3    0    0  0.58924047337E+01  0.22539033563E+02 -0.18191276384E+02  0.29557587930E+02  0.51100000000E-03 0.  1.
        -12    1    3    3    0    0  0.21153949166E+02 -0.23537984941E+01  0.13289189412E+02  0.25092478712E+02  0.00000000000E+00 0.  1.
</event>
<event>
 7    1  0.5832130E-012  0.5930196E+02  0.7816164E-02  0.1266605E+00
        -11   -1    0    0    0    0  0.00000000000E+00  0.00000000000E+00  0.45593999997E+02  0.45594000000E+02  0.51100000000E-03 0. -1.
         11   -1    0    0    0    0 -0.00000000000E+00 -0.00000000000E+00 -0.45593999997E+02  0.45594000000E+02  0.51100000000E-03 0.  1.
    9900012    2    1    2    0    0  0.27846669965E+02 -0.15460463909E+02 -0.15022323625E+01  0.59301957999E+02  0.50000025480E+02 0.  0.
         12    1    1    2    0    0 -0.27846669965E+02  0.15460463909E+02  0.15022323625E+01  0.31886042001E+02  0.00000000000E+00 0. -1.
         11    1    3    3    0    0  0.36071127497E+00 -0.23524714623E+01 -0.25210181124E+01  0.34669535891E+01  0.51100000000E-03 0. -1.
        -11    1    3    3    0    0  0.34612133225E+02  0.81884017666E+00 -0.10756742366E+02  0.36254348321E+02  0.51100000000E-03 0.  1.
         12    1    3    3    0    0 -0.71261745348E+01 -0.13926832624E+02  0.11775528116E+02  0.19580656088E+02  0.00000000000E+00 0. -1.
</event>
<event>
 7    1  0.5832130E-012  0.5930195E+02  0.7816164E-02  0.1266605E+00
        -11   -1    0    0    0    0  0.00000000000E+00  0.00000000000E+00  0.45593999997E+02  0.45594000000E+02  0.51100000000E-03 0.  1.
         11   -1    0    0    0    0 -0.00000000000E+00 -0.00000000000E+00 -0.45593999997E+02  0.45594000000E+02  0.51100000000E-03 0. -1.
    9900012    2    1    2    0    0 -0.21677426573E+02 -0.10160253725E+02  0.21061306535E+02  0.59301949577E+02  0.50000010121E+02 0.  0.
         12    1    1    2    0    0  0.21677426573E+02  0.10160253725E+02 -0.21061306535E+02  0.31886050423E+02  0.00000000000E+00 0. -1.
         11    1    3    3    0    0  0.77205330931E+01 -0.13329189699E+02 -0.24316009437E+01  0.15594441724E+02  0.51100000000E-03 0. -1.
        -11    1    3    3    0    0 -0.39645636191E+01 -0.73758609084E+01  0.10009985771E+02  0.13050705124E+02  0.51100000000E-03 0.  1.
         12    1    3    3    0    0 -0.25433396047E+02  0.10544796883E+02  0.13482921708E+02  0.30656802729E+02  0.00000000000E+00 0. -1.
</event>
<event>
 7    1  0.5832130E-012  0.5930194E+02  0.7816164E-02  0.1266605E+00
        -11   -1    0    0    0    0  0.00000000000E+00  0.00000000000E+00  0.45593999997E+02  0.45594000000E+02  0.51100000000E-03 0. -1.
         11   -1    0    0    0    0 -0.00000000000E+00 -0.00000000000E+00 -0.45593999997E+02  0.45594000000E+02  0.51100000000E-03 0.  1.
    9900012    2    1    2    0    0  0.27109284571E+02 -0.97755678305E+01 -0.13647194907E+02  0.59301937760E+02  0.49999988569E+02 0.  0.
         12    1    1    2    0    0 -0.27109284571E+02  0.97755678305E+01  0.13647194907E+02  0.31886062240E+02  0.00000000000E+00 0. -1.
         11    1    3    3    0    0  0.56454038830E+01 -0.40613511609E+01  0.89459198402E+01  0.11331135879E+02  0.51100000000E-03 0. -1.
        -11    1    3    3    0    0  0.22934086809E+02 -0.17263825682E+02 -0.90224440662E+01  0.30090139782E+02  0.51100000000E-03 0.  1.
         12    1    3    3    0    0 -0.14702061214E+01  0.11549609012E+02 -0.13570670681E+02  0.17880662099E+02  0.00000000000E+00 0. -1.
</event>
<event>
 7    1  0.5832130E-012  0.5930194E+02  0.7816164E-02  0.1266605E+00
        -11   -1    0    0    0    0  0.00000000000E+00  0.00000000000E+00  0.45593999997E+02  0.45594000000E+02  0.51100000000E-03 0.  1.
         11   -1    0    0    0    0 -0.00000000000E+00 -0.00000000000E+00 -0.45593999997E+02  0.45594000000E+02  0.51100000000E-03 0. -1.
    9900012    2    1    2    0    0 -0.29161722040E+02 -0.12863080248E+02 -0.92515004983E+00  0.59301940845E+02  0.49999994196E+02 0.  0.
         12    1    1    2    0    0  0.29161722040E+02  0.12863080248E+02  0.92515004983E+00  0.31886059155E+02  0.00000000000E+00 0. -1.
         11    1    3    3    0    0 -0.14464698240E+02 -0.13846054224E+02 -0.11794752732E+02  0.23239124446E+02  0.51100000000E-03 0. -1.
        -11    1    3    3    0    0 -0.17270239558E+02 -0.28817283231E+01  0.19534202972E+02  0.26232625079E+02  0.51100000000E-03 0.  1.
        -12    1    3    3    0    0  0.25732157580E+01  0.38647022990E+01 -0.86646002898E+01  0.98301913195E+01  0.00000000000E+00 0.  1.
</event>
<event>
 7    1  0.5832130E-012  0.5930194E+02  0.7816164E-02  0.1266605E+00
        -11   -1    0    0    0    0  0.00000000000E+00  0.00000000000E+00  0.45593999997E+02  0.45594000000E+02  0.51100000000E-03 0.  1.
         11   -1    0    0    0    0 -0.00000000000E+00 -0.00000000000E+00 -0.45593999997E+02  0.45594000000E+02  0.51100000000E-03 0. -1.
    9900012    2    1    2    0    0 -0.93697179827E+01 -0.86614392121E+01  0.29221715119E+02  0.59301940682E+02  0.49999993898E+02 0.  0.
         12    1    1    2    0    0  0.93697179827E+01  0.86614392121E+01 -0.29221715119E+02  0.31886059318E+02  0.00000000000E+00 0. -1.
         11    1    3    3    0    0 -0.57913555011E+01 -0.67133928542E+01  0.30115744769E+02  0.31393749783E+02  0.51100000000E-03 0. -1.
        -11    1    3    3    0    0 -0.37334425905E+01  0.56458545583E+01  0.11516236509E+02  0.13358067632E+02  0.51100000000E-03 0.  1.
         12    1    3    3    0    0  0.15508010885E+00 -0.75939009162E+01 -0.12410266159E+02  0.14550123267E+02  0.00000000000E+00 0. -1.
</event>
<event>
 7    1  0.5832130E-012  0.5930197E+02  0.7816164E-02  0.1266605E+00
        -11   -1    0    0    0    0  0.00000000000E+00  0.00000000000E+00  0.45593999997E+02  0.45594000000E+02  0.51100000000E-03 0.  1.
         11   -1    0    0    0    0 -0.00000000000E+00 -0.00000000000E+00 -0.45593999997E+02  0.45594000000E+02  0.51100000000E-03 0. -1.
    9900012    2    1    2    0    0  0.24423007853E+02  0.15584150884E+02  0.13318021315E+02  0.59301972290E+02  0.50000051544E+02 0.  0.
         12    1    1    2    0    0 -0.24423007853E+02 -0.15584150884E+02 -0.13318021315E+02  0.31886027710E+02  0.00000000000E+00 0. -1.
         11    1    3    3    0    0 -0.10860276054E+02  0.16748464093E+02  0.27804797492E+01  0.20154099169E+02  0.51100000000E-03 0. -1.
        -11    1    3    3    0    0  0.14475694369E+02 -0.51910012094E+01  0.91820179623E+01  0.17910937305E+02  0.51100000000E-03 0.  1.
        -12    1    3    3    0    0  0.20807589537E+02  0.40266880010E+01  0.13555236036E+01  0.21236935816E+02  0.00000000000E+00 0.  1.
</event>
<event>
 7    1  0.5832130E-012  0.5930223E+02  0.7816164E-02  0.1266604E+00
        -11   -1    0    0    0    0  0.00000000000E+00  0.00000000000E+00  0.45593999997E+02  0.45594000000E+02  0.51100000000E-03 0.  1.
         11   -1    0    0    0    0 -0.00000000000E+00 -0.00000000000E+00 -0.45593999997E+02  0.45594000000E+02  0.51100000000E-03 0. -1.
    9900012    2    1    2    0    0 -0.63025108487E+01  0.81130389668E+01  0.30185417860E+02  0.59302227379E+02  0.50000516762E+02 0.  0.
         12    1    1    2    0    0  0.63025108487E+01 -0.81130389668E+01 -0.30185417860E+02  0.31885772621E+02  0.00000000000E+00 0. -1.
         11    1    3    3    0    0  0.55518883388E+01  0.14906843178E+02 -0.38129607979E+01  0.16357753757E+02  0.51100000000E-03 0. -1.
        -11    1    3    3    0    0 -0.45649797108E+01  0.76830334832E+01  0.18370748612E+02  0.20429205762E+02  0.51100000000E-03 0.  1.
        -12    1    3    3    0    0 -0.72894194767E+01 -0.14476837695E+02  0.15627630046E+02  0.22515267860E+02  0.00000000000E+00 0.  1.
</event>
<event>
 7    1  0.5832130E-012  0.5930195E+02  0.7816164E-02  0.1266605E+00
        -11   -1    0    0    0    0  0.00000000000E+00  0.00000000000E+00  0.45593999997E+02  0.45594000000E+02  0.51100000000E-03 0. -1.
         11   -1    0    0    0    0 -0.00000000000E+00 -0.00000000000E+00 -0.45593999997E+02  0.45594000000E+02  0.51100000000E-03 0.  1.
    9900012    2    1    2    0    0 -0.17374224375E+02 -0.16576970081E+02 -0.20977617615E+02  0.59301952103E+02  0.50000014727E+02 0.  0.
         12    1    1    2    0    0  0.17374224375E+02  0.16576970081E+02  0.20977617615E+02  0.31886047897E+02  0.00000000000E+00 0. -1.
         11    1    3    3    0    0 -0.29778857716E+02 -0.99072692106E+01 -0.47188280490E+01  0.31736441018E+02  0.51100000000E-03 0. -1.
        -11    1    3    3    0    0  0.85062544463E+01 -0.37579396903E+00  0.12029857708E+01  0.85991139566E+01  0.51100000000E-03 0.  1.
        -12    1    3    3    0    0  0.38983788953E+01 -0.62939069014E+01 -0.17461775337E+02  0.18966397128E+02  0.00000000000E+00 0.  1.
</event>
<event>
 7    1  0.5832130E-012  0.5930194E+02  0.7816164E-02  0.1266605E+00
        -11   -1    0    0    0    0  0.00000000000E+00  0.00000000000E+00  0.45593999997E+02  0.45594000000E+02  0.51100000000E-03 0.  1.
         11   -1    0    0    0    0 -0.00000000000E+00 -0.00000000000E+00 -0.45593999997E+02  0.45594000000E+02  0.51100000000E-03 0. -1.
    9900012    2    1    2    0    0  0.51205522018E+01 -0.31426605112E+02 -0.16939084401E+01  0.59301938946E+02  0.49999990732E+02 0.  0.
         12    1    1    2    0    0 -0.51205522018E+01  0.31426605112E+02  0.16939084401E+01  0.31886061054E+02  0.00000000000E+00 0. -1.
         11    1    3    3    0    0 -0.19369615130E+01 -0.32534069892E+02 -0.17248058683E+01  0.32637286639E+02  0.51100000000E-03 0. -1.
        -11    1    3    3    0    0  0.96175137478E+01 -0.99972515592E+01 -0.42225857455E+01  0.14500753086E+02  0.51100000000E-03 0.  1.
        -12    1    3    3    0    0 -0.25600000330E+01  0.11104716339E+02  0.42534831737E+01  0.12163899220E+02  0.00000000000E+00 0.  1.
</event>
<event>
 7    1  0.5832130E-012  0.5930215E+02  0.7816164E-02  0.1266604E+00
        -11   -1    0    0    0    0  0.00000000000E+00  0.00000000000E+00  0.45593999997E+02  0.45594000000E+02  0.51100000000E-03 0.  1.
         11   -1    0    0    0    0 -0.00000000000E+00 -0.00000000000E+00 -0.45593999997E+02  0.45594000000E+02  0.51100000000E-03 0. -1.
    9900012    2    1    2    0    0 -0.28456399872E+02  0.13851259173E+02  0.38837512156E+01  0.59302147371E+02  0.50000370849E+02 0.  0.
         12    1    1    2    0    0  0.28456399872E+02 -0.13851259173E+02 -0.38837512156E+01  0.31885852629E+02  0.00000000000E+00 0. -1.
         11    1    3    3    0    0 -0.12367749243E+02  0.12857092571E+02 -0.13152947052E+01  0.17888433445E+02  0.51100000000E-03 0. -1.
        -11    1    3    3    0    0  0.16816491390E+01  0.15049059736E+02  0.10140465173E+02  0.18224466438E+02  0.51100000000E-03 0.  1.
        -12    1    3    3    0    0 -0.17770299768E+02 -0.14054893133E+02 -0.49414192527E+01  0.23189247488E+02  0.00000000000E+00 0.  1.
</event>
<event>
 7    1  0.5832130E-012  0.5930189E+02  0.7816164E-02  0.1266605E+00
        -11   -1    0    0    0    0  0.00000000000E+00  0.00000000000E+00  0.45593999997E+02  0.45594000000E+02  0.51100000000E-03 0. -1.
         11   -1    0    0    0    0 -0.00000000000E+00 -0.00000000000E+00 -0.45593999997E+02  0.45594000000E+02  0.51100000000E-03 0.  1.
    9900012    2    1    2    0    0 -0.22057221955E+02 -0.22692021626E+02 -0.39083007647E+01  0.59301894865E+02  0.49999910338E+02 0.  0.
         12    1    1    2    0    0  0.22057221955E+02  0.22692021626E+02  0.39083007647E+01  0.31886105135E+02  0.00000000000E+00 0. -1.
         11    1    3    3    0    0  0.35406354887E+01 -0.98706917765E+01  0.17665698587E+02  0.20543698855E+02  0.51100000000E-03 0. -1.
        -11    1    3    3    0    0 -0.25383411827E+01 -0.54681586374E+01  0.43489123937E+00  0.60442588871E+01  0.51100000000E-03 0.  1.
        -12    1    3    3    0    0 -0.23059516261E+02 -0.73531712123E+01 -0.22008890591E+02  0.32713937123E+02  0.00000000000E+00 0.  1.
</event>
<event>
 7    1  0.5832130E-012  0.5930198E+02  0.7816164E-02  0.1266605E+00
        -11   -1    0    0    0    0  0.00000000000E+00  0.00000000000E+00  0.45593999997E+02  0.45594000000E+02  0.51100000000E-03 0.  1.
         11   -1    0    0    0    0 -0.00000000000E+00 -0.00000000000E+00 -0.45593999997E+02  0.45594000000E+02  0.51100000000E-03 0. -1.
    9900012    2    1    2    0    0 -0.21949467199E+02  0.11564532809E+02  0.20029997457E+02  0.59301979120E+02  0.50000064001E+02 0.  0.
         12    1    1    2    0    0  0.21949467199E+02 -0.11564532809E+02 -0.20029997457E+02  0.31886020880E+02  0.00000000000E+00 0. -1.
         11    1    3    3    0    0 -0.16207657645E+02 -0.28005720088E+01 -0.11435619562E+02  0.20032592567E+02  0.51100000000E-03 0.  1.
        -11    1    3    3    0    0 -0.11299039152E+01  0.49153461429E+01 -0.10014517230E+01  0.51420050931E+01  0.51100000000E-03 0. -1.
         12    1    3    3    0    0 -0.46119056390E+01  0.94497586747E+01  0.32467068743E+02  0.34127381461E+02  0.00000000000E+00 0. -1.
</event>
<event>
 7    1  0.5832130E-012  0.5930196E+02  0.7816164E-02  0.1266605E+00
        -11   -1    0    0    0    0  0.00000000000E+00  0.00000000000E+00  0.45593999997E+02  0.45594000000E+02  0.51100000000E-03 0.  1.
         11   -1    0    0    0    0 -0.00000000000E+00 -0.00000000000E+00 -0.45593999997E+02  0.45594000000E+02  0.51100000000E-03 0. -1.
    9900012    2    1    2    0    0  0.13445160998E+02 -0.13630480007E+02  0.25498178215E+02  0.59301961805E+02  0.50000032421E+02 0.  0.
         12    1    1    2    0    0 -0.13445160998E+02  0.13630480007E+02 -0.25498178215E+02  0.31886038195E+02  0.00000000000E+00 0. -1.
         11    1    3    3    0    0  0.24436946632E+02 -0.56000055632E+01  0.77299258327E+01  0.26235018137E+02  0.51100000000E-03 0. -1.
        -11    1    3    3    0    0  0.32596505006E+01  0.66249911122E+01  0.57047622223E+01  0.93306023867E+01  0.51100000000E-03 0.  1.
        -12    1    3    3    0    0 -0.14251436134E+02 -0.14655465556E+02  0.12063490160E+02  0.23736341281E+02  0.00000000000E+00 0.  1.
</event>
<event>
 7    1  0.5832130E-012  0.5930192E+02  0.7816164E-02  0.1266605E+00
        -11   -1    0    0    0    0  0.00000000000E+00  0.00000000000E+00  0.45593999997E+02  0.45594000000E+02  0.51100000000E-03 0.  1.
         11   -1    0    0    0    0 -0.00000000000E+00 -0.00000000000E+00 -0.45593999997E+02  0.45594000000E+02  0.51100000000E-03 0. -1.
    9900012    2    1    2    0    0  0.20450489100E+02  0.37116275350E+01  0.24181048846E+02  0.59301924564E+02  0.49999964503E+02 0.  0.
         12    1    1    2    0    0 -0.20450489100E+02 -0.37116275350E+01 -0.24181048846E+02  0.31886075436E+02  0.00000000000E+00 0. -1.
         11    1    3    3    0    0  0.40412700650E+01 -0.12044987677E+02  0.91302531458E+01  0.15645290494E+02  0.51100000000E-03 0.  1.
        -11    1    3    3    0    0  0.22833276745E+02  0.10574036006E+02 -0.14521092569E+01  0.25204709598E+02  0.51100000000E-03 0. -1.
         12    1    3    3    0    0 -0.64240577104E+01  0.51825792060E+01  0.16502904957E+02  0.18451924472E+02  0.00000000000E+00 0. -1.
</event>
<event>
 7    1  0.5832130E-012  0.5930194E+02  0.7816164E-02  0.1266605E+00
        -11   -1    0    0    0    0  0.00000000000E+00  0.00000000000E+00  0.45593999997E+02  0.45594000000E+02  0.51100000000E-03 0. -1.
         11   -1    0    0    0    0 -0.00000000000E+00 -0.00000000000E+00 -0.45593999997E+02  0.45594000000E+02  0.51100000000E-03 0.  1.
    9900012    2    1    2    0    0  0.31036887555E+02  0.49599577007E+01 -0.53694875429E+01  0.59301937747E+02  0.49999988546E+02 0.  0.
         12    1    1    2    0    0 -0.31036887555E+02 -0.49599577007E+01  0.53694875429E+01  0.31886062253E+02  0.00000000000E+00 0. -1.
         11    1    3    3    0    0  0.11479591604E+02  0.13597668676E+01  0.15037962925E+01  0.11657246368E+02  0.51100000000E-03 0.  1.
        -11    1    3    3    0    0  0.43452174836E+01  0.76674478432E+00 -0.24093173958E+02  0.24493873604E+02  0.51100000000E-03 0. -1.
         12    1    3    3    0    0  0.15212078467E+02  0.28334460488E+01  0.17219890122E+02  0.23150817774E+02  0.00000000000E+00 0. -1.
</event>
<event>
 7    1  0.5832130E-012  0.5930226E+02  0.7816164E-02  0.1266604E+00
        -11   -1    0    0    0    0  0.00000000000E+00  0.00000000000E+00  0.45593999997E+02  0.45594000000E+02  0.51100000000E-03 0.  1.
         11   -1    0    0    0    0 -0.00000000000E+00 -0.00000000000E+00 -0.45593999997E+02  0.45594000000E+02  0.51100000000E-03 0. -1.
    9900012    2    1    2    0    0  0.88618082730E+01  0.10822546312E+02  0.28653822811E+02  0.59302255282E+02  0.50000567649E+02 0.  0.
         12    1    1    2    0    0 -0.88618082730E+01 -0.10822546312E+02 -0.28653822811E+02  0.31885744718E+02  0.00000000000E+00 0. -1.
         11    1    3    3    0    0 -0.74140711149E+01 -0.19503796068E-01 -0.28267875254E+01  0.79347059725E+01  0.51100000000E-03 0. -1.
        -11    1    3    3    0    0  0.73936063629E+01 -0.10273343147E+02  0.27980663451E+00  0.12660382556E+02  0.51100000000E-03 0.  1.
        -12    1    3    3    0    0  0.88822730250E+01  0.21115393254E+02  0.31200803702E+02  0.38707166753E+02  0.00000000000E+00 0.  1.
</event>
<event>
 7    1  0.5832130E-012  0.5930197E+02  0.7816164E-02  0.1266605E+00
        -11   -1    0    0    0    0  0.00000000000E+00  0.00000000000E+00  0.45593999997E+02  0.45594000000E+02  0.51100000000E-03 0.  1.
         11   -1    0    0    0    0 -0.00000000000E+00 -0.00000000000E+00 -0.45593999997E+02  0.45594000000E+02  0.51100000000E-03 0. -1.
    9900012    2    1    2    0    0  0.71426823127E+01  0.94733105155E+01  0.29596574906E+02  0.59301972199E+02  0.50000051377E+02 0.  0.
         12    1    1    2    0    0 -0.71426823127E+01 -0.94733105155E+01 -0.29596574906E+02  0.31886027801E+02  0.00000000000E+00 0. -1.
         11    1    3    3    0    0 -0.23509296775E+01 -0.45376632367E+01 -0.24740901333E+01  0.56778851915E+01  0.51100000000E-03 0. -1.
        -11    1    3    3    0    0  0.23114307508E+02  0.10988104214E+02  0.99258245640E+01  0.27450530766E+02  0.51100000000E-03 0.  1.
         12    1    3    3    0    0 -0.13620695518E+02  0.30228695385E+01  0.22144840476E+02  0.26173556242E+02  0.00000000000E+00 0. -1.
</event>
<event>
 7    1  0.5832130E-012  0.5930192E+02  0.7816164E-02  0.1266605E+00
        -11   -1    0    0    0    0  0.00000000000E+00  0.00000000000E+00  0.45593999997E+02  0.45594000000E+02  0.51100000000E-03 0.  1.
         11   -1    0    0    0    0 -0.00000000000E+00 -0.00000000000E+00 -0.45593999997E+02  0.45594000000E+02  0.51100000000E-03 0. -1.
    9900012    2    1    2    0    0 -0.28698604290E+02  0.13801314192E+02  0.16235536124E+01  0.59301920154E+02  0.49999956460E+02 0.  0.
         12    1    1    2    0    0  0.28698604290E+02 -0.13801314192E+02 -0.16235536124E+01  0.31886079846E+02  0.00000000000E+00 0. -1.
         11    1    3    3    0    0  0.77100582704E+01  0.14999765893E+02  0.23073756259E+01  0.17022395775E+02  0.51100000000E-03 0. -1.
        -11    1    3    3    0    0 -0.83571451273E+01 -0.85441145608E+00  0.92720123086E+01  0.12511678789E+02  0.51100000000E-03 0.  1.
        -12    1    3    3    0    0 -0.28051517433E+02 -0.34404024507E+00 -0.99558343221E+01  0.29767845590E+02  0.00000000000E+00 0.  1.
</event>
<event>
 7    1  0.5832130E-012  0.5930191E+02  0.7816164E-02  0.1266605E+00
        -11   -1    0    0    0    0  0.00000000000E+00  0.00000000000E+00  0.45593999997E+02  0.45594000000E+02  0.51100000000E-03 0.  1.
         11   -1    0    0    0    0 -0.00000000000E+00 -0.00000000000E+00 -0.45593999997E+02  0.45594000000E+02  0.51100000000E-03 0. -1.
    9900012    2    1    2    0    0  0.58976367879E+01 -0.26526968214E+02  0.16681152571E+02  0.59301905642E+02  0.49999929994E+02 0.  0.
         12    1    1    2    0    0 -0.58976367879E+01  0.26526968214E+02 -0.16681152571E+02  0.31886094358E+02  0.00000000000E+00 0. -1.
         11    1    3    3    0    0  0.71551152857E+00 -0.10598308874E+02  0.23198114750E+02  0.25514478947E+02  0.51100000000E-03 0. -1.
        -11    1    3    3    0    0  0.16464341504E+02 -0.86574077596E+01  0.56702113104E+00  0.18610393964E+02  0.51100000000E-03 0.  1.
         12    1    3    3    0    0 -0.11282216245E+02 -0.72712515808E+01 -0.70839833105E+01  0.15177032730E+02  0.00000000000E+00 0. -1.
</event>
<event>
 7    1  0.5832130E-012  0.5930195E+02  0.7816164E-02  0.1266605E+00
        -11   -1    0    0    0    0  0.00000000000E+00  0.00000000000E+00  0.45593999997E+02  0.45594000000E+02  0.51100000000E-03 0.  1.
         11   -1    0    0    0    0 -0.00000000000E+00 -0.00000000000E+00 -0.45593999997E+02  0.45594000000E+02  0.51100000000E-03 0. -1.
    9900012    2    1    2    0    0  0.26436740746E+02 -0.14718640637E+02 -0.10058865936E+02  0.59301946193E+02  0.50000003950E+02 0.  0.
         12    1    1    2    0    0 -0.26436740746E+02  0.14718640637E+02  0.10058865936E+02  0.31886053807E+02  0.00000000000E+00 0. -1.
         11    1    3    3    0    0  0.22764127024E+02 -0.12155404333E+02  0.33109785353E+01  0.26017723052E+02  0.51100000000E-03 0.  1.
        -11    1    3    3    0    0  0.15923301220E+02 -0.10910401958E+01 -0.13561176235E+02  0.20943910609E+02  0.51100000000E-03 0. -1.
        -12    1    3    3    0    0 -0.12250687499E+02 -0.14721961075E+01  0.19133176331E+00  0.12340312533E+02  0.00000000000E+00 0.  1.
</event>
<event>
 7    1  0.5832130E-012  0.5930201E+02  0.7816164E-02  0.1266605E+00
        -11   -1    0    0    0    0  0.00000000000E+00  0.00000000000E+00  0.45593999997E+02  0.45594000000E+02  0.51100000000E-03 0. -1.
         11   -1    0    0    0    0 -0.00000000000E+00 -0.00000000000E+00 -0.45593999997E+02  0.45594000000E+02  0.51100000000E-03 0.  1.
    9900012    2    1    2    0    0  0.93603841594E+00 -0.17190419878E+02 -0.26838958930E+02  0.59302009033E+02  0.50000118554E+02 0.  0.
         12    1    1    2    0    0 -0.93603841594E+00  0.17190419878E+02  0.26838958930E+02  0.31885990967E+02  0.00000000000E+00 0. -1.
         11    1    3    3    0    0 -0.61948189293E+01 -0.56378366698E+01 -0.23537774291E+02  0.24983750774E+02  0.51100000000E-03 0.  1.
        -11    1    3    3    0    0  0.47399377297E+01  0.97391710435E+01 -0.65348894953E+01  0.12650029378E+02  0.51100000000E-03 0. -1.
         12    1    3    3    0    0  0.23909196156E+01 -0.21291754252E+02  0.32337048568E+01  0.21668228881E+02  0.00000000000E+00 0. -1.
</event>
<event>
 7    1  0.5832130E-012  0.5930199E+02  0.7816164E-02  0.1266605E+00
        -11   -1    0    0    0    0  0.00000000000E+00  0.00000000000E+00  0.45593999997E+02  0.45594000000E+02  0.51100000000E-03 0.  1.
         11   -1    0    0    0    0 -0.00000000000E+00 -0.00000000000E+00 -0.45593999997E+02  0.45594000000E+02  0.51100000000E-03 0. -1.
    9900012    2    1    2    0    0  0.23127634115E+02 -0.46465001007E+01  0.21453204471E+02  0.59301993586E+02  0.50000090382E+02 0.  0.
         12    1    1    2    0    0 -0.23127634115E+02  0.46465001007E+01 -0.21453204471E+02  0.31886006414E+02  0.00000000000E+00 0. -1.
         11    1    3    3    0    0 -0.91019253435E+01 -0.87959944508E+01  0.58434840426E+01  0.13941336713E+02  0.51100000000E-03 0. -1.
        -11    1    3    3    0    0  0.10726193249E+02 -0.11058603156E+02  0.10189793337E+02  0.18470945127E+02  0.51100000000E-03 0.  1.
        -12    1    3    3    0    0  0.21503366209E+02  0.15208097506E+02  0.54199270914E+01  0.26889711746E+02  0.00000000000E+00 0.  1.
</event>
<event>
 7    1  0.5832130E-012  0.5930190E+02  0.7816164E-02  0.1266605E+00
        -11   -1    0    0    0    0  0.00000000000E+00  0.00000000000E+00  0.45593999997E+02  0.45594000000E+02  0.51100000000E-03 0. -1.
         11   -1    0    0    0    0 -0.00000000000E+00 -0.00000000000E+00 -0.45593999997E+02  0.45594000000E+02  0.51100000000E-03 0.  1.
    9900012    2    1    2    0    0 -0.30789263642E+02 -0.74608361981E+01 -0.36166642571E+01  0.59301904398E+02  0.49999927725E+02 0.  0.
         12    1    1    2    0    0  0.30789263642E+02  0.74608361981E+01  0.36166642571E+01  0.31886095602E+02  0.00000000000E+00 0. -1.
         11    1    3    3    0    0  0.14598532286E+01  0.10033119077E+02 -0.95664964927E+01  0.13939602049E+02  0.51100000000E-03 0. -1.
        -11    1    3    3    0    0 -0.53859422123E+00 -0.71587407986E+01 -0.65759083040E+01  0.97355135376E+01  0.51100000000E-03 0.  1.
        -12    1    3    3    0    0 -0.31710522649E+02 -0.10335214477E+02  0.12525740540E+02  0.35626788812E+02  0.00000000000E+00 0.  1.
</event>
<event>
 7    1  0.5832130E-012  0.5930196E+02  0.7816164E-02  0.1266605E+00
        -11   -1    0    0    0    0  0.00000000000E+00  0.00000000000E+00  0.45593999997E+02  0.45594000000E+02  0.51100000000E-03 0. -1.
         11   -1    0    0    0    0 -0.00000000000E+00 -0.00000000000E+00 -0.45593999997E+02  0.45594000000E+02  0.51100000000E-03 0.  1.
    9900012    2    1    2    0    0  0.57558721609E+01 -0.68113747576E+00 -0.31354837146E+02  0.59301955638E+02  0.50000021175E+02 0.  0.
         12    1    1    2    0    0 -0.57558721609E+01  0.68113747576E+00  0.31354837146E+02  0.31886044362E+02  0.00000000000E+00 0. -1.
         11    1    3    3    0    0 -0.63002528247E+01  0.14881884218E+01  0.90723917521E+01  0.11145231393E+02  0.51100000000E-03 0. -1.
        -11    1    3    3    0    0 -0.28477426249E+01 -0.51523004964E+01 -0.27740687227E+02  0.28358447887E+02  0.51100000000E-03 0.  1.
        -12    1    3    3    0    0  0.14903867611E+02  0.29829745989E+01 -0.12686541671E+02  0.19798276359E+02  0.00000000000E+00 0.  1.
</event>
<event>
 7    1  0.5832130E-012  0.5930193E+02  0.7816164E-02  0.1266605E+00
        -11   -1    0    0    0    0  0.00000000000E+00  0.00000000000E+00  0.45593999997E+02  0.45594000000E+02  0.51100000000E-03 0. -1.
         11   -1    0    0    0    0 -0.00000000000E+00 -0.00000000000E+00 -0.45593999997E+02  0.45594000000E+02  0.51100000000E-03 0.  1.
    9900012    2    1    2    0    0 -0.26355303890E+02 -0.47186963664E+01 -0.17316273780E+02  0.59301929747E+02  0.49999973956E+02 0.  0.
         12    1    1    2    0    0  0.26355303890E+02  0.47186963664E+01  0.17316273780E+02  0.31886070253E+02  0.00000000000E+00 0. -1.
         11    1    3    3    0    0 -0.22220318954E+02  0.90701362480E+01  0.78606590274E+01  0.25254700683E+02  0.51100000000E-03 0.  1.
        -11    1    3    3    0    0  0.41839178998E+01  0.22639439685E+01 -0.64737035100E+01  0.80336447943E+01  0.51100000000E-03 0. -1.
        -12    1    3    3    0    0 -0.83189028353E+01 -0.16052776583E+02 -0.18703229298E+02  0.26013584270E+02  0.00000000000E+00 0.  1.
</event>
<event>
 7    1  0.5832130E-012  0.5930194E+02  0.7816164E-02  0.1266605E+00
        -11   -1    0    0    0    0  0.00000000000E+00  0.00000000000E+00  0.45593999997E+02  0.45594000000E+02  0.51100000000E-03 0. -1.
         11   -1    0    0    0    0 -0.00000000000E+00 -0.00000000000E+00 -0.45593999997E+02  0.45594000000E+02  0.51100000000E-03 0.  1.
    9900012    2    1    2    0    0  0.20762816995E+02  0.17338907260E+02 -0.16881597313E+02  0.59301943449E+02  0.49999998944E+02 0.  0.
         12    1    1    2    0    0 -0.20762816995E+02 -0.17338907260E+02  0.16881597313E+02  0.31886056551E+02  0.00000000000E+00 0. -1.
         11    1    3    3    0    0 -0.59546219971E+01 -0.49798646280E+01  0.82680107935E+00  0.78064188414E+01  0.51100000000E-03 0. -1.
        -11    1    3    3    0    0  0.30983245699E+01  0.23939483194E+02 -0.12779396820E+02  0.27313210249E+02  0.51100000000E-03 0.  1.
        -12    1    3    3    0    0  0.23619114423E+02 -0.16207113062E+01 -0.49290015718E+01  0.24182314359E+02  0.00000000000E+00 0.  1.
</event>
<event>
 7    1  0.5832130E-012  0.5930197E+02  0.7816164E-02  0.1266605E+00
        -11   -1    0    0    0    0  0.00000000000E+00  0.00000000000E+00  0.45593999997E+02  0.45594000000E+02  0.51100000000E-03 0. -1.
         11   -1    0    0    0    0 -0.00000000000E+00 -0.00000000000E+00 -0.45593999997E+02  0.45594000000E+02  0.51100000000E-03 0.  1.
    9900012    2    1    2    0    0  0.16394367457E+02  0.22284165050E+02 -0.15854316299E+02  0.59301974196E+02  0.50000055019E+02 0.  0.
         12    1    1    2    0    0 -0.16394367457E+02 -0.22284165050E+02  0.15854316299E+02  0.31886025804E+02  0.00000000000E+00 0. -1.
         11    1    3    3    0    0  0.40315751250E+01  0.16969747630E+02  0.11773026600E+02  0.21043528416E+02  0.51100000000E-03 0. -1.
        -11    1    3    3    0    0  0.53502410349E+01 -0.55319138063E+01  0.71556183704E-01  0.76962503884E+01  0.51100000000E-03 0.  1.
        -12    1    3    3    0    0  0.70125512967E+01  0.10846331227E+02 -0.27698899083E+02  0.30562195392E+02  0.00000000000E+00 0.  1.
</event>
<event>
 7    1  0.5832130E-012  0.5930196E+02  0.7816164E-02  0.1266605E+00
        -11   -1    0    0    0    0  0.00000000000E+00  0.00000000000E+00  0.45593999997E+02  0.45594000000E+02  0.51100000000E-03 0.  1.
         11   -1    0    0    0    0 -0.00000000000E+00 -0.00000000000E+00 -0.45593999997E+02  0.45594000000E+02  0.51100000000E-03 0. -1.
    9900012    2    1    2    0    0 -0.17786871838E+02 -0.26006749484E+02  0.48985530996E+01  0.59301958368E+02  0.50000026153E+02 0.  0.
         12    1    1    2    0    0  0.17786871838E+02  0.26006749484E+02 -0.48985530996E+01  0.31886041632E+02  0.00000000000E+00 0. -1.
         11    1    3    3    0    0 -0.23541284886E+02  0.45049008108E+01  0.15020820802E+01  0.24015463273E+02  0.51100000000E-03 0. -1.
        -11    1    3    3    0    0 -0.48848366752E+01 -0.18008383436E+02  0.27101353308E+01  0.18854928722E+02  0.51100000000E-03 0.  1.
        -12    1    3    3    0    0  0.10639249723E+02 -0.12503266858E+02  0.68633568852E+00  0.16431566373E+02  0.00000000000E+00 0.  1.
</event>
<event>
 7    1  0.5832130E-012  0.5930191E+02  0.7816164E-02  0.1266605E+00
        -11   -1    0    0    0    0  0.00000000000E+00  0.00000000000E+00  0.45593999997E+02  0.45594000000E+02  0.51100000000E-03 0. -1.
         11   -1    0    0    0    0 -0.00000000000E+00 -0.00000000000E+00 -0.45593999997E+02  0.45594000000E+02  0.51100000000E-03 0.  1.
    9900012    2    1    2    0    0  0.31555339890E+02 -0.20099084139E-01 -0.45806771064E+01  0.59301913971E+02  0.49999945183E+02 0.  0.
         12    1    1    2    0    0 -0.31555339890E+02  0.20099084139E-01  0.45806771064E+01  0.31886086029E+02  0.00000000000E+00 0. -1.
         11    1    3    3    0    0  0.23929378405E+02 -0.28791565840E+01  0.16709435251E+02  0.29327630661E+02  0.51100000000E-03 0. -1.
        -11    1    3    3    0    0  0.11684481686E+02  0.61009452234E+00 -0.44687976716E+01  0.12524754707E+02  0.51100000000E-03 0.  1.
         12    1    3    3    0    0 -0.40585202014E+01  0.22489629775E+01 -0.16821314686E+02  0.17449528603E+02  0.00000000000E+00 0. -1.
</event>
<event>
 7    1  0.5832130E-012  0.5930195E+02  0.7816164E-02  0.1266605E+00
        -11   -1    0    0    0    0  0.00000000000E+00  0.00000000000E+00  0.45593999997E+02  0.45594000000E+02  0.51100000000E-03 0.  1.
         11   -1    0    0    0    0 -0.00000000000E+00 -0.00000000000E+00 -0.45593999997E+02  0.45594000000E+02  0.51100000000E-03 0. -1.
    9900012    2    1    2    0    0 -0.15906161934E+02 -0.78113136694E+01  0.26508445130E+02  0.59301948630E+02  0.50000008394E+02 0.  0.
         12    1    1    2    0    0  0.15906161934E+02  0.78113136694E+01 -0.26508445130E+02  0.31886051370E+02  0.00000000000E+00 0. -1.
         11    1    3    3    0    0  0.55812252796E+00  0.64413810195E+01  0.13265477709E+00  0.64668761968E+01  0.51100000000E-03 0. -1.
        -11    1    3    3    0    0 -0.46266026551E+00 -0.87530624199E+01 -0.96481962716E+01  0.13035254037E+02  0.51100000000E-03 0.  1.
        -12    1    3    3    0    0 -0.16001624197E+02 -0.54996322689E+01  0.36023986625E+02  0.39799818396E+02  0.00000000000E+00 0.  1.
</event>
<event>
 7    1  0.5832130E-012  0.5930195E+02  0.7816164E-02  0.1266605E+00
        -11   -1    0    0    0    0  0.00000000000E+00  0.00000000000E+00  0.45593999997E+02  0.45594000000E+02  0.51100000000E-03 0.  1.
         11   -1    0    0    0    0 -0.00000000000E+00 -0.00000000000E+00 -0.45593999997E+02  0.45594000000E+02  0.51100000000E-03 0. -1.
    9900012    2    1    2    0    0  0.12417902667E+02  0.15097240622E+02  0.25191055576E+02  0.59301948785E+02  0.50000008677E+02 0.  0.
         12    1    1    2    0    0 -0.12417902667E+02 -0.15097240622E+02 -0.25191055576E+02  0.31886051215E+02  0.00000000000E+00 0. -1.
         11    1    3    3    0    0 -0.24275739200E+01 -0.48102507410E+01 -0.51101252346E+00  0.54122787612E+01  0.51100000000E-03 0. -1.
        -11    1    3    3    0    0  0.57437279590E+00 -0.64199062512E+01 -0.70217500181E+01  0.95315305151E+01  0.51100000000E-03 0.  1.
        -12    1    3    3    0    0  0.14271103791E+02  0.26327397614E+02  0.32723818117E+02  0.44358139509E+02  0.00000000000E+00 0.  1.
</event>
<event>
 7    1  0.5832130E-012  0.5930174E+02  0.7816164E-02  0.1266605E+00
        -11   -1    0    0    0    0  0.00000000000E+00  0.00000000000E+00  0.45593999997E+02  0.45594000000E+02  0.51100000000E-03 0.  1.
         11   -1    0    0    0    0 -0.00000000000E+00 -0.00000000000E+00 -0.45593999997E+02  0.45594000000E+02  0.51100000000E-03 0. -1.
    9900012    2    1    2    0    0 -0.64595519930E+01 -0.28390942871E+02  0.12998536277E+02  0.59301742860E+02  0.49999633117E+02 0.  0.
         12    1    1    2    0    0  0.64595519930E+01  0.28390942871E+02 -0.12998536277E+02  0.31886257140E+02  0.00000000000E+00 0. -1.
         11    1    3    3    0    0 -0.33033559638E+01  0.88680331836E+01 -0.41112872563E+01  0.10317793191E+02  0.51100000000E-03 0. -1.
        -11    1    3    3    0    0 -0.47230224255E+01 -0.23713461878E+02 -0.33359151810E+01  0.24408267972E+02  0.51100000000E-03 0.  1.
        -12    1    3    3    0    0  0.15668263963E+01 -0.13545514177E+02  0.20445738714E+02  0.24575681697E+02  0.00000000000E+00 0.  1.
</event>
<event>
 7    1  0.5832130E-012  0.5930189E+02  0.7816164E-02  0.1266605E+00
        -11   -1    0    0    0    0  0.00000000000E+00  0.00000000000E+00  0.45593999997E+02  0.45594000000E+02  0.51100000000E-03 0. -1.
         11   -1    0    0    0    0 -0.00000000000E+00 -0.00000000000E+00 -0.45593999997E+02  0.45594000000E+02  0.51100000000E-03 0.  1.
    9900012    2    1    2    0    0 -0.90982238652E+01  0.93016057848E+01 -0.29110584818E+02  0.59301894937E+02  0.49999910470E+02 0.  0.
         12    1    1    2    0    0  0.90982238652E+01 -0.93016057848E+01  0.29110584818E+02  0.31886105063E+02  0.00000000000E+00 0. -1.
         11    1    3    3    0    0 -0.95355484027E+01  0.12871982121E+02  0.57100979343E+01  0.17006464234E+02  0.51100000000E-03 0. -1.
        -11    1    3    3    0    0  0.68457588434E+01 -0.64113283809E+01 -0.32046141492E+01  0.99115638451E+01  0.51100000000E-03 0.  1.
         12    1    3    3    0    0 -0.64084343059E+01  0.28409520451E+01 -0.31616068603E+02  0.32383866858E+02  0.00000000000E+00 0. -1.
</event>
<event>
 7    1  0.5832130E-012  0.5930194E+02  0.7816164E-02  0.1266605E+00
        -11   -1    0    0    0    0  0.00000000000E+00  0.00000000000E+00  0.45593999997E+02  0.45594000000E+02  0.51100000000E-03 0. -1.
         11   -1    0    0    0    0 -0.00000000000E+00 -0.00000000000E+00 -0.45593999997E+02  0.45594000000E+02  0.51100000000E-03 0.  1.
    9900012    2    1    2    0    0  0.14960379127E+02 -0.17221465066E+02 -0.22278447812E+02  0.59301936594E+02  0.49999986442E+02 0.  0.
         12    1    1    2    0    0 -0.14960379127E+02  0.17221465066E+02  0.22278447812E+02  0.31886063406E+02  0.00000000000E+00 0. -1.
         11    1    3    3    0    0 -0.23942063174E+01  0.78198897306E+01 -0.11520883852E+02  0.14128469991E+02  0.51100000000E-03 0. -1.
        -11    1    3    3    0    0  0.20720978838E+02 -0.25208318889E+01 -0.74519057637E+01  0.22164035219E+02  0.51100000000E-03 0.  1.
        -12    1    3    3    0    0 -0.33663933930E+01 -0.22520522908E+02 -0.33056581956E+01  0.23009431384E+02  0.00000000000E+00 0.  1.
</event>
<event>
 7    1  0.5832130E-012  0.5930194E+02  0.7816164E-02  0.1266605E+00
        -11   -1    0    0    0    0  0.00000000000E+00  0.00000000000E+00  0.45593999997E+02  0.45594000000E+02  0.51100000000E-03 0.  1.
         11   -1    0    0    0    0 -0.00000000000E+00 -0.00000000000E+00 -0.45593999997E+02  0.45594000000E+02  0.51100000000E-03 0. -1.
    9900012    2    1    2    0    0 -0.26780258551E+02 -0.25280848363E+01  0.17121548755E+02  0.59301938896E+02  0.49999990641E+02 0.  0.
         12    1    1    2    0    0  0.26780258551E+02  0.25280848363E+01 -0.17121548755E+02  0.31886061104E+02  0.00000000000E+00 0. -1.
         11    1    3    3    0    0 -0.15299791745E+01 -0.10218665097E+02 -0.15857644538E+01  0.10453544940E+02  0.51100000000E-03 0. -1.
        -11    1    3    3    0    0 -0.29686436714E+01  0.11529197265E+01 -0.10822969491E+02  0.11281787891E+02  0.51100000000E-03 0.  1.
        -12    1    3    3    0    0 -0.22281635705E+02  0.65376605343E+01  0.29530282700E+02  0.37566606065E+02  0.00000000000E+00 0.  1.
</event>
<event>
 7    1  0.5832130E-012  0.5930196E+02  0.7816164E-02  0.1266605E+00
        -11   -1    0    0    0    0  0.00000000000E+00  0.00000000000E+00  0.45593999997E+02  0.45594000000E+02  0.51100000000E-03 0.  1.
         11   -1    0    0    0    0 -0.00000000000E+00 -0.00000000000E+00 -0.45593999997E+02  0.45594000000E+02  0.51100000000E-03 0. -1.
    9900012    2    1    2    0    0 -0.12042004002E+02 -0.37383443432E+01  0.29287100142E+02  0.59301963659E+02  0.50000035803E+02 0.  0.
         12    1    1    2    0    0  0.12042004002E+02  0.37383443432E+01 -0.29287100142E+02  0.31886036341E+02  0.00000000000E+00 0. -1.
         11    1    3    3    0    0  0.22177971580E+01  0.45771887916E+01  0.18530328080E+01  0.54132256849E+01  0.51100000000E-03 0. -1.
        -11    1    3    3    0    0  0.11773868692E+02 -0.13177122262E+02  0.31353064915E+01  0.17946885026E+02  0.51100000000E-03 0.  1.
         12    1    3    3    0    0 -0.26033669852E+02  0.48615891273E+01  0.24298760843E+02  0.35941852948E+02  0.00000000000E+00 0. -1.
</event>
<event>
 7    1  0.5836959E-012  0.5930194E+02  0.7816164E-02  0.1266605E+00
        -11   -1    0    0    0    0  0.00000000000E+00  0.00000000000E+00  0.45593999997E+02  0.45594000000E+02  0.51100000000E-03 0. -1.
         11   -1    0    0    0    0 -0.00000000000E+00 -0.00000000000E+00 -0.45593999997E+02  0.45594000000E+02  0.51100000000E-03 0.  1.
    9900012    2    1    2    0    0  0.28842312110E+02 -0.13221247859E+02 -0.31686254315E+01  0.59301944271E+02  0.50000000444E+02 0.  0.
         12    1    1    2    0    0 -0.28842312110E+02  0.13221247859E+02  0.31686254315E+01  0.31886055729E+02  0.00000000000E+00 0. -1.
         11    1    3    3    0    0  0.12443071981E+02 -0.13735720717E+01  0.15555161019E+02  0.19966967099E+02  0.51100000000E-03 0. -1.
        -11    1    3    3    0    0  0.21741893974E+02 -0.44677120134E+01 -0.48223801603E+01  0.22713999094E+02  0.51100000000E-03 0.  1.
         12    1    3    3    0    0 -0.53426538442E+01 -0.73799637738E+01 -0.13901406290E+02  0.16620978077E+02  0.00000000000E+00 0. -1.
</event>
<event>
 7    1  0.5832130E-012  0.5930196E+02  0.7816164E-02  0.1266605E+00
        -11   -1    0    0    0    0  0.00000000000E+00  0.00000000000E+00  0.45593999997E+02  0.45594000000E+02  0.51100000000E-03 0.  1.
         11   -1    0    0    0    0 -0.00000000000E+00 -0.00000000000E+00 -0.45593999997E+02  0.45594000000E+02  0.51100000000E-03 0. -1.
    9900012    2    1    2    0    0 -0.12232776846E+02 -0.24164589915E+02  0.16827109582E+02  0.59301955215E+02  0.50000020403E+02 0.  0.
         12    1    1    2    0    0  0.12232776846E+02  0.24164589915E+02 -0.16827109582E+02  0.31886044785E+02  0.00000000000E+00 0. -1.
         11    1    3    3    0    0  0.12023862605E+02 -0.12105400325E+02  0.88234454022E+00  0.17084862338E+02  0.51100000000E-03 0. -1.
        -11    1    3    3    0    0  0.39984857520E+00 -0.13322225904E+02  0.10188149225E+01  0.13367107617E+02  0.51100000000E-03 0.  1.
        -12    1    3    3    0    0 -0.24656488026E+02  0.12630363145E+01  0.14925950120E+02  0.28849985260E+02  0.00000000000E+00 0.  1.
</event>
<event>
 7    1  0.5832130E-012  0.5930198E+02  0.7816164E-02  0.1266605E+00
        -11   -1    0    0    0    0  0.00000000000E+00  0.00000000000E+00  0.45593999997E+02  0.45594000000E+02  0.51100000000E-03 0. -1.
         11   -1    0    0    0    0 -0.00000000000E+00 -0.00000000000E+00 -0.45593999997E+02  0.45594000000E+02  0.51100000000E-03 0.  1.
    9900012    2    1    2    0    0  0.30038115578E+02  0.77830161129E+01 -0.73385454947E+01  0.59301984613E+02  0.50000074018E+02 0.  0.
         12    1    1    2    0    0 -0.30038115578E+02 -0.77830161129E+01  0.73385454947E+01  0.31886015387E+02  0.00000000000E+00 0. -1.
         11    1    3    3    0    0  0.14788274071E+02 -0.68894544841E+01  0.16038403954E+01  0.16392984395E+02  0.51100000000E-03 0. -1.
        -11    1    3    3    0    0 -0.42882077080E+01 -0.43277080738E+01 -0.13929121559E+02  0.15203230255E+02  0.51100000000E-03 0.  1.
         12    1    3    3    0    0  0.19538049214E+02  0.19000178671E+02  0.49867356692E+01  0.27705769963E+02  0.00000000000E+00 0. -1.
</event>
<event>
 7    1  0.5832130E-012  0.5930194E+02  0.7816164E-02  0.1266605E+00
        -11   -1    0    0    0    0  0.00000000000E+00  0.00000000000E+00  0.45593999997E+02  0.45594000000E+02  0.51100000000E-03 0.  1.
         11   -1    0    0    0    0 -0.00000000000E+00 -0.00000000000E+00 -0.45593999997E+02  0.45594000000E+02  0.51100000000E-03 0. -1.
    9900012    2    1    2    0    0  0.18940822721E+02  0.17366039439E+02 -0.18878202130E+02  0.59301943379E+02  0.49999998817E+02 0.  0.
         12    1    1    2    0    0 -0.18940822721E+02 -0.17366039439E+02  0.18878202130E+02  0.31886056621E+02  0.00000000000E+00 0. -1.
         11    1    3    3    0    0 -0.10686199807E+01 -0.11986451047E+01  0.79854739013E+00  0.17934260357E+01  0.51100000000E-03 0. -1.
        -11    1    3    3    0    0 -0.26669341452E+01 -0.54879841442E+01  0.10891659096E+02  0.12484340024E+02  0.51100000000E-03 0.  1.
         12    1    3    3    0    0  0.22676376847E+02  0.24052668688E+02 -0.30568408617E+02  0.45024177319E+02  0.00000000000E+00 0. -1.
</event>
<event>
 7    1  0.5832130E-012  0.5930197E+02  0.7816164E-02  0.1266605E+00
        -11   -1    0    0    0    0  0.00000000000E+00  0.00000000000E+00  0.45593999997E+02  0.45594000000E+02  0.51100000000E-03 0.  1.
         11   -1    0    0    0    0 -0.00000000000E+00 -0.00000000000E+00 -0.45593999997E+02  0.45594000000E+02  0.51100000000E-03 0. -1.
    9900012    2    1    2    0    0 -0.11739285795E+02  0.76007300185E+01  0.28655491918E+02  0.59301966304E+02  0.50000040626E+02 0.  0.
         12    1    1    2    0    0  0.11739285795E+02 -0.76007300185E+01 -0.28655491918E+02  0.31886033696E+02  0.00000000000E+00 0. -1.
         11    1    3    3    0    0  0.26554490476E+01  0.41809340973E+00  0.90596357616E+01  0.94500376792E+01  0.51100000000E-03 0. -1.
        -11    1    3    3    0    0 -0.13205219654E+01  0.14661412497E+02 -0.91968582632E+01  0.17357505491E+02  0.51100000000E-03 0.  1.
         12    1    3    3    0    0 -0.13074212877E+02 -0.74787758887E+01  0.28792714420E+02  0.32494423134E+02  0.00000000000E+00 0. -1.
</event>
<event>
 7    1  0.5832130E-012  0.5930193E+02  0.7816164E-02  0.1266605E+00
        -11   -1    0    0    0    0  0.00000000000E+00  0.00000000000E+00  0.45593999997E+02  0.45594000000E+02  0.51100000000E-03 0.  1.
         11   -1    0    0    0    0 -0.00000000000E+00 -0.00000000000E+00 -0.45593999997E+02  0.45594000000E+02  0.51100000000E-03 0. -1.
    9900012    2    1    2    0    0 -0.20493034915E+02 -0.24295213877E+02  0.25494561225E+01  0.59301927431E+02  0.49999969731E+02 0.  0.
         12    1    1    2    0    0  0.20493034915E+02  0.24295213877E+02 -0.25494561225E+01  0.31886072569E+02  0.00000000000E+00 0. -1.
         11    1    3    3    0    0 -0.97722707599E+01 -0.47104056976E+01 -0.73330084872E+01  0.13094205259E+02  0.51100000000E-03 0. -1.
        -11    1    3    3    0    0 -0.75172909749E+00  0.11993477009E+02  0.22707905724E+01  0.12229680187E+02  0.51100000000E-03 0.  1.
         12    1    3    3    0    0 -0.99690350575E+01 -0.31578285189E+02  0.76116740372E+01  0.33978041984E+02  0.00000000000E+00 0. -1.
</event>
<event>
 7    1  0.5832130E-012  0.5930195E+02  0.7816164E-02  0.1266605E+00
        -11   -1    0    0    0    0  0.00000000000E+00  0.00000000000E+00  0.45593999997E+02  0.45594000000E+02  0.51100000000E-03 0. -1.
         11   -1    0    0    0    0 -0.00000000000E+00 -0.00000000000E+00 -0.45593999997E+02  0.45594000000E+02  0.51100000000E-03 0.  1.
    9900012    2    1    2    0    0  0.83991716192E+01  0.30215609164E+02  0.57611916879E+01  0.59301945827E+02  0.50000003282E+02 0.  0.
         12    1    1    2    0    0 -0.83991716192E+01 -0.30215609164E+02 -0.57611916879E+01  0.31886054173E+02  0.00000000000E+00 0. -1.
         11    1    3    3    0    0  0.16906978854E+02  0.13381433405E+02 -0.42070187937E+01  0.21968334059E+02  0.51100000000E-03 0. -1.
        -11    1    3    3    0    0 -0.42129138275E+01  0.24963175392E+02  0.24078451302E+01  0.25430424436E+02  0.51100000000E-03 0.  1.
         12    1    3    3    0    0 -0.42948934071E+01 -0.81289996332E+01  0.75603653514E+01  0.11903187332E+02  0.00000000000E+00 0. -1.
</event>
<event>
 7    1  0.5832130E-012  0.5930196E+02  0.7816164E-02  0.1266605E+00
        -11   -1    0    0    0    0  0.00000000000E+00  0.00000000000E+00  0.45593999997E+02  0.45594000000E+02  0.51100000000E-03 0.  1.
         11   -1    0    0    0    0 -0.00000000000E+00 -0.00000000000E+00 -0.45593999997E+02  0.45594000000E+02  0.51100000000E-03 0. -1.
    9900012    2    1    2    0    0 -0.27861461915E+02  0.12497815857E+02  0.91795098393E+01  0.59301955057E+02  0.50000020114E+02 0.  0.
         12    1    1    2    0    0  0.27861461915E+02 -0.12497815857E+02 -0.91795098393E+01  0.31886044943E+02  0.00000000000E+00 0. -1.
         11    1    3    3    0    0  0.53580639248E+01 -0.47900876503E+01 -0.10259182047E+01  0.72599102710E+01  0.51100000000E-03 0. -1.
        -11    1    3    3    0    0 -0.28253886486E+02 -0.79406270739E+00 -0.39605767827E+01  0.28541177374E+02  0.51100000000E-03 0.  1.
         12    1    3    3    0    0 -0.49656393534E+01  0.18081966214E+02  0.14166004827E+02  0.23500867412E+02  0.00000000000E+00 0. -1.
</event>
<event>
 7    1  0.5832130E-012  0.5930183E+02  0.7816164E-02  0.1266605E+00
        -11   -1    0    0    0    0  0.00000000000E+00  0.00000000000E+00  0.45593999997E+02  0.45594000000E+02  0.51100000000E-03 0.  1.
         11   -1    0    0    0    0 -0.00000000000E+00 -0.00000000000E+00 -0.45593999997E+02  0.45594000000E+02  0.51100000000E-03 0. -1.
    9900012    2    1    2    0    0  0.17770196944E+01  0.30415672856E+02  0.94051615240E+01  0.59301827172E+02  0.49999786883E+02 0.  0.
         12    1    1    2    0    0 -0.17770196944E+01 -0.30415672856E+02 -0.94051615240E+01  0.31886172828E+02  0.00000000000E+00 0. -1.
         11    1    3    3    0    0  0.73413932453E+01 -0.61062868391E+01 -0.16604636070E+01  0.96922615212E+01  0.51100000000E-03 0. -1.
        -11    1    3    3    0    0  0.82736417579E+01 -0.83049958524E+00  0.18659746991E+00  0.83173130503E+01  0.51100000000E-03 0.  1.
        -12    1    3    3    0    0 -0.13838015309E+02  0.37352459281E+02  0.10879027661E+02  0.41292252601E+02  0.00000000000E+00 0.  1.
</event>
<event>
 7    1  0.5832130E-012  0.5930195E+02  0.7816164E-02  0.1266605E+00
        -11   -1    0    0    0    0  0.00000000000E+00  0.00000000000E+00  0.45593999997E+02  0.45594000000E+02  0.51100000000E-03 0.  1.
         11   -1    0    0    0    0 -0.00000000000E+00 -0.00000000000E+00 -0.45593999997E+02  0.45594000000E+02  0.51100000000E-03 0. -1.
    9900012    2    1    2    0    0 -0.27480343419E+02  0.11619875026E+02 -0.11248540724E+02  0.59301946019E+02  0.50000003632E+02 0.  0.
         12    1    1    2    0    0  0.27480343419E+02 -0.11619875026E+02  0.11248540724E+02  0.31886053981E+02  0.00000000000E+00 0. -1.
         11    1    3    3    0    0 -0.15297025019E+02 -0.59671424746E+01  0.12087818802E+02  0.20389240481E+02  0.51100000000E-03 0. -1.
        -11    1    3    3    0    0 -0.57623432972E+01  0.13453888167E+02 -0.29501138205E+00  0.14638945969E+02  0.51100000000E-03 0.  1.
         12    1    3    3    0    0 -0.64209751026E+01  0.41331293334E+01 -0.23041348144E+02  0.24273759569E+02  0.00000000000E+00 0. -1.
</event>
<event>
 7    1  0.5832130E-012  0.5930193E+02  0.7816164E-02  0.1266605E+00
        -11   -1    0    0    0    0  0.00000000000E+00  0.00000000000E+00  0.45593999997E+02  0.45594000000E+02  0.51100000000E-03 0.  1.
         11   -1    0    0    0    0 -0.00000000000E+00 -0.00000000000E+00 -0.45593999997E+02  0.45594000000E+02  0.51100000000E-03 0. -1.
    9900012    2    1    2    0    0  0.56642151046E+01  0.11418411797E+02  0.29227687944E+02  0.59301934027E+02  0.49999981760E+02 0.  0.
         12    1    1    2    0    0 -0.56642151046E+01 -0.11418411797E+02 -0.29227687944E+02  0.31886065973E+02  0.00000000000E+00 0. -1.
         11    1    3    3    0    0  0.94436036866E+01 -0.37443980713E+01 -0.44343641232E+01  0.11084482529E+02  0.51100000000E-03 0. -1.
        -11    1    3    3    0    0  0.11239136816E+02  0.76284821298E-01  0.44874286533E+01  0.12102108574E+02  0.51100000000E-03 0.  1.
        -12    1    3    3    0    0 -0.15018525398E+02  0.15086525047E+02  0.29174623414E+02  0.36115342923E+02  0.00000000000E+00 0.  1.
</event>
<event>
 7    1  0.5832130E-012  0.5930193E+02  0.7816164E-02  0.1266605E+00
        -11   -1    0    0    0    0  0.00000000000E+00  0.00000000000E+00  0.45593999997E+02  0.45594000000E+02  0.51100000000E-03 0.  1.
         11   -1    0    0    0    0 -0.00000000000E+00 -0.00000000000E+00 -0.45593999997E+02  0.45594000000E+02  0.51100000000E-03 0. -1.
    9900012    2    1    2    0    0  0.24248436302E+02 -0.16168663784E+02  0.12934803719E+02  0.59301929390E+02  0.49999973305E+02 0.  0.
         12    1    1    2    0    0 -0.24248436302E+02  0.16168663784E+02 -0.12934803719E+02  0.31886070610E+02  0.00000000000E+00 0. -1.
         11    1    3    3    0    0 -0.90105164688E+01 -0.10379238281E+02  0.55997617639E+01  0.14841675324E+02  0.51100000000E-03 0.  1.
        -11    1    3    3    0    0  0.20047113160E+02 -0.14263291999E+02 -0.42292973645E+01  0.24964278502E+02  0.51100000000E-03 0. -1.
        -12    1    3    3    0    0  0.13211839611E+02  0.84738664959E+01  0.11564339320E+02  0.19495975564E+02  0.00000000000E+00 0.  1.
</event>
<event>
 7    1  0.5832130E-012  0.5930192E+02  0.7816164E-02  0.1266605E+00
        -11   -1    0    0    0    0  0.00000000000E+00  0.00000000000E+00  0.45593999997E+02  0.45594000000E+02  0.51100000000E-03 0. -1.
         11   -1    0    0    0    0 -0.00000000000E+00 -0.00000000000E+00 -0.45593999997E+02  0.45594000000E+02  0.51100000000E-03 0.  1.
    9900012    2    1    2    0    0  0.83452713435E+01 -0.68916346560E+01 -0.29993060842E+02  0.59301923404E+02  0.49999962387E+02 0.  0.
         12    1    1    2    0    0 -0.83452713435E+01  0.68916346560E+01  0.29993060842E+02  0.31886076596E+02  0.00000000000E+00 0. -1.
         11    1    3    3    0    0 -0.52904026416E+01  0.10836838751E+02  0.65680840573E+01  0.13731903097E+02  0.51100000000E-03 0. -1.
        -11    1    3    3    0    0  0.51104355630E+01  0.19484512511E+01 -0.49833157861E+01  0.73990844302E+01  0.51100000000E-03 0.  1.
         12    1    3    3    0    0  0.85252384221E+01 -0.19676924658E+02 -0.31577829113E+02  0.38170935876E+02  0.00000000000E+00 0. -1.
</event>
<event>
 7    1  0.5832130E-012  0.5930195E+02  0.7816164E-02  0.1266605E+00
        -11   -1    0    0    0    0  0.00000000000E+00  0.00000000000E+00  0.45593999997E+02  0.45594000000E+02  0.51100000000E-03 0.  1.
         11   -1    0    0    0    0 -0.00000000000E+00 -0.00000000000E+00 -0.45593999997E+02  0.45594000000E+02  0.51100000000E-03 0. -1.
    9900012    2    1    2    0    0  0.18153815645E+02 -0.26213370045E+02  0.13582292222E+00  0.59301949140E+02  0.50000009324E+02 0.  0.
         12    1    1    2    0    0 -0.18153815645E+02  0.26213370045E+02 -0.13582292222E+00  0.31886050860E+02  0.00000000000E+00 0. -1.
         11    1    3    3    0    0 -0.11483358120E+02 -0.83472235170E+01  0.34075220853E+01  0.14599824012E+02  0.51100000000E-03 0. -1.
        -11    1    3    3    0    0 -0.11565270943E+01 -0.12408390051E+02  0.29712390085E+01  0.12811477670E+02  0.51100000000E-03 0.  1.
        -12    1    3    3    0    0  0.30793700859E+02 -0.54577564767E+01 -0.62429381716E+01  0.31890647459E+02  0.00000000000E+00 0.  1.
</event>
<event>
 7    1  0.5832130E-012  0.5930191E+02  0.7816164E-02  0.1266605E+00
        -11   -1    0    0    0    0  0.00000000000E+00  0.00000000000E+00  0.45593999997E+02  0.45594000000E+02  0.51100000000E-03 0.  1.
         11   -1    0    0    0    0 -0.00000000000E+00 -0.00000000000E+00 -0.45593999997E+02  0.45594000000E+02  0.51100000000E-03 0. -1.
    9900012    2    1    2    0    0  0.22744892028E+02 -0.47018197932E+01  0.21846865769E+02  0.59301909511E+02  0.49999937049E+02 0.  0.
         12    1    1    2    0    0 -0.22744892028E+02  0.47018197932E+01 -0.21846865769E+02  0.31886090489E+02  0.00000000000E+00 0. -1.
         11    1    3    3    0    0 -0.62714369825E-01  0.61761228815E+01  0.63353116891E+01  0.88478585770E+01  0.51100000000E-03 0. -1.
        -11    1    3    3    0    0  0.23927042929E+02  0.63686599000E+01 -0.32185922804E+01  0.24968431043E+02  0.51100000000E-03 0.  1.
        -12    1    3    3    0    0 -0.11194365305E+01 -0.17246602575E+02  0.18730146361E+02  0.25485619891E+02  0.00000000000E+00 0.  1.
</event>
<event>
 7    1  0.5832130E-012  0.5930194E+02  0.7816164E-02  0.1266605E+00
        -11   -1    0    0    0    0  0.00000000000E+00  0.00000000000E+00  0.45593999997E+02  0.45594000000E+02  0.51100000000E-03 0. -1.
         11   -1    0    0    0    0 -0.00000000000E+00 -0.00000000000E+00 -0.45593999997E+02  0.45594000000E+02  0.51100000000E-03 0.  1.
    9900012    2    1    2    0    0 -0.28831968232E+02 -0.97572915956E+01  0.94991554039E+01  0.59301935884E+02  0.49999985149E+02 0.  0.
         12    1    1    2    0    0  0.28831968232E+02  0.97572915956E+01 -0.94991554039E+01  0.31886064116E+02  0.00000000000E+00 0. -1.
         11    1    3    3    0    0 -0.42770343205E+01  0.14775775867E+02 -0.21373566831E+01  0.15530127781E+02  0.51100000000E-03 0. -1.
        -11    1    3    3    0    0  0.33068805401E+01 -0.93361333161E+01 -0.18109595419E+00  0.99061415399E+01  0.51100000000E-03 0.  1.
        -12    1    3    3    0    0 -0.27861814451E+02 -0.15196934146E+02  0.11817608041E+02  0.33865666563E+02  0.00000000000E+00 0.  1.
</event>
<event>
 7    1  0.5832130E-012  0.5930194E+02  0.7816164E-02  0.1266605E+00
        -11   -1    0    0    0    0  0.00000000000E+00  0.00000000000E+00  0.45593999997E+02  0.45594000000E+02  0.51100000000E-03 0. -1.
         11   -1    0    0    0    0 -0.00000000000E+00 -0.00000000000E+00 -0.45593999997E+02  0.45594000000E+02  0.51100000000E-03 0.  1.
    9900012    2    1    2    0    0  0.28251866875E+02 -0.73424575550E+01 -0.12831260727E+02  0.59301938520E+02  0.49999989954E+02 0.  0.
         12    1    1    2    0    0 -0.28251866875E+02  0.73424575550E+01  0.12831260727E+02  0.31886061480E+02  0.00000000000E+00 0. -1.
         11    1    3    3    0    0  0.17210052005E+02  0.11792414260E+02  0.43102937058E+01  0.21303181833E+02  0.51100000000E-03 0. -1.
        -11    1    3    3    0    0  0.17022937894E+02 -0.51680793497E+01 -0.13612604046E+02  0.22400724271E+02  0.51100000000E-03 0.  1.
         12    1    3    3    0    0 -0.59811230238E+01 -0.13966792466E+02 -0.35289503869E+01  0.15598032415E+02  0.00000000000E+00 0. -1.
</event>
<event>
 7    1  0.5832130E-012  0.5930198E+02  0.7816164E-02  0.1266605E+00
        -11   -1    0    0    0    0  0.00000000000E+00  0.00000000000E+00  0.45593999997E+02  0.45594000000E+02  0.51100000000E-03 0.  1.
         11   -1    0    0    0    0 -0.00000000000E+00 -0.00000000000E+00 -0.45593999997E+02  0.45594000000E+02  0.51100000000E-03 0. -1.
    9900012    2    1    2    0    0  0.15969070097E+02 -0.13197855623E+02 -0.24238893727E+02  0.59301975445E+02  0.50000057298E+02 0.  0.
         12    1    1    2    0    0 -0.15969070097E+02  0.13197855623E+02  0.24238893727E+02  0.31886024555E+02  0.00000000000E+00 0. -1.
         11    1    3    3    0    0  0.18186269263E+01 -0.17138805320E+01 -0.49550939202E+01  0.55495717307E+01  0.51100000000E-03 0. -1.
        -11    1    3    3    0    0  0.16680572970E+02 -0.23250677126E+02  0.26455589649E+01  0.28737336061E+02  0.51100000000E-03 0.  1.
         12    1    3    3    0    0 -0.25301297994E+01  0.11766702034E+02 -0.21929358771E+02  0.25015067653E+02  0.00000000000E+00 0. -1.
</event>
<event>
 7    1  0.5832130E-012  0.5930194E+02  0.7816164E-02  0.1266605E+00
        -11   -1    0    0    0    0  0.00000000000E+00  0.00000000000E+00  0.45593999997E+02  0.45594000000E+02  0.51100000000E-03 0. -1.
         11   -1    0    0    0    0 -0.00000000000E+00 -0.00000000000E+00 -0.45593999997E+02  0.45594000000E+02  0.51100000000E-03 0.  1.
    9900012    2    1    2    0    0  0.96749114468E+01 -0.30270916720E+02 -0.26054164003E+01  0.59301944973E+02  0.50000001724E+02 0.  0.
         12    1    1    2    0    0 -0.96749114468E+01  0.30270916720E+02  0.26054164003E+01  0.31886055027E+02  0.00000000000E+00 0. -1.
         11    1    3    3    0    0  0.17557442051E+02 -0.13637353834E+02 -0.62141184553E+01  0.23083683835E+02  0.51100000000E-03 0. -1.
        -11    1    3    3    0    0 -0.13875213455E+01 -0.21646251301E+02 -0.70136264641E+01  0.22796411281E+02  0.51100000000E-03 0.  1.
         12    1    3    3    0    0 -0.64950092585E+01  0.50126884151E+01  0.10622328519E+02  0.13421849857E+02  0.00000000000E+00 0. -1.
</event>
<event>
 7    1  0.5832130E-012  0.5930208E+02  0.7816164E-02  0.1266604E+00
        -11   -1    0    0    0    0  0.00000000000E+00  0.00000000000E+00  0.45593999997E+02  0.45594000000E+02  0.51100000000E-03 0. -1.
         11   -1    0    0    0    0 -0.00000000000E+00 -0.00000000000E+00 -0.45593999997E+02  0.45594000000E+02  0.51100000000E-03 0.  1.
    9900012    2    1    2    0    0  0.85458810085E+01 -0.30524158732E+02  0.34576892311E+01  0.59302078917E+02  0.50000246004E+02 0.  0.
         12    1    1    2    0    0 -0.85458810085E+01  0.30524158732E+02 -0.34576892311E+01  0.31885921083E+02  0.00000000000E+00 0. -1.
         11    1    3    3    0    0  0.11322065930E+02 -0.13820170657E+02  0.30193137312E+01  0.18119121104E+02  0.51100000000E-03 0. -1.
        -11    1    3    3    0    0  0.42835271881E+01 -0.18246022986E+02 -0.15085877526E+02  0.24059294690E+02  0.51100000000E-03 0.  1.
         12    1    3    3    0    0 -0.70597121097E+01  0.15420349108E+01  0.15524253026E+02  0.17123663123E+02  0.00000000000E+00 0. -1.
</event>
<event>
 7    1  0.5832130E-012  0.5930211E+02  0.7816164E-02  0.1266604E+00
        -11   -1    0    0    0    0  0.00000000000E+00  0.00000000000E+00  0.45593999997E+02  0.45594000000E+02  0.51100000000E-03 0.  1.
         11   -1    0    0    0    0 -0.00000000000E+00 -0.00000000000E+00 -0.45593999997E+02  0.45594000000E+02  0.51100000000E-03 0. -1.
    9900012    2    1    2    0    0 -0.91419012315E+01 -0.20237268948E+02  0.22882055025E+02  0.59302111981E+02  0.50000306305E+02 0.  0.
         12    1    1    2    0    0  0.91419012315E+01  0.20237268948E+02 -0.22882055025E+02  0.31885888019E+02  0.00000000000E+00 0. -1.
         11    1    3    3    0    0 -0.10948009479E+02 -0.71852049666E+01  0.17683540397E+02  0.22004401450E+02  0.51100000000E-03 0. -1.
        -11    1    3    3    0    0 -0.93192972622E+01  0.44919279367E+01 -0.76541797750E+01  0.12869078690E+02  0.51100000000E-03 0.  1.
         12    1    3    3    0    0  0.11125405510E+02 -0.17543991918E+02  0.12852694403E+02  0.24428631840E+02  0.00000000000E+00 0. -1.
</event>
<event>
 7    1  0.5832130E-012  0.5930197E+02  0.7816164E-02  0.1266605E+00
        -11   -1    0    0    0    0  0.00000000000E+00  0.00000000000E+00  0.45593999997E+02  0.45594000000E+02  0.51100000000E-03 0.  1.
         11   -1    0    0    0    0 -0.00000000000E+00 -0.00000000000E+00 -0.45593999997E+02  0.45594000000E+02  0.51100000000E-03 0. -1.
    9900012    2    1    2    0    0  0.16808073697E+02  0.10004216338E+02  0.25181800093E+02  0.59301972624E+02  0.50000052152E+02 0.  0.
         12    1    1    2    0    0 -0.16808073697E+02 -0.10004216338E+02 -0.25181800093E+02  0.31886027376E+02  0.00000000000E+00 0. -1.
         11    1    3    3    0    0 -0.60255137236E+01  0.64248432753E+01 -0.55953826795E-01  0.88084367420E+01  0.51100000000E-03 0. -1.
        -11    1    3    3    0    0 -0.58914756698E+01 -0.10210333889E+02  0.54627067628E+01  0.12992365802E+02  0.51100000000E-03 0.  1.
         12    1    3    3    0    0  0.28725063090E+02  0.13789706951E+02  0.19775047157E+02  0.37501170080E+02  0.00000000000E+00 0. -1.
</event>
<event>
 7    1  0.5832130E-012  0.5930193E+02  0.7816164E-02  0.1266605E+00
        -11   -1    0    0    0    0  0.00000000000E+00  0.00000000000E+00  0.45593999997E+02  0.45594000000E+02  0.51100000000E-03 0.  1.
         11   -1    0    0    0    0 -0.00000000000E+00 -0.00000000000E+00 -0.45593999997E+02  0.45594000000E+02  0.51100000000E-03 0. -1.
    9900012    2    1    2    0    0 -0.15718313444E+02 -0.27419088186E+02 -0.42248537801E+01  0.59301934643E+02  0.49999982884E+02 0.  0.
         12    1    1    2    0    0  0.15718313444E+02  0.27419088186E+02  0.42248537801E+01  0.31886065357E+02  0.00000000000E+00 0. -1.
         11    1    3    3    0    0 -0.11080887147E+02 -0.14188572406E+02 -0.71576889719E+01  0.19373542747E+02  0.51100000000E-03 0. -1.
        -11    1    3    3    0    0 -0.19423643852E+02 -0.76075874933E+01  0.93463892265E+01  0.22858440887E+02  0.51100000000E-03 0.  1.
        -12    1    3    3    0    0  0.14786217555E+02 -0.56229282867E+01 -0.64135540347E+01  0.17069951009E+02  0.00000000000E+00 0.  1.
</event>
<event>
 7    1  0.5832130E-012  0.5930198E+02  0.7816164E-02  0.1266605E+00
        -11   -1    0    0    0    0  0.00000000000E+00  0.00000000000E+00  0.45593999997E+02  0.45594000000E+02  0.51100000000E-03 0. -1.
         11   -1    0    0    0    0 -0.00000000000E+00 -0.00000000000E+00 -0.45593999997E+02  0.45594000000E+02  0.51100000000E-03 0.  1.
    9900012    2    1    2    0    0 -0.17027029409E+02 -0.25925001158E+02 -0.73954643891E+01  0.59301979409E+02  0.50000064528E+02 0.  0.
         12    1    1    2    0    0  0.17027029409E+02  0.25925001158E+02  0.73954643891E+01  0.31886020591E+02  0.00000000000E+00 0. -1.
         11    1    3    3    0    0  0.90661413803E+01 -0.18912285130E+02 -0.17159205154E+01  0.21043142157E+02  0.51100000000E-03 0. -1.
        -11    1    3    3    0    0 -0.30438228633E+00 -0.93424731739E+01 -0.79427846786E+01  0.12266306791E+02  0.51100000000E-03 0.  1.
         12    1    3    3    0    0 -0.25788788503E+02  0.23297571458E+01  0.22632408048E+01  0.25992530461E+02  0.00000000000E+00 0. -1.
</event>
<event>
 7    1  0.5832130E-012  0.5930191E+02  0.7816164E-02  0.1266605E+00
        -11   -1    0    0    0    0  0.00000000000E+00  0.00000000000E+00  0.45593999997E+02  0.45594000000E+02  0.51100000000E-03 0.  1.
         11   -1    0    0    0    0 -0.00000000000E+00 -0.00000000000E+00 -0.45593999997E+02  0.45594000000E+02  0.51100000000E-03 0. -1.
    9900012    2    1    2    0    0  0.35212268382E+01  0.22699174823E+02 -0.22114955119E+02  0.59301908738E+02  0.49999935639E+02 0.  0.
         12    1    1    2    0    0 -0.35212268382E+01 -0.22699174823E+02  0.22114955119E+02  0.31886091262E+02  0.00000000000E+00 0. -1.
         11    1    3    3    0    0 -0.66740068421E+01 -0.67810328497E+01  0.45385072527E+01  0.10541481024E+02  0.51100000000E-03 0. -1.
        -11    1    3    3    0    0 -0.82869702726E+01  0.14128673430E+02 -0.14303741819E+02  0.21746041467E+02  0.51100000000E-03 0.  1.
         12    1    3    3    0    0  0.18482203953E+02  0.15351534243E+02 -0.12349720553E+02  0.27014386247E+02  0.00000000000E+00 0. -1.
</event>
<event>
 7    1  0.5832130E-012  0.5930190E+02  0.7816164E-02  0.1266605E+00
        -11   -1    0    0    0    0  0.00000000000E+00  0.00000000000E+00  0.45593999997E+02  0.45594000000E+02  0.51100000000E-03 0.  1.
         11   -1    0    0    0    0 -0.00000000000E+00 -0.00000000000E+00 -0.45593999997E+02  0.45594000000E+02  0.51100000000E-03 0. -1.
    9900012    2    1    2    0    0 -0.25934511774E+02  0.17118518740E+02 -0.71470924839E+01  0.59301897765E+02  0.49999915627E+02 0.  0.
         12    1    1    2    0    0  0.25934511774E+02 -0.17118518740E+02  0.71470924839E+01  0.31886102235E+02  0.00000000000E+00 0. -1.
         11    1    3    3    0    0 -0.15870249776E+02  0.17274401514E+02  0.14187867990E+02  0.27414692666E+02  0.51100000000E-03 0.  1.
        -11    1    3    3    0    0 -0.79783292273E+01 -0.12976813349E+01  0.20842585171E+01  0.83475653896E+01  0.51100000000E-03 0. -1.
         12    1    3    3    0    0 -0.20859327708E+01  0.11417985605E+01 -0.23419218991E+02  0.23539639709E+02  0.00000000000E+00 0. -1.
</event>
<event>
 7    1  0.5832130E-012  0.5930194E+02  0.7816164E-02  0.1266605E+00
        -11   -1    0    0    0    0  0.00000000000E+00  0.00000000000E+00  0.45593999997E+02  0.45594000000E+02  0.51100000000E-03 0.  1.
         11   -1    0    0    0    0 -0.00000000000E+00 -0.00000000000E+00 -0.45593999997E+02  0.45594000000E+02  0.51100000000E-03 0. -1.
    9900012    2    1    2    0    0  0.20095070607E+02 -0.88924634791E+01  0.23104830099E+02  0.59301938102E+02  0.49999989193E+02 0.  0.
         12    1    1    2    0    0 -0.20095070607E+02  0.88924634791E+01 -0.23104830099E+02  0.31886061898E+02  0.00000000000E+00 0. -1.
         11    1    3    3    0    0 -0.74476965335E+01 -0.12086907213E+02 -0.10215980430E+01  0.14233944374E+02  0.51100000000E-03 0. -1.
        -11    1    3    3    0    0 -0.12766949701E+01  0.23764121989E+01  0.14384870432E+02  0.14635634000E+02  0.51100000000E-03 0.  1.
        -12    1    3    3    0    0  0.28819462111E+02  0.81803153508E+00  0.97415577106E+01  0.30432359728E+02  0.00000000000E+00 0.  1.
</event>
<event>
 7    1  0.5832130E-012  0.5930195E+02  0.7816164E-02  0.1266605E+00
        -11   -1    0    0    0    0  0.00000000000E+00  0.00000000000E+00  0.45593999997E+02  0.45594000000E+02  0.51100000000E-03 0.  1.
         11   -1    0    0    0    0 -0.00000000000E+00 -0.00000000000E+00 -0.45593999997E+02  0.45594000000E+02  0.51100000000E-03 0. -1.
    9900012    2    1    2    0    0  0.24778773096E+02 -0.14093289716E+02  0.14286779437E+02  0.59301945402E+02  0.50000002506E+02 0.  0.
         12    1    1    2    0    0 -0.24778773096E+02  0.14093289716E+02 -0.14286779437E+02  0.31886054598E+02  0.00000000000E+00 0. -1.
         11    1    3    3    0    0 -0.34001993433E+01  0.18663697130E+01 -0.11183352880E+02  0.11836894584E+02  0.51100000000E-03 0. -1.
        -11    1    3    3    0    0 -0.41606352691E+01 -0.19615196003E+01  0.14687570146E+01  0.48286325615E+01  0.51100000000E-03 0.  1.
         12    1    3    3    0    0  0.32339607708E+02 -0.13998139829E+02  0.24001375303E+02  0.42636418257E+02  0.00000000000E+00 0. -1.
</event>
<event>
 7    1  0.5832130E-012  0.5930195E+02  0.7816164E-02  0.1266605E+00
        -11   -1    0    0    0    0  0.00000000000E+00  0.00000000000E+00  0.45593999997E+02  0.45594000000E+02  0.51100000000E-03 0.  1.
         11   -1    0    0    0    0 -0.00000000000E+00 -0.00000000000E+00 -0.45593999997E+02  0.45594000000E+02  0.51100000000E-03 0. -1.
    9900012    2    1    2    0    0 -0.43436105922E+01  0.12866615090E+02  0.28849667701E+02  0.59301951902E+02  0.50000014361E+02 0.  0.
         12    1    1    2    0    0  0.43436105922E+01 -0.12866615090E+02 -0.28849667701E+02  0.31886048098E+02  0.00000000000E+00 0. -1.
         11    1    3    3    0    0 -0.69547400267E+01  0.15686594926E+02 -0.51856271644E+01  0.17925635234E+02  0.51100000000E-03 0. -1.
        -11    1    3    3    0    0 -0.98267615332E+01  0.17896209743E+01  0.11548930206E+02  0.15269111782E+02  0.51100000000E-03 0.  1.
        -12    1    3    3    0    0  0.12437890968E+02 -0.46096008104E+01  0.22486364659E+02  0.26107204886E+02  0.00000000000E+00 0.  1.
</event>
<event>
 7    1  0.5832130E-012  0.5930196E+02  0.7816164E-02  0.1266605E+00
        -11   -1    0    0    0    0  0.00000000000E+00  0.00000000000E+00  0.45593999997E+02  0.45594000000E+02  0.51100000000E-03 0.  1.
         11   -1    0    0    0    0 -0.00000000000E+00 -0.00000000000E+00 -0.45593999997E+02  0.45594000000E+02  0.51100000000E-03 0. -1.
    9900012    2    1    2    0    0  0.62437673924E+01 -0.19268224854E+02  0.24626619668E+02  0.59301960475E+02  0.50000029997E+02 0.  0.
         12    1    1    2    0    0 -0.62437673924E+01  0.19268224854E+02 -0.24626619668E+02  0.31886039525E+02  0.00000000000E+00 0. -1.
         11    1    3    3    0    0  0.62601407992E+01  0.51173307908E+01 -0.45215780902E+01  0.92639681527E+01  0.51100000000E-03 0. -1.
        -11    1    3    3    0    0 -0.93436393936E+01 -0.11639962995E+02 -0.20533417830E+01  0.15066802858E+02  0.51100000000E-03 0.  1.
         12    1    3    3    0    0  0.93272659868E+01 -0.12745592650E+02  0.31201539541E+02  0.34971189464E+02  0.00000000000E+00 0. -1.
</event>
<event>
 7    1  0.5832130E-012  0.5930201E+02  0.7816164E-02  0.1266605E+00
        -11   -1    0    0    0    0  0.00000000000E+00  0.00000000000E+00  0.45593999997E+02  0.45594000000E+02  0.51100000000E-03 0.  1.
         11   -1    0    0    0    0 -0.00000000000E+00 -0.00000000000E+00 -0.45593999997E+02  0.45594000000E+02  0.51100000000E-03 0. -1.
    9900012    2    1    2    0    0  0.83881732929E+01  0.30236891286E+02  0.56643872790E+01  0.59302010458E+02  0.50000121153E+02 0.  0.
         12    1    1    2    0    0 -0.83881732929E+01 -0.30236891286E+02 -0.56643872790E+01  0.31885989542E+02  0.00000000000E+00 0. -1.
         11    1    3    3    0    0  0.24252071460E+02  0.13530434994E+02  0.77353851628E+01  0.28828316377E+02  0.51100000000E-03 0. -1.
        -11    1    3    3    0    0 -0.11032120643E+02  0.19872079012E+02 -0.59755966558E+01  0.23501382210E+02  0.51100000000E-03 0.  1.
        -12    1    3    3    0    0 -0.48317775242E+01 -0.31656227210E+01  0.39045987720E+01  0.69723118709E+01  0.00000000000E+00 0.  1.
</event>
<event>
 7    1  0.5832130E-012  0.5930194E+02  0.7816164E-02  0.1266605E+00
        -11   -1    0    0    0    0  0.00000000000E+00  0.00000000000E+00  0.45593999997E+02  0.45594000000E+02  0.51100000000E-03 0.  1.
         11   -1    0    0    0    0 -0.00000000000E+00 -0.00000000000E+00 -0.45593999997E+02  0.45594000000E+02  0.51100000000E-03 0. -1.
    9900012    2    1    2    0    0 -0.27185198798E+02 -0.16663869001E+02  0.38979359670E-01  0.59301935910E+02  0.49999985196E+02 0.  0.
         12    1    1    2    0    0  0.27185198798E+02  0.16663869001E+02 -0.38979359670E-01  0.31886064090E+02  0.00000000000E+00 0. -1.
         11    1    3    3    0    0  0.56174872127E+01 -0.10193507180E+02  0.43159777257E+00  0.11646889203E+02  0.51100000000E-03 0.  1.
        -11    1    3    3    0    0  0.56925181533E+01  0.22098409476E+01  0.49140607854E+01  0.78381218161E+01  0.51100000000E-03 0. -1.
        -12    1    3    3    0    0 -0.38495204164E+02 -0.86802027686E+01 -0.53066791983E+01  0.39816924891E+02  0.00000000000E+00 0.  1.
</event>
<event>
 7    1  0.5832130E-012  0.5930195E+02  0.7816164E-02  0.1266605E+00
        -11   -1    0    0    0    0  0.00000000000E+00  0.00000000000E+00  0.45593999997E+02  0.45594000000E+02  0.51100000000E-03 0.  1.
         11   -1    0    0    0    0 -0.00000000000E+00 -0.00000000000E+00 -0.45593999997E+02  0.45594000000E+02  0.51100000000E-03 0. -1.
    9900012    2    1    2    0    0  0.35661268798E+01  0.29727628073E+02 -0.10966824749E+02  0.59301946985E+02  0.50000005394E+02 0.  0.
         12    1    1    2    0    0 -0.35661268798E+01 -0.29727628073E+02  0.10966824749E+02  0.31886053015E+02  0.00000000000E+00 0. -1.
         11    1    3    3    0    0  0.10206758288E+02  0.10755979271E+02 -0.20627178398E+02  0.25403729919E+02  0.51100000000E-03 0. -1.
        -11    1    3    3    0    0  0.76059119283E-01 -0.63185942883E+01  0.21495405459E+01  0.66746493234E+01  0.51100000000E-03 0.  1.
         12    1    3    3    0    0 -0.67166905278E+01  0.25290243090E+02  0.75108131035E+01  0.27223567743E+02  0.00000000000E+00 0. -1.
</event>
<event>
 7    1  0.5832130E-012  0.5930195E+02  0.7816164E-02  0.1266605E+00
        -11   -1    0    0    0    0  0.00000000000E+00  0.00000000000E+00  0.45593999997E+02  0.45594000000E+02  0.51100000000E-03 0. -1.
         11   -1    0    0    0    0 -0.00000000000E+00 -0.00000000000E+00 -0.45593999997E+02  0.45594000000E+02  0.51100000000E-03 0.  1.
    9900012    2    1    2    0    0 -0.56488284115E-01 -0.29303911258E+02  0.12569725980E+02  0.59301946353E+02  0.50000004241E+02 0.  0.
         12    1    1    2    0    0  0.56488284115E-01  0.29303911258E+02 -0.12569725980E+02  0.31886053647E+02  0.00000000000E+00 0. -1.
         11    1    3    3    0    0 -0.11907887684E+02 -0.52015648151E+01 -0.44602394401E+01  0.13738551661E+02  0.51100000000E-03 0. -1.
        -11    1    3    3    0    0 -0.57541804600E+01 -0.23641931293E+02  0.71073838851E+01  0.25348893743E+02  0.51100000000E-03 0.  1.
         12    1    3    3    0    0  0.17605579860E+02 -0.46041514964E+00  0.99225815351E+01  0.20214500949E+02  0.00000000000E+00 0. -1.
</event>
<event>
 7    1  0.5832130E-012  0.5930195E+02  0.7816164E-02  0.1266605E+00
        -11   -1    0    0    0    0  0.00000000000E+00  0.00000000000E+00  0.45593999997E+02  0.45594000000E+02  0.51100000000E-03 0.  1.
         11   -1    0    0    0    0 -0.00000000000E+00 -0.00000000000E+00 -0.45593999997E+02  0.45594000000E+02  0.51100000000E-03 0. -1.
    9900012    2    1    2    0    0  0.90413551410E+01  0.76160969189E+01  0.29613669475E+02  0.59301945763E+02  0.50000003164E+02 0.  0.
         12    1    1    2    0    0 -0.90413551410E+01 -0.76160969189E+01 -0.29613669475E+02  0.31886054237E+02  0.00000000000E+00 0. -1.
         11    1    3    3    0    0  0.33889381901E+01 -0.18593349679E+01  0.15868313447E+02  0.16332342162E+02  0.51100000000E-03 0.  1.
        -11    1    3    3    0    0  0.24647464995E+00  0.22648892035E+02 -0.73326518594E+00  0.22662099158E+02  0.51100000000E-03 0. -1.
         12    1    3    3    0    0  0.54059423009E+01 -0.13173460148E+02  0.14478621214E+02  0.20307504443E+02  0.00000000000E+00 0. -1.
</event>
<event>
 7    1  0.5832130E-012  0.5930192E+02  0.7816164E-02  0.1266605E+00
        -11   -1    0    0    0    0  0.00000000000E+00  0.00000000000E+00  0.45593999997E+02  0.45594000000E+02  0.51100000000E-03 0.  1.
         11   -1    0    0    0    0 -0.00000000000E+00 -0.00000000000E+00 -0.45593999997E+02  0.45594000000E+02  0.51100000000E-03 0. -1.
    9900012    2    1    2    0    0  0.74463121880E+01 -0.27457142622E+02  0.14400695311E+02  0.59301917274E+02  0.49999951207E+02 0.  0.
         12    1    1    2    0    0 -0.74463121880E+01  0.27457142622E+02 -0.14400695311E+02  0.31886082726E+02  0.00000000000E+00 0. -1.
         11    1    3    3    0    0 -0.46342891577E+01 -0.32722412126E+02 -0.42148857289E-01  0.33048973784E+02  0.51100000000E-03 0. -1.
        -11    1    3    3    0    0 -0.44904840758E+00  0.74524092297E+00 -0.36688391956E+01  0.37705980706E+01  0.51100000000E-03 0.  1.
        -12    1    3    3    0    0  0.12529649753E+02  0.45200285808E+01  0.18111683364E+02  0.22482345420E+02  0.00000000000E+00 0.  1.
</event>
<event>
 7    1  0.5832130E-012  0.5930175E+02  0.7816164E-02  0.1266605E+00
        -11   -1    0    0    0    0  0.00000000000E+00  0.00000000000E+00  0.45593999997E+02  0.45594000000E+02  0.51100000000E-03 0. -1.
         11   -1    0    0    0    0 -0.00000000000E+00 -0.00000000000E+00 -0.45593999997E+02  0.45594000000E+02  0.51100000000E-03 0.  1.
    9900012    2    1    2    0    0 -0.19057580879E+01  0.12236961242E+02 -0.29382954921E+02  0.59301746313E+02  0.49999639414E+02 0.  0.
         12    1    1    2    0    0  0.19057580879E+01 -0.12236961242E+02  0.29382954921E+02  0.31886253687E+02  0.00000000000E+00 0. -1.
         11    1    3    3    0    0  0.86378820936E+01  0.71915333466E+01 -0.11660982854E+02  0.16195977288E+02  0.51100000000E-03 0. -1.
        -11    1    3    3    0    0 -0.69447123290E+01 -0.15861965174E+02 -0.12206643995E+02  0.21185682108E+02  0.51100000000E-03 0.  1.
        -12    1    3    3    0    0 -0.35989278524E+01  0.20907393070E+02 -0.55153280723E+01  0.21920086916E+02  0.00000000000E+00 0.  1.
</event>
<event>
 7    1  0.5832130E-012  0.5930200E+02  0.7816164E-02  0.1266605E+00
        -11   -1    0    0    0    0  0.00000000000E+00  0.00000000000E+00  0.45593999997E+02  0.45594000000E+02  0.51100000000E-03 0.  1.
         11   -1    0    0    0    0 -0.00000000000E+00 -0.00000000000E+00 -0.45593999997E+02  0.45594000000E+02  0.51100000000E-03 0. -1.
    9900012    2    1    2    0    0  0.90013444926E+01 -0.17040921544E+02  0.25402756876E+02  0.59301995756E+02  0.50000094340E+02 0.  0.
         12    1    1    2    0    0 -0.90013444926E+01  0.17040921544E+02 -0.25402756876E+02  0.31886004244E+02  0.00000000000E+00 0. -1.
         11    1    3    3    0    0  0.13680799316E+02  0.61452363750E+01  0.52058346969E+00  0.15006638779E+02  0.51100000000E-03 0. -1.
        -11    1    3    3    0    0 -0.29660093364E+01 -0.16839237765E+01  0.22313378414E+02  0.22572542328E+02  0.51100000000E-03 0.  1.
         12    1    3    3    0    0 -0.17134454869E+01 -0.21502234143E+02  0.25687949930E+01  0.21722814649E+02  0.00000000000E+00 0. -1.
</event>
<event>
 7    1  0.5832130E-012  0.5930197E+02  0.7816164E-02  0.1266605E+00
        -11   -1    0    0    0    0  0.00000000000E+00  0.00000000000E+00  0.45593999997E+02  0.45594000000E+02  0.51100000000E-03 0. -1.
         11   -1    0    0    0    0 -0.00000000000E+00 -0.00000000000E+00 -0.45593999997E+02  0.45594000000E+02  0.51100000000E-03 0.  1.
    9900012    2    1    2    0    0  0.14006274587E+02  0.80584752591E+01 -0.27488252672E+02  0.59301971927E+02  0.50000050881E+02 0.  0.
         12    1    1    2    0    0 -0.14006274587E+02 -0.80584752591E+01  0.27488252672E+02  0.31886028073E+02  0.00000000000E+00 0. -1.
         11    1    3    3    0    0  0.67347241677E+01  0.21342328491E+02 -0.16470716414E+02  0.27787335146E+02  0.51100000000E-03 0. -1.
        -11    1    3    3    0    0  0.14745388282E+02 -0.18432682996E+01 -0.97877512172E+01  0.17793936826E+02  0.51100000000E-03 0.  1.
         12    1    3    3    0    0 -0.74738378626E+01 -0.11440584933E+02 -0.12297850413E+01  0.13720699955E+02  0.00000000000E+00 0. -1.
</event>
<event>
 7    1  0.5832130E-012  0.5930194E+02  0.7816164E-02  0.1266605E+00
        -11   -1    0    0    0    0  0.00000000000E+00  0.00000000000E+00  0.45593999997E+02  0.45594000000E+02  0.51100000000E-03 0. -1.
         11   -1    0    0    0    0 -0.00000000000E+00 -0.00000000000E+00 -0.45593999997E+02  0.45594000000E+02  0.51100000000E-03 0.  1.
    9900012    2    1    2    0    0 -0.21511843150E+02 -0.19114333107E+01 -0.23458645075E+02  0.59301937187E+02  0.49999987524E+02 0.  0.
         12    1    1    2    0    0  0.21511843150E+02  0.19114333107E+01  0.23458645075E+02  0.31886062813E+02  0.00000000000E+00 0. -1.
         11    1    3    3    0    0  0.31342359580E+01  0.10397424070E+02 -0.97420066337E+00  0.10903161446E+02  0.51100000000E-03 0. -1.
        -11    1    3    3    0    0 -0.92817187438E+01 -0.10326582835E+02  0.66549481285E+01  0.15397303359E+02  0.51100000000E-03 0.  1.
         12    1    3    3    0    0 -0.15364360364E+02 -0.19822745457E+01 -0.29139392540E+02  0.33001472382E+02  0.00000000000E+00 0. -1.
</event>
<event>
 7    1  0.5832130E-012  0.5930197E+02  0.7816164E-02  0.1266605E+00
        -11   -1    0    0    0    0  0.00000000000E+00  0.00000000000E+00  0.45593999997E+02  0.45594000000E+02  0.51100000000E-03 0. -1.
         11   -1    0    0    0    0 -0.00000000000E+00 -0.00000000000E+00 -0.45593999997E+02  0.45594000000E+02  0.51100000000E-03 0.  1.
    9900012    2    1    2    0    0 -0.18179792564E+02 -0.26107502371E+02 -0.21477088155E+01  0.59301965582E+02  0.50000039310E+02 0.  0.
         12    1    1    2    0    0  0.18179792564E+02  0.26107502371E+02  0.21477088155E+01  0.31886034418E+02  0.00000000000E+00 0. -1.
         11    1    3    3    0    0  0.81105602108E+01 -0.93351550558E+01  0.45195928945E+01  0.13166359673E+02  0.51100000000E-03 0. -1.
        -11    1    3    3    0    0 -0.13507422388E+02 -0.11349350172E+02  0.13103103229E+02  0.21976112563E+02  0.51100000000E-03 0.  1.
         12    1    3    3    0    0 -0.12782930386E+02 -0.54229971439E+01 -0.19770404939E+02  0.24159493346E+02  0.00000000000E+00 0. -1.
</event>
<event>
 7    1  0.5832130E-012  0.5930195E+02  0.7816164E-02  0.1266605E+00
        -11   -1    0    0    0    0  0.00000000000E+00  0.00000000000E+00  0.45593999997E+02  0.45594000000E+02  0.51100000000E-03 0. -1.
         11   -1    0    0    0    0 -0.00000000000E+00 -0.00000000000E+00 -0.45593999997E+02  0.45594000000E+02  0.51100000000E-03 0.  1.
    9900012    2    1    2    0    0 -0.10418178512E+02 -0.26388972136E+02  0.14553479448E+02  0.59301951986E+02  0.50000014514E+02 0.  0.
         12    1    1    2    0    0  0.10418178512E+02  0.26388972136E+02 -0.14553479448E+02  0.31886048014E+02  0.00000000000E+00 0. -1.
         11    1    3    3    0    0 -0.22469236979E+02  0.96044166552E+00  0.44008668237E+01  0.22916297425E+02  0.51100000000E-03 0.  1.
        -11    1    3    3    0    0  0.18503683946E+01 -0.13807400583E+01  0.80857616713E+01  0.84089148152E+01  0.51100000000E-03 0. -1.
        -12    1    3    3    0    0  0.10200690072E+02 -0.25968673743E+02  0.20668509526E+01  0.27976739746E+02  0.00000000000E+00 0.  1.
</event>
<event>
 7    1  0.5832130E-012  0.5930195E+02  0.7816164E-02  0.1266605E+00
        -11   -1    0    0    0    0  0.00000000000E+00  0.00000000000E+00  0.45593999997E+02  0.45594000000E+02  0.51100000000E-03 0.  1.
         11   -1    0    0    0    0 -0.00000000000E+00 -0.00000000000E+00 -0.45593999997E+02  0.45594000000E+02  0.51100000000E-03 0. -1.
    9900012    2    1    2    0    0  0.73893377146E+01 -0.30068031285E+02  0.76178439086E+01  0.59301947202E+02  0.50000005789E+02 0.  0.
         12    1    1    2    0    0 -0.73893377146E+01  0.30068031285E+02 -0.76178439086E+01  0.31886052798E+02  0.00000000000E+00 0. -1.
         11    1    3    3    0    0  0.26449655620E+01 -0.40820846885E+01 -0.11932423808E+02  0.12885728401E+02  0.51100000000E-03 0. -1.
        -11    1    3    3    0    0  0.13722384977E+02 -0.26918053903E+00  0.16540633731E+01  0.13824334832E+02  0.51100000000E-03 0.  1.
        -12    1    3    3    0    0 -0.89780128249E+01 -0.25716766058E+02  0.17896204344E+02  0.32591883969E+02  0.00000000000E+00 0.  1.
</event>
<event>
 7    1  0.5832130E-012  0.5930192E+02  0.7816164E-02  0.1266605E+00
        -11   -1    0    0    0    0  0.00000000000E+00  0.00000000000E+00  0.45593999997E+02  0.45594000000E+02  0.51100000000E-03 0. -1.
         11   -1    0    0    0    0 -0.00000000000E+00 -0.00000000000E+00 -0.45593999997E+02  0.45594000000E+02  0.51100000000E-03 0.  1.
    9900012    2    1    2    0    0 -0.52456883903E+01 -0.14991435061E+02 -0.27648898517E+02  0.59301922143E+02  0.49999960087E+02 0.  0.
         12    1    1    2    0    0  0.52456883903E+01  0.14991435061E+02  0.27648898517E+02  0.31886077857E+02  0.00000000000E+00 0. -1.
         11    1    3    3    0    0  0.17071653412E+02  0.36552480734E+01 -0.11266004434E+02  0.20777994245E+02  0.51100000000E-03 0. -1.
        -11    1    3    3    0    0  0.48123369799E+00 -0.31133739553E+00 -0.80958524084E+01  0.81161162711E+01  0.51100000000E-03 0.  1.
         12    1    3    3    0    0 -0.22798575500E+02 -0.18335345739E+02 -0.82870416752E+01  0.30407811627E+02  0.00000000000E+00 0. -1.
</event>
<event>
 7    1  0.5832130E-012  0.5930197E+02  0.7816164E-02  0.1266605E+00
        -11   -1    0    0    0    0  0.00000000000E+00  0.00000000000E+00  0.45593999997E+02  0.45594000000E+02  0.51100000000E-03 0.  1.
         11   -1    0    0    0    0 -0.00000000000E+00 -0.00000000000E+00 -0.45593999997E+02  0.45594000000E+02  0.51100000000E-03 0. -1.
    9900012    2    1    2    0    0 -0.25491802569E+02 -0.18363296052E+02 -0.54475641972E+01  0.59301974914E+02  0.50000056329E+02 0.  0.
         12    1    1    2    0    0  0.25491802569E+02  0.18363296052E+02  0.54475641972E+01  0.31886025086E+02  0.00000000000E+00 0. -1.
         11    1    3    3    0    0 -0.28688544916E+02 -0.11654089714E+02 -0.15949418060E+02  0.34831513794E+02  0.51100000000E-03 0. -1.
        -11    1    3    3    0    0 -0.63606126933E+01  0.35917656002E+00  0.10845620846E+02  0.12578310436E+02  0.51100000000E-03 0.  1.
        -12    1    3    3    0    0  0.95573550401E+01 -0.70683828976E+01 -0.34376698260E+00  0.11892150684E+02  0.00000000000E+00 0.  1.
</event>
<event>
 7    1  0.5832130E-012  0.5930197E+02  0.7816164E-02  0.1266605E+00
        -11   -1    0    0    0    0  0.00000000000E+00  0.00000000000E+00  0.45593999997E+02  0.45594000000E+02  0.51100000000E-03 0.  1.
         11   -1    0    0    0    0 -0.00000000000E+00 -0.00000000000E+00 -0.45593999997E+02  0.45594000000E+02  0.51100000000E-03 0. -1.
    9900012    2    1    2    0    0  0.19703285466E+02  0.11503768687E+02  0.22274710550E+02  0.59301970422E+02  0.50000048137E+02 0.  0.
         12    1    1    2    0    0 -0.19703285466E+02 -0.11503768687E+02 -0.22274710550E+02  0.31886029578E+02  0.00000000000E+00 0. -1.
         11    1    3    3    0    0  0.15656146728E+02 -0.21207893392E+01  0.98573673873E+01  0.18622039895E+02  0.51100000000E-03 0. -1.
        -11    1    3    3    0    0  0.19378587222E+02  0.10277707016E+02  0.24083945045E+01  0.22067198929E+02  0.51100000000E-03 0.  1.
         12    1    3    3    0    0 -0.15331448483E+02  0.33468510102E+01  0.10008948658E+02  0.18612731598E+02  0.00000000000E+00 0. -1.
</event>
<event>
 7    1  0.5832130E-012  0.5930194E+02  0.7816164E-02  0.1266605E+00
        -11   -1    0    0    0    0  0.00000000000E+00  0.00000000000E+00  0.45593999997E+02  0.45594000000E+02  0.51100000000E-03 0. -1.
         11   -1    0    0    0    0 -0.00000000000E+00 -0.00000000000E+00 -0.45593999997E+02  0.45594000000E+02  0.51100000000E-03 0.  1.
    9900012    2    1    2    0    0 -0.13383253208E+02 -0.22435469226E+02 -0.18282755330E+02  0.59301938966E+02  0.49999990769E+02 0.  0.
         12    1    1    2    0    0  0.13383253208E+02  0.22435469226E+02  0.18282755330E+02  0.31886061034E+02  0.00000000000E+00 0. -1.
         11    1    3    3    0    0 -0.19725247798E+01 -0.62653630193E+01 -0.12219860197E+02  0.13873377788E+02  0.51100000000E-03 0. -1.
        -11    1    3    3    0    0 -0.21654059653E+02 -0.23156472906E+02 -0.84308248214E+01  0.32805477353E+02  0.51100000000E-03 0.  1.
         12    1    3    3    0    0  0.10243331225E+02  0.69863666995E+01  0.23679296877E+01  0.12623083825E+02  0.00000000000E+00 0. -1.
</event>
<event>
 7    1  0.5832130E-012  0.5930192E+02  0.7816164E-02  0.1266605E+00
        -11   -1    0    0    0    0  0.00000000000E+00  0.00000000000E+00  0.45593999997E+02  0.45594000000E+02  0.51100000000E-03 0. -1.
         11   -1    0    0    0    0 -0.00000000000E+00 -0.00000000000E+00 -0.45593999997E+02  0.45594000000E+02  0.51100000000E-03 0.  1.
    9900012    2    1    2    0    0 -0.30307264690E+02 -0.32420152978E+01  0.93638204298E+01  0.59301920134E+02  0.49999956423E+02 0.  0.
         12    1    1    2    0    0  0.30307264690E+02  0.32420152978E+01 -0.93638204298E+01  0.31886079866E+02  0.00000000000E+00 0. -1.
         11    1    3    3    0    0  0.32437778961E+01 -0.11857513394E+01 -0.94207437685E+00  0.35798890585E+01  0.51100000000E-03 0. -1.
        -11    1    3    3    0    0 -0.24896076816E+02  0.18742485892E+02  0.53591290001E+00  0.31167011745E+02  0.51100000000E-03 0.  1.
         12    1    3    3    0    0 -0.86549657707E+01 -0.20798749851E+02  0.97699819067E+01  0.24555019330E+02  0.00000000000E+00 0. -1.
</event>
<event>
 7    1  0.5832130E-012  0.5930196E+02  0.7816164E-02  0.1266605E+00
        -11   -1    0    0    0    0  0.00000000000E+00  0.00000000000E+00  0.45593999997E+02  0.45594000000E+02  0.51100000000E-03 0. -1.
         11   -1    0    0    0    0 -0.00000000000E+00 -0.00000000000E+00 -0.45593999997E+02  0.45594000000E+02  0.51100000000E-03 0.  1.
    9900012    2    1    2    0    0  0.18501637548E+02 -0.24740889164E+02 -0.78928635567E+01  0.59301960990E+02  0.50000030936E+02 0.  0.
         12    1    1    2    0    0 -0.18501637548E+02  0.24740889164E+02  0.78928635567E+01  0.31886039010E+02  0.00000000000E+00 0. -1.
         11    1    3    3    0    0 -0.45434126572E+01 -0.13496421726E+02 -0.18301286090E+02  0.23189072228E+02  0.51100000000E-03 0. -1.
        -11    1    3    3    0    0  0.15200480455E+02  0.53345302361E+01  0.33096725899E+01  0.16445842995E+02  0.51100000000E-03 0.  1.
         12    1    3    3    0    0  0.78445697502E+01 -0.16578997674E+02  0.70987499436E+01  0.19667045767E+02  0.00000000000E+00 0. -1.
</event>
<event>
 7    1  0.5832130E-012  0.5930196E+02  0.7816164E-02  0.1266605E+00
        -11   -1    0    0    0    0  0.00000000000E+00  0.00000000000E+00  0.45593999997E+02  0.45594000000E+02  0.51100000000E-03 0.  1.
         11   -1    0    0    0    0 -0.00000000000E+00 -0.00000000000E+00 -0.45593999997E+02  0.45594000000E+02  0.51100000000E-03 0. -1.
    9900012    2    1    2    0    0 -0.24826485929E+02 -0.47488904444E+01  0.19437413333E+02  0.59301962285E+02  0.50000033298E+02 0.  0.
         12    1    1    2    0    0  0.24826485929E+02  0.47488904444E+01 -0.19437413333E+02  0.31886037715E+02  0.00000000000E+00 0. -1.
         11    1    3    3    0    0 -0.49314779149E+01 -0.45362164215E+01 -0.64494850529E+01  0.93001393299E+01  0.51100000000E-03 0. -1.
        -11    1    3    3    0    0 -0.11902256513E+02 -0.62096562633E+01 -0.73432191824E+01  0.15301843328E+02  0.51100000000E-03 0.  1.
        -12    1    3    3    0    0 -0.79927515015E+01  0.59969822404E+01  0.33230117568E+02  0.34699979628E+02  0.00000000000E+00 0.  1.
</event>
<event>
 7    1  0.5832130E-012  0.5930199E+02  0.7816164E-02  0.1266605E+00
        -11   -1    0    0    0    0  0.00000000000E+00  0.00000000000E+00  0.45593999997E+02  0.45594000000E+02  0.51100000000E-03 0.  1.
         11   -1    0    0    0    0 -0.00000000000E+00 -0.00000000000E+00 -0.45593999997E+02  0.45594000000E+02  0.51100000000E-03 0. -1.
    9900012    2    1    2    0    0  0.26921401784E+02  0.16229688721E+02  0.53435233048E+01  0.59301985648E+02  0.50000075905E+02 0.  0.
         12    1    1    2    0    0 -0.26921401784E+02 -0.16229688721E+02 -0.53435233048E+01  0.31886014352E+02  0.00000000000E+00 0. -1.
         11    1    3    3    0    0 -0.65402513748E+01 -0.22309415342E+01 -0.65201969206E+01  0.95007871421E+01  0.51100000000E-03 0. -1.
        -11    1    3    3    0    0  0.41668649799E+01 -0.48473966815E+01  0.10558299830E+02  0.12342516515E+02  0.51100000000E-03 0.  1.
         12    1    3    3    0    0  0.29294788178E+02  0.23308026937E+02  0.13054203953E+01  0.37458681991E+02  0.00000000000E+00 0. -1.
</event>
<event>
 7    1  0.5832130E-012  0.5930194E+02  0.7816164E-02  0.1266605E+00
        -11   -1    0    0    0    0  0.00000000000E+00  0.00000000000E+00  0.45593999997E+02  0.45594000000E+02  0.51100000000E-03 0. -1.
         11   -1    0    0    0    0 -0.00000000000E+00 -0.00000000000E+00 -0.45593999997E+02  0.45594000000E+02  0.51100000000E-03 0.  1.
    9900012    2    1    2    0    0 -0.30963251883E+02 -0.58245099869E+01 -0.49064354886E+01  0.59301937325E+02  0.49999987775E+02 0.  0.
         12    1    1    2    0    0  0.30963251883E+02  0.58245099869E+01  0.49064354886E+01  0.31886062675E+02  0.00000000000E+00 0. -1.
         11    1    3    3    0    0 -0.15193560834E+01 -0.25741246897E+01  0.17486435963E+02  0.17740067750E+02  0.51100000000E-03 0. -1.
        -11    1    3    3    0    0 -0.93323110110E+01  0.23152374057E+01  0.16179270113E+01  0.97503867167E+01  0.51100000000E-03 0.  1.
         12    1    3    3    0    0 -0.20111584788E+02 -0.55656227029E+01 -0.24010798463E+02  0.31811482858E+02  0.00000000000E+00 0. -1.
</event>
<event>
 7    1  0.5832130E-012  0.5930194E+02  0.7816164E-02  0.1266605E+00
        -11   -1    0    0    0    0  0.00000000000E+00  0.00000000000E+00  0.45593999997E+02  0.45594000000E+02  0.51100000000E-03 0. -1.
         11   -1    0    0    0    0 -0.00000000000E+00 -0.00000000000E+00 -0.45593999997E+02  0.45594000000E+02  0.51100000000E-03 0.  1.
    9900012    2    1    2    0    0 -0.26331080406E+02  0.14209164209E+02 -0.11022456727E+02  0.59301941994E+02  0.49999996291E+02 0.  0.
         12    1    1    2    0    0  0.26331080406E+02 -0.14209164209E+02  0.11022456727E+02  0.31886058006E+02  0.00000000000E+00 0. -1.
         11    1    3    3    0    0 -0.15227781671E+02 -0.52887645503E+00 -0.19951778613E+02  0.25104551679E+02  0.51100000000E-03 0. -1.
        -11    1    3    3    0    0 -0.25271303941E+01 -0.58233891617E+01 -0.48617484860E+01  0.79959269606E+01  0.51100000000E-03 0.  1.
         12    1    3    3    0    0 -0.85761683410E+01  0.20561429826E+02  0.13791070372E+02  0.26201463354E+02  0.00000000000E+00 0. -1.
</event>
<event>
 7    1  0.5832130E-012  0.5930197E+02  0.7816164E-02  0.1266605E+00
        -11   -1    0    0    0    0  0.00000000000E+00  0.00000000000E+00  0.45593999997E+02  0.45594000000E+02  0.51100000000E-03 0.  1.
         11   -1    0    0    0    0 -0.00000000000E+00 -0.00000000000E+00 -0.45593999997E+02  0.45594000000E+02  0.51100000000E-03 0. -1.
    9900012    2    1    2    0    0  0.20825447955E+02 -0.11081786931E+02  0.21452595740E+02  0.59301966253E+02  0.50000040533E+02 0.  0.
         12    1    1    2    0    0 -0.20825447955E+02  0.11081786931E+02 -0.21452595740E+02  0.31886033747E+02  0.00000000000E+00 0. -1.
         11    1    3    3    0    0  0.26383949373E+02 -0.94398308333E+01  0.38239324578E+01  0.28281542574E+02  0.51100000000E-03 0. -1.
        -11    1    3    3    0    0 -0.84414631038E+00 -0.10696264766E+02  0.17831039329E+02  0.20810300976E+02  0.51100000000E-03 0.  1.
         12    1    3    3    0    0 -0.47143551073E+01  0.90543086680E+01 -0.20237604603E+00  0.10210122702E+02  0.00000000000E+00 0. -1.
</event>
<event>
 7    1  0.5832130E-012  0.5930194E+02  0.7816164E-02  0.1266605E+00
        -11   -1    0    0    0    0  0.00000000000E+00  0.00000000000E+00  0.45593999997E+02  0.45594000000E+02  0.51100000000E-03 0. -1.
         11   -1    0    0    0    0 -0.00000000000E+00 -0.00000000000E+00 -0.45593999997E+02  0.45594000000E+02  0.51100000000E-03 0.  1.
    9900012    2    1    2    0    0 -0.60336361395E+01 -0.21183829610E+02 -0.23055609282E+02  0.59301944719E+02  0.50000001260E+02 0.  0.
         12    1    1    2    0    0  0.60336361395E+01  0.21183829610E+02  0.23055609282E+02  0.31886055281E+02  0.00000000000E+00 0. -1.
         11    1    3    3    0    0 -0.72459695135E+01 -0.27893267067E+01  0.45049075526E+01  0.89765589168E+01  0.51100000000E-03 0. -1.
        -11    1    3    3    0    0 -0.14526453581E+02 -0.20666954696E+02 -0.11608072064E+02  0.27800867025E+02  0.51100000000E-03 0.  1.
        -12    1    3    3    0    0  0.15738786955E+02  0.22724517921E+01 -0.15952444771E+02  0.22524518777E+02  0.00000000000E+00 0.  1.
</event>
<event>
 7    1  0.5832130E-012  0.5930194E+02  0.7816164E-02  0.1266605E+00
        -11   -1    0    0    0    0  0.00000000000E+00  0.00000000000E+00  0.45593999997E+02  0.45594000000E+02  0.51100000000E-03 0.  1.
         11   -1    0    0    0    0 -0.00000000000E+00 -0.00000000000E+00 -0.45593999997E+02  0.45594000000E+02  0.51100000000E-03 0. -1.
    9900012    2    1    2    0    0  0.14119798902E+02  0.12961013943E+02  0.25482629287E+02  0.59301937232E+02  0.49999987607E+02 0.  0.
         12    1    1    2    0    0 -0.14119798902E+02 -0.12961013943E+02 -0.25482629287E+02  0.31886062768E+02  0.00000000000E+00 0. -1.
         11    1    3    3    0    0  0.93251145823E+01  0.79954854012E+01  0.50925744417E+01  0.13297363027E+02  0.51100000000E-03 0.  1.
        -11    1    3    3    0    0  0.21335250318E+02 -0.39430285944E+01  0.65291245503E+01  0.22657666435E+02  0.51100000000E-03 0. -1.
        -12    1    3    3    0    0 -0.16540565998E+02  0.89085571360E+01  0.13860930295E+02  0.23346907770E+02  0.00000000000E+00 0.  1.
</event>
<event>
 7    1  0.5832130E-012  0.5930198E+02  0.7816164E-02  0.1266605E+00
        -11   -1    0    0    0    0  0.00000000000E+00  0.00000000000E+00  0.45593999997E+02  0.45594000000E+02  0.51100000000E-03 0. -1.
         11   -1    0    0    0    0 -0.00000000000E+00 -0.00000000000E+00 -0.45593999997E+02  0.45594000000E+02  0.51100000000E-03 0.  1.
    9900012    2    1    2    0    0  0.11805947679E+02  0.29608591739E+02  0.81806772895E+00  0.59301978922E+02  0.50000063639E+02 0.  0.
         12    1    1    2    0    0 -0.11805947679E+02 -0.29608591739E+02 -0.81806772895E+00  0.31886021078E+02  0.00000000000E+00 0. -1.
         11    1    3    3    0    0  0.53178451146E+01  0.21208666414E+02  0.17311930122E+02  0.27888885466E+02  0.51100000000E-03 0. -1.
        -11    1    3    3    0    0 -0.19618456091E+01  0.10495422379E+02  0.21002471291E+01  0.10881809012E+02  0.51100000000E-03 0.  1.
         12    1    3    3    0    0  0.84499481732E+01 -0.20954970535E+01 -0.18594109522E+02  0.20531284444E+02  0.00000000000E+00 0. -1.
</event>
<event>
 7    1  0.5832130E-012  0.5930194E+02  0.7816164E-02  0.1266605E+00
        -11   -1    0    0    0    0  0.00000000000E+00  0.00000000000E+00  0.45593999997E+02  0.45594000000E+02  0.51100000000E-03 0. -1.
         11   -1    0    0    0    0 -0.00000000000E+00 -0.00000000000E+00 -0.45593999997E+02  0.45594000000E+02  0.51100000000E-03 0.  1.
    9900012    2    1    2    0    0  0.22775701766E+02 -0.22244213498E+02  0.17840661959E+01  0.59301944783E+02  0.50000001378E+02 0.  0.
         12    1    1    2    0    0 -0.22775701766E+02  0.22244213498E+02 -0.17840661959E+01  0.31886055217E+02  0.00000000000E+00 0. -1.
         11    1    3    3    0    0 -0.45817633822E+01 -0.12880473575E+01  0.26091851411E+01  0.54276577865E+01  0.51100000000E-03 0. -1.
        -11    1    3    3    0    0  0.21828085710E+02 -0.25218435860E+02 -0.16132595639E+02  0.37049905200E+02  0.51100000000E-03 0.  1.
         12    1    3    3    0    0  0.55293794380E+01  0.42622697193E+01  0.15307476694E+02  0.16824381797E+02  0.00000000000E+00 0. -1.
</event>
<event>
 7    1  0.5832130E-012  0.5930193E+02  0.7816164E-02  0.1266605E+00
        -11   -1    0    0    0    0  0.00000000000E+00  0.00000000000E+00  0.45593999997E+02  0.45594000000E+02  0.51100000000E-03 0. -1.
         11   -1    0    0    0    0 -0.00000000000E+00 -0.00000000000E+00 -0.45593999997E+02  0.45594000000E+02  0.51100000000E-03 0.  1.
    9900012    2    1    2    0    0  0.13223377131E+02  0.18862674742E+02 -0.22046838437E+02  0.59301932726E+02  0.49999979388E+02 0.  0.
         12    1    1    2    0    0 -0.13223377131E+02 -0.18862674742E+02  0.22046838437E+02  0.31886067274E+02  0.00000000000E+00 0. -1.
         11    1    3    3    0    0  0.22254056165E+02 -0.51684269726E-01 -0.10748881910E+02  0.24714047617E+02  0.51100000000E-03 0. -1.
        -11    1    3    3    0    0 -0.28397771067E+01  0.23206192208E+02 -0.13159222316E+02  0.26828284012E+02  0.51100000000E-03 0.  1.
        -12    1    3    3    0    0 -0.61909019268E+01 -0.42918331963E+01  0.18612657886E+01  0.77596010972E+01  0.00000000000E+00 0.  1.
</event>
<event>
 7    1  0.5832130E-012  0.5930197E+02  0.7816164E-02  0.1266605E+00
        -11   -1    0    0    0    0  0.00000000000E+00  0.00000000000E+00  0.45593999997E+02  0.45594000000E+02  0.51100000000E-03 0. -1.
         11   -1    0    0    0    0 -0.00000000000E+00 -0.00000000000E+00 -0.45593999997E+02  0.45594000000E+02  0.51100000000E-03 0.  1.
    9900012    2    1    2    0    0 -0.16614504725E+02  0.26123782445E+02  0.76305408250E+01  0.59301969676E+02  0.50000046777E+02 0.  0.
         12    1    1    2    0    0  0.16614504725E+02 -0.26123782445E+02 -0.76305408250E+01  0.31886030324E+02  0.00000000000E+00 0. -1.
         11    1    3    3    0    0 -0.41053478195E+00 -0.32722336764E+01 -0.32996808963E+01  0.46651844892E+01  0.51100000000E-03 0. -1.
        -11    1    3    3    0    0 -0.10282133453E+02  0.14847776404E+02 -0.15560638711E+02  0.23839299693E+02  0.51100000000E-03 0.  1.
         12    1    3    3    0    0 -0.59218364900E+01  0.14548239717E+02  0.26490860432E+02  0.30797485494E+02  0.00000000000E+00 0. -1.
</event>
<event>
 7    1  0.5832130E-012  0.5930196E+02  0.7816164E-02  0.1266605E+00
        -11   -1    0    0    0    0  0.00000000000E+00  0.00000000000E+00  0.45593999997E+02  0.45594000000E+02  0.51100000000E-03 0.  1.
         11   -1    0    0    0    0 -0.00000000000E+00 -0.00000000000E+00 -0.45593999997E+02  0.45594000000E+02  0.51100000000E-03 0. -1.
    9900012    2    1    2    0    0 -0.19987865679E+02  0.24708572662E+02  0.25867462068E+01  0.59301959271E+02  0.50000027800E+02 0.  0.
         12    1    1    2    0    0  0.19987865679E+02 -0.24708572662E+02 -0.25867462068E+01  0.31886040729E+02  0.00000000000E+00 0. -1.
         11    1    3    3    0    0 -0.18017949198E+02  0.23851523992E+02 -0.16026977841E+02  0.33917631241E+02  0.51100000000E-03 0. -1.
        -11    1    3    3    0    0 -0.53861536281E+00  0.64220051300E+01  0.59543491586E+00  0.64720011897E+01  0.51100000000E-03 0.  1.
        -12    1    3    3    0    0 -0.14313011186E+01 -0.55649564599E+01  0.18018289131E+02  0.18912326840E+02  0.00000000000E+00 0.  1.
</event>
<event>
 7    1  0.5832130E-012  0.5930193E+02  0.7816164E-02  0.1266605E+00
        -11   -1    0    0    0    0  0.00000000000E+00  0.00000000000E+00  0.45593999997E+02  0.45594000000E+02  0.51100000000E-03 0. -1.
         11   -1    0    0    0    0 -0.00000000000E+00 -0.00000000000E+00 -0.45593999997E+02  0.45594000000E+02  0.51100000000E-03 0.  1.
    9900012    2    1    2    0    0 -0.10804395596E+01  0.28607248485E+02 -0.14042068463E+02  0.59301926203E+02  0.49999967491E+02 0.  0.
         12    1    1    2    0    0  0.10804395596E+01 -0.28607248485E+02  0.14042068463E+02  0.31886073797E+02  0.00000000000E+00 0. -1.
         11    1    3    3    0    0 -0.19887428834E+01  0.80766793627E+01 -0.35517475067E+01  0.90444877355E+01  0.51100000000E-03 0. -1.
        -11    1    3    3    0    0 -0.17811910094E+02  0.23830309568E+02 -0.32988676009E+01  0.29933765601E+02  0.51100000000E-03 0.  1.
         12    1    3    3    0    0  0.18720213418E+02 -0.32997404462E+01 -0.71914533550E+01  0.20323672867E+02  0.00000000000E+00 0. -1.
</event>
<event>
 7    1  0.5832130E-012  0.5930193E+02  0.7816164E-02  0.1266605E+00
        -11   -1    0    0    0    0  0.00000000000E+00  0.00000000000E+00  0.45593999997E+02  0.45594000000E+02  0.51100000000E-03 0.  1.
         11   -1    0    0    0    0 -0.00000000000E+00 -0.00000000000E+00 -0.45593999997E+02  0.45594000000E+02  0.51100000000E-03 0. -1.
    9900012    2    1    2    0    0 -0.29923441150E+02  0.39055606470E+01 -0.10298326908E+02  0.59301932959E+02  0.49999979813E+02 0.  0.
         12    1    1    2    0    0  0.29923441150E+02 -0.39055606470E+01  0.10298326908E+02  0.31886067041E+02  0.00000000000E+00 0. -1.
         11    1    3    3    0    0 -0.20224827182E+02  0.12903195474E+02  0.35814526839E+01  0.24256192850E+02  0.51100000000E-03 0. -1.
        -11    1    3    3    0    0  0.89542054408E+01 -0.45810838940E+01  0.18776876993E+01  0.10231805123E+02  0.51100000000E-03 0.  1.
         12    1    3    3    0    0 -0.18652819409E+02 -0.44165509329E+01 -0.15757467291E+02  0.24813934986E+02  0.00000000000E+00 0. -1.
</event>
<event>
 7    1  0.5832130E-012  0.5930193E+02  0.7816164E-02  0.1266605E+00
        -11   -1    0    0    0    0  0.00000000000E+00  0.00000000000E+00  0.45593999997E+02  0.45594000000E+02  0.51100000000E-03 0. -1.
         11   -1    0    0    0    0 -0.00000000000E+00 -0.00000000000E+00 -0.45593999997E+02  0.45594000000E+02  0.51100000000E-03 0.  1.
    9900012    2    1    2    0    0  0.23051884833E+02 -0.51560115649E+00 -0.22024213443E+02  0.59301933816E+02  0.49999981377E+02 0.  0.
         12    1    1    2    0    0 -0.23051884833E+02  0.51560115649E+00  0.22024213443E+02  0.31886066184E+02  0.00000000000E+00 0. -1.
         11    1    3    3    0    0 -0.89857829581E+01 -0.31721559988E+01 -0.16578951241E+01  0.96724084671E+01  0.51100000000E-03 0. -1.
        -11    1    3    3    0    0  0.19159727374E+02 -0.14335188383E+02 -0.10280329880E+02  0.26043770114E+02  0.51100000000E-03 0.  1.
        -12    1    3    3    0    0  0.12877940417E+02  0.16991743226E+02 -0.10085988439E+02  0.23585755235E+02  0.00000000000E+00 0.  1.
</event>
<event>
 7    1  0.5832130E-012  0.5930194E+02  0.7816164E-02  0.1266605E+00
        -11   -1    0    0    0    0  0.00000000000E+00  0.00000000000E+00  0.45593999997E+02  0.45594000000E+02  0.51100000000E-03 0.  1.
         11   -1    0    0    0    0 -0.00000000000E+00 -0.00000000000E+00 -0.45593999997E+02  0.45594000000E+02  0.51100000000E-03 0. -1.
    9900012    2    1    2    0    0 -0.31579981419E+02  0.37291176258E+01  0.23492882415E+01  0.59301941919E+02  0.49999996154E+02 0.  0.
         12    1    1    2    0    0  0.31579981419E+02 -0.37291176258E+01 -0.23492882415E+01  0.31886058081E+02  0.00000000000E+00 0. -1.
         11    1    3    3    0    0  0.10619619282E+00  0.47882920254E+01 -0.18178180324E+02  0.18798544048E+02  0.51100000000E-03 0. -1.
        -11    1    3    3    0    0  0.28756388609E+00 -0.62294645445E+00  0.48354452384E+01  0.48838802389E+01  0.51100000000E-03 0.  1.
         12    1    3    3    0    0 -0.31973741498E+02 -0.43622794523E+00  0.15692023327E+02  0.35619517632E+02  0.00000000000E+00 0. -1.
</event>
<event>
 7    1  0.5832130E-012  0.5930193E+02  0.7816164E-02  0.1266605E+00
        -11   -1    0    0    0    0  0.00000000000E+00  0.00000000000E+00  0.45593999997E+02  0.45594000000E+02  0.51100000000E-03 0.  1.
         11   -1    0    0    0    0 -0.00000000000E+00 -0.00000000000E+00 -0.45593999997E+02  0.45594000000E+02  0.51100000000E-03 0. -1.
    9900012    2    1    2    0    0 -0.18335842613E+02 -0.13890385829E+02 -0.22081111240E+02  0.59301930685E+02  0.49999975666E+02 0.  0.
         12    1    1    2    0    0  0.18335842613E+02  0.13890385829E+02  0.22081111240E+02  0.31886069315E+02  0.00000000000E+00 0. -1.
         11    1    3    3    0    0  0.46529484599E+01 -0.40563631963E+01 -0.10954521540E+02  0.12574003109E+02  0.51100000000E-03 0. -1.
        -11    1    3    3    0    0 -0.10873099712E+02 -0.62047611012E+01  0.13888093436E+02  0.18697660207E+02  0.51100000000E-03 0.  1.
         12    1    3    3    0    0 -0.12115691361E+02 -0.36292615314E+01 -0.25014683136E+02  0.28030267369E+02  0.00000000000E+00 0. -1.
</event>
<event>
 7    1  0.5832130E-012  0.5930193E+02  0.7816164E-02  0.1266605E+00
        -11   -1    0    0    0    0  0.00000000000E+00  0.00000000000E+00  0.45593999997E+02  0.45594000000E+02  0.51100000000E-03 0.  1.
         11   -1    0    0    0    0 -0.00000000000E+00 -0.00000000000E+00 -0.45593999997E+02  0.45594000000E+02  0.51100000000E-03 0. -1.
    9900012    2    1    2    0    0 -0.54223625586E+01 -0.18243541129E+01  0.31368637944E+02  0.59301925765E+02  0.49999966693E+02 0.  0.
         12    1    1    2    0    0  0.54223625586E+01  0.18243541129E+01 -0.31368637944E+02  0.31886074235E+02  0.00000000000E+00 0. -1.
         11    1    3    3    0    0  0.11863429990E+02  0.26485267652E+01  0.43094405497E+01  0.12896780345E+02  0.51100000000E-03 0. -1.
        -11    1    3    3    0    0 -0.64641057456E+01 -0.14983421938E+02  0.26728041646E+02  0.31315743749E+02  0.51100000000E-03 0.  1.
         12    1    3    3    0    0 -0.10821686803E+02  0.10510541060E+02  0.33115574886E+00  0.15089401671E+02  0.00000000000E+00 0. -1.
</event>
<event>
 7    1  0.5832130E-012  0.5930168E+02  0.7816164E-02  0.1266606E+00
        -11   -1    0    0    0    0  0.00000000000E+00  0.00000000000E+00  0.45593999997E+02  0.45594000000E+02  0.51100000000E-03 0.  1.
         11   -1    0    0    0    0 -0.00000000000E+00 -0.00000000000E+00 -0.45593999997E+02  0.45594000000E+02  0.51100000000E-03 0. -1.
    9900012    2    1    2    0    0 -0.27551472060E+02 -0.10119790911E+02  0.12459675872E+02  0.59301681561E+02  0.49999521322E+02 0.  0.
         12    1    1    2    0    0  0.27551472060E+02  0.10119790911E+02 -0.12459675872E+02  0.31886318439E+02  0.00000000000E+00 0. -1.
         11    1    3    3    0    0  0.19068862096E+00 -0.53196004831E+01 -0.15325296029E+01  0.55392380970E+01  0.51100000000E-03 0. -1.
        -11    1    3    3    0    0  0.11316078090E+02 -0.37197388560E+01  0.77053963232E+01  0.14186726657E+02  0.51100000000E-03 0.  1.
        -12    1    3    3    0    0 -0.39058238771E+02 -0.10804515721E+01  0.62868091516E+01  0.39575716807E+02  0.00000000000E+00 0.  1.
</event>
<event>
 7    1  0.5832130E-012  0.5930195E+02  0.7816164E-02  0.1266605E+00
        -11   -1    0    0    0    0  0.00000000000E+00  0.00000000000E+00  0.45593999997E+02  0.45594000000E+02  0.51100000000E-03 0.  1.
         11   -1    0    0    0    0 -0.00000000000E+00 -0.00000000000E+00 -0.45593999997E+02  0.45594000000E+02  0.51100000000E-03 0. -1.
    9900012    2    1    2    0    0 -0.21941664685E+02  0.17475586108E+02  0.15162035173E+02  0.59301951804E+02  0.50000014182E+02 0.  0.
         12    1    1    2    0    0  0.21941664685E+02 -0.17475586108E+02 -0.15162035173E+02  0.31886048196E+02  0.00000000000E+00 0. -1.
         11    1    3    3    0    0 -0.14751812400E+02  0.19589976832E+02  0.14985615220E+02  0.28739377605E+02  0.51100000000E-03 0. -1.
        -11    1    3    3    0    0  0.92230914033E+01  0.31398948900E+01  0.70320278830E+01  0.12015563714E+02  0.51100000000E-03 0.  1.
         12    1    3    3    0    0 -0.16412943688E+02 -0.52542856141E+01 -0.68556079301E+01  0.18547010485E+02  0.00000000000E+00 0. -1.
</event>
<event>
 7    1  0.5832130E-012  0.5930195E+02  0.7816164E-02  0.1266605E+00
        -11   -1    0    0    0    0  0.00000000000E+00  0.00000000000E+00  0.45593999997E+02  0.45594000000E+02  0.51100000000E-03 0. -1.
         11   -1    0    0    0    0 -0.00000000000E+00 -0.00000000000E+00 -0.45593999997E+02  0.45594000000E+02  0.51100000000E-03 0.  1.
    9900012    2    1    2    0    0  0.28962975737E+02 -0.12307625132E+02  0.51370109291E+01  0.59301945349E+02  0.50000002409E+02 0.  0.
         12    1    1    2    0    0 -0.28962975737E+02  0.12307625132E+02 -0.51370109291E+01  0.31886054651E+02  0.00000000000E+00 0. -1.
         11    1    3    3    0    0  0.18700105653E+02 -0.42418911269E+01  0.25770056378E+01  0.19347572201E+02  0.51100000000E-03 0. -1.
        -11    1    3    3    0    0  0.17884570836E+02 -0.10197413858E+02 -0.11674828182E+02  0.23667419308E+02  0.51100000000E-03 0.  1.
         12    1    3    3    0    0 -0.76217007519E+01  0.21316798526E+01  0.14234833473E+02  0.16286953839E+02  0.00000000000E+00 0. -1.
</event>
<event>
 7    1  0.5832130E-012  0.5930194E+02  0.7816164E-02  0.1266605E+00
        -11   -1    0    0    0    0  0.00000000000E+00  0.00000000000E+00  0.45593999997E+02  0.45594000000E+02  0.51100000000E-03 0.  1.
         11   -1    0    0    0    0 -0.00000000000E+00 -0.00000000000E+00 -0.45593999997E+02  0.45594000000E+02  0.51100000000E-03 0. -1.
    9900012    2    1    2    0    0  0.21527277719E+02 -0.94020768300E+01  0.21561488482E+02  0.59301944736E+02  0.50000001292E+02 0.  0.
         12    1    1    2    0    0 -0.21527277719E+02  0.94020768300E+01 -0.21561488482E+02  0.31886055264E+02  0.00000000000E+00 0. -1.
         11    1    3    3    0    0 -0.49172902414E+01 -0.80206855433E+01  0.55294498439E+01  0.10912651178E+02  0.51100000000E-03 0. -1.
        -11    1    3    3    0    0  0.26760207295E+02  0.24724482325E+01  0.26186997214E+02  0.37523066480E+02  0.51100000000E-03 0.  1.
         12    1    3    3    0    0 -0.31563933447E+00 -0.38538395193E+01 -0.10154958575E+02  0.10866227077E+02  0.00000000000E+00 0. -1.
</event>
<event>
 7    1  0.5832130E-012  0.5930193E+02  0.7816164E-02  0.1266605E+00
        -11   -1    0    0    0    0  0.00000000000E+00  0.00000000000E+00  0.45593999997E+02  0.45594000000E+02  0.51100000000E-03 0.  1.
         11   -1    0    0    0    0 -0.00000000000E+00 -0.00000000000E+00 -0.45593999997E+02  0.45594000000E+02  0.51100000000E-03 0. -1.
    9900012    2    1    2    0    0 -0.32150605155E+01  0.13254698880E+02  0.28821831037E+02  0.59301927792E+02  0.49999970390E+02 0.  0.
         12    1    1    2    0    0  0.32150605155E+01 -0.13254698880E+02 -0.28821831037E+02  0.31886072208E+02  0.00000000000E+00 0. -1.
         11    1    3    3    0    0  0.62477782070E+00 -0.48388514754E+01  0.81911483790E+01  0.95341356689E+01  0.51100000000E-03 0. -1.
        -11    1    3    3    0    0  0.15649713436E+02  0.22722376593E-01  0.16723632351E+02  0.22904015504E+02  0.51100000000E-03 0.  1.
         12    1    3    3    0    0 -0.19489551772E+02  0.18070827979E+02  0.39070503071E+01  0.26863776619E+02  0.00000000000E+00 0. -1.
</event>
<event>
 7    1  0.5832130E-012  0.5930192E+02  0.7816164E-02  0.1266605E+00
        -11   -1    0    0    0    0  0.00000000000E+00  0.00000000000E+00  0.45593999997E+02  0.45594000000E+02  0.51100000000E-03 0.  1.
         11   -1    0    0    0    0 -0.00000000000E+00 -0.00000000000E+00 -0.45593999997E+02  0.45594000000E+02  0.51100000000E-03 0. -1.
    9900012    2    1    2    0    0 -0.19117884125E+02  0.37829266581E+01  0.25237230451E+02  0.59301924224E+02  0.49999963884E+02 0.  0.
         12    1    1    2    0    0  0.19117884125E+02 -0.37829266581E+01 -0.25237230451E+02  0.31886075776E+02  0.00000000000E+00 0. -1.
         11    1    3    3    0    0 -0.23381755020E+01 -0.92557911455E+01  0.57248715503E+01  0.11131526802E+02  0.51100000000E-03 0. -1.
        -11    1    3    3    0    0  0.38543264325E+01  0.22319530574E+01 -0.97796935314E+01  0.10746155244E+02  0.51100000000E-03 0.  1.
        -12    1    3    3    0    0 -0.20634035055E+02  0.10806764746E+02  0.29292052433E+02  0.37424242179E+02  0.00000000000E+00 0.  1.
</event>
<event>
 7    1  0.5832130E-012  0.5930193E+02  0.7816164E-02  0.1266605E+00
        -11   -1    0    0    0    0  0.00000000000E+00  0.00000000000E+00  0.45593999997E+02  0.45594000000E+02  0.51100000000E-03 0.  1.
         11   -1    0    0    0    0 -0.00000000000E+00 -0.00000000000E+00 -0.45593999997E+02  0.45594000000E+02  0.51100000000E-03 0. -1.
    9900012    2    1    2    0    0 -0.28677463537E+02  0.48789472210E+01  0.13058348810E+02  0.59301929146E+02  0.49999972858E+02 0.  0.
         12    1    1    2    0    0  0.28677463537E+02 -0.48789472210E+01 -0.13058348810E+02  0.31886070854E+02  0.00000000000E+00 0. -1.
         11    1    3    3    0    0 -0.17796135668E+02 -0.48494843145E+01 -0.89973359200E+01  0.20522475405E+02  0.51100000000E-03 0. -1.
        -11    1    3    3    0    0 -0.20559199512E+02  0.79599709907E+01  0.14753370677E+02  0.26527415429E+02  0.51100000000E-03 0.  1.
         12    1    3    3    0    0  0.96778716436E+01  0.17684605447E+01  0.73023140530E+01  0.12252038311E+02  0.00000000000E+00 0. -1.
</event>
<event>
 7    1  0.5832130E-012  0.5930195E+02  0.7816164E-02  0.1266605E+00
        -11   -1    0    0    0    0  0.00000000000E+00  0.00000000000E+00  0.45593999997E+02  0.45594000000E+02  0.51100000000E-03 0.  1.
         11   -1    0    0    0    0 -0.00000000000E+00 -0.00000000000E+00 -0.45593999997E+02  0.45594000000E+02  0.51100000000E-03 0. -1.
    9900012    2    1    2    0    0  0.62181582037E+01 -0.29609265223E+02  0.10067084716E+02  0.59301948611E+02  0.50000008358E+02 0.  0.
         12    1    1    2    0    0 -0.62181582037E+01  0.29609265223E+02 -0.10067084716E+02  0.31886051389E+02  0.00000000000E+00 0. -1.
         11    1    3    3    0    0 -0.61653468652E+00  0.48617179234E+01 -0.32648146054E+01  0.58885847922E+01  0.51100000000E-03 0. -1.
        -11    1    3    3    0    0  0.24413630433E+01  0.12183987396E+01  0.17046273659E+02  0.17263261422E+02  0.51100000000E-03 0.  1.
         12    1    3    3    0    0  0.43933298469E+01 -0.35689381886E+02 -0.37143743370E+01  0.36150102397E+02  0.00000000000E+00 0. -1.
</event>
<event>
 7    1  0.5832130E-012  0.5930199E+02  0.7816164E-02  0.1266605E+00
        -11   -1    0    0    0    0  0.00000000000E+00  0.00000000000E+00  0.45593999997E+02  0.45594000000E+02  0.51100000000E-03 0.  1.
         11   -1    0    0    0    0 -0.00000000000E+00 -0.00000000000E+00 -0.45593999997E+02  0.45594000000E+02  0.51100000000E-03 0. -1.
    9900012    2    1    2    0    0 -0.30939656174E-01 -0.31680427042E+02  0.36149017486E+01  0.59301985362E+02  0.50000075385E+02 0.  0.
         12    1    1    2    0    0  0.30939656174E-01  0.31680427042E+02 -0.36149017486E+01  0.31886014638E+02  0.00000000000E+00 0. -1.
         11    1    3    3    0    0 -0.13420483264E+02 -0.11730544291E+02  0.25544512186E+01  0.18006672699E+02  0.51100000000E-03 0. -1.
        -11    1    3    3    0    0 -0.23682107312E+00 -0.22484723986E+02  0.10201861811E+02  0.24692040856E+02  0.51100000000E-03 0.  1.
        -12    1    3    3    0    0  0.13626364681E+02  0.25348412351E+01 -0.91414112814E+01  0.16603271808E+02  0.00000000000E+00 0.  1.
</event>
<event>
 7    1  0.5832130E-012  0.5930197E+02  0.7816164E-02  0.1266605E+00
        -11   -1    0    0    0    0  0.00000000000E+00  0.00000000000E+00  0.45593999997E+02  0.45594000000E+02  0.51100000000E-03 0. -1.
         11   -1    0    0    0    0 -0.00000000000E+00 -0.00000000000E+00 -0.45593999997E+02  0.45594000000E+02  0.51100000000E-03 0.  1.
    9900012    2    1    2    0    0  0.25227763507E+02 -0.19234689931E+02 -0.32101782637E+01  0.59301974961E+02  0.50000056414E+02 0.  0.
         12    1    1    2    0    0 -0.25227763507E+02  0.19234689931E+02  0.32101782637E+01  0.31886025039E+02  0.00000000000E+00 0. -1.
         11    1    3    3    0    0 -0.21075569789E+01 -0.78445575598E+01 -0.54170480900E+01  0.97633646863E+01  0.51100000000E-03 0. -1.
        -11    1    3    3    0    0 -0.11077454755E+01 -0.14422671872E+02 -0.10862907740E+02  0.18089868125E+02  0.51100000000E-03 0.  1.
         12    1    3    3    0    0  0.28443065962E+02  0.30325395006E+01  0.13069777567E+02  0.31448742149E+02  0.00000000000E+00 0. -1.
</event>
<event>
 7    1  0.5832130E-012  0.5930195E+02  0.7816164E-02  0.1266605E+00
        -11   -1    0    0    0    0  0.00000000000E+00  0.00000000000E+00  0.45593999997E+02  0.45594000000E+02  0.51100000000E-03 0. -1.
         11   -1    0    0    0    0 -0.00000000000E+00 -0.00000000000E+00 -0.45593999997E+02  0.45594000000E+02  0.51100000000E-03 0.  1.
    9900012    2    1    2    0    0  0.20138923879E+02 -0.53227045156E+00 -0.24715600764E+02  0.59301945243E+02  0.50000002217E+02 0.  0.
         12    1    1    2    0    0 -0.20138923879E+02  0.53227045156E+00  0.24715600764E+02  0.31886054757E+02  0.00000000000E+00 0. -1.
         11    1    3    3    0    0  0.11309557590E+02  0.57511282219E+00 -0.10524830952E+02  0.15459913146E+02  0.51100000000E-03 0.  1.
        -11    1    3    3    0    0 -0.27969412042E-01 -0.15788496458E+02 -0.20231458190E+02  0.25662994826E+02  0.51100000000E-03 0. -1.
         12    1    3    3    0    0  0.88573357006E+01  0.14681113184E+02  0.60406883780E+01  0.18179037272E+02  0.00000000000E+00 0. -1.
</event>
<event>
 7    1  0.5832130E-012  0.5930196E+02  0.7816164E-02  0.1266605E+00
        -11   -1    0    0    0    0  0.00000000000E+00  0.00000000000E+00  0.45593999997E+02  0.45594000000E+02  0.51100000000E-03 0.  1.
         11   -1    0    0    0    0 -0.00000000000E+00 -0.00000000000E+00 -0.45593999997E+02  0.45594000000E+02  0.51100000000E-03 0. -1.
    9900012    2    1    2    0    0  0.39501400290E+00  0.17327312867E+02  0.26764303486E+02  0.59301956841E+02  0.50000023368E+02 0.  0.
         12    1    1    2    0    0 -0.39501400290E+00 -0.17327312867E+02 -0.26764303486E+02  0.31886043159E+02  0.00000000000E+00 0. -1.
         11    1    3    3    0    0  0.17699205431E+02 -0.50842260986E+00  0.50908464178E+01  0.18423818386E+02  0.51100000000E-03 0. -1.
        -11    1    3    3    0    0  0.36329386460E+01  0.39657154211E+01 -0.25794197059E+01  0.59647756275E+01  0.51100000000E-03 0.  1.
         12    1    3    3    0    0 -0.20937130074E+02  0.13870020056E+02  0.24252876774E+02  0.34913362827E+02  0.00000000000E+00 0. -1.
</event>
<event>
 7    1  0.5832130E-012  0.5930199E+02  0.7816164E-02  0.1266605E+00
        -11   -1    0    0    0    0  0.00000000000E+00  0.00000000000E+00  0.45593999997E+02  0.45594000000E+02  0.51100000000E-03 0.  1.
         11   -1    0    0    0    0 -0.00000000000E+00 -0.00000000000E+00 -0.45593999997E+02  0.45594000000E+02  0.51100000000E-03 0. -1.
    9900012    2    1    2    0    0 -0.10469969154E+02  0.17085196329E+02  0.24803092744E+02  0.59301990570E+02  0.50000084882E+02 0.  0.
         12    1    1    2    0    0  0.10469969154E+02 -0.17085196329E+02 -0.24803092744E+02  0.31886009430E+02  0.00000000000E+00 0. -1.
         11    1    3    3    0    0 -0.32181856490E+01 -0.50689357859E+01 -0.60179435025E+01  0.85009689527E+01  0.51100000000E-03 0. -1.
        -11    1    3    3    0    0 -0.11397739827E+01  0.16216564965E+02 -0.24642687021E+01  0.16442283433E+02  0.51100000000E-03 0.  1.
        -12    1    3    3    0    0 -0.61120095219E+01  0.59375671497E+01  0.33285304949E+02  0.34358738184E+02  0.00000000000E+00 0.  1.
</event>
<event>
 7    1  0.5832130E-012  0.5930193E+02  0.7816164E-02  0.1266605E+00
        -11   -1    0    0    0    0  0.00000000000E+00  0.00000000000E+00  0.45593999997E+02  0.45594000000E+02  0.51100000000E-03 0. -1.
         11   -1    0    0    0    0 -0.00000000000E+00 -0.00000000000E+00 -0.45593999997E+02  0.45594000000E+02  0.51100000000E-03 0.  1.
    9900012    2    1    2    0    0 -0.26398597865E+02  0.90239702355E+01 -0.15440314721E+02  0.59301932090E+02  0.49999978229E+02 0.  0.
         12    1    1    2    0    0  0.26398597865E+02 -0.90239702355E+01  0.15440314721E+02  0.31886067910E+02  0.00000000000E+00 0. -1.
         11    1    3    3    0    0 -0.17967991439E+02 -0.88267884395E+01 -0.12605306143E+02  0.23657021235E+02  0.51100000000E-03 0. -1.
        -11    1    3    3    0    0 -0.67594180631E+01  0.24326723504E+01 -0.14538161705E+02  0.16216219453E+02  0.51100000000E-03 0.  1.
         12    1    3    3    0    0 -0.16711883634E+01  0.15418086325E+02  0.11703153128E+02  0.19428691402E+02  0.00000000000E+00 0. -1.
</event>
<event>
 7    1  0.5832130E-012  0.5930196E+02  0.7816164E-02  0.1266605E+00
        -11   -1    0    0    0    0  0.00000000000E+00  0.00000000000E+00  0.45593999997E+02  0.45594000000E+02  0.51100000000E-03 0. -1.
         11   -1    0    0    0    0 -0.00000000000E+00 -0.00000000000E+00 -0.45593999997E+02  0.45594000000E+02  0.51100000000E-03 0.  1.
    9900012    2    1    2    0    0 -0.23122308164E+01 -0.13876477500E+02 -0.28614974678E+02  0.59301955796E+02  0.50000021462E+02 0.  0.
         12    1    1    2    0    0  0.23122308164E+01  0.13876477500E+02  0.28614974678E+02  0.31886044204E+02  0.00000000000E+00 0. -1.
         11    1    3    3    0    0  0.25859097829E+01  0.18214237336E+01  0.29744382412E+01  0.43418656053E+01  0.51100000000E-03 0. -1.
        -11    1    3    3    0    0  0.32674868434E+01  0.13884933728E+02 -0.92412442648E+01  0.16996130464E+02  0.51100000000E-03 0.  1.
        -12    1    3    3    0    0 -0.81656274427E+01 -0.29582834962E+02 -0.22348168655E+02  0.37963959727E+02  0.00000000000E+00 0.  1.
</event>
<event>
 7    1  0.5832130E-012  0.5930194E+02  0.7816164E-02  0.1266605E+00
        -11   -1    0    0    0    0  0.00000000000E+00  0.00000000000E+00  0.45593999997E+02  0.45594000000E+02  0.51100000000E-03 0.  1.
         11   -1    0    0    0    0 -0.00000000000E+00 -0.00000000000E+00 -0.45593999997E+02  0.45594000000E+02  0.51100000000E-03 0. -1.
    9900012    2    1    2    0    0 -0.21739298587E+02  0.22590977040E+02  0.58113471936E+01  0.59301935600E+02  0.49999984630E+02 0.  0.
         12    1    1    2    0    0  0.21739298587E+02 -0.22590977040E+02 -0.58113471936E+01  0.31886064400E+02  0.00000000000E+00 0. -1.
         11    1    3    3    0    0 -0.12391263594E+02  0.16618560251E+01 -0.15676620709E+02  0.20051474160E+02  0.51100000000E-03 0. -1.
        -11    1    3    3    0    0 -0.88322559011E+01 -0.21250922591E+01  0.26185249465E+01  0.94541755097E+01  0.51100000000E-03 0.  1.
         12    1    3    3    0    0 -0.51577909258E+00  0.23054213274E+02  0.18869442956E+02  0.29796285930E+02  0.00000000000E+00 0. -1.
</event>
<event>
 7    1  0.5832130E-012  0.5930193E+02  0.7816164E-02  0.1266605E+00
        -11   -1    0    0    0    0  0.00000000000E+00  0.00000000000E+00  0.45593999997E+02  0.45594000000E+02  0.51100000000E-03 0.  1.
         11   -1    0    0    0    0 -0.00000000000E+00 -0.00000000000E+00 -0.45593999997E+02  0.45594000000E+02  0.51100000000E-03 0. -1.
    9900012    2    1    2    0    0  0.11962137792E+02  0.74928109466E+01  0.28591726197E+02  0.59301925244E+02  0.49999965743E+02 0.  0.
         12    1    1    2    0    0 -0.11962137792E+02 -0.74928109466E+01 -0.28591726197E+02  0.31886074756E+02  0.00000000000E+00 0. -1.
         11    1    3    3    0    0  0.22024677410E+01 -0.10924663912E+02  0.69315140061E+01  0.13124215498E+02  0.51100000000E-03 0. -1.
        -11    1    3    3    0    0  0.66589850131E+01 -0.53211149526E+01 -0.53665716357E+01  0.10072558619E+02  0.51100000000E-03 0.  1.
        -12    1    3    3    0    0  0.31006850378E+01  0.23738589812E+02  0.27026783827E+02  0.36105151128E+02  0.00000000000E+00 0.  1.
</event>
<event>
 7    1  0.5832130E-012  0.5930195E+02  0.7816164E-02  0.1266605E+00
        -11   -1    0    0    0    0  0.00000000000E+00  0.00000000000E+00  0.45593999997E+02  0.45594000000E+02  0.51100000000E-03 0.  1.
         11   -1    0    0    0    0 -0.00000000000E+00 -0.00000000000E+00 -0.45593999997E+02  0.45594000000E+02  0.51100000000E-03 0. -1.
    9900012    2    1    2    0    0  0.24477828385E+02  0.75199784737E+01  0.19000159293E+02  0.59301949573E+02  0.50000010113E+02 0.  0.
         12    1    1    2    0    0 -0.24477828385E+02 -0.75199784737E+01 -0.19000159293E+02  0.31886050427E+02  0.00000000000E+00 0. -1.
         11    1    3    3    0    0 -0.62679501066E+01 -0.18773303522E+01  0.11885098580E+02  0.13567134418E+02  0.51100000000E-03 0. -1.
        -11    1    3    3    0    0 -0.32556890645E+01  0.10633071006E+02  0.25168389104E+01  0.11401587112E+02  0.51100000000E-03 0.  1.
        -12    1    3    3    0    0  0.34001467556E+02 -0.12357621807E+01  0.45982218022E+01  0.34333228043E+02  0.00000000000E+00 0.  1.
</event>
<event>
 7    1  0.5832130E-012  0.5930187E+02  0.7816164E-02  0.1266605E+00
        -11   -1    0    0    0    0  0.00000000000E+00  0.00000000000E+00  0.45593999997E+02  0.45594000000E+02  0.51100000000E-03 0. -1.
         11   -1    0    0    0    0 -0.00000000000E+00 -0.00000000000E+00 -0.45593999997E+02  0.45594000000E+02  0.51100000000E-03 0.  1.
    9900012    2    1    2    0    0  0.46973517666E+01 -0.16700682014E+01 -0.31493981203E+02  0.59301873025E+02  0.49999870508E+02 0.  0.
         12    1    1    2    0    0 -0.46973517666E+01  0.16700682014E+01  0.31493981203E+02  0.31886126975E+02  0.00000000000E+00 0. -1.
         11    1    3    3    0    0 -0.24730949324E+01  0.87142095686E+00 -0.21595309186E+02  0.21753918087E+02  0.51100000000E-03 0. -1.
        -11    1    3    3    0    0  0.19582950090E+01  0.15472990919E+02 -0.10471858207E+02  0.18785850576E+02  0.51100000000E-03 0.  1.
        -12    1    3    3    0    0  0.52121516900E+01 -0.18014480077E+02  0.57318618973E+00  0.18762104362E+02  0.00000000000E+00 0.  1.
</event>
<event>
 7    1  0.5832130E-012  0.5930197E+02  0.7816164E-02  0.1266605E+00
        -11   -1    0    0    0    0  0.00000000000E+00  0.00000000000E+00  0.45593999997E+02  0.45594000000E+02  0.51100000000E-03 0.  1.
         11   -1    0    0    0    0 -0.00000000000E+00 -0.00000000000E+00 -0.45593999997E+02  0.45594000000E+02  0.51100000000E-03 0. -1.
    9900012    2    1    2    0    0  0.29501379372E+02  0.40766329924E+01 -0.11391614272E+02  0.59301965484E+02  0.50000039132E+02 0.  0.
         12    1    1    2    0    0 -0.29501379372E+02 -0.40766329924E+01  0.11391614272E+02  0.31886034516E+02  0.00000000000E+00 0. -1.
         11    1    3    3    0    0 -0.37579662841E+01 -0.43171761521E+01 -0.12941597800E+02  0.14150804726E+02  0.51100000000E-03 0. -1.
        -11    1    3    3    0    0  0.88587751280E+00  0.62303501867E+01 -0.90455441979E+01  0.11019251904E+02  0.51100000000E-03 0.  1.
        -12    1    3    3    0    0  0.32373468143E+02  0.21634589578E+01  0.10595527726E+02  0.34131908855E+02  0.00000000000E+00 0.  1.
</event>
<event>
 7    1  0.5832130E-012  0.5930194E+02  0.7816164E-02  0.1266605E+00
        -11   -1    0    0    0    0  0.00000000000E+00  0.00000000000E+00  0.45593999997E+02  0.45594000000E+02  0.51100000000E-03 0. -1.
         11   -1    0    0    0    0 -0.00000000000E+00 -0.00000000000E+00 -0.45593999997E+02  0.45594000000E+02  0.51100000000E-03 0.  1.
    9900012    2    1    2    0    0  0.31775133482E+02 -0.22369225283E+00 -0.26480042241E+01  0.59301936078E+02  0.49999985502E+02 0.  0.
         12    1    1    2    0    0 -0.31775133482E+02  0.22369225283E+00  0.26480042241E+01  0.31886063922E+02  0.00000000000E+00 0. -1.
         11    1    3    3    0    0  0.99650283910E+01  0.92054974128E+01  0.11465385271E+02  0.17762264302E+02  0.51100000000E-03 0. -1.
        -11    1    3    3    0    0  0.33257167173E+00  0.89037490835E+00 -0.17452849511E+02  0.17478710699E+02  0.51100000000E-03 0.  1.
         12    1    3    3    0    0  0.21477533420E+02 -0.10319564574E+02  0.33394600155E+01  0.24060961078E+02  0.00000000000E+00 0. -1.
</event>
<event>
 7    1  0.5832130E-012  0.5930199E+02  0.7816164E-02  0.1266605E+00
        -11   -1    0    0    0    0  0.00000000000E+00  0.00000000000E+00  0.45593999997E+02  0.45594000000E+02  0.51100000000E-03 0.  1.
         11   -1    0    0    0    0 -0.00000000000E+00 -0.00000000000E+00 -0.45593999997E+02  0.45594000000E+02  0.51100000000E-03 0. -1.
    9900012    2    1    2    0    0 -0.14368581062E+02  0.23929049752E+02  0.15416296627E+02  0.59301988248E+02  0.50000080647E+02 0.  0.
         12    1    1    2    0    0  0.14368581062E+02 -0.23929049752E+02 -0.15416296627E+02  0.31886011752E+02  0.00000000000E+00 0. -1.
         11    1    3    3    0    0 -0.15886370952E+02  0.20793507687E+02  0.11440321694E+02  0.28559196499E+02  0.51100000000E-03 0. -1.
        -11    1    3    3    0    0  0.11351774350E+02  0.12479160371E+02  0.30753100629E+01  0.17147879073E+02  0.51100000000E-03 0.  1.
         12    1    3    3    0    0 -0.98339844608E+01 -0.93436183067E+01  0.90066486947E+00  0.13594912675E+02  0.00000000000E+00 0. -1.
</event>
<event>
 7    1  0.5832130E-012  0.5930195E+02  0.7816164E-02  0.1266605E+00
        -11   -1    0    0    0    0  0.00000000000E+00  0.00000000000E+00  0.45593999997E+02  0.45594000000E+02  0.51100000000E-03 0. -1.
         11   -1    0    0    0    0 -0.00000000000E+00 -0.00000000000E+00 -0.45593999997E+02  0.45594000000E+02  0.51100000000E-03 0.  1.
    9900012    2    1    2    0    0  0.57173172477E+01 -0.30853989601E+02 -0.56624660266E+01  0.59301954269E+02  0.50000018678E+02 0.  0.
         12    1    1    2    0    0 -0.57173172477E+01  0.30853989601E+02  0.56624660266E+01  0.31886045731E+02  0.00000000000E+00 0. -1.
         11    1    3    3    0    0 -0.22309390864E+01  0.80327759892E+01 -0.13784761091E+02  0.16109693290E+02  0.51100000000E-03 0. -1.
        -11    1    3    3    0    0  0.53547904456E+00 -0.57251575815E+01  0.71806048885E+01  0.91991985502E+01  0.51100000000E-03 0.  1.
        -12    1    3    3    0    0  0.74127772895E+01 -0.33161608009E+02  0.94169017642E+00  0.33993062429E+02  0.00000000000E+00 0.  1.
</event>
<event>
 7    1  0.5832130E-012  0.5930218E+02  0.7816164E-02  0.1266604E+00
        -11   -1    0    0    0    0  0.00000000000E+00  0.00000000000E+00  0.45593999997E+02  0.45594000000E+02  0.51100000000E-03 0. -1.
         11   -1    0    0    0    0 -0.00000000000E+00 -0.00000000000E+00 -0.45593999997E+02  0.45594000000E+02  0.51100000000E-03 0.  1.
    9900012    2    1    2    0    0 -0.26898293950E+02  0.55298406180E+01 -0.16205182138E+02  0.59302183674E+02  0.50000437055E+02 0.  0.
         12    1    1    2    0    0  0.26898293950E+02 -0.55298406180E+01  0.16205182138E+02  0.31885816326E+02  0.00000000000E+00 0. -1.
         11    1    3    3    0    0 -0.10578254987E+02 -0.75570399819E+01 -0.88187810050E+01  0.15709208463E+02  0.51100000000E-03 0. -1.
        -11    1    3    3    0    0 -0.26937921673E+02  0.94586449272E+01  0.24715197369E+01  0.28657040984E+02  0.51100000000E-03 0.  1.
         12    1    3    3    0    0  0.10617882710E+02  0.36282356727E+01 -0.98579208697E+01  0.14935934226E+02  0.00000000000E+00 0. -1.
</event>
<event>
 7    1  0.5832130E-012  0.5930194E+02  0.7816164E-02  0.1266605E+00
        -11   -1    0    0    0    0  0.00000000000E+00  0.00000000000E+00  0.45593999997E+02  0.45594000000E+02  0.51100000000E-03 0.  1.
         11   -1    0    0    0    0 -0.00000000000E+00 -0.00000000000E+00 -0.45593999997E+02  0.45594000000E+02  0.51100000000E-03 0. -1.
    9900012    2    1    2    0    0 -0.16642107193E+01  0.42518583209E+01  0.31557456885E+02  0.59301937503E+02  0.49999988100E+02 0.  0.
         12    1    1    2    0    0  0.16642107193E+01 -0.42518583209E+01 -0.31557456885E+02  0.31886062497E+02  0.00000000000E+00 0. -1.
         11    1    3    3    0    0  0.73402773437E+01 -0.11862362074E+01  0.14820197397E+02  0.16580864844E+02  0.51100000000E-03 0.  1.
        -11    1    3    3    0    0 -0.15760075386E+02 -0.75305444756E+01  0.21165959677E+02  0.27442429294E+02  0.51100000000E-03 0. -1.
         12    1    3    3    0    0  0.67555873226E+01  0.12968639004E+02 -0.44287001891E+01  0.15278643364E+02  0.00000000000E+00 0. -1.
</event>
<event>
 7    1  0.5832130E-012  0.5930191E+02  0.7816164E-02  0.1266605E+00
        -11   -1    0    0    0    0  0.00000000000E+00  0.00000000000E+00  0.45593999997E+02  0.45594000000E+02  0.51100000000E-03 0.  1.
         11   -1    0    0    0    0 -0.00000000000E+00 -0.00000000000E+00 -0.45593999997E+02  0.45594000000E+02  0.51100000000E-03 0. -1.
    9900012    2    1    2    0    0  0.73223281319E+01 -0.18103320530E+02  0.25206663247E+02  0.59301912508E+02  0.49999942516E+02 0.  0.
         12    1    1    2    0    0 -0.73223281319E+01  0.18103320530E+02 -0.25206663247E+02  0.31886087492E+02  0.00000000000E+00 0. -1.
         11    1    3    3    0    0 -0.57389413018E+01 -0.55527789781E+00 -0.33893882722E+01  0.66881786707E+01  0.51100000000E-03 0. -1.
        -11    1    3    3    0    0 -0.42689370578E+01 -0.10647930482E+02  0.31692747928E+02  0.33705081496E+02  0.51100000000E-03 0.  1.
         12    1    3    3    0    0  0.17330206492E+02 -0.69001121508E+01 -0.30966964090E+01  0.18908652342E+02  0.00000000000E+00 0. -1.
</event>
<event>
 7    1  0.5832130E-012  0.5930221E+02  0.7816164E-02  0.1266604E+00
        -11   -1    0    0    0    0  0.00000000000E+00  0.00000000000E+00  0.45593999997E+02  0.45594000000E+02  0.51100000000E-03 0. -1.
         11   -1    0    0    0    0 -0.00000000000E+00 -0.00000000000E+00 -0.45593999997E+02  0.45594000000E+02  0.51100000000E-03 0.  1.
    9900012    2    1    2    0    0  0.86583971869E+01 -0.87384465096E+01 -0.29417264891E+02  0.59302207507E+02  0.50000480520E+02 0.  0.
         12    1    1    2    0    0 -0.86583971869E+01  0.87384465096E+01  0.29417264891E+02  0.31885792493E+02  0.00000000000E+00 0. -1.
         11    1    3    3    0    0  0.58046095387E+01  0.22154226619E+01 -0.19341779854E+02  0.20315167674E+02  0.51100000000E-03 0.  1.
        -11    1    3    3    0    0 -0.18546147138E+01  0.10887202609E+02 -0.12303741575E+02  0.16533385419E+02  0.51100000000E-03 0. -1.
        -12    1    3    3    0    0  0.47084023620E+01 -0.21841071781E+02  0.22282565378E+01  0.22453654414E+02  0.00000000000E+00 0.  1.
</event>
<event>
 7    1  0.5832130E-012  0.5930191E+02  0.7816164E-02  0.1266605E+00
        -11   -1    0    0    0    0  0.00000000000E+00  0.00000000000E+00  0.45593999997E+02  0.45594000000E+02  0.51100000000E-03 0. -1.
         11   -1    0    0    0    0 -0.00000000000E+00 -0.00000000000E+00 -0.45593999997E+02  0.45594000000E+02  0.51100000000E-03 0.  1.
    9900012    2    1    2    0    0  0.63595848955E+01 -0.26606661877E+02 -0.16381825976E+02  0.59301905875E+02  0.49999930418E+02 0.  0.
         12    1    1    2    0    0 -0.63595848955E+01  0.26606661877E+02  0.16381825976E+02  0.31886094125E+02  0.00000000000E+00 0. -1.
         11    1    3    3    0    0  0.20292637870E+01 -0.55576236976E+01 -0.22783312571E+01  0.63400225757E+01  0.51100000000E-03 0. -1.
        -11    1    3    3    0    0 -0.47044306052E+01 -0.17285325293E+02 -0.29620351612E+02  0.34616172054E+02  0.51100000000E-03 0.  1.
         12    1    3    3    0    0  0.90347517136E+01 -0.37637128860E+01  0.15516856894E+02  0.18345711245E+02  0.00000000000E+00 0. -1.
</event>
<event>
 7    1  0.5832130E-012  0.5930196E+02  0.7816164E-02  0.1266605E+00
        -11   -1    0    0    0    0  0.00000000000E+00  0.00000000000E+00  0.45593999997E+02  0.45594000000E+02  0.51100000000E-03 0. -1.
         11   -1    0    0    0    0 -0.00000000000E+00 -0.00000000000E+00 -0.45593999997E+02  0.45594000000E+02  0.51100000000E-03 0.  1.
    9900012    2    1    2    0    0  0.12320648198E+02  0.21957037181E+02 -0.19565530011E+02  0.59301955742E+02  0.50000021364E+02 0.  0.
         12    1    1    2    0    0 -0.12320648198E+02 -0.21957037181E+02  0.19565530011E+02  0.31886044258E+02  0.00000000000E+00 0. -1.
         11    1    3    3    0    0  0.55024389462E+00 -0.44387540777E+01 -0.84326202973E+00  0.45515269106E+01  0.51100000000E-03 0. -1.
        -11    1    3    3    0    0  0.21865517750E+02  0.23009469914E+02  0.16273207045E+01  0.31783403612E+02  0.51100000000E-03 0.  1.
         12    1    3    3    0    0 -0.10095113446E+02  0.33863213446E+01 -0.20349588686E+02  0.22967025219E+02  0.00000000000E+00 0. -1.
</event>
<event>
 7    1  0.5832130E-012  0.5930192E+02  0.7816164E-02  0.1266605E+00
        -11   -1    0    0    0    0  0.00000000000E+00  0.00000000000E+00  0.45593999997E+02  0.45594000000E+02  0.51100000000E-03 0.  1.
         11   -1    0    0    0    0 -0.00000000000E+00 -0.00000000000E+00 -0.45593999997E+02  0.45594000000E+02  0.51100000000E-03 0. -1.
    9900012    2    1    2    0    0 -0.18095408535E+02  0.20002101364E+02  0.17005707344E+02  0.59301922297E+02  0.49999960368E+02 0.  0.
         12    1    1    2    0    0  0.18095408535E+02 -0.20002101364E+02 -0.17005707344E+02  0.31886077703E+02  0.00000000000E+00 0. -1.
         11    1    3    3    0    0  0.57509545065E+01  0.92764066506E+00  0.12688898007E+01  0.59618853165E+01  0.51100000000E-03 0.  1.
        -11    1    3    3    0    0  0.44278117101E+00  0.24475665112E+02  0.14445644735E+02  0.28424125138E+02  0.51100000000E-03 0. -1.
        -12    1    3    3    0    0 -0.24289144213E+02 -0.54012044130E+01  0.12911728088E+01  0.24915911842E+02  0.00000000000E+00 0.  1.
</event>
<event>
 7    1  0.5832130E-012  0.5930197E+02  0.7816164E-02  0.1266605E+00
        -11   -1    0    0    0    0  0.00000000000E+00  0.00000000000E+00  0.45593999997E+02  0.45594000000E+02  0.51100000000E-03 0.  1.
         11   -1    0    0    0    0 -0.00000000000E+00 -0.00000000000E+00 -0.45593999997E+02  0.45594000000E+02  0.51100000000E-03 0. -1.
    9900012    2    1    2    0    0 -0.18610214567E+02 -0.21097712460E+02  0.15008847259E+02  0.59301967740E+02  0.50000043245E+02 0.  0.
         12    1    1    2    0    0  0.18610214567E+02  0.21097712460E+02 -0.15008847259E+02  0.31886032260E+02  0.00000000000E+00 0. -1.
         11    1    3    3    0    0 -0.82414850114E+01 -0.35297523265E+01 -0.78337053724E+01  0.11905803912E+02  0.51100000000E-03 0. -1.
        -11    1    3    3    0    0 -0.66010771785E+01  0.10799968054E+02  0.94744326736E+01  0.15810705380E+02  0.51100000000E-03 0.  1.
         12    1    3    3    0    0 -0.37676523771E+01 -0.28367928188E+02  0.13368119957E+02  0.31585458447E+02  0.00000000000E+00 0. -1.
</event>
<event>
 7    1  0.5832130E-012  0.5930193E+02  0.7816164E-02  0.1266605E+00
        -11   -1    0    0    0    0  0.00000000000E+00  0.00000000000E+00  0.45593999997E+02  0.45594000000E+02  0.51100000000E-03 0. -1.
         11   -1    0    0    0    0 -0.00000000000E+00 -0.00000000000E+00 -0.45593999997E+02  0.45594000000E+02  0.51100000000E-03 0.  1.
    9900012    2    1    2    0    0  0.31227495546E+01 -0.39717807234E+01 -0.31483246717E+02  0.59301930460E+02  0.49999975255E+02 0.  0.
         12    1    1    2    0    0 -0.31227495546E+01  0.39717807234E+01  0.31483246717E+02  0.31886069540E+02  0.00000000000E+00 0. -1.
         11    1    3    3    0    0  0.85229915764E+01 -0.55620664999E+01  0.48919345341E-01  0.10177443811E+02  0.51100000000E-03 0. -1.
        -11    1    3    3    0    0  0.19076900948E+01  0.17728146800E+02 -0.76823815612E+01  0.19415083239E+02  0.51100000000E-03 0.  1.
         12    1    3    3    0    0 -0.73079321166E+01 -0.16137861024E+02 -0.23849784501E+02  0.29709403410E+02  0.00000000000E+00 0. -1.
</event>
<event>
 7    1  0.5832130E-012  0.5930193E+02  0.7816164E-02  0.1266605E+00
        -11   -1    0    0    0    0  0.00000000000E+00  0.00000000000E+00  0.45593999997E+02  0.45594000000E+02  0.51100000000E-03 0. -1.
         11   -1    0    0    0    0 -0.00000000000E+00 -0.00000000000E+00 -0.45593999997E+02  0.45594000000E+02  0.51100000000E-03 0.  1.
    9900012    2    1    2    0    0  0.67820412757E+01  0.18573626146E+02 -0.25014915244E+02  0.59301926915E+02  0.49999968791E+02 0.  0.
         12    1    1    2    0    0 -0.67820412757E+01 -0.18573626146E+02  0.25014915244E+02  0.31886073085E+02  0.00000000000E+00 0. -1.
         11    1    3    3    0    0 -0.57289632294E+01  0.93914580817E+01 -0.11392094843E+01  0.11059760535E+02  0.51100000000E-03 0. -1.
        -11    1    3    3    0    0  0.48365502051E+01  0.14713413845E+02  0.62233282734E+01  0.16691512212E+02  0.51100000000E-03 0.  1.
         12    1    3    3    0    0  0.76744543001E+01 -0.55312457807E+01 -0.30099034033E+02  0.31550654168E+02  0.00000000000E+00 0. -1.
</event>
<event>
 7    1  0.5832130E-012  0.5930195E+02  0.7816164E-02  0.1266605E+00
        -11   -1    0    0    0    0  0.00000000000E+00  0.00000000000E+00  0.45593999997E+02  0.45594000000E+02  0.51100000000E-03 0. -1.
         11   -1    0    0    0    0 -0.00000000000E+00 -0.00000000000E+00 -0.45593999997E+02  0.45594000000E+02  0.51100000000E-03 0.  1.
    9900012    2    1    2    0    0 -0.73502566331E+00 -0.51172102759E+01 -0.31464171027E+02  0.59301950352E+02  0.50000011534E+02 0.  0.
         12    1    1    2    0    0  0.73502566331E+00  0.51172102759E+01  0.31464171027E+02  0.31886049648E+02  0.00000000000E+00 0. -1.
         11    1    3    3    0    0 -0.73661374723E+01 -0.70259635093E+01  0.27803859240E+00  0.10183390900E+02  0.51100000000E-03 0. -1.
        -11    1    3    3    0    0 -0.10753143325E+01 -0.16993836293E+02 -0.15613567936E+02  0.23102603247E+02  0.51100000000E-03 0.  1.
         12    1    3    3    0    0  0.77064261415E+01  0.18902589526E+02 -0.16128641684E+02  0.26015956205E+02  0.00000000000E+00 0. -1.
</event>
<event>
 7    1  0.5832130E-012  0.5930197E+02  0.7816164E-02  0.1266605E+00
        -11   -1    0    0    0    0  0.00000000000E+00  0.00000000000E+00  0.45593999997E+02  0.45594000000E+02  0.51100000000E-03 0.  1.
         11   -1    0    0    0    0 -0.00000000000E+00 -0.00000000000E+00 -0.45593999997E+02  0.45594000000E+02  0.51100000000E-03 0. -1.
    9900012    2    1    2    0    0 -0.11633762763E+02 -0.26157829856E+02  0.14040736324E+02  0.59301972099E+02  0.50000051195E+02 0.  0.
         12    1    1    2    0    0  0.11633762763E+02  0.26157829856E+02 -0.14040736324E+02  0.31886027901E+02  0.00000000000E+00 0. -1.
         11    1    3    3    0    0 -0.32544025343E+01  0.77735686872E+01  0.13651997965E+01  0.85371703002E+01  0.51100000000E-03 0. -1.
        -11    1    3    3    0    0 -0.70887845853E+01 -0.25096846141E+00  0.15394606895E+02  0.16950155568E+02  0.51100000000E-03 0.  1.
        -12    1    3    3    0    0 -0.12905756429E+01 -0.33680430082E+02 -0.27190703679E+01  0.33814646230E+02  0.00000000000E+00 0.  1.
</event>
<event>
 7    1  0.5832130E-012  0.5930189E+02  0.7816164E-02  0.1266605E+00
        -11   -1    0    0    0    0  0.00000000000E+00  0.00000000000E+00  0.45593999997E+02  0.45594000000E+02  0.51100000000E-03 0. -1.
         11   -1    0    0    0    0 -0.00000000000E+00 -0.00000000000E+00 -0.45593999997E+02  0.45594000000E+02  0.51100000000E-03 0.  1.
    9900012    2    1    2    0    0 -0.27735803639E+01  0.27424436804E+02 -0.16029076546E+02  0.59301893669E+02  0.49999908158E+02 0.  0.
         12    1    1    2    0    0  0.27735803639E+01 -0.27424436804E+02  0.16029076546E+02  0.31886106331E+02  0.00000000000E+00 0. -1.
         11    1    3    3    0    0 -0.11833342488E+01  0.16667936027E+02  0.47714543239E-01  0.16709956562E+02  0.51100000000E-03 0. -1.
        -11    1    3    3    0    0  0.12594127767E+02  0.17260262101E+02 -0.16477970344E+02  0.26982442605E+02  0.51100000000E-03 0.  1.
        -12    1    3    3    0    0 -0.14184373882E+02 -0.65037613250E+01  0.40117925500E+00  0.15609494502E+02  0.00000000000E+00 0.  1.
</event>
<event>
 7    1  0.5832130E-012  0.5930195E+02  0.7816164E-02  0.1266605E+00
        -11   -1    0    0    0    0  0.00000000000E+00  0.00000000000E+00  0.45593999997E+02  0.45594000000E+02  0.51100000000E-03 0. -1.
         11   -1    0    0    0    0 -0.00000000000E+00 -0.00000000000E+00 -0.45593999997E+02  0.45594000000E+02  0.51100000000E-03 0.  1.
    9900012    2    1    2    0    0 -0.96307925365E+01 -0.29739172072E+02 -0.62888346629E+01  0.59301953494E+02  0.50000017263E+02 0.  0.
         12    1    1    2    0    0  0.96307925365E+01  0.29739172072E+02  0.62888346629E+01  0.31886046506E+02  0.00000000000E+00 0. -1.
         11    1    3    3    0    0  0.32120873628E+01 -0.13751290614E+02 -0.48376558493E+01  0.14927103308E+02  0.51100000000E-03 0. -1.
        -11    1    3    3    0    0 -0.10227294838E+01 -0.14147228992E+02 -0.18646172402E+02  0.23427970660E+02  0.51100000000E-03 0.  1.
         12    1    3    3    0    0 -0.11820150416E+02 -0.18406524655E+01  0.17194993589E+02  0.20946879525E+02  0.00000000000E+00 0. -1.
</event>
<event>
 7    1  0.5832130E-012  0.5930196E+02  0.7816164E-02  0.1266605E+00
        -11   -1    0    0    0    0  0.00000000000E+00  0.00000000000E+00  0.45593999997E+02  0.45594000000E+02  0.51100000000E-03 0. -1.
         11   -1    0    0    0    0 -0.00000000000E+00 -0.00000000000E+00 -0.45593999997E+02  0.45594000000E+02  0.51100000000E-03 0.  1.
    9900012    2    1    2    0    0 -0.28196733374E+02 -0.79128586691E+01 -0.12611518808E+02  0.59301960549E+02  0.50000030130E+02 0.  0.
         12    1    1    2    0    0  0.28196733374E+02  0.79128586691E+01  0.12611518808E+02  0.31886039451E+02  0.00000000000E+00 0. -1.
         11    1    3    3    0    0  0.51327720628E+00  0.79393162639E+01  0.32673178502E+01  0.86006722077E+01  0.51100000000E-03 0. -1.
        -11    1    3    3    0    0  0.67940695170E+01  0.24465369946E+01 -0.64014685707E+01  0.96500634190E+01  0.51100000000E-03 0.  1.
         12    1    3    3    0    0 -0.35504080097E+02 -0.18298711928E+02 -0.94773680870E+01  0.41051224922E+02  0.00000000000E+00 0. -1.
</event>
<event>
 7    1  0.5832130E-012  0.5930195E+02  0.7816164E-02  0.1266605E+00
        -11   -1    0    0    0    0  0.00000000000E+00  0.00000000000E+00  0.45593999997E+02  0.45594000000E+02  0.51100000000E-03 0. -1.
         11   -1    0    0    0    0 -0.00000000000E+00 -0.00000000000E+00 -0.45593999997E+02  0.45594000000E+02  0.51100000000E-03 0.  1.
    9900012    2    1    2    0    0 -0.20531252551E+02  0.17936966037E+02  0.16536411008E+02  0.59301953350E+02  0.50000017002E+02 0.  0.
         12    1    1    2    0    0  0.20531252551E+02 -0.17936966037E+02 -0.16536411008E+02  0.31886046650E+02  0.00000000000E+00 0. -1.
         11    1    3    3    0    0 -0.89467108902E+01 -0.10782693140E+02  0.19162160415E+02  0.23738123328E+02  0.51100000000E-03 0. -1.
        -11    1    3    3    0    0 -0.41567161703E+01  0.13853313218E+02  0.73055130169E+01  0.16203798849E+02  0.51100000000E-03 0.  1.
        -12    1    3    3    0    0 -0.74278254901E+01  0.14866345959E+02 -0.99312624230E+01  0.19360031173E+02  0.00000000000E+00 0.  1.
</event>
<event>
 7    1  0.5832130E-012  0.5930166E+02  0.7816164E-02  0.1266606E+00
        -11   -1    0    0    0    0  0.00000000000E+00  0.00000000000E+00  0.45593999997E+02  0.45594000000E+02  0.51100000000E-03 0.  1.
         11   -1    0    0    0    0 -0.00000000000E+00 -0.00000000000E+00 -0.45593999997E+02  0.45594000000E+02  0.51100000000E-03 0. -1.
    9900012    2    1    2    0    0  0.18119742330E+02 -0.19452803109E+02 -0.17606884580E+02  0.59301655031E+02  0.49999472936E+02 0.  0.
         12    1    1    2    0    0 -0.18119742330E+02  0.19452803109E+02  0.17606884580E+02  0.31886344969E+02  0.00000000000E+00 0. -1.
         11    1    3    3    0    0  0.31330291188E+02 -0.11579776704E+02 -0.23563023441E+02  0.40876575791E+02  0.51100000000E-03 0. -1.
        -11    1    3    3    0    0 -0.63493736160E+01 -0.70154039432E+00 -0.77202389504E+00  0.64344949604E+01  0.51100000000E-03 0.  1.
        -12    1    3    3    0    0 -0.68611752418E+01 -0.71714860103E+01  0.67281627559E+01  0.11990584279E+02  0.00000000000E+00 0.  1.
</event>
<event>
 7    1  0.5832130E-012  0.5930200E+02  0.7816164E-02  0.1266605E+00
        -11   -1    0    0    0    0  0.00000000000E+00  0.00000000000E+00  0.45593999997E+02  0.45594000000E+02  0.51100000000E-03 0.  1.
         11   -1    0    0    0    0 -0.00000000000E+00 -0.00000000000E+00 -0.45593999997E+02  0.45594000000E+02  0.51100000000E-03 0. -1.
    9900012    2    1    2    0    0  0.22083256879E+02  0.22083829122E+02  0.64304865761E+01  0.59302001495E+02  0.50000104806E+02 0.  0.
         12    1    1    2    0    0 -0.22083256879E+02 -0.22083829122E+02 -0.64304865761E+01  0.31885998505E+02  0.00000000000E+00 0. -1.
         11    1    3    3    0    0 -0.10943580196E+01 -0.20447942150E+01 -0.10726960011E+02  0.10974810896E+02  0.51100000000E-03 0. -1.
        -11    1    3    3    0    0  0.14517307799E+02  0.29692431913E+02  0.68374293169E+01  0.33751195217E+02  0.51100000000E-03 0.  1.
         12    1    3    3    0    0  0.86603070993E+01 -0.55638085761E+01  0.10320017270E+02  0.14575995382E+02  0.00000000000E+00 0. -1.
</event>
<event>
 7    1  0.5832130E-012  0.5930214E+02  0.7816164E-02  0.1266604E+00
        -11   -1    0    0    0    0  0.00000000000E+00  0.00000000000E+00  0.45593999997E+02  0.45594000000E+02  0.51100000000E-03 0.  1.
         11   -1    0    0    0    0 -0.00000000000E+00 -0.00000000000E+00 -0.45593999997E+02  0.45594000000E+02  0.51100000000E-03 0. -1.
    9900012    2    1    2    0    0 -0.10577783803E+01 -0.11445730110E+02  0.29741961094E+02  0.59302142906E+02  0.50000362706E+02 0.  0.
         12    1    1    2    0    0  0.10577783803E+01  0.11445730110E+02 -0.29741961094E+02  0.31885857094E+02  0.00000000000E+00 0. -1.
         11    1    3    3    0    0 -0.10345671517E+02  0.97318027046E+01  0.12500371196E+02  0.18920892773E+02  0.51100000000E-03 0.  1.
        -11    1    3    3    0    0 -0.78180869532E+01 -0.72498235037E+00 -0.12264734380E+01  0.79468434218E+01  0.51100000000E-03 0. -1.
        -12    1    3    3    0    0  0.17105980090E+02 -0.20452550464E+02  0.18468063336E+02  0.32434406712E+02  0.00000000000E+00 0.  1.
</event>
<event>
 7    1  0.5832130E-012  0.5930194E+02  0.7816164E-02  0.1266605E+00
        -11   -1    0    0    0    0  0.00000000000E+00  0.00000000000E+00  0.45593999997E+02  0.45594000000E+02  0.51100000000E-03 0. -1.
         11   -1    0    0    0    0 -0.00000000000E+00 -0.00000000000E+00 -0.45593999997E+02  0.45594000000E+02  0.51100000000E-03 0.  1.
    9900012    2    1    2    0    0 -0.99729758157E+01 -0.30256258713E+02 -0.13488418768E+01  0.59301940157E+02  0.49999992941E+02 0.  0.
         12    1    1    2    0    0  0.99729758157E+01  0.30256258713E+02  0.13488418768E+01  0.31886059843E+02  0.00000000000E+00 0. -1.
         11    1    3    3    0    0  0.13624568520E+01 -0.49031553391E+01 -0.68734790717E+01  0.85523058740E+01  0.51100000000E-03 0. -1.
        -11    1    3    3    0    0  0.24534698918E+01 -0.18175122351E+02 -0.15904578732E+02  0.24275712386E+02  0.51100000000E-03 0.  1.
         12    1    3    3    0    0 -0.13788902559E+02 -0.71779810230E+01  0.21429215927E+02  0.26473921897E+02  0.00000000000E+00 0. -1.
</event>
<event>
 7    1  0.5832130E-012  0.5930189E+02  0.7816164E-02  0.1266605E+00
        -11   -1    0    0    0    0  0.00000000000E+00  0.00000000000E+00  0.45593999997E+02  0.45594000000E+02  0.51100000000E-03 0. -1.
         11   -1    0    0    0    0 -0.00000000000E+00 -0.00000000000E+00 -0.45593999997E+02  0.45594000000E+02  0.51100000000E-03 0.  1.
    9900012    2    1    2    0    0 -0.30054822710E+02  0.10548700914E+02  0.14684703309E+01  0.59301892300E+02  0.49999905661E+02 0.  0.
         12    1    1    2    0    0  0.30054822710E+02 -0.10548700914E+02 -0.14684703309E+01  0.31886107700E+02  0.00000000000E+00 0. -1.
         11    1    3    3    0    0 -0.11555604954E+02  0.50950335048E+01 -0.80570450847E+01  0.14980231908E+02  0.51100000000E-03 0. -1.
        -11    1    3    3    0    0  0.76555690388E+01  0.88672377741E+01 -0.65607313932E+01  0.13426795587E+02  0.51100000000E-03 0.  1.
         12    1    3    3    0    0 -0.26154786795E+02 -0.34135703647E+01  0.16086246809E+02  0.30894864805E+02  0.00000000000E+00 0. -1.
</event>
<event>
 7    1  0.5832130E-012  0.5930199E+02  0.7816164E-02  0.1266605E+00
        -11   -1    0    0    0    0  0.00000000000E+00  0.00000000000E+00  0.45593999997E+02  0.45594000000E+02  0.51100000000E-03 0. -1.
         11   -1    0    0    0    0 -0.00000000000E+00 -0.00000000000E+00 -0.45593999997E+02  0.45594000000E+02  0.51100000000E-03 0.  1.
    9900012    2    1    2    0    0  0.29235487969E+02  0.19390111538E+01 -0.12579511505E+02  0.59301990047E+02  0.50000083928E+02 0.  0.
         12    1    1    2    0    0 -0.29235487969E+02 -0.19390111538E+01  0.12579511505E+02  0.31886009953E+02  0.00000000000E+00 0. -1.
         11    1    3    3    0    0  0.37626850767E+01 -0.14283114215E+02 -0.97942543841E+01  0.17722656964E+02  0.51100000000E-03 0.  1.
        -11    1    3    3    0    0 -0.46813654236E+01 -0.26923289599E+01  0.17941689918E+01  0.56905940015E+01  0.51100000000E-03 0. -1.
         12    1    3    3    0    0  0.30154168316E+02  0.18914454328E+02 -0.45794261127E+01  0.35888739082E+02  0.00000000000E+00 0. -1.
</event>
<event>
 7    1  0.5832130E-012  0.5930192E+02  0.7816164E-02  0.1266605E+00
        -11   -1    0    0    0    0  0.00000000000E+00  0.00000000000E+00  0.45593999997E+02  0.45594000000E+02  0.51100000000E-03 0.  1.
         11   -1    0    0    0    0 -0.00000000000E+00 -0.00000000000E+00 -0.45593999997E+02  0.45594000000E+02  0.51100000000E-03 0. -1.
    9900012    2    1    2    0    0  0.76236474531E+01  0.19765090652E+02  0.23831564411E+02  0.59301917280E+02  0.49999951218E+02 0.  0.
         12    1    1    2    0    0 -0.76236474531E+01 -0.19765090652E+02 -0.23831564411E+02  0.31886082720E+02  0.00000000000E+00 0. -1.
         11    1    3    3    0    0  0.21311352185E+02  0.11168081367E+02 -0.37049935817E+01  0.24343926370E+02  0.51100000000E-03 0. -1.
        -11    1    3    3    0    0 -0.29891749740E+00 -0.34870240119E+01  0.43820840152E+01  0.56081502037E+01  0.51100000000E-03 0.  1.
         12    1    3    3    0    0 -0.13388787235E+02  0.12084033297E+02  0.23154473977E+02  0.29349840707E+02  0.00000000000E+00 0. -1.
</event>
<event>
 7    1  0.7381528E-012  0.5930194E+02  0.7816164E-02  0.1266605E+00
        -11   -1    0    0    0    0  0.00000000000E+00  0.00000000000E+00  0.45593999997E+02  0.45594000000E+02  0.51100000000E-03 0. -1.
         11   -1    0    0    0    0 -0.00000000000E+00 -0.00000000000E+00 -0.45593999997E+02  0.45594000000E+02  0.51100000000E-03 0.  1.
    9900012    2    1    2    0    0  0.11579818823E+02  0.12426526929E+02 -0.26985369363E+02  0.59301938231E+02  0.49999989428E+02 0.  0.
         12    1    1    2    0    0 -0.11579818823E+02 -0.12426526929E+02  0.26985369363E+02  0.31886061769E+02  0.00000000000E+00 0. -1.
         11    1    3    3    0    0 -0.56130577555E+01  0.14546777402E+02 -0.12976838601E+02  0.20285795288E+02  0.51100000000E-03 0. -1.
        -11    1    3    3    0    0  0.12775757693E+02 -0.87783001012E+01 -0.22521835867E+02  0.27340658888E+02  0.51100000000E-03 0.  1.
         12    1    3    3    0    0  0.44171188857E+01  0.66580496278E+01  0.85133051053E+01  0.11675484055E+02  0.00000000000E+00 0. -1.
</event>
<event>
 7    1  0.5832130E-012  0.5930191E+02  0.7816164E-02  0.1266605E+00
        -11   -1    0    0    0    0  0.00000000000E+00  0.00000000000E+00  0.45593999997E+02  0.45594000000E+02  0.51100000000E-03 0.  1.
         11   -1    0    0    0    0 -0.00000000000E+00 -0.00000000000E+00 -0.45593999997E+02  0.45594000000E+02  0.51100000000E-03 0. -1.
    9900012    2    1    2    0    0  0.22203101787E+02  0.15809226754E+02  0.16547312469E+02  0.59301906958E+02  0.49999932394E+02 0.  0.
         12    1    1    2    0    0 -0.22203101787E+02 -0.15809226754E+02 -0.16547312469E+02  0.31886093042E+02  0.00000000000E+00 0. -1.
         11    1    3    3    0    0  0.63677595854E+01  0.12265284723E+01  0.83952844005E+01  0.10608182439E+02  0.51100000000E-03 0. -1.
        -11    1    3    3    0    0  0.30175767057E+02  0.96513688064E+01  0.10440050813E+02  0.33357465409E+02  0.51100000000E-03 0.  1.
         12    1    3    3    0    0 -0.14340424855E+02  0.49313294750E+01 -0.22880227445E+01  0.15336259110E+02  0.00000000000E+00 0. -1.
</event>
<event>
 7    1  0.5832130E-012  0.5930205E+02  0.7816164E-02  0.1266604E+00
        -11   -1    0    0    0    0  0.00000000000E+00  0.00000000000E+00  0.45593999997E+02  0.45594000000E+02  0.51100000000E-03 0.  1.
         11   -1    0    0    0    0 -0.00000000000E+00 -0.00000000000E+00 -0.45593999997E+02  0.45594000000E+02  0.51100000000E-03 0. -1.
    9900012    2    1    2    0    0  0.13849405011E+02 -0.11796951716E+02  0.26186636710E+02  0.59302046491E+02  0.50000186869E+02 0.  0.
         12    1    1    2    0    0 -0.13849405011E+02  0.11796951716E+02 -0.26186636710E+02  0.31885953509E+02  0.00000000000E+00 0. -1.
         11    1    3    3    0    0  0.87560743302E+01 -0.66480250314E+01 -0.23327799756E+01  0.11238635912E+02  0.51100000000E-03 0. -1.
        -11    1    3    3    0    0  0.34919725822E+01 -0.20784108204E+02  0.87800430492E+01  0.22831166912E+02  0.51100000000E-03 0.  1.
         12    1    3    3    0    0  0.16013580989E+01  0.15635181519E+02  0.19739373637E+02  0.25232243667E+02  0.00000000000E+00 0. -1.
</event>
<event>
 7    1  0.5832130E-012  0.5930194E+02  0.7816164E-02  0.1266605E+00
        -11   -1    0    0    0    0  0.00000000000E+00  0.00000000000E+00  0.45593999997E+02  0.45594000000E+02  0.51100000000E-03 0. -1.
         11   -1    0    0    0    0 -0.00000000000E+00 -0.00000000000E+00 -0.45593999997E+02  0.45594000000E+02  0.51100000000E-03 0.  1.
    9900012    2    1    2    0    0  0.31152045464E+01 -0.19812922524E+02 -0.24788395065E+02  0.59301938340E+02  0.49999989627E+02 0.  0.
         12    1    1    2    0    0 -0.31152045464E+01  0.19812922524E+02  0.24788395065E+02  0.31886061660E+02  0.00000000000E+00 0. -1.
         11    1    3    3    0    0  0.54789867162E+01 -0.21896205224E+02 -0.84629319705E+01  0.24105690541E+02  0.51100000000E-03 0.  1.
        -11    1    3    3    0    0  0.14303811946E+02  0.24916022195E-01 -0.62337549783E+01  0.15603184238E+02  0.51100000000E-03 0. -1.
        -12    1    3    3    0    0 -0.16667594116E+02  0.20583666780E+01 -0.10091708116E+02  0.19593063560E+02  0.00000000000E+00 0.  1.
</event>
<event>
 7    1  0.5832130E-012  0.5930193E+02  0.7816164E-02  0.1266605E+00
        -11   -1    0    0    0    0  0.00000000000E+00  0.00000000000E+00  0.45593999997E+02  0.45594000000E+02  0.51100000000E-03 0.  1.
         11   -1    0    0    0    0 -0.00000000000E+00 -0.00000000000E+00 -0.45593999997E+02  0.45594000000E+02  0.51100000000E-03 0. -1.
    9900012    2    1    2    0    0  0.10168927736E+02 -0.48982520762E+01  0.29821496959E+02  0.59301927091E+02  0.49999969111E+02 0.  0.
         12    1    1    2    0    0 -0.10168927736E+02  0.48982520762E+01 -0.29821496959E+02  0.31886072909E+02  0.00000000000E+00 0. -1.
         11    1    3    3    0    0  0.14954227617E+02 -0.12534939917E+02  0.14207894964E+01  0.19564567089E+02  0.51100000000E-03 0. -1.
        -11    1    3    3    0    0 -0.22012970911E+01  0.12980256547E+01 -0.50145636313E+01  0.56281816031E+01  0.51100000000E-03 0.  1.
        -12    1    3    3    0    0 -0.25840027892E+01  0.63386621864E+01  0.33415271094E+02  0.34109178398E+02  0.00000000000E+00 0.  1.
</event>
<event>
 7    1  0.5832130E-012  0.5930186E+02  0.7816164E-02  0.1266605E+00
        -11   -1    0    0    0    0  0.00000000000E+00  0.00000000000E+00  0.45593999997E+02  0.45594000000E+02  0.51100000000E-03 0.  1.
         11   -1    0    0    0    0 -0.00000000000E+00 -0.00000000000E+00 -0.45593999997E+02  0.45594000000E+02  0.51100000000E-03 0. -1.
    9900012    2    1    2    0    0 -0.14877559139E+02 -0.17376751939E+02  0.22213348343E+02  0.59301856952E+02  0.49999841195E+02 0.  0.
         12    1    1    2    0    0  0.14877559139E+02  0.17376751939E+02 -0.22213348343E+02  0.31886143048E+02  0.00000000000E+00 0. -1.
         11    1    3    3    0    0 -0.58972086648E+01  0.37346949795E+00  0.15399991752E+02  0.16494735394E+02  0.51100000000E-03 0. -1.
        -11    1    3    3    0    0 -0.21930330085E+02 -0.97375945853E+01  0.11857705446E+02  0.26765001488E+02  0.51100000000E-03 0.  1.
        -12    1    3    3    0    0  0.12949979611E+02 -0.80126268512E+01 -0.50443488550E+01  0.16042120070E+02  0.00000000000E+00 0.  1.
</event>
<event>
 7    1  0.5832130E-012  0.5930195E+02  0.7816164E-02  0.1266605E+00
        -11   -1    0    0    0    0  0.00000000000E+00  0.00000000000E+00  0.45593999997E+02  0.45594000000E+02  0.51100000000E-03 0.  1.
         11   -1    0    0    0    0 -0.00000000000E+00 -0.00000000000E+00 -0.45593999997E+02  0.45594000000E+02  0.51100000000E-03 0. -1.
    9900012    2    1    2    0    0 -0.26304741792E+01 -0.22555157120E+02  0.22384494998E+02  0.59301950959E+02  0.50000012641E+02 0.  0.
         12    1    1    2    0    0  0.26304741792E+01  0.22555157120E+02 -0.22384494998E+02  0.31886049041E+02  0.00000000000E+00 0. -1.
         11    1    3    3    0    0  0.77978564391E+01 -0.24944070492E+01 -0.13806054803E+00  0.81882655397E+01  0.51100000000E-03 0. -1.
        -11    1    3    3    0    0  0.40831673093E+01 -0.15220949583E+02 -0.74740805169E+01  0.17441658216E+02  0.51100000000E-03 0.  1.
         12    1    3    3    0    0 -0.14511497928E+02 -0.48398004882E+01  0.29996636063E+02  0.33672027203E+02  0.00000000000E+00 0. -1.
</event>
<event>
 7    1  0.5832130E-012  0.5930195E+02  0.7816164E-02  0.1266605E+00
        -11   -1    0    0    0    0  0.00000000000E+00  0.00000000000E+00  0.45593999997E+02  0.45594000000E+02  0.51100000000E-03 0.  1.
         11   -1    0    0    0    0 -0.00000000000E+00 -0.00000000000E+00 -0.45593999997E+02  0.45594000000E+02  0.51100000000E-03 0. -1.
    9900012    2    1    2    0    0  0.11889769239E+02 -0.18710854721E+02  0.22918495293E+02  0.59301950959E+02  0.50000012642E+02 0.  0.
         12    1    1    2    0    0 -0.11889769239E+02  0.18710854721E+02 -0.22918495293E+02  0.31886049041E+02  0.00000000000E+00 0. -1.
         11    1    3    3    0    0  0.14016093237E+02 -0.10112149458E+01  0.85782923736E+01  0.16463915865E+02  0.51100000000E-03 0. -1.
        -11    1    3    3    0    0  0.79778219905E+01  0.45290544382E+01  0.15915257381E+02  0.18369904616E+02  0.51100000000E-03 0.  1.
         12    1    3    3    0    0 -0.10104145988E+02 -0.22228694213E+02 -0.15750544621E+01  0.24468130479E+02  0.00000000000E+00 0. -1.
</event>
<event>
 7    1  0.5832130E-012  0.5930195E+02  0.7816164E-02  0.1266605E+00
        -11   -1    0    0    0    0  0.00000000000E+00  0.00000000000E+00  0.45593999997E+02  0.45594000000E+02  0.51100000000E-03 0.  1.
         11   -1    0    0    0    0 -0.00000000000E+00 -0.00000000000E+00 -0.45593999997E+02  0.45594000000E+02  0.51100000000E-03 0. -1.
    9900012    2    1    2    0    0 -0.63969136245E+01  0.26359386314E+02  0.16762539244E+02  0.59301945483E+02  0.50000002654E+02 0.  0.
         12    1    1    2    0    0  0.63969136245E+01 -0.26359386314E+02 -0.16762539244E+02  0.31886054517E+02  0.00000000000E+00 0. -1.
         11    1    3    3    0    0 -0.19841631900E+01  0.17502657687E+02 -0.63194365537E+00  0.17626096638E+02  0.51100000000E-03 0. -1.
        -11    1    3    3    0    0  0.63286536192E+01  0.20636546360E+02  0.12757448050E+02  0.25073320149E+02  0.51100000000E-03 0.  1.
         12    1    3    3    0    0 -0.10741404054E+02 -0.11779817733E+02  0.46370348500E+01  0.16602528695E+02  0.00000000000E+00 0. -1.
</event>
<event>
 7    1  0.5832130E-012  0.5930196E+02  0.7816164E-02  0.1266605E+00
        -11   -1    0    0    0    0  0.00000000000E+00  0.00000000000E+00  0.45593999997E+02  0.45594000000E+02  0.51100000000E-03 0.  1.
         11   -1    0    0    0    0 -0.00000000000E+00 -0.00000000000E+00 -0.45593999997E+02  0.45594000000E+02  0.51100000000E-03 0. -1.
    9900012    2    1    2    0    0  0.25474673403E+02  0.37193358794E+00  0.19173482681E+02  0.59301956694E+02  0.50000023101E+02 0.  0.
         12    1    1    2    0    0 -0.25474673403E+02 -0.37193358794E+00 -0.19173482681E+02  0.31886043306E+02  0.00000000000E+00 0. -1.
         11    1    3    3    0    0  0.13714132482E+02  0.11666062753E+02  0.28705946530E+02  0.33885185795E+02  0.51100000000E-03 0. -1.
        -11    1    3    3    0    0  0.50194272040E+01  0.30635869561E+01  0.15328253000E+01  0.60769867661E+01  0.51100000000E-03 0.  1.
         12    1    3    3    0    0  0.67411137168E+01 -0.14357716121E+02 -0.11065289149E+02  0.19339784133E+02  0.00000000000E+00 0. -1.
</event>
<event>
 7    1  0.5832130E-012  0.5930192E+02  0.7816164E-02  0.1266605E+00
        -11   -1    0    0    0    0  0.00000000000E+00  0.00000000000E+00  0.45593999997E+02  0.45594000000E+02  0.51100000000E-03 0. -1.
         11   -1    0    0    0    0 -0.00000000000E+00 -0.00000000000E+00 -0.45593999997E+02  0.45594000000E+02  0.51100000000E-03 0.  1.
    9900012    2    1    2    0    0 -0.37057098851E+01  0.28470246533E+02 -0.13872084659E+02  0.59301922220E+02  0.49999960228E+02 0.  0.
         12    1    1    2    0    0  0.37057098851E+01 -0.28470246533E+02  0.13872084659E+02  0.31886077780E+02  0.00000000000E+00 0. -1.
         11    1    3    3    0    0 -0.83831476410E+01  0.59511787879E+00  0.31440220834E+01  0.89730822342E+01  0.51100000000E-03 0. -1.
        -11    1    3    3    0    0 -0.12582573385E+02  0.14960920837E+02  0.42965324569E+01  0.20015256598E+02  0.51100000000E-03 0.  1.
         12    1    3    3    0    0  0.17260011141E+02  0.12914207817E+02 -0.21312639199E+02  0.30313583387E+02  0.00000000000E+00 0. -1.
</event>
<event>
 7    1  0.5832130E-012  0.5930192E+02  0.7816164E-02  0.1266605E+00
        -11   -1    0    0    0    0  0.00000000000E+00  0.00000000000E+00  0.45593999997E+02  0.45594000000E+02  0.51100000000E-03 0. -1.
         11   -1    0    0    0    0 -0.00000000000E+00 -0.00000000000E+00 -0.45593999997E+02  0.45594000000E+02  0.51100000000E-03 0.  1.
    9900012    2    1    2    0    0  0.21151749319E+02  0.15473227191E+02  0.18163274862E+02  0.59301924471E+02  0.49999964332E+02 0.  0.
         12    1    1    2    0    0 -0.21151749319E+02 -0.15473227191E+02 -0.18163274862E+02  0.31886075529E+02  0.00000000000E+00 0. -1.
         11    1    3    3    0    0 -0.30712932109E+01 -0.14187783004E+01 -0.23987656066E+01  0.41472702528E+01  0.51100000000E-03 0. -1.
        -11    1    3    3    0    0  0.29795594515E+02 -0.35203506207E+01  0.11371120723E+02  0.32085397111E+02  0.51100000000E-03 0.  1.
         12    1    3    3    0    0 -0.55725519854E+01  0.20412356113E+02  0.91909197449E+01  0.23069257107E+02  0.00000000000E+00 0. -1.
</event>
<event>
 7    1  0.5832130E-012  0.5930193E+02  0.7816164E-02  0.1266605E+00
        -11   -1    0    0    0    0  0.00000000000E+00  0.00000000000E+00  0.45593999997E+02  0.45594000000E+02  0.51100000000E-03 0.  1.
         11   -1    0    0    0    0 -0.00000000000E+00 -0.00000000000E+00 -0.45593999997E+02  0.45594000000E+02  0.51100000000E-03 0. -1.
    9900012    2    1    2    0    0  0.37711399691E+01 -0.24053425058E+02  0.20589625710E+02  0.59301930305E+02  0.49999974974E+02 0.  0.
         12    1    1    2    0    0 -0.37711399691E+01  0.24053425058E+02 -0.20589625710E+02  0.31886069695E+02  0.00000000000E+00 0. -1.
         11    1    3    3    0    0 -0.17599988282E+02 -0.16286463009E+02  0.78318927324E+01  0.25225919386E+02  0.51100000000E-03 0. -1.
        -11    1    3    3    0    0  0.59612354991E+01 -0.24976630342E+01  0.16189918993E+02  0.17432387288E+02  0.51100000000E-03 0.  1.
         12    1    3    3    0    0  0.15409892752E+02 -0.52692990151E+01 -0.34321860151E+01  0.16643623631E+02  0.00000000000E+00 0. -1.
</event>
<event>
 7    1  0.5832130E-012  0.5930195E+02  0.7816164E-02  0.1266605E+00
        -11   -1    0    0    0    0  0.00000000000E+00  0.00000000000E+00  0.45593999997E+02  0.45594000000E+02  0.51100000000E-03 0. -1.
         11   -1    0    0    0    0 -0.00000000000E+00 -0.00000000000E+00 -0.45593999997E+02  0.45594000000E+02  0.51100000000E-03 0.  1.
    9900012    2    1    2    0    0 -0.89267630750E+01 -0.55851089836E+00 -0.30605901079E+02  0.59301949535E+02  0.50000010043E+02 0.  0.
         12    1    1    2    0    0  0.89267630750E+01  0.55851089836E+00  0.30605901079E+02  0.31886050465E+02  0.00000000000E+00 0. -1.
         11    1    3    3    0    0  0.18767529918E+01  0.10130600915E+01 -0.15998039683E+02  0.16139571447E+02  0.51100000000E-03 0. -1.
        -11    1    3    3    0    0 -0.13882255069E+02  0.41313816973E+01 -0.26168266952E+02  0.29909254689E+02  0.51100000000E-03 0.  1.
         12    1    3    3    0    0  0.30787390020E+01 -0.57029526872E+01  0.11560405556E+02  0.13253123398E+02  0.00000000000E+00 0. -1.
</event>
<event>
 7    1  0.5832130E-012  0.5930195E+02  0.7816164E-02  0.1266605E+00
        -11   -1    0    0    0    0  0.00000000000E+00  0.00000000000E+00  0.45593999997E+02  0.45594000000E+02  0.51100000000E-03 0.  1.
         11   -1    0    0    0    0 -0.00000000000E+00 -0.00000000000E+00 -0.45593999997E+02  0.45594000000E+02  0.51100000000E-03 0. -1.
    9900012    2    1    2    0    0 -0.15875141530E+02  0.90218330098E+01  0.26140137571E+02  0.59301946909E+02  0.50000005255E+02 0.  0.
         12    1    1    2    0    0  0.15875141530E+02 -0.90218330098E+01 -0.26140137571E+02  0.31886053091E+02  0.00000000000E+00 0. -1.
         11    1    3    3    0    0  0.79271692749E+01  0.53546145312E+01 -0.40759660296E+01  0.10398336830E+02  0.51100000000E-03 0. -1.
        -11    1    3    3    0    0 -0.27179420583E+01  0.14395578882E+02  0.95191686746E+01  0.17470960847E+02  0.51100000000E-03 0.  1.
         12    1    3    3    0    0 -0.21084368747E+02 -0.10728360404E+02  0.20696934926E+02  0.31432649232E+02  0.00000000000E+00 0. -1.
</event>
<event>
 7    1  0.5832130E-012  0.5930197E+02  0.7816164E-02  0.1266605E+00
        -11   -1    0    0    0    0  0.00000000000E+00  0.00000000000E+00  0.45593999997E+02  0.45594000000E+02  0.51100000000E-03 0. -1.
         11   -1    0    0    0    0 -0.00000000000E+00 -0.00000000000E+00 -0.45593999997E+02  0.45594000000E+02  0.51100000000E-03 0.  1.
    9900012    2    1    2    0    0  0.18045802375E+02 -0.55430779575E+01 -0.25697128587E+02  0.59301966784E+02  0.50000041503E+02 0.  0.
         12    1    1    2    0    0 -0.18045802375E+02  0.55430779575E+01  0.25697128587E+02  0.31886033216E+02  0.00000000000E+00 0. -1.
         11    1    3    3    0    0 -0.12163196891E+02 -0.86400165731E+01 -0.29952461224E+01  0.15217251545E+02  0.51100000000E-03 0. -1.
        -11    1    3    3    0    0 -0.90486575364E+00  0.16684360833E+01  0.31027992147E+01  0.36372825329E+01  0.51100000000E-03 0.  1.
        -12    1    3    3    0    0  0.31113865019E+02  0.14285025323E+01 -0.25804681680E+02  0.40447432706E+02  0.00000000000E+00 0.  1.
</event>
<event>
 7    1  0.5832130E-012  0.5930194E+02  0.7816164E-02  0.1266605E+00
        -11   -1    0    0    0    0  0.00000000000E+00  0.00000000000E+00  0.45593999997E+02  0.45594000000E+02  0.51100000000E-03 0.  1.
         11   -1    0    0    0    0 -0.00000000000E+00 -0.00000000000E+00 -0.45593999997E+02  0.45594000000E+02  0.51100000000E-03 0. -1.
    9900012    2    1    2    0    0  0.11216820483E+02  0.28042667951E+02  0.10223126018E+02  0.59301943594E+02  0.49999999208E+02 0.  0.
         12    1    1    2    0    0 -0.11216820483E+02 -0.28042667951E+02 -0.10223126018E+02  0.31886056406E+02  0.00000000000E+00 0. -1.
         11    1    3    3    0    0 -0.55613987069E+01 -0.51661002323E+01  0.83099227178E+01  0.11254890627E+02  0.51100000000E-03 0. -1.
        -11    1    3    3    0    0 -0.10713353792E+01  0.79763649297E+01  0.12933906119E+02  0.15233387172E+02  0.51100000000E-03 0.  1.
         12    1    3    3    0    0  0.17849554569E+02  0.25232403254E+02 -0.11020702818E+02  0.32813665794E+02  0.00000000000E+00 0. -1.
</event>
<event>
 7    1  0.5832130E-012  0.5930200E+02  0.7816164E-02  0.1266605E+00
        -11   -1    0    0    0    0  0.00000000000E+00  0.00000000000E+00  0.45593999997E+02  0.45594000000E+02  0.51100000000E-03 0.  1.
         11   -1    0    0    0    0 -0.00000000000E+00 -0.00000000000E+00 -0.45593999997E+02  0.45594000000E+02  0.51100000000E-03 0. -1.
    9900012    2    1    2    0    0 -0.14361342281E+02  0.22274015913E+02 -0.17729546556E+02  0.59302003730E+02  0.50000108883E+02 0.  0.
         12    1    1    2    0    0  0.14361342281E+02 -0.22274015913E+02  0.17729546556E+02  0.31885996270E+02  0.00000000000E+00 0. -1.
         11    1    3    3    0    0 -0.40521718004E+01 -0.85041649482E+01 -0.65278500722E+01  0.11460966128E+02  0.51100000000E-03 0. -1.
        -11    1    3    3    0    0 -0.19352232631E+02  0.12092220516E+02 -0.14184387871E+02  0.26868709763E+02  0.51100000000E-03 0.  1.
        -12    1    3    3    0    0  0.90430621500E+01  0.18685960345E+02  0.29826913868E+01  0.20972327839E+02  0.00000000000E+00 0.  1.
</event>
<event>
 7    1  0.5832130E-012  0.5930196E+02  0.7816164E-02  0.1266605E+00
        -11   -1    0    0    0    0  0.00000000000E+00  0.00000000000E+00  0.45593999997E+02  0.45594000000E+02  0.51100000000E-03 0.  1.
         11   -1    0    0    0    0 -0.00000000000E+00 -0.00000000000E+00 -0.45593999997E+02  0.45594000000E+02  0.51100000000E-03 0. -1.
    9900012    2    1    2    0    0  0.31703152178E+02  0.23414617901E+01 -0.24793821724E+01  0.59301958582E+02  0.50000026544E+02 0.  0.
         12    1    1    2    0    0 -0.31703152178E+02 -0.23414617901E+01  0.24793821724E+01  0.31886041418E+02  0.00000000000E+00 0. -1.
         11    1    3    3    0    0  0.26036543081E+02 -0.57774899896E+01 -0.16256069391E+01  0.26719348128E+02  0.51100000000E-03 0. -1.
        -11    1    3    3    0    0  0.79087322578E+01 -0.46020362769E+01  0.11508710279E+02  0.14702965563E+02  0.51100000000E-03 0.  1.
         12    1    3    3    0    0 -0.22421231609E+01  0.12720988057E+02 -0.12362485512E+02  0.17879644891E+02  0.00000000000E+00 0. -1.
</event>
<event>
 7    1  0.5832130E-012  0.5930193E+02  0.7816164E-02  0.1266605E+00
        -11   -1    0    0    0    0  0.00000000000E+00  0.00000000000E+00  0.45593999997E+02  0.45594000000E+02  0.51100000000E-03 0.  1.
         11   -1    0    0    0    0 -0.00000000000E+00 -0.00000000000E+00 -0.45593999997E+02  0.45594000000E+02  0.51100000000E-03 0. -1.
    9900012    2    1    2    0    0  0.76051156270E+00  0.29432380566E+02  0.12242471201E+02  0.59301929299E+02  0.49999973139E+02 0.  0.
         12    1    1    2    0    0 -0.76051156270E+00 -0.29432380566E+02 -0.12242471201E+02  0.31886070701E+02  0.00000000000E+00 0. -1.
         11    1    3    3    0    0 -0.18110703529E+01  0.11260589761E+02 -0.10638430285E+02  0.15596700189E+02  0.51100000000E-03 0. -1.
        -11    1    3    3    0    0  0.44129145396E+01  0.23855516247E+02  0.48899094566E+01  0.24748145080E+02  0.51100000000E-03 0.  1.
        -12    1    3    3    0    0 -0.18413326240E+01 -0.56837254412E+01  0.17990992030E+02  0.18957084030E+02  0.00000000000E+00 0.  1.
</event>
<event>
 7    1  0.5832130E-012  0.5930195E+02  0.7816164E-02  0.1266605E+00
        -11   -1    0    0    0    0  0.00000000000E+00  0.00000000000E+00  0.45593999997E+02  0.45594000000E+02  0.51100000000E-03 0.  1.
         11   -1    0    0    0    0 -0.00000000000E+00 -0.00000000000E+00 -0.45593999997E+02  0.45594000000E+02  0.51100000000E-03 0. -1.
    9900012    2    1    2    0    0  0.25065854163E+02 -0.91876348440E+01  0.17435904256E+02  0.59301946055E+02  0.50000003698E+02 0.  0.
         12    1    1    2    0    0 -0.25065854163E+02  0.91876348440E+01 -0.17435904256E+02  0.31886053945E+02  0.00000000000E+00 0. -1.
         11    1    3    3    0    0 -0.10888216069E+02 -0.20049837548E+01  0.56904455524E+01  0.12448067314E+02  0.51100000000E-03 0. -1.
        -11    1    3    3    0    0  0.24772782447E+02 -0.44293946100E+01  0.20443344890E+02  0.32422841290E+02  0.51100000000E-03 0.  1.
         12    1    3    3    0    0  0.11181287785E+02 -0.27532564792E+01 -0.86978861872E+01  0.14431037451E+02  0.00000000000E+00 0. -1.
</event>
<event>
 7    1  0.5832130E-012  0.5930194E+02  0.7816164E-02  0.1266605E+00
        -11   -1    0    0    0    0  0.00000000000E+00  0.00000000000E+00  0.45593999997E+02  0.45594000000E+02  0.51100000000E-03 0. -1.
         11   -1    0    0    0    0 -0.00000000000E+00 -0.00000000000E+00 -0.45593999997E+02  0.45594000000E+02  0.51100000000E-03 0.  1.
    9900012    2    1    2    0    0 -0.30093179591E+00  0.26280469774E+02 -0.18054562435E+02  0.59301939155E+02  0.49999991114E+02 0.  0.
         12    1    1    2    0    0  0.30093179591E+00 -0.26280469774E+02  0.18054562435E+02  0.31886060845E+02  0.00000000000E+00 0. -1.
         11    1    3    3    0    0  0.14360128404E+02  0.90345623070E+01  0.54589038692E+01  0.17822352133E+02  0.51100000000E-03 0. -1.
        -11    1    3    3    0    0  0.55358614681E+01  0.96709953904E+01 -0.14028315722E+02  0.17915567428E+02  0.51100000000E-03 0.  1.
        -12    1    3    3    0    0 -0.20196921668E+02  0.75749120763E+01 -0.94851505826E+01  0.23564019593E+02  0.00000000000E+00 0.  1.
</event>
<event>
 7    1  0.5832130E-012  0.5930191E+02  0.7816164E-02  0.1266605E+00
        -11   -1    0    0    0    0  0.00000000000E+00  0.00000000000E+00  0.45593999997E+02  0.45594000000E+02  0.51100000000E-03 0. -1.
         11   -1    0    0    0    0 -0.00000000000E+00 -0.00000000000E+00 -0.45593999997E+02  0.45594000000E+02  0.51100000000E-03 0.  1.
    9900012    2    1    2    0    0 -0.10455511510E+02 -0.29883193516E+02  0.37947401590E+01  0.59301905406E+02  0.49999929562E+02 0.  0.
         12    1    1    2    0    0  0.10455511510E+02  0.29883193516E+02 -0.37947401590E+01  0.31886094594E+02  0.00000000000E+00 0. -1.
         11    1    3    3    0    0  0.21394781716E+01  0.16948328055E+01  0.48894681978E+01  0.55997075463E+01  0.51100000000E-03 0. -1.
        -11    1    3    3    0    0  0.95680881012E+01 -0.29779585077E+02  0.15031028932E+01  0.31315033384E+02  0.51100000000E-03 0.  1.
        -12    1    3    3    0    0 -0.22163077782E+02 -0.17984412440E+01 -0.25978309320E+01  0.22387164475E+02  0.00000000000E+00 0.  1.
</event>
<event>
 7    1  0.5832130E-012  0.5930182E+02  0.7816164E-02  0.1266605E+00
        -11   -1    0    0    0    0  0.00000000000E+00  0.00000000000E+00  0.45593999997E+02  0.45594000000E+02  0.51100000000E-03 0.  1.
         11   -1    0    0    0    0 -0.00000000000E+00 -0.00000000000E+00 -0.45593999997E+02  0.45594000000E+02  0.51100000000E-03 0. -1.
    9900012    2    1    2    0    0 -0.14678683812E+02  0.16179620660E+01  0.28260342459E+02  0.59301819363E+02  0.49999772641E+02 0.  0.
         12    1    1    2    0    0  0.14678683812E+02 -0.16179620660E+01 -0.28260342459E+02  0.31886180637E+02  0.00000000000E+00 0. -1.
         11    1    3    3    0    0 -0.16784256420E+02 -0.18034233026E+01  0.87439955657E+01  0.19011077242E+02  0.51100000000E-03 0. -1.
        -11    1    3    3    0    0  0.37135965761E+01 -0.55656635384E+01  0.27414218664E+02  0.28218908472E+02  0.51100000000E-03 0.  1.
         12    1    3    3    0    0 -0.16080239675E+01  0.89870489070E+01 -0.78978717704E+01  0.12071833649E+02  0.00000000000E+00 0. -1.
</event>
<event>
 7    1  0.5832130E-012  0.5930196E+02  0.7816164E-02  0.1266605E+00
        -11   -1    0    0    0    0  0.00000000000E+00  0.00000000000E+00  0.45593999997E+02  0.45594000000E+02  0.51100000000E-03 0. -1.
         11   -1    0    0    0    0 -0.00000000000E+00 -0.00000000000E+00 -0.45593999997E+02  0.45594000000E+02  0.51100000000E-03 0.  1.
    9900012    2    1    2    0    0 -0.20526199468E+02  0.42377883202E+01 -0.24029899584E+02  0.59301956212E+02  0.50000022221E+02 0.  0.
         12    1    1    2    0    0  0.20526199468E+02 -0.42377883202E+01  0.24029899584E+02  0.31886043788E+02  0.00000000000E+00 0. -1.
         11    1    3    3    0    0 -0.10574097510E+02  0.75880942010E+01 -0.16469669460E+02  0.20991444070E+02  0.51100000000E-03 0. -1.
        -11    1    3    3    0    0  0.35799783547E+01 -0.17035100794E+02 -0.77728676302E+01  0.19063797511E+02  0.51100000000E-03 0.  1.
         12    1    3    3    0    0 -0.13532080313E+02  0.13684794913E+02  0.21263750613E+00  0.19246714632E+02  0.00000000000E+00 0. -1.
</event>
<event>
 7    1  0.5832130E-012  0.5930194E+02  0.7816164E-02  0.1266605E+00
        -11   -1    0    0    0    0  0.00000000000E+00  0.00000000000E+00  0.45593999997E+02  0.45594000000E+02  0.51100000000E-03 0.  1.
         11   -1    0    0    0    0 -0.00000000000E+00 -0.00000000000E+00 -0.45593999997E+02  0.45594000000E+02  0.51100000000E-03 0. -1.
    9900012    2    1    2    0    0  0.11746951329E+02 -0.28231512207E+02 -0.90394403583E+01  0.59301943032E+02  0.49999998183E+02 0.  0.
         12    1    1    2    0    0 -0.11746951329E+02  0.28231512207E+02  0.90394403583E+01  0.31886056968E+02  0.00000000000E+00 0. -1.
         11    1    3    3    0    0  0.11815562945E+02  0.52410969760E+01 -0.86250086838E+00  0.12954556466E+02  0.51100000000E-03 0. -1.
        -11    1    3    3    0    0  0.12394829650E+02 -0.15569272898E+02 -0.13304698835E+02  0.23938443391E+02  0.51100000000E-03 0.  1.
        -12    1    3    3    0    0 -0.12463441266E+02 -0.17903336284E+02  0.51277593451E+01  0.22408943175E+02  0.00000000000E+00 0.  1.
</event>
<event>
 7    1  0.5832130E-012  0.5930192E+02  0.7816164E-02  0.1266605E+00
        -11   -1    0    0    0    0  0.00000000000E+00  0.00000000000E+00  0.45593999997E+02  0.45594000000E+02  0.51100000000E-03 0.  1.
         11   -1    0    0    0    0 -0.00000000000E+00 -0.00000000000E+00 -0.45593999997E+02  0.45594000000E+02  0.51100000000E-03 0. -1.
    9900012    2    1    2    0    0  0.12714435971E+01  0.30296418177E+02 -0.98606463309E+01  0.59301923584E+02  0.49999962715E+02 0.  0.
         12    1    1    2    0    0 -0.12714435971E+01 -0.30296418177E+02  0.98606463309E+01  0.31886076416E+02  0.00000000000E+00 0. -1.
         11    1    3    3    0    0  0.59166786968E+01 -0.60253055133E+01 -0.18588091384E+02  0.20416379084E+02  0.51100000000E-03 0. -1.
        -11    1    3    3    0    0 -0.13330921804E+00  0.28375873094E+01  0.37953305090E+01  0.47406968917E+01  0.51100000000E-03 0.  1.
        -12    1    3    3    0    0 -0.45119258817E+01  0.33484136381E+02  0.49321145442E+01  0.34144847608E+02  0.00000000000E+00 0.  1.
</event>
<event>
 7    1  0.5832130E-012  0.5930193E+02  0.7816164E-02  0.1266605E+00
        -11   -1    0    0    0    0  0.00000000000E+00  0.00000000000E+00  0.45593999997E+02  0.45594000000E+02  0.51100000000E-03 0.  1.
         11   -1    0    0    0    0 -0.00000000000E+00 -0.00000000000E+00 -0.45593999997E+02  0.45594000000E+02  0.51100000000E-03 0. -1.
    9900012    2    1    2    0    0 -0.15744075344E+02 -0.10977259173E+02  0.25462623433E+02  0.59301932204E+02  0.49999978436E+02 0.  0.
         12    1    1    2    0    0  0.15744075344E+02  0.10977259173E+02 -0.25462623433E+02  0.31886067796E+02  0.00000000000E+00 0. -1.
         11    1    3    3    0    0  0.13205961623E+01  0.67886933614E+01  0.87949260191E+00  0.69716453780E+01  0.51100000000E-03 0. -1.
        -11    1    3    3    0    0 -0.57331795013E+01  0.78169106287E+01  0.22229628166E+02  0.24251387747E+02  0.51100000000E-03 0.  1.
        -12    1    3    3    0    0 -0.11331492005E+02 -0.25582863164E+02  0.23535026654E+01  0.28078899079E+02  0.00000000000E+00 0.  1.
</event>
<event>
 7    1  0.5832130E-012  0.5930195E+02  0.7816164E-02  0.1266605E+00
        -11   -1    0    0    0    0  0.00000000000E+00  0.00000000000E+00  0.45593999997E+02  0.45594000000E+02  0.51100000000E-03 0.  1.
         11   -1    0    0    0    0 -0.00000000000E+00 -0.00000000000E+00 -0.45593999997E+02  0.45594000000E+02  0.51100000000E-03 0. -1.
    9900012    2    1    2    0    0  0.16590990091E+02 -0.95661474973E+01  0.25494076794E+02  0.59301951613E+02  0.50000013834E+02 0.  0.
         12    1    1    2    0    0 -0.16590990091E+02  0.95661474973E+01 -0.25494076794E+02  0.31886048387E+02  0.00000000000E+00 0. -1.
         11    1    3    3    0    0 -0.12760930466E+02 -0.77452479137E+01 -0.35451460242E+01  0.15342694424E+02  0.51100000000E-03 0. -1.
        -11    1    3    3    0    0  0.25915936509E+00 -0.34423566047E+01  0.55341447660E+01  0.65225563335E+01  0.51100000000E-03 0.  1.
        -12    1    3    3    0    0  0.29092761192E+02  0.16214570210E+01  0.23505078053E+02  0.37436700855E+02  0.00000000000E+00 0.  1.
</event>
<event>
 7    1  0.5832130E-012  0.5930196E+02  0.7816164E-02  0.1266605E+00
        -11   -1    0    0    0    0  0.00000000000E+00  0.00000000000E+00  0.45593999997E+02  0.45594000000E+02  0.51100000000E-03 0.  1.
         11   -1    0    0    0    0 -0.00000000000E+00 -0.00000000000E+00 -0.45593999997E+02  0.45594000000E+02  0.51100000000E-03 0. -1.
    9900012    2    1    2    0    0 -0.69769966120E+01  0.12811902043E+02  0.28353066141E+02  0.59301957986E+02  0.50000025457E+02 0.  0.
         12    1    1    2    0    0  0.69769966120E+01 -0.12811902043E+02 -0.28353066141E+02  0.31886042014E+02  0.00000000000E+00 0. -1.
         11    1    3    3    0    0  0.29549304747E+01 -0.50877130031E+01  0.25721497814E+01  0.64212453987E+01  0.51100000000E-03 0. -1.
        -11    1    3    3    0    0  0.14551346630E+02  0.15643224416E+02  0.14559381052E+02  0.25853969439E+02  0.51100000000E-03 0.  1.
         12    1    3    3    0    0 -0.24483273716E+02  0.22563906300E+01  0.11221535308E+02  0.27026743149E+02  0.00000000000E+00 0. -1.
</event>
<event>
 7    1  0.5832130E-012  0.5930194E+02  0.7816164E-02  0.1266605E+00
        -11   -1    0    0    0    0  0.00000000000E+00  0.00000000000E+00  0.45593999997E+02  0.45594000000E+02  0.51100000000E-03 0.  1.
         11   -1    0    0    0    0 -0.00000000000E+00 -0.00000000000E+00 -0.45593999997E+02  0.45594000000E+02  0.51100000000E-03 0. -1.
    9900012    2    1    2    0    0 -0.31020303961E+01  0.28906711674E+02  0.13095818813E+02  0.59301936544E+02  0.49999986351E+02 0.  0.
         12    1    1    2    0    0  0.31020303961E+01 -0.28906711674E+02 -0.13095818813E+02  0.31886063456E+02  0.00000000000E+00 0. -1.
         11    1    3    3    0    0  0.26758680389E+01  0.29951004625E+02  0.23518034662E+02  0.38174872658E+02  0.51100000000E-03 0. -1.
        -11    1    3    3    0    0  0.55116970613E+01  0.31292957294E+01 -0.37770819022E+01  0.73781870547E+01  0.51100000000E-03 0.  1.
        -12    1    3    3    0    0 -0.11289595496E+02 -0.41735886807E+01 -0.66451339474E+01  0.13748876831E+02  0.00000000000E+00 0.  1.
</event>
<event>
 7    1  0.5832130E-012  0.5930194E+02  0.7816164E-02  0.1266605E+00
        -11   -1    0    0    0    0  0.00000000000E+00  0.00000000000E+00  0.45593999997E+02  0.45594000000E+02  0.51100000000E-03 0. -1.
         11   -1    0    0    0    0 -0.00000000000E+00 -0.00000000000E+00 -0.45593999997E+02  0.45594000000E+02  0.51100000000E-03 0.  1.
    9900012    2    1    2    0    0  0.28762921348E+02 -0.97662756783E+01 -0.96971649660E+01  0.59301940452E+02  0.49999993479E+02 0.  0.
         12    1    1    2    0    0 -0.28762921348E+02  0.97662756783E+01  0.96971649660E+01  0.31886059548E+02  0.00000000000E+00 0. -1.
         11    1    3    3    0    0  0.25060818411E+02  0.30218139496E+01  0.10920017307E+02  0.27503140861E+02  0.51100000000E-03 0. -1.
        -11    1    3    3    0    0 -0.76807430075E+01 -0.58496247534E+01 -0.38888484102E+01  0.10408413189E+02  0.51100000000E-03 0.  1.
        -12    1    3    3    0    0  0.11382845945E+02 -0.69384648744E+01 -0.16728333862E+02  0.21390386402E+02  0.00000000000E+00 0.  1.
</event>
<event>
 7    1  0.5832130E-012  0.5930195E+02  0.7816164E-02  0.1266605E+00
        -11   -1    0    0    0    0  0.00000000000E+00  0.00000000000E+00  0.45593999997E+02  0.45594000000E+02  0.51100000000E-03 0. -1.
         11   -1    0    0    0    0 -0.00000000000E+00 -0.00000000000E+00 -0.45593999997E+02  0.45594000000E+02  0.51100000000E-03 0.  1.
    9900012    2    1    2    0    0 -0.24893802366E+02 -0.27672050164E+01 -0.19732244636E+02  0.59301948219E+02  0.50000007644E+02 0.  0.
         12    1    1    2    0    0  0.24893802366E+02  0.27672050164E+01  0.19732244636E+02  0.31886051781E+02  0.00000000000E+00 0. -1.
         11    1    3    3    0    0 -0.15603545831E+02 -0.10176471347E+02 -0.30394682321E+01  0.18875104741E+02  0.51100000000E-03 0. -1.
        -11    1    3    3    0    0 -0.19461860721E+02  0.13561521285E+02 -0.15809780328E+02  0.28506631449E+02  0.51100000000E-03 0.  1.
         12    1    3    3    0    0  0.10171604186E+02 -0.61522549543E+01 -0.88299607544E+00  0.11920212029E+02  0.00000000000E+00 0. -1.
</event>
<event>
 7    1  0.5832130E-012  0.5930196E+02  0.7816164E-02  0.1266605E+00
        -11   -1    0    0    0    0  0.00000000000E+00  0.00000000000E+00  0.45593999997E+02  0.45594000000E+02  0.51100000000E-03 0.  1.
         11   -1    0    0    0    0 -0.00000000000E+00 -0.00000000000E+00 -0.45593999997E+02  0.45594000000E+02  0.51100000000E-03 0. -1.
    9900012    2    1    2    0    0 -0.57380069751E+01 -0.30584422453E+02 -0.69561358113E+01  0.59301961578E+02  0.50000032008E+02 0.  0.
         12    1    1    2    0    0  0.57380069751E+01  0.30584422453E+02  0.69561358113E+01  0.31886038422E+02  0.00000000000E+00 0. -1.
         11    1    3    3    0    0 -0.13566963079E+01 -0.18386700436E+00 -0.47880637214E+01  0.49799584745E+01  0.51100000000E-03 0. -1.
        -11    1    3    3    0    0 -0.22030139150E+02 -0.22598804521E+02 -0.10560014566E+02  0.33279827293E+02  0.51100000000E-03 0.  1.
         12    1    3    3    0    0  0.17648828483E+02 -0.78017509274E+01  0.83919424756E+01  0.21042175811E+02  0.00000000000E+00 0. -1.
</event>
<event>
 7    1  0.5832130E-012  0.5930198E+02  0.7816164E-02  0.1266605E+00
        -11   -1    0    0    0    0  0.00000000000E+00  0.00000000000E+00  0.45593999997E+02  0.45594000000E+02  0.51100000000E-03 0.  1.
         11   -1    0    0    0    0 -0.00000000000E+00 -0.00000000000E+00 -0.45593999997E+02  0.45594000000E+02  0.51100000000E-03 0. -1.
    9900012    2    1    2    0    0  0.15960820215E+02 -0.14100327509E+02  0.23730806493E+02  0.59301981204E+02  0.50000067801E+02 0.  0.
         12    1    1    2    0    0 -0.15960820215E+02  0.14100327509E+02 -0.23730806493E+02  0.31886018796E+02  0.00000000000E+00 0. -1.
         11    1    3    3    0    0 -0.12565176093E+01 -0.91426220088E+01 -0.54943952968E+01  0.10740333032E+02  0.51100000000E-03 0. -1.
        -11    1    3    3    0    0 -0.52330794441E+01 -0.76826624861E+01  0.23443404943E+02  0.25219073317E+02  0.51100000000E-03 0.  1.
         12    1    3    3    0    0  0.22450417269E+02  0.27249569857E+01  0.57817968468E+01  0.23342574856E+02  0.00000000000E+00 0. -1.
</event>
<event>
 7    1  0.5832130E-012  0.5930191E+02  0.7816164E-02  0.1266605E+00
        -11   -1    0    0    0    0  0.00000000000E+00  0.00000000000E+00  0.45593999997E+02  0.45594000000E+02  0.51100000000E-03 0.  1.
         11   -1    0    0    0    0 -0.00000000000E+00 -0.00000000000E+00 -0.45593999997E+02  0.45594000000E+02  0.51100000000E-03 0. -1.
    9900012    2    1    2    0    0  0.21682526715E+02  0.12097977665E+02  0.20005747136E+02  0.59301906687E+02  0.49999931899E+02 0.  0.
         12    1    1    2    0    0 -0.21682526715E+02 -0.12097977665E+02 -0.20005747136E+02  0.31886093313E+02  0.00000000000E+00 0. -1.
         11    1    3    3    0    0  0.15242466710E+02 -0.12061304192E+01 -0.30618739384E+01  0.15593672251E+02  0.51100000000E-03 0. -1.
        -11    1    3    3    0    0  0.19539154286E+02  0.23266789912E+01  0.93112471219E+01  0.21769044733E+02  0.51100000000E-03 0.  1.
        -12    1    3    3    0    0 -0.13099094282E+02  0.10977429093E+02  0.13756373953E+02  0.21939189703E+02  0.00000000000E+00 0.  1.
</event>
<event>
 7    1  0.5832130E-012  0.5930194E+02  0.7816164E-02  0.1266605E+00
        -11   -1    0    0    0    0  0.00000000000E+00  0.00000000000E+00  0.45593999997E+02  0.45594000000E+02  0.51100000000E-03 0. -1.
         11   -1    0    0    0    0 -0.00000000000E+00 -0.00000000000E+00 -0.45593999997E+02  0.45594000000E+02  0.51100000000E-03 0.  1.
    9900012    2    1    2    0    0 -0.51714888674E+01 -0.15068408201E+02 -0.27621002245E+02  0.59301937404E+02  0.49999987921E+02 0.  0.
         12    1    1    2    0    0  0.51714888674E+01  0.15068408201E+02  0.27621002245E+02  0.31886062596E+02  0.00000000000E+00 0. -1.
         11    1    3    3    0    0  0.93364388563E+01  0.11619561119E+01 -0.37752891552E+01  0.10137654610E+02  0.51100000000E-03 0. -1.
        -11    1    3    3    0    0 -0.10911296881E+02  0.28159276852E+01 -0.27246891670E+02  0.29485232817E+02  0.51100000000E-03 0.  1.
         12    1    3    3    0    0 -0.35966308431E+01 -0.19046291998E+02  0.34011785800E+01  0.19679049977E+02  0.00000000000E+00 0. -1.
</event>
<event>
 7    1  0.5832130E-012  0.5930193E+02  0.7816164E-02  0.1266605E+00
        -11   -1    0    0    0    0  0.00000000000E+00  0.00000000000E+00  0.45593999997E+02  0.45594000000E+02  0.51100000000E-03 0.  1.
         11   -1    0    0    0    0 -0.00000000000E+00 -0.00000000000E+00 -0.45593999997E+02  0.45594000000E+02  0.51100000000E-03 0. -1.
    9900012    2    1    2    0    0  0.21398582285E+02  0.16973529024E+02  0.16453617814E+02  0.59301928581E+02  0.49999971830E+02 0.  0.
         12    1    1    2    0    0 -0.21398582285E+02 -0.16973529024E+02 -0.16453617814E+02  0.31886071419E+02  0.00000000000E+00 0. -1.
         11    1    3    3    0    0 -0.30024198623E+01 -0.39310640878E+00 -0.73933606325E+01  0.79894204660E+01  0.51100000000E-03 0. -1.
        -11    1    3    3    0    0 -0.50654617715E+01  0.12415086526E+02  0.15067348294E+02  0.20169736272E+02  0.51100000000E-03 0.  1.
         12    1    3    3    0    0  0.29466463919E+02  0.49515489068E+01  0.87796301523E+01  0.31142771843E+02  0.00000000000E+00 0. -1.
</event>
<event>
 7    1  0.5832130E-012  0.5930195E+02  0.7816164E-02  0.1266605E+00
        -11   -1    0    0    0    0  0.00000000000E+00  0.00000000000E+00  0.45593999997E+02  0.45594000000E+02  0.51100000000E-03 0.  1.
         11   -1    0    0    0    0 -0.00000000000E+00 -0.00000000000E+00 -0.45593999997E+02  0.45594000000E+02  0.51100000000E-03 0. -1.
    9900012    2    1    2    0    0 -0.22022566780E+02 -0.42604379404E+01  0.22662203667E+02  0.59301948911E+02  0.50000008906E+02 0.  0.
         12    1    1    2    0    0  0.22022566780E+02  0.42604379404E+01 -0.22662203667E+02  0.31886051089E+02  0.00000000000E+00 0. -1.
         11    1    3    3    0    0 -0.40532975039E+01 -0.14347198284E+02  0.65030701664E+01  0.16265338641E+02  0.51100000000E-03 0. -1.
        -11    1    3    3    0    0 -0.15540906450E+02 -0.95042120979E+01  0.11779660791E+01  0.18254791843E+02  0.51100000000E-03 0.  1.
         12    1    3    3    0    0 -0.24283628260E+01  0.19590972442E+02  0.14981167421E+02  0.24781818427E+02  0.00000000000E+00 0. -1.
</event>
<event>
 7    1  0.5832130E-012  0.5930195E+02  0.7816164E-02  0.1266605E+00
        -11   -1    0    0    0    0  0.00000000000E+00  0.00000000000E+00  0.45593999997E+02  0.45594000000E+02  0.51100000000E-03 0.  1.
         11   -1    0    0    0    0 -0.00000000000E+00 -0.00000000000E+00 -0.45593999997E+02  0.45594000000E+02  0.51100000000E-03 0. -1.
    9900012    2    1    2    0    0  0.30716247995E+02  0.42212264084E+01 -0.74440123561E+01  0.59301953471E+02  0.50000017222E+02 0.  0.
         12    1    1    2    0    0 -0.30716247995E+02 -0.42212264084E+01  0.74440123561E+01  0.31886046529E+02  0.00000000000E+00 0. -1.
         11    1    3    3    0    0 -0.31133207749E+01  0.18473402208E+01 -0.37160596051E+01  0.51879216829E+01  0.51100000000E-03 0. -1.
        -11    1    3    3    0    0  0.18859315514E+02  0.20030508309E+02  0.73129539830E+01  0.28467074683E+02  0.51100000000E-03 0.  1.
         12    1    3    3    0    0  0.14970253256E+02 -0.17656622121E+02 -0.11040906734E+02  0.25646957105E+02  0.00000000000E+00 0. -1.
</event>
<event>
 7    1  0.5832130E-012  0.5930195E+02  0.7816164E-02  0.1266605E+00
        -11   -1    0    0    0    0  0.00000000000E+00  0.00000000000E+00  0.45593999997E+02  0.45594000000E+02  0.51100000000E-03 0. -1.
         11   -1    0    0    0    0 -0.00000000000E+00 -0.00000000000E+00 -0.45593999997E+02  0.45594000000E+02  0.51100000000E-03 0.  1.
    9900012    2    1    2    0    0 -0.22705717365E+00  0.18409596970E+02 -0.26033736815E+02  0.59301948691E+02  0.50000008504E+02 0.  0.
         12    1    1    2    0    0  0.22705717365E+00 -0.18409596970E+02  0.26033736815E+02  0.31886051309E+02  0.00000000000E+00 0. -1.
         11    1    3    3    0    0  0.16047575130E+01  0.14558073655E+02 -0.47116598562E+01  0.15385463727E+02  0.51100000000E-03 0. -1.
        -11    1    3    3    0    0  0.87247166127E+01  0.15314421332E+02 -0.22155311204E+02  0.28310951865E+02  0.51100000000E-03 0.  1.
        -12    1    3    3    0    0 -0.10556531299E+02 -0.11462898017E+02  0.83323424498E+00  0.15605533100E+02  0.00000000000E+00 0.  1.
</event>
<event>
 7    1  0.5832130E-012  0.5930195E+02  0.7816164E-02  0.1266605E+00
        -11   -1    0    0    0    0  0.00000000000E+00  0.00000000000E+00  0.45593999997E+02  0.45594000000E+02  0.51100000000E-03 0.  1.
         11   -1    0    0    0    0 -0.00000000000E+00 -0.00000000000E+00 -0.45593999997E+02  0.45594000000E+02  0.51100000000E-03 0. -1.
    9900012    2    1    2    0    0  0.31061704550E+02 -0.12357202091E+01  0.70967585644E+01  0.59301945429E+02  0.50000002556E+02 0.  0.
         12    1    1    2    0    0 -0.31061704550E+02  0.12357202091E+01 -0.70967585644E+01  0.31886054571E+02  0.00000000000E+00 0. -1.
         11    1    3    3    0    0  0.28428679722E+01 -0.42470664783E+01 -0.74494816071E+01  0.90340604633E+01  0.51100000000E-03 0. -1.
        -11    1    3    3    0    0  0.63463461554E+01 -0.34802531873E+01 -0.12768917523E+02  0.14677653993E+02  0.51100000000E-03 0.  1.
        -12    1    3    3    0    0  0.21872490422E+02  0.64915994565E+01  0.27315157695E+02  0.35590230972E+02  0.00000000000E+00 0.  1.
</event>
<event>
 7    1  0.5832130E-012  0.5930196E+02  0.7816164E-02  0.1266605E+00
        -11   -1    0    0    0    0  0.00000000000E+00  0.00000000000E+00  0.45593999997E+02  0.45594000000E+02  0.51100000000E-03 0.  1.
         11   -1    0    0    0    0 -0.00000000000E+00 -0.00000000000E+00 -0.45593999997E+02  0.45594000000E+02  0.51100000000E-03 0. -1.
    9900012    2    1    2    0    0 -0.80083303916E+01 -0.13058044767E+02  0.27965582725E+02  0.59301957506E+02  0.50000024580E+02 0.  0.
         12    1    1    2    0    0  0.80083303916E+01  0.13058044767E+02 -0.27965582725E+02  0.31886042494E+02  0.00000000000E+00 0. -1.
         11    1    3    3    0    0  0.10686916288E+02  0.33871124801E+01  0.51158842332E+01  0.12322945364E+02  0.51100000000E-03 0. -1.
        -11    1    3    3    0    0  0.36871086111E+01 -0.18094192685E+02  0.84013502184E+01  0.20287367118E+02  0.51100000000E-03 0.  1.
        -12    1    3    3    0    0 -0.22382355290E+02  0.16490354378E+01  0.14448348273E+02  0.26691645023E+02  0.00000000000E+00 0.  1.
</event>
<event>
 7    1  0.5832130E-012  0.5930194E+02  0.7816164E-02  0.1266605E+00
        -11   -1    0    0    0    0  0.00000000000E+00  0.00000000000E+00  0.45593999997E+02  0.45594000000E+02  0.51100000000E-03 0.  1.
         11   -1    0    0    0    0 -0.00000000000E+00 -0.00000000000E+00 -0.45593999997E+02  0.45594000000E+02  0.51100000000E-03 0. -1.
    9900012    2    1    2    0    0 -0.26398068096E+02  0.13149121058E+02 -0.12122838896E+02  0.59301943381E+02  0.49999998820E+02 0.  0.
         12    1    1    2    0    0  0.26398068096E+02 -0.13149121058E+02  0.12122838896E+02  0.31886056619E+02  0.00000000000E+00 0. -1.
         11    1    3    3    0    0 -0.13650981822E+02 -0.41891305120E+01  0.65632626187E+01  0.15715423495E+02  0.51100000000E-03 0. -1.
        -11    1    3    3    0    0 -0.19027422929E+02  0.42399834903E+01  0.52575678840E+00  0.19501197496E+02  0.51100000000E-03 0.  1.
         12    1    3    3    0    0  0.62803366543E+01  0.13098268080E+02 -0.19211858303E+02  0.24085322391E+02  0.00000000000E+00 0. -1.
</event>
<event>
 7    1  0.5832130E-012  0.5930194E+02  0.7816164E-02  0.1266605E+00
        -11   -1    0    0    0    0  0.00000000000E+00  0.00000000000E+00  0.45593999997E+02  0.45594000000E+02  0.51100000000E-03 0. -1.
         11   -1    0    0    0    0 -0.00000000000E+00 -0.00000000000E+00 -0.45593999997E+02  0.45594000000E+02  0.51100000000E-03 0.  1.
    9900012    2    1    2    0    0 -0.50408640997E+00  0.24391743446E+02 -0.20530705899E+02  0.59301935079E+02  0.49999983680E+02 0.  0.
         12    1    1    2    0    0  0.50408640997E+00 -0.24391743446E+02  0.20530705899E+02  0.31886064921E+02  0.00000000000E+00 0. -1.
         11    1    3    3    0    0  0.84876040963E+01  0.19467834372E+02  0.38014876477E+01  0.21575154855E+02  0.51100000000E-03 0. -1.
        -11    1    3    3    0    0  0.75587107138E+01  0.90124548959E+01 -0.92304507519E+01  0.14951911993E+02  0.51100000000E-03 0.  1.
         12    1    3    3    0    0 -0.16550401220E+02 -0.40885458221E+01 -0.15101742795E+02  0.22774868231E+02  0.00000000000E+00 0. -1.
</event>
<event>
 7    1  0.5832130E-012  0.5930194E+02  0.7816164E-02  0.1266605E+00
        -11   -1    0    0    0    0  0.00000000000E+00  0.00000000000E+00  0.45593999997E+02  0.45594000000E+02  0.51100000000E-03 0.  1.
         11   -1    0    0    0    0 -0.00000000000E+00 -0.00000000000E+00 -0.45593999997E+02  0.45594000000E+02  0.51100000000E-03 0. -1.
    9900012    2    1    2    0    0 -0.30467674548E+02 -0.93813106218E+01  0.65776766393E+00  0.59301939728E+02  0.49999992159E+02 0.  0.
         12    1    1    2    0    0  0.30467674548E+02  0.93813106218E+01 -0.65776766393E+00  0.31886060272E+02  0.00000000000E+00 0. -1.
         11    1    3    3    0    0 -0.32495924944E+01  0.11235841065E+02  0.90681044778E+01  0.14799814015E+02  0.51100000000E-03 0. -1.
        -11    1    3    3    0    0 -0.21194894738E+02 -0.82382627747E+00 -0.10572838113E+02  0.23699940057E+02  0.51100000000E-03 0.  1.
         12    1    3    3    0    0 -0.60231873155E+01 -0.19793325409E+02  0.21625012988E+01  0.20802185655E+02  0.00000000000E+00 0. -1.
</event>
<event>
 7    1  0.5832130E-012  0.5930194E+02  0.7816164E-02  0.1266605E+00
        -11   -1    0    0    0    0  0.00000000000E+00  0.00000000000E+00  0.45593999997E+02  0.45594000000E+02  0.51100000000E-03 0.  1.
         11   -1    0    0    0    0 -0.00000000000E+00 -0.00000000000E+00 -0.45593999997E+02  0.45594000000E+02  0.51100000000E-03 0. -1.
    9900012    2    1    2    0    0 -0.22131994968E+02  0.92936332257E+01  0.20988668595E+02  0.59301936756E+02  0.49999986738E+02 0.  0.
         12    1    1    2    0    0  0.22131994968E+02 -0.92936332257E+01 -0.20988668595E+02  0.31886063244E+02  0.00000000000E+00 0. -1.
         11    1    3    3    0    0 -0.25099709224E+02  0.16512859037E+01 -0.26459139576E+01  0.25292746178E+02  0.51100000000E-03 0. -1.
        -11    1    3    3    0    0 -0.87562725652E+01 -0.13162820208E+01  0.13365282236E+02  0.16032332241E+02  0.51100000000E-03 0.  1.
         12    1    3    3    0    0  0.11723986821E+02  0.89586293427E+01  0.10269300317E+02  0.17976858337E+02  0.00000000000E+00 0. -1.
</event>
<event>
 7    1  0.5832130E-012  0.5930195E+02  0.7816164E-02  0.1266605E+00
        -11   -1    0    0    0    0  0.00000000000E+00  0.00000000000E+00  0.45593999997E+02  0.45594000000E+02  0.51100000000E-03 0.  1.
         11   -1    0    0    0    0 -0.00000000000E+00 -0.00000000000E+00 -0.45593999997E+02  0.45594000000E+02  0.51100000000E-03 0. -1.
    9900012    2    1    2    0    0  0.31147228552E+02 -0.52489692458E+01 -0.43610552960E+01  0.59301947752E+02  0.50000006793E+02 0.  0.
         12    1    1    2    0    0 -0.31147228552E+02  0.52489692458E+01  0.43610552960E+01  0.31886052248E+02  0.00000000000E+00 0. -1.
         11    1    3    3    0    0  0.43232526832E+01  0.33345130619E+00 -0.11361912714E+02  0.12161199131E+02  0.51100000000E-03 0. -1.
        -11    1    3    3    0    0  0.17545482886E+02 -0.20148278010E+02 -0.34746261228E+01  0.26941976606E+02  0.51100000000E-03 0.  1.
         12    1    3    3    0    0  0.92784929835E+01  0.14565857458E+02  0.10475483541E+02  0.20198772016E+02  0.00000000000E+00 0. -1.
</event>
<event>
 7    1  0.5832130E-012  0.5930194E+02  0.7816164E-02  0.1266605E+00
        -11   -1    0    0    0    0  0.00000000000E+00  0.00000000000E+00  0.45593999997E+02  0.45594000000E+02  0.51100000000E-03 0.  1.
         11   -1    0    0    0    0 -0.00000000000E+00 -0.00000000000E+00 -0.45593999997E+02  0.45594000000E+02  0.51100000000E-03 0. -1.
    9900012    2    1    2    0    0 -0.31682169517E+02 -0.30221879297E+01 -0.19563909169E+01  0.59301937989E+02  0.49999988986E+02 0.  0.
         12    1    1    2    0    0  0.31682169517E+02  0.30221879297E+01  0.19563909169E+01  0.31886062011E+02  0.00000000000E+00 0. -1.
         11    1    3    3    0    0 -0.12981627899E+02 -0.13439898546E+02 -0.10874238258E+02  0.21619495687E+02  0.51100000000E-03 0. -1.
        -11    1    3    3    0    0 -0.38700098713E+01 -0.55225204217E+01  0.13808846898E+02  0.15367480637E+02  0.51100000000E-03 0.  1.
         12    1    3    3    0    0 -0.14830531747E+02  0.15940231038E+02 -0.48909995572E+01  0.22314961665E+02  0.00000000000E+00 0. -1.
</event>
<event>
 7    1  0.5832130E-012  0.5930192E+02  0.7816164E-02  0.1266605E+00
        -11   -1    0    0    0    0  0.00000000000E+00  0.00000000000E+00  0.45593999997E+02  0.45594000000E+02  0.51100000000E-03 0.  1.
         11   -1    0    0    0    0 -0.00000000000E+00 -0.00000000000E+00 -0.45593999997E+02  0.45594000000E+02  0.51100000000E-03 0. -1.
    9900012    2    1    2    0    0  0.31491313613E+02  0.44983690022E+01  0.21871770221E+01  0.59301923100E+02  0.49999961833E+02 0.  0.
         12    1    1    2    0    0 -0.31491313613E+02 -0.44983690022E+01 -0.21871770221E+01  0.31886076900E+02  0.00000000000E+00 0. -1.
         11    1    3    3    0    0  0.25821035920E+02 -0.18209471283E+02  0.64116168845E+01  0.32240030579E+02  0.51100000000E-03 0. -1.
        -11    1    3    3    0    0  0.83030140174E+01  0.92472205142E+01 -0.48286311779E+01  0.13332921972E+02  0.51100000000E-03 0.  1.
        -12    1    3    3    0    0 -0.26327363249E+01  0.13460619771E+02  0.60419131557E+00  0.13728970549E+02  0.00000000000E+00 0.  1.
</event>
<event>
 7    1  0.5832130E-012  0.5930194E+02  0.7816164E-02  0.1266605E+00
        -11   -1    0    0    0    0  0.00000000000E+00  0.00000000000E+00  0.45593999997E+02  0.45594000000E+02  0.51100000000E-03 0.  1.
         11   -1    0    0    0    0 -0.00000000000E+00 -0.00000000000E+00 -0.45593999997E+02  0.45594000000E+02  0.51100000000E-03 0. -1.
    9900012    2    1    2    0    0 -0.25526111687E+01  0.31644296185E+02  0.29737638455E+01  0.59301943859E+02  0.49999999692E+02 0.  0.
         12    1    1    2    0    0  0.25526111687E+01 -0.31644296185E+02 -0.29737638455E+01  0.31886056141E+02  0.00000000000E+00 0. -1.
         11    1    3    3    0    0 -0.37060266974E+01  0.31487463554E+01  0.66476439533E+01  0.82365288734E+01  0.51100000000E-03 0. -1.
        -11    1    3    3    0    0  0.18100091766E+02  0.18530962207E+02  0.92869559196E+01  0.27518310864E+02  0.51100000000E-03 0.  1.
         12    1    3    3    0    0 -0.16946676238E+02  0.99645876222E+01 -0.12960836027E+02  0.23547104122E+02  0.00000000000E+00 0. -1.
</event>
<event>
 7    1  0.5832130E-012  0.5930192E+02  0.7816164E-02  0.1266605E+00
        -11   -1    0    0    0    0  0.00000000000E+00  0.00000000000E+00  0.45593999997E+02  0.45594000000E+02  0.51100000000E-03 0.  1.
         11   -1    0    0    0    0 -0.00000000000E+00 -0.00000000000E+00 -0.45593999997E+02  0.45594000000E+02  0.51100000000E-03 0. -1.
    9900012    2    1    2    0    0 -0.72779784382E+00  0.23656165292E+01  0.31789877578E+02  0.59301919217E+02  0.49999954752E+02 0.  0.
         12    1    1    2    0    0  0.72779784382E+00 -0.23656165292E+01 -0.31789877578E+02  0.31886080783E+02  0.00000000000E+00 0. -1.
         11    1    3    3    0    0 -0.53722659005E+01 -0.54333036135E+01  0.63949723430E+00  0.76675280264E+01  0.51100000000E-03 0. -1.
        -11    1    3    3    0    0  0.12241816562E+02 -0.13606783112E+02  0.16191718695E+02  0.24437233353E+02  0.51100000000E-03 0.  1.
         12    1    3    3    0    0 -0.75973485051E+01  0.21405703255E+02  0.14958661649E+02  0.27197157838E+02  0.00000000000E+00 0. -1.
</event>
<event>
 7    1  0.5832130E-012  0.5930193E+02  0.7816164E-02  0.1266605E+00
        -11   -1    0    0    0    0  0.00000000000E+00  0.00000000000E+00  0.45593999997E+02  0.45594000000E+02  0.51100000000E-03 0.  1.
         11   -1    0    0    0    0 -0.00000000000E+00 -0.00000000000E+00 -0.45593999997E+02  0.45594000000E+02  0.51100000000E-03 0. -1.
    9900012    2    1    2    0    0  0.45819767124E+01 -0.10378829537E+01  0.31538065860E+02  0.59301932356E+02  0.49999978714E+02 0.  0.
         12    1    1    2    0    0 -0.45819767124E+01  0.10378829537E+01 -0.31538065860E+02  0.31886067644E+02  0.00000000000E+00 0. -1.
         11    1    3    3    0    0  0.10789512647E+02 -0.91448836803E+01  0.10623642172E+02  0.17689099863E+02  0.51100000000E-03 0.  1.
        -11    1    3    3    0    0 -0.32240053326E+01  0.10474022275E+02 -0.72836850157E+01  0.13158701329E+02  0.51100000000E-03 0. -1.
         12    1    3    3    0    0 -0.29835306020E+01 -0.23670215487E+01  0.28198108703E+02  0.28454131164E+02  0.00000000000E+00 0. -1.
</event>
<event>
 7    1  0.5832130E-012  0.5930196E+02  0.7816164E-02  0.1266605E+00
        -11   -1    0    0    0    0  0.00000000000E+00  0.00000000000E+00  0.45593999997E+02  0.45594000000E+02  0.51100000000E-03 0. -1.
         11   -1    0    0    0    0 -0.00000000000E+00 -0.00000000000E+00 -0.45593999997E+02  0.45594000000E+02  0.51100000000E-03 0.  1.
    9900012    2    1    2    0    0  0.25501894104E+02 -0.14969330230E+02 -0.11928633105E+02  0.59301957000E+02  0.50000023659E+02 0.  0.
         12    1    1    2    0    0 -0.25501894104E+02  0.14969330230E+02  0.11928633105E+02  0.31886043000E+02  0.00000000000E+00 0. -1.
         11    1    3    3    0    0  0.97015023800E+01 -0.58114222461E+01  0.48152292202E+01  0.12291387621E+02  0.51100000000E-03 0. -1.
        -11    1    3    3    0    0  0.25654579930E+02  0.26374047275E+01 -0.22552634010E+01  0.25888213309E+02  0.51100000000E-03 0.  1.
        -12    1    3    3    0    0 -0.98541882061E+01 -0.11795312711E+02 -0.14488598925E+02  0.21122356070E+02  0.00000000000E+00 0.  1.
</event>
<event>
 7    1  0.5832130E-012  0.5930197E+02  0.7816164E-02  0.1266605E+00
        -11   -1    0    0    0    0  0.00000000000E+00  0.00000000000E+00  0.45593999997E+02  0.45594000000E+02  0.51100000000E-03 0.  1.
         11   -1    0    0    0    0 -0.00000000000E+00 -0.00000000000E+00 -0.45593999997E+02  0.45594000000E+02  0.51100000000E-03 0. -1.
    9900012    2    1    2    0    0  0.39531745407E+01  0.13942832985E+02  0.28402270801E+02  0.59301965953E+02  0.50000039987E+02 0.  0.
         12    1    1    2    0    0 -0.39531745407E+01 -0.13942832985E+02 -0.28402270801E+02  0.31886034047E+02  0.00000000000E+00 0. -1.
         11    1    3    3    0    0  0.14139488954E+02  0.96990759447E+00  0.20325060184E+01  0.14317714538E+02  0.51100000000E-03 0. -1.
        -11    1    3    3    0    0  0.13372376113E+01 -0.86272393345E+01  0.16343117302E+02  0.18528759979E+02  0.51100000000E-03 0.  1.
        -12    1    3    3    0    0 -0.11523552025E+02  0.21600164724E+02  0.10026647480E+02  0.26455491435E+02  0.00000000000E+00 0.  1.
</event>
<event>
 7    1  0.5832130E-012  0.5930185E+02  0.7816164E-02  0.1266605E+00
        -11   -1    0    0    0    0  0.00000000000E+00  0.00000000000E+00  0.45593999997E+02  0.45594000000E+02  0.51100000000E-03 0.  1.
         11   -1    0    0    0    0 -0.00000000000E+00 -0.00000000000E+00 -0.45593999997E+02  0.45594000000E+02  0.51100000000E-03 0. -1.
    9900012    2    1    2    0    0 -0.28431820589E+02 -0.56761423824E+01  0.13271757101E+02  0.59301850172E+02  0.49999828829E+02 0.  0.
         12    1    1    2    0    0  0.28431820589E+02  0.56761423824E+01 -0.13271757101E+02  0.31886149828E+02  0.00000000000E+00 0. -1.
         11    1    3    3    0    0 -0.61834240733E+01  0.42736212924E+01  0.16013568459E+02  0.17689910889E+02  0.51100000000E-03 0. -1.
        -11    1    3    3    0    0 -0.29167088298E+02 -0.26939453332E+01 -0.78989202700E+01  0.30337589273E+02  0.51100000000E-03 0.  1.
         12    1    3    3    0    0  0.69186917825E+01 -0.72558183416E+01  0.51571089121E+01  0.11274350009E+02  0.00000000000E+00 0. -1.
</event>
<event>
 7    1  0.5832130E-012  0.5930195E+02  0.7816164E-02  0.1266605E+00
        -11   -1    0    0    0    0  0.00000000000E+00  0.00000000000E+00  0.45593999997E+02  0.45594000000E+02  0.51100000000E-03 0.  1.
         11   -1    0    0    0    0 -0.00000000000E+00 -0.00000000000E+00 -0.45593999997E+02  0.45594000000E+02  0.51100000000E-03 0. -1.
    9900012    2    1    2    0    0 -0.42591941634E+01  0.79863524658E+00  0.31590217933E+02  0.59301946274E+02  0.50000004096E+02 0.  0.
         12    1    1    2    0    0  0.42591941634E+01 -0.79863524658E+00 -0.31590217933E+02  0.31886053726E+02  0.00000000000E+00 0. -1.
         11    1    3    3    0    0 -0.89036421687E+00 -0.14099192538E+02  0.94007526543E+01  0.16969211219E+02  0.51100000000E-03 0. -1.
        -11    1    3    3    0    0 -0.99983256213E+01  0.24881133481E+01  0.25822154425E+02  0.27801814378E+02  0.51100000000E-03 0.  1.
        -12    1    3    3    0    0  0.66294956748E+01  0.12409714436E+02 -0.36326891469E+01  0.14530920677E+02  0.00000000000E+00 0.  1.
</event>
<event>
 7    1  0.5832130E-012  0.5930194E+02  0.7816164E-02  0.1266605E+00
        -11   -1    0    0    0    0  0.00000000000E+00  0.00000000000E+00  0.45593999997E+02  0.45594000000E+02  0.51100000000E-03 0.  1.
         11   -1    0    0    0    0 -0.00000000000E+00 -0.00000000000E+00 -0.45593999997E+02  0.45594000000E+02  0.51100000000E-03 0. -1.
    9900012    2    1    2    0    0 -0.28835023082E+02 -0.97598211847E+01  0.94872577948E+01  0.59301941508E+02  0.49999995404E+02 0.  0.
         12    1    1    2    0    0  0.28835023082E+02  0.97598211847E+01 -0.94872577948E+01  0.31886058492E+02  0.00000000000E+00 0. -1.
         11    1    3    3    0    0 -0.42226824390E+01 -0.52185393416E+01  0.54309450012E+01  0.86347764133E+01  0.51100000000E-03 0. -1.
        -11    1    3    3    0    0 -0.35568756674E+02 -0.94080299800E+01  0.87067389693E+01  0.37808131178E+02  0.51100000000E-03 0.  1.
         12    1    3    3    0    0  0.10956416031E+02  0.48667481369E+01 -0.46504261757E+01  0.12859033917E+02  0.00000000000E+00 0. -1.
</event>
<event>
 7    1  0.5832130E-012  0.5930196E+02  0.7816164E-02  0.1266605E+00
        -11   -1    0    0    0    0  0.00000000000E+00  0.00000000000E+00  0.45593999997E+02  0.45594000000E+02  0.51100000000E-03 0. -1.
         11   -1    0    0    0    0 -0.00000000000E+00 -0.00000000000E+00 -0.45593999997E+02  0.45594000000E+02  0.51100000000E-03 0.  1.
    9900012    2    1    2    0    0  0.48194972107E+01 -0.17991580518E+02 -0.25880399781E+02  0.59301958921E+02  0.50000027161E+02 0.  0.
         12    1    1    2    0    0 -0.48194972107E+01  0.17991580518E+02  0.25880399781E+02  0.31886041079E+02  0.00000000000E+00 0. -1.
         11    1    3    3    0    0  0.20231136175E+02 -0.77761668484E+00 -0.98364169067E+01  0.22509079423E+02  0.51100000000E-03 0. -1.
        -11    1    3    3    0    0  0.74485132995E+00  0.11337379203E+01 -0.11923925574E+02  0.12000840242E+02  0.51100000000E-03 0.  1.
         12    1    3    3    0    0 -0.16156490295E+02 -0.18347701754E+02 -0.41200573002E+01  0.24792039255E+02  0.00000000000E+00 0. -1.
</event>
<event>
 7    1  0.5832130E-012  0.5930191E+02  0.7816164E-02  0.1266605E+00
        -11   -1    0    0    0    0  0.00000000000E+00  0.00000000000E+00  0.45593999997E+02  0.45594000000E+02  0.51100000000E-03 0.  1.
         11   -1    0    0    0    0 -0.00000000000E+00 -0.00000000000E+00 -0.45593999997E+02  0.45594000000E+02  0.51100000000E-03 0. -1.
    9900012    2    1    2    0    0 -0.12322539724E+02 -0.22530533103E+02  0.18901132801E+02  0.59301910113E+02  0.49999938148E+02 0.  0.
         12    1    1    2    0    0  0.12322539724E+02  0.22530533103E+02 -0.18901132801E+02  0.31886089887E+02  0.00000000000E+00 0. -1.
         11    1    3    3    0    0 -0.69085169421E+01 -0.76421637663E+00 -0.78262825464E+01  0.10467202672E+02  0.51100000000E-03 0. -1.
        -11    1    3    3    0    0  0.59510116905E+01  0.68103536678E+01  0.17411172429E+01  0.92101545446E+01  0.51100000000E-03 0.  1.
        -12    1    3    3    0    0 -0.11365034472E+02 -0.28576670394E+02  0.24986298104E+02  0.39624552897E+02  0.00000000000E+00 0.  1.
</event>
<event>
 7    1  0.5832130E-012  0.5930195E+02  0.7816164E-02  0.1266605E+00
        -11   -1    0    0    0    0  0.00000000000E+00  0.00000000000E+00  0.45593999997E+02  0.45594000000E+02  0.51100000000E-03 0.  1.
         11   -1    0    0    0    0 -0.00000000000E+00 -0.00000000000E+00 -0.45593999997E+02  0.45594000000E+02  0.51100000000E-03 0. -1.
    9900012    2    1    2    0    0 -0.15606626236E+02  0.27456081392E+02  0.43951182015E+01  0.59301948945E+02  0.50000008968E+02 0.  0.
         12    1    1    2    0    0  0.15606626236E+02 -0.27456081392E+02 -0.43951182015E+01  0.31886051055E+02  0.00000000000E+00 0. -1.
         11    1    3    3    0    0  0.67209774602E+01 -0.21253893157E+01  0.19051315259E+01  0.73019411225E+01  0.51100000000E-03 0. -1.
        -11    1    3    3    0    0 -0.17236456922E+01 -0.79995882726E+01 -0.31569232319E+01  0.87710051622E+01  0.51100000000E-03 0.  1.
        -12    1    3    3    0    0 -0.20603958004E+02  0.37581058980E+02  0.56469099075E+01  0.43229002660E+02  0.00000000000E+00 0.  1.
</event>
<event>
 7    1  0.5832130E-012  0.5930195E+02  0.7816164E-02  0.1266605E+00
        -11   -1    0    0    0    0  0.00000000000E+00  0.00000000000E+00  0.45593999997E+02  0.45594000000E+02  0.51100000000E-03 0.  1.
         11   -1    0    0    0    0 -0.00000000000E+00 -0.00000000000E+00 -0.45593999997E+02  0.45594000000E+02  0.51100000000E-03 0. -1.
    9900012    2    1    2    0    0  0.51090104651E+01 -0.21275905291E+01  0.31402094541E+02  0.59301950214E+02  0.50000011282E+02 0.  0.
         12    1    1    2    0    0 -0.51090104651E+01  0.21275905291E+01 -0.31402094541E+02  0.31886049786E+02  0.00000000000E+00 0. -1.
         11    1    3    3    0    0 -0.90459644117E+01 -0.88323161280E+01  0.55311053951E+01  0.13799724906E+02  0.51100000000E-03 0. -1.
        -11    1    3    3    0    0 -0.77734403905E+01  0.10336620650E+02  0.23585137601E+01  0.13146660770E+02  0.51100000000E-03 0.  1.
         12    1    3    3    0    0  0.21928415267E+02 -0.36318950516E+01  0.23512475386E+02  0.32355564538E+02  0.00000000000E+00 0. -1.
</event>
<event>
 7    1  0.5832130E-012  0.5930195E+02  0.7816164E-02  0.1266605E+00
        -11   -1    0    0    0    0  0.00000000000E+00  0.00000000000E+00  0.45593999997E+02  0.45594000000E+02  0.51100000000E-03 0.  1.
         11   -1    0    0    0    0 -0.00000000000E+00 -0.00000000000E+00 -0.45593999997E+02  0.45594000000E+02  0.51100000000E-03 0. -1.
    9900012    2    1    2    0    0  0.14391153814E+02 -0.27589027547E+02 -0.69613580529E+01  0.59301948896E+02  0.50000008879E+02 0.  0.
         12    1    1    2    0    0 -0.14391153814E+02  0.27589027547E+02  0.69613580529E+01  0.31886051104E+02  0.00000000000E+00 0. -1.
         11    1    3    3    0    0 -0.89687623906E+00  0.35203295794E+01 -0.69575465069E+01  0.78488573049E+01  0.51100000000E-03 0. -1.
        -11    1    3    3    0    0  0.63247562802E+01 -0.25347556227E+02  0.17155903987E+02  0.31254218764E+02  0.51100000000E-03 0.  1.
         12    1    3    3    0    0  0.89632737724E+01 -0.57618008989E+01 -0.17159715533E+02  0.20198872827E+02  0.00000000000E+00 0. -1.
</event>
<event>
 7    1  0.5832130E-012  0.5930193E+02  0.7816164E-02  0.1266605E+00
        -11   -1    0    0    0    0  0.00000000000E+00  0.00000000000E+00  0.45593999997E+02  0.45594000000E+02  0.51100000000E-03 0. -1.
         11   -1    0    0    0    0 -0.00000000000E+00 -0.00000000000E+00 -0.45593999997E+02  0.45594000000E+02  0.51100000000E-03 0.  1.
    9900012    2    1    2    0    0 -0.17049919105E+02  0.22799943204E+02 -0.14359117667E+02  0.59301930757E+02  0.49999975797E+02 0.  0.
         12    1    1    2    0    0  0.17049919105E+02 -0.22799943204E+02  0.14359117667E+02  0.31886069243E+02  0.00000000000E+00 0. -1.
         11    1    3    3    0    0 -0.38826771071E+01  0.15063206568E+01 -0.19266850636E+02  0.19711816688E+02  0.51100000000E-03 0. -1.
        -11    1    3    3    0    0  0.98337971955E+01  0.47783822977E+01  0.21222873924E+01  0.11137351961E+02  0.51100000000E-03 0.  1.
        -12    1    3    3    0    0 -0.23001039194E+02  0.16515240249E+02  0.27854455766E+01  0.28452762108E+02  0.00000000000E+00 0.  1.
</event>
<event>
 7    1  0.5832130E-012  0.5930197E+02  0.7816164E-02  0.1266605E+00
        -11   -1    0    0    0    0  0.00000000000E+00  0.00000000000E+00  0.45593999997E+02  0.45594000000E+02  0.51100000000E-03 0.  1.
         11   -1    0    0    0    0 -0.00000000000E+00 -0.00000000000E+00 -0.45593999997E+02  0.45594000000E+02  0.51100000000E-03 0. -1.
    9900012    2    1    2    0    0  0.14015108234E+02  0.21678146614E+01  0.28558640300E+02  0.59301974612E+02  0.50000055779E+02 0.  0.
         12    1    1    2    0    0 -0.14015108234E+02 -0.21678146614E+01 -0.28558640300E+02  0.31886025388E+02  0.00000000000E+00 0. -1.
         11    1    3    3    0    0  0.22124550155E+02 -0.12036542232E+01  0.31466753126E+02  0.38485075752E+02  0.51100000000E-03 0. -1.
        -11    1    3    3    0    0 -0.21985219524E+01 -0.68262280950E+01  0.28271642987E+01  0.77086799787E+01  0.51100000000E-03 0.  1.
         12    1    3    3    0    0 -0.59109199690E+01  0.10197696980E+02 -0.57352771244E+01  0.13108218882E+02  0.00000000000E+00 0. -1.
</event>
<event>
 7    1  0.5832130E-012  0.5930191E+02  0.7816164E-02  0.1266605E+00
        -11   -1    0    0    0    0  0.00000000000E+00  0.00000000000E+00  0.45593999997E+02  0.45594000000E+02  0.51100000000E-03 0.  1.
         11   -1    0    0    0    0 -0.00000000000E+00 -0.00000000000E+00 -0.45593999997E+02  0.45594000000E+02  0.51100000000E-03 0. -1.
    9900012    2    1    2    0    0 -0.21386181795E+02 -0.17127782912E+01  0.23588567035E+02  0.59301907796E+02  0.49999933922E+02 0.  0.
         12    1    1    2    0    0  0.21386181795E+02  0.17127782912E+01 -0.23588567035E+02  0.31886092204E+02  0.00000000000E+00 0. -1.
         11    1    3    3    0    0 -0.46161607367E+01  0.17330441731E+02  0.16940661077E+02  0.24670613055E+02  0.51100000000E-03 0. -1.
        -11    1    3    3    0    0 -0.76016138947E+01  0.14896466745E+01  0.91695422714E+01  0.12003503103E+02  0.51100000000E-03 0.  1.
         12    1    3    3    0    0 -0.91684071639E+01 -0.20532866697E+02 -0.25216363127E+01  0.22627791638E+02  0.00000000000E+00 0. -1.
</event>
<event>
 7    1  0.5832130E-012  0.5930173E+02  0.7816164E-02  0.1266606E+00
        -11   -1    0    0    0    0  0.00000000000E+00  0.00000000000E+00  0.45593999997E+02  0.45594000000E+02  0.51100000000E-03 0. -1.
         11   -1    0    0    0    0 -0.00000000000E+00 -0.00000000000E+00 -0.45593999997E+02  0.45594000000E+02  0.51100000000E-03 0.  1.
    9900012    2    1    2    0    0  0.30683871787E+01  0.19761247062E+02 -0.24835707941E+02  0.59301729064E+02  0.49999607956E+02 0.  0.
         12    1    1    2    0    0 -0.30683871787E+01 -0.19761247062E+02  0.24835707941E+02  0.31886270936E+02  0.00000000000E+00 0. -1.
         11    1    3    3    0    0 -0.42062961206E+01 -0.58175932753E+01 -0.92783996498E+01  0.11731411633E+02  0.51100000000E-03 0. -1.
        -11    1    3    3    0    0  0.10954405327E+01 -0.91411531767E+00 -0.19961200451E+02  0.20012124337E+02  0.51100000000E-03 0.  1.
         12    1    3    3    0    0  0.61792427667E+01  0.26492955654E+02  0.44038921598E+01  0.27558193095E+02  0.00000000000E+00 0. -1.
</event>
<event>
 7    1  0.5832130E-012  0.5930194E+02  0.7816164E-02  0.1266605E+00
        -11   -1    0    0    0    0  0.00000000000E+00  0.00000000000E+00  0.45593999997E+02  0.45594000000E+02  0.51100000000E-03 0.  1.
         11   -1    0    0    0    0 -0.00000000000E+00 -0.00000000000E+00 -0.45593999997E+02  0.45594000000E+02  0.51100000000E-03 0. -1.
    9900012    2    1    2    0    0  0.29402510958E+02  0.51373328936E+01  0.11217001488E+02  0.59301937806E+02  0.49999988652E+02 0.  0.
         12    1    1    2    0    0 -0.29402510958E+02 -0.51373328936E+01 -0.11217001488E+02  0.31886062194E+02  0.00000000000E+00 0. -1.
         11    1    3    3    0    0  0.74719668943E+01  0.19130307285E+02  0.59324452670E+01  0.21377391169E+02  0.51100000000E-03 0. -1.
        -11    1    3    3    0    0  0.68962572499E+01  0.69921665690E+01  0.69884851181E+01  0.12053534000E+02  0.51100000000E-03 0.  1.
         12    1    3    3    0    0  0.15034286814E+02 -0.20985140961E+02 -0.17039288970E+01  0.25871012636E+02  0.00000000000E+00 0. -1.
</event>
<event>
 7    1  0.5832130E-012  0.5930186E+02  0.7816164E-02  0.1266605E+00
        -11   -1    0    0    0    0  0.00000000000E+00  0.00000000000E+00  0.45593999997E+02  0.45594000000E+02  0.51100000000E-03 0.  1.
         11   -1    0    0    0    0 -0.00000000000E+00 -0.00000000000E+00 -0.45593999997E+02  0.45594000000E+02  0.51100000000E-03 0. -1.
    9900012    2    1    2    0    0  0.23083240270E+02 -0.20121478202E+02  0.88890819106E+01  0.59301864398E+02  0.49999854775E+02 0.  0.
         12    1    1    2    0    0 -0.23083240270E+02  0.20121478202E+02 -0.88890819106E+01  0.31886135602E+02  0.00000000000E+00 0. -1.
         11    1    3    3    0    0  0.15747653099E+02 -0.28233779481E+02  0.13876070574E+02  0.35180679595E+02  0.51100000000E-03 0. -1.
        -11    1    3    3    0    0  0.94723782279E-01 -0.28724575390E+01  0.62113870071E+01  0.68440714288E+01  0.51100000000E-03 0.  1.
         12    1    3    3    0    0  0.72408633884E+01  0.10984758818E+02 -0.11198375670E+02  0.17277113375E+02  0.00000000000E+00 0. -1.
</event>
<event>
 7    1  0.5832130E-012  0.5930196E+02  0.7816164E-02  0.1266605E+00
        -11   -1    0    0    0    0  0.00000000000E+00  0.00000000000E+00  0.45593999997E+02  0.45594000000E+02  0.51100000000E-03 0. -1.
         11   -1    0    0    0    0 -0.00000000000E+00 -0.00000000000E+00 -0.45593999997E+02  0.45594000000E+02  0.51100000000E-03 0.  1.
    9900012    2    1    2    0    0  0.12545120675E+02  0.37296500021E+01 -0.29076267183E+02  0.59301958302E+02  0.50000026032E+02 0.  0.
         12    1    1    2    0    0 -0.12545120675E+02 -0.37296500021E+01  0.29076267183E+02  0.31886041698E+02  0.00000000000E+00 0. -1.
         11    1    3    3    0    0  0.39365969985E+01  0.11683541823E+01  0.36900534526E+00  0.41228646146E+01  0.51100000000E-03 0. -1.
        -11    1    3    3    0    0  0.11780171268E+02  0.17570027495E+02 -0.33218134304E+02  0.39381756540E+02  0.51100000000E-03 0.  1.
        -12    1    3    3    0    0 -0.31716475906E+01 -0.15008731675E+02  0.37728617763E+01  0.15797337147E+02  0.00000000000E+00 0.  1.
</event>
<event>
 7    1  0.5832130E-012  0.5930193E+02  0.7816164E-02  0.1266605E+00
        -11   -1    0    0    0    0  0.00000000000E+00  0.00000000000E+00  0.45593999997E+02  0.45594000000E+02  0.51100000000E-03 0. -1.
         11   -1    0    0    0    0 -0.00000000000E+00 -0.00000000000E+00 -0.45593999997E+02  0.45594000000E+02  0.51100000000E-03 0.  1.
    9900012    2    1    2    0    0 -0.20474338169E+02  0.28574191156E+01 -0.24276697306E+02  0.59301930948E+02  0.49999976146E+02 0.  0.
         12    1    1    2    0    0  0.20474338169E+02 -0.28574191156E+01  0.24276697306E+02  0.31886069052E+02  0.00000000000E+00 0. -1.
         11    1    3    3    0    0 -0.57570414525E+01  0.14484929080E+01  0.13264939539E+02  0.14532731306E+02  0.51100000000E-03 0. -1.
        -11    1    3    3    0    0 -0.19371871943E+01  0.64622783599E+01 -0.26139779727E+01  0.72350961935E+01  0.51100000000E-03 0.  1.
         12    1    3    3    0    0 -0.12780109523E+02 -0.50533521523E+01 -0.34927658872E+02  0.37534103449E+02  0.00000000000E+00 0. -1.
</event>
<event>
 7    1  0.5832130E-012  0.5930206E+02  0.7816164E-02  0.1266604E+00
        -11   -1    0    0    0    0  0.00000000000E+00  0.00000000000E+00  0.45593999997E+02  0.45594000000E+02  0.51100000000E-03 0. -1.
         11   -1    0    0    0    0 -0.00000000000E+00 -0.00000000000E+00 -0.45593999997E+02  0.45594000000E+02  0.51100000000E-03 0.  1.
    9900012    2    1    2    0    0  0.12671123872E+02  0.29244787353E+02 -0.94782258110E+00  0.59302057405E+02  0.50000206773E+02 0.  0.
         12    1    1    2    0    0 -0.12671123872E+02 -0.29244787353E+02  0.94782258110E+00  0.31885942595E+02  0.00000000000E+00 0. -1.
         11    1    3    3    0    0  0.19640769262E+02  0.78357466393E+00 -0.80449690936E+01  0.21239005024E+02  0.51100000000E-03 0. -1.
        -11    1    3    3    0    0  0.75023889758E+01  0.73872091639E+01  0.67295082519E+01  0.12495718513E+02  0.51100000000E-03 0.  1.
        -12    1    3    3    0    0 -0.14472034365E+02  0.21074003525E+02  0.36763826056E+00  0.25567333868E+02  0.00000000000E+00 0.  1.
</event>
<event>
 7    1  0.5832130E-012  0.5930195E+02  0.7816164E-02  0.1266605E+00
        -11   -1    0    0    0    0  0.00000000000E+00  0.00000000000E+00  0.45593999997E+02  0.45594000000E+02  0.51100000000E-03 0.  1.
         11   -1    0    0    0    0 -0.00000000000E+00 -0.00000000000E+00 -0.45593999997E+02  0.45594000000E+02  0.51100000000E-03 0. -1.
    9900012    2    1    2    0    0 -0.13474409137E+02 -0.27063379681E+02  0.10135780958E+02  0.59301948551E+02  0.50000008250E+02 0.  0.
         12    1    1    2    0    0  0.13474409137E+02  0.27063379681E+02 -0.10135780958E+02  0.31886051449E+02  0.00000000000E+00 0. -1.
         11    1    3    3    0    0 -0.10945884919E+02 -0.93418728905E+01 -0.77031872221E+01  0.16322440976E+02  0.51100000000E-03 0. -1.
        -11    1    3    3    0    0  0.22622455202E+01 -0.15796395271E+02  0.27631990877E+02  0.31908788421E+02  0.51100000000E-03 0.  1.
         12    1    3    3    0    0 -0.47907697381E+01 -0.19251115198E+01 -0.97930226976E+01  0.11070719155E+02  0.00000000000E+00 0. -1.
</event>
<event>
 7    1  0.5832130E-012  0.5930195E+02  0.7816164E-02  0.1266605E+00
        -11   -1    0    0    0    0  0.00000000000E+00  0.00000000000E+00  0.45593999997E+02  0.45594000000E+02  0.51100000000E-03 0.  1.
         11   -1    0    0    0    0 -0.00000000000E+00 -0.00000000000E+00 -0.45593999997E+02  0.45594000000E+02  0.51100000000E-03 0. -1.
    9900012    2    1    2    0    0  0.68268238748E+01  0.31099793309E+02  0.17080955756E+01  0.59301948840E+02  0.50000008776E+02 0.  0.
         12    1    1    2    0    0 -0.68268238748E+01 -0.31099793309E+02 -0.17080955756E+01  0.31886051160E+02  0.00000000000E+00 0. -1.
         11    1    3    3    0    0  0.15660446883E+02  0.33055927060E+01 -0.99877655272E+01  0.18866160187E+02  0.51100000000E-03 0. -1.
        -11    1    3    3    0    0  0.66409311289E+00  0.36732086446E+01 -0.73664066936E+01  0.82581734813E+01  0.51100000000E-03 0.  1.
         12    1    3    3    0    0 -0.94977161208E+01  0.24120991959E+02  0.19062267796E+02  0.32177615172E+02  0.00000000000E+00 0. -1.
</event>
<event>
 7    1  0.5832130E-012  0.5930197E+02  0.7816164E-02  0.1266605E+00
        -11   -1    0    0    0    0  0.00000000000E+00  0.00000000000E+00  0.45593999997E+02  0.45594000000E+02  0.51100000000E-03 0.  1.
         11   -1    0    0    0    0 -0.00000000000E+00 -0.00000000000E+00 -0.45593999997E+02  0.45594000000E+02  0.51100000000E-03 0. -1.
    9900012    2    1    2    0    0 -0.98810502819E+01 -0.19172268922E+02  0.23484203192E+02  0.59301970930E+02  0.50000049063E+02 0.  0.
         12    1    1    2    0    0  0.98810502819E+01  0.19172268922E+02 -0.23484203192E+02  0.31886029070E+02  0.00000000000E+00 0. -1.
         11    1    3    3    0    0  0.74546447261E+01 -0.11069817274E+02 -0.67676339442E+01  0.14963737900E+02  0.51100000000E-03 0. -1.
        -11    1    3    3    0    0 -0.73222577114E+01 -0.13170509753E+02  0.37069412930E+01  0.15518350400E+02  0.51100000000E-03 0.  1.
        -12    1    3    3    0    0 -0.10013437297E+02  0.50680581054E+01  0.26544895843E+02  0.28819882630E+02  0.00000000000E+00 0.  1.
</event>
<event>
 7    1  0.5832130E-012  0.5930192E+02  0.7816164E-02  0.1266605E+00
        -11   -1    0    0    0    0  0.00000000000E+00  0.00000000000E+00  0.45593999997E+02  0.45594000000E+02  0.51100000000E-03 0. -1.
         11   -1    0    0    0    0 -0.00000000000E+00 -0.00000000000E+00 -0.45593999997E+02  0.45594000000E+02  0.51100000000E-03 0.  1.
    9900012    2    1    2    0    0  0.20366968426E+02 -0.22221807200E+02 -0.10397103128E+02  0.59301923547E+02  0.49999962648E+02 0.  0.
         12    1    1    2    0    0 -0.20366968426E+02  0.22221807200E+02  0.10397103128E+02  0.31886076453E+02  0.00000000000E+00 0. -1.
         11    1    3    3    0    0  0.24113683288E+00  0.54064807581E+01 -0.66117718964E+01  0.85442207972E+01  0.51100000000E-03 0. -1.
        -11    1    3    3    0    0  0.49166649949E+01 -0.33514746970E+02  0.56756335942E+00  0.33878222911E+02  0.51100000000E-03 0.  1.
         12    1    3    3    0    0  0.15209166599E+02  0.58864590121E+01 -0.43528945909E+01  0.16879479839E+02  0.00000000000E+00 0. -1.
</event>
<event>
 7    1  0.5832130E-012  0.5930195E+02  0.7816164E-02  0.1266605E+00
        -11   -1    0    0    0    0  0.00000000000E+00  0.00000000000E+00  0.45593999997E+02  0.45594000000E+02  0.51100000000E-03 0.  1.
         11   -1    0    0    0    0 -0.00000000000E+00 -0.00000000000E+00 -0.45593999997E+02  0.45594000000E+02  0.51100000000E-03 0. -1.
    9900012    2    1    2    0    0 -0.32212507376E+01 -0.24800852934E+02  0.19780336153E+02  0.59301945668E+02  0.50000002991E+02 0.  0.
         12    1    1    2    0    0  0.32212507376E+01  0.24800852934E+02 -0.19780336153E+02  0.31886054332E+02  0.00000000000E+00 0. -1.
         11    1    3    3    0    0  0.33635471796E+01  0.39411261004E+01 -0.78096507943E+01  0.93721166424E+01  0.51100000000E-03 0. -1.
        -11    1    3    3    0    0 -0.23438469483E+01  0.59739427139E+01  0.25004469852E+01  0.68872233486E+01  0.51100000000E-03 0.  1.
         12    1    3    3    0    0 -0.42409509689E+01 -0.34715921748E+02  0.25089539962E+02  0.43042605677E+02  0.00000000000E+00 0. -1.
</event>
<event>
 7    1  0.5832130E-012  0.5930195E+02  0.7816164E-02  0.1266605E+00
        -11   -1    0    0    0    0  0.00000000000E+00  0.00000000000E+00  0.45593999997E+02  0.45594000000E+02  0.51100000000E-03 0. -1.
         11   -1    0    0    0    0 -0.00000000000E+00 -0.00000000000E+00 -0.45593999997E+02  0.45594000000E+02  0.51100000000E-03 0.  1.
    9900012    2    1    2    0    0 -0.95205762333E+01  0.27516892734E+02 -0.12996134700E+02  0.59301948587E+02  0.50000008316E+02 0.  0.
         12    1    1    2    0    0  0.95205762333E+01 -0.27516892734E+02  0.12996134700E+02  0.31886051413E+02  0.00000000000E+00 0. -1.
         11    1    3    3    0    0 -0.14433121578E+02 -0.22145973739E+00 -0.92351052888E+01  0.17136254342E+02  0.51100000000E-03 0. -1.
        -11    1    3    3    0    0  0.27143712750E+01 -0.21168029420E+01  0.89905867593E+01  0.96270097461E+01  0.51100000000E-03 0.  1.
        -12    1    3    3    0    0  0.21981740699E+01  0.29855155413E+02 -0.12751616171E+02  0.32538684500E+02  0.00000000000E+00 0.  1.
</event>
<event>
 7    1  0.5832130E-012  0.5930195E+02  0.7816164E-02  0.1266605E+00
        -11   -1    0    0    0    0  0.00000000000E+00  0.00000000000E+00  0.45593999997E+02  0.45594000000E+02  0.51100000000E-03 0.  1.
         11   -1    0    0    0    0 -0.00000000000E+00 -0.00000000000E+00 -0.45593999997E+02  0.45594000000E+02  0.51100000000E-03 0. -1.
    9900012    2    1    2    0    0 -0.18153185268E+02  0.17098605070E+02  0.19870072133E+02  0.59301949801E+02  0.50000010529E+02 0.  0.
         12    1    1    2    0    0  0.18153185268E+02 -0.17098605070E+02 -0.19870072133E+02  0.31886050199E+02  0.00000000000E+00 0. -1.
         11    1    3    3    0    0  0.81408367680E+01  0.16604310853E+02  0.53765757823E+01  0.19258347011E+02  0.51100000000E-03 0. -1.
        -11    1    3    3    0    0 -0.18864658864E+02  0.11750186858E+02  0.32022534018E+01  0.22454324135E+02  0.51100000000E-03 0.  1.
        -12    1    3    3    0    0 -0.74293631718E+01 -0.11255892641E+02  0.11291242949E+02  0.17589278655E+02  0.00000000000E+00 0.  1.
</event>
<event>
 7    1  0.5832130E-012  0.5930191E+02  0.7816164E-02  0.1266605E+00
        -11   -1    0    0    0    0  0.00000000000E+00  0.00000000000E+00  0.45593999997E+02  0.45594000000E+02  0.51100000000E-03 0.  1.
         11   -1    0    0    0    0 -0.00000000000E+00 -0.00000000000E+00 -0.45593999997E+02  0.45594000000E+02  0.51100000000E-03 0. -1.
    9900012    2    1    2    0    0  0.38063748122E+01  0.25548681107E+02  0.18694891532E+02  0.59301912674E+02  0.49999942819E+02 0.  0.
         12    1    1    2    0    0 -0.38063748122E+01 -0.25548681107E+02 -0.18694891532E+02  0.31886087326E+02  0.00000000000E+00 0. -1.
         11    1    3    3    0    0  0.14379717162E+02  0.53559246482E+01  0.20616068318E+02  0.25699892367E+02  0.51100000000E-03 0. -1.
        -11    1    3    3    0    0 -0.19273833242E+01 -0.37161784571E+01  0.56890297859E+01  0.70632746633E+01  0.51100000000E-03 0.  1.
        -12    1    3    3    0    0 -0.86459590260E+01  0.23908934916E+02 -0.76102065715E+01  0.26538745644E+02  0.00000000000E+00 0.  1.
</event>
<event>
 7    1  0.5832130E-012  0.5930195E+02  0.7816164E-02  0.1266605E+00
        -11   -1    0    0    0    0  0.00000000000E+00  0.00000000000E+00  0.45593999997E+02  0.45594000000E+02  0.51100000000E-03 0. -1.
         11   -1    0    0    0    0 -0.00000000000E+00 -0.00000000000E+00 -0.45593999997E+02  0.45594000000E+02  0.51100000000E-03 0.  1.
    9900012    2    1    2    0    0  0.11452958741E+02  0.28606565470E+02 -0.81984322436E+01  0.59301950650E+02  0.50000012077E+02 0.  0.
         12    1    1    2    0    0 -0.11452958741E+02 -0.28606565470E+02  0.81984322436E+01  0.31886049350E+02  0.00000000000E+00 0. -1.
         11    1    3    3    0    0 -0.60586946440E+01  0.74038246152E+01  0.28657226611E+01  0.99868296447E+01  0.51100000000E-03 0.  1.
        -11    1    3    3    0    0 -0.86137501970E+01  0.18699410879E+01 -0.14147317687E+02  0.16668532333E+02  0.51100000000E-03 0. -1.
         12    1    3    3    0    0  0.26125403582E+02  0.19332799767E+02  0.30831627826E+01  0.32646588672E+02  0.00000000000E+00 0. -1.
</event>
<event>
 7    1  0.5832130E-012  0.5930194E+02  0.7816164E-02  0.1266605E+00
        -11   -1    0    0    0    0  0.00000000000E+00  0.00000000000E+00  0.45593999997E+02  0.45594000000E+02  0.51100000000E-03 0.  1.
         11   -1    0    0    0    0 -0.00000000000E+00 -0.00000000000E+00 -0.45593999997E+02  0.45594000000E+02  0.51100000000E-03 0. -1.
    9900012    2    1    2    0    0  0.27708488759E+01 -0.30698029719E+02  0.81654223915E+01  0.59301941057E+02  0.49999994582E+02 0.  0.
         12    1    1    2    0    0 -0.27708488759E+01  0.30698029719E+02 -0.81654223915E+01  0.31886058943E+02  0.00000000000E+00 0. -1.
         11    1    3    3    0    0 -0.44479990543E+01  0.28048950021E+01 -0.54573382334E+01  0.75785666464E+01  0.51100000000E-03 0. -1.
        -11    1    3    3    0    0  0.27814294451E+01  0.10336191150E-01  0.17478510499E+02  0.17698440217E+02  0.51100000000E-03 0.  1.
         12    1    3    3    0    0  0.44374184852E+01 -0.33513260912E+02 -0.38557498740E+01  0.34024934193E+02  0.00000000000E+00 0. -1.
</event>
<event>
 7    1  0.5832130E-012  0.5930194E+02  0.7816164E-02  0.1266605E+00
        -11   -1    0    0    0    0  0.00000000000E+00  0.00000000000E+00  0.45593999997E+02  0.45594000000E+02  0.51100000000E-03 0.  1.
         11   -1    0    0    0    0 -0.00000000000E+00 -0.00000000000E+00 -0.45593999997E+02  0.45594000000E+02  0.51100000000E-03 0. -1.
    9900012    2    1    2    0    0  0.14297397174E+02 -0.62949757123E+01  0.27797096703E+02  0.59301939248E+02  0.49999991283E+02 0.  0.
         12    1    1    2    0    0 -0.14297397174E+02  0.62949757123E+01 -0.27797096703E+02  0.31886060752E+02  0.00000000000E+00 0. -1.
         11    1    3    3    0    0  0.14841476838E+02 -0.13190936656E+02  0.20022072147E+02  0.28198468361E+02  0.51100000000E-03 0. -1.
        -11    1    3    3    0    0  0.13175654084E+02  0.93682084808E+01  0.45465722422E+01  0.16793823570E+02  0.51100000000E-03 0.  1.
        -12    1    3    3    0    0 -0.13719733748E+02 -0.24722475369E+01  0.32284523134E+01  0.14309647317E+02  0.00000000000E+00 0.  1.
</event>
<event>
 7    1  0.5832130E-012  0.5930156E+02  0.7816164E-02  0.1266606E+00
        -11   -1    0    0    0    0  0.00000000000E+00  0.00000000000E+00  0.45593999997E+02  0.45594000000E+02  0.51100000000E-03 0. -1.
         11   -1    0    0    0    0 -0.00000000000E+00 -0.00000000000E+00 -0.45593999997E+02  0.45594000000E+02  0.51100000000E-03 0.  1.
    9900012    2    1    2    0    0  0.20736687522E+02  0.80978806224E+01 -0.22828909804E+02  0.59301560832E+02  0.49999301138E+02 0.  0.
         12    1    1    2    0    0 -0.20736687522E+02 -0.80978806224E+01  0.22828909804E+02  0.31886439168E+02  0.00000000000E+00 0. -1.
         11    1    3    3    0    0  0.12278987997E+02  0.16647176128E+02 -0.98892052320E+01  0.22928113740E+02  0.51100000000E-03 0. -1.
        -11    1    3    3    0    0  0.57322366153E+01  0.67628292919E+01  0.68501125672E+01  0.11203501198E+02  0.51100000000E-03 0.  1.
        -12    1    3    3    0    0  0.27254629096E+01 -0.15312124798E+02 -0.19789817140E+02  0.25169945894E+02  0.00000000000E+00 0.  1.
</event>
<event>
 7    1  0.5832130E-012  0.5930191E+02  0.7816164E-02  0.1266605E+00
        -11   -1    0    0    0    0  0.00000000000E+00  0.00000000000E+00  0.45593999997E+02  0.45594000000E+02  0.51100000000E-03 0.  1.
         11   -1    0    0    0    0 -0.00000000000E+00 -0.00000000000E+00 -0.45593999997E+02  0.45594000000E+02  0.51100000000E-03 0. -1.
    9900012    2    1    2    0    0  0.92144102267E+01  0.26874280421E+02  0.14477238576E+02  0.59301909917E+02  0.49999937791E+02 0.  0.
         12    1    1    2    0    0 -0.92144102267E+01 -0.26874280421E+02 -0.14477238576E+02  0.31886090083E+02  0.00000000000E+00 0. -1.
         11    1    3    3    0    0  0.17068645388E+01  0.24633398938E+01  0.37468696096E+01  0.47979643724E+01  0.51100000000E-03 0. -1.
        -11    1    3    3    0    0  0.24356565913E+02  0.72668343449E+00  0.45687919584E+01  0.24792019525E+02  0.51100000000E-03 0.  1.
         12    1    3    3    0    0 -0.16849020226E+02  0.23684257093E+02  0.61615770083E+01  0.29711926020E+02  0.00000000000E+00 0. -1.
</event>
<event>
 7    1  0.5832130E-012  0.5930194E+02  0.7816164E-02  0.1266605E+00
        -11   -1    0    0    0    0  0.00000000000E+00  0.00000000000E+00  0.45593999997E+02  0.45594000000E+02  0.51100000000E-03 0.  1.
         11   -1    0    0    0    0 -0.00000000000E+00 -0.00000000000E+00 -0.45593999997E+02  0.45594000000E+02  0.51100000000E-03 0. -1.
    9900012    2    1    2    0    0 -0.41303479332E+01  0.30521434077E+02 -0.82524437961E+01  0.59301944415E+02  0.50000000706E+02 0.  0.
         12    1    1    2    0    0  0.41303479332E+01 -0.30521434077E+02  0.82524437961E+01  0.31886055585E+02  0.00000000000E+00 0. -1.
         11    1    3    3    0    0 -0.34644609676E+01  0.21765197793E+02 -0.84495870964E+01  0.23603428715E+02  0.51100000000E-03 0. -1.
        -11    1    3    3    0    0  0.10486977362E+01  0.20040492309E+02  0.82837442154E+01  0.21710401134E+02  0.51100000000E-03 0.  1.
         12    1    3    3    0    0 -0.17145847018E+01 -0.11284256025E+02 -0.80866009152E+01  0.13988114565E+02  0.00000000000E+00 0. -1.
</event>
<event>
 7    1  0.5832130E-012  0.5930195E+02  0.7816164E-02  0.1266605E+00
        -11   -1    0    0    0    0  0.00000000000E+00  0.00000000000E+00  0.45593999997E+02  0.45594000000E+02  0.51100000000E-03 0.  1.
         11   -1    0    0    0    0 -0.00000000000E+00 -0.00000000000E+00 -0.45593999997E+02  0.45594000000E+02  0.51100000000E-03 0. -1.
    9900012    2    1    2    0    0  0.21130730271E+02 -0.23646725622E+02  0.33233912646E+01  0.59301947815E+02  0.50000006907E+02 0.  0.
         12    1    1    2    0    0 -0.21130730271E+02  0.23646725622E+02 -0.33233912646E+01  0.31886052185E+02  0.00000000000E+00 0. -1.
         11    1    3    3    0    0  0.65021237165E+01  0.13286289144E+02  0.92284879854E-02  0.14791997075E+02  0.51100000000E-03 0. -1.
        -11    1    3    3    0    0  0.11076488784E+02 -0.16962932238E+02 -0.74028601521E+01  0.21569237645E+02  0.51100000000E-03 0.  1.
        -12    1    3    3    0    0  0.35521177704E+01 -0.19970082528E+02  0.10717022929E+02  0.22940713095E+02  0.00000000000E+00 0.  1.
</event>
<event>
 7    1  0.5832130E-012  0.5930196E+02  0.7816164E-02  0.1266605E+00
        -11   -1    0    0    0    0  0.00000000000E+00  0.00000000000E+00  0.45593999997E+02  0.45594000000E+02  0.51100000000E-03 0.  1.
         11   -1    0    0    0    0 -0.00000000000E+00 -0.00000000000E+00 -0.45593999997E+02  0.45594000000E+02  0.51100000000E-03 0. -1.
    9900012    2    1    2    0    0  0.65111956851E+01 -0.22977324164E+02  0.21127388092E+02  0.59301958813E+02  0.50000026964E+02 0.  0.
         12    1    1    2    0    0 -0.65111956851E+01  0.22977324164E+02 -0.21127388092E+02  0.31886041187E+02  0.00000000000E+00 0. -1.
         11    1    3    3    0    0 -0.16595041929E+02 -0.12618829062E+02  0.10389234155E+02  0.23293055835E+02  0.51100000000E-03 0. -1.
        -11    1    3    3    0    0 -0.30521700919E+01 -0.56051738872E+01 -0.17751531738E+01  0.66245668256E+01  0.51100000000E-03 0.  1.
        -12    1    3    3    0    0  0.26158407706E+02 -0.47533212152E+01  0.12513307111E+02  0.29384336153E+02  0.00000000000E+00 0.  1.
</event>
<event>
 7    1  0.5832130E-012  0.5930194E+02  0.7816164E-02  0.1266605E+00
        -11   -1    0    0    0    0  0.00000000000E+00  0.00000000000E+00  0.45593999997E+02  0.45594000000E+02  0.51100000000E-03 0. -1.
         11   -1    0    0    0    0 -0.00000000000E+00 -0.00000000000E+00 -0.45593999997E+02  0.45594000000E+02  0.51100000000E-03 0.  1.
    9900012    2    1    2    0    0  0.17311972178E+02  0.14137555693E+02 -0.22740840312E+02  0.59301942235E+02  0.49999996731E+02 0.  0.
         12    1    1    2    0    0 -0.17311972178E+02 -0.14137555693E+02  0.22740840312E+02  0.31886057765E+02  0.00000000000E+00 0. -1.
         11    1    3    3    0    0 -0.94414352113E+01 -0.20852493593E+01  0.53473167210E+01  0.11049106756E+02  0.51100000000E-03 0. -1.
        -11    1    3    3    0    0 -0.79242446587E+00  0.10760735397E+02 -0.10850999740E+02  0.15302469031E+02  0.51100000000E-03 0.  1.
         12    1    3    3    0    0  0.27545831855E+02  0.54620696550E+01 -0.17237157293E+02  0.32950366448E+02  0.00000000000E+00 0. -1.
</event>
<event>
 7    1  0.5832130E-012  0.5930198E+02  0.7816164E-02  0.1266605E+00
        -11   -1    0    0    0    0  0.00000000000E+00  0.00000000000E+00  0.45593999997E+02  0.45594000000E+02  0.51100000000E-03 0.  1.
         11   -1    0    0    0    0 -0.00000000000E+00 -0.00000000000E+00 -0.45593999997E+02  0.45594000000E+02  0.51100000000E-03 0. -1.
    9900012    2    1    2    0    0 -0.29617795772E+02 -0.11538937530E+02 -0.25214206487E+01  0.59301976921E+02  0.50000059989E+02 0.  0.
         12    1    1    2    0    0  0.29617795772E+02  0.11538937530E+02  0.25214206487E+01  0.31886023079E+02  0.00000000000E+00 0. -1.
         11    1    3    3    0    0 -0.95515836109E+01  0.33107243614E+01 -0.13622571922E+02  0.16963729286E+02  0.51100000000E-03 0. -1.
        -11    1    3    3    0    0 -0.22248082373E+02 -0.13217931481E+01  0.16374480901E+02  0.27655884210E+02  0.51100000000E-03 0.  1.
         12    1    3    3    0    0  0.21818702121E+01 -0.13527868743E+02 -0.52733296277E+01  0.14682363424E+02  0.00000000000E+00 0. -1.
</event>
<event>
 7    1  0.5832130E-012  0.5930209E+02  0.7816164E-02  0.1266604E+00
        -11   -1    0    0    0    0  0.00000000000E+00  0.00000000000E+00  0.45593999997E+02  0.45594000000E+02  0.51100000000E-03 0. -1.
         11   -1    0    0    0    0 -0.00000000000E+00 -0.00000000000E+00 -0.45593999997E+02  0.45594000000E+02  0.51100000000E-03 0.  1.
    9900012    2    1    2    0    0  0.18528615161E+00 -0.30749910782E+02  0.84332609581E+01  0.59302090346E+02  0.50000266849E+02 0.  0.
         12    1    1    2    0    0 -0.18528615161E+00  0.30749910782E+02 -0.84332609581E+01  0.31885909654E+02  0.00000000000E+00 0. -1.
         11    1    3    3    0    0  0.98798447012E+01  0.75722204375E+01 -0.15759118091E+01  0.12547244796E+02  0.51100000000E-03 0. -1.
        -11    1    3    3    0    0  0.48659143100E+01 -0.17481188163E+02 -0.26766607691E+01  0.18342125689E+02  0.51100000000E-03 0.  1.
        -12    1    3    3    0    0 -0.14560472860E+02 -0.20840943057E+02  0.12685833536E+02  0.28412719861E+02  0.00000000000E+00 0.  1.
</event>
<event>
 7    1  0.5832130E-012  0.5930189E+02  0.7816164E-02  0.1266605E+00
        -11   -1    0    0    0    0  0.00000000000E+00  0.00000000000E+00  0.45593999997E+02  0.45594000000E+02  0.51100000000E-03 0. -1.
         11   -1    0    0    0    0 -0.00000000000E+00 -0.00000000000E+00 -0.45593999997E+02  0.45594000000E+02  0.51100000000E-03 0.  1.
    9900012    2    1    2    0    0 -0.15644735099E+02  0.27198168296E+02 -0.56767984102E+01  0.59301888052E+02  0.49999897914E+02 0.  0.
         12    1    1    2    0    0  0.15644735099E+02 -0.27198168296E+02  0.56767984102E+01  0.31886111948E+02  0.00000000000E+00 0. -1.
         11    1    3    3    0    0 -0.12342305800E+02  0.32225660028E+02 -0.20240033422E+01  0.34567647685E+02  0.51100000000E-03 0. -1.
        -11    1    3    3    0    0 -0.99615967163E+01  0.55522863376E+01 -0.43690395627E+01  0.12212690108E+02  0.51100000000E-03 0.  1.
         12    1    3    3    0    0  0.66591674176E+01 -0.10579778070E+02  0.71624449475E+00  0.12521550259E+02  0.00000000000E+00 0. -1.
</event>
<event>
 7    1  0.6012943E-012  0.5930191E+02  0.7816164E-02  0.1266605E+00
        -11   -1    0    0    0    0  0.00000000000E+00  0.00000000000E+00  0.45593999997E+02  0.45594000000E+02  0.51100000000E-03 0. -1.
         11   -1    0    0    0    0 -0.00000000000E+00 -0.00000000000E+00 -0.45593999997E+02  0.45594000000E+02  0.51100000000E-03 0.  1.
    9900012    2    1    2    0    0  0.14425934325E+02  0.54278419538E+01 -0.27913329276E+02  0.59301905842E+02  0.49999930358E+02 0.  0.
         12    1    1    2    0    0 -0.14425934325E+02 -0.54278419538E+01  0.27913329276E+02  0.31886094158E+02  0.00000000000E+00 0. -1.
         11    1    3    3    0    0 -0.77843846156E+01 -0.44912606574E+01 -0.36659392486E+01  0.97060381707E+01  0.51100000000E-03 0. -1.
        -11    1    3    3    0    0 -0.61509351616E+01  0.44258970285E+01 -0.18703646437E+02  0.20180410258E+02  0.51100000000E-03 0.  1.
         12    1    3    3    0    0  0.28361254102E+02  0.54932055827E+01 -0.55437435897E+01  0.29415457413E+02  0.00000000000E+00 0. -1.
</event>
<event>
 7    1  0.5832130E-012  0.5930200E+02  0.7816164E-02  0.1266605E+00
        -11   -1    0    0    0    0  0.00000000000E+00  0.00000000000E+00  0.45593999997E+02  0.45594000000E+02  0.51100000000E-03 0. -1.
         11   -1    0    0    0    0 -0.00000000000E+00 -0.00000000000E+00 -0.45593999997E+02  0.45594000000E+02  0.51100000000E-03 0.  1.
    9900012    2    1    2    0    0 -0.26994328328E+02 -0.22465614955E+01 -0.16821890779E+02  0.59302002919E+02  0.50000107404E+02 0.  0.
         12    1    1    2    0    0  0.26994328328E+02  0.22465614955E+01  0.16821890779E+02  0.31885997081E+02  0.00000000000E+00 0. -1.
         11    1    3    3    0    0 -0.10633406096E+02 -0.46079970745E+01  0.13040508067E+02  0.17445853753E+02  0.51100000000E-03 0. -1.
        -11    1    3    3    0    0 -0.53270272291E+01 -0.67993008351E+01  0.10039380036E+00  0.86381589545E+01  0.51100000000E-03 0.  1.
        -12    1    3    3    0    0 -0.11033895003E+02  0.91607364141E+01 -0.29962792646E+02  0.33217990212E+02  0.00000000000E+00 0.  1.
</event>
<event>
 7    1  0.5832130E-012  0.5930193E+02  0.7816164E-02  0.1266605E+00
        -11   -1    0    0    0    0  0.00000000000E+00  0.00000000000E+00  0.45593999997E+02  0.45594000000E+02  0.51100000000E-03 0.  1.
         11   -1    0    0    0    0 -0.00000000000E+00 -0.00000000000E+00 -0.45593999997E+02  0.45594000000E+02  0.51100000000E-03 0. -1.
    9900012    2    1    2    0    0  0.96022134689E+01 -0.40662136067E+01  0.30132785327E+02  0.59301931754E+02  0.49999977616E+02 0.  0.
         12    1    1    2    0    0 -0.96022134689E+01  0.40662136067E+01 -0.30132785327E+02  0.31886068246E+02  0.00000000000E+00 0. -1.
         11    1    3    3    0    0  0.14901030826E+02  0.82943042815E+01  0.97069645074E+01  0.19622980493E+02  0.51100000000E-03 0. -1.
        -11    1    3    3    0    0  0.19572101898E+01  0.39354697827E+01  0.21368297471E+02  0.21815653353E+02  0.51100000000E-03 0.  1.
         12    1    3    3    0    0 -0.72560275473E+01 -0.16295987671E+02 -0.94247665095E+00  0.17863297909E+02  0.00000000000E+00 0. -1.
</event>
<event>
 7    1  0.5832130E-012  0.5930180E+02  0.7816164E-02  0.1266605E+00
        -11   -1    0    0    0    0  0.00000000000E+00  0.00000000000E+00  0.45593999997E+02  0.45594000000E+02  0.51100000000E-03 0.  1.
         11   -1    0    0    0    0 -0.00000000000E+00 -0.00000000000E+00 -0.45593999997E+02  0.45594000000E+02  0.51100000000E-03 0. -1.
    9900012    2    1    2    0    0  0.10314747119E+02 -0.29777690842E+02  0.48605223810E+01  0.59301803020E+02  0.49999742835E+02 0.  0.
         12    1    1    2    0    0 -0.10314747119E+02  0.29777690842E+02 -0.48605223810E+01  0.31886196980E+02  0.00000000000E+00 0. -1.
         11    1    3    3    0    0  0.16922791386E+02 -0.25010629754E+02  0.31729896308E+01  0.30364129042E+02  0.51100000000E-03 0. -1.
        -11    1    3    3    0    0  0.84046405119E+01 -0.48205252565E+01 -0.66628993256E+01  0.11758812592E+02  0.51100000000E-03 0.  1.
         12    1    3    3    0    0 -0.15012684779E+02  0.53464168420E-01  0.83504320758E+01  0.17178861387E+02  0.00000000000E+00 0. -1.
</event>
<event>
 7    1  0.5832130E-012  0.5930195E+02  0.7816164E-02  0.1266605E+00
        -11   -1    0    0    0    0  0.00000000000E+00  0.00000000000E+00  0.45593999997E+02  0.45594000000E+02  0.51100000000E-03 0. -1.
         11   -1    0    0    0    0 -0.00000000000E+00 -0.00000000000E+00 -0.45593999997E+02  0.45594000000E+02  0.51100000000E-03 0.  1.
    9900012    2    1    2    0    0  0.20537951836E+02 -0.23821072421E+02 -0.52410951101E+01  0.59301952348E+02  0.50000015174E+02 0.  0.
         12    1    1    2    0    0 -0.20537951836E+02  0.23821072421E+02  0.52410951101E+01  0.31886047652E+02  0.00000000000E+00 0. -1.
         11    1    3    3    0    0 -0.48985149542E+01  0.12072431849E+01  0.49776684299E+01  0.70873174137E+01  0.51100000000E-03 0. -1.
        -11    1    3    3    0    0 -0.16298532099E+01 -0.17153801238E+02 -0.15915056745E+02  0.23456307251E+02  0.51100000000E-03 0.  1.
         12    1    3    3    0    0  0.27066320000E+02 -0.78745143680E+01  0.56962932049E+01  0.28758327683E+02  0.00000000000E+00 0. -1.
</event>
<event>
 7    1  0.5832130E-012  0.5930194E+02  0.7816164E-02  0.1266605E+00
        -11   -1    0    0    0    0  0.00000000000E+00  0.00000000000E+00  0.45593999997E+02  0.45594000000E+02  0.51100000000E-03 0. -1.
         11   -1    0    0    0    0 -0.00000000000E+00 -0.00000000000E+00 -0.45593999997E+02  0.45594000000E+02  0.51100000000E-03 0.  1.
    9900012    2    1    2    0    0  0.37076548223E+01 -0.25776646298E+02 -0.18399410545E+02  0.59301944944E+02  0.50000001671E+02 0.  0.
         12    1    1    2    0    0 -0.37076548223E+01  0.25776646298E+02  0.18399410545E+02  0.31886055056E+02  0.00000000000E+00 0. -1.
         11    1    3    3    0    0  0.63479385674E+00 -0.35348103732E+01 -0.15851082690E+02  0.16252835762E+02  0.51100000000E-03 0. -1.
        -11    1    3    3    0    0  0.16090873286E+02 -0.31367360692E+01 -0.94497565749E+01  0.18922294149E+02  0.51100000000E-03 0.  1.
         12    1    3    3    0    0 -0.13018012320E+02 -0.19105099856E+02  0.69014287199E+01  0.24126815033E+02  0.00000000000E+00 0. -1.
</event>
<event>
 7    1  0.5832130E-012  0.5930196E+02  0.7816164E-02  0.1266605E+00
        -11   -1    0    0    0    0  0.00000000000E+00  0.00000000000E+00  0.45593999997E+02  0.45594000000E+02  0.51100000000E-03 0.  1.
         11   -1    0    0    0    0 -0.00000000000E+00 -0.00000000000E+00 -0.45593999997E+02  0.45594000000E+02  0.51100000000E-03 0. -1.
    9900012    2    1    2    0    0  0.24587823908E+02  0.14779028438E+02  0.13919015060E+02  0.59301956872E+02  0.50000023426E+02 0.  0.
         12    1    1    2    0    0 -0.24587823908E+02 -0.14779028438E+02 -0.13919015060E+02  0.31886043128E+02  0.00000000000E+00 0. -1.
         11    1    3    3    0    0  0.17525021468E+01 -0.76755402920E+00 -0.53289325866E+01  0.56619718947E+01  0.51100000000E-03 0. -1.
        -11    1    3    3    0    0  0.21753379995E+01  0.18866769874E+02 -0.68497857450E+01  0.20189271060E+02  0.51100000000E-03 0.  1.
        -12    1    3    3    0    0  0.20659983761E+02 -0.33201874075E+01  0.26097733392E+02  0.33450713918E+02  0.00000000000E+00 0.  1.
</event>
<event>
 7    1  0.5832130E-012  0.5930195E+02  0.7816164E-02  0.1266605E+00
        -11   -1    0    0    0    0  0.00000000000E+00  0.00000000000E+00  0.45593999997E+02  0.45594000000E+02  0.51100000000E-03 0. -1.
         11   -1    0    0    0    0 -0.00000000000E+00 -0.00000000000E+00 -0.45593999997E+02  0.45594000000E+02  0.51100000000E-03 0.  1.
    9900012    2    1    2    0    0 -0.73648106438E+01 -0.13577054662E+02 -0.27895219394E+02  0.59301951105E+02  0.50000012907E+02 0.  0.
         12    1    1    2    0    0  0.73648106438E+01  0.13577054662E+02  0.27895219394E+02  0.31886048895E+02  0.00000000000E+00 0. -1.
         11    1    3    3    0    0  0.39340178526E+01  0.50764610423E+01  0.97875431872E+01  0.11706534717E+02  0.51100000000E-03 0. -1.
        -11    1    3    3    0    0 -0.13638630873E+02 -0.48864803769E+01 -0.14275528079E+02  0.20339140708E+02  0.51100000000E-03 0.  1.
        -12    1    3    3    0    0  0.23398023767E+01 -0.13767035327E+02 -0.23407234502E+02  0.27256275679E+02  0.00000000000E+00 0.  1.
</event>
<event>
 7    1  0.5832130E-012  0.5930194E+02  0.7816164E-02  0.1266605E+00
        -11   -1    0    0    0    0  0.00000000000E+00  0.00000000000E+00  0.45593999997E+02  0.45594000000E+02  0.51100000000E-03 0.  1.
         11   -1    0    0    0    0 -0.00000000000E+00 -0.00000000000E+00 -0.45593999997E+02  0.45594000000E+02  0.51100000000E-03 0. -1.
    9900012    2    1    2    0    0 -0.23748934988E+02  0.13680462418E+02  0.16295813613E+02  0.59301944955E+02  0.50000001690E+02 0.  0.
         12    1    1    2    0    0  0.23748934988E+02 -0.13680462418E+02 -0.16295813613E+02  0.31886055045E+02  0.00000000000E+00 0. -1.
         11    1    3    3    0    0 -0.11699725001E+02  0.69986034625E+01 -0.55724081901E+01  0.14728059914E+02  0.51100000000E-03 0. -1.
        -11    1    3    3    0    0  0.13989551586E+00 -0.91797247385E+01 -0.54788556731E+01  0.10691341206E+02  0.51100000000E-03 0.  1.
        -12    1    3    3    0    0 -0.12189105503E+02  0.15861583694E+02  0.27347077476E+02  0.33882543835E+02  0.00000000000E+00 0.  1.
</event>
<event>
 7    1  0.5832130E-012  0.5930194E+02  0.7816164E-02  0.1266605E+00
        -11   -1    0    0    0    0  0.00000000000E+00  0.00000000000E+00  0.45593999997E+02  0.45594000000E+02  0.51100000000E-03 0. -1.
         11   -1    0    0    0    0 -0.00000000000E+00 -0.00000000000E+00 -0.45593999997E+02  0.45594000000E+02  0.51100000000E-03 0.  1.
    9900012    2    1    2    0    0 -0.24643713902E+02 -0.13615009514E+01  0.20187986930E+02  0.59301935081E+02  0.49999983684E+02 0.  0.
         12    1    1    2    0    0  0.24643713902E+02  0.13615009514E+01 -0.20187986930E+02  0.31886064919E+02  0.00000000000E+00 0. -1.
         11    1    3    3    0    0  0.45804448670E+01 -0.14482705470E+02  0.44033334391E+01  0.15815137640E+02  0.51100000000E-03 0. -1.
        -11    1    3    3    0    0 -0.97504238586E+01 -0.91023016201E+00  0.16819066313E+02  0.19462278291E+02  0.51100000000E-03 0.  1.
        -12    1    3    3    0    0 -0.19473734910E+02  0.14031434681E+02 -0.10344128215E+01  0.24024519151E+02  0.00000000000E+00 0.  1.
</event>
<event>
 7    1  0.5832130E-012  0.5930194E+02  0.7816164E-02  0.1266605E+00
        -11   -1    0    0    0    0  0.00000000000E+00  0.00000000000E+00  0.45593999997E+02  0.45594000000E+02  0.51100000000E-03 0.  1.
         11   -1    0    0    0    0 -0.00000000000E+00 -0.00000000000E+00 -0.45593999997E+02  0.45594000000E+02  0.51100000000E-03 0. -1.
    9900012    2    1    2    0    0  0.29059212575E+02 -0.62363915784E+01  0.11549481802E+02  0.59301938072E+02  0.49999989138E+02 0.  0.
         12    1    1    2    0    0 -0.29059212575E+02  0.62363915784E+01 -0.11549481802E+02  0.31886061928E+02  0.00000000000E+00 0. -1.
         11    1    3    3    0    0  0.14144367130E+02 -0.84336128549E+01  0.40788891126E+01  0.16965443818E+02  0.51100000000E-03 0. -1.
        -11    1    3    3    0    0  0.16000346096E+02 -0.10240521914E+02  0.17875085663E+02  0.26084440802E+02  0.51100000000E-03 0.  1.
         12    1    3    3    0    0 -0.10855006512E+01  0.12437743190E+02 -0.10404492974E+02  0.16252053451E+02  0.00000000000E+00 0. -1.
</event>
<event>
 7    1  0.5832130E-012  0.5930195E+02  0.7816164E-02  0.1266605E+00
        -11   -1    0    0    0    0  0.00000000000E+00  0.00000000000E+00  0.45593999997E+02  0.45594000000E+02  0.51100000000E-03 0.  1.
         11   -1    0    0    0    0 -0.00000000000E+00 -0.00000000000E+00 -0.45593999997E+02  0.45594000000E+02  0.51100000000E-03 0. -1.
    9900012    2    1    2    0    0  0.17781221607E+02  0.26052962080E+02  0.46681694237E+01  0.59301945356E+02  0.50000002422E+02 0.  0.
         12    1    1    2    0    0 -0.17781221607E+02 -0.26052962080E+02 -0.46681694237E+01  0.31886054644E+02  0.00000000000E+00 0. -1.
         11    1    3    3    0    0  0.21174466684E+01 -0.12242971085E+02 -0.72414351733E+01  0.14380970239E+02  0.51100000000E-03 0. -1.
        -11    1    3    3    0    0  0.21475046104E+01  0.91555534591E+01  0.83964444721E+01  0.12606990729E+02  0.51100000000E-03 0.  1.
        -12    1    3    3    0    0  0.13516270328E+02  0.29140379706E+02  0.35131601249E+01  0.32313984389E+02  0.00000000000E+00 0.  1.
</event>
<event>
 7    1  0.5832130E-012  0.5930194E+02  0.7816164E-02  0.1266605E+00
        -11   -1    0    0    0    0  0.00000000000E+00  0.00000000000E+00  0.45593999997E+02  0.45594000000E+02  0.51100000000E-03 0.  1.
         11   -1    0    0    0    0 -0.00000000000E+00 -0.00000000000E+00 -0.45593999997E+02  0.45594000000E+02  0.51100000000E-03 0. -1.
    9900012    2    1    2    0    0  0.26535024160E+01 -0.31558678645E+02  0.37053492081E+01  0.59301939007E+02  0.49999990843E+02 0.  0.
         12    1    1    2    0    0 -0.26535024160E+01  0.31558678645E+02 -0.37053492081E+01  0.31886060993E+02  0.00000000000E+00 0. -1.
         11    1    3    3    0    0  0.46747437272E+01 -0.24959148182E+02 -0.20546343727E+01  0.25476142360E+02  0.51100000000E-03 0. -1.
        -11    1    3    3    0    0 -0.33154489955E+01 -0.14775175632E+02  0.15073150906E+02  0.21365811370E+02  0.51100000000E-03 0.  1.
         12    1    3    3    0    0  0.12942076843E+01  0.81756451690E+01 -0.93131673252E+01  0.12459985276E+02  0.00000000000E+00 0. -1.
</event>
<event>
 7    1  0.5832130E-012  0.5930197E+02  0.7816164E-02  0.1266605E+00
        -11   -1    0    0    0    0  0.00000000000E+00  0.00000000000E+00  0.45593999997E+02  0.45594000000E+02  0.51100000000E-03 0.  1.
         11   -1    0    0    0    0 -0.00000000000E+00 -0.00000000000E+00 -0.45593999997E+02  0.45594000000E+02  0.51100000000E-03 0. -1.
    9900012    2    1    2    0    0  0.13967030627E+01 -0.16837361011E+01  0.31810900121E+02  0.59301966800E+02  0.50000041532E+02 0.  0.
         12    1    1    2    0    0 -0.13967030627E+01  0.16837361011E+01 -0.31810900121E+02  0.31886033200E+02  0.00000000000E+00 0. -1.
         11    1    3    3    0    0 -0.46124985752E+01 -0.16770156419E+02  0.17819385832E+01  0.17483952493E+02  0.51100000000E-03 0. -1.
        -11    1    3    3    0    0 -0.74982369712E+01  0.12585120140E+02  0.20083257889E+02  0.24858520759E+02  0.51100000000E-03 0.  1.
        -12    1    3    3    0    0  0.13507438609E+02  0.25013001775E+01  0.99457036487E+01  0.16959493549E+02  0.00000000000E+00 0.  1.
</event>
<event>
 7    1  0.5832130E-012  0.5930230E+02  0.7816164E-02  0.1266604E+00
        -11   -1    0    0    0    0  0.00000000000E+00  0.00000000000E+00  0.45593999997E+02  0.45594000000E+02  0.51100000000E-03 0. -1.
         11   -1    0    0    0    0 -0.00000000000E+00 -0.00000000000E+00 -0.45593999997E+02  0.45594000000E+02  0.51100000000E-03 0.  1.
    9900012    2    1    2    0    0 -0.83262751432E+01 -0.28126901972E+02  0.12499928536E+02  0.59302302803E+02  0.50000654316E+02 0.  0.
         12    1    1    2    0    0  0.83262751432E+01  0.28126901972E+02 -0.12499928536E+02  0.31885697197E+02  0.00000000000E+00 0. -1.
         11    1    3    3    0    0 -0.36550962842E+01  0.91563620308E+01  0.39709001814E+01  0.10628581420E+02  0.51100000000E-03 0. -1.
        -11    1    3    3    0    0 -0.11927642040E+02 -0.76459557077E+01  0.11177583037E+02  0.18046264049E+02  0.51100000000E-03 0.  1.
         12    1    3    3    0    0  0.72564631808E+01 -0.29637308295E+02 -0.26485546824E+01  0.30627457335E+02  0.00000000000E+00 0. -1.
</event>
<event>
 7    1  0.5832130E-012  0.5930193E+02  0.7816164E-02  0.1266605E+00
        -11   -1    0    0    0    0  0.00000000000E+00  0.00000000000E+00  0.45593999997E+02  0.45594000000E+02  0.51100000000E-03 0.  1.
         11   -1    0    0    0    0 -0.00000000000E+00 -0.00000000000E+00 -0.45593999997E+02  0.45594000000E+02  0.51100000000E-03 0. -1.
    9900012    2    1    2    0    0  0.22466261471E+02  0.22547056549E+02  0.19023455384E+01  0.59301928086E+02  0.49999970927E+02 0.  0.
         12    1    1    2    0    0 -0.22466261471E+02 -0.22547056549E+02 -0.19023455384E+01  0.31886071914E+02  0.00000000000E+00 0. -1.
         11    1    3    3    0    0 -0.32467392500E+01  0.86565640381E+01 -0.85312227130E+01  0.12580110411E+02  0.51100000000E-03 0. -1.
        -11    1    3    3    0    0 -0.77209283896E+01 -0.10458055247E+01  0.60038199715E+01  0.98362746456E+01  0.51100000000E-03 0.  1.
        -12    1    3    3    0    0  0.33433929111E+02  0.14936298036E+02  0.44297482799E+01  0.36885543030E+02  0.00000000000E+00 0.  1.
</event>
<event>
 7    1  0.5832130E-012  0.5930194E+02  0.7816164E-02  0.1266605E+00
        -11   -1    0    0    0    0  0.00000000000E+00  0.00000000000E+00  0.45593999997E+02  0.45594000000E+02  0.51100000000E-03 0. -1.
         11   -1    0    0    0    0 -0.00000000000E+00 -0.00000000000E+00 -0.45593999997E+02  0.45594000000E+02  0.51100000000E-03 0.  1.
    9900012    2    1    2    0    0 -0.18207627441E+02 -0.10321443267E+01 -0.26156033000E+02  0.59301935940E+02  0.49999985250E+02 0.  0.
         12    1    1    2    0    0  0.18207627441E+02  0.10321443267E+01  0.26156033000E+02  0.31886064060E+02  0.00000000000E+00 0. -1.
         11    1    3    3    0    0 -0.75808797819E+01  0.79640181832E+01  0.49694868614E+01  0.12066114694E+02  0.51100000000E-03 0. -1.
        -11    1    3    3    0    0 -0.14530296000E+02  0.77998922788E+01 -0.78386908984E+01  0.18259597385E+02  0.51100000000E-03 0.  1.
        -12    1    3    3    0    0  0.39035483405E+01 -0.16796054789E+02 -0.23286828963E+02  0.28976223861E+02  0.00000000000E+00 0.  1.
</event>
<event>
 7    1  0.5832130E-012  0.5930197E+02  0.7816164E-02  0.1266605E+00
        -11   -1    0    0    0    0  0.00000000000E+00  0.00000000000E+00  0.45593999997E+02  0.45594000000E+02  0.51100000000E-03 0. -1.
         11   -1    0    0    0    0 -0.00000000000E+00 -0.00000000000E+00 -0.45593999997E+02  0.45594000000E+02  0.51100000000E-03 0.  1.
    9900012    2    1    2    0    0  0.26435174486E+01  0.21756167422E+02 -0.23160312223E+02  0.59301967514E+02  0.50000042834E+02 0.  0.
         12    1    1    2    0    0 -0.26435174486E+01 -0.21756167422E+02  0.23160312223E+02  0.31886032486E+02  0.00000000000E+00 0. -1.
         11    1    3    3    0    0 -0.22775780112E+01 -0.37289630877E+01  0.49481965133E+01  0.66013011067E+01  0.51100000000E-03 0. -1.
        -11    1    3    3    0    0 -0.75951228985E+01  0.12307704338E+02  0.46895224452E+01  0.15203851451E+02  0.51100000000E-03 0.  1.
        -12    1    3    3    0    0  0.12516218358E+02  0.13177426171E+02 -0.32798031182E+02  0.37496814957E+02  0.00000000000E+00 0.  1.
</event>
<event>
 7    1  0.5832130E-012  0.5930194E+02  0.7816164E-02  0.1266605E+00
        -11   -1    0    0    0    0  0.00000000000E+00  0.00000000000E+00  0.45593999997E+02  0.45594000000E+02  0.51100000000E-03 0.  1.
         11   -1    0    0    0    0 -0.00000000000E+00 -0.00000000000E+00 -0.45593999997E+02  0.45594000000E+02  0.51100000000E-03 0. -1.
    9900012    2    1    2    0    0  0.25473457570E+02 -0.25048930803E+01  0.19014452884E+02  0.59301938023E+02  0.49999989049E+02 0.  0.
         12    1    1    2    0    0 -0.25473457570E+02  0.25048930803E+01 -0.19014452884E+02  0.31886061977E+02  0.00000000000E+00 0. -1.
         11    1    3    3    0    0  0.12437209402E+02 -0.48616552957E+01 -0.83559455006E+01  0.15752513939E+02  0.51100000000E-03 0. -1.
        -11    1    3    3    0    0  0.86068058125E+01  0.16740330076E+02  0.15253100334E+02  0.24227522106E+02  0.51100000000E-03 0.  1.
         12    1    3    3    0    0  0.44294423555E+01 -0.14383567861E+02  0.12117298051E+02  0.19321901978E+02  0.00000000000E+00 0. -1.
</event>
<event>
 7    1  0.5832130E-012  0.5930194E+02  0.7816164E-02  0.1266605E+00
        -11   -1    0    0    0    0  0.00000000000E+00  0.00000000000E+00  0.45593999997E+02  0.45594000000E+02  0.51100000000E-03 0.  1.
         11   -1    0    0    0    0 -0.00000000000E+00 -0.00000000000E+00 -0.45593999997E+02  0.45594000000E+02  0.51100000000E-03 0. -1.
    9900012    2    1    2    0    0 -0.12188332120E+02  0.81974821919E+01  0.28301348955E+02  0.59301944947E+02  0.50000001676E+02 0.  0.
         12    1    1    2    0    0  0.12188332120E+02 -0.81974821919E+01 -0.28301348955E+02  0.31886055053E+02  0.00000000000E+00 0. -1.
         11    1    3    3    0    0 -0.12828768339E+01 -0.15288729698E+02  0.75276882864E+01  0.17089678755E+02  0.51100000000E-03 0. -1.
        -11    1    3    3    0    0 -0.87173269152E+01 -0.33534516870E+00 -0.22515367364E+01  0.90096427712E+01  0.51100000000E-03 0.  1.
        -12    1    3    3    0    0 -0.21881283711E+01  0.23821557059E+02  0.23025197405E+02  0.33202623421E+02  0.00000000000E+00 0.  1.
</event>
<event>
 7    1  0.5832130E-012  0.5930199E+02  0.7816164E-02  0.1266605E+00
        -11   -1    0    0    0    0  0.00000000000E+00  0.00000000000E+00  0.45593999997E+02  0.45594000000E+02  0.51100000000E-03 0.  1.
         11   -1    0    0    0    0 -0.00000000000E+00 -0.00000000000E+00 -0.45593999997E+02  0.45594000000E+02  0.51100000000E-03 0. -1.
    9900012    2    1    2    0    0 -0.30055165280E+01 -0.85392995059E+01  0.30573927751E+02  0.59301987020E+02  0.50000078407E+02 0.  0.
         12    1    1    2    0    0  0.30055165280E+01  0.85392995059E+01 -0.30573927751E+02  0.31886012980E+02  0.00000000000E+00 0. -1.
         11    1    3    3    0    0  0.76449941753E+01 -0.14659879752E+02 -0.69715290287E+01  0.17943250195E+02  0.51100000000E-03 0. -1.
        -11    1    3    3    0    0 -0.21449994617E+01 -0.36259555906E+01  0.67522743600E+01  0.79587553003E+01  0.51100000000E-03 0.  1.
        -12    1    3    3    0    0 -0.85055112415E+01  0.97465358371E+01  0.30793182420E+02  0.33399981525E+02  0.00000000000E+00 0.  1.
</event>
<event>
 7    1  0.5832130E-012  0.5930195E+02  0.7816164E-02  0.1266605E+00
        -11   -1    0    0    0    0  0.00000000000E+00  0.00000000000E+00  0.45593999997E+02  0.45594000000E+02  0.51100000000E-03 0. -1.
         11   -1    0    0    0    0 -0.00000000000E+00 -0.00000000000E+00 -0.45593999997E+02  0.45594000000E+02  0.51100000000E-03 0.  1.
    9900012    2    1    2    0    0 -0.10718164675E+02  0.29243739896E+02 -0.68297132483E+01  0.59301947247E+02  0.50000005872E+02 0.  0.
         12    1    1    2    0    0  0.10718164675E+02 -0.29243739896E+02  0.68297132483E+01  0.31886052753E+02  0.00000000000E+00 0. -1.
         11    1    3    3    0    0  0.52914313385E+01  0.10713981460E+01  0.12726014525E+02  0.13823841201E+02  0.51100000000E-03 0. -1.
        -11    1    3    3    0    0 -0.63214943936E+01  0.20870044535E+02  0.75551271137E+00  0.21819506181E+02  0.51100000000E-03 0.  1.
        -12    1    3    3    0    0 -0.96881016198E+01  0.73022972148E+01 -0.20311240484E+02  0.23658599866E+02  0.00000000000E+00 0.  1.
</event>
<event>
 7    1  0.5832130E-012  0.5930195E+02  0.7816164E-02  0.1266605E+00
        -11   -1    0    0    0    0  0.00000000000E+00  0.00000000000E+00  0.45593999997E+02  0.45594000000E+02  0.51100000000E-03 0.  1.
         11   -1    0    0    0    0 -0.00000000000E+00 -0.00000000000E+00 -0.45593999997E+02  0.45594000000E+02  0.51100000000E-03 0. -1.
    9900012    2    1    2    0    0  0.25519425591E+02 -0.19114712903E+02 -0.32703389510E+00  0.59301948457E+02  0.50000008078E+02 0.  0.
         12    1    1    2    0    0 -0.25519425591E+02  0.19114712903E+02  0.32703389510E+00  0.31886051543E+02  0.00000000000E+00 0. -1.
         11    1    3    3    0    0  0.68172850000E+00 -0.68335057507E+01  0.11754541754E+01  0.69672984271E+01  0.51100000000E-03 0. -1.
        -11    1    3    3    0    0  0.16459311038E+02 -0.14167886856E+02  0.19786091443E+02  0.29379029131E+02  0.51100000000E-03 0.  1.
         12    1    3    3    0    0  0.83783860527E+01  0.18866797037E+01 -0.21288579514E+02  0.22955620899E+02  0.00000000000E+00 0. -1.
</event>
<event>
 7    1  0.5832130E-012  0.5930193E+02  0.7816164E-02  0.1266605E+00
        -11   -1    0    0    0    0  0.00000000000E+00  0.00000000000E+00  0.45593999997E+02  0.45594000000E+02  0.51100000000E-03 0.  1.
         11   -1    0    0    0    0 -0.00000000000E+00 -0.00000000000E+00 -0.45593999997E+02  0.45594000000E+02  0.51100000000E-03 0. -1.
    9900012    2    1    2    0    0  0.24756104473E+02  0.16369022986E+02  0.11658126821E+02  0.59301928697E+02  0.49999972040E+02 0.  0.
         12    1    1    2    0    0 -0.24756104473E+02 -0.16369022986E+02 -0.11658126821E+02  0.31886071303E+02  0.00000000000E+00 0. -1.
         11    1    3    3    0    0 -0.78689172252E+00 -0.10119061643E+02 -0.67200583662E+01  0.12172665765E+02  0.51100000000E-03 0. -1.
        -11    1    3    3    0    0 -0.22654195457E+01  0.10466609924E+02  0.13373540975E+01  0.10792152949E+02  0.51100000000E-03 0.  1.
        -12    1    3    3    0    0  0.27808415741E+02  0.16021474704E+02  0.17040831089E+02  0.36337109983E+02  0.00000000000E+00 0.  1.
</event>
<event>
 7    1  0.5832130E-012  0.5930211E+02  0.7816164E-02  0.1266604E+00
        -11   -1    0    0    0    0  0.00000000000E+00  0.00000000000E+00  0.45593999997E+02  0.45594000000E+02  0.51100000000E-03 0.  1.
         11   -1    0    0    0    0 -0.00000000000E+00 -0.00000000000E+00 -0.45593999997E+02  0.45594000000E+02  0.51100000000E-03 0. -1.
    9900012    2    1    2    0    0  0.37985895798E+01 -0.31620912664E+02  0.15487063070E+01  0.59302111401E+02  0.50000305249E+02 0.  0.
         12    1    1    2    0    0 -0.37985895798E+01  0.31620912664E+02 -0.15487063070E+01  0.31885888599E+02  0.00000000000E+00 0. -1.
         11    1    3    3    0    0  0.11737468054E+02 -0.78331785483E+01 -0.80605472861E+01  0.16251131200E+02  0.51100000000E-03 0. -1.
        -11    1    3    3    0    0 -0.18936620994E+01  0.72133762193E+01  0.86916077769E+01  0.11452632826E+02  0.51100000000E-03 0.  1.
        -12    1    3    3    0    0 -0.60452163745E+01 -0.31001110335E+02  0.91764581620E+00  0.31598347375E+02  0.00000000000E+00 0.  1.
</event>
<event>
 7    1  0.5832130E-012  0.5930193E+02  0.7816164E-02  0.1266605E+00
        -11   -1    0    0    0    0  0.00000000000E+00  0.00000000000E+00  0.45593999997E+02  0.45594000000E+02  0.51100000000E-03 0.  1.
         11   -1    0    0    0    0 -0.00000000000E+00 -0.00000000000E+00 -0.45593999997E+02  0.45594000000E+02  0.51100000000E-03 0. -1.
    9900012    2    1    2    0    0  0.13507381967E+02 -0.16525371787E+02  0.23689330811E+02  0.59301926636E+02  0.49999968282E+02 0.  0.
         12    1    1    2    0    0 -0.13507381967E+02  0.16525371787E+02 -0.23689330811E+02  0.31886073364E+02  0.00000000000E+00 0. -1.
         11    1    3    3    0    0  0.34893268393E+01  0.35773242300E+01  0.97863896088E+01  0.10988451769E+02  0.51100000000E-03 0. -1.
        -11    1    3    3    0    0 -0.15762002598E+02 -0.73616373702E+01  0.69118939520E+01  0.18719206953E+02  0.51100000000E-03 0.  1.
         12    1    3    3    0    0  0.25780057726E+02 -0.12741058647E+02  0.69910472499E+01  0.29594267915E+02  0.00000000000E+00 0. -1.
</event>
<event>
 7    1  0.5832130E-012  0.5930192E+02  0.7816164E-02  0.1266605E+00
        -11   -1    0    0    0    0  0.00000000000E+00  0.00000000000E+00  0.45593999997E+02  0.45594000000E+02  0.51100000000E-03 0. -1.
         11   -1    0    0    0    0 -0.00000000000E+00 -0.00000000000E+00 -0.45593999997E+02  0.45594000000E+02  0.51100000000E-03 0.  1.
    9900012    2    1    2    0    0  0.27201988040E+02 -0.16464131490E+02 -0.23888319164E+01  0.59301916876E+02  0.49999950482E+02 0.  0.
         12    1    1    2    0    0 -0.27201988040E+02  0.16464131490E+02  0.23888319164E+01  0.31886083124E+02  0.00000000000E+00 0. -1.
         11    1    3    3    0    0 -0.62434092104E+01 -0.11985840000E+02 -0.57030524019E+01  0.14668514786E+02  0.51100000000E-03 0. -1.
        -11    1    3    3    0    0  0.57299254801E+01 -0.11077351891E+02 -0.70383170214E+01  0.14320533429E+02  0.51100000000E-03 0.  1.
        -12    1    3    3    0    0  0.27715471770E+02  0.65990604018E+01  0.10352537507E+02  0.30312868661E+02  0.00000000000E+00 0.  1.
</event>
<event>
 7    1  0.5832130E-012  0.5930195E+02  0.7816164E-02  0.1266605E+00
        -11   -1    0    0    0    0  0.00000000000E+00  0.00000000000E+00  0.45593999997E+02  0.45594000000E+02  0.51100000000E-03 0.  1.
         11   -1    0    0    0    0 -0.00000000000E+00 -0.00000000000E+00 -0.45593999997E+02  0.45594000000E+02  0.51100000000E-03 0. -1.
    9900012    2    1    2    0    0  0.14696900635E+02  0.23891923919E+02  0.15162367520E+02  0.59301948102E+02  0.50000007430E+02 0.  0.
         12    1    1    2    0    0 -0.14696900635E+02 -0.23891923919E+02 -0.15162367520E+02  0.31886051898E+02  0.00000000000E+00 0. -1.
         11    1    3    3    0    0  0.69887963981E+01 -0.65793139331E+01 -0.50240734900E+01  0.10833834114E+02  0.51100000000E-03 0. -1.
        -11    1    3    3    0    0  0.17261712636E+02  0.19979380983E+02  0.36121838934E+01  0.26649395121E+02  0.51100000000E-03 0.  1.
        -12    1    3    3    0    0 -0.95536083988E+01  0.10491856869E+02  0.16574257117E+02  0.21818718866E+02  0.00000000000E+00 0.  1.
</event>
<event>
 7    1  0.5832130E-012  0.5930193E+02  0.7816164E-02  0.1266605E+00
        -11   -1    0    0    0    0  0.00000000000E+00  0.00000000000E+00  0.45593999997E+02  0.45594000000E+02  0.51100000000E-03 0.  1.
         11   -1    0    0    0    0 -0.00000000000E+00 -0.00000000000E+00 -0.45593999997E+02  0.45594000000E+02  0.51100000000E-03 0. -1.
    9900012    2    1    2    0    0 -0.88453919975E+01 -0.66569398277E+01  0.29902601004E+02  0.59301931659E+02  0.49999977442E+02 0.  0.
         12    1    1    2    0    0  0.88453919975E+01  0.66569398277E+01 -0.29902601004E+02  0.31886068341E+02  0.00000000000E+00 0. -1.
         11    1    3    3    0    0 -0.96162852939E+01  0.13233472483E+02  0.17533515935E+02  0.23979614636E+02  0.51100000000E-03 0. -1.
        -11    1    3    3    0    0  0.64934093550E+01  0.44880477190E+01  0.15512948990E+01  0.80444672604E+01  0.51100000000E-03 0.  1.
        -12    1    3    3    0    0 -0.57225160586E+01 -0.24378460030E+02  0.10817790170E+02  0.27277849762E+02  0.00000000000E+00 0.  1.
</event>
<event>
 7    1  0.5832130E-012  0.5930196E+02  0.7816164E-02  0.1266605E+00
        -11   -1    0    0    0    0  0.00000000000E+00  0.00000000000E+00  0.45593999997E+02  0.45594000000E+02  0.51100000000E-03 0. -1.
         11   -1    0    0    0    0 -0.00000000000E+00 -0.00000000000E+00 -0.45593999997E+02  0.45594000000E+02  0.51100000000E-03 0.  1.
    9900012    2    1    2    0    0 -0.28477052902E+02 -0.13886344926E+02 -0.35980933394E+01  0.59301962412E+02  0.50000033528E+02 0.  0.
         12    1    1    2    0    0  0.28477052902E+02  0.13886344926E+02  0.35980933394E+01  0.31886037588E+02  0.00000000000E+00 0. -1.
         11    1    3    3    0    0 -0.20996783888E+02 -0.23726873123E+02  0.50201687560E+01  0.32078521420E+02  0.51100000000E-03 0. -1.
        -11    1    3    3    0    0 -0.45685410576E+01 -0.71746043454E+01 -0.20147542974E+01  0.87410382706E+01  0.51100000000E-03 0.  1.
         12    1    3    3    0    0 -0.29117279560E+01  0.17015132542E+02 -0.66035077979E+01  0.18482402722E+02  0.00000000000E+00 0. -1.
</event>
<event>
 7    1  0.5832130E-012  0.5930195E+02  0.7816164E-02  0.1266605E+00
        -11   -1    0    0    0    0  0.00000000000E+00  0.00000000000E+00  0.45593999997E+02  0.45594000000E+02  0.51100000000E-03 0.  1.
         11   -1    0    0    0    0 -0.00000000000E+00 -0.00000000000E+00 -0.45593999997E+02  0.45594000000E+02  0.51100000000E-03 0. -1.
    9900012    2    1    2    0    0 -0.12061146136E+02  0.24447971403E+02 -0.16539213386E+02  0.59301950837E+02  0.50000012418E+02 0.  0.
         12    1    1    2    0    0  0.12061146136E+02 -0.24447971403E+02  0.16539213386E+02  0.31886049163E+02  0.00000000000E+00 0. -1.
         11    1    3    3    0    0  0.54507383579E+01  0.94823247886E+00  0.15660328338E+01  0.57499697893E+01  0.51100000000E-03 0. -1.
        -11    1    3    3    0    0  0.10657077691E+02  0.19084694184E+02 -0.87281542887E+01  0.23536769842E+02  0.51100000000E-03 0.  1.
        -12    1    3    3    0    0 -0.28168962185E+02  0.44150447394E+01 -0.93770919307E+01  0.30015211206E+02  0.00000000000E+00 0.  1.
</event>
<event>
 7    1  0.5832130E-012  0.5930195E+02  0.7816164E-02  0.1266605E+00
        -11   -1    0    0    0    0  0.00000000000E+00  0.00000000000E+00  0.45593999997E+02  0.45594000000E+02  0.51100000000E-03 0.  1.
         11   -1    0    0    0    0 -0.00000000000E+00 -0.00000000000E+00 -0.45593999997E+02  0.45594000000E+02  0.51100000000E-03 0. -1.
    9900012    2    1    2    0    0  0.15666458960E+02  0.27428285351E+02 -0.43556068195E+01  0.59301951571E+02  0.50000013758E+02 0.  0.
         12    1    1    2    0    0 -0.15666458960E+02 -0.27428285351E+02  0.43556068195E+01  0.31886048429E+02  0.00000000000E+00 0. -1.
         11    1    3    3    0    0 -0.83395460998E+01  0.17879204826E+02 -0.36810440600E+01  0.20068983034E+02  0.51100000000E-03 0. -1.
        -11    1    3    3    0    0  0.46643051395E+01 -0.30404197564E+01  0.11764891146E+02  0.13015857969E+02  0.51100000000E-03 0.  1.
         12    1    3    3    0    0  0.19341699920E+02  0.12589500281E+02 -0.12439453905E+02  0.26217110569E+02  0.00000000000E+00 0. -1.
</event>
<event>
 7    1  0.5832130E-012  0.5930194E+02  0.7816164E-02  0.1266605E+00
        -11   -1    0    0    0    0  0.00000000000E+00  0.00000000000E+00  0.45593999997E+02  0.45594000000E+02  0.51100000000E-03 0.  1.
         11   -1    0    0    0    0 -0.00000000000E+00 -0.00000000000E+00 -0.45593999997E+02  0.45594000000E+02  0.51100000000E-03 0. -1.
    9900012    2    1    2    0    0 -0.27085594661E+02  0.16543653446E+02  0.30657431814E+01  0.59301942095E+02  0.49999996475E+02 0.  0.
         12    1    1    2    0    0  0.27085594661E+02 -0.16543653446E+02 -0.30657431814E+01  0.31886057905E+02  0.00000000000E+00 0. -1.
         11    1    3    3    0    0  0.48190479842E+01  0.18780103946E+02 -0.69815902339E+01  0.20607234898E+02  0.51100000000E-03 0. -1.
        -11    1    3    3    0    0  0.13480933468E+01 -0.37127743961E+01  0.21004986961E+01  0.44737170699E+01  0.51100000000E-03 0.  1.
        -12    1    3    3    0    0 -0.33252735992E+02  0.14763238958E+01  0.79468347192E+01  0.34220990127E+02  0.00000000000E+00 0.  1.
</event>
<event>
 7    1  0.5832130E-012  0.5930197E+02  0.7816164E-02  0.1266605E+00
        -11   -1    0    0    0    0  0.00000000000E+00  0.00000000000E+00  0.45593999997E+02  0.45594000000E+02  0.51100000000E-03 0.  1.
         11   -1    0    0    0    0 -0.00000000000E+00 -0.00000000000E+00 -0.45593999997E+02  0.45594000000E+02  0.51100000000E-03 0. -1.
    9900012    2    1    2    0    0  0.20164538812E+02 -0.12401526143E+02  0.21361475944E+02  0.59301966526E+02  0.50000041031E+02 0.  0.
         12    1    1    2    0    0 -0.20164538812E+02  0.12401526143E+02 -0.21361475944E+02  0.31886033474E+02  0.00000000000E+00 0. -1.
         11    1    3    3    0    0  0.15881739185E+02 -0.13690136910E+02  0.15426022889E+02  0.26030975213E+02  0.51100000000E-03 0.  1.
        -11    1    3    3    0    0 -0.13278476263E+02 -0.27880262595E+01 -0.17356227495E+01  0.13678574812E+02  0.51100000000E-03 0. -1.
         12    1    3    3    0    0  0.17561275890E+02  0.40766370255E+01  0.76710758052E+01  0.19592416501E+02  0.00000000000E+00 0. -1.
</event>
<event>
 7    1  0.5832130E-012  0.5930193E+02  0.7816164E-02  0.1266605E+00
        -11   -1    0    0    0    0  0.00000000000E+00  0.00000000000E+00  0.45593999997E+02  0.45594000000E+02  0.51100000000E-03 0.  1.
         11   -1    0    0    0    0 -0.00000000000E+00 -0.00000000000E+00 -0.45593999997E+02  0.45594000000E+02  0.51100000000E-03 0. -1.
    9900012    2    1    2    0    0  0.13229819310E+02  0.40760718892E+00  0.29009089088E+02  0.59301929180E+02  0.49999972921E+02 0.  0.
         12    1    1    2    0    0 -0.13229819310E+02 -0.40760718892E+00 -0.29009089088E+02  0.31886070820E+02  0.00000000000E+00 0. -1.
         11    1    3    3    0    0 -0.82383032857E+01 -0.45007798593E+01  0.20531534062E+02  0.22575884292E+02  0.51100000000E-03 0.  1.
        -11    1    3    3    0    0 -0.39465736918E+01 -0.48641962737E+01 -0.32759129326E+01  0.70687661651E+01  0.51100000000E-03 0. -1.
        -12    1    3    3    0    0  0.25414696288E+02  0.97725833219E+01  0.11753467959E+02  0.29657278722E+02  0.00000000000E+00 0.  1.
</event>
<event>
 7    1  0.5832130E-012  0.5930196E+02  0.7816164E-02  0.1266605E+00
        -11   -1    0    0    0    0  0.00000000000E+00  0.00000000000E+00  0.45593999997E+02  0.45594000000E+02  0.51100000000E-03 0.  1.
         11   -1    0    0    0    0 -0.00000000000E+00 -0.00000000000E+00 -0.45593999997E+02  0.45594000000E+02  0.51100000000E-03 0. -1.
    9900012    2    1    2    0    0 -0.44148771991E+01  0.51026407440E+01  0.31163948178E+02  0.59301956826E+02  0.50000023341E+02 0.  0.
         12    1    1    2    0    0  0.44148771991E+01 -0.51026407440E+01 -0.31163948178E+02  0.31886043174E+02  0.00000000000E+00 0. -1.
         11    1    3    3    0    0  0.62288829050E+00 -0.14360014436E+02  0.18695786369E+02  0.23582417871E+02  0.51100000000E-03 0. -1.
        -11    1    3    3    0    0  0.30110404911E+01 -0.57196441438E+01 -0.59833053503E-01  0.64640756668E+01  0.51100000000E-03 0.  1.
        -12    1    3    3    0    0 -0.80488059807E+01  0.25182299323E+02  0.12527994863E+02  0.29255463288E+02  0.00000000000E+00 0.  1.
</event>
<event>
 7    1  0.6750859E-012  0.5930193E+02  0.7816164E-02  0.1266605E+00
        -11   -1    0    0    0    0  0.00000000000E+00  0.00000000000E+00  0.45593999997E+02  0.45594000000E+02  0.51100000000E-03 0. -1.
         11   -1    0    0    0    0 -0.00000000000E+00 -0.00000000000E+00 -0.45593999997E+02  0.45594000000E+02  0.51100000000E-03 0.  1.
    9900012    2    1    2    0    0  0.31684354218E+02 -0.23575802705E+01  0.26953122537E+01  0.59301934155E+02  0.49999981995E+02 0.  0.
         12    1    1    2    0    0 -0.31684354218E+02  0.23575802705E+01 -0.26953122537E+01  0.31886065845E+02  0.00000000000E+00 0. -1.
         11    1    3    3    0    0 -0.21653894106E+00 -0.79695192137E+00  0.12786420673E+02  0.12813062685E+02  0.51100000000E-03 0. -1.
        -11    1    3    3    0    0  0.21086520106E+02 -0.11580585736E+02  0.58677384164E+01  0.24762504933E+02  0.51100000000E-03 0.  1.
         12    1    3    3    0    0  0.10814373053E+02  0.10019957387E+02 -0.15958846836E+02  0.21726366537E+02  0.00000000000E+00 0. -1.
</event>
<event>
 7    1  0.5832130E-012  0.5930194E+02  0.7816164E-02  0.1266605E+00
        -11   -1    0    0    0    0  0.00000000000E+00  0.00000000000E+00  0.45593999997E+02  0.45594000000E+02  0.51100000000E-03 0.  1.
         11   -1    0    0    0    0 -0.00000000000E+00 -0.00000000000E+00 -0.45593999997E+02  0.45594000000E+02  0.51100000000E-03 0. -1.
    9900012    2    1    2    0    0 -0.30039610852E+02 -0.23354724092E+01 -0.10434939751E+02  0.59301943186E+02  0.49999998466E+02 0.  0.
         12    1    1    2    0    0  0.30039610852E+02  0.23354724092E+01  0.10434939751E+02  0.31886056814E+02  0.00000000000E+00 0. -1.
         11    1    3    3    0    0 -0.14457528088E+02 -0.37071650072E+01 -0.11471390205E+02  0.18824345521E+02  0.51100000000E-03 0. -1.
        -11    1    3    3    0    0  0.11010654142E+02 -0.63368346535E+01  0.14549661992E+01  0.12786981855E+02  0.51100000000E-03 0.  1.
         12    1    3    3    0    0 -0.26592736906E+02  0.77085272515E+01 -0.41851574595E+00  0.27690615810E+02  0.00000000000E+00 0. -1.
</event>
<event>
 7    1  0.5832130E-012  0.5930194E+02  0.7816164E-02  0.1266605E+00
        -11   -1    0    0    0    0  0.00000000000E+00  0.00000000000E+00  0.45593999997E+02  0.45594000000E+02  0.51100000000E-03 0. -1.
         11   -1    0    0    0    0 -0.00000000000E+00 -0.00000000000E+00 -0.45593999997E+02  0.45594000000E+02  0.51100000000E-03 0.  1.
    9900012    2    1    2    0    0 -0.17426816312E+02 -0.87836159397E+01 -0.25216564942E+02  0.59301937477E+02  0.49999988053E+02 0.  0.
         12    1    1    2    0    0  0.17426816312E+02  0.87836159397E+01  0.25216564942E+02  0.31886062523E+02  0.00000000000E+00 0. -1.
         11    1    3    3    0    0 -0.11245361133E+02 -0.12906643668E+02 -0.35319064207E+01  0.17478957663E+02  0.51100000000E-03 0. -1.
        -11    1    3    3    0    0  0.62422418698E+00 -0.13555574936E+02 -0.75118054102E+00  0.13590715219E+02  0.51100000000E-03 0.  1.
         12    1    3    3    0    0 -0.68056793659E+01  0.17678602664E+02 -0.20933477981E+02  0.28232264595E+02  0.00000000000E+00 0. -1.
</event>
<event>
 7    1  0.5832130E-012  0.5930192E+02  0.7816164E-02  0.1266605E+00
        -11   -1    0    0    0    0  0.00000000000E+00  0.00000000000E+00  0.45593999997E+02  0.45594000000E+02  0.51100000000E-03 0.  1.
         11   -1    0    0    0    0 -0.00000000000E+00 -0.00000000000E+00 -0.45593999997E+02  0.45594000000E+02  0.51100000000E-03 0. -1.
    9900012    2    1    2    0    0  0.29555943171E+02  0.18760405525E+01  0.11817299118E+02  0.59301923676E+02  0.49999962884E+02 0.  0.
         12    1    1    2    0    0 -0.29555943171E+02 -0.18760405525E+01 -0.11817299118E+02  0.31886076324E+02  0.00000000000E+00 0. -1.
         11    1    3    3    0    0 -0.36252163301E+01 -0.39762209190E+01 -0.12114349077E+02  0.13255564117E+02  0.51100000000E-03 0. -1.
        -11    1    3    3    0    0  0.30928650927E+00  0.63824897332E+01  0.49587717309E+01  0.80883404156E+01  0.51100000000E-03 0.  1.
        -12    1    3    3    0    0  0.32871872992E+02 -0.53022826170E+00  0.18972876465E+02  0.37958019144E+02  0.00000000000E+00 0.  1.
</event>
<event>
 7    1  0.5832130E-012  0.5930194E+02  0.7816164E-02  0.1266605E+00
        -11   -1    0    0    0    0  0.00000000000E+00  0.00000000000E+00  0.45593999997E+02  0.45594000000E+02  0.51100000000E-03 0. -1.
         11   -1    0    0    0    0 -0.00000000000E+00 -0.00000000000E+00 -0.45593999997E+02  0.45594000000E+02  0.51100000000E-03 0.  1.
    9900012    2    1    2    0    0 -0.28900113096E+02 -0.12645932401E+02 -0.46459170526E+01  0.59301942098E+02  0.49999996481E+02 0.  0.
         12    1    1    2    0    0  0.28900113096E+02  0.12645932401E+02  0.46459170526E+01  0.31886057902E+02  0.00000000000E+00 0. -1.
         11    1    3    3    0    0 -0.22307566312E+01  0.64163457161E+01 -0.14139115493E+02  0.15686311060E+02  0.51100000000E-03 0. -1.
        -11    1    3    3    0    0 -0.15079285016E+02 -0.96498601645E+01 -0.88445952202E+01  0.19968262384E+02  0.51100000000E-03 0.  1.
         12    1    3    3    0    0 -0.11590071449E+02 -0.94124179529E+01  0.18337793660E+02  0.23647368654E+02  0.00000000000E+00 0. -1.
</event>
<event>
 7    1  0.5832130E-012  0.5930197E+02  0.7816164E-02  0.1266605E+00
        -11   -1    0    0    0    0  0.00000000000E+00  0.00000000000E+00  0.45593999997E+02  0.45594000000E+02  0.51100000000E-03 0.  1.
         11   -1    0    0    0    0 -0.00000000000E+00 -0.00000000000E+00 -0.45593999997E+02  0.45594000000E+02  0.51100000000E-03 0. -1.
    9900012    2    1    2    0    0  0.15958184753E+02  0.28406318204E+00  0.27603888477E+02  0.59301968394E+02  0.50000044439E+02 0.  0.
         12    1    1    2    0    0 -0.15958184753E+02 -0.28406318204E+00 -0.27603888477E+02  0.31886031606E+02  0.00000000000E+00 0. -1.
         11    1    3    3    0    0  0.20611600867E+02 -0.10161266668E+01 -0.43996402499E+00  0.20641321961E+02  0.51100000000E-03 0. -1.
        -11    1    3    3    0    0  0.10737236587E+02  0.19673626329E+01  0.88738401472E+01  0.14067828705E+02  0.51100000000E-03 0.  1.
        -12    1    3    3    0    0 -0.15390652701E+02 -0.66717278409E+00  0.19170012355E+02  0.24592817728E+02  0.00000000000E+00 0.  1.
</event>
<event>
 7    1  0.5832130E-012  0.5930196E+02  0.7816164E-02  0.1266605E+00
        -11   -1    0    0    0    0  0.00000000000E+00  0.00000000000E+00  0.45593999997E+02  0.45594000000E+02  0.51100000000E-03 0.  1.
         11   -1    0    0    0    0 -0.00000000000E+00 -0.00000000000E+00 -0.45593999997E+02  0.45594000000E+02  0.51100000000E-03 0. -1.
    9900012    2    1    2    0    0  0.28731184720E+01  0.23042983863E+01  0.31672619536E+02  0.59301961847E+02  0.50000032499E+02 0.  0.
         12    1    1    2    0    0 -0.28731184720E+01 -0.23042983863E+01 -0.31672619536E+02  0.31886038153E+02  0.00000000000E+00 0. -1.
         11    1    3    3    0    0 -0.73998794730E+01  0.45736764967E+01 -0.79129426937E+00  0.87351519617E+01  0.51100000000E-03 0. -1.
        -11    1    3    3    0    0 -0.96748138726E+01  0.65928838727E+01  0.24814016333E+02  0.27437265681E+02  0.51100000000E-03 0.  1.
         12    1    3    3    0    0  0.19947811818E+02 -0.88622619830E+01  0.76498974723E+01  0.23129544204E+02  0.00000000000E+00 0. -1.
</event>
<event>
 7    1  0.5832130E-012  0.5930202E+02  0.7816164E-02  0.1266604E+00
        -11   -1    0    0    0    0  0.00000000000E+00  0.00000000000E+00  0.45593999997E+02  0.45594000000E+02  0.51100000000E-03 0. -1.
         11   -1    0    0    0    0 -0.00000000000E+00 -0.00000000000E+00 -0.45593999997E+02  0.45594000000E+02  0.51100000000E-03 0.  1.
    9900012    2    1    2    0    0  0.10210376791E+02  0.27376742542E+02  0.12766274923E+02  0.59302021862E+02  0.50000141950E+02 0.  0.
         12    1    1    2    0    0 -0.10210376791E+02 -0.27376742542E+02 -0.12766274923E+02  0.31885978138E+02  0.00000000000E+00 0. -1.
         11    1    3    3    0    0  0.11716961890E+01  0.16461073209E+01 -0.12117602836E+02  0.12284902931E+02  0.51100000000E-03 0. -1.
        -11    1    3    3    0    0  0.13694001724E+02  0.28980967680E+02  0.14496149777E+02  0.35178978517E+02  0.51100000000E-03 0.  1.
         12    1    3    3    0    0 -0.46553211215E+01 -0.32503324588E+01  0.10387727982E+02  0.11838140414E+02  0.00000000000E+00 0. -1.
</event>
<event>
 7    1  0.5832130E-012  0.5930193E+02  0.7816164E-02  0.1266605E+00
        -11   -1    0    0    0    0  0.00000000000E+00  0.00000000000E+00  0.45593999997E+02  0.45594000000E+02  0.51100000000E-03 0.  1.
         11   -1    0    0    0    0 -0.00000000000E+00 -0.00000000000E+00 -0.45593999997E+02  0.45594000000E+02  0.51100000000E-03 0. -1.
    9900012    2    1    2    0    0 -0.21712535500E+02 -0.13541007162E+02  0.19024414398E+02  0.59301930691E+02  0.49999975677E+02 0.  0.
         12    1    1    2    0    0  0.21712535500E+02  0.13541007162E+02 -0.19024414398E+02  0.31886069309E+02  0.00000000000E+00 0. -1.
         11    1    3    3    0    0 -0.66548924010E+01 -0.16013290776E+02  0.10141442635E+02  0.20088850971E+02  0.51100000000E-03 0. -1.
        -11    1    3    3    0    0  0.72838824431E+01 -0.89573669947E+01 -0.22445400233E+01  0.11761263839E+02  0.51100000000E-03 0.  1.
         12    1    3    3    0    0 -0.22341525542E+02  0.11429650609E+02  0.11127511786E+02  0.27451815881E+02  0.00000000000E+00 0. -1.
</event>
<event>
 7    1  0.5832130E-012  0.5930193E+02  0.7816164E-02  0.1266605E+00
        -11   -1    0    0    0    0  0.00000000000E+00  0.00000000000E+00  0.45593999997E+02  0.45594000000E+02  0.51100000000E-03 0. -1.
         11   -1    0    0    0    0 -0.00000000000E+00 -0.00000000000E+00 -0.45593999997E+02  0.45594000000E+02  0.51100000000E-03 0.  1.
    9900012    2    1    2    0    0 -0.19142492770E+02 -0.21627008263E+02 -0.13511447711E+02  0.59301925687E+02  0.49999966550E+02 0.  0.
         12    1    1    2    0    0  0.19142492770E+02  0.21627008263E+02  0.13511447711E+02  0.31886074313E+02  0.00000000000E+00 0. -1.
         11    1    3    3    0    0  0.40868043924E+01 -0.14480716389E+01  0.13258614376E+02  0.13949542539E+02  0.51100000000E-03 0. -1.
        -11    1    3    3    0    0 -0.22181058742E+01 -0.75022916992E+01  0.14486878777E+01  0.79563227208E+01  0.51100000000E-03 0.  1.
         12    1    3    3    0    0 -0.21011191288E+02 -0.12676644925E+02 -0.28218749965E+02  0.37396060427E+02  0.00000000000E+00 0. -1.
</event>
<event>
 7    1  0.5832130E-012  0.5930196E+02  0.7816164E-02  0.1266605E+00
        -11   -1    0    0    0    0  0.00000000000E+00  0.00000000000E+00  0.45593999997E+02  0.45594000000E+02  0.51100000000E-03 0. -1.
         11   -1    0    0    0    0 -0.00000000000E+00 -0.00000000000E+00 -0.45593999997E+02  0.45594000000E+02  0.51100000000E-03 0.  1.
    9900012    2    1    2    0    0  0.34738364143E+01  0.27134814077E+02 -0.16381505649E+02  0.59301962276E+02  0.50000033280E+02 0.  0.
         12    1    1    2    0    0 -0.34738364143E+01 -0.27134814077E+02  0.16381505649E+02  0.31886037724E+02  0.00000000000E+00 0. -1.
         11    1    3    3    0    0 -0.10892206340E+01  0.11645677869E+01 -0.90296102787E+01  0.91693228631E+01  0.51100000000E-03 0. -1.
        -11    1    3    3    0    0  0.10636821112E+02 -0.87712222482E+01  0.12101280100E+01  0.13839823451E+02  0.51100000000E-03 0.  1.
        -12    1    3    3    0    0 -0.60737640636E+01  0.34741468538E+02 -0.85620233802E+01  0.36292815962E+02  0.00000000000E+00 0.  1.
</event>
<event>
 7    1  0.5832130E-012  0.5930194E+02  0.7816164E-02  0.1266605E+00
        -11   -1    0    0    0    0  0.00000000000E+00  0.00000000000E+00  0.45593999997E+02  0.45594000000E+02  0.51100000000E-03 0.  1.
         11   -1    0    0    0    0 -0.00000000000E+00 -0.00000000000E+00 -0.45593999997E+02  0.45594000000E+02  0.51100000000E-03 0. -1.
    9900012    2    1    2    0    0 -0.25439719796E+02 -0.88988036350E+00  0.19202861203E+02  0.59301935508E+02  0.49999984463E+02 0.  0.
         12    1    1    2    0    0  0.25439719796E+02  0.88988036350E+00 -0.19202861203E+02  0.31886064492E+02  0.00000000000E+00 0. -1.
         11    1    3    3    0    0 -0.14099076461E+02 -0.14032807696E+02  0.20897165266E+01  0.20001764030E+02  0.51100000000E-03 0. -1.
        -11    1    3    3    0    0 -0.16359349401E+02  0.14060668664E+02  0.22984588810E+02  0.31521770876E+02  0.51100000000E-03 0.  1.
         12    1    3    3    0    0  0.50187060657E+01 -0.91774133141E+00 -0.58714441332E+01  0.77784006026E+01  0.00000000000E+00 0. -1.
</event>
<event>
 7    1  0.5832130E-012  0.5930192E+02  0.7816164E-02  0.1266605E+00
        -11   -1    0    0    0    0  0.00000000000E+00  0.00000000000E+00  0.45593999997E+02  0.45594000000E+02  0.51100000000E-03 0.  1.
         11   -1    0    0    0    0 -0.00000000000E+00 -0.00000000000E+00 -0.45593999997E+02  0.45594000000E+02  0.51100000000E-03 0. -1.
    9900012    2    1    2    0    0  0.22585507565E+02 -0.18186117803E+02  0.13262060332E+02  0.59301917190E+02  0.49999951055E+02 0.  0.
         12    1    1    2    0    0 -0.22585507565E+02  0.18186117803E+02 -0.13262060332E+02  0.31886082810E+02  0.00000000000E+00 0. -1.
         11    1    3    3    0    0 -0.20239576877E+01 -0.13636737535E+02 -0.32271789437E+01  0.14158802898E+02  0.51100000000E-03 0. -1.
        -11    1    3    3    0    0 -0.85135929326E+01 -0.18500205605E+01  0.23214792995E+01  0.90162690230E+01  0.51100000000E-03 0.  1.
         12    1    3    3    0    0  0.33123058185E+02 -0.26993597075E+01  0.14167759976E+02  0.36126845269E+02  0.00000000000E+00 0. -1.
</event>
<event>
 7    1  0.5832130E-012  0.5930195E+02  0.7816164E-02  0.1266605E+00
        -11   -1    0    0    0    0  0.00000000000E+00  0.00000000000E+00  0.45593999997E+02  0.45594000000E+02  0.51100000000E-03 0. -1.
         11   -1    0    0    0    0 -0.00000000000E+00 -0.00000000000E+00 -0.45593999997E+02  0.45594000000E+02  0.51100000000E-03 0.  1.
    9900012    2    1    2    0    0 -0.89735809354E+01 -0.23143945466E+02  0.20013817390E+02  0.59301948927E+02  0.50000008934E+02 0.  0.
         12    1    1    2    0    0  0.89735809354E+01  0.23143945466E+02 -0.20013817390E+02  0.31886051073E+02  0.00000000000E+00 0. -1.
         11    1    3    3    0    0 -0.13700076047E+02 -0.79298240537E+01 -0.35925148096E+01  0.16232077998E+02  0.51100000000E-03 0. -1.
        -11    1    3    3    0    0 -0.17624949896E+01 -0.81727734149E+00 -0.77348275493E+01  0.79750792046E+01  0.51100000000E-03 0.  1.
         12    1    3    3    0    0  0.64889901011E+01 -0.14396844070E+02  0.31341159749E+02  0.35094791724E+02  0.00000000000E+00 0. -1.
</event>
<event>
 7    1  0.5832130E-012  0.5930195E+02  0.7816164E-02  0.1266605E+00
        -11   -1    0    0    0    0  0.00000000000E+00  0.00000000000E+00  0.45593999997E+02  0.45594000000E+02  0.51100000000E-03 0.  1.
         11   -1    0    0    0    0 -0.00000000000E+00 -0.00000000000E+00 -0.45593999997E+02  0.45594000000E+02  0.51100000000E-03 0. -1.
    9900012    2    1    2    0    0 -0.91225903400E+01 -0.19285754361E+01  0.30492275820E+02  0.59301953798E+02  0.50000017818E+02 0.  0.
         12    1    1    2    0    0  0.91225903400E+01  0.19285754361E+01 -0.30492275820E+02  0.31886046202E+02  0.00000000000E+00 0. -1.
         11    1    3    3    0    0 -0.27235656240E+01 -0.80181885455E+00 -0.22963837035E+01  0.36515889088E+01  0.51100000000E-03 0. -1.
        -11    1    3    3    0    0 -0.23451293165E+02 -0.51218403133E+01  0.29151807387E+02  0.37762736573E+02  0.51100000000E-03 0.  1.
         12    1    3    3    0    0  0.17052268449E+02  0.39950837318E+01  0.36368521370E+01  0.17887628316E+02  0.00000000000E+00 0. -1.
</event>
<event>
 7    1  0.5832130E-012  0.5930197E+02  0.7816164E-02  0.1266605E+00
        -11   -1    0    0    0    0  0.00000000000E+00  0.00000000000E+00  0.45593999997E+02  0.45594000000E+02  0.51100000000E-03 0.  1.
         11   -1    0    0    0    0 -0.00000000000E+00 -0.00000000000E+00 -0.45593999997E+02  0.45594000000E+02  0.51100000000E-03 0. -1.
    9900012    2    1    2    0    0  0.18053442972E+02  0.85932337493E+01  0.24838444866E+02  0.59301971511E+02  0.50000050123E+02 0.  0.
         12    1    1    2    0    0 -0.18053442972E+02 -0.85932337493E+01 -0.24838444866E+02  0.31886028489E+02  0.00000000000E+00 0. -1.
         11    1    3    3    0    0  0.17141574553E+01 -0.83828975584E+00 -0.11057952709E+02  0.11221380658E+02  0.51100000000E-03 0. -1.
        -11    1    3    3    0    0  0.57636108738E+01 -0.80268674077E+01  0.50637290129E+01  0.11103655365E+02  0.51100000000E-03 0.  1.
         12    1    3    3    0    0  0.10575674643E+02  0.17458390913E+02  0.30832668562E+02  0.36976935488E+02  0.00000000000E+00 0. -1.
</event>
<event>
 7    1  0.5832130E-012  0.5930195E+02  0.7816164E-02  0.1266605E+00
        -11   -1    0    0    0    0  0.00000000000E+00  0.00000000000E+00  0.45593999997E+02  0.45594000000E+02  0.51100000000E-03 0.  1.
         11   -1    0    0    0    0 -0.00000000000E+00 -0.00000000000E+00 -0.45593999997E+02  0.45594000000E+02  0.51100000000E-03 0. -1.
    9900012    2    1    2    0    0 -0.24283603300E+02 -0.28385701048E+01  0.20468739587E+02  0.59301950233E+02  0.50000011317E+02 0.  0.
         12    1    1    2    0    0  0.24283603300E+02  0.28385701048E+01 -0.20468739587E+02  0.31886049767E+02  0.00000000000E+00 0. -1.
         11    1    3    3    0    0 -0.63280492132E+01 -0.37640702878E+01 -0.10143396613E+02  0.12533990868E+02  0.51100000000E-03 0. -1.
        -11    1    3    3    0    0 -0.21038425622E+02 -0.72343690847E+01  0.10010825052E+02  0.24396066634E+02  0.51100000000E-03 0.  1.
        -12    1    3    3    0    0  0.30828715353E+01  0.81598692677E+01  0.20601311148E+02  0.22371892731E+02  0.00000000000E+00 0.  1.
</event>
<event>
 7    1  0.5832130E-012  0.5930195E+02  0.7816164E-02  0.1266605E+00
        -11   -1    0    0    0    0  0.00000000000E+00  0.00000000000E+00  0.45593999997E+02  0.45594000000E+02  0.51100000000E-03 0.  1.
         11   -1    0    0    0    0 -0.00000000000E+00 -0.00000000000E+00 -0.45593999997E+02  0.45594000000E+02  0.51100000000E-03 0. -1.
    9900012    2    1    2    0    0 -0.20728256584E+02  0.49729805009E+01  0.23713477628E+02  0.59301950115E+02  0.50000011101E+02 0.  0.
         12    1    1    2    0    0  0.20728256584E+02 -0.49729805009E+01 -0.23713477628E+02  0.31886049885E+02  0.00000000000E+00 0. -1.
         11    1    3    3    0    0  0.55228911639E+01  0.11764396345E+02  0.12139685826E+02  0.17784131140E+02  0.51100000000E-03 0. -1.
        -11    1    3    3    0    0 -0.10262288185E+02  0.70924172910E+01  0.15588098561E+02  0.19965113544E+02  0.51100000000E-03 0.  1.
        -12    1    3    3    0    0 -0.15988859563E+02 -0.13883833135E+02 -0.40143067598E+01  0.21552705431E+02  0.00000000000E+00 0.  1.
</event>
<event>
 7    1  0.5832130E-012  0.5930194E+02  0.7816164E-02  0.1266605E+00
        -11   -1    0    0    0    0  0.00000000000E+00  0.00000000000E+00  0.45593999997E+02  0.45594000000E+02  0.51100000000E-03 0. -1.
         11   -1    0    0    0    0 -0.00000000000E+00 -0.00000000000E+00 -0.45593999997E+02  0.45594000000E+02  0.51100000000E-03 0.  1.
    9900012    2    1    2    0    0  0.21248626480E+02 -0.15007329890E+02 -0.18438992660E+02  0.59301944614E+02  0.50000001070E+02 0.  0.
         12    1    1    2    0    0 -0.21248626480E+02  0.15007329890E+02  0.18438992660E+02  0.31886055386E+02  0.00000000000E+00 0. -1.
         11    1    3    3    0    0 -0.32625049173E+01  0.14838816984E+01 -0.65072122146E+01  0.74289739733E+01  0.51100000000E-03 0. -1.
        -11    1    3    3    0    0  0.10634832585E+02  0.65748568564E+01 -0.20162391402E+02  0.23724469101E+02  0.51100000000E-03 0.  1.
        -12    1    3    3    0    0  0.13876298813E+02 -0.23066068445E+02  0.82306109567E+01  0.28148501540E+02  0.00000000000E+00 0.  1.
</event>
<event>
 7    1  0.5832130E-012  0.5930196E+02  0.7816164E-02  0.1266605E+00
        -11   -1    0    0    0    0  0.00000000000E+00  0.00000000000E+00  0.45593999997E+02  0.45594000000E+02  0.51100000000E-03 0.  1.
         11   -1    0    0    0    0 -0.00000000000E+00 -0.00000000000E+00 -0.45593999997E+02  0.45594000000E+02  0.51100000000E-03 0. -1.
    9900012    2    1    2    0    0  0.11926521319E+01 -0.17172999815E+02  0.26839996800E+02  0.59301956502E+02  0.50000022750E+02 0.  0.
         12    1    1    2    0    0 -0.11926521319E+01  0.17172999815E+02 -0.26839996800E+02  0.31886043498E+02  0.00000000000E+00 0. -1.
         11    1    3    3    0    0 -0.17679166670E+02 -0.22095070257E+02  0.22176107174E+02  0.35951700843E+02  0.51100000000E-03 0. -1.
        -11    1    3    3    0    0  0.97378798335E+01 -0.27893055056E+01 -0.89138057731E+00  0.10168632575E+02  0.51100000000E-03 0.  1.
        -12    1    3    3    0    0  0.91339389688E+01  0.77113759480E+01  0.55552702031E+01  0.13181623084E+02  0.00000000000E+00 0.  1.
</event>
<event>
 7    1  0.5832130E-012  0.5930205E+02  0.7816164E-02  0.1266604E+00
        -11   -1    0    0    0    0  0.00000000000E+00  0.00000000000E+00  0.45593999997E+02  0.45594000000E+02  0.51100000000E-03 0. -1.
         11   -1    0    0    0    0 -0.00000000000E+00 -0.00000000000E+00 -0.45593999997E+02  0.45594000000E+02  0.51100000000E-03 0.  1.
    9900012    2    1    2    0    0 -0.25309024260E+02 -0.10543882408E+02 -0.16278619959E+02  0.59302052735E+02  0.50000198255E+02 0.  0.
         12    1    1    2    0    0  0.25309024260E+02  0.10543882408E+02  0.16278619959E+02  0.31885947265E+02  0.00000000000E+00 0. -1.
         11    1    3    3    0    0 -0.10292395682E+02  0.13891999307E+02  0.19504274597E+01  0.17399000579E+02  0.51100000000E-03 0. -1.
        -11    1    3    3    0    0  0.39307575763E+00  0.57896993175E+00 -0.11808718418E+02  0.11829435560E+02  0.51100000000E-03 0.  1.
        -12    1    3    3    0    0 -0.15409704336E+02 -0.25014851647E+02 -0.64203290010E+01  0.30073616595E+02  0.00000000000E+00 0.  1.
</event>
<event>
 7    1  0.5832130E-012  0.5930195E+02  0.7816164E-02  0.1266605E+00
        -11   -1    0    0    0    0  0.00000000000E+00  0.00000000000E+00  0.45593999997E+02  0.45594000000E+02  0.51100000000E-03 0. -1.
         11   -1    0    0    0    0 -0.00000000000E+00 -0.00000000000E+00 -0.45593999997E+02  0.45594000000E+02  0.51100000000E-03 0.  1.
    9900012    2    1    2    0    0 -0.10392091161E+01  0.26662810625E+02 -0.17456646738E+02  0.59301953814E+02  0.50000017848E+02 0.  0.
         12    1    1    2    0    0  0.10392091161E+01 -0.26662810625E+02  0.17456646738E+02  0.31886046186E+02  0.00000000000E+00 0. -1.
         11    1    3    3    0    0  0.25790268379E+01 -0.64616905615E+01 -0.60521484390E+00  0.69836315490E+01  0.51100000000E-03 0. -1.
        -11    1    3    3    0    0 -0.55683519876E+01 -0.28037180114E+01 -0.15052257947E+02  0.16292263444E+02  0.51100000000E-03 0.  1.
         12    1    3    3    0    0  0.19501160337E+01  0.35928219198E+02 -0.17991739469E+01  0.36026058821E+02  0.00000000000E+00 0. -1.
</event>
<event>
 7    1  0.5832130E-012  0.5930197E+02  0.7816164E-02  0.1266605E+00
        -11   -1    0    0    0    0  0.00000000000E+00  0.00000000000E+00  0.45593999997E+02  0.45594000000E+02  0.51100000000E-03 0.  1.
         11   -1    0    0    0    0 -0.00000000000E+00 -0.00000000000E+00 -0.45593999997E+02  0.45594000000E+02  0.51100000000E-03 0. -1.
    9900012    2    1    2    0    0 -0.22971819361E+02 -0.12628513192E+02  0.18153094101E+02  0.59301973976E+02  0.50000054619E+02 0.  0.
         12    1    1    2    0    0  0.22971819361E+02  0.12628513192E+02 -0.18153094101E+02  0.31886026024E+02  0.00000000000E+00 0. -1.
         11    1    3    3    0    0 -0.12571933929E+02 -0.18593141799E+02 -0.48923245660E+01  0.22971575579E+02  0.51100000000E-03 0. -1.
        -11    1    3    3    0    0 -0.60469024611E+01 -0.98935176466E+01  0.85143533072E+01  0.14385441714E+02  0.51100000000E-03 0.  1.
        -12    1    3    3    0    0 -0.43529829703E+01  0.15858146254E+02  0.14531065360E+02  0.21944956683E+02  0.00000000000E+00 0.  1.
</event>
<event>
 7    1  0.5832130E-012  0.5930190E+02  0.7816164E-02  0.1266605E+00
        -11   -1    0    0    0    0  0.00000000000E+00  0.00000000000E+00  0.45593999997E+02  0.45594000000E+02  0.51100000000E-03 0. -1.
         11   -1    0    0    0    0 -0.00000000000E+00 -0.00000000000E+00 -0.45593999997E+02  0.45594000000E+02  0.51100000000E-03 0.  1.
    9900012    2    1    2    0    0 -0.83026340414E+01  0.28961856352E+02  0.10440335625E+02  0.59301898587E+02  0.49999917127E+02 0.  0.
         12    1    1    2    0    0  0.83026340414E+01 -0.28961856352E+02 -0.10440335625E+02  0.31886101413E+02  0.00000000000E+00 0. -1.
         11    1    3    3    0    0  0.58117884989E+01  0.20802201861E+01 -0.30005625130E+01  0.68634959922E+01  0.51100000000E-03 0. -1.
        -11    1    3    3    0    0 -0.61142473900E+01 -0.21135494519E+01 -0.11612278841E+02  0.13292709753E+02  0.51100000000E-03 0.  1.
         12    1    3    3    0    0 -0.80001751503E+01  0.28995185617E+02  0.25053176978E+02  0.39145692843E+02  0.00000000000E+00 0. -1.
</event>
<event>
 7    1  0.5832130E-012  0.5930190E+02  0.7816164E-02  0.1266605E+00
        -11   -1    0    0    0    0  0.00000000000E+00  0.00000000000E+00  0.45593999997E+02  0.45594000000E+02  0.51100000000E-03 0. -1.
         11   -1    0    0    0    0 -0.00000000000E+00 -0.00000000000E+00 -0.45593999997E+02  0.45594000000E+02  0.51100000000E-03 0.  1.
    9900012    2    1    2    0    0  0.16715166471E+02  0.24112263295E+02 -0.12486998649E+02  0.59301903239E+02  0.49999925611E+02 0.  0.
         12    1    1    2    0    0 -0.16715166471E+02 -0.24112263295E+02  0.12486998649E+02  0.31886096761E+02  0.00000000000E+00 0. -1.
         11    1    3    3    0    0  0.45333662044E+01 -0.65856032440E+01 -0.24301557137E+01  0.83562692803E+01  0.51100000000E-03 0. -1.
        -11    1    3    3    0    0  0.13527349628E+02  0.35147133839E+01  0.99588188556E+01  0.17161598742E+02  0.51100000000E-03 0.  1.
        -12    1    3    3    0    0 -0.13455493610E+01  0.27183153155E+02 -0.20015661791E+02  0.33784035216E+02  0.00000000000E+00 0.  1.
</event>
<event>
 7    1  0.5832130E-012  0.5930194E+02  0.7816164E-02  0.1266605E+00
        -11   -1    0    0    0    0  0.00000000000E+00  0.00000000000E+00  0.45593999997E+02  0.45594000000E+02  0.51100000000E-03 0.  1.
         11   -1    0    0    0    0 -0.00000000000E+00 -0.00000000000E+00 -0.45593999997E+02  0.45594000000E+02  0.51100000000E-03 0. -1.
    9900012    2    1    2    0    0 -0.63768732281E+01 -0.29259134668E+02  0.10952581712E+02  0.59301944743E+02  0.50000001305E+02 0.  0.
         12    1    1    2    0    0  0.63768732281E+01  0.29259134668E+02 -0.10952581712E+02  0.31886055257E+02  0.00000000000E+00 0. -1.
         11    1    3    3    0    0  0.79384256529E+01 -0.14530476216E+02  0.59711008349E+01  0.17601346152E+02  0.51100000000E-03 0. -1.
        -11    1    3    3    0    0 -0.38559852505E+01 -0.16507053818E+02  0.18120191813E+02  0.24813157792E+02  0.51100000000E-03 0.  1.
         12    1    3    3    0    0 -0.10459313630E+02  0.17783953663E+01 -0.13138710936E+02  0.16887440799E+02  0.00000000000E+00 0. -1.
</event>
<event>
 7    1  0.5832130E-012  0.5930188E+02  0.7816164E-02  0.1266605E+00
        -11   -1    0    0    0    0  0.00000000000E+00  0.00000000000E+00  0.45593999997E+02  0.45594000000E+02  0.51100000000E-03 0.  1.
         11   -1    0    0    0    0 -0.00000000000E+00 -0.00000000000E+00 -0.45593999997E+02  0.45594000000E+02  0.51100000000E-03 0. -1.
    9900012    2    1    2    0    0  0.73795274360E+01 -0.26927376919E+02  0.15400772469E+02  0.59301876913E+02  0.49999877598E+02 0.  0.
         12    1    1    2    0    0 -0.73795274360E+01  0.26927376919E+02 -0.15400772469E+02  0.31886123087E+02  0.00000000000E+00 0. -1.
         11    1    3    3    0    0  0.18174966742E+02 -0.14375726188E+02 -0.48101553443E+00  0.23178056340E+02  0.51100000000E-03 0. -1.
        -11    1    3    3    0    0  0.56733952256E+01 -0.32440796867E+01  0.15917336549E+02  0.17206773941E+02  0.51100000000E-03 0.  1.
        -12    1    3    3    0    0 -0.16468834531E+02 -0.93075710437E+01 -0.35548545400E-01  0.18917046631E+02  0.00000000000E+00 0.  1.
</event>
<event>
 7    1  0.5832130E-012  0.5930194E+02  0.7816164E-02  0.1266605E+00
        -11   -1    0    0    0    0  0.00000000000E+00  0.00000000000E+00  0.45593999997E+02  0.45594000000E+02  0.51100000000E-03 0.  1.
         11   -1    0    0    0    0 -0.00000000000E+00 -0.00000000000E+00 -0.45593999997E+02  0.45594000000E+02  0.51100000000E-03 0. -1.
    9900012    2    1    2    0    0  0.30617903679E+02 -0.66200956160E+01 -0.59530713134E+01  0.59301941139E+02  0.49999994731E+02 0.  0.
         12    1    1    2    0    0 -0.30617903679E+02  0.66200956160E+01  0.59530713134E+01  0.31886058861E+02  0.00000000000E+00 0. -1.
         11    1    3    3    0    0  0.47119670789E+01 -0.20274108941E+02 -0.72510583930E+01  0.22041324261E+02  0.51100000000E-03 0.  1.
        -11    1    3    3    0    0  0.50534484140E+01 -0.60968703831E+01  0.30494683455E+01  0.84857779132E+01  0.51100000000E-03 0. -1.
         12    1    3    3    0    0  0.20852488186E+02  0.19750883708E+02 -0.17514812659E+01  0.28774838964E+02  0.00000000000E+00 0. -1.
</event>
<event>
 7    1  0.5832130E-012  0.5930192E+02  0.7816164E-02  0.1266605E+00
        -11   -1    0    0    0    0  0.00000000000E+00  0.00000000000E+00  0.45593999997E+02  0.45594000000E+02  0.51100000000E-03 0.  1.
         11   -1    0    0    0    0 -0.00000000000E+00 -0.00000000000E+00 -0.45593999997E+02  0.45594000000E+02  0.51100000000E-03 0. -1.
    9900012    2    1    2    0    0 -0.12758982798E+02  0.23773697129E+02  0.16992398523E+02  0.59301922712E+02  0.49999961126E+02 0.  0.
         12    1    1    2    0    0  0.12758982798E+02 -0.23773697129E+02 -0.16992398523E+02  0.31886077288E+02  0.00000000000E+00 0. -1.
         11    1    3    3    0    0 -0.78105064251E+01 -0.66964078180E+01 -0.92635916917E+01  0.13844133038E+02  0.51100000000E-03 0. -1.
        -11    1    3    3    0    0  0.21708366064E+01  0.19098332305E+02  0.42517544662E+01  0.19685940280E+02  0.51100000000E-03 0.  1.
        -12    1    3    3    0    0 -0.71193129789E+01  0.11371772642E+02  0.22004235749E+02  0.25771849394E+02  0.00000000000E+00 0.  1.
</event>
<event>
 7    1  0.5832130E-012  0.5930204E+02  0.7816164E-02  0.1266604E+00
        -11   -1    0    0    0    0  0.00000000000E+00  0.00000000000E+00  0.45593999997E+02  0.45594000000E+02  0.51100000000E-03 0.  1.
         11   -1    0    0    0    0 -0.00000000000E+00 -0.00000000000E+00 -0.45593999997E+02  0.45594000000E+02  0.51100000000E-03 0. -1.
    9900012    2    1    2    0    0  0.17133683627E+02  0.79526850886E+01  0.25688638263E+02  0.59302039915E+02  0.50000174875E+02 0.  0.
         12    1    1    2    0    0 -0.17133683627E+02 -0.79526850886E+01 -0.25688638263E+02  0.31885960085E+02  0.00000000000E+00 0. -1.
         11    1    3    3    0    0 -0.12126043968E+02  0.11146299004E+02  0.54449874076E+01  0.17347299845E+02  0.51100000000E-03 0. -1.
        -11    1    3    3    0    0  0.14747066145E+02  0.78232147893E+01  0.16260050404E+02  0.23303817046E+02  0.51100000000E-03 0.  1.
         12    1    3    3    0    0  0.14512661450E+02 -0.11016828705E+02  0.39836004510E+01  0.18650923023E+02  0.00000000000E+00 0. -1.
</event>
<event>
 7    1  0.5832130E-012  0.5930192E+02  0.7816164E-02  0.1266605E+00
        -11   -1    0    0    0    0  0.00000000000E+00  0.00000000000E+00  0.45593999997E+02  0.45594000000E+02  0.51100000000E-03 0. -1.
         11   -1    0    0    0    0 -0.00000000000E+00 -0.00000000000E+00 -0.45593999997E+02  0.45594000000E+02  0.51100000000E-03 0.  1.
    9900012    2    1    2    0    0 -0.15747982635E+02 -0.27221315409E+02 -0.52652643151E+01  0.59301921879E+02  0.49999959606E+02 0.  0.
         12    1    1    2    0    0  0.15747982635E+02  0.27221315409E+02  0.52652643151E+01  0.31886078121E+02  0.00000000000E+00 0. -1.
         11    1    3    3    0    0  0.29009765641E+01  0.73708134039E+01  0.67317926414E+00  0.79496997330E+01  0.51100000000E-03 0. -1.
        -11    1    3    3    0    0 -0.35844646505E+01 -0.66684369909E+00 -0.13056768486E+02  0.13556263162E+02  0.51100000000E-03 0.  1.
        -12    1    3    3    0    0 -0.15064494548E+02 -0.33925285114E+02  0.71183249069E+01  0.37795958984E+02  0.00000000000E+00 0.  1.
</event>
<event>
 7    1  0.5832130E-012  0.5930194E+02  0.7816164E-02  0.1266605E+00
        -11   -1    0    0    0    0  0.00000000000E+00  0.00000000000E+00  0.45593999997E+02  0.45594000000E+02  0.51100000000E-03 0.  1.
         11   -1    0    0    0    0 -0.00000000000E+00 -0.00000000000E+00 -0.45593999997E+02  0.45594000000E+02  0.51100000000E-03 0. -1.
    9900012    2    1    2    0    0  0.21340272025E+02 -0.75557740595E+01  0.22454935135E+02  0.59301936530E+02  0.49999986325E+02 0.  0.
         12    1    1    2    0    0 -0.21340272025E+02  0.75557740595E+01 -0.22454935135E+02  0.31886063470E+02  0.00000000000E+00 0. -1.
         11    1    3    3    0    0 -0.34786612547E+01  0.22752941158E+01  0.19157250682E+02  0.19603017660E+02  0.51100000000E-03 0. -1.
        -11    1    3    3    0    0  0.24105805658E+02 -0.96429911830E+00  0.12268572943E+02  0.27065432225E+02  0.51100000000E-03 0.  1.
         12    1    3    3    0    0  0.71312762135E+00 -0.88667690570E+01 -0.89708884893E+01  0.12633486645E+02  0.00000000000E+00 0. -1.
</event>
<event>
 7    1  0.5832130E-012  0.5930192E+02  0.7816164E-02  0.1266605E+00
        -11   -1    0    0    0    0  0.00000000000E+00  0.00000000000E+00  0.45593999997E+02  0.45594000000E+02  0.51100000000E-03 0. -1.
         11   -1    0    0    0    0 -0.00000000000E+00 -0.00000000000E+00 -0.45593999997E+02  0.45594000000E+02  0.51100000000E-03 0.  1.
    9900012    2    1    2    0    0 -0.26282159170E+02  0.40565131144E+01 -0.17593030482E+02  0.59301922931E+02  0.49999961525E+02 0.  0.
         12    1    1    2    0    0  0.26282159170E+02 -0.40565131144E+01  0.17593030482E+02  0.31886077069E+02  0.00000000000E+00 0. -1.
         11    1    3    3    0    0  0.52082178083E+01 -0.10805974227E+02 -0.52412560388E+01  0.13090659909E+02  0.51100000000E-03 0. -1.
        -11    1    3    3    0    0  0.24022402419E+01  0.86688306263E+01 -0.68814570547E+01  0.11325803904E+02  0.51100000000E-03 0.  1.
         12    1    3    3    0    0 -0.33892617221E+02  0.61936567151E+01 -0.54703173884E+01  0.34885459118E+02  0.00000000000E+00 0. -1.
</event>
<event>
 7    1  0.5832130E-012  0.5930193E+02  0.7816164E-02  0.1266605E+00
        -11   -1    0    0    0    0  0.00000000000E+00  0.00000000000E+00  0.45593999997E+02  0.45594000000E+02  0.51100000000E-03 0.  1.
         11   -1    0    0    0    0 -0.00000000000E+00 -0.00000000000E+00 -0.45593999997E+02  0.45594000000E+02  0.51100000000E-03 0. -1.
    9900012    2    1    2    0    0 -0.90527273467E+00 -0.30777532464E+02  0.82852710196E+01  0.59301925623E+02  0.49999966434E+02 0.  0.
         12    1    1    2    0    0  0.90527273467E+00  0.30777532464E+02 -0.82852710196E+01  0.31886074377E+02  0.00000000000E+00 0. -1.
         11    1    3    3    0    0  0.35158858081E+01  0.31815173644E+01  0.48357403610E+01  0.67725837651E+01  0.51100000000E-03 0. -1.
        -11    1    3    3    0    0 -0.37538395286E+01 -0.17445376456E+01  0.17057258405E+02  0.17552344213E+02  0.51100000000E-03 0.  1.
         12    1    3    3    0    0 -0.66731901420E+00 -0.32214512183E+02 -0.13607727747E+02  0.34976997645E+02  0.00000000000E+00 0. -1.
</event>
<event>
 7    1  0.5832130E-012  0.5930196E+02  0.7816164E-02  0.1266605E+00
        -11   -1    0    0    0    0  0.00000000000E+00  0.00000000000E+00  0.45593999997E+02  0.45594000000E+02  0.51100000000E-03 0.  1.
         11   -1    0    0    0    0 -0.00000000000E+00 -0.00000000000E+00 -0.45593999997E+02  0.45594000000E+02  0.51100000000E-03 0. -1.
    9900012    2    1    2    0    0  0.70689961107E+01 -0.29965618297E+02  0.82952255438E+01  0.59301956772E+02  0.50000023242E+02 0.  0.
         12    1    1    2    0    0 -0.70689961107E+01  0.29965618297E+02 -0.82952255438E+01  0.31886043228E+02  0.00000000000E+00 0. -1.
         11    1    3    3    0    0 -0.12123124037E+02  0.94207394677E+00  0.71383190510E+01  0.14100114853E+02  0.51100000000E-03 0. -1.
        -11    1    3    3    0    0  0.10729905724E+02 -0.25749714265E+01  0.94102045888E+01  0.14502182779E+02  0.51100000000E-03 0.  1.
        -12    1    3    3    0    0  0.84622144236E+01 -0.28332720817E+02 -0.82532980961E+01  0.30699659140E+02  0.00000000000E+00 0.  1.
</event>
<event>
 7    1  0.5832130E-012  0.5930153E+02  0.7816164E-02  0.1266606E+00
        -11   -1    0    0    0    0  0.00000000000E+00  0.00000000000E+00  0.45593999997E+02  0.45594000000E+02  0.51100000000E-03 0.  1.
         11   -1    0    0    0    0 -0.00000000000E+00 -0.00000000000E+00 -0.45593999997E+02  0.45594000000E+02  0.51100000000E-03 0. -1.
    9900012    2    1    2    0    0  0.31220431287E+02 -0.31048924108E+01  0.56913159695E+01  0.59301533214E+02  0.49999250769E+02 0.  0.
         12    1    1    2    0    0 -0.31220431287E+02  0.31048924108E+01 -0.56913159695E+01  0.31886466786E+02  0.00000000000E+00 0. -1.
         11    1    3    3    0    0 -0.85094941632E+01  0.13635561832E+01 -0.17697120682E+01  0.87978780080E+01  0.51100000000E-03 0. -1.
        -11    1    3    3    0    0  0.25257618218E+02  0.44359070498E+01 -0.86738812862E+01  0.27071401261E+02  0.51100000000E-03 0.  1.
        -12    1    3    3    0    0  0.14472307232E+02 -0.89043556437E+01  0.16134909324E+02  0.23432253945E+02  0.00000000000E+00 0.  1.
</event>
<event>
 7    1  0.5832130E-012  0.5930195E+02  0.7816164E-02  0.1266605E+00
        -11   -1    0    0    0    0  0.00000000000E+00  0.00000000000E+00  0.45593999997E+02  0.45594000000E+02  0.51100000000E-03 0.  1.
         11   -1    0    0    0    0 -0.00000000000E+00 -0.00000000000E+00 -0.45593999997E+02  0.45594000000E+02  0.51100000000E-03 0. -1.
    9900012    2    1    2    0    0 -0.33820269504E+01 -0.31400801603E+02 -0.43899321870E+01  0.59301953644E+02  0.50000017538E+02 0.  0.
         12    1    1    2    0    0  0.33820269504E+01  0.31400801603E+02  0.43899321870E+01  0.31886046356E+02  0.00000000000E+00 0. -1.
         11    1    3    3    0    0  0.59470045451E+01 -0.14207449425E+00 -0.14517038393E+02  0.15688577124E+02  0.51100000000E-03 0. -1.
        -11    1    3    3    0    0  0.76431316080E+01 -0.64312535467E+01 -0.35154765666E+01  0.10589478680E+02  0.51100000000E-03 0.  1.
        -12    1    3    3    0    0 -0.16972163103E+02 -0.24827473562E+02  0.13642582772E+02  0.33023897840E+02  0.00000000000E+00 0.  1.
</event>
<event>
 7    1  0.5832130E-012  0.5930194E+02  0.7816164E-02  0.1266605E+00
        -11   -1    0    0    0    0  0.00000000000E+00  0.00000000000E+00  0.45593999997E+02  0.45594000000E+02  0.51100000000E-03 0.  1.
         11   -1    0    0    0    0 -0.00000000000E+00 -0.00000000000E+00 -0.45593999997E+02  0.45594000000E+02  0.51100000000E-03 0. -1.
    9900012    2    1    2    0    0  0.50553913265E+01  0.22977121719E+02  0.21522448148E+02  0.59301939124E+02  0.49999991056E+02 0.  0.
         12    1    1    2    0    0 -0.50553913265E+01 -0.22977121719E+02 -0.21522448148E+02  0.31886060876E+02  0.00000000000E+00 0. -1.
         11    1    3    3    0    0 -0.15575999249E+02 -0.23372407383E+01  0.69486077762E+01  0.17215039853E+02  0.51100000000E-03 0. -1.
        -11    1    3    3    0    0  0.35774039336E+01  0.21755262643E+02  0.75801037387E+01  0.23314099693E+02  0.51100000000E-03 0.  1.
         12    1    3    3    0    0  0.17053986642E+02  0.35590998141E+01  0.69937366330E+01  0.18772799577E+02  0.00000000000E+00 0. -1.
</event>
<event>
 7    1  0.5832130E-012  0.5930194E+02  0.7816164E-02  0.1266605E+00
        -11   -1    0    0    0    0  0.00000000000E+00  0.00000000000E+00  0.45593999997E+02  0.45594000000E+02  0.51100000000E-03 0.  1.
         11   -1    0    0    0    0 -0.00000000000E+00 -0.00000000000E+00 -0.45593999997E+02  0.45594000000E+02  0.51100000000E-03 0. -1.
    9900012    2    1    2    0    0  0.97417995143E+01 -0.30227088928E+02 -0.28532664466E+01  0.59301942040E+02  0.49999996375E+02 0.  0.
         12    1    1    2    0    0 -0.97417995143E+01  0.30227088928E+02  0.28532664466E+01  0.31886057960E+02  0.00000000000E+00 0. -1.
         11    1    3    3    0    0  0.11300087340E+02 -0.98923269227E+01 -0.51465784143E+01  0.15875685039E+02  0.51100000000E-03 0. -1.
        -11    1    3    3    0    0  0.12060220756E+02 -0.25958607662E+02  0.11125875298E+01  0.28645001095E+02  0.51100000000E-03 0.  1.
        -12    1    3    3    0    0 -0.13618508581E+02  0.56238456575E+01  0.11807244379E+01  0.14781255906E+02  0.00000000000E+00 0.  1.
</event>
<event>
 7    1  0.5832130E-012  0.5930185E+02  0.7816164E-02  0.1266605E+00
        -11   -1    0    0    0    0  0.00000000000E+00  0.00000000000E+00  0.45593999997E+02  0.45594000000E+02  0.51100000000E-03 0. -1.
         11   -1    0    0    0    0 -0.00000000000E+00 -0.00000000000E+00 -0.45593999997E+02  0.45594000000E+02  0.51100000000E-03 0.  1.
    9900012    2    1    2    0    0 -0.27314122232E+02  0.13564799660E+02 -0.93092117695E+01  0.59301851175E+02  0.49999830659E+02 0.  0.
         12    1    1    2    0    0  0.27314122232E+02 -0.13564799660E+02  0.93092117695E+01  0.31886148825E+02  0.00000000000E+00 0. -1.
         11    1    3    3    0    0 -0.16914601128E+02  0.30803086004E+01 -0.12927760722E+02  0.21510904908E+02  0.51100000000E-03 0. -1.
        -11    1    3    3    0    0  0.95162112651E+01  0.11941601911E+02 -0.49633352205E+01  0.16055990465E+02  0.51100000000E-03 0.  1.
         12    1    3    3    0    0 -0.19915732368E+02 -0.14571108512E+01  0.85818841728E+01  0.21734955803E+02  0.00000000000E+00 0. -1.
</event>
<event>
 7    1  0.5832130E-012  0.5930195E+02  0.7816164E-02  0.1266605E+00
        -11   -1    0    0    0    0  0.00000000000E+00  0.00000000000E+00  0.45593999997E+02  0.45594000000E+02  0.51100000000E-03 0.  1.
         11   -1    0    0    0    0 -0.00000000000E+00 -0.00000000000E+00 -0.45593999997E+02  0.45594000000E+02  0.51100000000E-03 0. -1.
    9900012    2    1    2    0    0  0.29970744390E+02 -0.96628150899E+01  0.50104570177E+01  0.59301949849E+02  0.50000010616E+02 0.  0.
         12    1    1    2    0    0 -0.29970744390E+02  0.96628150899E+01 -0.50104570177E+01  0.31886050151E+02  0.00000000000E+00 0. -1.
         11    1    3    3    0    0 -0.25745463995E+01  0.13107324154E+02 -0.31986890759E+01  0.13735423099E+02  0.51100000000E-03 0. -1.
        -11    1    3    3    0    0  0.78581699027E+00 -0.63045008519E+01  0.74409162252E+01  0.97842462084E+01  0.51100000000E-03 0.  1.
        -12    1    3    3    0    0  0.31759473799E+02 -0.16465638392E+02  0.76822986837E+00  0.35782280542E+02  0.00000000000E+00 0.  1.
</event>
<event>
 7    1  0.5832130E-012  0.5930194E+02  0.7816164E-02  0.1266605E+00
        -11   -1    0    0    0    0  0.00000000000E+00  0.00000000000E+00  0.45593999997E+02  0.45594000000E+02  0.51100000000E-03 0.  1.
         11   -1    0    0    0    0 -0.00000000000E+00 -0.00000000000E+00 -0.45593999997E+02  0.45594000000E+02  0.51100000000E-03 0. -1.
    9900012    2    1    2    0    0  0.20675596364E+01  0.31600257391E+02  0.37242210245E+01  0.59301938903E+02  0.49999990654E+02 0.  0.
         12    1    1    2    0    0 -0.20675596364E+01 -0.31600257391E+02 -0.37242210245E+01  0.31886061097E+02  0.00000000000E+00 0. -1.
         11    1    3    3    0    0 -0.49396694022E+01  0.33041943114E+02  0.38225304660E+01  0.33627103324E+02  0.51100000000E-03 0. -1.
        -11    1    3    3    0    0  0.12193734816E+02  0.11513679983E+01  0.87805638766E+01  0.15070206345E+02  0.51100000000E-03 0.  1.
        -12    1    3    3    0    0 -0.51865057779E+01 -0.25930537212E+01 -0.88788733181E+01  0.10604629234E+02  0.00000000000E+00 0.  1.
</event>
<event>
 7    1  0.5832130E-012  0.5930197E+02  0.7816164E-02  0.1266605E+00
        -11   -1    0    0    0    0  0.00000000000E+00  0.00000000000E+00  0.45593999997E+02  0.45594000000E+02  0.51100000000E-03 0.  1.
         11   -1    0    0    0    0 -0.00000000000E+00 -0.00000000000E+00 -0.45593999997E+02  0.45594000000E+02  0.51100000000E-03 0. -1.
    9900012    2    1    2    0    0  0.23511372038E+02  0.12142462276E+01  0.21504873560E+02  0.59301974913E+02  0.50000056328E+02 0.  0.
         12    1    1    2    0    0 -0.23511372038E+02 -0.12142462276E+01 -0.21504873560E+02  0.31886025087E+02  0.00000000000E+00 0. -1.
         11    1    3    3    0    0  0.16070370374E+02  0.13757096267E+02  0.36325452929E+01  0.21464153541E+02  0.51100000000E-03 0. -1.
        -11    1    3    3    0    0 -0.69120380612E+00  0.36251630218E+00 -0.78736838942E+01  0.79122739524E+01  0.51100000000E-03 0.  1.
        -12    1    3    3    0    0  0.81322054702E+01 -0.12905366341E+02  0.25746012161E+02  0.29925547420E+02  0.00000000000E+00 0.  1.
</event>
<event>
 7    1  0.5832130E-012  0.5930195E+02  0.7816164E-02  0.1266605E+00
        -11   -1    0    0    0    0  0.00000000000E+00  0.00000000000E+00  0.45593999997E+02  0.45594000000E+02  0.51100000000E-03 0.  1.
         11   -1    0    0    0    0 -0.00000000000E+00 -0.00000000000E+00 -0.45593999997E+02  0.45594000000E+02  0.51100000000E-03 0. -1.
    9900012    2    1    2    0    0 -0.54187588777E+01  0.24014226338E+00  0.31421327545E+02  0.59301945983E+02  0.50000003567E+02 0.  0.
         12    1    1    2    0    0  0.54187588777E+01 -0.24014226338E+00 -0.31421327545E+02  0.31886054017E+02  0.00000000000E+00 0. -1.
         11    1    3    3    0    0 -0.51077321367E+01  0.46355278411E+01  0.14602859512E+02  0.16149939694E+02  0.51100000000E-03 0. -1.
        -11    1    3    3    0    0  0.88192977601E+01  0.65538170668E+01  0.24576780509E+02  0.26921193725E+02  0.51100000000E-03 0.  1.
         12    1    3    3    0    0 -0.91303245011E+01 -0.10949202645E+02 -0.77583124755E+01  0.16230812565E+02  0.00000000000E+00 0. -1.
</event>
<event>
 7    1  0.5832130E-012  0.5930193E+02  0.7816164E-02  0.1266605E+00
        -11   -1    0    0    0    0  0.00000000000E+00  0.00000000000E+00  0.45593999997E+02  0.45594000000E+02  0.51100000000E-03 0.  1.
         11   -1    0    0    0    0 -0.00000000000E+00 -0.00000000000E+00 -0.45593999997E+02  0.45594000000E+02  0.51100000000E-03 0. -1.
    9900012    2    1    2    0    0 -0.71002874152E+00  0.27674250688E+02  0.15822543843E+02  0.59301934303E+02  0.49999982265E+02 0.  0.
         12    1    1    2    0    0  0.71002874152E+00 -0.27674250688E+02 -0.15822543843E+02  0.31886065697E+02  0.00000000000E+00 0. -1.
         11    1    3    3    0    0 -0.19213861792E+01 -0.34889006511E+01  0.30309541032E+01  0.50050809824E+01  0.51100000000E-03 0. -1.
        -11    1    3    3    0    0 -0.85110533912E+01  0.18629873318E+02  0.26388575597E+02  0.33404597467E+02  0.51100000000E-03 0.  1.
         12    1    3    3    0    0  0.97224108289E+01  0.12533278021E+02 -0.13596985856E+02  0.20892255853E+02  0.00000000000E+00 0. -1.
</event>
<event>
 7    1  0.5832130E-012  0.5930191E+02  0.7816164E-02  0.1266605E+00
        -11   -1    0    0    0    0  0.00000000000E+00  0.00000000000E+00  0.45593999997E+02  0.45594000000E+02  0.51100000000E-03 0. -1.
         11   -1    0    0    0    0 -0.00000000000E+00 -0.00000000000E+00 -0.45593999997E+02  0.45594000000E+02  0.51100000000E-03 0.  1.
    9900012    2    1    2    0    0 -0.27541796201E+01  0.26310752911E+02 -0.17801174870E+02  0.59301905054E+02  0.49999928921E+02 0.  0.
         12    1    1    2    0    0  0.27541796201E+01 -0.26310752911E+02  0.17801174870E+02  0.31886094946E+02  0.00000000000E+00 0. -1.
         11    1    3    3    0    0 -0.20151811639E+02  0.25198719953E+02 -0.80805622720E+01  0.33262087825E+02  0.51100000000E-03 0. -1.
        -11    1    3    3    0    0  0.19789471850E+01  0.71846030426E+01 -0.17683053515E+01  0.76590898231E+01  0.51100000000E-03 0.  1.
         12    1    3    3    0    0  0.15418684834E+02 -0.60725700838E+01 -0.79523072469E+01  0.18380727406E+02  0.00000000000E+00 0. -1.
</event>
<event>
 7    1  0.5832130E-012  0.5930195E+02  0.7816164E-02  0.1266605E+00
        -11   -1    0    0    0    0  0.00000000000E+00  0.00000000000E+00  0.45593999997E+02  0.45594000000E+02  0.51100000000E-03 0.  1.
         11   -1    0    0    0    0 -0.00000000000E+00 -0.00000000000E+00 -0.45593999997E+02  0.45594000000E+02  0.51100000000E-03 0. -1.
    9900012    2    1    2    0    0  0.12963693638E+02  0.27085319375E+02  0.10726049382E+02  0.59301952679E+02  0.50000015779E+02 0.  0.
         12    1    1    2    0    0 -0.12963693638E+02 -0.27085319375E+02 -0.10726049382E+02  0.31886047321E+02  0.00000000000E+00 0. -1.
         11    1    3    3    0    0 -0.58527174300E+01  0.97647571178E+01  0.93443881148E+01  0.14728284774E+02  0.51100000000E-03 0. -1.
        -11    1    3    3    0    0  0.13940742714E+02  0.10375781181E+02  0.18552629964E+02  0.25420488220E+02  0.51100000000E-03 0.  1.
        -12    1    3    3    0    0  0.48756683546E+01  0.69447810761E+01 -0.17170968696E+02  0.19153179685E+02  0.00000000000E+00 0.  1.
</event>
<event>
 7    1  0.5832130E-012  0.5930194E+02  0.7816164E-02  0.1266605E+00
        -11   -1    0    0    0    0  0.00000000000E+00  0.00000000000E+00  0.45593999997E+02  0.45594000000E+02  0.51100000000E-03 0.  1.
         11   -1    0    0    0    0 -0.00000000000E+00 -0.00000000000E+00 -0.45593999997E+02  0.45594000000E+02  0.51100000000E-03 0. -1.
    9900012    2    1    2    0    0 -0.22941506227E+02 -0.22136059749E+02  0.63469953906E+00  0.59301942033E+02  0.49999996362E+02 0.  0.
         12    1    1    2    0    0  0.22941506227E+02  0.22136059749E+02 -0.63469953906E+00  0.31886057967E+02  0.00000000000E+00 0. -1.
         11    1    3    3    0    0  0.24477930025E+01 -0.13865201814E+02  0.68096349999E+01  0.15639905403E+02  0.51100000000E-03 0. -1.
        -11    1    3    3    0    0 -0.92936862188E+01 -0.14480024705E+02  0.10094761456E+02  0.19948632237E+02  0.51100000000E-03 0.  1.
         12    1    3    3    0    0 -0.16095613011E+02  0.62091667700E+01 -0.16269696917E+02  0.23713404394E+02  0.00000000000E+00 0. -1.
</event>
<event>
 7    1  0.5832130E-012  0.5930202E+02  0.7816164E-02  0.1266605E+00
        -11   -1    0    0    0    0  0.00000000000E+00  0.00000000000E+00  0.45593999997E+02  0.45594000000E+02  0.51100000000E-03 0. -1.
         11   -1    0    0    0    0 -0.00000000000E+00 -0.00000000000E+00 -0.45593999997E+02  0.45594000000E+02  0.51100000000E-03 0.  1.
    9900012    2    1    2    0    0 -0.19549739037E+02 -0.25119851206E+02 -0.18752926003E+01  0.59302016506E+02  0.50000132183E+02 0.  0.
         12    1    1    2    0    0  0.19549739037E+02  0.25119851206E+02  0.18752926003E+01  0.31885983494E+02  0.00000000000E+00 0. -1.
         11    1    3    3    0    0  0.26305546602E+01  0.12154792585E+02 -0.85531106258E+01  0.15093525176E+02  0.51100000000E-03 0. -1.
        -11    1    3    3    0    0 -0.38900313182E+00 -0.30098310368E+01 -0.11548020771E+00  0.30370614492E+01  0.51100000000E-03 0.  1.
         12    1    3    3    0    0 -0.21791290565E+02 -0.34264812754E+02  0.67932982332E+01  0.41171429881E+02  0.00000000000E+00 0. -1.
</event>
<event>
 7    1  0.5832130E-012  0.5930195E+02  0.7816164E-02  0.1266605E+00
        -11   -1    0    0    0    0  0.00000000000E+00  0.00000000000E+00  0.45593999997E+02  0.45594000000E+02  0.51100000000E-03 0. -1.
         11   -1    0    0    0    0 -0.00000000000E+00 -0.00000000000E+00 -0.45593999997E+02  0.45594000000E+02  0.51100000000E-03 0.  1.
    9900012    2    1    2    0    0  0.92530117517E+01  0.24746479970E+02 -0.17852562633E+02  0.59301945211E+02  0.50000002159E+02 0.  0.
         12    1    1    2    0    0 -0.92530117517E+01 -0.24746479970E+02  0.17852562633E+02  0.31886054789E+02  0.00000000000E+00 0. -1.
         11    1    3    3    0    0  0.29717490429E+01  0.17973402826E+02  0.27627103190E+01  0.18425717628E+02  0.51100000000E-03 0. -1.
        -11    1    3    3    0    0  0.17034121388E+02  0.61763161849E+01 -0.23550288020E+02  0.29714041111E+02  0.51100000000E-03 0.  1.
         12    1    3    3    0    0 -0.10752858679E+02  0.59676095893E+00  0.29350150672E+01  0.11162186473E+02  0.00000000000E+00 0. -1.
</event>
<event>
 7    1  0.5832130E-012  0.5930196E+02  0.7816164E-02  0.1266605E+00
        -11   -1    0    0    0    0  0.00000000000E+00  0.00000000000E+00  0.45593999997E+02  0.45594000000E+02  0.51100000000E-03 0.  1.
         11   -1    0    0    0    0 -0.00000000000E+00 -0.00000000000E+00 -0.45593999997E+02  0.45594000000E+02  0.51100000000E-03 0. -1.
    9900012    2    1    2    0    0  0.29109647589E+02 -0.61797125816E+01  0.11452482607E+02  0.59301956216E+02  0.50000022229E+02 0.  0.
         12    1    1    2    0    0 -0.29109647589E+02  0.61797125816E+01 -0.11452482607E+02  0.31886043784E+02  0.00000000000E+00 0. -1.
         11    1    3    3    0    0 -0.83812168788E+01  0.27459663905E+01 -0.49724166947E+01  0.10124724976E+02  0.51100000000E-03 0. -1.
        -11    1    3    3    0    0  0.12108075221E+02 -0.11385985091E+02 -0.32903813977E+01  0.16943221419E+02  0.51100000000E-03 0.  1.
         12    1    3    3    0    0  0.25382789247E+02  0.24603061184E+01  0.19715280699E+02  0.32234009822E+02  0.00000000000E+00 0. -1.
</event>
<event>
 7    1  0.5832130E-012  0.5930195E+02  0.7816164E-02  0.1266605E+00
        -11   -1    0    0    0    0  0.00000000000E+00  0.00000000000E+00  0.45593999997E+02  0.45594000000E+02  0.51100000000E-03 0.  1.
         11   -1    0    0    0    0 -0.00000000000E+00 -0.00000000000E+00 -0.45593999997E+02  0.45594000000E+02  0.51100000000E-03 0. -1.
    9900012    2    1    2    0    0 -0.11052443425E+02  0.25951514344E+02  0.14868849036E+02  0.59301948597E+02  0.50000008333E+02 0.  0.
         12    1    1    2    0    0  0.11052443425E+02 -0.25951514344E+02 -0.14868849036E+02  0.31886051403E+02  0.00000000000E+00 0. -1.
         11    1    3    3    0    0  0.44016843536E+01  0.34992195197E+01  0.58015577655E+01  0.80794452262E+01  0.51100000000E-03 0.  1.
        -11    1    3    3    0    0 -0.27166069136E+02  0.24012653365E+02  0.13375822977E+02  0.38646027927E+02  0.51100000000E-03 0. -1.
         12    1    3    3    0    0  0.11711941357E+02 -0.15603585407E+01 -0.43085317065E+01  0.12576475444E+02  0.00000000000E+00 0. -1.
</event>
<event>
 7    1  0.5832130E-012  0.5930193E+02  0.7816164E-02  0.1266605E+00
        -11   -1    0    0    0    0  0.00000000000E+00  0.00000000000E+00  0.45593999997E+02  0.45594000000E+02  0.51100000000E-03 0. -1.
         11   -1    0    0    0    0 -0.00000000000E+00 -0.00000000000E+00 -0.45593999997E+02  0.45594000000E+02  0.51100000000E-03 0.  1.
    9900012    2    1    2    0    0  0.50717951585E+01 -0.24055938006E+02 -0.20305423725E+02  0.59301929497E+02  0.49999973500E+02 0.  0.
         12    1    1    2    0    0 -0.50717951585E+01  0.24055938006E+02  0.20305423725E+02  0.31886070503E+02  0.00000000000E+00 0. -1.
         11    1    3    3    0    0  0.52737706744E+01 -0.60609723287E+01  0.96196193215E+01  0.12533360238E+02  0.51100000000E-03 0. -1.
        -11    1    3    3    0    0 -0.75776178642E+01 -0.44185613272E+01  0.38864356719E+01  0.95941836125E+01  0.51100000000E-03 0.  1.
        -12    1    3    3    0    0  0.73756423483E+01 -0.13576404350E+02 -0.33811478718E+02  0.37174385647E+02  0.00000000000E+00 0.  1.
</event>
<event>
 7    1  0.5832130E-012  0.5930192E+02  0.7816164E-02  0.1266605E+00
        -11   -1    0    0    0    0  0.00000000000E+00  0.00000000000E+00  0.45593999997E+02  0.45594000000E+02  0.51100000000E-03 0. -1.
         11   -1    0    0    0    0 -0.00000000000E+00 -0.00000000000E+00 -0.45593999997E+02  0.45594000000E+02  0.51100000000E-03 0.  1.
    9900012    2    1    2    0    0 -0.37293214611E+01 -0.21381302778E+02 -0.23359240575E+02  0.59301920478E+02  0.49999957051E+02 0.  0.
         12    1    1    2    0    0  0.37293214611E+01  0.21381302778E+02  0.23359240575E+02  0.31886079522E+02  0.00000000000E+00 0. -1.
         11    1    3    3    0    0  0.62768436322E+01  0.52358166948E+01  0.92868240971E+01  0.12371646799E+02  0.51100000000E-03 0. -1.
        -11    1    3    3    0    0 -0.41757114116E+01 -0.85155547865E+01 -0.24444129339E+02  0.26219586162E+02  0.51100000000E-03 0.  1.
        -12    1    3    3    0    0 -0.58304536816E+01 -0.18101564686E+02 -0.82019353325E+01  0.20710687517E+02  0.00000000000E+00 0.  1.
</event>
<event>
 7    1  0.5832130E-012  0.5930183E+02  0.7816164E-02  0.1266605E+00
        -11   -1    0    0    0    0  0.00000000000E+00  0.00000000000E+00  0.45593999997E+02  0.45594000000E+02  0.51100000000E-03 0.  1.
         11   -1    0    0    0    0 -0.00000000000E+00 -0.00000000000E+00 -0.45593999997E+02  0.45594000000E+02  0.51100000000E-03 0. -1.
    9900012    2    1    2    0    0  0.98706640062E+01  0.27859648893E+02 -0.11964026257E+02  0.59301827940E+02  0.49999788283E+02 0.  0.
         12    1    1    2    0    0 -0.98706640062E+01 -0.27859648893E+02  0.11964026257E+02  0.31886172060E+02  0.00000000000E+00 0. -1.
         11    1    3    3    0    0  0.10605021719E+02  0.10819434726E+02 -0.15819761256E+02  0.21904143442E+02  0.51100000000E-03 0. -1.
        -11    1    3    3    0    0  0.12342778305E+02  0.19837703207E+02 -0.38865708478E+00  0.23367278391E+02  0.51100000000E-03 0.  1.
         12    1    3    3    0    0 -0.13077136018E+02 -0.27974890393E+01  0.42443920842E+01  0.14030406107E+02  0.00000000000E+00 0. -1.
</event>
<event>
 7    1  0.5832130E-012  0.5930195E+02  0.7816164E-02  0.1266605E+00
        -11   -1    0    0    0    0  0.00000000000E+00  0.00000000000E+00  0.45593999997E+02  0.45594000000E+02  0.51100000000E-03 0.  1.
         11   -1    0    0    0    0 -0.00000000000E+00 -0.00000000000E+00 -0.45593999997E+02  0.45594000000E+02  0.51100000000E-03 0. -1.
    9900012    2    1    2    0    0 -0.29306487224E+02 -0.12500488528E+02 -0.12599445726E+01  0.59301954977E+02  0.50000019970E+02 0.  0.
         12    1    1    2    0    0  0.29306487224E+02  0.12500488528E+02  0.12599445726E+01  0.31886045023E+02  0.00000000000E+00 0. -1.
         11    1    3    3    0    0 -0.18100919462E+02  0.44197814990E+01 -0.89966539458E+01  0.20691001337E+02  0.51100000000E-03 0.  1.
        -11    1    3    3    0    0  0.21937107022E+01  0.16150819819E+01  0.14505425553E+02  0.14759004953E+02  0.51100000000E-03 0. -1.
         12    1    3    3    0    0 -0.13399278465E+02 -0.18535352009E+02 -0.67687161802E+01  0.23851948687E+02  0.00000000000E+00 0. -1.
</event>
<event>
 7    1  0.5832130E-012  0.5930194E+02  0.7816164E-02  0.1266605E+00
        -11   -1    0    0    0    0  0.00000000000E+00  0.00000000000E+00  0.45593999997E+02  0.45594000000E+02  0.51100000000E-03 0.  1.
         11   -1    0    0    0    0 -0.00000000000E+00 -0.00000000000E+00 -0.45593999997E+02  0.45594000000E+02  0.51100000000E-03 0. -1.
    9900012    2    1    2    0    0 -0.16116132069E+02  0.65911708388E+01  0.26712307025E+02  0.59301943604E+02  0.49999999227E+02 0.  0.
         12    1    1    2    0    0  0.16116132069E+02 -0.65911708388E+01 -0.26712307025E+02  0.31886056396E+02  0.00000000000E+00 0. -1.
         11    1    3    3    0    0 -0.44052739895E+00 -0.13234523270E+02 -0.27563523996E+01  0.13525684803E+02  0.51100000000E-03 0. -1.
        -11    1    3    3    0    0 -0.86372706272E+01  0.12538770571E+02  0.66210283316E+00  0.15240130962E+02  0.51100000000E-03 0.  1.
        -12    1    3    3    0    0 -0.70383340427E+01  0.72869235377E+01  0.28806556591E+02  0.30536127839E+02  0.00000000000E+00 0.  1.
</event>
<event>
 7    1  0.5832130E-012  0.5930195E+02  0.7816164E-02  0.1266605E+00
        -11   -1    0    0    0    0  0.00000000000E+00  0.00000000000E+00  0.45593999997E+02  0.45594000000E+02  0.51100000000E-03 0.  1.
         11   -1    0    0    0    0 -0.00000000000E+00 -0.00000000000E+00 -0.45593999997E+02  0.45594000000E+02  0.51100000000E-03 0. -1.
    9900012    2    1    2    0    0 -0.31274783116E+02 -0.15186119602E+01  0.60251048648E+01  0.59301950858E+02  0.50000012457E+02 0.  0.
         12    1    1    2    0    0  0.31274783116E+02  0.15186119602E+01 -0.60251048648E+01  0.31886049142E+02  0.00000000000E+00 0. -1.
         11    1    3    3    0    0 -0.44096798393E+01 -0.73211291970E+01  0.88442758685E+01  0.12299000972E+02  0.51100000000E-03 0. -1.
        -11    1    3    3    0    0 -0.24869947428E+02 -0.23387328576E+00  0.14336465704E+02  0.28707198242E+02  0.51100000000E-03 0.  1.
        -12    1    3    3    0    0 -0.19951558486E+01  0.60363905225E+01 -0.17155636707E+02  0.18295751644E+02  0.00000000000E+00 0.  1.
</event>
<event>
 7    1  0.5832130E-012  0.5930199E+02  0.7816164E-02  0.1266605E+00
        -11   -1    0    0    0    0  0.00000000000E+00  0.00000000000E+00  0.45593999997E+02  0.45594000000E+02  0.51100000000E-03 0.  1.
         11   -1    0    0    0    0 -0.00000000000E+00 -0.00000000000E+00 -0.45593999997E+02  0.45594000000E+02  0.51100000000E-03 0. -1.
    9900012    2    1    2    0    0 -0.15074047648E+02  0.75166796959E+01  0.27073790863E+02  0.59301991503E+02  0.50000086584E+02 0.  0.
         12    1    1    2    0    0  0.15074047648E+02 -0.75166796959E+01 -0.27073790863E+02  0.31886008497E+02  0.00000000000E+00 0. -1.
         11    1    3    3    0    0  0.67275939587E+01  0.65113709255E+01 -0.37708841754E+01  0.10093465189E+02  0.51100000000E-03 0. -1.
        -11    1    3    3    0    0 -0.11380863694E+02 -0.78149463051E+01  0.32638961426E+02  0.35438668815E+02  0.51100000000E-03 0.  1.
         12    1    3    3    0    0 -0.10420777912E+02  0.88202550755E+01 -0.17942863871E+01  0.13769857499E+02  0.00000000000E+00 0. -1.
</event>
<event>
 7    1  0.5832130E-012  0.5930196E+02  0.7816164E-02  0.1266605E+00
        -11   -1    0    0    0    0  0.00000000000E+00  0.00000000000E+00  0.45593999997E+02  0.45594000000E+02  0.51100000000E-03 0.  1.
         11   -1    0    0    0    0 -0.00000000000E+00 -0.00000000000E+00 -0.45593999997E+02  0.45594000000E+02  0.51100000000E-03 0. -1.
    9900012    2    1    2    0    0  0.12614834719E+02 -0.23315834648E+02  0.17718842416E+02  0.59301959529E+02  0.50000028272E+02 0.  0.
         12    1    1    2    0    0 -0.12614834719E+02  0.23315834648E+02 -0.17718842416E+02  0.31886040471E+02  0.00000000000E+00 0. -1.
         11    1    3    3    0    0  0.95509863772E+01 -0.32010143053E+01  0.22778287479E+02  0.24906188269E+02  0.51100000000E-03 0.  1.
        -11    1    3    3    0    0  0.87532344483E+01 -0.14231848727E+02  0.83558777511E+01  0.18681148914E+02  0.51100000000E-03 0. -1.
         12    1    3    3    0    0 -0.56893861070E+01 -0.58829716163E+01 -0.13415322814E+02  0.15714622347E+02  0.00000000000E+00 0. -1.
</event>
<event>
 7    1  0.5832130E-012  0.5930193E+02  0.7816164E-02  0.1266605E+00
        -11   -1    0    0    0    0  0.00000000000E+00  0.00000000000E+00  0.45593999997E+02  0.45594000000E+02  0.51100000000E-03 0.  1.
         11   -1    0    0    0    0 -0.00000000000E+00 -0.00000000000E+00 -0.45593999997E+02  0.45594000000E+02  0.51100000000E-03 0. -1.
    9900012    2    1    2    0    0 -0.25574583970E+02  0.17129625234E+02 -0.83209252451E+01  0.59301934033E+02  0.49999981772E+02 0.  0.
         12    1    1    2    0    0  0.25574583970E+02 -0.17129625234E+02  0.83209252451E+01  0.31886065967E+02  0.00000000000E+00 0. -1.
         11    1    3    3    0    0  0.10616075660E+01  0.38979784286E+01  0.62684978084E+01  0.74575673975E+01  0.51100000000E-03 0. -1.
        -11    1    3    3    0    0  0.38805819489E+01 -0.76520538928E+01  0.50689818877E+01  0.99653109676E+01  0.51100000000E-03 0.  1.
         12    1    3    3    0    0 -0.30516773485E+02  0.20883700698E+02 -0.19658404941E+02  0.41879055668E+02  0.00000000000E+00 0. -1.
</event>
<event>
 7    1  0.5832130E-012  0.5930194E+02  0.7816164E-02  0.1266605E+00
        -11   -1    0    0    0    0  0.00000000000E+00  0.00000000000E+00  0.45593999997E+02  0.45594000000E+02  0.51100000000E-03 0.  1.
         11   -1    0    0    0    0 -0.00000000000E+00 -0.00000000000E+00 -0.45593999997E+02  0.45594000000E+02  0.51100000000E-03 0. -1.
    9900012    2    1    2    0    0  0.13258249857E+00  0.31840314732E+02  0.17021822241E+01  0.59301942785E+02  0.49999997734E+02 0.  0.
         12    1    1    2    0    0 -0.13258249857E+00 -0.31840314732E+02 -0.17021822241E+01  0.31886057215E+02  0.00000000000E+00 0. -1.
         11    1    3    3    0    0 -0.18617753912E+01  0.60622380307E+01  0.12188034402E+02  0.13739181941E+02  0.51100000000E-03 0. -1.
        -11    1    3    3    0    0  0.82417598809E+01  0.42426771123E+01  0.11083847039E+02  0.14449172311E+02  0.51100000000E-03 0.  1.
         12    1    3    3    0    0 -0.62474019912E+01  0.21535399589E+02 -0.21569699218E+02  0.31113588534E+02  0.00000000000E+00 0. -1.
</event>
<event>
 7    1  0.5832130E-012  0.5930190E+02  0.7816164E-02  0.1266605E+00
        -11   -1    0    0    0    0  0.00000000000E+00  0.00000000000E+00  0.45593999997E+02  0.45594000000E+02  0.51100000000E-03 0.  1.
         11   -1    0    0    0    0 -0.00000000000E+00 -0.00000000000E+00 -0.45593999997E+02  0.45594000000E+02  0.51100000000E-03 0. -1.
    9900012    2    1    2    0    0  0.13623694092E+02 -0.76461428198E+01  0.27796670087E+02  0.59301899445E+02  0.49999918691E+02 0.  0.
         12    1    1    2    0    0 -0.13623694092E+02  0.76461428198E+01 -0.27796670087E+02  0.31886100555E+02  0.00000000000E+00 0. -1.
         11    1    3    3    0    0  0.10922903632E+02 -0.10410148969E+02  0.64392892411E+01  0.16405653645E+02  0.51100000000E-03 0. -1.
        -11    1    3    3    0    0  0.14791468202E+02  0.77037326634E+01 -0.13169203129E+01  0.16729294901E+02  0.51100000000E-03 0.  1.
        -12    1    3    3    0    0 -0.12090677743E+02 -0.49397265141E+01  0.22674301159E+02  0.26166950899E+02  0.00000000000E+00 0.  1.
</event>
<event>
 7    1  0.5832130E-012  0.5930195E+02  0.7816164E-02  0.1266605E+00
        -11   -1    0    0    0    0  0.00000000000E+00  0.00000000000E+00  0.45593999997E+02  0.45594000000E+02  0.51100000000E-03 0.  1.
         11   -1    0    0    0    0 -0.00000000000E+00 -0.00000000000E+00 -0.45593999997E+02  0.45594000000E+02  0.51100000000E-03 0. -1.
    9900012    2    1    2    0    0  0.55710760989E+01  0.15296903013E+01  0.31358308582E+02  0.59301947274E+02  0.50000005920E+02 0.  0.
         12    1    1    2    0    0 -0.55710760989E+01 -0.15296903013E+01 -0.31358308582E+02  0.31886052726E+02  0.00000000000E+00 0. -1.
         11    1    3    3    0    0  0.87927583659E+01  0.24149109227E+01  0.11975432547E+02  0.15051756688E+02  0.51100000000E-03 0.  1.
        -11    1    3    3    0    0 -0.93630645734E+00 -0.13927608384E+02  0.25952863752E+02  0.29468730585E+02  0.51100000000E-03 0. -1.
        -12    1    3    3    0    0 -0.22853758097E+01  0.13042387762E+02 -0.65699877173E+01  0.14781460000E+02  0.00000000000E+00 0.  1.
</event>
<event>
 7    1  0.5832130E-012  0.5930194E+02  0.7816164E-02  0.1266605E+00
        -11   -1    0    0    0    0  0.00000000000E+00  0.00000000000E+00  0.45593999997E+02  0.45594000000E+02  0.51100000000E-03 0.  1.
         11   -1    0    0    0    0 -0.00000000000E+00 -0.00000000000E+00 -0.45593999997E+02  0.45594000000E+02  0.51100000000E-03 0. -1.
    9900012    2    1    2    0    0  0.23506632507E+02 -0.20618050408E+02 -0.62494055054E+01  0.59301939666E+02  0.49999992045E+02 0.  0.
         12    1    1    2    0    0 -0.23506632507E+02  0.20618050408E+02  0.62494055054E+01  0.31886060334E+02  0.00000000000E+00 0. -1.
         11    1    3    3    0    0 -0.75869825261E+01 -0.15666847554E+02 -0.49945716494E-01  0.17407323486E+02  0.51100000000E-03 0. -1.
        -11    1    3    3    0    0 -0.21719922649E+01 -0.57663517204E+01  0.36878908608E+01  0.71811490602E+01  0.51100000000E-03 0.  1.
        -12    1    3    3    0    0  0.33265607298E+02  0.81514886592E+00 -0.98873506497E+01  0.34713467119E+02  0.00000000000E+00 0.  1.
</event>
<event>
 7    1  0.5832130E-012  0.5930193E+02  0.7816164E-02  0.1266605E+00
        -11   -1    0    0    0    0  0.00000000000E+00  0.00000000000E+00  0.45593999997E+02  0.45594000000E+02  0.51100000000E-03 0.  1.
         11   -1    0    0    0    0 -0.00000000000E+00 -0.00000000000E+00 -0.45593999997E+02  0.45594000000E+02  0.51100000000E-03 0. -1.
    9900012    2    1    2    0    0 -0.87380196146E+01  0.30605629702E+02 -0.19140822614E+01  0.59301933024E+02  0.49999979933E+02 0.  0.
         12    1    1    2    0    0  0.87380196146E+01 -0.30605629702E+02  0.19140822614E+01  0.31886066976E+02  0.00000000000E+00 0. -1.
         11    1    3    3    0    0 -0.21532128685E+02  0.23140267963E+02  0.14456012251E+01  0.31641654986E+02  0.51100000000E-03 0. -1.
        -11    1    3    3    0    0  0.15131749105E+01  0.13245674016E+02 -0.61487401120E+01  0.14681436704E+02  0.51100000000E-03 0.  1.
         12    1    3    3    0    0  0.11280934160E+02 -0.57803122767E+01  0.27890566255E+01  0.12978841335E+02  0.00000000000E+00 0. -1.
</event>
<event>
 7    1  0.5832130E-012  0.5930189E+02  0.7816164E-02  0.1266605E+00
        -11   -1    0    0    0    0  0.00000000000E+00  0.00000000000E+00  0.45593999997E+02  0.45594000000E+02  0.51100000000E-03 0.  1.
         11   -1    0    0    0    0 -0.00000000000E+00 -0.00000000000E+00 -0.45593999997E+02  0.45594000000E+02  0.51100000000E-03 0. -1.
    9900012    2    1    2    0    0  0.11697330607E+02 -0.26540928921E+02  0.13246719436E+02  0.59301889745E+02  0.49999901002E+02 0.  0.
         12    1    1    2    0    0 -0.11697330607E+02  0.26540928921E+02 -0.13246719436E+02  0.31886110255E+02  0.00000000000E+00 0. -1.
         11    1    3    3    0    0 -0.46230119902E+00 -0.24597694806E+02 -0.10269350509E+02  0.26659329930E+02  0.51100000000E-03 0. -1.
        -11    1    3    3    0    0 -0.36623618971E+01 -0.52708030760E+01  0.77110725853E+01  0.10032691583E+02  0.51100000000E-03 0.  1.
         12    1    3    3    0    0  0.15821993704E+02  0.33275689603E+01  0.15804997360E+02  0.22609868232E+02  0.00000000000E+00 0. -1.
</event>
<event>
 7    1  0.5832130E-012  0.5930168E+02  0.7816164E-02  0.1266606E+00
        -11   -1    0    0    0    0  0.00000000000E+00  0.00000000000E+00  0.45593999997E+02  0.45594000000E+02  0.51100000000E-03 0.  1.
         11   -1    0    0    0    0 -0.00000000000E+00 -0.00000000000E+00 -0.45593999997E+02  0.45594000000E+02  0.51100000000E-03 0. -1.
    9900012    2    1    2    0    0 -0.25461103547E+02  0.13726687459E+02  0.13418176848E+02  0.59301682992E+02  0.49999523931E+02 0.  0.
         12    1    1    2    0    0  0.25461103547E+02 -0.13726687459E+02 -0.13418176848E+02  0.31886317008E+02  0.00000000000E+00 0. -1.
         11    1    3    3    0    0 -0.11299023329E+01 -0.66490633899E+01  0.48158949190E+01  0.82873136406E+01  0.51100000000E-03 0.  1.
        -11    1    3    3    0    0 -0.25522335090E+02  0.21248596412E+02 -0.81515233941E+01  0.34195610418E+02  0.51100000000E-03 0. -1.
         12    1    3    3    0    0  0.11911338763E+01 -0.87284556310E+00  0.16753805323E+02  0.16818758934E+02  0.00000000000E+00 0. -1.
</event>
<event>
 7    1  0.5832130E-012  0.5930214E+02  0.7816164E-02  0.1266604E+00
        -11   -1    0    0    0    0  0.00000000000E+00  0.00000000000E+00  0.45593999997E+02  0.45594000000E+02  0.51100000000E-03 0. -1.
         11   -1    0    0    0    0 -0.00000000000E+00 -0.00000000000E+00 -0.45593999997E+02  0.45594000000E+02  0.51100000000E-03 0.  1.
    9900012    2    1    2    0    0 -0.24076339246E+01 -0.71416267963E+01 -0.30982391631E+02  0.59302139096E+02  0.50000355756E+02 0.  0.
         12    1    1    2    0    0  0.24076339246E+01  0.71416267963E+01  0.30982391631E+02  0.31885860904E+02  0.00000000000E+00 0. -1.
         11    1    3    3    0    0  0.79278203538E+01  0.79146104127E+00 -0.19528992469E+02  0.21091664070E+02  0.51100000000E-03 0. -1.
        -11    1    3    3    0    0 -0.73664606693E+01  0.12079881967E+02 -0.11086831648E+02  0.17975153056E+02  0.51100000000E-03 0.  1.
         12    1    3    3    0    0 -0.29689936091E+01 -0.20012969805E+02 -0.36656751382E+00  0.20235321969E+02  0.00000000000E+00 0. -1.
</event>
<event>
 7    1  0.5832130E-012  0.5930196E+02  0.7816164E-02  0.1266605E+00
        -11   -1    0    0    0    0  0.00000000000E+00  0.00000000000E+00  0.45593999997E+02  0.45594000000E+02  0.51100000000E-03 0. -1.
         11   -1    0    0    0    0 -0.00000000000E+00 -0.00000000000E+00 -0.45593999997E+02  0.45594000000E+02  0.51100000000E-03 0.  1.
    9900012    2    1    2    0    0 -0.10160596453E+02 -0.22838526837E+02 -0.19796046046E+02  0.59301961246E+02  0.50000031402E+02 0.  0.
         12    1    1    2    0    0  0.10160596453E+02  0.22838526837E+02  0.19796046046E+02  0.31886038754E+02  0.00000000000E+00 0. -1.
         11    1    3    3    0    0 -0.90718305854E+01 -0.58827297174E+01  0.89236484939E+01  0.14019134132E+02  0.51100000000E-03 0.  1.
        -11    1    3    3    0    0  0.10387917191E+02 -0.18562040930E+01 -0.23267555873E+02  0.25548649158E+02  0.51100000000E-03 0. -1.
         12    1    3    3    0    0 -0.11476683059E+02 -0.15099593026E+02 -0.54521386671E+01  0.19734177957E+02  0.00000000000E+00 0. -1.
</event>
<event>
 7    1  0.5832130E-012  0.5930194E+02  0.7816164E-02  0.1266605E+00
        -11   -1    0    0    0    0  0.00000000000E+00  0.00000000000E+00  0.45593999997E+02  0.45594000000E+02  0.51100000000E-03 0.  1.
         11   -1    0    0    0    0 -0.00000000000E+00 -0.00000000000E+00 -0.45593999997E+02  0.45594000000E+02  0.51100000000E-03 0. -1.
    9900012    2    1    2    0    0 -0.26309319792E+02  0.15039764902E+02  0.99169517119E+01  0.59301940860E+02  0.49999994223E+02 0.  0.
         12    1    1    2    0    0  0.26309319792E+02 -0.15039764902E+02 -0.99169517119E+01  0.31886059140E+02  0.00000000000E+00 0. -1.
         11    1    3    3    0    0  0.11700532424E+02  0.80792322132E+01  0.60078223595E+01  0.15436009261E+02  0.51100000000E-03 0. -1.
        -11    1    3    3    0    0 -0.20052154205E+02  0.12030995228E+02 -0.37725259402E+01  0.23686825171E+02  0.51100000000E-03 0.  1.
        -12    1    3    3    0    0 -0.17957698010E+02 -0.50704625394E+01  0.76816552927E+01  0.20179106427E+02  0.00000000000E+00 0.  1.
</event>
<event>
 7    1  0.5832130E-012  0.5930191E+02  0.7816164E-02  0.1266605E+00
        -11   -1    0    0    0    0  0.00000000000E+00  0.00000000000E+00  0.45593999997E+02  0.45594000000E+02  0.51100000000E-03 0. -1.
         11   -1    0    0    0    0 -0.00000000000E+00 -0.00000000000E+00 -0.45593999997E+02  0.45594000000E+02  0.51100000000E-03 0.  1.
    9900012    2    1    2    0    0  0.23846694126E+02  0.19315405628E+02 -0.86586991185E+01  0.59301909212E+02  0.49999936505E+02 0.  0.
         12    1    1    2    0    0 -0.23846694126E+02 -0.19315405628E+02  0.86586991185E+01  0.31886090788E+02  0.00000000000E+00 0. -1.
         11    1    3    3    0    0  0.11625414665E+02 -0.43911504068E+01 -0.12022520515E+02  0.17290849251E+02  0.51100000000E-03 0. -1.
        -11    1    3    3    0    0 -0.44930670186E+01  0.67464285731E+01 -0.11404129313E+02  0.13991287124E+02  0.51100000000E-03 0.  1.
        -12    1    3    3    0    0  0.16714346479E+02  0.16960127462E+02  0.14767950709E+02  0.28019772838E+02  0.00000000000E+00 0.  1.
</event>
<event>
 7    1  0.5832130E-012  0.5930191E+02  0.7816164E-02  0.1266605E+00
        -11   -1    0    0    0    0  0.00000000000E+00  0.00000000000E+00  0.45593999997E+02  0.45594000000E+02  0.51100000000E-03 0. -1.
         11   -1    0    0    0    0 -0.00000000000E+00 -0.00000000000E+00 -0.45593999997E+02  0.45594000000E+02  0.51100000000E-03 0.  1.
    9900012    2    1    2    0    0 -0.27243347364E+00  0.28288132793E+02 -0.14711554713E+02  0.59301913395E+02  0.49999944134E+02 0.  0.
         12    1    1    2    0    0  0.27243347364E+00 -0.28288132793E+02  0.14711554713E+02  0.31886086605E+02  0.00000000000E+00 0. -1.
         11    1    3    3    0    0 -0.11074099397E-01  0.27626474235E+01  0.95931312581E+01  0.99830111198E+01  0.51100000000E-03 0. -1.
        -11    1    3    3    0    0 -0.64476941972E+01 -0.55296927109E+01 -0.13328723464E+02  0.15805224813E+02  0.51100000000E-03 0.  1.
         12    1    3    3    0    0  0.61863348229E+01  0.31055178080E+02 -0.10975962506E+02  0.33513677463E+02  0.00000000000E+00 0. -1.
</event>
<event>
 7    1  0.5832130E-012  0.5930193E+02  0.7816164E-02  0.1266605E+00
        -11   -1    0    0    0    0  0.00000000000E+00  0.00000000000E+00  0.45593999997E+02  0.45594000000E+02  0.51100000000E-03 0.  1.
         11   -1    0    0    0    0 -0.00000000000E+00 -0.00000000000E+00 -0.45593999997E+02  0.45594000000E+02  0.51100000000E-03 0. -1.
    9900012    2    1    2    0    0  0.14392390711E+02  0.26292301160E+02  0.10876383121E+02  0.59301925917E+02  0.49999966970E+02 0.  0.
         12    1    1    2    0    0 -0.14392390711E+02 -0.26292301160E+02 -0.10876383121E+02  0.31886074083E+02  0.00000000000E+00 0. -1.
         11    1    3    3    0    0  0.16308614134E+02 -0.43074508951E+01  0.49472391073E+01  0.17578401612E+02  0.51100000000E-03 0.  1.
        -11    1    3    3    0    0  0.21215600012E+00 -0.77994170022E+00  0.99793432641E+01  0.10012023345E+02  0.51100000000E-03 0. -1.
         12    1    3    3    0    0 -0.21283794239E+01  0.31379693755E+02 -0.40501992505E+01  0.31711500959E+02  0.00000000000E+00 0. -1.
</event>
<event>
 7    1  0.5832130E-012  0.5930221E+02  0.7816164E-02  0.1266604E+00
        -11   -1    0    0    0    0  0.00000000000E+00  0.00000000000E+00  0.45593999997E+02  0.45594000000E+02  0.51100000000E-03 0.  1.
         11   -1    0    0    0    0 -0.00000000000E+00 -0.00000000000E+00 -0.45593999997E+02  0.45594000000E+02  0.51100000000E-03 0. -1.
    9900012    2    1    2    0    0 -0.69477537610E+01  0.29389791394E+02  0.10230966014E+02  0.59302207143E+02  0.50000479857E+02 0.  0.
         12    1    1    2    0    0  0.69477537610E+01 -0.29389791394E+02 -0.10230966014E+02  0.31885792857E+02  0.00000000000E+00 0. -1.
         11    1    3    3    0    0 -0.99862307381E+01 -0.19290571340E+01 -0.25462536960E+01  0.10484725744E+02  0.51100000000E-03 0. -1.
        -11    1    3    3    0    0 -0.17550698150E+01 -0.73058912205E+01  0.52735861649E+01  0.91797073962E+01  0.51100000000E-03 0.  1.
        -12    1    3    3    0    0  0.47935467922E+01  0.38624739749E+02  0.75036335456E+01  0.39637774003E+02  0.00000000000E+00 0.  1.
</event>
<event>
 7    1  0.5832130E-012  0.5930194E+02  0.7816164E-02  0.1266605E+00
        -11   -1    0    0    0    0  0.00000000000E+00  0.00000000000E+00  0.45593999997E+02  0.45594000000E+02  0.51100000000E-03 0.  1.
         11   -1    0    0    0    0 -0.00000000000E+00 -0.00000000000E+00 -0.45593999997E+02  0.45594000000E+02  0.51100000000E-03 0. -1.
    9900012    2    1    2    0    0 -0.15339535895E+02  0.16949384868E+02  0.22229209535E+02  0.59301940892E+02  0.49999994281E+02 0.  0.
         12    1    1    2    0    0  0.15339535895E+02 -0.16949384868E+02 -0.22229209535E+02  0.31886059108E+02  0.00000000000E+00 0. -1.
         11    1    3    3    0    0 -0.99370544628E+01  0.30830705687E+01  0.21344838127E+00  0.10406533332E+02  0.51100000000E-03 0. -1.
        -11    1    3    3    0    0 -0.22177619441E+02  0.13245972153E+02  0.18422868136E+02  0.31728609377E+02  0.51100000000E-03 0.  1.
        -12    1    3    3    0    0  0.16775138009E+02  0.62034214720E+00  0.35928930173E+01  0.17166798183E+02  0.00000000000E+00 0.  1.
</event>
<event>
 7    1  0.5832130E-012  0.5930192E+02  0.7816164E-02  0.1266605E+00
        -11   -1    0    0    0    0  0.00000000000E+00  0.00000000000E+00  0.45593999997E+02  0.45594000000E+02  0.51100000000E-03 0.  1.
         11   -1    0    0    0    0 -0.00000000000E+00 -0.00000000000E+00 -0.45593999997E+02  0.45594000000E+02  0.51100000000E-03 0. -1.
    9900012    2    1    2    0    0 -0.10631701275E+02  0.89312923910E+00  0.30048148374E+02  0.59301921963E+02  0.49999959760E+02 0.  0.
         12    1    1    2    0    0  0.10631701275E+02 -0.89312923910E+00 -0.30048148374E+02  0.31886078037E+02  0.00000000000E+00 0. -1.
         11    1    3    3    0    0 -0.25335527746E+02 -0.41015718022E+01  0.15897407082E+02  0.30190054814E+02  0.51100000000E-03 0. -1.
        -11    1    3    3    0    0  0.84554630822E+00  0.89280819310E+01  0.70991109510E-01  0.89683128583E+01  0.51100000000E-03 0.  1.
        -12    1    3    3    0    0  0.13858280163E+02 -0.39333808897E+01  0.14079750182E+02  0.20143554291E+02  0.00000000000E+00 0.  1.
</event>
<event>
 7    1  0.5832130E-012  0.5930193E+02  0.7816164E-02  0.1266605E+00
        -11   -1    0    0    0    0  0.00000000000E+00  0.00000000000E+00  0.45593999997E+02  0.45594000000E+02  0.51100000000E-03 0. -1.
         11   -1    0    0    0    0 -0.00000000000E+00 -0.00000000000E+00 -0.45593999997E+02  0.45594000000E+02  0.51100000000E-03 0.  1.
    9900012    2    1    2    0    0  0.25576784061E+02 -0.79137992514E+01  0.17318246774E+02  0.59301925096E+02  0.49999965472E+02 0.  0.
         12    1    1    2    0    0 -0.25576784061E+02  0.79137992514E+01 -0.17318246774E+02  0.31886074904E+02  0.00000000000E+00 0. -1.
         11    1    3    3    0    0  0.64153208181E+01 -0.18334481478E+02  0.47187563086E+01  0.19989402533E+02  0.51100000000E-03 0. -1.
        -11    1    3    3    0    0  0.78181649988E+00 -0.64739469675E+01 -0.54562870080E+01  0.85026051627E+01  0.51100000000E-03 0.  1.
         12    1    3    3    0    0  0.18379646743E+02  0.16894629194E+02  0.18055777474E+02  0.30809917400E+02  0.00000000000E+00 0. -1.
</event>
<event>
 7    1  0.5832130E-012  0.5930195E+02  0.7816164E-02  0.1266605E+00
        -11   -1    0    0    0    0  0.00000000000E+00  0.00000000000E+00  0.45593999997E+02  0.45594000000E+02  0.51100000000E-03 0.  1.
         11   -1    0    0    0    0 -0.00000000000E+00 -0.00000000000E+00 -0.45593999997E+02  0.45594000000E+02  0.51100000000E-03 0. -1.
    9900012    2    1    2    0    0  0.31383267414E+02  0.20452424495E+01  0.52562264568E+01  0.59301946516E+02  0.50000004537E+02 0.  0.
         12    1    1    2    0    0 -0.31383267414E+02 -0.20452424495E+01 -0.52562264568E+01  0.31886053484E+02  0.00000000000E+00 0. -1.
         11    1    3    3    0    0 -0.46780837958E+01  0.21706023312E+01 -0.42744720959E+00  0.51748134129E+01  0.51100000000E-03 0. -1.
        -11    1    3    3    0    0 -0.78380179940E+01  0.45072759017E+01  0.41731286478E+01  0.99581657498E+01  0.51100000000E-03 0.  1.
        -12    1    3    3    0    0  0.43899369204E+02 -0.46326357835E+01  0.15105450186E+01  0.44168967353E+02  0.00000000000E+00 0.  1.
</event>
<event>
 7    1  0.5832130E-012  0.5930198E+02  0.7816164E-02  0.1266605E+00
        -11   -1    0    0    0    0  0.00000000000E+00  0.00000000000E+00  0.45593999997E+02  0.45594000000E+02  0.51100000000E-03 0.  1.
         11   -1    0    0    0    0 -0.00000000000E+00 -0.00000000000E+00 -0.45593999997E+02  0.45594000000E+02  0.51100000000E-03 0. -1.
    9900012    2    1    2    0    0 -0.13765080556E+02 -0.62295638350E+01  0.28079060269E+02  0.59301975885E+02  0.50000058099E+02 0.  0.
         12    1    1    2    0    0  0.13765080556E+02  0.62295638350E+01 -0.28079060269E+02  0.31886024115E+02  0.00000000000E+00 0. -1.
         11    1    3    3    0    0 -0.16631303378E+02 -0.57076976218E+01 -0.38908349877E+01  0.18008794001E+02  0.51100000000E-03 0. -1.
        -11    1    3    3    0    0 -0.11504022585E+02 -0.20454878303E+01  0.14263554132E+02  0.18438425443E+02  0.51100000000E-03 0.  1.
         12    1    3    3    0    0  0.14370245408E+02  0.15236216170E+01  0.17706341125E+02  0.22854756440E+02  0.00000000000E+00 0. -1.
</event>
<event>
 7    1  0.5832130E-012  0.5930196E+02  0.7816164E-02  0.1266605E+00
        -11   -1    0    0    0    0  0.00000000000E+00  0.00000000000E+00  0.45593999997E+02  0.45594000000E+02  0.51100000000E-03 0.  1.
         11   -1    0    0    0    0 -0.00000000000E+00 -0.00000000000E+00 -0.45593999997E+02  0.45594000000E+02  0.51100000000E-03 0. -1.
    9900012    2    1    2    0    0 -0.28645645870E+02  0.13415667825E+01 -0.13940826877E+02  0.59301961005E+02  0.50000030963E+02 0.  0.
         12    1    1    2    0    0  0.28645645870E+02 -0.13415667825E+01  0.13940826877E+02  0.31886038995E+02  0.00000000000E+00 0. -1.
         11    1    3    3    0    0  0.52740975463E+01  0.58649842590E+01 -0.39160292636E+01  0.88062154607E+01  0.51100000000E-03 0. -1.
        -11    1    3    3    0    0 -0.47807271760E+01  0.67413917593E+01  0.10314857192E+02  0.13217336885E+02  0.51100000000E-03 0.  1.
        -12    1    3    3    0    0 -0.29139016241E+02 -0.11264809236E+02 -0.20339654805E+02  0.37278408660E+02  0.00000000000E+00 0.  1.
</event>
<event>
 7    1  0.5832130E-012  0.5930194E+02  0.7816164E-02  0.1266605E+00
        -11   -1    0    0    0    0  0.00000000000E+00  0.00000000000E+00  0.45593999997E+02  0.45594000000E+02  0.51100000000E-03 0.  1.
         11   -1    0    0    0    0 -0.00000000000E+00 -0.00000000000E+00 -0.45593999997E+02  0.45594000000E+02  0.51100000000E-03 0. -1.
    9900012    2    1    2    0    0 -0.14751161725E+02  0.17552299424E+02  0.22159446164E+02  0.59301936561E+02  0.49999986383E+02 0.  0.
         12    1    1    2    0    0  0.14751161725E+02 -0.17552299424E+02 -0.22159446164E+02  0.31886063439E+02  0.00000000000E+00 0. -1.
         11    1    3    3    0    0 -0.18656549919E+01  0.60618760898E+01 -0.12000280043E+02  0.13573272694E+02  0.51100000000E-03 0. -1.
        -11    1    3    3    0    0  0.59657397167E+01  0.16201236438E+01  0.90360897631E+00  0.62475083379E+01  0.51100000000E-03 0.  1.
        -12    1    3    3    0    0 -0.18851246450E+02  0.98702996907E+01  0.33256117230E+02  0.39481155529E+02  0.00000000000E+00 0.  1.
</event>
<event>
 7    1  0.5832130E-012  0.5930195E+02  0.7816164E-02  0.1266605E+00
        -11   -1    0    0    0    0  0.00000000000E+00  0.00000000000E+00  0.45593999997E+02  0.45594000000E+02  0.51100000000E-03 0.  1.
         11   -1    0    0    0    0 -0.00000000000E+00 -0.00000000000E+00 -0.45593999997E+02  0.45594000000E+02  0.51100000000E-03 0. -1.
    9900012    2    1    2    0    0 -0.79050397359E+01  0.40203865337E+01  0.30627882010E+02  0.59301947916E+02  0.50000007091E+02 0.  0.
         12    1    1    2    0    0  0.79050397359E+01 -0.40203865337E+01 -0.30627882010E+02  0.31886052084E+02  0.00000000000E+00 0. -1.
         11    1    3    3    0    0 -0.31488401517E+01  0.20238009665E+02  0.11964410301E+02  0.23720019891E+02  0.51100000000E-03 0. -1.
        -11    1    3    3    0    0  0.81089944599E+00 -0.94449679830E+01  0.23661801262E+02  0.25490112148E+02  0.51100000000E-03 0.  1.
        -12    1    3    3    0    0 -0.55670990302E+01 -0.67726551483E+01 -0.49983295532E+01  0.10091815877E+02  0.00000000000E+00 0.  1.
</event>
<event>
 7    1  0.5832130E-012  0.5930198E+02  0.7816164E-02  0.1266605E+00
        -11   -1    0    0    0    0  0.00000000000E+00  0.00000000000E+00  0.45593999997E+02  0.45594000000E+02  0.51100000000E-03 0.  1.
         11   -1    0    0    0    0 -0.00000000000E+00 -0.00000000000E+00 -0.45593999997E+02  0.45594000000E+02  0.51100000000E-03 0. -1.
    9900012    2    1    2    0    0 -0.27369163095E+02  0.14252899361E+01  0.16297718687E+02  0.59301981523E+02  0.50000068383E+02 0.  0.
         12    1    1    2    0    0  0.27369163095E+02 -0.14252899361E+01 -0.16297718687E+02  0.31886018477E+02  0.00000000000E+00 0. -1.
         11    1    3    3    0    0 -0.30331074507E+01  0.22213337846E+01 -0.21631016426E+01  0.43374040125E+01  0.51100000000E-03 0. -1.
        -11    1    3    3    0    0  0.28814455041E+01 -0.97250684099E+01 -0.10241441978E+02  0.14414118698E+02  0.51100000000E-03 0.  1.
        -12    1    3    3    0    0 -0.27217501148E+02  0.89290245614E+01  0.28702262308E+02  0.40550458813E+02  0.00000000000E+00 0.  1.
</event>
<event>
 7    1  0.5832130E-012  0.5930195E+02  0.7816164E-02  0.1266605E+00
        -11   -1    0    0    0    0  0.00000000000E+00  0.00000000000E+00  0.45593999997E+02  0.45594000000E+02  0.51100000000E-03 0. -1.
         11   -1    0    0    0    0 -0.00000000000E+00 -0.00000000000E+00 -0.45593999997E+02  0.45594000000E+02  0.51100000000E-03 0.  1.
    9900012    2    1    2    0    0  0.98408660077E+01 -0.21558904935E+02 -0.21332864531E+02  0.59301950779E+02  0.50000012313E+02 0.  0.
         12    1    1    2    0    0 -0.98408660077E+01  0.21558904935E+02  0.21332864531E+02  0.31886049221E+02  0.00000000000E+00 0. -1.
         11    1    3    3    0    0 -0.25873201938E+01  0.28624918488E+01  0.50484703825E+01  0.63541434383E+01  0.51100000000E-03 0. -1.
        -11    1    3    3    0    0  0.51457396450E+00  0.33591707141E+01  0.70810418821E+01  0.78542961905E+01  0.51100000000E-03 0.  1.
        -12    1    3    3    0    0  0.11913612237E+02 -0.27780567498E+02 -0.33462376796E+02  0.45093511151E+02  0.00000000000E+00 0.  1.
</event>
<event>
 7    1  0.5832130E-012  0.5930170E+02  0.7816164E-02  0.1266606E+00
        -11   -1    0    0    0    0  0.00000000000E+00  0.00000000000E+00  0.45593999997E+02  0.45594000000E+02  0.51100000000E-03 0. -1.
         11   -1    0    0    0    0 -0.00000000000E+00 -0.00000000000E+00 -0.45593999997E+02  0.45594000000E+02  0.51100000000E-03 0.  1.
    9900012    2    1    2    0    0 -0.18451097702E+01 -0.31306568263E+02  0.57645626494E+01  0.59301704683E+02  0.49999563492E+02 0.  0.
         12    1    1    2    0    0  0.18451097702E+01  0.31306568263E+02 -0.57645626494E+01  0.31886295317E+02  0.00000000000E+00 0. -1.
         11    1    3    3    0    0 -0.17462605145E+02 -0.29256728192E+02  0.93821223399E+01  0.35340103888E+02  0.51100000000E-03 0.  1.
        -11    1    3    3    0    0 -0.16527588062E+01  0.36362101030E+01  0.25767157606E+01  0.47532199567E+01  0.51100000000E-03 0. -1.
        -12    1    3    3    0    0  0.17270254181E+02 -0.56860501737E+01 -0.61942754510E+01  0.19208380838E+02  0.00000000000E+00 0.  1.
</event>
<event>
 7    1  0.5832130E-012  0.5930193E+02  0.7816164E-02  0.1266605E+00
        -11   -1    0    0    0    0  0.00000000000E+00  0.00000000000E+00  0.45593999997E+02  0.45594000000E+02  0.51100000000E-03 0. -1.
         11   -1    0    0    0    0 -0.00000000000E+00 -0.00000000000E+00 -0.45593999997E+02  0.45594000000E+02  0.51100000000E-03 0.  1.
    9900012    2    1    2    0    0 -0.23944882170E+02  0.81717440898E+01 -0.19405836937E+02  0.59301932654E+02  0.49999979256E+02 0.  0.
         12    1    1    2    0    0  0.23944882170E+02 -0.81717440898E+01  0.19405836937E+02  0.31886067346E+02  0.00000000000E+00 0. -1.
         11    1    3    3    0    0 -0.30243650787E+01 -0.72237746115E+01 -0.16621843341E+02  0.18374313050E+02  0.51100000000E-03 0. -1.
        -11    1    3    3    0    0 -0.13132096045E+02  0.55796199412E+01 -0.16856778920E+02  0.22084725515E+02  0.51100000000E-03 0.  1.
        -12    1    3    3    0    0 -0.77884210457E+01  0.98158987602E+01  0.14072785324E+02  0.18842894088E+02  0.00000000000E+00 0.  1.
</event>
<event>
 7    1  0.5832130E-012  0.5930194E+02  0.7816164E-02  0.1266605E+00
        -11   -1    0    0    0    0  0.00000000000E+00  0.00000000000E+00  0.45593999997E+02  0.45594000000E+02  0.51100000000E-03 0. -1.
         11   -1    0    0    0    0 -0.00000000000E+00 -0.00000000000E+00 -0.45593999997E+02  0.45594000000E+02  0.51100000000E-03 0.  1.
    9900012    2    1    2    0    0 -0.15735521480E+02  0.10675159233E+02 -0.25596003299E+02  0.59301936496E+02  0.49999986264E+02 0.  0.
         12    1    1    2    0    0  0.15735521480E+02 -0.10675159233E+02  0.25596003299E+02  0.31886063504E+02  0.00000000000E+00 0. -1.
         11    1    3    3    0    0 -0.81572856462E+01 -0.11494688754E+02 -0.79216379854E+01  0.16168535100E+02  0.51100000000E-03 0. -1.
        -11    1    3    3    0    0 -0.15947360864E+02  0.54748563654E+01 -0.17717401765E+02  0.24458100832E+02  0.51100000000E-03 0.  1.
        -12    1    3    3    0    0  0.83691250304E+01  0.16694991621E+02  0.43036450945E-01  0.18675300564E+02  0.00000000000E+00 0.  1.
</event>
<event>
 7    1  0.5832130E-012  0.5930194E+02  0.7816164E-02  0.1266605E+00
        -11   -1    0    0    0    0  0.00000000000E+00  0.00000000000E+00  0.45593999997E+02  0.45594000000E+02  0.51100000000E-03 0.  1.
         11   -1    0    0    0    0 -0.00000000000E+00 -0.00000000000E+00 -0.45593999997E+02  0.45594000000E+02  0.51100000000E-03 0. -1.
    9900012    2    1    2    0    0  0.26179460245E+01  0.15681283658E+01  0.31739695797E+02  0.59301937884E+02  0.49999988796E+02 0.  0.
         12    1    1    2    0    0 -0.26179460245E+01 -0.15681283658E+01 -0.31739695797E+02  0.31886062116E+02  0.00000000000E+00 0. -1.
         11    1    3    3    0    0 -0.85773597543E+01 -0.70585986589E+01 -0.43528465983E+01  0.11930724586E+02  0.51100000000E-03 0. -1.
        -11    1    3    3    0    0 -0.40108661445E+01  0.67685915773E+01  0.29780916651E+02  0.30802660210E+02  0.51100000000E-03 0.  1.
        -12    1    3    3    0    0  0.15206171923E+02  0.18581354473E+01  0.63116257446E+01  0.16568553088E+02  0.00000000000E+00 0.  1.
</event>
<event>
 7    1  0.5832130E-012  0.5930196E+02  0.7816164E-02  0.1266605E+00
        -11   -1    0    0    0    0  0.00000000000E+00  0.00000000000E+00  0.45593999997E+02  0.45594000000E+02  0.51100000000E-03 0.  1.
         11   -1    0    0    0    0 -0.00000000000E+00 -0.00000000000E+00 -0.45593999997E+02  0.45594000000E+02  0.51100000000E-03 0. -1.
    9900012    2    1    2    0    0  0.11829463765E+02  0.68143700574E+01  0.28815757479E+02  0.59301957108E+02  0.50000023855E+02 0.  0.
         12    1    1    2    0    0 -0.11829463765E+02 -0.68143700574E+01 -0.28815757479E+02  0.31886042892E+02  0.00000000000E+00 0. -1.
         11    1    3    3    0    0  0.94442637217E+01  0.99162688525E+01  0.20433736023E+02  0.24598050194E+02  0.51100000000E-03 0. -1.
        -11    1    3    3    0    0  0.11949742367E+02  0.11205631449E+02  0.28592620270E+01  0.16629428685E+02  0.51100000000E-03 0.  1.
         12    1    3    3    0    0 -0.95645423229E+01 -0.14307530244E+02  0.55227594283E+01  0.18074478229E+02  0.00000000000E+00 0. -1.
</event>
<event>
 7    1  0.5832130E-012  0.5930195E+02  0.7816164E-02  0.1266605E+00
        -11   -1    0    0    0    0  0.00000000000E+00  0.00000000000E+00  0.45593999997E+02  0.45594000000E+02  0.51100000000E-03 0. -1.
         11   -1    0    0    0    0 -0.00000000000E+00 -0.00000000000E+00 -0.45593999997E+02  0.45594000000E+02  0.51100000000E-03 0.  1.
    9900012    2    1    2    0    0 -0.55544940887E+01  0.24786639164E+02 -0.19274090501E+02  0.59301945834E+02  0.50000003295E+02 0.  0.
         12    1    1    2    0    0  0.55544940887E+01 -0.24786639164E+02  0.19274090501E+02  0.31886054166E+02  0.00000000000E+00 0. -1.
         11    1    3    3    0    0  0.33544901123E+01  0.30815126177E+01  0.69859382108E+01  0.83397635981E+01  0.51100000000E-03 0. -1.
        -11    1    3    3    0    0  0.60866020290E+01  0.17742441331E+02  0.18587718403E+01  0.18849296583E+02  0.51100000000E-03 0.  1.
        -12    1    3    3    0    0 -0.14995586230E+02  0.39626852147E+01 -0.28118800552E+02  0.32112885653E+02  0.00000000000E+00 0.  1.
</event>
<event>
 7    1  0.5832130E-012  0.5930194E+02  0.7816164E-02  0.1266605E+00
        -11   -1    0    0    0    0  0.00000000000E+00  0.00000000000E+00  0.45593999997E+02  0.45594000000E+02  0.51100000000E-03 0.  1.
         11   -1    0    0    0    0 -0.00000000000E+00 -0.00000000000E+00 -0.45593999997E+02  0.45594000000E+02  0.51100000000E-03 0. -1.
    9900012    2    1    2    0    0 -0.17810501876E+02  0.14158224918E+02  0.22339456628E+02  0.59301942979E+02  0.49999998087E+02 0.  0.
         12    1    1    2    0    0  0.17810501876E+02 -0.14158224918E+02 -0.22339456628E+02  0.31886057021E+02  0.00000000000E+00 0. -1.
         11    1    3    3    0    0 -0.11446722685E+02  0.24303660567E+02  0.37138978892E+01  0.27119889656E+02  0.51100000000E-03 0. -1.
        -11    1    3    3    0    0 -0.10596921146E+02  0.40142765063E+01  0.97043508058E+01  0.14919235184E+02  0.51100000000E-03 0.  1.
         12    1    3    3    0    0  0.42331419553E+01 -0.14159712155E+02  0.89212079330E+01  0.17262818139E+02  0.00000000000E+00 0. -1.
</event>
<event>
 7    1  0.5832130E-012  0.5930195E+02  0.7816164E-02  0.1266605E+00
        -11   -1    0    0    0    0  0.00000000000E+00  0.00000000000E+00  0.45593999997E+02  0.45594000000E+02  0.51100000000E-03 0. -1.
         11   -1    0    0    0    0 -0.00000000000E+00 -0.00000000000E+00 -0.45593999997E+02  0.45594000000E+02  0.51100000000E-03 0.  1.
    9900012    2    1    2    0    0 -0.16224517211E+02 -0.55114758830E+01 -0.26890688013E+02  0.59301946200E+02  0.50000003962E+02 0.  0.
         12    1    1    2    0    0  0.16224517211E+02  0.55114758830E+01  0.26890688013E+02  0.31886053800E+02  0.00000000000E+00 0. -1.
         11    1    3    3    0    0  0.63609416530E+01 -0.33347113170E+01 -0.72371548313E+00  0.72184238337E+01  0.51100000000E-03 0. -1.
        -11    1    3    3    0    0  0.56327188202E+01  0.11501942363E+02 -0.31629502143E+01  0.13191908647E+02  0.51100000000E-03 0.  1.
        -12    1    3    3    0    0 -0.28218177684E+02 -0.13678706929E+02 -0.23004022315E+02  0.38891613720E+02  0.00000000000E+00 0.  1.
</event>
<event>
 7    1  0.5832130E-012  0.5930196E+02  0.7816164E-02  0.1266605E+00
        -11   -1    0    0    0    0  0.00000000000E+00  0.00000000000E+00  0.45593999997E+02  0.45594000000E+02  0.51100000000E-03 0.  1.
         11   -1    0    0    0    0 -0.00000000000E+00 -0.00000000000E+00 -0.45593999997E+02  0.45594000000E+02  0.51100000000E-03 0. -1.
    9900012    2    1    2    0    0 -0.27742401633E+02 -0.14927613340E+02  0.49239161797E+01  0.59301961693E+02  0.50000032217E+02 0.  0.
         12    1    1    2    0    0  0.27742401633E+02  0.14927613340E+02 -0.49239161797E+01  0.31886038307E+02  0.00000000000E+00 0. -1.
         11    1    3    3    0    0  0.13928237314E+01  0.80015084457E+01 -0.17173253755E+01  0.83014036199E+01  0.51100000000E-03 0. -1.
        -11    1    3    3    0    0 -0.16532592588E+02 -0.69932633161E+01  0.19853414697E+02  0.26765470758E+02  0.51100000000E-03 0.  1.
        -12    1    3    3    0    0 -0.12602632776E+02 -0.15935858470E+02 -0.13212173142E+02  0.24235087315E+02  0.00000000000E+00 0.  1.
</event>
<event>
 7    1  0.5832130E-012  0.5930195E+02  0.7816164E-02  0.1266605E+00
        -11   -1    0    0    0    0  0.00000000000E+00  0.00000000000E+00  0.45593999997E+02  0.45594000000E+02  0.51100000000E-03 0.  1.
         11   -1    0    0    0    0 -0.00000000000E+00 -0.00000000000E+00 -0.45593999997E+02  0.45594000000E+02  0.51100000000E-03 0. -1.
    9900012    2    1    2    0    0 -0.23208141721E+02  0.21864590320E+02 -0.20550524347E+00  0.59301946867E+02  0.50000005178E+02 0.  0.
         12    1    1    2    0    0  0.23208141721E+02 -0.21864590320E+02  0.20550524347E+00  0.31886053133E+02  0.00000000000E+00 0. -1.
         11    1    3    3    0    0 -0.20639073210E+02 -0.64288879047E+01 -0.69565159490E+00  0.21628358100E+02  0.51100000000E-03 0. -1.
        -11    1    3    3    0    0 -0.40967907259E+01  0.34258289184E+01  0.97313485047E+01  0.11100411795E+02  0.51100000000E-03 0.  1.
         12    1    3    3    0    0  0.15277222154E+01  0.24867649306E+02 -0.92412021532E+01  0.26573176973E+02  0.00000000000E+00 0. -1.
</event>
<event>
 7    1  0.5832130E-012  0.5930193E+02  0.7816164E-02  0.1266605E+00
        -11   -1    0    0    0    0  0.00000000000E+00  0.00000000000E+00  0.45593999997E+02  0.45594000000E+02  0.51100000000E-03 0. -1.
         11   -1    0    0    0    0 -0.00000000000E+00 -0.00000000000E+00 -0.45593999997E+02  0.45594000000E+02  0.51100000000E-03 0.  1.
    9900012    2    1    2    0    0 -0.25942688042E+02 -0.15462071176E+02 -0.10228538143E+02  0.59301926231E+02  0.49999967542E+02 0.  0.
         12    1    1    2    0    0  0.25942688042E+02  0.15462071176E+02  0.10228538143E+02  0.31886073769E+02  0.00000000000E+00 0. -1.
         11    1    3    3    0    0 -0.31018829101E+01 -0.15172486186E+02 -0.75047650302E+01  0.17208937012E+02  0.51100000000E-03 0. -1.
        -11    1    3    3    0    0  0.90250598810E+01 -0.28739446908E+01 -0.35414894067E+01  0.10112042891E+02  0.51100000000E-03 0.  1.
         12    1    3    3    0    0 -0.31865865013E+02  0.25843597017E+01  0.81771629359E+00  0.31980946328E+02  0.00000000000E+00 0. -1.
</event>
<event>
 7    1  0.5832130E-012  0.5930196E+02  0.7816164E-02  0.1266605E+00
        -11   -1    0    0    0    0  0.00000000000E+00  0.00000000000E+00  0.45593999997E+02  0.45594000000E+02  0.51100000000E-03 0.  1.
         11   -1    0    0    0    0 -0.00000000000E+00 -0.00000000000E+00 -0.45593999997E+02  0.45594000000E+02  0.51100000000E-03 0. -1.
    9900012    2    1    2    0    0  0.17487028074E+02  0.19951769369E+02  0.17687573840E+02  0.59301960419E+02  0.50000029894E+02 0.  0.
         12    1    1    2    0    0 -0.17487028074E+02 -0.19951769369E+02 -0.17687573840E+02  0.31886039581E+02  0.00000000000E+00 0. -1.
         11    1    3    3    0    0  0.97245792807E+01  0.84702786253E+01 -0.56764699266E+01  0.14090258098E+02  0.51100000000E-03 0. -1.
        -11    1    3    3    0    0  0.14779983809E+02 -0.48830159513E+01 -0.33464601099E+00  0.15569320935E+02  0.51100000000E-03 0.  1.
        -12    1    3    3    0    0 -0.70175350155E+01  0.16364506695E+02  0.23698689778E+02  0.29642381386E+02  0.00000000000E+00 0.  1.
</event>
<event>
 7    1  0.5832130E-012  0.5930194E+02  0.7816164E-02  0.1266605E+00
        -11   -1    0    0    0    0  0.00000000000E+00  0.00000000000E+00  0.45593999997E+02  0.45594000000E+02  0.51100000000E-03 0.  1.
         11   -1    0    0    0    0 -0.00000000000E+00 -0.00000000000E+00 -0.45593999997E+02  0.45594000000E+02  0.51100000000E-03 0. -1.
    9900012    2    1    2    0    0 -0.24187709564E+02  0.20228077845E+02  0.47434580720E+01  0.59301940009E+02  0.49999992671E+02 0.  0.
         12    1    1    2    0    0  0.24187709564E+02 -0.20228077845E+02 -0.47434580720E+01  0.31886059991E+02  0.00000000000E+00 0. -1.
         11    1    3    3    0    0 -0.22965587315E+02  0.22225337558E+02  0.14904150897E+01  0.31993830150E+02  0.51100000000E-03 0. -1.
        -11    1    3    3    0    0  0.13652568757E+01  0.10299416566E+02 -0.57268442785E+01  0.11863332313E+02  0.51100000000E-03 0.  1.
         12    1    3    3    0    0 -0.25873791246E+01 -0.12296676278E+02  0.89798872608E+01  0.15444777546E+02  0.00000000000E+00 0. -1.
</event>
<event>
 7    1  0.5832130E-012  0.5930192E+02  0.7816164E-02  0.1266605E+00
        -11   -1    0    0    0    0  0.00000000000E+00  0.00000000000E+00  0.45593999997E+02  0.45594000000E+02  0.51100000000E-03 0. -1.
         11   -1    0    0    0    0 -0.00000000000E+00 -0.00000000000E+00 -0.45593999997E+02  0.45594000000E+02  0.51100000000E-03 0.  1.
    9900012    2    1    2    0    0  0.18711036360E+01  0.26868956578E+02 -0.17066937904E+02  0.59301917992E+02  0.49999952517E+02 0.  0.
         12    1    1    2    0    0 -0.18711036360E+01 -0.26868956578E+02  0.17066937904E+02  0.31886082008E+02  0.00000000000E+00 0. -1.
         11    1    3    3    0    0  0.25807982125E+01  0.26592409728E+00  0.23200085820E+00  0.26048147148E+01  0.51100000000E-03 0. -1.
        -11    1    3    3    0    0  0.40150316683E+01  0.34776466962E+02  0.21546652248E+01  0.35073718311E+02  0.51100000000E-03 0.  1.
         12    1    3    3    0    0 -0.47247262448E+01 -0.81734344815E+01 -0.19453603987E+02  0.21623384966E+02  0.00000000000E+00 0. -1.
</event>
<event>
 7    1  0.5832130E-012  0.5930194E+02  0.7816164E-02  0.1266605E+00
        -11   -1    0    0    0    0  0.00000000000E+00  0.00000000000E+00  0.45593999997E+02  0.45594000000E+02  0.51100000000E-03 0. -1.
         11   -1    0    0    0    0 -0.00000000000E+00 -0.00000000000E+00 -0.45593999997E+02  0.45594000000E+02  0.51100000000E-03 0.  1.
    9900012    2    1    2    0    0 -0.18121515962E+02 -0.25867615119E+02 -0.43815231425E+01  0.59301943521E+02  0.49999999076E+02 0.  0.
         12    1    1    2    0    0  0.18121515962E+02  0.25867615119E+02  0.43815231425E+01  0.31886056479E+02  0.00000000000E+00 0. -1.
         11    1    3    3    0    0 -0.73580430551E+01 -0.10279919402E+01 -0.16902077234E+02  0.18462875727E+02  0.51100000000E-03 0.  1.
        -11    1    3    3    0    0 -0.14681721822E+02 -0.10297859375E+02 -0.41147361693E+01  0.18399182519E+02  0.51100000000E-03 0. -1.
        -12    1    3    3    0    0  0.39182489144E+01 -0.14541763804E+02  0.16635290261E+02  0.22439885275E+02  0.00000000000E+00 0.  1.
</event>
<event>
 7    1  0.5832130E-012  0.5930195E+02  0.7816164E-02  0.1266605E+00
        -11   -1    0    0    0    0  0.00000000000E+00  0.00000000000E+00  0.45593999997E+02  0.45594000000E+02  0.51100000000E-03 0. -1.
         11   -1    0    0    0    0 -0.00000000000E+00 -0.00000000000E+00 -0.45593999997E+02  0.45594000000E+02  0.51100000000E-03 0.  1.
    9900012    2    1    2    0    0  0.25473745600E+02  0.17003835304E+02 -0.88700804670E+01  0.59301945722E+02  0.50000003090E+02 0.  0.
         12    1    1    2    0    0 -0.25473745600E+02 -0.17003835304E+02  0.88700804670E+01  0.31886054278E+02  0.00000000000E+00 0. -1.
         11    1    3    3    0    0  0.13339656866E+02 -0.10196082592E+01  0.17074201159E+02  0.21691343706E+02  0.51100000000E-03 0. -1.
        -11    1    3    3    0    0 -0.47863070938E+00 -0.75165943747E+00  0.16837112563E+01  0.19049837589E+01  0.51100000000E-03 0.  1.
        -12    1    3    3    0    0  0.12612719444E+02  0.18775103001E+02 -0.27627992882E+02  0.35705618257E+02  0.00000000000E+00 0.  1.
</event>
<event>
 7    1  0.5832130E-012  0.5930193E+02  0.7816164E-02  0.1266605E+00
        -11   -1    0    0    0    0  0.00000000000E+00  0.00000000000E+00  0.45593999997E+02  0.45594000000E+02  0.51100000000E-03 0.  1.
         11   -1    0    0    0    0 -0.00000000000E+00 -0.00000000000E+00 -0.45593999997E+02  0.45594000000E+02  0.51100000000E-03 0. -1.
    9900012    2    1    2    0    0  0.77909721442E+01 -0.17480250433E+02  0.25504176684E+02  0.59301930464E+02  0.49999975262E+02 0.  0.
         12    1    1    2    0    0 -0.77909721442E+01  0.17480250433E+02 -0.25504176684E+02  0.31886069536E+02  0.00000000000E+00 0. -1.
         11    1    3    3    0    0 -0.17108423199E+02 -0.12000299199E+02  0.10249465916E+02  0.23275671355E+02  0.51100000000E-03 0. -1.
        -11    1    3    3    0    0  0.99786910927E+01 -0.55309391819E+01 -0.36169566920E+01  0.11968623151E+02  0.51100000000E-03 0.  1.
        -12    1    3    3    0    0  0.14920704251E+02  0.50987947747E-01  0.18871667460E+02  0.24057635957E+02  0.00000000000E+00 0.  1.
</event>
<event>
 7    1  0.5832130E-012  0.5930193E+02  0.7816164E-02  0.1266605E+00
        -11   -1    0    0    0    0  0.00000000000E+00  0.00000000000E+00  0.45593999997E+02  0.45594000000E+02  0.51100000000E-03 0.  1.
         11   -1    0    0    0    0 -0.00000000000E+00 -0.00000000000E+00 -0.45593999997E+02  0.45594000000E+02  0.51100000000E-03 0. -1.
    9900012    2    1    2    0    0 -0.21350778277E+02 -0.91273290093E+01  0.21853091288E+02  0.59301929895E+02  0.49999974225E+02 0.  0.
         12    1    1    2    0    0  0.21350778277E+02  0.91273290093E+01 -0.21853091288E+02  0.31886070105E+02  0.00000000000E+00 0. -1.
         11    1    3    3    0    0  0.14680348909E+01  0.78816803520E+01 -0.63094968340E+01  0.10202242997E+02  0.51100000000E-03 0. -1.
        -11    1    3    3    0    0 -0.20140857667E+02  0.26975715975E+01  0.14821999369E+02  0.25151992081E+02  0.51100000000E-03 0.  1.
        -12    1    3    3    0    0 -0.26779555010E+01 -0.19706580959E+02  0.13340588753E+02  0.23947694817E+02  0.00000000000E+00 0.  1.
</event>
<event>
 7    1  0.5832130E-012  0.5930195E+02  0.7816164E-02  0.1266605E+00
        -11   -1    0    0    0    0  0.00000000000E+00  0.00000000000E+00  0.45593999997E+02  0.45594000000E+02  0.51100000000E-03 0. -1.
         11   -1    0    0    0    0 -0.00000000000E+00 -0.00000000000E+00 -0.45593999997E+02  0.45594000000E+02  0.51100000000E-03 0.  1.
    9900012    2    1    2    0    0  0.21520126595E+02 -0.16015057586E+02 -0.17237243358E+02  0.59301945420E+02  0.50000002539E+02 0.  0.
         12    1    1    2    0    0 -0.21520126595E+02  0.16015057586E+02  0.17237243358E+02  0.31886054580E+02  0.00000000000E+00 0. -1.
         11    1    3    3    0    0  0.31150836428E+02  0.53547461971E+01 -0.33630446729E+01  0.31786128841E+02  0.51100000000E-03 0. -1.
        -11    1    3    3    0    0 -0.33660628885E+01 -0.79953331901E+01 -0.30138812241E+01  0.91836383032E+01  0.51100000000E-03 0.  1.
        -12    1    3    3    0    0 -0.62646469446E+01 -0.13374470593E+02 -0.10860317461E+02  0.18332178275E+02  0.00000000000E+00 0.  1.
</event>
<event>
 7    1  0.5832130E-012  0.5930187E+02  0.7816164E-02  0.1266605E+00
        -11   -1    0    0    0    0  0.00000000000E+00  0.00000000000E+00  0.45593999997E+02  0.45594000000E+02  0.51100000000E-03 0.  1.
         11   -1    0    0    0    0 -0.00000000000E+00 -0.00000000000E+00 -0.45593999997E+02  0.45594000000E+02  0.51100000000E-03 0. -1.
    9900012    2    1    2    0    0 -0.13973736789E+02  0.64446241620E+01  0.27927163986E+02  0.59301874667E+02  0.49999873503E+02 0.  0.
         12    1    1    2    0    0  0.13973736789E+02 -0.64446241620E+01 -0.27927163986E+02  0.31886125333E+02  0.00000000000E+00 0. -1.
         11    1    3    3    0    0 -0.67890446690E+01  0.11954957457E+02  0.98930176426E+01  0.16937648410E+02  0.51100000000E-03 0. -1.
        -11    1    3    3    0    0 -0.24576627338E+01  0.44716251148E+01  0.27407380833E+02  0.27878308085E+02  0.51100000000E-03 0.  1.
         12    1    3    3    0    0 -0.47270293861E+01 -0.99819584099E+01 -0.93732344893E+01  0.14485918173E+02  0.00000000000E+00 0. -1.
</event>
<event>
 7    1  0.5832130E-012  0.5930194E+02  0.7816164E-02  0.1266605E+00
        -11   -1    0    0    0    0  0.00000000000E+00  0.00000000000E+00  0.45593999997E+02  0.45594000000E+02  0.51100000000E-03 0.  1.
         11   -1    0    0    0    0 -0.00000000000E+00 -0.00000000000E+00 -0.45593999997E+02  0.45594000000E+02  0.51100000000E-03 0. -1.
    9900012    2    1    2    0    0  0.10558576076E+02 -0.27888925545E+02  0.11289159582E+02  0.59301940022E+02  0.49999992695E+02 0.  0.
         12    1    1    2    0    0 -0.10558576076E+02  0.27888925545E+02 -0.11289159582E+02  0.31886059978E+02  0.00000000000E+00 0. -1.
         11    1    3    3    0    0 -0.39100562737E+01  0.67775790754E+01  0.42996147580E+01  0.89280908102E+01  0.51100000000E-03 0. -1.
        -11    1    3    3    0    0  0.15077308693E+02 -0.53869217303E+01  0.12822811055E+02  0.20512646021E+02  0.51100000000E-03 0.  1.
         12    1    3    3    0    0 -0.60867634290E+00 -0.29279582890E+02 -0.58332662311E+01  0.29861203191E+02  0.00000000000E+00 0. -1.
</event>
<event>
 7    1  0.5832130E-012  0.5930194E+02  0.7816164E-02  0.1266605E+00
        -11   -1    0    0    0    0  0.00000000000E+00  0.00000000000E+00  0.45593999997E+02  0.45594000000E+02  0.51100000000E-03 0.  1.
         11   -1    0    0    0    0 -0.00000000000E+00 -0.00000000000E+00 -0.45593999997E+02  0.45594000000E+02  0.51100000000E-03 0. -1.
    9900012    2    1    2    0    0  0.23087772039E+02  0.11691651466E+02  0.18627420496E+02  0.59301941509E+02  0.49999995407E+02 0.  0.
         12    1    1    2    0    0 -0.23087772039E+02 -0.11691651466E+02 -0.18627420496E+02  0.31886058491E+02  0.00000000000E+00 0. -1.
         11    1    3    3    0    0 -0.53516297331E+01  0.95617261029E+01  0.31501414901E+01  0.11401313018E+02  0.51100000000E-03 0. -1.
        -11    1    3    3    0    0  0.13689868175E+02  0.11401513019E+02  0.22857289655E+02  0.28980384407E+02  0.51100000000E-03 0.  1.
         12    1    3    3    0    0  0.14749533597E+02 -0.92715876568E+01 -0.73800106488E+01  0.18920244084E+02  0.00000000000E+00 0. -1.
</event>
<event>
 7    1  0.5832130E-012  0.5930200E+02  0.7816164E-02  0.1266605E+00
        -11   -1    0    0    0    0  0.00000000000E+00  0.00000000000E+00  0.45593999997E+02  0.45594000000E+02  0.51100000000E-03 0.  1.
         11   -1    0    0    0    0 -0.00000000000E+00 -0.00000000000E+00 -0.45593999997E+02  0.45594000000E+02  0.51100000000E-03 0. -1.
    9900012    2    1    2    0    0 -0.60285041409E+00 -0.20939429380E+02  0.24039423637E+02  0.59301999621E+02  0.50000101388E+02 0.  0.
         12    1    1    2    0    0  0.60285041409E+00  0.20939429380E+02 -0.24039423637E+02  0.31886000379E+02  0.00000000000E+00 0. -1.
         11    1    3    3    0    0  0.66406024166E+00  0.14900055542E+00 -0.56452637748E+01  0.56861393333E+01  0.51100000000E-03 0. -1.
        -11    1    3    3    0    0 -0.14608963573E+02 -0.26420360593E+02  0.18500313290E+02  0.35407892661E+02  0.51100000000E-03 0.  1.
         12    1    3    3    0    0  0.13342052918E+02  0.53319306583E+01  0.11184374122E+02  0.18207967627E+02  0.00000000000E+00 0. -1.
</event>
<event>
 7    1  0.5832130E-012  0.5930194E+02  0.7816164E-02  0.1266605E+00
        -11   -1    0    0    0    0  0.00000000000E+00  0.00000000000E+00  0.45593999997E+02  0.45594000000E+02  0.51100000000E-03 0. -1.
         11   -1    0    0    0    0 -0.00000000000E+00 -0.00000000000E+00 -0.45593999997E+02  0.45594000000E+02  0.51100000000E-03 0.  1.
    9900012    2    1    2    0    0 -0.21825057879E+02  0.89170613607E+00 -0.23229130717E+02  0.59301940270E+02  0.49999993146E+02 0.  0.
         12    1    1    2    0    0  0.21825057879E+02 -0.89170613607E+00  0.23229130717E+02  0.31886059730E+02  0.00000000000E+00 0. -1.
         11    1    3    3    0    0 -0.38600821130E+01 -0.19818394067E+01  0.20905752181E+01  0.48164744738E+01  0.51100000000E-03 0. -1.
        -11    1    3    3    0    0 -0.26075126055E+02 -0.13786467124E+02 -0.18057284192E+02  0.34583874670E+02  0.51100000000E-03 0.  1.
         12    1    3    3    0    0  0.81101502890E+01  0.16660012667E+02 -0.72624217436E+01  0.19901591126E+02  0.00000000000E+00 0. -1.
</event>
<event>
 7    1  0.5832130E-012  0.5930198E+02  0.7816164E-02  0.1266605E+00
        -11   -1    0    0    0    0  0.00000000000E+00  0.00000000000E+00  0.45593999997E+02  0.45594000000E+02  0.51100000000E-03 0. -1.
         11   -1    0    0    0    0 -0.00000000000E+00 -0.00000000000E+00 -0.45593999997E+02  0.45594000000E+02  0.51100000000E-03 0.  1.
    9900012    2    1    2    0    0 -0.27038498951E+02  0.63126313133E+01 -0.15677645383E+02  0.59301979484E+02  0.50000064663E+02 0.  0.
         12    1    1    2    0    0  0.27038498951E+02 -0.63126313133E+01  0.15677645383E+02  0.31886020516E+02  0.00000000000E+00 0. -1.
         11    1    3    3    0    0  0.12223551503E+01  0.22345781148E+01 -0.16654937819E+02  0.16848573989E+02  0.51100000000E-03 0. -1.
        -11    1    3    3    0    0 -0.30037383757E+02  0.12078207553E+02 -0.43695680668E+01  0.32668343178E+02  0.51100000000E-03 0.  1.
         12    1    3    3    0    0  0.17765296554E+01 -0.80001543543E+01  0.53468605028E+01  0.97850623169E+01  0.00000000000E+00 0. -1.
</event>
<event>
 7    1  0.5832130E-012  0.5930197E+02  0.7816164E-02  0.1266605E+00
        -11   -1    0    0    0    0  0.00000000000E+00  0.00000000000E+00  0.45593999997E+02  0.45594000000E+02  0.51100000000E-03 0.  1.
         11   -1    0    0    0    0 -0.00000000000E+00 -0.00000000000E+00 -0.45593999997E+02  0.45594000000E+02  0.51100000000E-03 0. -1.
    9900012    2    1    2    0    0 -0.55013681025E+01  0.18117444851E+02  0.25655637686E+02  0.59301974785E+02  0.50000056093E+02 0.  0.
         12    1    1    2    0    0  0.55013681025E+01 -0.18117444851E+02 -0.25655637686E+02  0.31886025215E+02  0.00000000000E+00 0. -1.
         11    1    3    3    0    0 -0.23991204338E+02  0.47486054507E+00  0.11291744514E+02  0.26519933494E+02  0.51100000000E-03 0. -1.
        -11    1    3    3    0    0  0.14405797483E+00  0.14602822143E+01 -0.26189348679E+01  0.30019988256E+01  0.51100000000E-03 0.  1.
        -12    1    3    3    0    0  0.18345778260E+02  0.16182302092E+02  0.16982828040E+02  0.29780042465E+02  0.00000000000E+00 0.  1.
</event>
<event>
 7    1  0.5832130E-012  0.5930191E+02  0.7816164E-02  0.1266605E+00
        -11   -1    0    0    0    0  0.00000000000E+00  0.00000000000E+00  0.45593999997E+02  0.45594000000E+02  0.51100000000E-03 0.  1.
         11   -1    0    0    0    0 -0.00000000000E+00 -0.00000000000E+00 -0.45593999997E+02  0.45594000000E+02  0.51100000000E-03 0. -1.
    9900012    2    1    2    0    0 -0.18247037129E+02 -0.24945718287E+02  0.78408796457E+01  0.59301911835E+02  0.49999941288E+02 0.  0.
         12    1    1    2    0    0  0.18247037129E+02  0.24945718287E+02 -0.78408796457E+01  0.31886088165E+02  0.00000000000E+00 0. -1.
         11    1    3    3    0    0 -0.63190002577E+01 -0.12933222244E+02 -0.64376051770E+00  0.14408762256E+02  0.51100000000E-03 0. -1.
        -11    1    3    3    0    0 -0.32774207260E+01 -0.23520488162E+02  0.16017595749E+02  0.28644689278E+02  0.51100000000E-03 0.  1.
        -12    1    3    3    0    0 -0.86506161456E+01  0.11507992119E+02 -0.75329555854E+01  0.16248460301E+02  0.00000000000E+00 0.  1.
</event>
<event>
 7    1  0.5832130E-012  0.5930211E+02  0.7816164E-02  0.1266604E+00
        -11   -1    0    0    0    0  0.00000000000E+00  0.00000000000E+00  0.45593999997E+02  0.45594000000E+02  0.51100000000E-03 0.  1.
         11   -1    0    0    0    0 -0.00000000000E+00 -0.00000000000E+00 -0.45593999997E+02  0.45594000000E+02  0.51100000000E-03 0. -1.
    9900012    2    1    2    0    0  0.70634271194E+01 -0.11477341211E+02  0.28897901173E+02  0.59302108823E+02  0.50000300547E+02 0.  0.
         12    1    1    2    0    0 -0.70634271194E+01  0.11477341211E+02 -0.28897901173E+02  0.31885891177E+02  0.00000000000E+00 0. -1.
         11    1    3    3    0    0  0.14684337666E+02  0.60261354430E+01 -0.78441712076E+01  0.17705228134E+02  0.51100000000E-03 0. -1.
        -11    1    3    3    0    0  0.31544570595E+00 -0.72389941718E+00  0.28198531695E+01  0.29283286220E+01  0.51100000000E-03 0.  1.
        -12    1    3    3    0    0 -0.79363562530E+01 -0.16779577236E+02  0.33922219211E+02  0.38668552068E+02  0.00000000000E+00 0.  1.
</event>
<event>
 7    1  0.5832130E-012  0.5930197E+02  0.7816164E-02  0.1266605E+00
        -11   -1    0    0    0    0  0.00000000000E+00  0.00000000000E+00  0.45593999997E+02  0.45594000000E+02  0.51100000000E-03 0.  1.
         11   -1    0    0    0    0 -0.00000000000E+00 -0.00000000000E+00 -0.45593999997E+02  0.45594000000E+02  0.51100000000E-03 0. -1.
    9900012    2    1    2    0    0  0.13081208194E+01  0.79744769732E+01  0.30845024630E+02  0.59301968458E+02  0.50000044555E+02 0.  0.
         12    1    1    2    0    0 -0.13081208194E+01 -0.79744769732E+01 -0.30845024630E+02  0.31886031542E+02  0.00000000000E+00 0. -1.
         11    1    3    3    0    0 -0.67545912465E+01 -0.10229845500E+02 -0.52442189389E+00  0.12269851688E+02  0.51100000000E-03 0. -1.
        -11    1    3    3    0    0 -0.98833189392E+01  0.13029109222E+02  0.15250132207E+02  0.22360773980E+02  0.51100000000E-03 0.  1.
        -12    1    3    3    0    0  0.17946031005E+02  0.51752132510E+01  0.16119314316E+02  0.24671342790E+02  0.00000000000E+00 0.  1.
</event>
<event>
 7    1  0.5832130E-012  0.5930193E+02  0.7816164E-02  0.1266605E+00
        -11   -1    0    0    0    0  0.00000000000E+00  0.00000000000E+00  0.45593999997E+02  0.45594000000E+02  0.51100000000E-03 0. -1.
         11   -1    0    0    0    0 -0.00000000000E+00 -0.00000000000E+00 -0.45593999997E+02  0.45594000000E+02  0.51100000000E-03 0.  1.
    9900012    2    1    2    0    0 -0.81829714806E+01  0.29889005808E+02 -0.75105031072E+01  0.59301931767E+02  0.49999977640E+02 0.  0.
         12    1    1    2    0    0  0.81829714806E+01 -0.29889005808E+02  0.75105031072E+01  0.31886068233E+02  0.00000000000E+00 0. -1.
         11    1    3    3    0    0  0.18660102586E+02  0.75280359502E+01 -0.49082390009E+01  0.20711387306E+02  0.51100000000E-03 0. -1.
        -11    1    3    3    0    0 -0.77502971273E+01 -0.16025906045E+00  0.33942957647E+01  0.84625074609E+01  0.51100000000E-03 0.  1.
        -12    1    3    3    0    0 -0.19092776939E+02  0.22521228918E+02 -0.59965598710E+01  0.30128037001E+02  0.00000000000E+00 0.  1.
</event>
<event>
 7    1  0.5832130E-012  0.5930195E+02  0.7816164E-02  0.1266605E+00
        -11   -1    0    0    0    0  0.00000000000E+00  0.00000000000E+00  0.45593999997E+02  0.45594000000E+02  0.51100000000E-03 0.  1.
         11   -1    0    0    0    0 -0.00000000000E+00 -0.00000000000E+00 -0.45593999997E+02  0.45594000000E+02  0.51100000000E-03 0. -1.
    9900012    2    1    2    0    0  0.51735298400E+01 -0.31646849851E+01  0.31303988712E+02  0.59301947385E+02  0.50000006123E+02 0.  0.
         12    1    1    2    0    0 -0.51735298400E+01  0.31646849851E+01 -0.31303988712E+02  0.31886052615E+02  0.00000000000E+00 0. -1.
         11    1    3    3    0    0  0.69815200579E+01  0.10968923529E+02  0.35585702019E+01  0.13480442420E+02  0.51100000000E-03 0. -1.
        -11    1    3    3    0    0 -0.10671593060E+02 -0.33383899025E+01 -0.34002671267E+01  0.11687153733E+02  0.51100000000E-03 0.  1.
        -12    1    3    3    0    0  0.88636028425E+01 -0.10795218611E+02  0.31145685637E+02  0.34134351232E+02  0.00000000000E+00 0.  1.
</event>
<event>
 7    1  0.5832130E-012  0.5930196E+02  0.7816164E-02  0.1266605E+00
        -11   -1    0    0    0    0  0.00000000000E+00  0.00000000000E+00  0.45593999997E+02  0.45594000000E+02  0.51100000000E-03 0.  1.
         11   -1    0    0    0    0 -0.00000000000E+00 -0.00000000000E+00 -0.45593999997E+02  0.45594000000E+02  0.51100000000E-03 0. -1.
    9900012    2    1    2    0    0 -0.21750279370E+02  0.46398221729E+01  0.22849878896E+02  0.59301959668E+02  0.50000028525E+02 0.  0.
         12    1    1    2    0    0  0.21750279370E+02 -0.46398221729E+01 -0.22849878896E+02  0.31886040332E+02  0.00000000000E+00 0. -1.
         11    1    3    3    0    0 -0.69510985016E+01 -0.82114350618E+01  0.18389346538E+01  0.10914536961E+02  0.51100000000E-03 0. -1.
        -11    1    3    3    0    0 -0.17511496115E+02 -0.86976572388E+01  0.22390101511E+01  0.19680317689E+02  0.51100000000E-03 0.  1.
         12    1    3    3    0    0  0.27123152469E+01  0.21548914474E+02  0.18771934091E+02  0.28707105018E+02  0.00000000000E+00 0. -1.
</event>
<event>
 7    1  0.5832130E-012  0.5930192E+02  0.7816164E-02  0.1266605E+00
        -11   -1    0    0    0    0  0.00000000000E+00  0.00000000000E+00  0.45593999997E+02  0.45594000000E+02  0.51100000000E-03 0.  1.
         11   -1    0    0    0    0 -0.00000000000E+00 -0.00000000000E+00 -0.45593999997E+02  0.45594000000E+02  0.51100000000E-03 0. -1.
    9900012    2    1    2    0    0  0.16880232408E+02 -0.20100932004E+02  0.18103383140E+02  0.59301918480E+02  0.49999953407E+02 0.  0.
         12    1    1    2    0    0 -0.16880232408E+02  0.20100932004E+02 -0.18103383140E+02  0.31886081520E+02  0.00000000000E+00 0. -1.
         11    1    3    3    0    0  0.64682628769E+01 -0.17236835366E+01 -0.22458173499E+01  0.70606802369E+01  0.51100000000E-03 0. -1.
        -11    1    3    3    0    0 -0.22441877223E+01  0.12511537891E+02  0.12754734493E+02  0.18007171104E+02  0.51100000000E-03 0.  1.
         12    1    3    3    0    0  0.12656157253E+02 -0.30888786358E+02  0.75944659969E+01  0.34234067139E+02  0.00000000000E+00 0. -1.
</event>
<event>
 7    1  0.5832130E-012  0.5930192E+02  0.7816164E-02  0.1266605E+00
        -11   -1    0    0    0    0  0.00000000000E+00  0.00000000000E+00  0.45593999997E+02  0.45594000000E+02  0.51100000000E-03 0. -1.
         11   -1    0    0    0    0 -0.00000000000E+00 -0.00000000000E+00 -0.45593999997E+02  0.45594000000E+02  0.51100000000E-03 0.  1.
    9900012    2    1    2    0    0 -0.10194594547E+02 -0.11912171329E+02 -0.27764946751E+02  0.59301923857E+02  0.49999963213E+02 0.  0.
         12    1    1    2    0    0  0.10194594547E+02  0.11912171329E+02  0.27764946751E+02  0.31886076143E+02  0.00000000000E+00 0. -1.
         11    1    3    3    0    0  0.16899125951E+01  0.91480465990E+01 -0.86205340335E+01  0.12682908517E+02  0.51100000000E-03 0. -1.
        -11    1    3    3    0    0 -0.17347990351E+02 -0.16878206253E+02  0.20936827607E+01  0.24294240538E+02  0.51100000000E-03 0.  1.
         12    1    3    3    0    0  0.54634832092E+01 -0.41820116748E+01 -0.21238095478E+02  0.22324774802E+02  0.00000000000E+00 0. -1.
</event>
<event>
 7    1  0.5832130E-012  0.5930211E+02  0.7816164E-02  0.1266604E+00
        -11   -1    0    0    0    0  0.00000000000E+00  0.00000000000E+00  0.45593999997E+02  0.45594000000E+02  0.51100000000E-03 0. -1.
         11   -1    0    0    0    0 -0.00000000000E+00 -0.00000000000E+00 -0.45593999997E+02  0.45594000000E+02  0.51100000000E-03 0.  1.
    9900012    2    1    2    0    0 -0.23787370246E+02  0.18587242133E+02 -0.10265728972E+02  0.59302113708E+02  0.50000309455E+02 0.  0.
         12    1    1    2    0    0  0.23787370246E+02 -0.18587242133E+02  0.10265728972E+02  0.31885886292E+02  0.00000000000E+00 0. -1.
         11    1    3    3    0    0 -0.51721381300E+01  0.21480894710E+02 -0.14815734941E+02  0.26602365543E+02  0.51100000000E-03 0. -1.
        -11    1    3    3    0    0  0.93819566916E+00  0.92390295469E+01  0.23753455290E+01  0.95855174469E+01  0.51100000000E-03 0.  1.
        -12    1    3    3    0    0 -0.19553427785E+02 -0.12132682124E+02  0.21746604406E+01  0.23114230718E+02  0.00000000000E+00 0.  1.
</event>
<event>
 7    1  0.5832130E-012  0.5930182E+02  0.7816164E-02  0.1266605E+00
        -11   -1    0    0    0    0  0.00000000000E+00  0.00000000000E+00  0.45593999997E+02  0.45594000000E+02  0.51100000000E-03 0.  1.
         11   -1    0    0    0    0 -0.00000000000E+00 -0.00000000000E+00 -0.45593999997E+02  0.45594000000E+02  0.51100000000E-03 0. -1.
    9900012    2    1    2    0    0  0.27714931226E+02 -0.11818646857E+02  0.10436992604E+02  0.59301817397E+02  0.49999769055E+02 0.  0.
         12    1    1    2    0    0 -0.27714931226E+02  0.11818646857E+02 -0.10436992604E+02  0.31886182603E+02  0.00000000000E+00 0. -1.
         11    1    3    3    0    0 -0.26183172277E+00 -0.10471695672E+02  0.66354585352E+01  0.12399769204E+02  0.51100000000E-03 0. -1.
        -11    1    3    3    0    0  0.13031052236E+01 -0.15115402983E+02  0.70115613009E+01  0.16713332483E+02  0.51100000000E-03 0.  1.
         12    1    3    3    0    0  0.26673657725E+02  0.13768451798E+02 -0.32100272316E+01  0.30188715709E+02  0.00000000000E+00 0. -1.
</event>
<event>
 7    1  0.5832130E-012  0.5930193E+02  0.7816164E-02  0.1266605E+00
        -11   -1    0    0    0    0  0.00000000000E+00  0.00000000000E+00  0.45593999997E+02  0.45594000000E+02  0.51100000000E-03 0.  1.
         11   -1    0    0    0    0 -0.00000000000E+00 -0.00000000000E+00 -0.45593999997E+02  0.45594000000E+02  0.51100000000E-03 0. -1.
    9900012    2    1    2    0    0 -0.28834556434E+02  0.50775384720E+01  0.12629655163E+02  0.59301933588E+02  0.49999980960E+02 0.  0.
         12    1    1    2    0    0  0.28834556434E+02 -0.50775384720E+01 -0.12629655163E+02  0.31886066412E+02  0.00000000000E+00 0. -1.
         11    1    3    3    0    0 -0.48262572983E+00 -0.13607851301E+02  0.12848022955E+02  0.18721064039E+02  0.51100000000E-03 0. -1.
        -11    1    3    3    0    0  0.26665427718E+01  0.47014787638E+01 -0.34350839801E+01  0.64042294721E+01  0.51100000000E-03 0.  1.
        -12    1    3    3    0    0 -0.31018473476E+02  0.13983911009E+02  0.32167161879E+01  0.34176640077E+02  0.00000000000E+00 0.  1.
</event>
<event>
 7    1  0.5832130E-012  0.5930168E+02  0.7816164E-02  0.1266606E+00
        -11   -1    0    0    0    0  0.00000000000E+00  0.00000000000E+00  0.45593999997E+02  0.45594000000E+02  0.51100000000E-03 0. -1.
         11   -1    0    0    0    0 -0.00000000000E+00 -0.00000000000E+00 -0.45593999997E+02  0.45594000000E+02  0.51100000000E-03 0.  1.
    9900012    2    1    2    0    0 -0.22174427442E+01 -0.18709784077E+02  0.25724774391E+02  0.59301684910E+02  0.49999527429E+02 0.  0.
         12    1    1    2    0    0  0.22174427442E+01  0.18709784077E+02 -0.25724774391E+02  0.31886315090E+02  0.00000000000E+00 0. -1.
         11    1    3    3    0    0  0.17724947272E+02 -0.16414324521E+01  0.13637716636E+02  0.22424436929E+02  0.51100000000E-03 0. -1.
        -11    1    3    3    0    0  0.10587514540E+01 -0.26843860370E+00  0.98280753556E+01  0.98885832849E+01  0.51100000000E-03 0.  1.
        -12    1    3    3    0    0 -0.21001141470E+02 -0.16799913022E+02  0.22589823991E+01  0.26988664696E+02  0.00000000000E+00 0.  1.
</event>
<event>
 7    1  0.5832130E-012  0.5930193E+02  0.7816164E-02  0.1266605E+00
        -11   -1    0    0    0    0  0.00000000000E+00  0.00000000000E+00  0.45593999997E+02  0.45594000000E+02  0.51100000000E-03 0. -1.
         11   -1    0    0    0    0 -0.00000000000E+00 -0.00000000000E+00 -0.45593999997E+02  0.45594000000E+02  0.51100000000E-03 0.  1.
    9900012    2    1    2    0    0  0.28596452619E+01 -0.31700146365E+02 -0.19091654316E+01  0.59301925246E+02  0.49999965746E+02 0.  0.
         12    1    1    2    0    0 -0.28596452619E+01  0.31700146365E+02  0.19091654316E+01  0.31886074754E+02  0.00000000000E+00 0. -1.
         11    1    3    3    0    0 -0.86197472093E+01 -0.21112834452E+01  0.78071413935E+01  0.11819856883E+02  0.51100000000E-03 0. -1.
        -11    1    3    3    0    0 -0.39381978229E+01 -0.30156752244E+02 -0.26966316657E+01  0.30532129481E+02  0.51100000000E-03 0.  1.
        -12    1    3    3    0    0  0.15417590294E+02  0.56788932466E+00 -0.70196751594E+01  0.16949938882E+02  0.00000000000E+00 0.  1.
</event>
<event>
 7    1  0.5832130E-012  0.5930195E+02  0.7816164E-02  0.1266605E+00
        -11   -1    0    0    0    0  0.00000000000E+00  0.00000000000E+00  0.45593999997E+02  0.45594000000E+02  0.51100000000E-03 0. -1.
         11   -1    0    0    0    0 -0.00000000000E+00 -0.00000000000E+00 -0.45593999997E+02  0.45594000000E+02  0.51100000000E-03 0.  1.
    9900012    2    1    2    0    0 -0.60558195966E+01 -0.26998891691E+02 -0.15846362396E+02  0.59301948117E+02  0.50000007457E+02 0.  0.
         12    1    1    2    0    0  0.60558195966E+01  0.26998891691E+02  0.15846362396E+02  0.31886051883E+02  0.00000000000E+00 0. -1.
         11    1    3    3    0    0  0.82993382561E+01 -0.12553258972E+02  0.24306283457E+01  0.15243729226E+02  0.51100000000E-03 0. -1.
        -11    1    3    3    0    0 -0.18246031131E+02 -0.22094610245E+02 -0.63250002340E+01  0.29344421653E+02  0.51100000000E-03 0.  1.
        -12    1    3    3    0    0  0.38908732786E+01  0.76489775259E+01 -0.11951990507E+02  0.14713797238E+02  0.00000000000E+00 0.  1.
</event>
<event>
 7    1  0.5832130E-012  0.5930194E+02  0.7816164E-02  0.1266605E+00
        -11   -1    0    0    0    0  0.00000000000E+00  0.00000000000E+00  0.45593999997E+02  0.45594000000E+02  0.51100000000E-03 0.  1.
         11   -1    0    0    0    0 -0.00000000000E+00 -0.00000000000E+00 -0.45593999997E+02  0.45594000000E+02  0.51100000000E-03 0. -1.
    9900012    2    1    2    0    0 -0.15901878385E+01 -0.31531172096E+02  0.44695892728E+01  0.59301941300E+02  0.49999995026E+02 0.  0.
         12    1    1    2    0    0  0.15901878385E+01  0.31531172096E+02 -0.44695892728E+01  0.31886058700E+02  0.00000000000E+00 0. -1.
         11    1    3    3    0    0 -0.38641921100E+01 -0.84494181144E+00 -0.29295829543E+01  0.49222315950E+01  0.51100000000E-03 0. -1.
        -11    1    3    3    0    0 -0.18059377928E+01 -0.24821276466E+02 -0.16218432978E+02  0.29705129948E+02  0.51100000000E-03 0.  1.
         12    1    3    3    0    0  0.40799420643E+01 -0.58649538186E+01  0.23617605205E+02  0.24674579757E+02  0.00000000000E+00 0. -1.
</event>
<event>
 7    1  0.5832130E-012  0.5930195E+02  0.7816164E-02  0.1266605E+00
        -11   -1    0    0    0    0  0.00000000000E+00  0.00000000000E+00  0.45593999997E+02  0.45594000000E+02  0.51100000000E-03 0. -1.
         11   -1    0    0    0    0 -0.00000000000E+00 -0.00000000000E+00 -0.45593999997E+02  0.45594000000E+02  0.51100000000E-03 0.  1.
    9900012    2    1    2    0    0 -0.62456843147E+00 -0.13503954284E+02 -0.28878601625E+02  0.59301945073E+02  0.50000001906E+02 0.  0.
         12    1    1    2    0    0  0.62456843147E+00  0.13503954284E+02  0.28878601625E+02  0.31886054927E+02  0.00000000000E+00 0. -1.
         11    1    3    3    0    0  0.12377880673E+02 -0.11611973723E+02  0.17831537586E+01  0.17065447585E+02  0.51100000000E-03 0. -1.
        -11    1    3    3    0    0  0.40150010483E+01  0.55693910258E+01 -0.19233131678E+02  0.20421843801E+02  0.51100000000E-03 0.  1.
         12    1    3    3    0    0 -0.17017450153E+02 -0.74613715870E+01 -0.11428623705E+02  0.21814653687E+02  0.00000000000E+00 0. -1.
</event>
<event>
 7    1  0.5832130E-012  0.5930194E+02  0.7816164E-02  0.1266605E+00
        -11   -1    0    0    0    0  0.00000000000E+00  0.00000000000E+00  0.45593999997E+02  0.45594000000E+02  0.51100000000E-03 0. -1.
         11   -1    0    0    0    0 -0.00000000000E+00 -0.00000000000E+00 -0.45593999997E+02  0.45594000000E+02  0.51100000000E-03 0.  1.
    9900012    2    1    2    0    0  0.17909723093E+01  0.30065320903E+02 -0.10468500052E+02  0.59301943546E+02  0.49999999122E+02 0.  0.
         12    1    1    2    0    0 -0.17909723093E+01 -0.30065320903E+02  0.10468500052E+02  0.31886056454E+02  0.00000000000E+00 0. -1.
         11    1    3    3    0    0  0.41264313106E+01  0.14390423465E+02  0.61344179539E+01  0.16178467380E+02  0.51100000000E-03 0. -1.
        -11    1    3    3    0    0 -0.58736580847E-01  0.22243213329E+02  0.28879587178E+01  0.22429986513E+02  0.51100000000E-03 0.  1.
         12    1    3    3    0    0 -0.22767224204E+01 -0.65683158900E+01 -0.19490876723E+02  0.20693489654E+02  0.00000000000E+00 0. -1.
</event>
<event>
 7    1  0.5832130E-012  0.5930195E+02  0.7816164E-02  0.1266605E+00
        -11   -1    0    0    0    0  0.00000000000E+00  0.00000000000E+00  0.45593999997E+02  0.45594000000E+02  0.51100000000E-03 0.  1.
         11   -1    0    0    0    0 -0.00000000000E+00 -0.00000000000E+00 -0.45593999997E+02  0.45594000000E+02  0.51100000000E-03 0. -1.
    9900012    2    1    2    0    0  0.29799650814E+02  0.21242796857E+01  0.11143987895E+02  0.59301949460E+02  0.50000009907E+02 0.  0.
         12    1    1    2    0    0 -0.29799650814E+02 -0.21242796857E+01 -0.11143987895E+02  0.31886050540E+02  0.00000000000E+00 0. -1.
         11    1    3    3    0    0  0.34472496027E+02 -0.68220319435E+01 -0.10848061585E+01  0.35157785863E+02  0.51100000000E-03 0. -1.
        -11    1    3    3    0    0  0.60161103142E+01  0.53168949713E+01  0.96714044777E+01  0.12569766119E+02  0.51100000000E-03 0.  1.
         12    1    3    3    0    0 -0.10688955526E+02  0.36294166578E+01  0.25573895761E+01  0.11574397478E+02  0.00000000000E+00 0. -1.
</event>
<event>
 7    1  0.5832130E-012  0.5930195E+02  0.7816164E-02  0.1266605E+00
        -11   -1    0    0    0    0  0.00000000000E+00  0.00000000000E+00  0.45593999997E+02  0.45594000000E+02  0.51100000000E-03 0.  1.
         11   -1    0    0    0    0 -0.00000000000E+00 -0.00000000000E+00 -0.45593999997E+02  0.45594000000E+02  0.51100000000E-03 0. -1.
    9900012    2    1    2    0    0  0.15755757854E+02  0.10404502356E+02  0.25694802922E+02  0.59301945493E+02  0.50000002672E+02 0.  0.
         12    1    1    2    0    0 -0.15755757854E+02 -0.10404502356E+02 -0.25694802922E+02  0.31886054507E+02  0.00000000000E+00 0. -1.
         11    1    3    3    0    0 -0.23783841646E+01 -0.66429316136E+01  0.15177374451E+02  0.16737321982E+02  0.51100000000E-03 0.  1.
        -11    1    3    3    0    0  0.84374717258E+00 -0.84020519444E+00 -0.10151251564E+02  0.10220849408E+02  0.51100000000E-03 0. -1.
        -12    1    3    3    0    0  0.17290394846E+02  0.17887639164E+02  0.20668680035E+02  0.32343774102E+02  0.00000000000E+00 0.  1.
</event>
<event>
 7    1  0.5832130E-012  0.5930194E+02  0.7816164E-02  0.1266605E+00
        -11   -1    0    0    0    0  0.00000000000E+00  0.00000000000E+00  0.45593999997E+02  0.45594000000E+02  0.51100000000E-03 0. -1.
         11   -1    0    0    0    0 -0.00000000000E+00 -0.00000000000E+00 -0.45593999997E+02  0.45594000000E+02  0.51100000000E-03 0.  1.
    9900012    2    1    2    0    0  0.11290914068E+02  0.21311628527E+02 -0.20857871310E+02  0.59301936484E+02  0.49999986242E+02 0.  0.
         12    1    1    2    0    0 -0.11290914068E+02 -0.21311628527E+02  0.20857871310E+02  0.31886063516E+02  0.00000000000E+00 0. -1.
         11    1    3    3    0    0 -0.28697350318E+01 -0.77677309051E+01 -0.15006904928E+01  0.84157646582E+01  0.51100000000E-03 0. -1.
        -11    1    3    3    0    0 -0.35785999376E+01 -0.25437288135E+01 -0.13451080134E+02  0.14149504967E+02  0.51100000000E-03 0.  1.
         12    1    3    3    0    0  0.17739249037E+02  0.31623088246E+02 -0.59061006833E+01  0.36736666859E+02  0.00000000000E+00 0. -1.
</event>
<event>
 7    1  0.5832130E-012  0.5930197E+02  0.7816164E-02  0.1266605E+00
        -11   -1    0    0    0    0  0.00000000000E+00  0.00000000000E+00  0.45593999997E+02  0.45594000000E+02  0.51100000000E-03 0. -1.
         11   -1    0    0    0    0 -0.00000000000E+00 -0.00000000000E+00 -0.45593999997E+02  0.45594000000E+02  0.51100000000E-03 0.  1.
    9900012    2    1    2    0    0 -0.43223647944E+01  0.78156410778E+01 -0.30609669366E+02  0.59301969492E+02  0.50000046441E+02 0.  0.
         12    1    1    2    0    0  0.43223647944E+01 -0.78156410778E+01  0.30609669366E+02  0.31886030508E+02  0.00000000000E+00 0. -1.
         11    1    3    3    0    0  0.16182537987E+02  0.17156596328E+01 -0.10180017175E+02  0.19195071598E+02  0.51100000000E-03 0. -1.
        -11    1    3    3    0    0 -0.10982369077E+02 -0.51830856396E+01 -0.22131876392E+02  0.25244737277E+02  0.51100000000E-03 0.  1.
        -12    1    3    3    0    0 -0.95225337048E+01  0.11283067084E+02  0.17022242019E+01  0.14862160618E+02  0.00000000000E+00 0.  1.
</event>
<event>
 7    1  0.5832130E-012  0.5930193E+02  0.7816164E-02  0.1266605E+00
        -11   -1    0    0    0    0  0.00000000000E+00  0.00000000000E+00  0.45593999997E+02  0.45594000000E+02  0.51100000000E-03 0. -1.
         11   -1    0    0    0    0 -0.00000000000E+00 -0.00000000000E+00 -0.45593999997E+02  0.45594000000E+02  0.51100000000E-03 0.  1.
    9900012    2    1    2    0    0  0.27552993376E+02 -0.15290598749E+02 -0.48735615754E+01  0.59301930056E+02  0.49999974518E+02 0.  0.
         12    1    1    2    0    0 -0.27552993376E+02  0.15290598749E+02  0.48735615754E+01  0.31886069944E+02  0.00000000000E+00 0. -1.
         11    1    3    3    0    0  0.17548729698E+02  0.33951427463E+01  0.91852194064E+01  0.20096098230E+02  0.51100000000E-03 0. -1.
        -11    1    3    3    0    0  0.12572696116E+02  0.23106494364E+01  0.16065628759E+01  0.12883820589E+02  0.51100000000E-03 0.  1.
        -12    1    3    3    0    0 -0.25684324379E+01 -0.20996390931E+02 -0.15665343858E+02  0.26322011236E+02  0.00000000000E+00 0.  1.
</event>
<event>
 7    1  0.6690252E-012  0.5930193E+02  0.7816164E-02  0.1266605E+00
        -11   -1    0    0    0    0  0.00000000000E+00  0.00000000000E+00  0.45593999997E+02  0.45594000000E+02  0.51100000000E-03 0.  1.
         11   -1    0    0    0    0 -0.00000000000E+00 -0.00000000000E+00 -0.45593999997E+02  0.45594000000E+02  0.51100000000E-03 0. -1.
    9900012    2    1    2    0    0 -0.25647229302E+02  0.10462311873E+02 -0.15794975320E+02  0.59301928026E+02  0.49999970816E+02 0.  0.
         12    1    1    2    0    0  0.25647229302E+02 -0.10462311873E+02  0.15794975320E+02  0.31886071974E+02  0.00000000000E+00 0. -1.
         11    1    3    3    0    0 -0.13312585663E+02  0.12012443500E+02 -0.35854510294E+01  0.18286038259E+02  0.51100000000E-03 0. -1.
        -11    1    3    3    0    0 -0.23478680980E+02 -0.87235173034E+01 -0.38357455817E+01  0.25338925769E+02  0.51100000000E-03 0.  1.
         12    1    3    3    0    0  0.11144037341E+02  0.71733856764E+01 -0.83737787090E+01  0.15676963998E+02  0.00000000000E+00 0. -1.
</event>
<event>
 7    1  0.5832130E-012  0.5930194E+02  0.7816164E-02  0.1266605E+00
        -11   -1    0    0    0    0  0.00000000000E+00  0.00000000000E+00  0.45593999997E+02  0.45594000000E+02  0.51100000000E-03 0.  1.
         11   -1    0    0    0    0 -0.00000000000E+00 -0.00000000000E+00 -0.45593999997E+02  0.45594000000E+02  0.51100000000E-03 0. -1.
    9900012    2    1    2    0    0 -0.11549990351E+02 -0.82314402139E+01  0.28558041658E+02  0.59301943040E+02  0.49999998199E+02 0.  0.
         12    1    1    2    0    0  0.11549990351E+02  0.82314402139E+01 -0.28558041658E+02  0.31886056960E+02  0.00000000000E+00 0. -1.
         11    1    3    3    0    0 -0.48041792688E+01  0.12933927091E+02  0.50273367722E+01  0.14684710543E+02  0.51100000000E-03 0. -1.
        -11    1    3    3    0    0 -0.18100596470E+02 -0.63070458402E+01  0.10891205816E+02  0.22046060514E+02  0.51100000000E-03 0.  1.
        -12    1    3    3    0    0  0.11354785388E+02 -0.14858321465E+02  0.12639499070E+02  0.22571171983E+02  0.00000000000E+00 0.  1.
</event>
<event>
 7    1  0.5832130E-012  0.5930195E+02  0.7816164E-02  0.1266605E+00
        -11   -1    0    0    0    0  0.00000000000E+00  0.00000000000E+00  0.45593999997E+02  0.45594000000E+02  0.51100000000E-03 0.  1.
         11   -1    0    0    0    0 -0.00000000000E+00 -0.00000000000E+00 -0.45593999997E+02  0.45594000000E+02  0.51100000000E-03 0. -1.
    9900012    2    1    2    0    0  0.19853666706E+02  0.11371222660E+02  0.22209179683E+02  0.59301945860E+02  0.50000003341E+02 0.  0.
         12    1    1    2    0    0 -0.19853666706E+02 -0.11371222660E+02 -0.22209179683E+02  0.31886054140E+02  0.00000000000E+00 0. -1.
         11    1    3    3    0    0  0.20941731538E+01 -0.99883958547E+01  0.25077092565E+01  0.10509149296E+02  0.51100000000E-03 0. -1.
        -11    1    3    3    0    0 -0.11316646336E+01  0.12101148877E+02 -0.75934969585E+01  0.14331073418E+02  0.51100000000E-03 0.  1.
         12    1    3    3    0    0  0.18891158186E+02  0.92584696371E+01  0.27294967385E+02  0.34461723146E+02  0.00000000000E+00 0. -1.
</event>
<event>
 7    1  0.5832130E-012  0.5930190E+02  0.7816164E-02  0.1266605E+00
        -11   -1    0    0    0    0  0.00000000000E+00  0.00000000000E+00  0.45593999997E+02  0.45594000000E+02  0.51100000000E-03 0.  1.
         11   -1    0    0    0    0 -0.00000000000E+00 -0.00000000000E+00 -0.45593999997E+02  0.45594000000E+02  0.51100000000E-03 0. -1.
    9900012    2    1    2    0    0  0.16406506816E+02  0.27264918857E+02  0.20430929007E+01  0.59301898094E+02  0.49999916228E+02 0.  0.
         12    1    1    2    0    0 -0.16406506816E+02 -0.27264918857E+02 -0.20430929007E+01  0.31886101906E+02  0.00000000000E+00 0. -1.
         11    1    3    3    0    0 -0.77662539550E+01 -0.84047092915E+01 -0.64637772264E+01  0.13142840449E+02  0.51100000000E-03 0. -1.
        -11    1    3    3    0    0  0.87814226093E+01  0.11986499918E+02  0.99408020076E+01  0.17877614722E+02  0.51100000000E-03 0.  1.
        -12    1    3    3    0    0  0.15391338162E+02  0.23683128230E+02 -0.14339318805E+01  0.28281442923E+02  0.00000000000E+00 0.  1.
</event>
<event>
 7    1  0.5832130E-012  0.5930195E+02  0.7816164E-02  0.1266605E+00
        -11   -1    0    0    0    0  0.00000000000E+00  0.00000000000E+00  0.45593999997E+02  0.45594000000E+02  0.51100000000E-03 0.  1.
         11   -1    0    0    0    0 -0.00000000000E+00 -0.00000000000E+00 -0.45593999997E+02  0.45594000000E+02  0.51100000000E-03 0. -1.
    9900012    2    1    2    0    0 -0.15089010142E+02 -0.18107337463E+02  0.21474783828E+02  0.59301949170E+02  0.50000009379E+02 0.  0.
         12    1    1    2    0    0  0.15089010142E+02  0.18107337463E+02 -0.21474783828E+02  0.31886050830E+02  0.00000000000E+00 0. -1.
         11    1    3    3    0    0 -0.17825890675E+02  0.53565183484E+01 -0.32056761844E+01  0.18887324513E+02  0.51100000000E-03 0. -1.
        -11    1    3    3    0    0 -0.94847396987E+01 -0.11359232340E+02  0.11713553122E+02  0.18873255509E+02  0.51100000000E-03 0.  1.
         12    1    3    3    0    0  0.12221620232E+02 -0.12104623471E+02  0.12966906891E+02  0.21541369149E+02  0.00000000000E+00 0. -1.
</event>
<event>
 7    1  0.5832130E-012  0.5930195E+02  0.7816164E-02  0.1266605E+00
        -11   -1    0    0    0    0  0.00000000000E+00  0.00000000000E+00  0.45593999997E+02  0.45594000000E+02  0.51100000000E-03 0.  1.
         11   -1    0    0    0    0 -0.00000000000E+00 -0.00000000000E+00 -0.45593999997E+02  0.45594000000E+02  0.51100000000E-03 0. -1.
    9900012    2    1    2    0    0  0.19015135963E+02 -0.11365741415E-02  0.25595800152E+02  0.59301946899E+02  0.50000005236E+02 0.  0.
         12    1    1    2    0    0 -0.19015135963E+02  0.11365741415E-02 -0.25595800152E+02  0.31886053101E+02  0.00000000000E+00 0. -1.
         11    1    3    3    0    0  0.23144131629E+02  0.91108253171E+01 -0.18736974993E+01  0.24943309913E+02  0.51100000000E-03 0. -1.
        -11    1    3    3    0    0  0.48498176584E+01  0.16454767439E+01  0.14060819161E+02  0.14964456581E+02  0.51100000000E-03 0.  1.
        -12    1    3    3    0    0 -0.89788133247E+01 -0.10757438635E+02  0.13408678490E+02  0.19394180405E+02  0.00000000000E+00 0.  1.
</event>
<event>
 7    1  0.5832130E-012  0.5930165E+02  0.7816164E-02  0.1266606E+00
        -11   -1    0    0    0    0  0.00000000000E+00  0.00000000000E+00  0.45593999997E+02  0.45594000000E+02  0.51100000000E-03 0.  1.
         11   -1    0    0    0    0 -0.00000000000E+00 -0.00000000000E+00 -0.45593999997E+02  0.45594000000E+02  0.51100000000E-03 0. -1.
    9900012    2    1    2    0    0  0.29349293995E+02  0.11293084140E+02  0.52748902046E+01  0.59301650662E+02  0.49999464969E+02 0.  0.
         12    1    1    2    0    0 -0.29349293995E+02 -0.11293084140E+02 -0.52748902046E+01  0.31886349338E+02  0.00000000000E+00 0. -1.
         11    1    3    3    0    0  0.21977823023E+02  0.24357331173E+02  0.14949911676E+01  0.32841121868E+02  0.51100000000E-03 0. -1.
        -11    1    3    3    0    0  0.12188366020E+02 -0.49035612934E+00 -0.83476229417E+00  0.12226755240E+02  0.51100000000E-03 0.  1.
         12    1    3    3    0    0 -0.48168950476E+01 -0.12573890904E+02  0.46146613311E+01  0.14233773554E+02  0.00000000000E+00 0. -1.
</event>
<event>
 7    1  0.5832130E-012  0.5930196E+02  0.7816164E-02  0.1266605E+00
        -11   -1    0    0    0    0  0.00000000000E+00  0.00000000000E+00  0.45593999997E+02  0.45594000000E+02  0.51100000000E-03 0. -1.
         11   -1    0    0    0    0 -0.00000000000E+00 -0.00000000000E+00 -0.45593999997E+02  0.45594000000E+02  0.51100000000E-03 0.  1.
    9900012    2    1    2    0    0  0.17162643718E+02 -0.25171501751E+02 -0.94105478794E+01  0.59301964637E+02  0.50000037586E+02 0.  0.
         12    1    1    2    0    0 -0.17162643718E+02  0.25171501751E+02  0.94105478794E+01  0.31886035363E+02  0.00000000000E+00 0. -1.
         11    1    3    3    0    0 -0.39018058914E+01 -0.65303504156E+01  0.13612644273E+02  0.15594026104E+02  0.51100000000E-03 0. -1.
        -11    1    3    3    0    0  0.10659693623E+02  0.40974955840E+01 -0.33817583576E+01  0.11910282451E+02  0.51100000000E-03 0.  1.
        -12    1    3    3    0    0  0.10404755986E+02 -0.22738646919E+02 -0.19641433795E+02  0.31797656083E+02  0.00000000000E+00 0.  1.
</event>
<event>
 7    1  0.5832130E-012  0.5930195E+02  0.7816164E-02  0.1266605E+00
        -11   -1    0    0    0    0  0.00000000000E+00  0.00000000000E+00  0.45593999997E+02  0.45594000000E+02  0.51100000000E-03 0.  1.
         11   -1    0    0    0    0 -0.00000000000E+00 -0.00000000000E+00 -0.45593999997E+02  0.45594000000E+02  0.51100000000E-03 0. -1.
    9900012    2    1    2    0    0  0.25519330646E+02  0.61645088298E+01  0.18096483197E+02  0.59301951172E+02  0.50000013030E+02 0.  0.
         12    1    1    2    0    0 -0.25519330646E+02 -0.61645088298E+01 -0.18096483197E+02  0.31886048828E+02  0.00000000000E+00 0. -1.
         11    1    3    3    0    0  0.27688641373E+02  0.10660876579E+02  0.10619961682E+02  0.31513469134E+02  0.51100000000E-03 0. -1.
        -11    1    3    3    0    0 -0.70677440344E+00  0.19150340541E+01  0.16498444135E+02  0.16624245686E+02  0.51100000000E-03 0.  1.
         12    1    3    3    0    0 -0.14625363227E+01 -0.64114018035E+01 -0.90219226195E+01  0.11164236352E+02  0.00000000000E+00 0. -1.
</event>
<event>
 7    1  0.5832130E-012  0.5930195E+02  0.7816164E-02  0.1266605E+00
        -11   -1    0    0    0    0  0.00000000000E+00  0.00000000000E+00  0.45593999997E+02  0.45594000000E+02  0.51100000000E-03 0.  1.
         11   -1    0    0    0    0 -0.00000000000E+00 -0.00000000000E+00 -0.45593999997E+02  0.45594000000E+02  0.51100000000E-03 0. -1.
    9900012    2    1    2    0    0 -0.15394325979E+02 -0.13498564201E+02  0.24444295567E+02  0.59301951427E+02  0.50000013494E+02 0.  0.
         12    1    1    2    0    0  0.15394325979E+02  0.13498564201E+02 -0.24444295567E+02  0.31886048573E+02  0.00000000000E+00 0. -1.
         11    1    3    3    0    0  0.11433451553E+02 -0.76682683773E+01  0.91687270691E+01  0.16540607929E+02  0.51100000000E-03 0. -1.
        -11    1    3    3    0    0 -0.28915218766E+01 -0.10583444076E+01  0.17946148145E+02  0.18208383375E+02  0.51100000000E-03 0.  1.
         12    1    3    3    0    0 -0.23936255656E+02 -0.47719514163E+01 -0.26705796470E+01  0.24552960123E+02  0.00000000000E+00 0. -1.
</event>
<event>
 7    1  0.5832130E-012  0.5930218E+02  0.7816164E-02  0.1266604E+00
        -11   -1    0    0    0    0  0.00000000000E+00  0.00000000000E+00  0.45593999997E+02  0.45594000000E+02  0.51100000000E-03 0. -1.
         11   -1    0    0    0    0 -0.00000000000E+00 -0.00000000000E+00 -0.45593999997E+02  0.45594000000E+02  0.51100000000E-03 0.  1.
    9900012    2    1    2    0    0 -0.24137596985E+02 -0.14083955750E+02 -0.15353308303E+02  0.59302180681E+02  0.50000431597E+02 0.  0.
         12    1    1    2    0    0  0.24137596985E+02  0.14083955750E+02  0.15353308303E+02  0.31885819319E+02  0.00000000000E+00 0. -1.
         11    1    3    3    0    0  0.67802595686E+01 -0.10660682716E+01  0.23583923346E+00  0.68676081558E+01  0.51100000000E-03 0. -1.
        -11    1    3    3    0    0 -0.35743795459E+01  0.82584682108E+01 -0.15343465087E+02  0.17787647609E+02  0.51100000000E-03 0.  1.
        -12    1    3    3    0    0 -0.27343477008E+02 -0.21276355690E+02 -0.24568244955E+00  0.34646924916E+02  0.00000000000E+00 0.  1.
</event>
<event>
 7    1  0.5832130E-012  0.5930195E+02  0.7816164E-02  0.1266605E+00
        -11   -1    0    0    0    0  0.00000000000E+00  0.00000000000E+00  0.45593999997E+02  0.45594000000E+02  0.51100000000E-03 0. -1.
         11   -1    0    0    0    0 -0.00000000000E+00 -0.00000000000E+00 -0.45593999997E+02  0.45594000000E+02  0.51100000000E-03 0.  1.
    9900012    2    1    2    0    0  0.21206129246E+02 -0.18523342902E+02 -0.14963498170E+02  0.59301946193E+02  0.50000003949E+02 0.  0.
         12    1    1    2    0    0 -0.21206129246E+02  0.18523342902E+02  0.14963498170E+02  0.31886053807E+02  0.00000000000E+00 0. -1.
         11    1    3    3    0    0 -0.39647108348E+01  0.93490006026E+00  0.18384871560E+01  0.44691168491E+01  0.51100000000E-03 0. -1.
        -11    1    3    3    0    0  0.10369761785E+02 -0.35126003958E+01  0.13592923619E+02  0.17453879047E+02  0.51100000000E-03 0.  1.
        -12    1    3    3    0    0  0.14801078296E+02 -0.15945642567E+02 -0.30394908945E+02  0.37378950297E+02  0.00000000000E+00 0.  1.
</event>
<event>
 7    1  0.5832130E-012  0.5930187E+02  0.7816164E-02  0.1266605E+00
        -11   -1    0    0    0    0  0.00000000000E+00  0.00000000000E+00  0.45593999997E+02  0.45594000000E+02  0.51100000000E-03 0. -1.
         11   -1    0    0    0    0 -0.00000000000E+00 -0.00000000000E+00 -0.45593999997E+02  0.45594000000E+02  0.51100000000E-03 0.  1.
    9900012    2    1    2    0    0 -0.28164378302E+02 -0.12746452600E+02 -0.78115797543E+01  0.59301873906E+02  0.49999872115E+02 0.  0.
         12    1    1    2    0    0  0.28164378302E+02  0.12746452600E+02  0.78115797543E+01  0.31886126094E+02  0.00000000000E+00 0. -1.
         11    1    3    3    0    0 -0.57430192981E+01  0.10703104647E+01  0.57722265260E+01  0.82125778217E+01  0.51100000000E-03 0. -1.
        -11    1    3    3    0    0 -0.34477360858E+02 -0.73575592251E+01 -0.71373200153E+01  0.35968923069E+02  0.51100000000E-03 0.  1.
         12    1    3    3    0    0  0.12056001855E+02 -0.64592038397E+01 -0.64464862651E+01  0.15120373015E+02  0.00000000000E+00 0. -1.
</event>
<event>
 7    1  0.5832130E-012  0.5930193E+02  0.7816164E-02  0.1266605E+00
        -11   -1    0    0    0    0  0.00000000000E+00  0.00000000000E+00  0.45593999997E+02  0.45594000000E+02  0.51100000000E-03 0. -1.
         11   -1    0    0    0    0 -0.00000000000E+00 -0.00000000000E+00 -0.45593999997E+02  0.45594000000E+02  0.51100000000E-03 0.  1.
    9900012    2    1    2    0    0  0.28962640787E+02 -0.13305806229E+02 -0.91775236100E+00  0.59301932351E+02  0.49999978704E+02 0.  0.
         12    1    1    2    0    0 -0.28962640787E+02  0.13305806229E+02  0.91775236100E+00  0.31886067649E+02  0.00000000000E+00 0. -1.
         11    1    3    3    0    0  0.26253815576E+02 -0.15028843419E+02  0.95470688658E+01  0.31721845643E+02  0.51100000000E-03 0. -1.
        -11    1    3    3    0    0  0.10204968729E+01 -0.99913110077E+01 -0.11996984358E+02  0.15645936964E+02  0.51100000000E-03 0.  1.
        -12    1    3    3    0    0  0.16883283373E+01  0.11714348197E+02  0.15321631313E+01  0.11934149744E+02  0.00000000000E+00 0.  1.
</event>
<event>
 7    1  0.5832130E-012  0.5930191E+02  0.7816164E-02  0.1266605E+00
        -11   -1    0    0    0    0  0.00000000000E+00  0.00000000000E+00  0.45593999997E+02  0.45594000000E+02  0.51100000000E-03 0.  1.
         11   -1    0    0    0    0 -0.00000000000E+00 -0.00000000000E+00 -0.45593999997E+02  0.45594000000E+02  0.51100000000E-03 0. -1.
    9900012    2    1    2    0    0 -0.26795794767E+02 -0.16724084330E+02 -0.43604310352E+01  0.59301906281E+02  0.49999931159E+02 0.  0.
         12    1    1    2    0    0  0.26795794767E+02  0.16724084330E+02  0.43604310352E+01  0.31886093719E+02  0.00000000000E+00 0. -1.
         11    1    3    3    0    0 -0.60405405107E+01 -0.16843574588E+02 -0.15428607319E+02  0.23627019673E+02  0.51100000000E-03 0. -1.
        -11    1    3    3    0    0 -0.12315068417E+02  0.93255013804E+01 -0.41427985542E+01  0.15993394456E+02  0.51100000000E-03 0.  1.
        -12    1    3    3    0    0 -0.84401858391E+01 -0.92060111220E+01  0.15210974838E+02  0.19681492152E+02  0.00000000000E+00 0.  1.
</event>
<event>
 7    1  0.5832130E-012  0.5930198E+02  0.7816164E-02  0.1266605E+00
        -11   -1    0    0    0    0  0.00000000000E+00  0.00000000000E+00  0.45593999997E+02  0.45594000000E+02  0.51100000000E-03 0.  1.
         11   -1    0    0    0    0 -0.00000000000E+00 -0.00000000000E+00 -0.45593999997E+02  0.45594000000E+02  0.51100000000E-03 0. -1.
    9900012    2    1    2    0    0  0.52932383115E+01  0.24961097030E+02  0.19121815500E+02  0.59301975401E+02  0.50000057217E+02 0.  0.
         12    1    1    2    0    0 -0.52932383115E+01 -0.24961097030E+02 -0.19121815500E+02  0.31886024599E+02  0.00000000000E+00 0. -1.
         11    1    3    3    0    0  0.94158110523E+01  0.46501122276E+01 -0.68125412928E+01  0.12517657953E+02  0.51100000000E-03 0. -1.
        -11    1    3    3    0    0 -0.37417940387E+00  0.15770729053E+02 -0.40016739120E+01  0.16274805665E+02  0.51100000000E-03 0.  1.
        -12    1    3    3    0    0 -0.37483933369E+01  0.45402557494E+01  0.29936030704E+02  0.30509511783E+02  0.00000000000E+00 0.  1.
</event>
<event>
 7    1  0.5832130E-012  0.5930190E+02  0.7816164E-02  0.1266605E+00
        -11   -1    0    0    0    0  0.00000000000E+00  0.00000000000E+00  0.45593999997E+02  0.45594000000E+02  0.51100000000E-03 0.  1.
         11   -1    0    0    0    0 -0.00000000000E+00 -0.00000000000E+00 -0.45593999997E+02  0.45594000000E+02  0.51100000000E-03 0. -1.
    9900012    2    1    2    0    0 -0.16710787416E+01 -0.27389771988E+02 -0.16239800112E+02  0.59301902381E+02  0.49999924046E+02 0.  0.
         12    1    1    2    0    0  0.16710787416E+01  0.27389771988E+02  0.16239800112E+02  0.31886097619E+02  0.00000000000E+00 0. -1.
         11    1    3    3    0    0  0.60438114822E+01  0.79806890925E+01 -0.14825483309E+02  0.17888935442E+02  0.51100000000E-03 0. -1.
        -11    1    3    3    0    0 -0.38745657340E+01 -0.14563864232E+01 -0.56675627182E+01  0.70181613309E+01  0.51100000000E-03 0.  1.
        -12    1    3    3    0    0 -0.38403244899E+01 -0.33914074657E+02  0.42532459158E+01  0.34394805608E+02  0.00000000000E+00 0.  1.
</event>
<event>
 7    1  0.5832130E-012  0.5930194E+02  0.7816164E-02  0.1266605E+00
        -11   -1    0    0    0    0  0.00000000000E+00  0.00000000000E+00  0.45593999997E+02  0.45594000000E+02  0.51100000000E-03 0.  1.
         11   -1    0    0    0    0 -0.00000000000E+00 -0.00000000000E+00 -0.45593999997E+02  0.45594000000E+02  0.51100000000E-03 0. -1.
    9900012    2    1    2    0    0 -0.17346890283E+02 -0.95614760192E+01 -0.24987687069E+02  0.59301938292E+02  0.49999989540E+02 0.  0.
         12    1    1    2    0    0  0.17346890283E+02  0.95614760192E+01  0.24987687069E+02  0.31886061708E+02  0.00000000000E+00 0. -1.
         11    1    3    3    0    0 -0.23069467189E+02  0.10997420243E+01 -0.30635849361E+02  0.38366196257E+02  0.51100000000E-03 0. -1.
        -11    1    3    3    0    0 -0.44116373942E+01 -0.36448998275E+01 -0.24100664510E+01  0.62093687127E+01  0.51100000000E-03 0.  1.
         12    1    3    3    0    0  0.10134214300E+02 -0.70163182159E+01  0.80582287425E+01  0.14726373323E+02  0.00000000000E+00 0. -1.
</event>
<event>
 7    1  0.5832130E-012  0.5930195E+02  0.7816164E-02  0.1266605E+00
        -11   -1    0    0    0    0  0.00000000000E+00  0.00000000000E+00  0.45593999997E+02  0.45594000000E+02  0.51100000000E-03 0. -1.
         11   -1    0    0    0    0 -0.00000000000E+00 -0.00000000000E+00 -0.45593999997E+02  0.45594000000E+02  0.51100000000E-03 0.  1.
    9900012    2    1    2    0    0 -0.26384701537E+02 -0.21738578448E+01  0.17771942835E+02  0.59301951558E+02  0.50000013733E+02 0.  0.
         12    1    1    2    0    0  0.26384701537E+02  0.21738578448E+01 -0.17771942835E+02  0.31886048442E+02  0.00000000000E+00 0. -1.
         11    1    3    3    0    0  0.53637810639E+01  0.10215763070E+02 -0.55796138548E+01  0.12816553883E+02  0.51100000000E-03 0.  1.
        -11    1    3    3    0    0 -0.13003413923E+02 -0.11683939165E+02  0.12929439780E+01  0.17529258753E+02  0.51100000000E-03 0. -1.
        -12    1    3    3    0    0 -0.18745068679E+02 -0.70568174944E+00  0.22058612712E+02  0.28956138922E+02  0.00000000000E+00 0.  1.
</event>
<event>
 7    1  0.5832130E-012  0.5930180E+02  0.7816164E-02  0.1266605E+00
        -11   -1    0    0    0    0  0.00000000000E+00  0.00000000000E+00  0.45593999997E+02  0.45594000000E+02  0.51100000000E-03 0.  1.
         11   -1    0    0    0    0 -0.00000000000E+00 -0.00000000000E+00 -0.45593999997E+02  0.45594000000E+02  0.51100000000E-03 0. -1.
    9900012    2    1    2    0    0 -0.11412548975E+02  0.26739949589E+02  0.13094224427E+02  0.59301797789E+02  0.49999733295E+02 0.  0.
         12    1    1    2    0    0  0.11412548975E+02 -0.26739949589E+02 -0.13094224427E+02  0.31886202211E+02  0.00000000000E+00 0. -1.
         11    1    3    3    0    0 -0.33950342402E+01  0.31030617106E+02  0.51646936635E+01  0.31640156706E+02  0.51100000000E-03 0. -1.
        -11    1    3    3    0    0 -0.11319114294E+02  0.75884252623E+01  0.69394936643E+01  0.15292583789E+02  0.51100000000E-03 0.  1.
        -12    1    3    3    0    0  0.33015995590E+01 -0.11879092779E+02  0.99003709882E+00  0.12369057295E+02  0.00000000000E+00 0.  1.
</event>
<event>
 7    1  0.5832130E-012  0.5930195E+02  0.7816164E-02  0.1266605E+00
        -11   -1    0    0    0    0  0.00000000000E+00  0.00000000000E+00  0.45593999997E+02  0.45594000000E+02  0.51100000000E-03 0. -1.
         11   -1    0    0    0    0 -0.00000000000E+00 -0.00000000000E+00 -0.45593999997E+02  0.45594000000E+02  0.51100000000E-03 0.  1.
    9900012    2    1    2    0    0 -0.46288808754E-01 -0.31871902633E+02  0.94876586196E+00  0.59301945418E+02  0.50000002536E+02 0.  0.
         12    1    1    2    0    0  0.46288808754E-01  0.31871902633E+02 -0.94876586196E+00  0.31886054582E+02  0.00000000000E+00 0. -1.
         11    1    3    3    0    0 -0.67255227063E+01 -0.11940729349E+02  0.57176195571E+01  0.14849405601E+02  0.51100000000E-03 0. -1.
        -11    1    3    3    0    0 -0.99451695997E+01 -0.82004489674E+01 -0.16521947380E+02  0.20955393271E+02  0.51100000000E-03 0.  1.
        -12    1    3    3    0    0  0.16624403497E+02 -0.11730724317E+02  0.11753093685E+02  0.23497146546E+02  0.00000000000E+00 0.  1.
</event>
<event>
 7    1  0.5832130E-012  0.5930195E+02  0.7816164E-02  0.1266605E+00
        -11   -1    0    0    0    0  0.00000000000E+00  0.00000000000E+00  0.45593999997E+02  0.45594000000E+02  0.51100000000E-03 0.  1.
         11   -1    0    0    0    0 -0.00000000000E+00 -0.00000000000E+00 -0.45593999997E+02  0.45594000000E+02  0.51100000000E-03 0. -1.
    9900012    2    1    2    0    0 -0.54556332646E+01 -0.29900381759E+01  0.31273249962E+02  0.59301946217E+02  0.50000003994E+02 0.  0.
         12    1    1    2    0    0  0.54556332646E+01  0.29900381759E+01 -0.31273249962E+02  0.31886053783E+02  0.00000000000E+00 0. -1.
         11    1    3    3    0    0  0.41249534092E+01  0.22505938323E+01 -0.18042570129E+01  0.50334637036E+01  0.51100000000E-03 0. -1.
        -11    1    3    3    0    0  0.10557830621E+02 -0.13382785635E+02  0.32234996306E+01  0.17348132145E+02  0.51100000000E-03 0.  1.
        -12    1    3    3    0    0 -0.20138417295E+02  0.81421536269E+01  0.29854007345E+02  0.36920350369E+02  0.00000000000E+00 0.  1.
</event>
<event>
 7    1  0.5832130E-012  0.5930196E+02  0.7816164E-02  0.1266605E+00
        -11   -1    0    0    0    0  0.00000000000E+00  0.00000000000E+00  0.45593999997E+02  0.45594000000E+02  0.51100000000E-03 0.  1.
         11   -1    0    0    0    0 -0.00000000000E+00 -0.00000000000E+00 -0.45593999997E+02  0.45594000000E+02  0.51100000000E-03 0. -1.
    9900012    2    1    2    0    0  0.21689521790E+00 -0.24871674944E+02  0.19951756198E+02  0.59301955506E+02  0.50000020934E+02 0.  0.
         12    1    1    2    0    0 -0.21689521790E+00  0.24871674944E+02 -0.19951756198E+02  0.31886044494E+02  0.00000000000E+00 0. -1.
         11    1    3    3    0    0 -0.17104346420E+02 -0.82373239905E+01  0.47611740422E+00  0.18990493964E+02  0.51100000000E-03 0. -1.
        -11    1    3    3    0    0  0.56938221820E+01  0.50263901878E+01  0.12721621483E+02  0.14816337697E+02  0.51100000000E-03 0.  1.
        -12    1    3    3    0    0  0.11627419456E+02 -0.21660741141E+02  0.67540173115E+01  0.25495123844E+02  0.00000000000E+00 0.  1.
</event>
<event>
 7    1  0.5832130E-012  0.5930196E+02  0.7816164E-02  0.1266605E+00
        -11   -1    0    0    0    0  0.00000000000E+00  0.00000000000E+00  0.45593999997E+02  0.45594000000E+02  0.51100000000E-03 0. -1.
         11   -1    0    0    0    0 -0.00000000000E+00 -0.00000000000E+00 -0.45593999997E+02  0.45594000000E+02  0.51100000000E-03 0.  1.
    9900012    2    1    2    0    0 -0.18649416280E+02 -0.10038097089E+02 -0.23836008429E+02  0.59301962012E+02  0.50000032799E+02 0.  0.
         12    1    1    2    0    0  0.18649416280E+02  0.10038097089E+02  0.23836008429E+02  0.31886037988E+02  0.00000000000E+00 0. -1.
         11    1    3    3    0    0  0.10985314703E+02 -0.33391987645E+01 -0.76494299870E+01  0.13796418626E+02  0.51100000000E-03 0. -1.
        -11    1    3    3    0    0 -0.11008646368E+00 -0.36026434501E+00 -0.15290203409E+02  0.15294843248E+02  0.51100000000E-03 0.  1.
        -12    1    3    3    0    0 -0.29524644519E+02 -0.63386339790E+01 -0.89637503281E+00  0.30210700139E+02  0.00000000000E+00 0.  1.
</event>
<event>
 7    1  0.5832130E-012  0.5930196E+02  0.7816164E-02  0.1266605E+00
        -11   -1    0    0    0    0  0.00000000000E+00  0.00000000000E+00  0.45593999997E+02  0.45594000000E+02  0.51100000000E-03 0.  1.
         11   -1    0    0    0    0 -0.00000000000E+00 -0.00000000000E+00 -0.45593999997E+02  0.45594000000E+02  0.51100000000E-03 0. -1.
    9900012    2    1    2    0    0  0.29493866989E+02 -0.46973427191E+01  0.11169884438E+02  0.59301960156E+02  0.50000029415E+02 0.  0.
         12    1    1    2    0    0 -0.29493866989E+02  0.46973427191E+01 -0.11169884438E+02  0.31886039844E+02  0.00000000000E+00 0. -1.
         11    1    3    3    0    0  0.53889066705E+01  0.98110612232E+01 -0.52192670422E+01  0.12350626954E+02  0.51100000000E-03 0. -1.
        -11    1    3    3    0    0 -0.39758597519E+01  0.50170909715E+01  0.10424518632E+02  0.12233121088E+02  0.51100000000E-03 0.  1.
        -12    1    3    3    0    0  0.28080820070E+02 -0.19525494914E+02  0.59646328476E+01  0.34718212115E+02  0.00000000000E+00 0.  1.
</event>
<event>
 7    1  0.5832130E-012  0.5930194E+02  0.7816164E-02  0.1266605E+00
        -11   -1    0    0    0    0  0.00000000000E+00  0.00000000000E+00  0.45593999997E+02  0.45594000000E+02  0.51100000000E-03 0.  1.
         11   -1    0    0    0    0 -0.00000000000E+00 -0.00000000000E+00 -0.45593999997E+02  0.45594000000E+02  0.51100000000E-03 0. -1.
    9900012    2    1    2    0    0  0.72392570991E+01  0.15586026727E+02  0.26858699348E+02  0.59301940301E+02  0.49999993203E+02 0.  0.
         12    1    1    2    0    0 -0.72392570991E+01 -0.15586026727E+02 -0.26858699348E+02  0.31886059699E+02  0.00000000000E+00 0. -1.
         11    1    3    3    0    0 -0.49541838818E+01  0.92913505860E+01 -0.64367049363E+01  0.12341163006E+02  0.51100000000E-03 0. -1.
        -11    1    3    3    0    0  0.33548287533E+01  0.11116611798E+02 -0.57455069880E+00  0.11626007164E+02  0.51100000000E-03 0.  1.
         12    1    3    3    0    0  0.88386122276E+01 -0.48219356564E+01  0.33869954983E+02  0.35334770130E+02  0.00000000000E+00 0. -1.
</event>
<event>
 7    1  0.5832130E-012  0.5930196E+02  0.7816164E-02  0.1266605E+00
        -11   -1    0    0    0    0  0.00000000000E+00  0.00000000000E+00  0.45593999997E+02  0.45594000000E+02  0.51100000000E-03 0.  1.
         11   -1    0    0    0    0 -0.00000000000E+00 -0.00000000000E+00 -0.45593999997E+02  0.45594000000E+02  0.51100000000E-03 0. -1.
    9900012    2    1    2    0    0  0.11160544941E+02 -0.66412815444E+01  0.29121388874E+02  0.59301958009E+02  0.50000025498E+02 0.  0.
         12    1    1    2    0    0 -0.11160544941E+02  0.66412815444E+01 -0.29121388874E+02  0.31886041991E+02  0.00000000000E+00 0. -1.
         11    1    3    3    0    0  0.71840362348E+01 -0.41856397296E+01  0.70447872296E+01  0.10897659563E+02  0.51100000000E-03 0. -1.
        -11    1    3    3    0    0  0.31390233469E+01  0.14078847509E+02  0.27440988153E+02  0.31001213618E+02  0.51100000000E-03 0.  1.
         12    1    3    3    0    0  0.83748535906E+00 -0.16534489324E+02 -0.53643865086E+01  0.17403084828E+02  0.00000000000E+00 0. -1.
</event>
<event>
 7    1  0.5832130E-012  0.5930191E+02  0.7816164E-02  0.1266605E+00
        -11   -1    0    0    0    0  0.00000000000E+00  0.00000000000E+00  0.45593999997E+02  0.45594000000E+02  0.51100000000E-03 0.  1.
         11   -1    0    0    0    0 -0.00000000000E+00 -0.00000000000E+00 -0.45593999997E+02  0.45594000000E+02  0.51100000000E-03 0. -1.
    9900012    2    1    2    0    0  0.26742761593E+02 -0.17341734426E+02  0.90107440415E+00  0.59301906078E+02  0.49999930789E+02 0.  0.
         12    1    1    2    0    0 -0.26742761593E+02  0.17341734426E+02 -0.90107440415E+00  0.31886093922E+02  0.00000000000E+00 0. -1.
         11    1    3    3    0    0 -0.76319140578E+01 -0.93154821642E+01 -0.67425001588E+01  0.13801653118E+02  0.51100000000E-03 0. -1.
        -11    1    3    3    0    0  0.12486256498E+02 -0.10382123805E+02  0.15182165470E+02  0.22230457590E+02  0.51100000000E-03 0.  1.
        -12    1    3    3    0    0  0.21888419152E+02  0.23558715434E+01 -0.75385909067E+01  0.23269795370E+02  0.00000000000E+00 0.  1.
</event>
<event>
 7    1  0.5832130E-012  0.5930193E+02  0.7816164E-02  0.1266605E+00
        -11   -1    0    0    0    0  0.00000000000E+00  0.00000000000E+00  0.45593999997E+02  0.45594000000E+02  0.51100000000E-03 0.  1.
         11   -1    0    0    0    0 -0.00000000000E+00 -0.00000000000E+00 -0.45593999997E+02  0.45594000000E+02  0.51100000000E-03 0. -1.
    9900012    2    1    2    0    0 -0.27729953266E+02  0.12255039580E+01  0.15692976091E+02  0.59301926760E+02  0.49999968508E+02 0.  0.
         12    1    1    2    0    0  0.27729953266E+02 -0.12255039580E+01 -0.15692976091E+02  0.31886073240E+02  0.00000000000E+00 0. -1.
         11    1    3    3    0    0 -0.16613474692E+01 -0.29788540405E+01  0.32283120444E+01  0.46963438679E+01  0.51100000000E-03 0. -1.
        -11    1    3    3    0    0 -0.36708472167E+00  0.11027677836E+02  0.23386099136E+02  0.25858346094E+02  0.51100000000E-03 0.  1.
         12    1    3    3    0    0 -0.25701521075E+02 -0.68233198380E+01 -0.10921435089E+02  0.28747236799E+02  0.00000000000E+00 0. -1.
</event>
<event>
 7    1  0.5832130E-012  0.5930195E+02  0.7816164E-02  0.1266605E+00
        -11   -1    0    0    0    0  0.00000000000E+00  0.00000000000E+00  0.45593999997E+02  0.45594000000E+02  0.51100000000E-03 0.  1.
         11   -1    0    0    0    0 -0.00000000000E+00 -0.00000000000E+00 -0.45593999997E+02  0.45594000000E+02  0.51100000000E-03 0. -1.
    9900012    2    1    2    0    0 -0.13265934565E+02  0.27648055313E+02  0.87361597311E+01  0.59301945536E+02  0.50000002750E+02 0.  0.
         12    1    1    2    0    0  0.13265934565E+02 -0.27648055313E+02 -0.87361597311E+01  0.31886054464E+02  0.00000000000E+00 0. -1.
         11    1    3    3    0    0 -0.32514285576E+01 -0.56589080420E+01  0.73002632673E+01  0.97922863482E+01  0.51100000000E-03 0. -1.
        -11    1    3    3    0    0 -0.67210420744E+01  0.61539469577E+01  0.16081078062E+02  0.18483629016E+02  0.51100000000E-03 0.  1.
         12    1    3    3    0    0 -0.32934639330E+01  0.27153016397E+02 -0.14645181598E+02  0.31026030171E+02  0.00000000000E+00 0. -1.
</event>
<event>
 7    1  0.5832130E-012  0.5930193E+02  0.7816164E-02  0.1266605E+00
        -11   -1    0    0    0    0  0.00000000000E+00  0.00000000000E+00  0.45593999997E+02  0.45594000000E+02  0.51100000000E-03 0. -1.
         11   -1    0    0    0    0 -0.00000000000E+00 -0.00000000000E+00 -0.45593999997E+02  0.45594000000E+02  0.51100000000E-03 0.  1.
    9900012    2    1    2    0    0 -0.29680270559E+02  0.85563747182E+01 -0.79114739507E+01  0.59301930489E+02  0.49999975309E+02 0.  0.
         12    1    1    2    0    0  0.29680270559E+02 -0.85563747182E+01  0.79114739507E+01  0.31886069511E+02  0.00000000000E+00 0. -1.
         11    1    3    3    0    0 -0.16184371110E+02  0.70679341114E+01 -0.13026099903E+02  0.21944676798E+02  0.51100000000E-03 0. -1.
        -11    1    3    3    0    0 -0.43815213526E+01  0.31762875511E+00 -0.14792780403E+02  0.15431298381E+02  0.51100000000E-03 0.  1.
         12    1    3    3    0    0 -0.91143780958E+01  0.11708118516E+01  0.19907406356E+02  0.21925955310E+02  0.00000000000E+00 0. -1.
</event>
<event>
 7    1  0.5832130E-012  0.5930188E+02  0.7816164E-02  0.1266605E+00
        -11   -1    0    0    0    0  0.00000000000E+00  0.00000000000E+00  0.45593999997E+02  0.45594000000E+02  0.51100000000E-03 0.  1.
         11   -1    0    0    0    0 -0.00000000000E+00 -0.00000000000E+00 -0.45593999997E+02  0.45594000000E+02  0.51100000000E-03 0. -1.
    9900012    2    1    2    0    0  0.15900577347E+02  0.27585436631E+02 -0.17147084837E+01  0.59301876070E+02  0.49999876060E+02 0.  0.
         12    1    1    2    0    0 -0.15900577347E+02 -0.27585436631E+02  0.17147084837E+01  0.31886123930E+02  0.00000000000E+00 0. -1.
         11    1    3    3    0    0  0.91419723134E+01  0.97891571759E+01 -0.12977054983E+02  0.18649590137E+02  0.51100000000E-03 0. -1.
        -11    1    3    3    0    0  0.18707216207E+02  0.18409312065E+02  0.11571806822E+02  0.28683957577E+02  0.51100000000E-03 0.  1.
         12    1    3    3    0    0 -0.11948611172E+02 -0.61303260930E+00 -0.30946032346E+00  0.11968328355E+02  0.00000000000E+00 0. -1.
</event>
<event>
 7    1  0.5832130E-012  0.5930195E+02  0.7816164E-02  0.1266605E+00
        -11   -1    0    0    0    0  0.00000000000E+00  0.00000000000E+00  0.45593999997E+02  0.45594000000E+02  0.51100000000E-03 0.  1.
         11   -1    0    0    0    0 -0.00000000000E+00 -0.00000000000E+00 -0.45593999997E+02  0.45594000000E+02  0.51100000000E-03 0. -1.
    9900012    2    1    2    0    0 -0.21402229966E+02 -0.18180780483E+02  0.15103782170E+02  0.59301945645E+02  0.50000002949E+02 0.  0.
         12    1    1    2    0    0  0.21402229966E+02  0.18180780483E+02 -0.15103782170E+02  0.31886054355E+02  0.00000000000E+00 0. -1.
         11    1    3    3    0    0 -0.14660030576E+02  0.77809036235E+01  0.20086878001E+02  0.26056508319E+02  0.51100000000E-03 0. -1.
        -11    1    3    3    0    0 -0.93018160600E+01 -0.30465097265E+01 -0.90328874154E+00  0.98295948207E+01  0.51100000000E-03 0.  1.
        -12    1    3    3    0    0  0.25596166697E+01 -0.22915174380E+02 -0.40798070893E+01  0.23415842505E+02  0.00000000000E+00 0.  1.
</event>
<event>
 7    1  0.5832130E-012  0.5930193E+02  0.7816164E-02  0.1266605E+00
        -11   -1    0    0    0    0  0.00000000000E+00  0.00000000000E+00  0.45593999997E+02  0.45594000000E+02  0.51100000000E-03 0.  1.
         11   -1    0    0    0    0 -0.00000000000E+00 -0.00000000000E+00 -0.45593999997E+02  0.45594000000E+02  0.51100000000E-03 0. -1.
    9900012    2    1    2    0    0 -0.28654157276E+02 -0.42819122822E+01 -0.13316387442E+02  0.59301926606E+02  0.49999968228E+02 0.  0.
         12    1    1    2    0    0  0.28654157276E+02  0.42819122822E+01  0.13316387442E+02  0.31886073394E+02  0.00000000000E+00 0. -1.
         11    1    3    3    0    0 -0.14006398071E+02 -0.19407555147E+02  0.75853730651E+01  0.25107175638E+02  0.51100000000E-03 0. -1.
        -11    1    3    3    0    0 -0.14591279367E+02  0.10743361799E+02 -0.66780931493E+01  0.19311193248E+02  0.51100000000E-03 0.  1.
        -12    1    3    3    0    0 -0.56479838359E-01  0.43822810654E+01 -0.14223667358E+02  0.14883557720E+02  0.00000000000E+00 0.  1.
</event>
<event>
 7    1  0.5832130E-012  0.5930195E+02  0.7816164E-02  0.1266605E+00
        -11   -1    0    0    0    0  0.00000000000E+00  0.00000000000E+00  0.45593999997E+02  0.45594000000E+02  0.51100000000E-03 0.  1.
         11   -1    0    0    0    0 -0.00000000000E+00 -0.00000000000E+00 -0.45593999997E+02  0.45594000000E+02  0.51100000000E-03 0. -1.
    9900012    2    1    2    0    0  0.21601018507E+02  0.13884234491E+02  0.18903548951E+02  0.59301950842E+02  0.50000012428E+02 0.  0.
         12    1    1    2    0    0 -0.21601018507E+02 -0.13884234491E+02 -0.18903548951E+02  0.31886049158E+02  0.00000000000E+00 0. -1.
         11    1    3    3    0    0  0.12224693668E+02 -0.51776541073E+01  0.40470157676E+01  0.13879105671E+02  0.51100000000E-03 0. -1.
        -11    1    3    3    0    0 -0.12769288441E+02 -0.61938582295E+00  0.77680275241E+01  0.14959298713E+02  0.51100000000E-03 0.  1.
         12    1    3    3    0    0  0.22145613280E+02  0.19681274421E+02  0.70885056596E+01  0.30463546459E+02  0.00000000000E+00 0. -1.
</event>
<event>
 7    1  0.5832130E-012  0.5930195E+02  0.7816164E-02  0.1266605E+00
        -11   -1    0    0    0    0  0.00000000000E+00  0.00000000000E+00  0.45593999997E+02  0.45594000000E+02  0.51100000000E-03 0. -1.
         11   -1    0    0    0    0 -0.00000000000E+00 -0.00000000000E+00 -0.45593999997E+02  0.45594000000E+02  0.51100000000E-03 0.  1.
    9900012    2    1    2    0    0 -0.62598227235E+01 -0.30478389697E+02  0.69715687829E+01  0.59301946774E+02  0.50000005008E+02 0.  0.
         12    1    1    2    0    0  0.62598227235E+01  0.30478389697E+02 -0.69715687829E+01  0.31886053226E+02  0.00000000000E+00 0. -1.
         11    1    3    3    0    0 -0.16889524353E+02 -0.18723012071E+02  0.27273823061E+01  0.25362291465E+02  0.51100000000E-03 0. -1.
        -11    1    3    3    0    0 -0.59612180495E+01  0.58147380480E+01 -0.27712485714E+01  0.87765094489E+01  0.51100000000E-03 0.  1.
        -12    1    3    3    0    0  0.16590919679E+02 -0.17570115675E+02  0.70154350482E+01  0.25163145859E+02  0.00000000000E+00 0.  1.
</event>
<event>
 7    1  0.5832130E-012  0.5930193E+02  0.7816164E-02  0.1266605E+00
        -11   -1    0    0    0    0  0.00000000000E+00  0.00000000000E+00  0.45593999997E+02  0.45594000000E+02  0.51100000000E-03 0. -1.
         11   -1    0    0    0    0 -0.00000000000E+00 -0.00000000000E+00 -0.45593999997E+02  0.45594000000E+02  0.51100000000E-03 0.  1.
    9900012    2    1    2    0    0 -0.27367097321E+02  0.58673330270E+01  0.15275390870E+02  0.59301934409E+02  0.49999982458E+02 0.  0.
         12    1    1    2    0    0  0.27367097321E+02 -0.58673330270E+01 -0.15275390870E+02  0.31886065591E+02  0.00000000000E+00 0. -1.
         11    1    3    3    0    0 -0.20598924279E+02  0.15266252827E+02 -0.41017832954E+01  0.25965338113E+02  0.51100000000E-03 0.  1.
        -11    1    3    3    0    0 -0.13167146899E+02 -0.50513967599E+01  0.19082942382E+01  0.14231372170E+02  0.51100000000E-03 0. -1.
         12    1    3    3    0    0  0.63989738570E+01 -0.43475230404E+01  0.17468879927E+02  0.19105224127E+02  0.00000000000E+00 0. -1.
</event>
<event>
 7    1  0.5832130E-012  0.5930184E+02  0.7816164E-02  0.1266605E+00
        -11   -1    0    0    0    0  0.00000000000E+00  0.00000000000E+00  0.45593999997E+02  0.45594000000E+02  0.51100000000E-03 0. -1.
         11   -1    0    0    0    0 -0.00000000000E+00 -0.00000000000E+00 -0.45593999997E+02  0.45594000000E+02  0.51100000000E-03 0.  1.
    9900012    2    1    2    0    0  0.21264523360E+02 -0.21572038259E+02 -0.99596358437E+01  0.59301841020E+02  0.49999812138E+02 0.  0.
         12    1    1    2    0    0 -0.21264523360E+02  0.21572038259E+02  0.99596358437E+01  0.31886158980E+02  0.00000000000E+00 0. -1.
         11    1    3    3    0    0 -0.66460141440E+01 -0.10645882459E+01  0.10505942649E+02  0.12477086332E+02  0.51100000000E-03 0. -1.
        -11    1    3    3    0    0  0.32168974072E+01 -0.13721859306E+02 -0.82414947365E-01  0.14094135100E+02  0.51100000000E-03 0.  1.
        -12    1    3    3    0    0  0.24693640097E+02 -0.67855907071E+01 -0.20383163546E+02  0.32730619588E+02  0.00000000000E+00 0.  1.
</event>
<event>
 7    1  0.5832130E-012  0.5930222E+02  0.7816164E-02  0.1266604E+00
        -11   -1    0    0    0    0  0.00000000000E+00  0.00000000000E+00  0.45593999997E+02  0.45594000000E+02  0.51100000000E-03 0.  1.
         11   -1    0    0    0    0 -0.00000000000E+00 -0.00000000000E+00 -0.45593999997E+02  0.45594000000E+02  0.51100000000E-03 0. -1.
    9900012    2    1    2    0    0  0.14995574286E+02  0.20357479252E+02  0.19427005394E+02  0.59302223418E+02  0.50000509538E+02 0.  0.
         12    1    1    2    0    0 -0.14995574286E+02 -0.20357479252E+02 -0.19427005394E+02  0.31885776582E+02  0.00000000000E+00 0. -1.
         11    1    3    3    0    0  0.22785029266E+02  0.46117008404E+01  0.12709624574E+02  0.26494525856E+02  0.51100000000E-03 0. -1.
        -11    1    3    3    0    0  0.12632664106E+00  0.54769082044E+01 -0.10149283606E+02  0.11533448742E+02  0.51100000000E-03 0.  1.
        -12    1    3    3    0    0 -0.79157816213E+01  0.10268870208E+02  0.16866664426E+02  0.21274248820E+02  0.00000000000E+00 0.  1.
</event>
<event>
 7    1  0.5832130E-012  0.5930196E+02  0.7816164E-02  0.1266605E+00
        -11   -1    0    0    0    0  0.00000000000E+00  0.00000000000E+00  0.45593999997E+02  0.45594000000E+02  0.51100000000E-03 0.  1.
         11   -1    0    0    0    0 -0.00000000000E+00 -0.00000000000E+00 -0.45593999997E+02  0.45594000000E+02  0.51100000000E-03 0. -1.
    9900012    2    1    2    0    0  0.10149450916E+02 -0.27859270547E+02  0.11728988304E+02  0.59301961112E+02  0.50000031157E+02 0.  0.
         12    1    1    2    0    0 -0.10149450916E+02  0.27859270547E+02 -0.11728988304E+02  0.31886038888E+02  0.00000000000E+00 0. -1.
         11    1    3    3    0    0 -0.71849368709E+01  0.10512050923E+02 -0.19171616155E+01  0.12876414150E+02  0.51100000000E-03 0. -1.
        -11    1    3    3    0    0  0.11487691818E+02 -0.12249178628E+02  0.96274919348E+01  0.19357118628E+02  0.51100000000E-03 0.  1.
        -12    1    3    3    0    0  0.58466959690E+01 -0.26122142843E+02  0.40186579848E+01  0.27068428334E+02  0.00000000000E+00 0.  1.
</event>
<event>
 7    1  0.5832130E-012  0.5930198E+02  0.7816164E-02  0.1266605E+00
        -11   -1    0    0    0    0  0.00000000000E+00  0.00000000000E+00  0.45593999997E+02  0.45594000000E+02  0.51100000000E-03 0.  1.
         11   -1    0    0    0    0 -0.00000000000E+00 -0.00000000000E+00 -0.45593999997E+02  0.45594000000E+02  0.51100000000E-03 0. -1.
    9900012    2    1    2    0    0  0.17245349456E+02 -0.24911492578E+02  0.99364884928E+01  0.59301978864E+02  0.50000063533E+02 0.  0.
         12    1    1    2    0    0 -0.17245349456E+02  0.24911492578E+02 -0.99364884928E+01  0.31886021136E+02  0.00000000000E+00 0. -1.
         11    1    3    3    0    0  0.21355815293E+01  0.16643564742E+01 -0.83274711757E+01  0.87565728105E+01  0.51100000000E-03 0. -1.
        -11    1    3    3    0    0 -0.11427235734E+02 -0.58551429742E+01  0.88204659361E+01  0.15577709567E+02  0.51100000000E-03 0.  1.
         12    1    3    3    0    0  0.26537003661E+02 -0.20720706078E+02  0.94434937324E+01  0.34967696486E+02  0.00000000000E+00 0. -1.
</event>
<event>
 7    1  0.5832130E-012  0.5930194E+02  0.7816164E-02  0.1266605E+00
        -11   -1    0    0    0    0  0.00000000000E+00  0.00000000000E+00  0.45593999997E+02  0.45594000000E+02  0.51100000000E-03 0. -1.
         11   -1    0    0    0    0 -0.00000000000E+00 -0.00000000000E+00 -0.45593999997E+02  0.45594000000E+02  0.51100000000E-03 0.  1.
    9900012    2    1    2    0    0 -0.27343038820E+02  0.11947020950E+02 -0.11240445478E+02  0.59301941980E+02  0.49999996266E+02 0.  0.
         12    1    1    2    0    0  0.27343038820E+02 -0.11947020950E+02  0.11240445478E+02  0.31886058020E+02  0.00000000000E+00 0. -1.
         11    1    3    3    0    0 -0.80076046966E+01  0.20506387592E+02 -0.91275058419E+00  0.22033310667E+02  0.51100000000E-03 0. -1.
        -11    1    3    3    0    0 -0.17355883451E+01  0.89159932800E+01 -0.84327220814E+01  0.12394273074E+02  0.51100000000E-03 0.  1.
        -12    1    3    3    0    0 -0.17599845778E+02 -0.17475359922E+02 -0.18949728119E+01  0.24874358239E+02  0.00000000000E+00 0.  1.
</event>
<event>
 7    1  0.5832130E-012  0.5930191E+02  0.7816164E-02  0.1266605E+00
        -11   -1    0    0    0    0  0.00000000000E+00  0.00000000000E+00  0.45593999997E+02  0.45594000000E+02  0.51100000000E-03 0.  1.
         11   -1    0    0    0    0 -0.00000000000E+00 -0.00000000000E+00 -0.45593999997E+02  0.45594000000E+02  0.51100000000E-03 0. -1.
    9900012    2    1    2    0    0 -0.28495736573E+02  0.14284612153E+02 -0.81575244798E+00  0.59301912137E+02  0.49999941838E+02 0.  0.
         12    1    1    2    0    0  0.28495736573E+02 -0.14284612153E+02  0.81575244798E+00  0.31886087863E+02  0.00000000000E+00 0. -1.
         11    1    3    3    0    0  0.82057892576E+01 -0.11233973906E+01 -0.65076613983E+01  0.10533121863E+02  0.51100000000E-03 0. -1.
        -11    1    3    3    0    0 -0.60983320123E+01  0.19549581255E+01  0.13052077702E+02  0.14538509113E+02  0.51100000000E-03 0.  1.
         12    1    3    3    0    0 -0.30603193818E+02  0.13453051418E+02 -0.73601687521E+01  0.34230281161E+02  0.00000000000E+00 0. -1.
</event>
<event>
 7    1  0.5832130E-012  0.5930198E+02  0.7816164E-02  0.1266605E+00
        -11   -1    0    0    0    0  0.00000000000E+00  0.00000000000E+00  0.45593999997E+02  0.45594000000E+02  0.51100000000E-03 0.  1.
         11   -1    0    0    0    0 -0.00000000000E+00 -0.00000000000E+00 -0.45593999997E+02  0.45594000000E+02  0.51100000000E-03 0. -1.
    9900012    2    1    2    0    0 -0.13303305033E+02  0.27045964583E+02  0.10404626211E+02  0.59301978429E+02  0.50000062740E+02 0.  0.
         12    1    1    2    0    0  0.13303305033E+02 -0.27045964583E+02 -0.10404626211E+02  0.31886021571E+02  0.00000000000E+00 0. -1.
         11    1    3    3    0    0  0.15566947824E+01  0.59778334183E+00  0.47180295569E-01  0.16681935771E+01  0.51100000000E-03 0. -1.
        -11    1    3    3    0    0  0.12500042001E+02  0.18447998539E+02 -0.80589101416E+01  0.23696534199E+02  0.51100000000E-03 0.  1.
         12    1    3    3    0    0 -0.27360041816E+02  0.80001827027E+01  0.18416356057E+02  0.33937250653E+02  0.00000000000E+00 0. -1.
</event>
<event>
 7    1  0.5832130E-012  0.5930200E+02  0.7816164E-02  0.1266605E+00
        -11   -1    0    0    0    0  0.00000000000E+00  0.00000000000E+00  0.45593999997E+02  0.45594000000E+02  0.51100000000E-03 0.  1.
         11   -1    0    0    0    0 -0.00000000000E+00 -0.00000000000E+00 -0.45593999997E+02  0.45594000000E+02  0.51100000000E-03 0. -1.
    9900012    2    1    2    0    0  0.11537315596E+02 -0.53359909171E+01  0.29242680221E+02  0.59302003124E+02  0.50000107778E+02 0.  0.
         12    1    1    2    0    0 -0.11537315596E+02  0.53359909171E+01 -0.29242680221E+02  0.31885996876E+02  0.00000000000E+00 0. -1.
         11    1    3    3    0    0 -0.62071429869E+01 -0.16134285343E+01  0.12013176929E+02  0.13617936550E+02  0.51100000000E-03 0. -1.
        -11    1    3    3    0    0  0.17899896320E+02 -0.16763623297E+02  0.20805791006E+02  0.32160632673E+02  0.51100000000E-03 0.  1.
         12    1    3    3    0    0 -0.15543773642E+00  0.13041060915E+02 -0.35762877135E+01  0.13523433901E+02  0.00000000000E+00 0. -1.
</event>
<event>
 7    1  0.5832130E-012  0.5930194E+02  0.7816164E-02  0.1266605E+00
        -11   -1    0    0    0    0  0.00000000000E+00  0.00000000000E+00  0.45593999997E+02  0.45594000000E+02  0.51100000000E-03 0. -1.
         11   -1    0    0    0    0 -0.00000000000E+00 -0.00000000000E+00 -0.45593999997E+02  0.45594000000E+02  0.51100000000E-03 0.  1.
    9900012    2    1    2    0    0  0.13000477138E+02 -0.23253470246E+02 -0.17520980292E+02  0.59301936670E+02  0.49999986582E+02 0.  0.
         12    1    1    2    0    0 -0.13000477138E+02  0.23253470246E+02  0.17520980292E+02  0.31886063330E+02  0.00000000000E+00 0. -1.
         11    1    3    3    0    0  0.48041022646E+01 -0.26339215009E+02  0.21166311005E+01  0.26857285293E+02  0.51100000000E-03 0. -1.
        -11    1    3    3    0    0 -0.88849470183E-03  0.46555113076E+01  0.47604584211E+01  0.66585096654E+01  0.51100000000E-03 0.  1.
        -12    1    3    3    0    0  0.81972633678E+01 -0.15697665442E+01 -0.24398069814E+02  0.25786141711E+02  0.00000000000E+00 0.  1.
</event>
<event>
 7    1  0.5832130E-012  0.5930193E+02  0.7816164E-02  0.1266605E+00
        -11   -1    0    0    0    0  0.00000000000E+00  0.00000000000E+00  0.45593999997E+02  0.45594000000E+02  0.51100000000E-03 0. -1.
         11   -1    0    0    0    0 -0.00000000000E+00 -0.00000000000E+00 -0.45593999997E+02  0.45594000000E+02  0.51100000000E-03 0.  1.
    9900012    2    1    2    0    0  0.81155005753E+01 -0.26326075665E+02  0.16056077215E+02  0.59301933685E+02  0.49999981138E+02 0.  0.
         12    1    1    2    0    0 -0.81155005753E+01  0.26326075665E+02 -0.16056077215E+02  0.31886066315E+02  0.00000000000E+00 0. -1.
         11    1    3    3    0    0 -0.13083567045E+02 -0.15969117946E+02 -0.14424602836E+01  0.20694761330E+02  0.51100000000E-03 0. -1.
        -11    1    3    3    0    0  0.71279264776E+00 -0.12778052176E+02  0.23456652913E+01  0.13011104361E+02  0.51100000000E-03 0.  1.
         12    1    3    3    0    0  0.20486274973E+02  0.24210944567E+01  0.15152872207E+02  0.25596067994E+02  0.00000000000E+00 0. -1.
</event>
<event>
 7    1  0.5832130E-012  0.5930192E+02  0.7816164E-02  0.1266605E+00
        -11   -1    0    0    0    0  0.00000000000E+00  0.00000000000E+00  0.45593999997E+02  0.45594000000E+02  0.51100000000E-03 0. -1.
         11   -1    0    0    0    0 -0.00000000000E+00 -0.00000000000E+00 -0.45593999997E+02  0.45594000000E+02  0.51100000000E-03 0.  1.
    9900012    2    1    2    0    0  0.59514465447E+01  0.10472256784E+02 -0.29523446686E+02  0.59301924946E+02  0.49999965200E+02 0.  0.
         12    1    1    2    0    0 -0.59514465447E+01 -0.10472256784E+02  0.29523446686E+02  0.31886075054E+02  0.00000000000E+00 0. -1.
         11    1    3    3    0    0 -0.12959301110E+01  0.10827372818E+02 -0.62968962710E+01  0.12592153902E+02  0.51100000000E-03 0. -1.
        -11    1    3    3    0    0  0.15638642564E+02 -0.44174492379E+01 -0.30716869763E+02  0.34750641538E+02  0.51100000000E-03 0.  1.
         12    1    3    3    0    0 -0.83912659086E+01  0.40623332043E+01  0.74903193480E+01  0.11959129506E+02  0.00000000000E+00 0. -1.
</event>
<event>
 7    1  0.5832130E-012  0.5930192E+02  0.7816164E-02  0.1266605E+00
        -11   -1    0    0    0    0  0.00000000000E+00  0.00000000000E+00  0.45593999997E+02  0.45594000000E+02  0.51100000000E-03 0. -1.
         11   -1    0    0    0    0 -0.00000000000E+00 -0.00000000000E+00 -0.45593999997E+02  0.45594000000E+02  0.51100000000E-03 0.  1.
    9900012    2    1    2    0    0  0.51488570486E+01  0.20607408203E+02 -0.23781206666E+02  0.59301924791E+02  0.49999964917E+02 0.  0.
         12    1    1    2    0    0 -0.51488570486E+01 -0.20607408203E+02  0.23781206666E+02  0.31886075209E+02  0.00000000000E+00 0. -1.
         11    1    3    3    0    0  0.19123056899E+02  0.13046196341E+01 -0.30028952127E+01  0.19401307107E+02  0.51100000000E-03 0. -1.
        -11    1    3    3    0    0 -0.81508222918E+01  0.88013586614E+01  0.37687315408E+01  0.12573907746E+02  0.51100000000E-03 0.  1.
        -12    1    3    3    0    0 -0.58233775583E+01  0.10501429907E+02 -0.24547042994E+02  0.27326709938E+02  0.00000000000E+00 0.  1.
</event>
<event>
 7    1  0.5832130E-012  0.5930197E+02  0.7816164E-02  0.1266605E+00
        -11   -1    0    0    0    0  0.00000000000E+00  0.00000000000E+00  0.45593999997E+02  0.45594000000E+02  0.51100000000E-03 0.  1.
         11   -1    0    0    0    0 -0.00000000000E+00 -0.00000000000E+00 -0.45593999997E+02  0.45594000000E+02  0.51100000000E-03 0. -1.
    9900012    2    1    2    0    0  0.25712314675E+02 -0.75367692948E+01  0.17285627006E+02  0.59301969856E+02  0.50000047104E+02 0.  0.
         12    1    1    2    0    0 -0.25712314675E+02  0.75367692948E+01 -0.17285627006E+02  0.31886030144E+02  0.00000000000E+00 0. -1.
         11    1    3    3    0    0  0.88426584290E+01  0.11140727748E+02  0.10053119250E+02  0.17417624113E+02  0.51100000000E-03 0. -1.
        -11    1    3    3    0    0  0.19168706902E+02 -0.13580605131E+02  0.18104487427E+02  0.29658803504E+02  0.51100000000E-03 0.  1.
        -12    1    3    3    0    0 -0.22990506553E+01 -0.50968919119E+01 -0.10871979670E+02  0.12225542239E+02  0.00000000000E+00 0.  1.
</event>
<event>
 7    1  0.5832130E-012  0.5930197E+02  0.7816164E-02  0.1266605E+00
        -11   -1    0    0    0    0  0.00000000000E+00  0.00000000000E+00  0.45593999997E+02  0.45594000000E+02  0.51100000000E-03 0.  1.
         11   -1    0    0    0    0 -0.00000000000E+00 -0.00000000000E+00 -0.45593999997E+02  0.45594000000E+02  0.51100000000E-03 0. -1.
    9900012    2    1    2    0    0  0.11185906092E+02 -0.64196807256E+01  0.29161311579E+02  0.59301970321E+02  0.50000047952E+02 0.  0.
         12    1    1    2    0    0 -0.11185906092E+02  0.64196807256E+01 -0.29161311579E+02  0.31886029679E+02  0.00000000000E+00 0. -1.
         11    1    3    3    0    0 -0.53438746858E+01  0.77406578513E+00 -0.21288873704E+01  0.58041654175E+01  0.51100000000E-03 0. -1.
        -11    1    3    3    0    0  0.70014877916E+00 -0.12265622465E+02 -0.52455092309E+01  0.13358557936E+02  0.51100000000E-03 0.  1.
        -12    1    3    3    0    0  0.15829631999E+02  0.50718759543E+01  0.36535708180E+02  0.40139246968E+02  0.00000000000E+00 0.  1.
</event>
<event>
 7    1  0.5832130E-012  0.5930194E+02  0.7816164E-02  0.1266605E+00
        -11   -1    0    0    0    0  0.00000000000E+00  0.00000000000E+00  0.45593999997E+02  0.45594000000E+02  0.51100000000E-03 0.  1.
         11   -1    0    0    0    0 -0.00000000000E+00 -0.00000000000E+00 -0.45593999997E+02  0.45594000000E+02  0.51100000000E-03 0. -1.
    9900012    2    1    2    0    0  0.35984201508E+01 -0.31555754304E+02  0.28295571305E+01  0.59301942689E+02  0.49999997559E+02 0.  0.
         12    1    1    2    0    0 -0.35984201508E+01  0.31555754304E+02 -0.28295571305E+01  0.31886057311E+02  0.00000000000E+00 0. -1.
         11    1    3    3    0    0 -0.52704316189E+01 -0.92108011287E+01  0.11927744684E+02  0.15965193403E+02  0.51100000000E-03 0. -1.
        -11    1    3    3    0    0  0.19616533286E+01 -0.10884397200E+02  0.13268197140E+02  0.17273194314E+02  0.51100000000E-03 0.  1.
         12    1    3    3    0    0  0.69071984410E+01 -0.11460555976E+02 -0.22366384693E+02  0.26063554973E+02  0.00000000000E+00 0. -1.
</event>
<event>
 7    1  0.5832130E-012  0.5930195E+02  0.7816164E-02  0.1266605E+00
        -11   -1    0    0    0    0  0.00000000000E+00  0.00000000000E+00  0.45593999997E+02  0.45594000000E+02  0.51100000000E-03 0. -1.
         11   -1    0    0    0    0 -0.00000000000E+00 -0.00000000000E+00 -0.45593999997E+02  0.45594000000E+02  0.51100000000E-03 0.  1.
    9900012    2    1    2    0    0  0.24270131609E+02 -0.67568701906E+01 -0.19545474460E+02  0.59301950465E+02  0.50000011740E+02 0.  0.
         12    1    1    2    0    0 -0.24270131609E+02  0.67568701906E+01  0.19545474460E+02  0.31886049535E+02  0.00000000000E+00 0. -1.
         11    1    3    3    0    0  0.27068876111E+01 -0.15481040499E+02 -0.11206207466E+02  0.19302045008E+02  0.51100000000E-03 0. -1.
        -11    1    3    3    0    0  0.24571950959E+02 -0.39879927247E+01 -0.10008933230E+02  0.26830274031E+02  0.51100000000E-03 0.  1.
         12    1    3    3    0    0 -0.30087069615E+01  0.12712163033E+02  0.16696662364E+01  0.13169631426E+02  0.00000000000E+00 0. -1.
</event>
<event>
 7    1  0.5832130E-012  0.5930195E+02  0.7816164E-02  0.1266605E+00
        -11   -1    0    0    0    0  0.00000000000E+00  0.00000000000E+00  0.45593999997E+02  0.45594000000E+02  0.51100000000E-03 0. -1.
         11   -1    0    0    0    0 -0.00000000000E+00 -0.00000000000E+00 -0.45593999997E+02  0.45594000000E+02  0.51100000000E-03 0.  1.
    9900012    2    1    2    0    0 -0.24605665103E+01  0.18644516474E+02 -0.25749710971E+02  0.59301952939E+02  0.50000016252E+02 0.  0.
         12    1    1    2    0    0  0.24605665103E+01 -0.18644516474E+02  0.25749710971E+02  0.31886047061E+02  0.00000000000E+00 0. -1.
         11    1    3    3    0    0 -0.12308742782E+02  0.41374573105E+01 -0.55554510022E+01  0.14123977413E+02  0.51100000000E-03 0. -1.
        -11    1    3    3    0    0 -0.67593770229E+01 -0.63819823379E+01 -0.15511518822E+02  0.18083862771E+02  0.51100000000E-03 0.  1.
        -12    1    3    3    0    0  0.16607553295E+02  0.20889041502E+02 -0.46827411467E+01  0.27094112755E+02  0.00000000000E+00 0.  1.
</event>
<event>
 7    1  0.5832130E-012  0.5930195E+02  0.7816164E-02  0.1266605E+00
        -11   -1    0    0    0    0  0.00000000000E+00  0.00000000000E+00  0.45593999997E+02  0.45594000000E+02  0.51100000000E-03 0. -1.
         11   -1    0    0    0    0 -0.00000000000E+00 -0.00000000000E+00 -0.45593999997E+02  0.45594000000E+02  0.51100000000E-03 0.  1.
    9900012    2    1    2    0    0  0.24687937130E+02  0.15486068147E+02  0.12938604506E+02  0.59301952378E+02  0.50000015229E+02 0.  0.
         12    1    1    2    0    0 -0.24687937130E+02 -0.15486068147E+02 -0.12938604506E+02  0.31886047622E+02  0.00000000000E+00 0. -1.
         11    1    3    3    0    0 -0.61319442187E+01  0.18185107080E+02  0.91358472304E+01  0.21254706874E+02  0.51100000000E-03 0. -1.
        -11    1    3    3    0    0 -0.11468549611E+01  0.28363805720E+01 -0.36470815162E+01  0.47604133117E+01  0.51100000000E-03 0.  1.
         12    1    3    3    0    0  0.31966736310E+02 -0.55354195053E+01  0.74498387916E+01  0.33286832193E+02  0.00000000000E+00 0. -1.
</event>
<event>
 7    1  0.5832130E-012  0.5930189E+02  0.7816164E-02  0.1266605E+00
        -11   -1    0    0    0    0  0.00000000000E+00  0.00000000000E+00  0.45593999997E+02  0.45594000000E+02  0.51100000000E-03 0.  1.
         11   -1    0    0    0    0 -0.00000000000E+00 -0.00000000000E+00 -0.45593999997E+02  0.45594000000E+02  0.51100000000E-03 0. -1.
    9900012    2    1    2    0    0 -0.12807863095E+02 -0.23431668805E+02  0.17425256323E+02  0.59301889890E+02  0.49999901266E+02 0.  0.
         12    1    1    2    0    0  0.12807863095E+02  0.23431668805E+02 -0.17425256323E+02  0.31886110110E+02  0.00000000000E+00 0. -1.
         11    1    3    3    0    0 -0.11586153595E+02 -0.38911199144E+01  0.75801875477E+01  0.14381898791E+02  0.51100000000E-03 0. -1.
        -11    1    3    3    0    0 -0.13315375401E+01 -0.21984433215E+02  0.22820857267E+02  0.31715608502E+02  0.51100000000E-03 0.  1.
         12    1    3    3    0    0  0.10982804074E+00  0.24438843241E+01 -0.12975788492E+02  0.13204382597E+02  0.00000000000E+00 0. -1.
</event>
<event>
 7    1  0.5832130E-012  0.5930194E+02  0.7816164E-02  0.1266605E+00
        -11   -1    0    0    0    0  0.00000000000E+00  0.00000000000E+00  0.45593999997E+02  0.45594000000E+02  0.51100000000E-03 0.  1.
         11   -1    0    0    0    0 -0.00000000000E+00 -0.00000000000E+00 -0.45593999997E+02  0.45594000000E+02  0.51100000000E-03 0. -1.
    9900012    2    1    2    0    0 -0.30327229417E+02  0.97481584344E+01 -0.13977422838E+01  0.59301935325E+02  0.49999984128E+02 0.  0.
         12    1    1    2    0    0  0.30327229417E+02 -0.97481584344E+01  0.13977422838E+01  0.31886064675E+02  0.00000000000E+00 0. -1.
         11    1    3    3    0    0 -0.99686954768E+01  0.10102150586E+02 -0.16818425986E+02  0.22006539684E+02  0.51100000000E-03 0. -1.
        -11    1    3    3    0    0 -0.90661422496E+01  0.13187888302E+02  0.99032725470E+01  0.18819939972E+02  0.51100000000E-03 0.  1.
         12    1    3    3    0    0 -0.11292391691E+02 -0.13541880453E+02  0.55174111553E+01  0.18475455668E+02  0.00000000000E+00 0. -1.
</event>
<event>
 7    1  0.5832130E-012  0.5930202E+02  0.7816164E-02  0.1266605E+00
        -11   -1    0    0    0    0  0.00000000000E+00  0.00000000000E+00  0.45593999997E+02  0.45594000000E+02  0.51100000000E-03 0.  1.
         11   -1    0    0    0    0 -0.00000000000E+00 -0.00000000000E+00 -0.45593999997E+02  0.45594000000E+02  0.51100000000E-03 0. -1.
    9900012    2    1    2    0    0  0.71311614644E+01  0.24513136877E+02  0.19104147128E+02  0.59302019054E+02  0.50000136831E+02 0.  0.
         12    1    1    2    0    0 -0.71311614644E+01 -0.24513136877E+02 -0.19104147128E+02  0.31885980946E+02  0.00000000000E+00 0. -1.
         11    1    3    3    0    0  0.11412380169E+02  0.70086679913E+01 -0.60058277996E+01  0.14677663845E+02  0.51100000000E-03 0. -1.
        -11    1    3    3    0    0  0.13798334574E+02  0.52862081897E+01  0.12926846343E+02  0.19632661324E+02  0.51100000000E-03 0.  1.
        -12    1    3    3    0    0 -0.18079553278E+02  0.12218260696E+02  0.12183128585E+02  0.24991693886E+02  0.00000000000E+00 0.  1.
</event>
<event>
 7    1  0.5832130E-012  0.5930196E+02  0.7816164E-02  0.1266605E+00
        -11   -1    0    0    0    0  0.00000000000E+00  0.00000000000E+00  0.45593999997E+02  0.45594000000E+02  0.51100000000E-03 0.  1.
         11   -1    0    0    0    0 -0.00000000000E+00 -0.00000000000E+00 -0.45593999997E+02  0.45594000000E+02  0.51100000000E-03 0. -1.
    9900012    2    1    2    0    0  0.15095124469E+02  0.28072986912E+02  0.87407256117E+00  0.59301962621E+02  0.50000033910E+02 0.  0.
         12    1    1    2    0    0 -0.15095124469E+02 -0.28072986912E+02 -0.87407256117E+00  0.31886037379E+02  0.00000000000E+00 0. -1.
         11    1    3    3    0    0  0.87096158721E+01  0.25730847740E+01  0.74396418139E+01  0.11739950787E+02  0.51100000000E-03 0. -1.
        -11    1    3    3    0    0  0.68764877862E-01  0.12986408025E+02  0.16239375142E+02  0.20793480403E+02  0.51100000000E-03 0.  1.
         12    1    3    3    0    0  0.63167437192E+01  0.12513494112E+02 -0.22804944395E+02  0.26768531431E+02  0.00000000000E+00 0. -1.
</event>
<event>
 7    1  0.5832130E-012  0.5930194E+02  0.7816164E-02  0.1266605E+00
        -11   -1    0    0    0    0  0.00000000000E+00  0.00000000000E+00  0.45593999997E+02  0.45594000000E+02  0.51100000000E-03 0.  1.
         11   -1    0    0    0    0 -0.00000000000E+00 -0.00000000000E+00 -0.45593999997E+02  0.45594000000E+02  0.51100000000E-03 0. -1.
    9900012    2    1    2    0    0  0.17645249948E+02 -0.14416989909E+02  0.22305078943E+02  0.59301937364E+02  0.49999987848E+02 0.  0.
         12    1    1    2    0    0 -0.17645249948E+02  0.14416989909E+02 -0.22305078943E+02  0.31886062636E+02  0.00000000000E+00 0. -1.
         11    1    3    3    0    0 -0.96157907047E+01 -0.20398382650E+02  0.11249329471E+02  0.25201286861E+02  0.51100000000E-03 0.  1.
        -11    1    3    3    0    0 -0.14403952670E+01  0.52285691028E+00  0.36531697542E+01  0.39615359885E+01  0.51100000000E-03 0. -1.
         12    1    3    3    0    0  0.28701435920E+02  0.54585358316E+01  0.74025797179E+01  0.30139114515E+02  0.00000000000E+00 0. -1.
</event>
<event>
 7    1  0.5832130E-012  0.5930192E+02  0.7816164E-02  0.1266605E+00
        -11   -1    0    0    0    0  0.00000000000E+00  0.00000000000E+00  0.45593999997E+02  0.45594000000E+02  0.51100000000E-03 0. -1.
         11   -1    0    0    0    0 -0.00000000000E+00 -0.00000000000E+00 -0.45593999997E+02  0.45594000000E+02  0.51100000000E-03 0.  1.
    9900012    2    1    2    0    0  0.23539813231E+02 -0.87647416163E+00 -0.21490249152E+02  0.59301924316E+02  0.49999964050E+02 0.  0.
         12    1    1    2    0    0 -0.23539813231E+02  0.87647416163E+00  0.21490249152E+02  0.31886075684E+02  0.00000000000E+00 0. -1.
         11    1    3    3    0    0  0.11091558775E+02 -0.61352992320E+01 -0.10555631015E+01  0.12719229004E+02  0.51100000000E-03 0. -1.
        -11    1    3    3    0    0  0.10948702191E+02  0.97962440030E+01 -0.31374925350E+02  0.34644284049E+02  0.51100000000E-03 0.  1.
         12    1    3    3    0    0  0.14995522655E+01 -0.45374189326E+01  0.10940239300E+02  0.11938411264E+02  0.00000000000E+00 0. -1.
</event>
<event>
 7    1  0.5832130E-012  0.5930193E+02  0.7816164E-02  0.1266605E+00
        -11   -1    0    0    0    0  0.00000000000E+00  0.00000000000E+00  0.45593999997E+02  0.45594000000E+02  0.51100000000E-03 0.  1.
         11   -1    0    0    0    0 -0.00000000000E+00 -0.00000000000E+00 -0.45593999997E+02  0.45594000000E+02  0.51100000000E-03 0. -1.
    9900012    2    1    2    0    0 -0.27664167933E+02  0.14171444808E+02  0.71123518830E+01  0.59301928045E+02  0.49999970852E+02 0.  0.
         12    1    1    2    0    0  0.27664167933E+02 -0.14171444808E+02 -0.71123518830E+01  0.31886071955E+02  0.00000000000E+00 0. -1.
         11    1    3    3    0    0  0.19065935330E+01  0.19271815296E+01 -0.28129145936E+01  0.39066118722E+01  0.51100000000E-03 0. -1.
        -11    1    3    3    0    0  0.95301712874E+01  0.57353011586E+01  0.11133902356E+02  0.15737904120E+02  0.51100000000E-03 0.  1.
         12    1    3    3    0    0 -0.39100932754E+02  0.65089621200E+01 -0.12086358798E+01  0.39657412053E+02  0.00000000000E+00 0. -1.
</event>
<event>
 7    1  0.5832130E-012  0.5930194E+02  0.7816164E-02  0.1266605E+00
        -11   -1    0    0    0    0  0.00000000000E+00  0.00000000000E+00  0.45593999997E+02  0.45594000000E+02  0.51100000000E-03 0.  1.
         11   -1    0    0    0    0 -0.00000000000E+00 -0.00000000000E+00 -0.45593999997E+02  0.45594000000E+02  0.51100000000E-03 0. -1.
    9900012    2    1    2    0    0 -0.80060210626E+01  0.83621625395E+00  0.30853289330E+02  0.59301935750E+02  0.49999984903E+02 0.  0.
         12    1    1    2    0    0  0.80060210626E+01 -0.83621625395E+00 -0.30853289330E+02  0.31886064250E+02  0.00000000000E+00 0. -1.
         11    1    3    3    0    0  0.56378766494E+01 -0.12332756410E+00 -0.95657127287E+00  0.57197807356E+01  0.51100000000E-03 0. -1.
        -11    1    3    3    0    0 -0.45534820658E+01 -0.14630294391E+02 -0.18058664280E+01  0.15428573061E+02  0.51100000000E-03 0.  1.
        -12    1    3    3    0    0 -0.90904156462E+01  0.15589838209E+02  0.33615727031E+02  0.38153581953E+02  0.00000000000E+00 0.  1.
</event>
<event>
 7    1  0.5832130E-012  0.5930194E+02  0.7816164E-02  0.1266605E+00
        -11   -1    0    0    0    0  0.00000000000E+00  0.00000000000E+00  0.45593999997E+02  0.45594000000E+02  0.51100000000E-03 0. -1.
         11   -1    0    0    0    0 -0.00000000000E+00 -0.00000000000E+00 -0.45593999997E+02  0.45594000000E+02  0.51100000000E-03 0.  1.
    9900012    2    1    2    0    0 -0.49778289690E+01 -0.30462785475E+02 -0.79975492544E+01  0.59301939186E+02  0.49999991170E+02 0.  0.
         12    1    1    2    0    0  0.49778289690E+01  0.30462785475E+02  0.79975492544E+01  0.31886060814E+02  0.00000000000E+00 0. -1.
         11    1    3    3    0    0 -0.16198363394E+02 -0.24436869298E+01  0.28623863503E+01  0.16629847815E+02  0.51100000000E-03 0. -1.
        -11    1    3    3    0    0  0.62141796628E+01 -0.12298177546E+02 -0.19633041434E+02  0.23985777370E+02  0.51100000000E-03 0.  1.
        -12    1    3    3    0    0  0.50063547622E+01 -0.15720920999E+02  0.87731058294E+01  0.18686314001E+02  0.00000000000E+00 0.  1.
</event>
<event>
 7    1  0.5832130E-012  0.5930193E+02  0.7816164E-02  0.1266605E+00
        -11   -1    0    0    0    0  0.00000000000E+00  0.00000000000E+00  0.45593999997E+02  0.45594000000E+02  0.51100000000E-03 0.  1.
         11   -1    0    0    0    0 -0.00000000000E+00 -0.00000000000E+00 -0.45593999997E+02  0.45594000000E+02  0.51100000000E-03 0. -1.
    9900012    2    1    2    0    0  0.19072075489E+02  0.13679131146E+02 -0.21583757108E+02  0.59301933085E+02  0.49999980044E+02 0.  0.
         12    1    1    2    0    0 -0.19072075489E+02 -0.13679131146E+02  0.21583757108E+02  0.31886066915E+02  0.00000000000E+00 0. -1.
         11    1    3    3    0    0  0.11147665747E+01  0.68311757394E+01 -0.96272774794E+01  0.11857155579E+02  0.51100000000E-03 0. -1.
        -11    1    3    3    0    0  0.27004740665E+02  0.13779913149E+02 -0.17246164720E+02  0.34879395388E+02  0.51100000000E-03 0.  1.
         12    1    3    3    0    0 -0.90474317510E+01 -0.69319577424E+01  0.52896850910E+01  0.12565382119E+02  0.00000000000E+00 0. -1.
</event>
<event>
 7    1  0.5832130E-012  0.5930195E+02  0.7816164E-02  0.1266605E+00
        -11   -1    0    0    0    0  0.00000000000E+00  0.00000000000E+00  0.45593999997E+02  0.45594000000E+02  0.51100000000E-03 0. -1.
         11   -1    0    0    0    0 -0.00000000000E+00 -0.00000000000E+00 -0.45593999997E+02  0.45594000000E+02  0.51100000000E-03 0.  1.
    9900012    2    1    2    0    0 -0.23569025914E+02  0.10036904765E+02 -0.18986352411E+02  0.59301952617E+02  0.50000015665E+02 0.  0.
         12    1    1    2    0    0  0.23569025914E+02 -0.10036904765E+02  0.18986352411E+02  0.31886047383E+02  0.00000000000E+00 0. -1.
         11    1    3    3    0    0  0.10238115326E+02 -0.10793714920E+02 -0.80181624695E+00  0.14898530020E+02  0.51100000000E-03 0. -1.
        -11    1    3    3    0    0 -0.72100563567E+00  0.24955856755E+01 -0.19097839769E+01  0.32241389688E+01  0.51100000000E-03 0.  1.
        -12    1    3    3    0    0 -0.33086135605E+02  0.18335034010E+02 -0.16274752187E+02  0.41179283628E+02  0.00000000000E+00 0.  1.
</event>
<event>
 7    1  0.5832130E-012  0.5930201E+02  0.7816164E-02  0.1266605E+00
        -11   -1    0    0    0    0  0.00000000000E+00  0.00000000000E+00  0.45593999997E+02  0.45594000000E+02  0.51100000000E-03 0.  1.
         11   -1    0    0    0    0 -0.00000000000E+00 -0.00000000000E+00 -0.45593999997E+02  0.45594000000E+02  0.51100000000E-03 0. -1.
    9900012    2    1    2    0    0  0.14821246652E+02 -0.96587733031E+01  0.26528388577E+02  0.59302005355E+02  0.50000111846E+02 0.  0.
         12    1    1    2    0    0 -0.14821246652E+02  0.96587733031E+01 -0.26528388577E+02  0.31885994645E+02  0.00000000000E+00 0. -1.
         11    1    3    3    0    0  0.13943391701E+02 -0.77112294251E+01  0.28660815515E+01  0.16189368582E+02  0.51100000000E-03 0. -1.
        -11    1    3    3    0    0 -0.10350345448E+01 -0.11525226622E+02 -0.51677655753E+01  0.12673119051E+02  0.51100000000E-03 0.  1.
        -12    1    3    3    0    0  0.19128894965E+01  0.95776827436E+01  0.28830072600E+02  0.30439517721E+02  0.00000000000E+00 0.  1.
</event>
<event>
 7    1  0.5832130E-012  0.5930194E+02  0.7816164E-02  0.1266605E+00
        -11   -1    0    0    0    0  0.00000000000E+00  0.00000000000E+00  0.45593999997E+02  0.45594000000E+02  0.51100000000E-03 0.  1.
         11   -1    0    0    0    0 -0.00000000000E+00 -0.00000000000E+00 -0.45593999997E+02  0.45594000000E+02  0.51100000000E-03 0. -1.
    9900012    2    1    2    0    0 -0.83243234452E+01  0.12914854013E+02  0.27939811999E+02  0.59301938632E+02  0.49999990160E+02 0.  0.
         12    1    1    2    0    0  0.83243234452E+01 -0.12914854013E+02 -0.27939811999E+02  0.31886061368E+02  0.00000000000E+00 0. -1.
         11    1    3    3    0    0 -0.89387273093E+01  0.16288673743E+02  0.15680736770E+02  0.24312697179E+02  0.51100000000E-03 0. -1.
        -11    1    3    3    0    0  0.13698320945E+02  0.76108837999E+01  0.53023412889E+01  0.16543408728E+02  0.51100000000E-03 0.  1.
         12    1    3    3    0    0 -0.13083917081E+02 -0.10984703529E+02  0.69567339398E+01  0.18445832725E+02  0.00000000000E+00 0. -1.
</event>
<event>
 7    1  0.5832130E-012  0.5930195E+02  0.7816164E-02  0.1266605E+00
        -11   -1    0    0    0    0  0.00000000000E+00  0.00000000000E+00  0.45593999997E+02  0.45594000000E+02  0.51100000000E-03 0. -1.
         11   -1    0    0    0    0 -0.00000000000E+00 -0.00000000000E+00 -0.45593999997E+02  0.45594000000E+02  0.51100000000E-03 0.  1.
    9900012    2    1    2    0    0 -0.28865401873E+02  0.96727956463E+01  0.94839780603E+01  0.59301949120E+02  0.50000009286E+02 0.  0.
         12    1    1    2    0    0  0.28865401873E+02 -0.96727956463E+01 -0.94839780603E+01  0.31886050880E+02  0.00000000000E+00 0. -1.
         11    1    3    3    0    0 -0.19366559771E+02  0.10498706385E+02  0.15688300556E+02  0.27044578897E+02  0.51100000000E-03 0. -1.
        -11    1    3    3    0    0 -0.15147032548E+02 -0.47560164478E+01  0.70130582136E+01  0.17356130711E+02  0.51100000000E-03 0.  1.
         12    1    3    3    0    0  0.56481904461E+01  0.39301057091E+01 -0.13217380709E+02  0.14901239512E+02  0.00000000000E+00 0. -1.
</event>
<event>
 7    1  0.5832130E-012  0.5930196E+02  0.7816164E-02  0.1266605E+00
        -11   -1    0    0    0    0  0.00000000000E+00  0.00000000000E+00  0.45593999997E+02  0.45594000000E+02  0.51100000000E-03 0.  1.
         11   -1    0    0    0    0 -0.00000000000E+00 -0.00000000000E+00 -0.45593999997E+02  0.45594000000E+02  0.51100000000E-03 0. -1.
    9900012    2    1    2    0    0 -0.22692832521E+02 -0.45400863253E+01  0.21934956286E+02  0.59301963261E+02  0.50000035076E+02 0.  0.
         12    1    1    2    0    0  0.22692832521E+02  0.45400863253E+01 -0.21934956286E+02  0.31886036739E+02  0.00000000000E+00 0. -1.
         11    1    3    3    0    0 -0.16566978144E+01 -0.11213926240E+02 -0.33561539603E+01  0.11822037008E+02  0.51100000000E-03 0. -1.
        -11    1    3    3    0    0 -0.25469829243E+02 -0.64975085253E+01  0.16461367007E+02  0.31014616275E+02  0.51100000000E-03 0.  1.
         12    1    3    3    0    0  0.44336945362E+01  0.13171348440E+02  0.88297432394E+01  0.16465309977E+02  0.00000000000E+00 0. -1.
</event>
<event>
 7    1  0.5832130E-012  0.5930195E+02  0.7816164E-02  0.1266605E+00
        -11   -1    0    0    0    0  0.00000000000E+00  0.00000000000E+00  0.45593999997E+02  0.45594000000E+02  0.51100000000E-03 0.  1.
         11   -1    0    0    0    0 -0.00000000000E+00 -0.00000000000E+00 -0.45593999997E+02  0.45594000000E+02  0.51100000000E-03 0. -1.
    9900012    2    1    2    0    0 -0.18293130107E+02  0.25284628983E+02 -0.65398195663E+01  0.59301948004E+02  0.50000007252E+02 0.  0.
         12    1    1    2    0    0  0.18293130107E+02 -0.25284628983E+02  0.65398195663E+01  0.31886051996E+02  0.00000000000E+00 0. -1.
         11    1    3    3    0    0 -0.26127756445E+02  0.78476733097E+01  0.53874540641E+01  0.27807738038E+02  0.51100000000E-03 0. -1.
        -11    1    3    3    0    0  0.23796648668E+01  0.74244759521E+01  0.62801375292E+01  0.10011282420E+02  0.51100000000E-03 0.  1.
         12    1    3    3    0    0  0.54549614718E+01  0.10012479722E+02 -0.18207411160E+02  0.21482927547E+02  0.00000000000E+00 0. -1.
</event>
<event>
 7    1  0.5832130E-012  0.5930195E+02  0.7816164E-02  0.1266605E+00
        -11   -1    0    0    0    0  0.00000000000E+00  0.00000000000E+00  0.45593999997E+02  0.45594000000E+02  0.51100000000E-03 0. -1.
         11   -1    0    0    0    0 -0.00000000000E+00 -0.00000000000E+00 -0.45593999997E+02  0.45594000000E+02  0.51100000000E-03 0.  1.
    9900012    2    1    2    0    0 -0.14271010192E+01 -0.18596612493E+02 -0.25862121382E+02  0.59301953900E+02  0.50000018005E+02 0.  0.
         12    1    1    2    0    0  0.14271010192E+01  0.18596612493E+02  0.25862121382E+02  0.31886046100E+02  0.00000000000E+00 0. -1.
         11    1    3    3    0    0 -0.11372881333E+02 -0.41244494686E+01 -0.34272057830E+01  0.12573752542E+02  0.51100000000E-03 0. -1.
        -11    1    3    3    0    0 -0.85693906373E+01 -0.11124593028E+02 -0.24043856330E+02  0.27844174497E+02  0.51100000000E-03 0.  1.
         12    1    3    3    0    0  0.18515170951E+02 -0.33475699961E+01  0.16089407314E+01  0.18884026862E+02  0.00000000000E+00 0. -1.
</event>
<event>
 7    1  0.5832130E-012  0.5930191E+02  0.7816164E-02  0.1266605E+00
        -11   -1    0    0    0    0  0.00000000000E+00  0.00000000000E+00  0.45593999997E+02  0.45594000000E+02  0.51100000000E-03 0. -1.
         11   -1    0    0    0    0 -0.00000000000E+00 -0.00000000000E+00 -0.45593999997E+02  0.45594000000E+02  0.51100000000E-03 0.  1.
    9900012    2    1    2    0    0 -0.15747806304E+02 -0.26363827155E+02 -0.85835913185E+01  0.59301908587E+02  0.49999935365E+02 0.  0.
         12    1    1    2    0    0  0.15747806304E+02  0.26363827155E+02  0.85835913185E+01  0.31886091413E+02  0.00000000000E+00 0. -1.
         11    1    3    3    0    0 -0.22293382045E+01 -0.16811113752E+02 -0.32690945513E+01  0.17270508790E+02  0.51100000000E-03 0.  1.
        -11    1    3    3    0    0 -0.18162737491E+02  0.10576023531E+02 -0.33135478092E+01  0.21277145162E+02  0.51100000000E-03 0. -1.
         12    1    3    3    0    0  0.46442693915E+01 -0.20128736934E+02 -0.20009489581E+01  0.20754254636E+02  0.00000000000E+00 0. -1.
</event>
<event>
 7    1  0.5832130E-012  0.5930193E+02  0.7816164E-02  0.1266605E+00
        -11   -1    0    0    0    0  0.00000000000E+00  0.00000000000E+00  0.45593999997E+02  0.45594000000E+02  0.51100000000E-03 0. -1.
         11   -1    0    0    0    0 -0.00000000000E+00 -0.00000000000E+00 -0.45593999997E+02  0.45594000000E+02  0.51100000000E-03 0.  1.
    9900012    2    1    2    0    0 -0.16905197323E+02 -0.55568872238E+01 -0.26458580049E+02  0.59301934856E+02  0.49999983274E+02 0.  0.
         12    1    1    2    0    0  0.16905197323E+02  0.55568872238E+01  0.26458580049E+02  0.31886065144E+02  0.00000000000E+00 0. -1.
         11    1    3    3    0    0 -0.10314313345E+02 -0.59877448541E+01  0.40843842512E+00  0.11933355371E+02  0.51100000000E-03 0. -1.
        -11    1    3    3    0    0  0.11115558768E+02 -0.12767208849E+02 -0.11686306802E+02  0.20570051907E+02  0.51100000000E-03 0.  1.
        -12    1    3    3    0    0 -0.17706442747E+02  0.13198066479E+02 -0.15180711671E+02  0.26798527578E+02  0.00000000000E+00 0.  1.
</event>
<event>
 7    1  0.5832130E-012  0.5930193E+02  0.7816164E-02  0.1266605E+00
        -11   -1    0    0    0    0  0.00000000000E+00  0.00000000000E+00  0.45593999997E+02  0.45594000000E+02  0.51100000000E-03 0.  1.
         11   -1    0    0    0    0 -0.00000000000E+00 -0.00000000000E+00 -0.45593999997E+02  0.45594000000E+02  0.51100000000E-03 0. -1.
    9900012    2    1    2    0    0 -0.29605916225E+02 -0.10126146794E+02  0.61377725991E+01  0.59301931304E+02  0.49999976795E+02 0.  0.
         12    1    1    2    0    0  0.29605916225E+02  0.10126146794E+02 -0.61377725991E+01  0.31886068696E+02  0.00000000000E+00 0. -1.
         11    1    3    3    0    0 -0.32562115563E+01 -0.73993132848E+01  0.23626566963E+01  0.84222857772E+01  0.51100000000E-03 0. -1.
        -11    1    3    3    0    0 -0.30858380526E+02  0.64170273457E+01  0.15682108445E+02  0.35204352205E+02  0.51100000000E-03 0.  1.
         12    1    3    3    0    0  0.45086758573E+01 -0.91438608546E+01 -0.11906992542E+02  0.15675293321E+02  0.00000000000E+00 0. -1.
</event>
<event>
 7    1  0.5832130E-012  0.5930195E+02  0.7816164E-02  0.1266605E+00
        -11   -1    0    0    0    0  0.00000000000E+00  0.00000000000E+00  0.45593999997E+02  0.45594000000E+02  0.51100000000E-03 0.  1.
         11   -1    0    0    0    0 -0.00000000000E+00 -0.00000000000E+00 -0.45593999997E+02  0.45594000000E+02  0.51100000000E-03 0. -1.
    9900012    2    1    2    0    0  0.29100503450E+02 -0.77203579375E+01  0.10501283735E+02  0.59301949949E+02  0.50000010800E+02 0.  0.
         12    1    1    2    0    0 -0.29100503450E+02  0.77203579375E+01 -0.10501283735E+02  0.31886050051E+02  0.00000000000E+00 0. -1.
         11    1    3    3    0    0 -0.10340164716E+02  0.27954070975E+00  0.83437524574E+01  0.13289670978E+02  0.51100000000E-03 0. -1.
        -11    1    3    3    0    0  0.47374537943E+01 -0.87892523358E+01  0.50324612440E+01  0.11181238371E+02  0.51100000000E-03 0.  1.
         12    1    3    3    0    0  0.34703214372E+02  0.78935368854E+00 -0.28749299664E+01  0.34831040601E+02  0.00000000000E+00 0. -1.
</event>
<event>
 7    1  0.5832130E-012  0.5930196E+02  0.7816164E-02  0.1266605E+00
        -11   -1    0    0    0    0  0.00000000000E+00  0.00000000000E+00  0.45593999997E+02  0.45594000000E+02  0.51100000000E-03 0.  1.
         11   -1    0    0    0    0 -0.00000000000E+00 -0.00000000000E+00 -0.45593999997E+02  0.45594000000E+02  0.51100000000E-03 0. -1.
    9900012    2    1    2    0    0 -0.16680365407E+02 -0.26860199768E+02 -0.41249133742E+01  0.59301955529E+02  0.50000020976E+02 0.  0.
         12    1    1    2    0    0  0.16680365407E+02  0.26860199768E+02  0.41249133742E+01  0.31886044471E+02  0.00000000000E+00 0. -1.
         11    1    3    3    0    0 -0.19089807204E+02 -0.26261826375E+01 -0.64507348118E+01  0.20320668154E+02  0.51100000000E-03 0. -1.
        -11    1    3    3    0    0 -0.11600840655E+02 -0.43473699596E+01  0.69713293990E+01  0.14215433983E+02  0.51100000000E-03 0.  1.
        -12    1    3    3    0    0  0.14010282452E+02 -0.19886647170E+02 -0.46455079613E+01  0.24765853393E+02  0.00000000000E+00 0.  1.
</event>
<event>
 7    1  0.5832130E-012  0.5930196E+02  0.7816164E-02  0.1266605E+00
        -11   -1    0    0    0    0  0.00000000000E+00  0.00000000000E+00  0.45593999997E+02  0.45594000000E+02  0.51100000000E-03 0. -1.
         11   -1    0    0    0    0 -0.00000000000E+00 -0.00000000000E+00 -0.45593999997E+02  0.45594000000E+02  0.51100000000E-03 0.  1.
    9900012    2    1    2    0    0  0.21374439693E+02 -0.23458222091E+02 -0.30927316016E+01  0.59301955332E+02  0.50000020616E+02 0.  0.
         12    1    1    2    0    0 -0.21374439693E+02  0.23458222091E+02  0.30927316016E+01  0.31886044668E+02  0.00000000000E+00 0. -1.
         11    1    3    3    0    0  0.28434630783E+01  0.10174621472E+01  0.93172136955E+01  0.97944363190E+01  0.51100000000E-03 0. -1.
        -11    1    3    3    0    0 -0.80919247261E+01  0.29383719177E+01 -0.66145036209E+01  0.10856561781E+02  0.51100000000E-03 0.  1.
        -12    1    3    3    0    0  0.26622901340E+02 -0.27414056156E+02 -0.57954416762E+01  0.38650957231E+02  0.00000000000E+00 0.  1.
</event>
<event>
 7    1  0.5832130E-012  0.5930191E+02  0.7816164E-02  0.1266605E+00
        -11   -1    0    0    0    0  0.00000000000E+00  0.00000000000E+00  0.45593999997E+02  0.45594000000E+02  0.51100000000E-03 0. -1.
         11   -1    0    0    0    0 -0.00000000000E+00 -0.00000000000E+00 -0.45593999997E+02  0.45594000000E+02  0.51100000000E-03 0.  1.
    9900012    2    1    2    0    0  0.55812550388E+01  0.22359934093E+02 -0.22036461592E+02  0.59301910558E+02  0.49999938959E+02 0.  0.
         12    1    1    2    0    0 -0.55812550388E+01 -0.22359934093E+02  0.22036461592E+02  0.31886089442E+02  0.00000000000E+00 0. -1.
         11    1    3    3    0    0  0.14253142576E+02  0.13662370211E+02 -0.28382657188E+02  0.34574378698E+02  0.51100000000E-03 0.  1.
        -11    1    3    3    0    0 -0.43257130528E+01  0.96377242328E+01 -0.56171369644E+01  0.11964520456E+02  0.51100000000E-03 0. -1.
         12    1    3    3    0    0 -0.43461744846E+01 -0.94016035067E+00  0.11963332560E+02  0.12763011404E+02  0.00000000000E+00 0. -1.
</event>
<event>
 7    1  0.5832130E-012  0.5930194E+02  0.7816164E-02  0.1266605E+00
        -11   -1    0    0    0    0  0.00000000000E+00  0.00000000000E+00  0.45593999997E+02  0.45594000000E+02  0.51100000000E-03 0. -1.
         11   -1    0    0    0    0 -0.00000000000E+00 -0.00000000000E+00 -0.45593999997E+02  0.45594000000E+02  0.51100000000E-03 0.  1.
    9900012    2    1    2    0    0  0.26415964556E+02 -0.84212306092E+01 -0.15748035594E+02  0.59301938257E+02  0.49999989475E+02 0.  0.
         12    1    1    2    0    0 -0.26415964556E+02  0.84212306092E+01  0.15748035594E+02  0.31886061743E+02  0.00000000000E+00 0. -1.
         11    1    3    3    0    0  0.20247200864E+02  0.22606897102E+01 -0.53428372013E+01  0.21061950774E+02  0.51100000000E-03 0. -1.
        -11    1    3    3    0    0  0.19217096260E+02  0.93326149941E+00 -0.67740205351E+01  0.20397429254E+02  0.51100000000E-03 0.  1.
         12    1    3    3    0    0 -0.13048332568E+02 -0.11615181819E+02 -0.36311778579E+01  0.17842558228E+02  0.00000000000E+00 0. -1.
</event>
<event>
 7    1  0.5832130E-012  0.5930196E+02  0.7816164E-02  0.1266605E+00
        -11   -1    0    0    0    0  0.00000000000E+00  0.00000000000E+00  0.45593999997E+02  0.45594000000E+02  0.51100000000E-03 0. -1.
         11   -1    0    0    0    0 -0.00000000000E+00 -0.00000000000E+00 -0.45593999997E+02  0.45594000000E+02  0.51100000000E-03 0.  1.
    9900012    2    1    2    0    0  0.28903144232E+02  0.13052244273E+02 -0.33115689062E+01  0.59301963626E+02  0.50000035742E+02 0.  0.
         12    1    1    2    0    0 -0.28903144232E+02 -0.13052244273E+02  0.33115689062E+01  0.31886036374E+02  0.00000000000E+00 0. -1.
         11    1    3    3    0    0  0.21271618571E+02  0.93116468253E+01 -0.16277303893E+02  0.28357347294E+02  0.51100000000E-03 0. -1.
        -11    1    3    3    0    0  0.77904840578E+01  0.16363028662E+01 -0.71610733668E+01  0.10707478739E+02  0.51100000000E-03 0.  1.
         12    1    3    3    0    0 -0.15895839721E+00  0.21042945812E+01  0.20126808354E+02  0.20237137593E+02  0.00000000000E+00 0. -1.
</event>
<event>
 7    1  0.5832130E-012  0.5930187E+02  0.7816164E-02  0.1266605E+00
        -11   -1    0    0    0    0  0.00000000000E+00  0.00000000000E+00  0.45593999997E+02  0.45594000000E+02  0.51100000000E-03 0.  1.
         11   -1    0    0    0    0 -0.00000000000E+00 -0.00000000000E+00 -0.45593999997E+02  0.45594000000E+02  0.51100000000E-03 0. -1.
    9900012    2    1    2    0    0  0.26469244708E+02  0.91610885901E+01  0.15237420166E+02  0.59301867703E+02  0.49999860801E+02 0.  0.
         12    1    1    2    0    0 -0.26469244708E+02 -0.91610885901E+01 -0.15237420166E+02  0.31886132297E+02  0.00000000000E+00 0. -1.
         11    1    3    3    0    0  0.14998267561E+02  0.21929928132E+02  0.52796491467E+01  0.27087718122E+02  0.51100000000E-03 0. -1.
        -11    1    3    3    0    0  0.11630139499E+02  0.30390530974E+01 -0.22640012599E+01  0.12231994542E+02  0.51100000000E-03 0.  1.
        -12    1    3    3    0    0 -0.15916235249E+00 -0.15807892639E+02  0.12221772279E+02  0.19982155038E+02  0.00000000000E+00 0.  1.
</event>
<event>
 7    1  0.5832130E-012  0.5930192E+02  0.7816164E-02  0.1266605E+00
        -11   -1    0    0    0    0  0.00000000000E+00  0.00000000000E+00  0.45593999997E+02  0.45594000000E+02  0.51100000000E-03 0. -1.
         11   -1    0    0    0    0 -0.00000000000E+00 -0.00000000000E+00 -0.45593999997E+02  0.45594000000E+02  0.51100000000E-03 0.  1.
    9900012    2    1    2    0    0 -0.24280896831E+02 -0.18832870869E+02 -0.85136887503E+01  0.59301923537E+02  0.49999962630E+02 0.  0.
         12    1    1    2    0    0  0.24280896831E+02  0.18832870869E+02  0.85136887503E+01  0.31886076463E+02  0.00000000000E+00 0. -1.
         11    1    3    3    0    0  0.76214667654E+01  0.35164937307E+01 -0.45997248708E+01  0.95713088428E+01  0.51100000000E-03 0. -1.
        -11    1    3    3    0    0 -0.26216142271E+01  0.56352141895E+01  0.53281974428E+01  0.81864637279E+01  0.51100000000E-03 0.  1.
        -12    1    3    3    0    0 -0.29280749369E+02 -0.27984578789E+02 -0.92421613223E+01  0.41544150966E+02  0.00000000000E+00 0.  1.
</event>
<event>
 7    1  0.5832130E-012  0.5930195E+02  0.7816164E-02  0.1266605E+00
        -11   -1    0    0    0    0  0.00000000000E+00  0.00000000000E+00  0.45593999997E+02  0.45594000000E+02  0.51100000000E-03 0.  1.
         11   -1    0    0    0    0 -0.00000000000E+00 -0.00000000000E+00 -0.45593999997E+02  0.45594000000E+02  0.51100000000E-03 0. -1.
    9900012    2    1    2    0    0 -0.19634667446E+02 -0.67002235073E+01  0.24213784093E+02  0.59301945040E+02  0.50000001847E+02 0.  0.
         12    1    1    2    0    0  0.19634667446E+02  0.67002235073E+01 -0.24213784093E+02  0.31886054960E+02  0.00000000000E+00 0. -1.
         11    1    3    3    0    0  0.52371328172E+01  0.22498843845E+00 -0.25727763788E+00  0.52482732385E+01  0.51100000000E-03 0. -1.
        -11    1    3    3    0    0 -0.18611229696E+02  0.15926377403E+02  0.12932611730E+02  0.27699816144E+02  0.51100000000E-03 0.  1.
         12    1    3    3    0    0 -0.62605705670E+01 -0.22851589349E+02  0.11538450002E+02  0.26353855658E+02  0.00000000000E+00 0. -1.
</event>
<event>
 7    1  0.5832130E-012  0.5930195E+02  0.7816164E-02  0.1266605E+00
        -11   -1    0    0    0    0  0.00000000000E+00  0.00000000000E+00  0.45593999997E+02  0.45594000000E+02  0.51100000000E-03 0. -1.
         11   -1    0    0    0    0 -0.00000000000E+00 -0.00000000000E+00 -0.45593999997E+02  0.45594000000E+02  0.51100000000E-03 0.  1.
    9900012    2    1    2    0    0 -0.27002710141E+02  0.49680320647E+01 -0.16213966299E+02  0.59301946611E+02  0.50000004712E+02 0.  0.
         12    1    1    2    0    0  0.27002710141E+02 -0.49680320647E+01  0.16213966299E+02  0.31886053389E+02  0.00000000000E+00 0. -1.
         11    1    3    3    0    0  0.31524476610E+01  0.82256332955E+01  0.40674330406E+01  0.97027306037E+01  0.51100000000E-03 0. -1.
        -11    1    3    3    0    0 -0.89368665247E+01  0.12235537294E+02  0.18278211372E+01  0.15261614807E+02  0.51100000000E-03 0.  1.
         12    1    3    3    0    0 -0.21218291277E+02 -0.15493138525E+02 -0.22109220477E+02  0.34337601200E+02  0.00000000000E+00 0. -1.
</event>
<event>
 7    1  0.5832130E-012  0.5930194E+02  0.7816164E-02  0.1266605E+00
        -11   -1    0    0    0    0  0.00000000000E+00  0.00000000000E+00  0.45593999997E+02  0.45594000000E+02  0.51100000000E-03 0.  1.
         11   -1    0    0    0    0 -0.00000000000E+00 -0.00000000000E+00 -0.45593999997E+02  0.45594000000E+02  0.51100000000E-03 0. -1.
    9900012    2    1    2    0    0 -0.21217052410E+02 -0.23800919653E+02  0.27164209985E+00  0.59301939115E+02  0.49999991041E+02 0.  0.
         12    1    1    2    0    0  0.21217052410E+02  0.23800919653E+02 -0.27164209985E+00  0.31886060885E+02  0.00000000000E+00 0. -1.
         11    1    3    3    0    0  0.99771715475E+01  0.10848239133E+01  0.40100991119E+01  0.10807483063E+02  0.51100000000E-03 0. -1.
        -11    1    3    3    0    0 -0.58930959708E+01  0.47903995729E+01  0.42269581734E+01  0.86915869581E+01  0.51100000000E-03 0.  1.
        -12    1    3    3    0    0 -0.25301127987E+02 -0.29676143140E+02 -0.79654151854E+01  0.39802869094E+02  0.00000000000E+00 0.  1.
</event>
<event>
 7    1  0.5832130E-012  0.5930191E+02  0.7816164E-02  0.1266605E+00
        -11   -1    0    0    0    0  0.00000000000E+00  0.00000000000E+00  0.45593999997E+02  0.45594000000E+02  0.51100000000E-03 0.  1.
         11   -1    0    0    0    0 -0.00000000000E+00 -0.00000000000E+00 -0.45593999997E+02  0.45594000000E+02  0.51100000000E-03 0. -1.
    9900012    2    1    2    0    0  0.12677780257E+02  0.29120875808E+02  0.28233046417E+01  0.59301912608E+02  0.49999942698E+02 0.  0.
         12    1    1    2    0    0 -0.12677780257E+02 -0.29120875808E+02 -0.28233046417E+01  0.31886087392E+02  0.00000000000E+00 0. -1.
         11    1    3    3    0    0  0.90753556052E+01  0.16863486204E+02 -0.13183235195E+02  0.23249450247E+02  0.51100000000E-03 0. -1.
        -11    1    3    3    0    0 -0.10108414546E+02 -0.31787279272E+01  0.12390708107E+01  0.10668629369E+02  0.51100000000E-03 0.  1.
        -12    1    3    3    0    0  0.13710839198E+02  0.15436117531E+02  0.14767469026E+02  0.25383832992E+02  0.00000000000E+00 0.  1.
</event>
<event>
 7    1  0.5832130E-012  0.5930217E+02  0.7816164E-02  0.1266604E+00
        -11   -1    0    0    0    0  0.00000000000E+00  0.00000000000E+00  0.45593999997E+02  0.45594000000E+02  0.51100000000E-03 0.  1.
         11   -1    0    0    0    0 -0.00000000000E+00 -0.00000000000E+00 -0.45593999997E+02  0.45594000000E+02  0.51100000000E-03 0. -1.
    9900012    2    1    2    0    0 -0.96731017616E+01  0.13893856479E+02  0.27020328694E+02  0.59302167593E+02  0.50000407727E+02 0.  0.
         12    1    1    2    0    0  0.96731017616E+01 -0.13893856479E+02 -0.27020328694E+02  0.31885832407E+02  0.00000000000E+00 0. -1.
         11    1    3    3    0    0  0.64946618910E+01  0.31701042269E+01  0.27193838405E+02  0.28137786718E+02  0.51100000000E-03 0. -1.
        -11    1    3    3    0    0  0.34616310176E+01  0.10732554210E+02  0.18621702563E+01  0.11429710735E+02  0.51100000000E-03 0.  1.
        -12    1    3    3    0    0 -0.19629394670E+02 -0.88019575160E-02 -0.20356799676E+01  0.19734670140E+02  0.00000000000E+00 0.  1.
</event>
<event>
 7    1  0.5832130E-012  0.5930209E+02  0.7816164E-02  0.1266604E+00
        -11   -1    0    0    0    0  0.00000000000E+00  0.00000000000E+00  0.45593999997E+02  0.45594000000E+02  0.51100000000E-03 0. -1.
         11   -1    0    0    0    0 -0.00000000000E+00 -0.00000000000E+00 -0.45593999997E+02  0.45594000000E+02  0.51100000000E-03 0.  1.
    9900012    2    1    2    0    0 -0.55427711437E+01  0.26663566921E+02 -0.16584417800E+02  0.59302093605E+02  0.50000272792E+02 0.  0.
         12    1    1    2    0    0  0.55427711437E+01 -0.26663566921E+02  0.16584417800E+02  0.31885906395E+02  0.00000000000E+00 0. -1.
         11    1    3    3    0    0 -0.72896797316E+01  0.18400963018E+02 -0.17879734234E+02  0.26672453339E+02  0.51100000000E-03 0. -1.
        -11    1    3    3    0    0 -0.13960871772E+02  0.94040630656E+01  0.12673154597E+01  0.16880415621E+02  0.51100000000E-03 0.  1.
         12    1    3    3    0    0  0.15707780360E+02 -0.11414591629E+01  0.28000974666E-01  0.15749224645E+02  0.00000000000E+00 0. -1.
</event>
<event>
 7    1  0.5832130E-012  0.5930194E+02  0.7816164E-02  0.1266605E+00
        -11   -1    0    0    0    0  0.00000000000E+00  0.00000000000E+00  0.45593999997E+02  0.45594000000E+02  0.51100000000E-03 0. -1.
         11   -1    0    0    0    0 -0.00000000000E+00 -0.00000000000E+00 -0.45593999997E+02  0.45594000000E+02  0.51100000000E-03 0.  1.
    9900012    2    1    2    0    0  0.25261101819E+02 -0.11108211597E+02 -0.15975149333E+02  0.59301936803E+02  0.49999986823E+02 0.  0.
         12    1    1    2    0    0 -0.25261101819E+02  0.11108211597E+02  0.15975149333E+02  0.31886063197E+02  0.00000000000E+00 0. -1.
         11    1    3    3    0    0  0.32514581307E+02 -0.62211219107E+01 -0.97636472585E+01  0.34514187857E+02  0.51100000000E-03 0. -1.
        -11    1    3    3    0    0  0.68961335641E+01 -0.64520933049E+01 -0.44615681832E+01  0.10444699951E+02  0.51100000000E-03 0.  1.
         12    1    3    3    0    0 -0.14149613052E+02  0.15650036186E+01 -0.17499338916E+01  0.14343048995E+02  0.00000000000E+00 0. -1.
</event>
<event>
 7    1  0.5832130E-012  0.5930194E+02  0.7816164E-02  0.1266605E+00
        -11   -1    0    0    0    0  0.00000000000E+00  0.00000000000E+00  0.45593999997E+02  0.45594000000E+02  0.51100000000E-03 0.  1.
         11   -1    0    0    0    0 -0.00000000000E+00 -0.00000000000E+00 -0.45593999997E+02  0.45594000000E+02  0.51100000000E-03 0. -1.
    9900012    2    1    2    0    0 -0.16145753518E+02  0.66342571494E+01  0.26683745068E+02  0.59301937599E+02  0.49999988275E+02 0.  0.
         12    1    1    2    0    0  0.16145753518E+02 -0.66342571494E+01 -0.26683745068E+02  0.31886062401E+02  0.00000000000E+00 0. -1.
         11    1    3    3    0    0 -0.31244094071E+01 -0.15664077248E+01  0.97444478593E+00  0.36283756980E+01  0.51100000000E-03 0. -1.
        -11    1    3    3    0    0 -0.23570296255E+01 -0.90831731983E+01  0.32835819980E+02  0.34150412853E+02  0.51100000000E-03 0.  1.
        -12    1    3    3    0    0 -0.10664314485E+02  0.17283838073E+02 -0.71265196972E+01  0.21523149048E+02  0.00000000000E+00 0.  1.
</event>
<event>
 7    1  0.5832130E-012  0.5930192E+02  0.7816164E-02  0.1266605E+00
        -11   -1    0    0    0    0  0.00000000000E+00  0.00000000000E+00  0.45593999997E+02  0.45594000000E+02  0.51100000000E-03 0. -1.
         11   -1    0    0    0    0 -0.00000000000E+00 -0.00000000000E+00 -0.45593999997E+02  0.45594000000E+02  0.51100000000E-03 0.  1.
    9900012    2    1    2    0    0  0.18366877634E+02 -0.25474720889E+02  0.55152715779E+01  0.59301924372E+02  0.49999964153E+02 0.  0.
         12    1    1    2    0    0 -0.18366877634E+02  0.25474720889E+02 -0.55152715779E+01  0.31886075628E+02  0.00000000000E+00 0. -1.
         11    1    3    3    0    0  0.25146329988E+02 -0.42180856784E+01  0.39426595133E+01  0.25800672916E+02  0.51100000000E-03 0. -1.
        -11    1    3    3    0    0  0.67954388640E+01 -0.10429349474E+02  0.82104569392E+01  0.14911771297E+02  0.51100000000E-03 0.  1.
        -12    1    3    3    0    0 -0.13574891218E+02 -0.10827285736E+02 -0.66378448746E+01  0.18589480159E+02  0.00000000000E+00 0.  1.
</event>
<event>
 7    1  0.5832130E-012  0.5930181E+02  0.7816164E-02  0.1266605E+00
        -11   -1    0    0    0    0  0.00000000000E+00  0.00000000000E+00  0.45593999997E+02  0.45594000000E+02  0.51100000000E-03 0.  1.
         11   -1    0    0    0    0 -0.00000000000E+00 -0.00000000000E+00 -0.45593999997E+02  0.45594000000E+02  0.51100000000E-03 0. -1.
    9900012    2    1    2    0    0  0.44392470085E+01 -0.30165749180E+02  0.93300322921E+01  0.59301814274E+02  0.49999763359E+02 0.  0.
         12    1    1    2    0    0 -0.44392470085E+01  0.30165749180E+02 -0.93300322921E+01  0.31886185726E+02  0.00000000000E+00 0. -1.
         11    1    3    3    0    0 -0.27465734217E+01 -0.24116445982E+02 -0.70450957486E+01  0.25274097545E+02  0.51100000000E-03 0. -1.
        -11    1    3    3    0    0  0.82654611008E+00 -0.14647097273E+02  0.24237337149E+00  0.14672402056E+02  0.51100000000E-03 0.  1.
         12    1    3    3    0    0  0.63592743201E+01  0.85977940748E+01  0.16132754669E+02  0.19355314672E+02  0.00000000000E+00 0. -1.
</event>
<event>
 7    1  0.5832130E-012  0.5930195E+02  0.7816164E-02  0.1266605E+00
        -11   -1    0    0    0    0  0.00000000000E+00  0.00000000000E+00  0.45593999997E+02  0.45594000000E+02  0.51100000000E-03 0. -1.
         11   -1    0    0    0    0 -0.00000000000E+00 -0.00000000000E+00 -0.45593999997E+02  0.45594000000E+02  0.51100000000E-03 0.  1.
    9900012    2    1    2    0    0 -0.16300307273E+01  0.41028640628E+01 -0.31578944738E+02  0.59301949061E+02  0.50000009180E+02 0.  0.
         12    1    1    2    0    0  0.16300307273E+01 -0.41028640628E+01  0.31578944738E+02  0.31886050939E+02  0.00000000000E+00 0. -1.
         11    1    3    3    0    0  0.85960380871E+01 -0.46485148252E+01 -0.11555548832E+02  0.15133779103E+02  0.51100000000E-03 0. -1.
        -11    1    3    3    0    0 -0.25871883017E+01  0.18255051526E+02 -0.24944993155E+02  0.31019238116E+02  0.51100000000E-03 0.  1.
        -12    1    3    3    0    0 -0.76388805127E+01 -0.95036726377E+01  0.49215972493E+01  0.13148931842E+02  0.00000000000E+00 0.  1.
</event>
<event>
 7    1  0.5832130E-012  0.5930184E+02  0.7816164E-02  0.1266605E+00
        -11   -1    0    0    0    0  0.00000000000E+00  0.00000000000E+00  0.45593999997E+02  0.45594000000E+02  0.51100000000E-03 0.  1.
         11   -1    0    0    0    0 -0.00000000000E+00 -0.00000000000E+00 -0.45593999997E+02  0.45594000000E+02  0.51100000000E-03 0. -1.
    9900012    2    1    2    0    0  0.25070479384E+02 -0.14951071061E+02  0.12832127911E+02  0.59301843613E+02  0.49999816868E+02 0.  0.
         12    1    1    2    0    0 -0.25070479384E+02  0.14951071061E+02 -0.12832127911E+02  0.31886156387E+02  0.00000000000E+00 0. -1.
         11    1    3    3    0    0 -0.23235723447E+00 -0.56046925353E+01 -0.12522303594E+02  0.13721321215E+02  0.51100000000E-03 0. -1.
        -11    1    3    3    0    0  0.48526352492E+01 -0.15724365147E+02  0.11067143147E+02  0.19831424201E+02  0.51100000000E-03 0.  1.
        -12    1    3    3    0    0  0.20450201369E+02  0.63779866214E+01  0.14287288358E+02  0.25749098198E+02  0.00000000000E+00 0.  1.
</event>
<event>
 7    1  0.5832130E-012  0.5930195E+02  0.7816164E-02  0.1266605E+00
        -11   -1    0    0    0    0  0.00000000000E+00  0.00000000000E+00  0.45593999997E+02  0.45594000000E+02  0.51100000000E-03 0.  1.
         11   -1    0    0    0    0 -0.00000000000E+00 -0.00000000000E+00 -0.45593999997E+02  0.45594000000E+02  0.51100000000E-03 0. -1.
    9900012    2    1    2    0    0  0.29486761980E+01 -0.21969527806E+02  0.22920852375E+02  0.59301947925E+02  0.50000007108E+02 0.  0.
         12    1    1    2    0    0 -0.29486761980E+01  0.21969527806E+02 -0.22920852375E+02  0.31886052075E+02  0.00000000000E+00 0. -1.
         11    1    3    3    0    0 -0.24773530983E+00  0.11338035466E+01 -0.66713965255E+01  0.67715888185E+01  0.51100000000E-03 0. -1.
        -11    1    3    3    0    0 -0.10733758492E+02 -0.73721762398E+01  0.28680596924E+02  0.31498241127E+02  0.51100000000E-03 0.  1.
         12    1    3    3    0    0  0.13930169999E+02 -0.15731155113E+02  0.91165197626E+00  0.21032117980E+02  0.00000000000E+00 0. -1.
</event>
<event>
 7    1  0.5832130E-012  0.5930197E+02  0.7816164E-02  0.1266605E+00
        -11   -1    0    0    0    0  0.00000000000E+00  0.00000000000E+00  0.45593999997E+02  0.45594000000E+02  0.51100000000E-03 0.  1.
         11   -1    0    0    0    0 -0.00000000000E+00 -0.00000000000E+00 -0.45593999997E+02  0.45594000000E+02  0.51100000000E-03 0. -1.
    9900012    2    1    2    0    0 -0.29926971113E+02  0.97207262997E+01 -0.51578152393E+01  0.59301965787E+02  0.50000039684E+02 0.  0.
         12    1    1    2    0    0  0.29926971113E+02 -0.97207262997E+01  0.51578152393E+01  0.31886034213E+02  0.00000000000E+00 0. -1.
         11    1    3    3    0    0  0.68473952753E+01 -0.38825006819E+01  0.31427142633E+01  0.84756879840E+01  0.51100000000E-03 0. -1.
        -11    1    3    3    0    0 -0.21989668813E+02  0.59595839521E+00  0.97974665926E+01  0.24080927158E+02  0.51100000000E-03 0.  1.
         12    1    3    3    0    0 -0.14784697575E+02  0.13007268586E+02 -0.18097996095E+02  0.26745350645E+02  0.00000000000E+00 0. -1.
</event>
<event>
 7    1  0.5832130E-012  0.5930184E+02  0.7816164E-02  0.1266605E+00
        -11   -1    0    0    0    0  0.00000000000E+00  0.00000000000E+00  0.45593999997E+02  0.45594000000E+02  0.51100000000E-03 0.  1.
         11   -1    0    0    0    0 -0.00000000000E+00 -0.00000000000E+00 -0.45593999997E+02  0.45594000000E+02  0.51100000000E-03 0. -1.
    9900012    2    1    2    0    0  0.21291393491E+02 -0.82257939507E+01  0.22265220323E+02  0.59301840636E+02  0.49999811438E+02 0.  0.
         12    1    1    2    0    0 -0.21291393491E+02  0.82257939507E+01 -0.22265220323E+02  0.31886159364E+02  0.00000000000E+00 0. -1.
         11    1    3    3    0    0 -0.35325057915E+01 -0.35860785348E+01 -0.89844451953E+01  0.10298485916E+02  0.51100000000E-03 0. -1.
        -11    1    3    3    0    0 -0.15674531761E+01  0.55468963571E+01  0.15694919071E+02  0.16719911889E+02  0.51100000000E-03 0.  1.
        -12    1    3    3    0    0  0.26391352459E+02 -0.10186611773E+02  0.15554746448E+02  0.32283442832E+02  0.00000000000E+00 0.  1.
</event>
<event>
 7    1  0.5832130E-012  0.5930193E+02  0.7816164E-02  0.1266605E+00
        -11   -1    0    0    0    0  0.00000000000E+00  0.00000000000E+00  0.45593999997E+02  0.45594000000E+02  0.51100000000E-03 0.  1.
         11   -1    0    0    0    0 -0.00000000000E+00 -0.00000000000E+00 -0.45593999997E+02  0.45594000000E+02  0.51100000000E-03 0. -1.
    9900012    2    1    2    0    0  0.49039208953E+01  0.30599790517E+02  0.75050371402E+01  0.59301934042E+02  0.49999981788E+02 0.  0.
         12    1    1    2    0    0 -0.49039208953E+01 -0.30599790517E+02 -0.75050371402E+01  0.31886065958E+02  0.00000000000E+00 0. -1.
         11    1    3    3    0    0  0.10735788214E+01  0.14955619154E+02 -0.11028151354E+02  0.18612985744E+02  0.51100000000E-03 0. -1.
        -11    1    3    3    0    0  0.15878262606E+02  0.12043896720E+02  0.19747637657E+02  0.28056084275E+02  0.51100000000E-03 0.  1.
         12    1    3    3    0    0 -0.12047920532E+02  0.36002746427E+01 -0.12144491630E+01  0.12632864022E+02  0.00000000000E+00 0. -1.
</event>
<event>
 7    1  0.5832130E-012  0.5930192E+02  0.7816164E-02  0.1266605E+00
        -11   -1    0    0    0    0  0.00000000000E+00  0.00000000000E+00  0.45593999997E+02  0.45594000000E+02  0.51100000000E-03 0.  1.
         11   -1    0    0    0    0 -0.00000000000E+00 -0.00000000000E+00 -0.45593999997E+02  0.45594000000E+02  0.51100000000E-03 0. -1.
    9900012    2    1    2    0    0 -0.11487093602E+02  0.23484012981E+02  0.18255674332E+02  0.59301924192E+02  0.49999963825E+02 0.  0.
         12    1    1    2    0    0  0.11487093602E+02 -0.23484012981E+02 -0.18255674332E+02  0.31886075808E+02  0.00000000000E+00 0. -1.
         11    1    3    3    0    0 -0.85545897931E+01  0.12378781443E+02  0.12466902138E+02  0.19540698189E+02  0.51100000000E-03 0. -1.
        -11    1    3    3    0    0 -0.35209506653E+01 -0.10483225782E+02  0.12930538085E+02  0.17014521204E+02  0.51100000000E-03 0.  1.
         12    1    3    3    0    0  0.58844685690E+00  0.21588457321E+02 -0.71417658907E+01  0.22746704799E+02  0.00000000000E+00 0. -1.
</event>
<event>
 7    1  0.5832130E-012  0.5930199E+02  0.7816164E-02  0.1266605E+00
        -11   -1    0    0    0    0  0.00000000000E+00  0.00000000000E+00  0.45593999997E+02  0.45594000000E+02  0.51100000000E-03 0.  1.
         11   -1    0    0    0    0 -0.00000000000E+00 -0.00000000000E+00 -0.45593999997E+02  0.45594000000E+02  0.51100000000E-03 0. -1.
    9900012    2    1    2    0    0 -0.92913606537E+01  0.29729440809E+02  0.68226551565E+01  0.59301989635E+02  0.50000083177E+02 0.  0.
         12    1    1    2    0    0  0.92913606537E+01 -0.29729440809E+02 -0.68226551565E+01  0.31886010365E+02  0.00000000000E+00 0. -1.
         11    1    3    3    0    0 -0.11896798876E+02  0.76721467229E+01  0.14587975449E+02  0.20327436799E+02  0.51100000000E-03 0. -1.
        -11    1    3    3    0    0  0.58084555674E+01  0.23334852357E+01  0.10289402701E+02  0.12043882996E+02  0.51100000000E-03 0.  1.
         12    1    3    3    0    0 -0.32030173446E+01  0.19723808850E+02 -0.18054722994E+02  0.26930669840E+02  0.00000000000E+00 0. -1.
</event>
<event>
 7    1  0.7520140E-012  0.5930193E+02  0.7816164E-02  0.1266605E+00
        -11   -1    0    0    0    0  0.00000000000E+00  0.00000000000E+00  0.45593999997E+02  0.45594000000E+02  0.51100000000E-03 0.  1.
         11   -1    0    0    0    0 -0.00000000000E+00 -0.00000000000E+00 -0.45593999997E+02  0.45594000000E+02  0.51100000000E-03 0. -1.
    9900012    2    1    2    0    0  0.17224152188E+02  0.17184792079E+01 -0.26778661752E+02  0.59301932280E+02  0.49999978576E+02 0.  0.
         12    1    1    2    0    0 -0.17224152188E+02 -0.17184792079E+01  0.26778661752E+02  0.31886067720E+02  0.00000000000E+00 0. -1.
         11    1    3    3    0    0  0.88827996336E+01  0.16176062173E+02 -0.16139712356E+02  0.24516513454E+02  0.51100000000E-03 0. -1.
        -11    1    3    3    0    0  0.12767123453E+02  0.55821960560E+00 -0.13807229286E+02  0.18813575716E+02  0.51100000000E-03 0.  1.
         12    1    3    3    0    0 -0.44257708987E+01 -0.15015802570E+02  0.31682798902E+01  0.15971843110E+02  0.00000000000E+00 0. -1.
</event>
<event>
 7    1  0.5832130E-012  0.5930194E+02  0.7816164E-02  0.1266605E+00
        -11   -1    0    0    0    0  0.00000000000E+00  0.00000000000E+00  0.45593999997E+02  0.45594000000E+02  0.51100000000E-03 0. -1.
         11   -1    0    0    0    0 -0.00000000000E+00 -0.00000000000E+00 -0.45593999997E+02  0.45594000000E+02  0.51100000000E-03 0.  1.
    9900012    2    1    2    0    0 -0.29097070034E+02 -0.12255038005E+02 -0.44604324886E+01  0.59301938797E+02  0.49999990461E+02 0.  0.
         12    1    1    2    0    0  0.29097070034E+02  0.12255038005E+02  0.44604324886E+01  0.31886061203E+02  0.00000000000E+00 0. -1.
         11    1    3    3    0    0  0.91298265244E+01 -0.59885946836E+01  0.43126137802E+01  0.11739490471E+02  0.51100000000E-03 0. -1.
        -11    1    3    3    0    0 -0.15017738366E+02 -0.15507441959E+02 -0.20026408817E+01  0.21680032115E+02  0.51100000000E-03 0.  1.
        -12    1    3    3    0    0 -0.23209158192E+02  0.92409986376E+01 -0.67704053871E+01  0.25882416211E+02  0.00000000000E+00 0.  1.
</event>
<event>
 7    1  0.5832130E-012  0.5930193E+02  0.7816164E-02  0.1266605E+00
        -11   -1    0    0    0    0  0.00000000000E+00  0.00000000000E+00  0.45593999997E+02  0.45594000000E+02  0.51100000000E-03 0. -1.
         11   -1    0    0    0    0 -0.00000000000E+00 -0.00000000000E+00 -0.45593999997E+02  0.45594000000E+02  0.51100000000E-03 0.  1.
    9900012    2    1    2    0    0  0.29643891884E+02 -0.29948182305E+01 -0.11357463784E+02  0.59301933358E+02  0.49999980542E+02 0.  0.
         12    1    1    2    0    0 -0.29643891884E+02  0.29948182305E+01  0.11357463784E+02  0.31886066642E+02  0.00000000000E+00 0. -1.
         11    1    3    3    0    0  0.86528291512E+01 -0.35454237071E+01 -0.21546226630E+01  0.95960346322E+01  0.51100000000E-03 0. -1.
        -11    1    3    3    0    0  0.17220072710E+02  0.16188400722E+02 -0.19470866098E+02  0.30622048412E+02  0.51100000000E-03 0.  1.
         12    1    3    3    0    0  0.37709900228E+01 -0.15637795245E+02  0.10268024977E+02  0.19083850314E+02  0.00000000000E+00 0. -1.
</event>
<event>
 7    1  0.5832130E-012  0.5930195E+02  0.7816164E-02  0.1266605E+00
        -11   -1    0    0    0    0  0.00000000000E+00  0.00000000000E+00  0.45593999997E+02  0.45594000000E+02  0.51100000000E-03 0.  1.
         11   -1    0    0    0    0 -0.00000000000E+00 -0.00000000000E+00 -0.45593999997E+02  0.45594000000E+02  0.51100000000E-03 0. -1.
    9900012    2    1    2    0    0  0.41808961853E+01  0.25344392059E+02  0.18891846970E+02  0.59301953151E+02  0.50000016638E+02 0.  0.
         12    1    1    2    0    0 -0.41808961853E+01 -0.25344392059E+02 -0.18891846970E+02  0.31886046849E+02  0.00000000000E+00 0. -1.
         11    1    3    3    0    0  0.14799897620E+02  0.89041233531E+00  0.35591247068E+01  0.15247857969E+02  0.51100000000E-03 0. -1.
        -11    1    3    3    0    0  0.89269156674E+01  0.13587312000E+02 -0.11116351645E+01  0.16295416647E+02  0.51100000000E-03 0.  1.
        -12    1    3    3    0    0 -0.19545917102E+02  0.10866667724E+02  0.16444357428E+02  0.27758678535E+02  0.00000000000E+00 0.  1.
</event>
<event>
 7    1  0.5832130E-012  0.5930192E+02  0.7816164E-02  0.1266605E+00
        -11   -1    0    0    0    0  0.00000000000E+00  0.00000000000E+00  0.45593999997E+02  0.45594000000E+02  0.51100000000E-03 0. -1.
         11   -1    0    0    0    0 -0.00000000000E+00 -0.00000000000E+00 -0.45593999997E+02  0.45594000000E+02  0.51100000000E-03 0.  1.
    9900012    2    1    2    0    0  0.15166943689E+02 -0.27933855977E+02  0.25269815609E+01  0.59301919551E+02  0.49999955360E+02 0.  0.
         12    1    1    2    0    0 -0.15166943689E+02  0.27933855977E+02 -0.25269815609E+01  0.31886080449E+02  0.00000000000E+00 0. -1.
         11    1    3    3    0    0  0.23205162259E+01 -0.32151841499E+01  0.63088907855E+01  0.74514634722E+01  0.51100000000E-03 0. -1.
        -11    1    3    3    0    0  0.25652769852E+02 -0.89940829723E+01 -0.12321811090E+02  0.29846024164E+02  0.51100000000E-03 0.  1.
         12    1    3    3    0    0 -0.12806342389E+02 -0.15724588854E+02  0.85399018657E+01  0.22004431915E+02  0.00000000000E+00 0. -1.
</event>
<event>
 7    1  0.5832130E-012  0.5930196E+02  0.7816164E-02  0.1266605E+00
        -11   -1    0    0    0    0  0.00000000000E+00  0.00000000000E+00  0.45593999997E+02  0.45594000000E+02  0.51100000000E-03 0.  1.
         11   -1    0    0    0    0 -0.00000000000E+00 -0.00000000000E+00 -0.45593999997E+02  0.45594000000E+02  0.51100000000E-03 0. -1.
    9900012    2    1    2    0    0  0.24996188111E+02 -0.14393840042E+02 -0.13591453740E+02  0.59301958131E+02  0.50000025722E+02 0.  0.
         12    1    1    2    0    0 -0.24996188111E+02  0.14393840042E+02  0.13591453740E+02  0.31886041869E+02  0.00000000000E+00 0. -1.
         11    1    3    3    0    0  0.40199762251E+01 -0.15011722106E+02 -0.11685977621E+02  0.19444127203E+02  0.51100000000E-03 0. -1.
        -11    1    3    3    0    0 -0.76829215037E+01 -0.23951266536E+01 -0.69127401168E+01  0.10608953327E+02  0.51100000000E-03 0.  1.
        -12    1    3    3    0    0  0.28659133390E+02  0.30130087177E+01  0.50072639976E+01  0.29248877601E+02  0.00000000000E+00 0.  1.
</event>
<event>
 7    1  0.5832130E-012  0.5930196E+02  0.7816164E-02  0.1266605E+00
        -11   -1    0    0    0    0  0.00000000000E+00  0.00000000000E+00  0.45593999997E+02  0.45594000000E+02  0.51100000000E-03 0. -1.
         11   -1    0    0    0    0 -0.00000000000E+00 -0.00000000000E+00 -0.45593999997E+02  0.45594000000E+02  0.51100000000E-03 0.  1.
    9900012    2    1    2    0    0  0.18573628995E+02  0.22994910890E+02 -0.11957160999E+02  0.59301963557E+02  0.50000035617E+02 0.  0.
         12    1    1    2    0    0 -0.18573628995E+02 -0.22994910890E+02  0.11957160999E+02  0.31886036443E+02  0.00000000000E+00 0. -1.
         11    1    3    3    0    0  0.57091013666E+01  0.19841466288E+02  0.62981606382E+00  0.20656095745E+02  0.51100000000E-03 0. -1.
        -11    1    3    3    0    0 -0.51664954812E+01 -0.13772106156E+01 -0.18404457874E+02  0.19165423412E+02  0.51100000000E-03 0.  1.
         12    1    3    3    0    0  0.18031023109E+02  0.45306552174E+01  0.58174808114E+01  0.19480444401E+02  0.00000000000E+00 0. -1.
</event>
<event>
 7    1  0.5832130E-012  0.5930195E+02  0.7816164E-02  0.1266605E+00
        -11   -1    0    0    0    0  0.00000000000E+00  0.00000000000E+00  0.45593999997E+02  0.45594000000E+02  0.51100000000E-03 0.  1.
         11   -1    0    0    0    0 -0.00000000000E+00 -0.00000000000E+00 -0.45593999997E+02  0.45594000000E+02  0.51100000000E-03 0. -1.
    9900012    2    1    2    0    0 -0.11910605241E+02 -0.25359211001E+02  0.15223931580E+02  0.59301949875E+02  0.50000010665E+02 0.  0.
         12    1    1    2    0    0  0.11910605241E+02  0.25359211001E+02 -0.15223931580E+02  0.31886050125E+02  0.00000000000E+00 0. -1.
         11    1    3    3    0    0  0.68586393258E+01 -0.78216480693E+01 -0.12958982882E+02  0.16617892451E+02  0.51100000000E-03 0. -1.
        -11    1    3    3    0    0  0.10595700203E+01 -0.10522826188E+02  0.12919903220E+02  0.16696600226E+02  0.51100000000E-03 0.  1.
        -12    1    3    3    0    0 -0.19828814587E+02 -0.70147367437E+01  0.15263011241E+02  0.25987457199E+02  0.00000000000E+00 0.  1.
</event>
<event>
 7    1  0.5832130E-012  0.5930194E+02  0.7816164E-02  0.1266605E+00
        -11   -1    0    0    0    0  0.00000000000E+00  0.00000000000E+00  0.45593999997E+02  0.45594000000E+02  0.51100000000E-03 0.  1.
         11   -1    0    0    0    0 -0.00000000000E+00 -0.00000000000E+00 -0.45593999997E+02  0.45594000000E+02  0.51100000000E-03 0. -1.
    9900012    2    1    2    0    0  0.31422980084E+02  0.51039759021E+01  0.18073342405E+01  0.59301941849E+02  0.49999996027E+02 0.  0.
         12    1    1    2    0    0 -0.31422980084E+02 -0.51039759021E+01 -0.18073342405E+01  0.31886058151E+02  0.00000000000E+00 0. -1.
         11    1    3    3    0    0  0.75929939680E+01  0.10433189609E+02 -0.97704951116E+01  0.16185412500E+02  0.51100000000E-03 0. -1.
        -11    1    3    3    0    0  0.12821313780E+02  0.14188930742E+02  0.52049325816E+01  0.19819262502E+02  0.51100000000E-03 0.  1.
         12    1    3    3    0    0  0.11008672335E+02 -0.19518144449E+02  0.63728967705E+01  0.23297266847E+02  0.00000000000E+00 0. -1.
</event>
<event>
 7    1  0.5832130E-012  0.5930196E+02  0.7816164E-02  0.1266605E+00
        -11   -1    0    0    0    0  0.00000000000E+00  0.00000000000E+00  0.45593999997E+02  0.45594000000E+02  0.51100000000E-03 0. -1.
         11   -1    0    0    0    0 -0.00000000000E+00 -0.00000000000E+00 -0.45593999997E+02  0.45594000000E+02  0.51100000000E-03 0.  1.
    9900012    2    1    2    0    0 -0.57579329059E+01 -0.12632841657E+00 -0.31361597427E+02  0.59301960055E+02  0.50000029230E+02 0.  0.
         12    1    1    2    0    0  0.57579329059E+01  0.12632841657E+00  0.31361597427E+02  0.31886039945E+02  0.00000000000E+00 0. -1.
         11    1    3    3    0    0  0.17291558839E+02 -0.31653229503E+01 -0.86675016209E+01  0.19599562777E+02  0.51100000000E-03 0. -1.
        -11    1    3    3    0    0 -0.15615089748E+01  0.54363803609E+01 -0.16150922409E+02  0.17112709798E+02  0.51100000000E-03 0.  1.
         12    1    3    3    0    0 -0.21487982770E+02 -0.23973858272E+01 -0.65431733963E+01  0.22589687479E+02  0.00000000000E+00 0. -1.
</event>
<event>
 7    1  0.5832130E-012  0.5930191E+02  0.7816164E-02  0.1266605E+00
        -11   -1    0    0    0    0  0.00000000000E+00  0.00000000000E+00  0.45593999997E+02  0.45594000000E+02  0.51100000000E-03 0.  1.
         11   -1    0    0    0    0 -0.00000000000E+00 -0.00000000000E+00 -0.45593999997E+02  0.45594000000E+02  0.51100000000E-03 0. -1.
    9900012    2    1    2    0    0  0.16564085034E+02  0.11878280963E+02  0.24520604542E+02  0.59301913398E+02  0.49999944139E+02 0.  0.
         12    1    1    2    0    0 -0.16564085034E+02 -0.11878280963E+02 -0.24520604542E+02  0.31886086602E+02  0.00000000000E+00 0. -1.
         11    1    3    3    0    0  0.18104288413E+02 -0.60994812159E+01  0.26118428693E+02  0.32359561921E+02  0.51100000000E-03 0. -1.
        -11    1    3    3    0    0  0.90086077643E+01  0.55140761116E+01 -0.39509245517E+00  0.10569585967E+02  0.51100000000E-03 0.  1.
         12    1    3    3    0    0 -0.10548811143E+02  0.12463686067E+02 -0.12027316956E+01  0.16372765510E+02  0.00000000000E+00 0. -1.
</event>
<event>
 7    1  0.7136993E-012  0.5930194E+02  0.7816164E-02  0.1266605E+00
        -11   -1    0    0    0    0  0.00000000000E+00  0.00000000000E+00  0.45593999997E+02  0.45594000000E+02  0.51100000000E-03 0. -1.
         11   -1    0    0    0    0 -0.00000000000E+00 -0.00000000000E+00 -0.45593999997E+02  0.45594000000E+02  0.51100000000E-03 0.  1.
    9900012    2    1    2    0    0 -0.52323446806E+01 -0.20092385125E+02 -0.24199994771E+02  0.59301935367E+02  0.49999984206E+02 0.  0.
         12    1    1    2    0    0  0.52323446806E+01  0.20092385125E+02  0.24199994771E+02  0.31886064633E+02  0.00000000000E+00 0. -1.
         11    1    3    3    0    0  0.64204781014E+01 -0.15372984976E+02  0.47664232037E+01  0.17328300452E+02  0.51100000000E-03 0. -1.
        -11    1    3    3    0    0 -0.15046742769E+02 -0.13226749441E+02 -0.14049654613E+02  0.24469249350E+02  0.51100000000E-03 0.  1.
         12    1    3    3    0    0  0.33939199871E+01  0.85073492924E+01 -0.14916763361E+02  0.17504385566E+02  0.00000000000E+00 0. -1.
</event>
<event>
 7    1  0.5832130E-012  0.5930197E+02  0.7816164E-02  0.1266605E+00
        -11   -1    0    0    0    0  0.00000000000E+00  0.00000000000E+00  0.45593999997E+02  0.45594000000E+02  0.51100000000E-03 0.  1.
         11   -1    0    0    0    0 -0.00000000000E+00 -0.00000000000E+00 -0.45593999997E+02  0.45594000000E+02  0.51100000000E-03 0. -1.
    9900012    2    1    2    0    0 -0.13685886933E+02  0.73758306888E+01  0.27839049842E+02  0.59301967390E+02  0.50000042608E+02 0.  0.
         12    1    1    2    0    0  0.13685886933E+02 -0.73758306888E+01 -0.27839049842E+02  0.31886032610E+02  0.00000000000E+00 0. -1.
         11    1    3    3    0    0  0.13804476052E+02 -0.35917700011E+01  0.97602526503E+01  0.17283717854E+02  0.51100000000E-03 0. -1.
        -11    1    3    3    0    0 -0.36207153322E+00 -0.79486154146E-01  0.12121606777E+02  0.12127273599E+02  0.51100000000E-03 0.  1.
         12    1    3    3    0    0 -0.27128291452E+02  0.11047086844E+02  0.59571904146E+01  0.29890975937E+02  0.00000000000E+00 0. -1.
</event>
<event>
 7    1  0.5832130E-012  0.5930190E+02  0.7816164E-02  0.1266605E+00
        -11   -1    0    0    0    0  0.00000000000E+00  0.00000000000E+00  0.45593999997E+02  0.45594000000E+02  0.51100000000E-03 0. -1.
         11   -1    0    0    0    0 -0.00000000000E+00 -0.00000000000E+00 -0.45593999997E+02  0.45594000000E+02  0.51100000000E-03 0.  1.
    9900012    2    1    2    0    0 -0.98682676232E+01  0.29631412071E+02 -0.64280631820E+01  0.59301901407E+02  0.49999922270E+02 0.  0.
         12    1    1    2    0    0  0.98682676232E+01 -0.29631412071E+02  0.64280631820E+01  0.31886098593E+02  0.00000000000E+00 0. -1.
         11    1    3    3    0    0 -0.36798917783E+01  0.21981500126E+02  0.12602184261E+01  0.22322994917E+02  0.51100000000E-03 0. -1.
        -11    1    3    3    0    0 -0.12200414026E+02  0.15492069428E+02  0.55255581269E+01  0.20478918684E+02  0.51100000000E-03 0.  1.
        -12    1    3    3    0    0  0.60120381812E+01 -0.78421574834E+01 -0.13213839735E+02  0.16499987807E+02  0.00000000000E+00 0.  1.
</event>
<event>
 7    1  0.5832130E-012  0.5930194E+02  0.7816164E-02  0.1266605E+00
        -11   -1    0    0    0    0  0.00000000000E+00  0.00000000000E+00  0.45593999997E+02  0.45594000000E+02  0.51100000000E-03 0.  1.
         11   -1    0    0    0    0 -0.00000000000E+00 -0.00000000000E+00 -0.45593999997E+02  0.45594000000E+02  0.51100000000E-03 0. -1.
    9900012    2    1    2    0    0 -0.52959420849E+01 -0.17185264757E+02  0.26331357610E+02  0.59301941590E+02  0.49999995554E+02 0.  0.
         12    1    1    2    0    0  0.52959420849E+01  0.17185264757E+02 -0.26331357610E+02  0.31886058410E+02  0.00000000000E+00 0. -1.
         11    1    3    3    0    0 -0.84611861692E+01 -0.33107419611E+02  0.13856726094E+02  0.36874134064E+02  0.51100000000E-03 0. -1.
        -11    1    3    3    0    0  0.90683873116E+00 -0.48715419455E-02 -0.10671569920E+01  0.14004301207E+01  0.51100000000E-03 0.  1.
        -12    1    3    3    0    0  0.22584053531E+01  0.15927026396E+02  0.13541788508E+02  0.21027377405E+02  0.00000000000E+00 0.  1.
</event>
<event>
 7    1  0.5832130E-012  0.5930195E+02  0.7816164E-02  0.1266605E+00
        -11   -1    0    0    0    0  0.00000000000E+00  0.00000000000E+00  0.45593999997E+02  0.45594000000E+02  0.51100000000E-03 0.  1.
         11   -1    0    0    0    0 -0.00000000000E+00 -0.00000000000E+00 -0.45593999997E+02  0.45594000000E+02  0.51100000000E-03 0. -1.
    9900012    2    1    2    0    0  0.14055239161E+02  0.79128080879E+01  0.27505596638E+02  0.59301950917E+02  0.50000012565E+02 0.  0.
         12    1    1    2    0    0 -0.14055239161E+02 -0.79128080879E+01 -0.27505596638E+02  0.31886049083E+02  0.00000000000E+00 0. -1.
         11    1    3    3    0    0  0.71156996990E+01  0.19489866680E+01 -0.16235045843E+00  0.73795724247E+01  0.51100000000E-03 0. -1.
        -11    1    3    3    0    0  0.19988585354E+02 -0.47369541022E+01  0.12573494087E+01  0.20580651263E+02  0.51100000000E-03 0.  1.
         12    1    3    3    0    0 -0.13049045892E+02  0.10700775522E+02  0.26410597688E+02  0.31341727229E+02  0.00000000000E+00 0. -1.
</event>
<event>
 7    1  0.5832130E-012  0.5930195E+02  0.7816164E-02  0.1266605E+00
        -11   -1    0    0    0    0  0.00000000000E+00  0.00000000000E+00  0.45593999997E+02  0.45594000000E+02  0.51100000000E-03 0.  1.
         11   -1    0    0    0    0 -0.00000000000E+00 -0.00000000000E+00 -0.45593999997E+02  0.45594000000E+02  0.51100000000E-03 0. -1.
    9900012    2    1    2    0    0 -0.17277036990E+02 -0.11961776055E+02  0.23982077598E+02  0.59301950708E+02  0.50000012184E+02 0.  0.
         12    1    1    2    0    0  0.17277036990E+02  0.11961776055E+02 -0.23982077598E+02  0.31886049292E+02  0.00000000000E+00 0. -1.
         11    1    3    3    0    0  0.59062577675E+01 -0.10912813112E+02  0.10601060660E+02  0.16320412318E+02  0.51100000000E-03 0. -1.
        -11    1    3    3    0    0 -0.89997074391E+01  0.59970583006E+01  0.22315408789E+02  0.24797921525E+02  0.51100000000E-03 0.  1.
         12    1    3    3    0    0 -0.14183587318E+02 -0.70460212432E+01 -0.89343918518E+01  0.18183616866E+02  0.00000000000E+00 0. -1.
</event>
<event>
 7    1  0.5832130E-012  0.5930191E+02  0.7816164E-02  0.1266605E+00
        -11   -1    0    0    0    0  0.00000000000E+00  0.00000000000E+00  0.45593999997E+02  0.45594000000E+02  0.51100000000E-03 0.  1.
         11   -1    0    0    0    0 -0.00000000000E+00 -0.00000000000E+00 -0.45593999997E+02  0.45594000000E+02  0.51100000000E-03 0. -1.
    9900012    2    1    2    0    0  0.16403433524E+02 -0.11444925688E+02  0.24832715152E+02  0.59301910600E+02  0.49999939036E+02 0.  0.
         12    1    1    2    0    0 -0.16403433524E+02  0.11444925688E+02 -0.24832715152E+02  0.31886089400E+02  0.00000000000E+00 0. -1.
         11    1    3    3    0    0  0.84892255240E+01 -0.28578637180E+01 -0.35856123894E+01  0.96483652240E+01  0.51100000000E-03 0. -1.
        -11    1    3    3    0    0  0.18160223039E+02 -0.16154557273E+02  0.80008554685E+01  0.25588612897E+02  0.51100000000E-03 0.  1.
        -12    1    3    3    0    0 -0.10246015039E+02  0.75674953035E+01  0.20417472073E+02  0.24064932479E+02  0.00000000000E+00 0.  1.
</event>
<event>
 7    1  0.5832130E-012  0.5930198E+02  0.7816164E-02  0.1266605E+00
        -11   -1    0    0    0    0  0.00000000000E+00  0.00000000000E+00  0.45593999997E+02  0.45594000000E+02  0.51100000000E-03 0. -1.
         11   -1    0    0    0    0 -0.00000000000E+00 -0.00000000000E+00 -0.45593999997E+02  0.45594000000E+02  0.51100000000E-03 0.  1.
    9900012    2    1    2    0    0  0.28249536530E+02 -0.13211039175E+02 -0.66445668802E+01  0.59301982072E+02  0.50000069384E+02 0.  0.
         12    1    1    2    0    0 -0.28249536530E+02  0.13211039175E+02  0.66445668802E+01  0.31886017928E+02  0.00000000000E+00 0. -1.
         11    1    3    3    0    0  0.11105225148E+02  0.75037022064E+01  0.10617064040E+02  0.17098351425E+02  0.51100000000E-03 0. -1.
        -11    1    3    3    0    0  0.20262907566E+02 -0.36045111959E+01 -0.58295113598E+01  0.21390678506E+02  0.51100000000E-03 0.  1.
        -12    1    3    3    0    0 -0.31185961839E+01 -0.17110230186E+02 -0.11432119560E+02  0.20812952141E+02  0.00000000000E+00 0.  1.
</event>
<event>
 7    1  0.5832130E-012  0.5930195E+02  0.7816164E-02  0.1266605E+00
        -11   -1    0    0    0    0  0.00000000000E+00  0.00000000000E+00  0.45593999997E+02  0.45594000000E+02  0.51100000000E-03 0. -1.
         11   -1    0    0    0    0 -0.00000000000E+00 -0.00000000000E+00 -0.45593999997E+02  0.45594000000E+02  0.51100000000E-03 0.  1.
    9900012    2    1    2    0    0  0.25781832745E+02  0.17867935500E+02  0.57231521314E+01  0.59301945226E+02  0.50000002185E+02 0.  0.
         12    1    1    2    0    0 -0.25781832745E+02 -0.17867935500E+02 -0.57231521314E+01  0.31886054774E+02  0.00000000000E+00 0. -1.
         11    1    3    3    0    0 -0.46202207589E+01 -0.61186855424E+01 -0.50270740553E+01  0.91682182809E+01  0.51100000000E-03 0. -1.
        -11    1    3    3    0    0  0.11619604531E+02  0.26058627308E+02  0.28575967623E+00  0.28533295034E+02  0.51100000000E-03 0.  1.
         12    1    3    3    0    0  0.18782448973E+02 -0.20720062660E+01  0.10464466510E+02  0.21600431911E+02  0.00000000000E+00 0. -1.
</event>
<event>
 7    1  0.5832130E-012  0.5930195E+02  0.7816164E-02  0.1266605E+00
        -11   -1    0    0    0    0  0.00000000000E+00  0.00000000000E+00  0.45593999997E+02  0.45594000000E+02  0.51100000000E-03 0.  1.
         11   -1    0    0    0    0 -0.00000000000E+00 -0.00000000000E+00 -0.45593999997E+02  0.45594000000E+02  0.51100000000E-03 0. -1.
    9900012    2    1    2    0    0 -0.75842060570E+01 -0.30500722547E+02 -0.53764330619E+01  0.59301948349E+02  0.50000007882E+02 0.  0.
         12    1    1    2    0    0  0.75842060570E+01  0.30500722547E+02  0.53764330619E+01  0.31886051651E+02  0.00000000000E+00 0. -1.
         11    1    3    3    0    0 -0.17693561231E+02 -0.23685828197E+01  0.23682012841E+01  0.18007794735E+02  0.51100000000E-03 0.  1.
        -11    1    3    3    0    0 -0.60072736814E+01 -0.45095832921E+01 -0.10115344776E+02  0.12599360252E+02  0.51100000000E-03 0. -1.
        -12    1    3    3    0    0  0.16116628856E+02 -0.23622556435E+02  0.23707104300E+01  0.28694793363E+02  0.00000000000E+00 0.  1.
</event>
<event>
 7    1  0.5832130E-012  0.5930196E+02  0.7816164E-02  0.1266605E+00
        -11   -1    0    0    0    0  0.00000000000E+00  0.00000000000E+00  0.45593999997E+02  0.45594000000E+02  0.51100000000E-03 0.  1.
         11   -1    0    0    0    0 -0.00000000000E+00 -0.00000000000E+00 -0.45593999997E+02  0.45594000000E+02  0.51100000000E-03 0. -1.
    9900012    2    1    2    0    0  0.21410826196E+01  0.22139870024E+02  0.22846479766E+02  0.59301957329E+02  0.50000024259E+02 0.  0.
         12    1    1    2    0    0 -0.21410826196E+01 -0.22139870024E+02 -0.22846479766E+02  0.31886042671E+02  0.00000000000E+00 0. -1.
         11    1    3    3    0    0 -0.12052829652E+02  0.91775816860E+01  0.86562894924E+01  0.17447924125E+02  0.51100000000E-03 0.  1.
        -11    1    3    3    0    0  0.17792396106E+02  0.10347567947E+02  0.23679138968E+02  0.31374243324E+02  0.51100000000E-03 0. -1.
         12    1    3    3    0    0 -0.35984838339E+01  0.26147203918E+01 -0.94889486943E+01  0.10479789881E+02  0.00000000000E+00 0. -1.
</event>
<event>
 7    1  0.5832130E-012  0.5930194E+02  0.7816164E-02  0.1266605E+00
        -11   -1    0    0    0    0  0.00000000000E+00  0.00000000000E+00  0.45593999997E+02  0.45594000000E+02  0.51100000000E-03 0. -1.
         11   -1    0    0    0    0 -0.00000000000E+00 -0.00000000000E+00 -0.45593999997E+02  0.45594000000E+02  0.51100000000E-03 0.  1.
    9900012    2    1    2    0    0  0.75696942275E+00  0.23088212968E+02 -0.21979124872E+02  0.59301944884E+02  0.50000001561E+02 0.  0.
         12    1    1    2    0    0 -0.75696942275E+00 -0.23088212968E+02  0.21979124872E+02  0.31886055116E+02  0.00000000000E+00 0. -1.
         11    1    3    3    0    0  0.88098690205E+01  0.77620860337E+01 -0.58977442900E+01  0.13139526617E+02  0.51100000000E-03 0. -1.
        -11    1    3    3    0    0  0.73655862552E+01 -0.69898256081E+01 -0.16103956152E+02  0.19038038946E+02  0.51100000000E-03 0.  1.
         12    1    3    3    0    0 -0.15418485853E+02  0.22315952542E+02  0.22575569827E-01  0.27124379320E+02  0.00000000000E+00 0. -1.
</event>
<event>
 7    1  0.5832130E-012  0.5930195E+02  0.7816164E-02  0.1266605E+00
        -11   -1    0    0    0    0  0.00000000000E+00  0.00000000000E+00  0.45593999997E+02  0.45594000000E+02  0.51100000000E-03 0.  1.
         11   -1    0    0    0    0 -0.00000000000E+00 -0.00000000000E+00 -0.45593999997E+02  0.45594000000E+02  0.51100000000E-03 0. -1.
    9900012    2    1    2    0    0  0.14775832427E+02  0.59637156202E+01  0.27619365138E+02  0.59301945704E+02  0.50000003057E+02 0.  0.
         12    1    1    2    0    0 -0.14775832427E+02 -0.59637156202E+01 -0.27619365138E+02  0.31886054296E+02  0.00000000000E+00 0. -1.
         11    1    3    3    0    0  0.12247907589E+02  0.37828148752E+01 -0.14549834702E+01  0.12901081576E+02  0.51100000000E-03 0. -1.
        -11    1    3    3    0    0  0.18822656507E+02  0.29272173181E+01  0.20457323772E+02  0.27952872757E+02  0.51100000000E-03 0.  1.
        -12    1    3    3    0    0 -0.16294731668E+02 -0.74631657305E+00  0.86170248363E+01  0.18447991370E+02  0.00000000000E+00 0.  1.
</event>
<event>
 7    1  0.5832130E-012  0.5930195E+02  0.7816164E-02  0.1266605E+00
        -11   -1    0    0    0    0  0.00000000000E+00  0.00000000000E+00  0.45593999997E+02  0.45594000000E+02  0.51100000000E-03 0.  1.
         11   -1    0    0    0    0 -0.00000000000E+00 -0.00000000000E+00 -0.45593999997E+02  0.45594000000E+02  0.51100000000E-03 0. -1.
    9900012    2    1    2    0    0  0.20818936432E+02  0.23996482631E+02 -0.27315034454E+01  0.59301946561E+02  0.50000004620E+02 0.  0.
         12    1    1    2    0    0 -0.20818936432E+02 -0.23996482631E+02  0.27315034454E+01  0.31886053439E+02  0.00000000000E+00 0. -1.
         11    1    3    3    0    0  0.62075730824E+01  0.26759129365E+02  0.45367293356E+01  0.27841818929E+02  0.51100000000E-03 0. -1.
        -11    1    3    3    0    0  0.20015205516E+02 -0.18710716864E+01  0.25039411928E+01  0.20257815353E+02  0.51100000000E-03 0.  1.
         12    1    3    3    0    0 -0.54038421661E+01 -0.89157504730E+00 -0.97721739737E+01  0.11202312279E+02  0.00000000000E+00 0. -1.
</event>
<event>
 7    1  0.5832130E-012  0.5930195E+02  0.7816164E-02  0.1266605E+00
        -11   -1    0    0    0    0  0.00000000000E+00  0.00000000000E+00  0.45593999997E+02  0.45594000000E+02  0.51100000000E-03 0.  1.
         11   -1    0    0    0    0 -0.00000000000E+00 -0.00000000000E+00 -0.45593999997E+02  0.45594000000E+02  0.51100000000E-03 0. -1.
    9900012    2    1    2    0    0  0.29178460440E+02 -0.11798803385E+00  0.12857821085E+02  0.59301952301E+02  0.50000015088E+02 0.  0.
         12    1    1    2    0    0 -0.29178460440E+02  0.11798803385E+00 -0.12857821085E+02  0.31886047699E+02  0.00000000000E+00 0. -1.
         11    1    3    3    0    0  0.26720297348E+01 -0.16699439018E+01  0.22246601060E+02  0.22468638467E+02  0.51100000000E-03 0. -1.
        -11    1    3    3    0    0 -0.86714366270E-01  0.56971898924E+01  0.38125852679E+01  0.68557493200E+01  0.51100000000E-03 0.  1.
        -12    1    3    3    0    0  0.26593145072E+02 -0.41452340244E+01 -0.13201365243E+02  0.29977564514E+02  0.00000000000E+00 0.  1.
</event>
<event>
 7    1  0.5832130E-012  0.5930194E+02  0.7816164E-02  0.1266605E+00
        -11   -1    0    0    0    0  0.00000000000E+00  0.00000000000E+00  0.45593999997E+02  0.45594000000E+02  0.51100000000E-03 0. -1.
         11   -1    0    0    0    0 -0.00000000000E+00 -0.00000000000E+00 -0.45593999997E+02  0.45594000000E+02  0.51100000000E-03 0.  1.
    9900012    2    1    2    0    0  0.22390218284E+02 -0.21219476630E+02 -0.80704823204E+01  0.59301941163E+02  0.49999994775E+02 0.  0.
         12    1    1    2    0    0 -0.22390218284E+02  0.21219476630E+02  0.80704823204E+01  0.31886058837E+02  0.00000000000E+00 0. -1.
         11    1    3    3    0    0 -0.20881676298E+01  0.40910005739E+01 -0.11098070719E+02  0.12010990954E+02  0.51100000000E-03 0. -1.
        -11    1    3    3    0    0  0.94379449793E+01  0.55666447356E+01  0.65492767518E+01  0.12765397184E+02  0.51100000000E-03 0.  1.
        -12    1    3    3    0    0  0.15040440935E+02 -0.30877121940E+02 -0.35216883528E+01  0.34525553024E+02  0.00000000000E+00 0.  1.
</event>
<event>
 7    1  0.5832130E-012  0.5930170E+02  0.7816164E-02  0.1266606E+00
        -11   -1    0    0    0    0  0.00000000000E+00  0.00000000000E+00  0.45593999997E+02  0.45594000000E+02  0.51100000000E-03 0.  1.
         11   -1    0    0    0    0 -0.00000000000E+00 -0.00000000000E+00 -0.45593999997E+02  0.45594000000E+02  0.51100000000E-03 0. -1.
    9900012    2    1    2    0    0  0.28728646812E+02 -0.35654917139E+01 -0.13367433741E+02  0.59301699436E+02  0.49999553922E+02 0.  0.
         12    1    1    2    0    0 -0.28728646812E+02  0.35654917139E+01  0.13367433741E+02  0.31886300564E+02  0.00000000000E+00 0. -1.
         11    1    3    3    0    0 -0.18349190488E+01 -0.22218074333E+01 -0.11749179422E+01  0.31118786317E+01  0.51100000000E-03 0. -1.
        -11    1    3    3    0    0 -0.12342638576E+01  0.10902807531E+01  0.14505589952E+02  0.14598775960E+02  0.51100000000E-03 0.  1.
        -12    1    3    3    0    0  0.31797829719E+02 -0.24339650337E+01 -0.26698105751E+02  0.41591044845E+02  0.00000000000E+00 0.  1.
</event>
<event>
 7    1  0.5832130E-012  0.5930197E+02  0.7816164E-02  0.1266605E+00
        -11   -1    0    0    0    0  0.00000000000E+00  0.00000000000E+00  0.45593999997E+02  0.45594000000E+02  0.51100000000E-03 0.  1.
         11   -1    0    0    0    0 -0.00000000000E+00 -0.00000000000E+00 -0.45593999997E+02  0.45594000000E+02  0.51100000000E-03 0. -1.
    9900012    2    1    2    0    0  0.18894024892E+02 -0.25627899338E+02 -0.17163161411E+01  0.59301966346E+02  0.50000040704E+02 0.  0.
         12    1    1    2    0    0 -0.18894024892E+02  0.25627899338E+02  0.17163161411E+01  0.31886033654E+02  0.00000000000E+00 0. -1.
         11    1    3    3    0    0  0.21795416900E+02 -0.12264499615E+02  0.18926338792E+02  0.31363425338E+02  0.51100000000E-03 0.  1.
        -11    1    3    3    0    0 -0.51536829280E+01 -0.13389239491E+02 -0.11116239625E+02  0.18149461853E+02  0.51100000000E-03 0. -1.
        -12    1    3    3    0    0  0.22522909202E+01  0.25839768706E-01 -0.95264153080E+01  0.97890791551E+01  0.00000000000E+00 0.  1.
</event>
<event>
 7    1  0.5832130E-012  0.5930194E+02  0.7816164E-02  0.1266605E+00
        -11   -1    0    0    0    0  0.00000000000E+00  0.00000000000E+00  0.45593999997E+02  0.45594000000E+02  0.51100000000E-03 0.  1.
         11   -1    0    0    0    0 -0.00000000000E+00 -0.00000000000E+00 -0.45593999997E+02  0.45594000000E+02  0.51100000000E-03 0. -1.
    9900012    2    1    2    0    0  0.22666831023E+02 -0.21449095930E+02  0.65476574032E+01  0.59301940941E+02  0.49999994371E+02 0.  0.
         12    1    1    2    0    0 -0.22666831023E+02  0.21449095930E+02 -0.65476574032E+01  0.31886059059E+02  0.00000000000E+00 0. -1.
         11    1    3    3    0    0  0.14882837542E+02  0.25553343429E+01 -0.31717781749E+01  0.15430125208E+02  0.51100000000E-03 0. -1.
        -11    1    3    3    0    0 -0.77895220331E+01 -0.10411342143E+02  0.17485047550E+02  0.21789896439E+02  0.51100000000E-03 0.  1.
         12    1    3    3    0    0  0.15573515515E+02 -0.13593088130E+02 -0.77656119723E+01  0.22081919294E+02  0.00000000000E+00 0. -1.
</event>
<event>
 7    1  0.5832130E-012  0.5930180E+02  0.7816164E-02  0.1266605E+00
        -11   -1    0    0    0    0  0.00000000000E+00  0.00000000000E+00  0.45593999997E+02  0.45594000000E+02  0.51100000000E-03 0. -1.
         11   -1    0    0    0    0 -0.00000000000E+00 -0.00000000000E+00 -0.45593999997E+02  0.45594000000E+02  0.51100000000E-03 0.  1.
    9900012    2    1    2    0    0 -0.90496844412E+01  0.26357366953E+02 -0.15495870750E+02  0.59301802493E+02  0.49999741874E+02 0.  0.
         12    1    1    2    0    0  0.90496844412E+01 -0.26357366953E+02  0.15495870750E+02  0.31886197507E+02  0.00000000000E+00 0. -1.
         11    1    3    3    0    0  0.31545978866E+01 -0.77602934992E+01  0.31599903598E+01  0.89531660520E+01  0.51100000000E-03 0. -1.
        -11    1    3    3    0    0 -0.89139007058E+01  0.20006214403E+02  0.51316703303E+01  0.22495339099E+02  0.51100000000E-03 0.  1.
        -12    1    3    3    0    0 -0.32903816220E+01  0.14111446049E+02 -0.23787531440E+02  0.27853297342E+02  0.00000000000E+00 0.  1.
</event>
<event>
 7    1  0.5832130E-012  0.5930200E+02  0.7816164E-02  0.1266605E+00
        -11   -1    0    0    0    0  0.00000000000E+00  0.00000000000E+00  0.45593999997E+02  0.45594000000E+02  0.51100000000E-03 0.  1.
         11   -1    0    0    0    0 -0.00000000000E+00 -0.00000000000E+00 -0.45593999997E+02  0.45594000000E+02  0.51100000000E-03 0. -1.
    9900012    2    1    2    0    0  0.27722265702E+02 -0.10321678027E+01  0.15720290596E+02  0.59302001153E+02  0.50000104183E+02 0.  0.
         12    1    1    2    0    0 -0.27722265702E+02  0.10321678027E+01 -0.15720290596E+02  0.31885998847E+02  0.00000000000E+00 0. -1.
         11    1    3    3    0    0  0.57922630864E+00 -0.13268917753E+02  0.44884190091E+01  0.14019471706E+02  0.51100000000E-03 0. -1.
        -11    1    3    3    0    0  0.23383898201E+02  0.11320828327E+01  0.19880815524E+02  0.30713761294E+02  0.51100000000E-03 0.  1.
        -12    1    3    3    0    0  0.37591411919E+01  0.11104667117E+02 -0.86489439368E+01  0.14568768154E+02  0.00000000000E+00 0.  1.
</event>
<event>
 7    1  0.5832130E-012  0.5930195E+02  0.7816164E-02  0.1266605E+00
        -11   -1    0    0    0    0  0.00000000000E+00  0.00000000000E+00  0.45593999997E+02  0.45594000000E+02  0.51100000000E-03 0. -1.
         11   -1    0    0    0    0 -0.00000000000E+00 -0.00000000000E+00 -0.45593999997E+02  0.45594000000E+02  0.51100000000E-03 0.  1.
    9900012    2    1    2    0    0  0.12158293952E+02 -0.27759858131E+02 -0.99139465011E+01  0.59301950221E+02  0.50000011295E+02 0.  0.
         12    1    1    2    0    0 -0.12158293952E+02  0.27759858131E+02  0.99139465011E+01  0.31886049779E+02  0.00000000000E+00 0. -1.
         11    1    3    3    0    0 -0.25960179173E+01 -0.22297499349E+02 -0.20339026090E+02  0.30291810259E+02  0.51100000000E-03 0. -1.
        -11    1    3    3    0    0  0.17762969769E+02 -0.79351089709E+01  0.17893655313E+01  0.19536910674E+02  0.51100000000E-03 0.  1.
         12    1    3    3    0    0 -0.30086579000E+01  0.24727501886E+01  0.86357140575E+01  0.94732292877E+01  0.00000000000E+00 0. -1.
</event>
<event>
 7    1  0.5832130E-012  0.5930192E+02  0.7816164E-02  0.1266605E+00
        -11   -1    0    0    0    0  0.00000000000E+00  0.00000000000E+00  0.45593999997E+02  0.45594000000E+02  0.51100000000E-03 0.  1.
         11   -1    0    0    0    0 -0.00000000000E+00 -0.00000000000E+00 -0.45593999997E+02  0.45594000000E+02  0.51100000000E-03 0. -1.
    9900012    2    1    2    0    0  0.45681961976E+01 -0.20471474068E+02  0.24016088199E+02  0.59301919034E+02  0.49999954417E+02 0.  0.
         12    1    1    2    0    0 -0.45681961976E+01  0.20471474068E+02 -0.24016088199E+02  0.31886080966E+02  0.00000000000E+00 0. -1.
         11    1    3    3    0    0  0.10326437647E+02 -0.26191169817E+01  0.40397679530E+01  0.11393630397E+02  0.51100000000E-03 0. -1.
        -11    1    3    3    0    0  0.83627115534E+01  0.91810779405E+01  0.95843683315E+01  0.15687168427E+02  0.51100000000E-03 0.  1.
        -12    1    3    3    0    0 -0.14120953003E+02 -0.27033435026E+02  0.10391951914E+02  0.32221120211E+02  0.00000000000E+00 0.  1.
</event>
<event>
 7    1  0.5832130E-012  0.5930195E+02  0.7816164E-02  0.1266605E+00
        -11   -1    0    0    0    0  0.00000000000E+00  0.00000000000E+00  0.45593999997E+02  0.45594000000E+02  0.51100000000E-03 0. -1.
         11   -1    0    0    0    0 -0.00000000000E+00 -0.00000000000E+00 -0.45593999997E+02  0.45594000000E+02  0.51100000000E-03 0.  1.
    9900012    2    1    2    0    0  0.17239820078E+01 -0.22392839448E+02 -0.22634235445E+02  0.59301953104E+02  0.50000016553E+02 0.  0.
         12    1    1    2    0    0 -0.17239820078E+01  0.22392839448E+02  0.22634235445E+02  0.31886046896E+02  0.00000000000E+00 0. -1.
         11    1    3    3    0    0  0.51720764814E+01  0.12419758460E+01 -0.15114108603E+02  0.16022769994E+02  0.51100000000E-03 0.  1.
        -11    1    3    3    0    0  0.34843114126E+01 -0.42368043623E+00  0.11789265807E+02  0.12300679642E+02  0.51100000000E-03 0. -1.
         12    1    3    3    0    0 -0.69324058862E+01 -0.23211134857E+02 -0.19309392648E+02  0.30978503469E+02  0.00000000000E+00 0. -1.
</event>
<event>
 7    1  0.5832130E-012  0.5930218E+02  0.7816164E-02  0.1266604E+00
        -11   -1    0    0    0    0  0.00000000000E+00  0.00000000000E+00  0.45593999997E+02  0.45594000000E+02  0.51100000000E-03 0. -1.
         11   -1    0    0    0    0 -0.00000000000E+00 -0.00000000000E+00 -0.45593999997E+02  0.45594000000E+02  0.51100000000E-03 0.  1.
    9900012    2    1    2    0    0  0.19695997753E+02 -0.10326504141E+02 -0.22850300677E+02  0.59302184089E+02  0.50000437812E+02 0.  0.
         12    1    1    2    0    0 -0.19695997753E+02  0.10326504141E+02  0.22850300677E+02  0.31885815911E+02  0.00000000000E+00 0. -1.
         11    1    3    3    0    0 -0.30341886233E+01  0.53031775901E+01  0.47196552809E+01  0.77204364764E+01  0.51100000000E-03 0. -1.
        -11    1    3    3    0    0  0.18976608807E+02 -0.97713430360E+01  0.17797196469E+01  0.21418642087E+02  0.51100000000E-03 0.  1.
        -12    1    3    3    0    0  0.37535775689E+01 -0.58583386956E+01 -0.29349675605E+02  0.30163105526E+02  0.00000000000E+00 0.  1.
</event>
<event>
 7    1  0.5832130E-012  0.5930197E+02  0.7816164E-02  0.1266605E+00
        -11   -1    0    0    0    0  0.00000000000E+00  0.00000000000E+00  0.45593999997E+02  0.45594000000E+02  0.51100000000E-03 0.  1.
         11   -1    0    0    0    0 -0.00000000000E+00 -0.00000000000E+00 -0.45593999997E+02  0.45594000000E+02  0.51100000000E-03 0. -1.
    9900012    2    1    2    0    0  0.38985545988E+01  0.20920147850E+02  0.23745892927E+02  0.59301972576E+02  0.50000052064E+02 0.  0.
         12    1    1    2    0    0 -0.38985545988E+01 -0.20920147850E+02 -0.23745892927E+02  0.31886027424E+02  0.00000000000E+00 0. -1.
         11    1    3    3    0    0 -0.73839704998E+01  0.23959764947E+02  0.63382461905E+01  0.25860524389E+02  0.51100000000E-03 0. -1.
        -11    1    3    3    0    0 -0.74791323435E+00 -0.71796252423E+00 -0.64972656396E+01  0.65794608780E+01  0.51100000000E-03 0.  1.
        -12    1    3    3    0    0  0.12030438333E+02 -0.23216545732E+01  0.23904912376E+02  0.26861987308E+02  0.00000000000E+00 0.  1.
</event>
<event>
 7    1  0.5832130E-012  0.5930194E+02  0.7816164E-02  0.1266605E+00
        -11   -1    0    0    0    0  0.00000000000E+00  0.00000000000E+00  0.45593999997E+02  0.45594000000E+02  0.51100000000E-03 0. -1.
         11   -1    0    0    0    0 -0.00000000000E+00 -0.00000000000E+00 -0.45593999997E+02  0.45594000000E+02  0.51100000000E-03 0.  1.
    9900012    2    1    2    0    0 -0.21859314509E+02 -0.16765068762E+02 -0.16056885931E+02  0.59301941178E+02  0.49999994803E+02 0.  0.
         12    1    1    2    0    0  0.21859314509E+02  0.16765068762E+02  0.16056885931E+02  0.31886058822E+02  0.00000000000E+00 0. -1.
         11    1    3    3    0    0  0.76660830990E+01 -0.44734778799E+01 -0.62794166620E+01  0.10872529986E+02  0.51100000000E-03 0. -1.
        -11    1    3    3    0    0 -0.27250478140E+02  0.55490264760E+01 -0.12036985459E+02  0.30302958155E+02  0.51100000000E-03 0.  1.
         12    1    3    3    0    0 -0.22749194672E+01 -0.17840617358E+02  0.22595161902E+01  0.18126453037E+02  0.00000000000E+00 0. -1.
</event>
<event>
 7    1  0.5832130E-012  0.5930192E+02  0.7816164E-02  0.1266605E+00
        -11   -1    0    0    0    0  0.00000000000E+00  0.00000000000E+00  0.45593999997E+02  0.45594000000E+02  0.51100000000E-03 0. -1.
         11   -1    0    0    0    0 -0.00000000000E+00 -0.00000000000E+00 -0.45593999997E+02  0.45594000000E+02  0.51100000000E-03 0.  1.
    9900012    2    1    2    0    0 -0.24534960925E+02  0.12501949090E+02  0.16076668145E+02  0.59301916871E+02  0.49999950473E+02 0.  0.
         12    1    1    2    0    0  0.24534960925E+02 -0.12501949090E+02 -0.16076668145E+02  0.31886083129E+02  0.00000000000E+00 0. -1.
         11    1    3    3    0    0 -0.76696528395E+01  0.30968878941E+01  0.13387042374E+02  0.15736174665E+02  0.51100000000E-03 0. -1.
        -11    1    3    3    0    0 -0.14535315743E+02 -0.90935096236E+01  0.13669963892E+02  0.21927955538E+02  0.51100000000E-03 0.  1.
         12    1    3    3    0    0 -0.23299923419E+01  0.18498570819E+02 -0.10980338120E+02  0.21637786668E+02  0.00000000000E+00 0. -1.
</event>
<event>
 7    1  0.5832130E-012  0.5930193E+02  0.7816164E-02  0.1266605E+00
        -11   -1    0    0    0    0  0.00000000000E+00  0.00000000000E+00  0.45593999997E+02  0.45594000000E+02  0.51100000000E-03 0. -1.
         11   -1    0    0    0    0 -0.00000000000E+00 -0.00000000000E+00 -0.45593999997E+02  0.45594000000E+02  0.51100000000E-03 0.  1.
    9900012    2    1    2    0    0  0.12050977289E+02 -0.28861118029E+02 -0.62073602327E+01  0.59301929239E+02  0.49999973029E+02 0.  0.
         12    1    1    2    0    0 -0.12050977289E+02  0.28861118029E+02  0.62073602327E+01  0.31886070761E+02  0.00000000000E+00 0. -1.
         11    1    3    3    0    0 -0.10136563464E+02 -0.13959055442E+02 -0.14958194030E+02  0.22833149511E+02  0.51100000000E-03 0. -1.
        -11    1    3    3    0    0  0.24814561404E+01 -0.12461889642E+02 -0.34458464875E+01  0.13165491875E+02  0.51100000000E-03 0.  1.
         12    1    3    3    0    0  0.19706084613E+02 -0.24401729454E+01  0.12196680285E+02  0.23303287853E+02  0.00000000000E+00 0. -1.
</event>
<event>
 7    1  0.5832130E-012  0.5930195E+02  0.7816164E-02  0.1266605E+00
        -11   -1    0    0    0    0  0.00000000000E+00  0.00000000000E+00  0.45593999997E+02  0.45594000000E+02  0.51100000000E-03 0. -1.
         11   -1    0    0    0    0 -0.00000000000E+00 -0.00000000000E+00 -0.45593999997E+02  0.45594000000E+02  0.51100000000E-03 0.  1.
    9900012    2    1    2    0    0 -0.12585064001E+02  0.29035605083E+02  0.39076523433E+01  0.59301953753E+02  0.50000017736E+02 0.  0.
         12    1    1    2    0    0  0.12585064001E+02 -0.29035605083E+02 -0.39076523433E+01  0.31886046247E+02  0.00000000000E+00 0. -1.
         11    1    3    3    0    0  0.43011627340E+01  0.15658818321E+02  0.15610008935E+02  0.22524896699E+02  0.51100000000E-03 0. -1.
        -11    1    3    3    0    0  0.68439973081E+01  0.63893552538E+01  0.11083669054E+00  0.93635700855E+01  0.51100000000E-03 0.  1.
        -12    1    3    3    0    0 -0.23730224044E+02  0.69874315074E+01 -0.11813193282E+02  0.27413486968E+02  0.00000000000E+00 0.  1.
</event>
<event>
 7    1  0.5832130E-012  0.5930192E+02  0.7816164E-02  0.1266605E+00
        -11   -1    0    0    0    0  0.00000000000E+00  0.00000000000E+00  0.45593999997E+02  0.45594000000E+02  0.51100000000E-03 0. -1.
         11   -1    0    0    0    0 -0.00000000000E+00 -0.00000000000E+00 -0.45593999997E+02  0.45594000000E+02  0.51100000000E-03 0.  1.
    9900012    2    1    2    0    0  0.30932605104E+02 -0.60829354842E+00 -0.77153296614E+01  0.59301915397E+02  0.49999947784E+02 0.  0.
         12    1    1    2    0    0 -0.30932605104E+02  0.60829354842E+00  0.77153296614E+01  0.31886084603E+02  0.00000000000E+00 0. -1.
         11    1    3    3    0    0  0.15320790460E+02  0.14093629592E+02  0.11745811057E+01  0.20850339480E+02  0.51100000000E-03 0. -1.
        -11    1    3    3    0    0  0.12280632620E+02 -0.21229122587E+02  0.27687940871E+01  0.24681081911E+02  0.51100000000E-03 0.  1.
         12    1    3    3    0    0  0.33311820237E+01  0.65271994466E+01 -0.11658704854E+02  0.13770494006E+02  0.00000000000E+00 0. -1.
</event>
<event>
 7    1  0.5832130E-012  0.5930198E+02  0.7816164E-02  0.1266605E+00
        -11   -1    0    0    0    0  0.00000000000E+00  0.00000000000E+00  0.45593999997E+02  0.45594000000E+02  0.51100000000E-03 0. -1.
         11   -1    0    0    0    0 -0.00000000000E+00 -0.00000000000E+00 -0.45593999997E+02  0.45594000000E+02  0.51100000000E-03 0.  1.
    9900012    2    1    2    0    0  0.11180575023E+02  0.15372530059E+02 -0.25600743359E+02  0.59301984276E+02  0.50000073403E+02 0.  0.
         12    1    1    2    0    0 -0.11180575023E+02 -0.15372530059E+02  0.25600743359E+02  0.31886015724E+02  0.00000000000E+00 0. -1.
         11    1    3    3    0    0  0.16935447019E+02  0.16052549636E+01 -0.39163991605E+01  0.17456356775E+02  0.51100000000E-03 0. -1.
        -11    1    3    3    0    0  0.88442669746E+01  0.16468284058E+02 -0.19191962152E+02  0.26790984484E+02  0.51100000000E-03 0.  1.
        -12    1    3    3    0    0 -0.14599138970E+02 -0.27010089626E+01 -0.24923820463E+01  0.15054643016E+02  0.00000000000E+00 0.  1.
</event>
<event>
 7    1  0.5832130E-012  0.5930193E+02  0.7816164E-02  0.1266605E+00
        -11   -1    0    0    0    0  0.00000000000E+00  0.00000000000E+00  0.45593999997E+02  0.45594000000E+02  0.51100000000E-03 0.  1.
         11   -1    0    0    0    0 -0.00000000000E+00 -0.00000000000E+00 -0.45593999997E+02  0.45594000000E+02  0.51100000000E-03 0. -1.
    9900012    2    1    2    0    0  0.27763087700E+02  0.97808359485E+01  0.12258366598E+02  0.59301931849E+02  0.49999977788E+02 0.  0.
         12    1    1    2    0    0 -0.27763087700E+02 -0.97808359485E+01 -0.12258366598E+02  0.31886068151E+02  0.00000000000E+00 0. -1.
         11    1    3    3    0    0  0.21592249075E+02  0.84641449547E+01 -0.14041563667E+01  0.23234427587E+02  0.51100000000E-03 0. -1.
        -11    1    3    3    0    0  0.11752159590E+02  0.14314473961E+02  0.40308987136E+01  0.18954302005E+02  0.51100000000E-03 0.  1.
        -12    1    3    3    0    0 -0.55813209639E+01 -0.12997782967E+02  0.96316242510E+01  0.17113202257E+02  0.00000000000E+00 0.  1.
</event>
<event>
 7    1  0.5832130E-012  0.5930196E+02  0.7816164E-02  0.1266605E+00
        -11   -1    0    0    0    0  0.00000000000E+00  0.00000000000E+00  0.45593999997E+02  0.45594000000E+02  0.51100000000E-03 0. -1.
         11   -1    0    0    0    0 -0.00000000000E+00 -0.00000000000E+00 -0.45593999997E+02  0.45594000000E+02  0.51100000000E-03 0.  1.
    9900012    2    1    2    0    0 -0.92242131779E+01 -0.30226830647E+02 -0.42393783117E+01  0.59301957157E+02  0.50000023944E+02 0.  0.
         12    1    1    2    0    0  0.92242131779E+01  0.30226830647E+02  0.42393783117E+01  0.31886042843E+02  0.00000000000E+00 0. -1.
         11    1    3    3    0    0  0.32416159374E+00 -0.13104539986E+01 -0.13100726245E+02  0.13170094868E+02  0.51100000000E-03 0. -1.
        -11    1    3    3    0    0 -0.75381372885E+01  0.40822140395E+01 -0.53953580911E+01  0.10129060886E+02  0.51100000000E-03 0.  1.
         12    1    3    3    0    0 -0.20102374832E+01 -0.32998590688E+02  0.14256706025E+02  0.36002801402E+02  0.00000000000E+00 0. -1.
</event>
<event>
 7    1  0.5832130E-012  0.5930194E+02  0.7816164E-02  0.1266605E+00
        -11   -1    0    0    0    0  0.00000000000E+00  0.00000000000E+00  0.45593999997E+02  0.45594000000E+02  0.51100000000E-03 0. -1.
         11   -1    0    0    0    0 -0.00000000000E+00 -0.00000000000E+00 -0.45593999997E+02  0.45594000000E+02  0.51100000000E-03 0.  1.
    9900012    2    1    2    0    0  0.31210950431E+02 -0.62366149108E+01 -0.19241432691E+01  0.59301935338E+02  0.49999984152E+02 0.  0.
         12    1    1    2    0    0 -0.31210950431E+02  0.62366149108E+01  0.19241432691E+01  0.31886064662E+02  0.00000000000E+00 0. -1.
         11    1    3    3    0    0  0.28953660418E+02 -0.17878648635E+02 -0.22055034269E+01  0.34100216630E+02  0.51100000000E-03 0.  1.
        -11    1    3    3    0    0 -0.61489291354E+01 -0.21217840456E+01 -0.50290623772E+01  0.82220901055E+01  0.51100000000E-03 0. -1.
        -12    1    3    3    0    0  0.84062191478E+01  0.13763817770E+02  0.53104225351E+01  0.16979628602E+02  0.00000000000E+00 0.  1.
</event>
<event>
 7    1  0.5832130E-012  0.5930196E+02  0.7816164E-02  0.1266605E+00
        -11   -1    0    0    0    0  0.00000000000E+00  0.00000000000E+00  0.45593999997E+02  0.45594000000E+02  0.51100000000E-03 0. -1.
         11   -1    0    0    0    0 -0.00000000000E+00 -0.00000000000E+00 -0.45593999997E+02  0.45594000000E+02  0.51100000000E-03 0.  1.
    9900012    2    1    2    0    0  0.27548170534E+02 -0.15701392059E+02 -0.33592101059E+01  0.59301957523E+02  0.50000024611E+02 0.  0.
         12    1    1    2    0    0 -0.27548170534E+02  0.15701392059E+02  0.33592101059E+01  0.31886042477E+02  0.00000000000E+00 0. -1.
         11    1    3    3    0    0  0.20649505352E+02 -0.64733639517E+01  0.17956852052E+02  0.28120367139E+02  0.51100000000E-03 0. -1.
        -11    1    3    3    0    0  0.70164099124E+01  0.48461593905E+01 -0.98440424210E+01  0.13023841228E+02  0.51100000000E-03 0.  1.
        -12    1    3    3    0    0 -0.11774473094E+00 -0.14074187498E+02 -0.11472019737E+02  0.18157749155E+02  0.00000000000E+00 0.  1.
</event>
<event>
 7    1  0.5832130E-012  0.5930206E+02  0.7816164E-02  0.1266604E+00
        -11   -1    0    0    0    0  0.00000000000E+00  0.00000000000E+00  0.45593999997E+02  0.45594000000E+02  0.51100000000E-03 0.  1.
         11   -1    0    0    0    0 -0.00000000000E+00 -0.00000000000E+00 -0.45593999997E+02  0.45594000000E+02  0.51100000000E-03 0. -1.
    9900012    2    1    2    0    0 -0.29767793740E+02  0.33228335366E+01 -0.10933904257E+02  0.59302062203E+02  0.50000215523E+02 0.  0.
         12    1    1    2    0    0  0.29767793740E+02 -0.33228335366E+01  0.10933904257E+02  0.31885937797E+02  0.00000000000E+00 0. -1.
         11    1    3    3    0    0 -0.38641554277E-01 -0.85037331964E+01 -0.61892323256E+01  0.10517678855E+02  0.51100000000E-03 0. -1.
        -11    1    3    3    0    0 -0.15834508049E+02  0.24806971606E+02 -0.44734801443E+01  0.29767927544E+02  0.51100000000E-03 0.  1.
         12    1    3    3    0    0 -0.13894644137E+02 -0.12980404873E+02 -0.27119178702E+00  0.19016455805E+02  0.00000000000E+00 0. -1.
</event>
<event>
 7    1  0.5832130E-012  0.5930192E+02  0.7816164E-02  0.1266605E+00
        -11   -1    0    0    0    0  0.00000000000E+00  0.00000000000E+00  0.45593999997E+02  0.45594000000E+02  0.51100000000E-03 0.  1.
         11   -1    0    0    0    0 -0.00000000000E+00 -0.00000000000E+00 -0.45593999997E+02  0.45594000000E+02  0.51100000000E-03 0. -1.
    9900012    2    1    2    0    0  0.60245115439E+01 -0.29005432212E+02 -0.11794580082E+02  0.59301922216E+02  0.49999960220E+02 0.  0.
         12    1    1    2    0    0 -0.60245115439E+01  0.29005432212E+02  0.11794580082E+02  0.31886077784E+02  0.00000000000E+00 0. -1.
         11    1    3    3    0    0  0.69827058824E+01 -0.19515692985E+02  0.70278780943E+01  0.21886331920E+02  0.51100000000E-03 0. -1.
        -11    1    3    3    0    0  0.10043433043E+02  0.44375222011E+01  0.73591570204E+00  0.11004713660E+02  0.51100000000E-03 0.  1.
         12    1    3    3    0    0 -0.11001627381E+02 -0.13927261428E+02 -0.19558373878E+02  0.26410876636E+02  0.00000000000E+00 0. -1.
</event>
<event>
 7    1  0.5832130E-012  0.5930193E+02  0.7816164E-02  0.1266605E+00
        -11   -1    0    0    0    0  0.00000000000E+00  0.00000000000E+00  0.45593999997E+02  0.45594000000E+02  0.51100000000E-03 0.  1.
         11   -1    0    0    0    0 -0.00000000000E+00 -0.00000000000E+00 -0.45593999997E+02  0.45594000000E+02  0.51100000000E-03 0. -1.
    9900012    2    1    2    0    0  0.71529351943E+01 -0.57252131559E+01  0.30541427609E+02  0.59301931757E+02  0.49999977622E+02 0.  0.
         12    1    1    2    0    0 -0.71529351943E+01  0.57252131559E+01 -0.30541427609E+02  0.31886068243E+02  0.00000000000E+00 0. -1.
         11    1    3    3    0    0  0.90398134646E+01 -0.65531746351E+01 -0.29916743107E+01  0.11559084770E+02  0.51100000000E-03 0. -1.
        -11    1    3    3    0    0 -0.30142790324E+01 -0.13008795720E+02  0.22820926633E+01  0.13547051020E+02  0.51100000000E-03 0.  1.
        -12    1    3    3    0    0  0.11274007622E+01  0.13836757199E+02  0.31251009257E+02  0.34195795967E+02  0.00000000000E+00 0.  1.
</event>
<event>
 7    1  0.5832130E-012  0.5930193E+02  0.7816164E-02  0.1266605E+00
        -11   -1    0    0    0    0  0.00000000000E+00  0.00000000000E+00  0.45593999997E+02  0.45594000000E+02  0.51100000000E-03 0. -1.
         11   -1    0    0    0    0 -0.00000000000E+00 -0.00000000000E+00 -0.45593999997E+02  0.45594000000E+02  0.51100000000E-03 0.  1.
    9900012    2    1    2    0    0  0.29796087312E+01  0.25239323076E+02 -0.19256688900E+02  0.59301928355E+02  0.49999971417E+02 0.  0.
         12    1    1    2    0    0 -0.29796087312E+01 -0.25239323076E+02  0.19256688900E+02  0.31886071645E+02  0.00000000000E+00 0. -1.
         11    1    3    3    0    0  0.54758741292E+01  0.12247170880E+02 -0.73849365131E+01  0.15313904780E+02  0.51100000000E-03 0. -1.
        -11    1    3    3    0    0  0.17630207710E+02  0.22125368947E+01 -0.11477685490E+02  0.21153174889E+02  0.51100000000E-03 0.  1.
         12    1    3    3    0    0 -0.20126473108E+02  0.10779615302E+02 -0.39406689672E+00  0.22834848687E+02  0.00000000000E+00 0. -1.
</event>
<event>
 7    1  0.5832130E-012  0.5930194E+02  0.7816164E-02  0.1266605E+00
        -11   -1    0    0    0    0  0.00000000000E+00  0.00000000000E+00  0.45593999997E+02  0.45594000000E+02  0.51100000000E-03 0.  1.
         11   -1    0    0    0    0 -0.00000000000E+00 -0.00000000000E+00 -0.45593999997E+02  0.45594000000E+02  0.51100000000E-03 0. -1.
    9900012    2    1    2    0    0 -0.12319994530E+02  0.25651734661E+02  0.14384966680E+02  0.59301936858E+02  0.49999986923E+02 0.  0.
         12    1    1    2    0    0  0.12319994530E+02 -0.25651734661E+02 -0.14384966680E+02  0.31886063142E+02  0.00000000000E+00 0. -1.
         11    1    3    3    0    0  0.67927446097E+01  0.69548333045E+01 -0.20744522790E+01  0.99405451634E+01  0.51100000000E-03 0. -1.
        -11    1    3    3    0    0  0.81184050740E+01  0.15277189636E+02  0.13122854389E+02  0.21714288653E+02  0.51100000000E-03 0.  1.
        -12    1    3    3    0    0 -0.27231144214E+02  0.34197117205E+01  0.33365645700E+01  0.27647103041E+02  0.00000000000E+00 0.  1.
</event>
<event>
 7    1  0.5832130E-012  0.5930194E+02  0.7816164E-02  0.1266605E+00
        -11   -1    0    0    0    0  0.00000000000E+00  0.00000000000E+00  0.45593999997E+02  0.45594000000E+02  0.51100000000E-03 0. -1.
         11   -1    0    0    0    0 -0.00000000000E+00 -0.00000000000E+00 -0.45593999997E+02  0.45594000000E+02  0.51100000000E-03 0.  1.
    9900012    2    1    2    0    0 -0.16619571931E+02 -0.17560303147E+02 -0.20788124998E+02  0.59301944133E+02  0.50000000192E+02 0.  0.
         12    1    1    2    0    0  0.16619571931E+02  0.17560303147E+02  0.20788124998E+02  0.31886055867E+02  0.00000000000E+00 0. -1.
         11    1    3    3    0    0 -0.63006788552E+01  0.63302114062E+01  0.55301802527E+01  0.10504904777E+02  0.51100000000E-03 0. -1.
        -11    1    3    3    0    0 -0.10291166128E+02 -0.20037645754E+02 -0.33662179201E+02  0.40503798050E+02  0.51100000000E-03 0.  1.
         12    1    3    3    0    0 -0.27726947709E-01 -0.38528687995E+01  0.73438739502E+01  0.82932413064E+01  0.00000000000E+00 0. -1.
</event>
<event>
 7    1  0.5832130E-012  0.5930189E+02  0.7816164E-02  0.1266605E+00
        -11   -1    0    0    0    0  0.00000000000E+00  0.00000000000E+00  0.45593999997E+02  0.45594000000E+02  0.51100000000E-03 0.  1.
         11   -1    0    0    0    0 -0.00000000000E+00 -0.00000000000E+00 -0.45593999997E+02  0.45594000000E+02  0.51100000000E-03 0. -1.
    9900012    2    1    2    0    0 -0.79112362088E+01  0.10024727410E+01  0.30872828085E+02  0.59301888229E+02  0.49999898236E+02 0.  0.
         12    1    1    2    0    0  0.79112362088E+01 -0.10024727410E+01 -0.30872828085E+02  0.31886111771E+02  0.00000000000E+00 0. -1.
         11    1    3    3    0    0  0.79031281591E+01 -0.12027637129E+02  0.13756837232E+02  0.19909145147E+02  0.51100000000E-03 0. -1.
        -11    1    3    3    0    0  0.60398228497E+01  0.73357619280E+00 -0.34210776955E+01  0.69800692651E+01  0.51100000000E-03 0.  1.
        -12    1    3    3    0    0 -0.21854187218E+02  0.12296533677E+02  0.20537068548E+02  0.32412673817E+02  0.00000000000E+00 0.  1.
</event>
<event>
 7    1  0.5832130E-012  0.5930192E+02  0.7816164E-02  0.1266605E+00
        -11   -1    0    0    0    0  0.00000000000E+00  0.00000000000E+00  0.45593999997E+02  0.45594000000E+02  0.51100000000E-03 0.  1.
         11   -1    0    0    0    0 -0.00000000000E+00 -0.00000000000E+00 -0.45593999997E+02  0.45594000000E+02  0.51100000000E-03 0. -1.
    9900012    2    1    2    0    0 -0.67741348697E+01  0.22137465345E+02  0.21926374015E+02  0.59301919141E+02  0.49999954612E+02 0.  0.
         12    1    1    2    0    0  0.67741348697E+01 -0.22137465345E+02 -0.21926374015E+02  0.31886080859E+02  0.00000000000E+00 0. -1.
         11    1    3    3    0    0 -0.52785690476E+01  0.12317170199E+01 -0.24268312107E+01  0.59388490462E+01  0.51100000000E-03 0. -1.
        -11    1    3    3    0    0 -0.74388637033E+01  0.40321046070E+01  0.32588348441E+02  0.33668902790E+02  0.51100000000E-03 0.  1.
         12    1    3    3    0    0  0.59432978813E+01  0.16873643718E+02 -0.82351432148E+01  0.19694167304E+02  0.00000000000E+00 0. -1.
</event>
<event>
 7    1  0.5832130E-012  0.5930195E+02  0.7816164E-02  0.1266605E+00
        -11   -1    0    0    0    0  0.00000000000E+00  0.00000000000E+00  0.45593999997E+02  0.45594000000E+02  0.51100000000E-03 0.  1.
         11   -1    0    0    0    0 -0.00000000000E+00 -0.00000000000E+00 -0.45593999997E+02  0.45594000000E+02  0.51100000000E-03 0. -1.
    9900012    2    1    2    0    0  0.29477685076E+01 -0.17681137098E+02  0.26370595005E+02  0.59301949301E+02  0.50000009617E+02 0.  0.
         12    1    1    2    0    0 -0.29477685076E+01  0.17681137098E+02 -0.26370595005E+02  0.31886050699E+02  0.00000000000E+00 0. -1.
         11    1    3    3    0    0  0.42297266612E-02 -0.10106736578E+02 -0.64192493724E+01  0.11973007347E+02  0.51100000000E-03 0. -1.
        -11    1    3    3    0    0 -0.74705571115E+01  0.83713511298E+01  0.24147386764E+01  0.11476920599E+02  0.51100000000E-03 0.  1.
        -12    1    3    3    0    0  0.10414095893E+02 -0.15945751649E+02  0.30375105701E+02  0.35852021356E+02  0.00000000000E+00 0.  1.
</event>
<event>
 7    1  0.5832130E-012  0.5930183E+02  0.7816164E-02  0.1266605E+00
        -11   -1    0    0    0    0  0.00000000000E+00  0.00000000000E+00  0.45593999997E+02  0.45594000000E+02  0.51100000000E-03 0.  1.
         11   -1    0    0    0    0 -0.00000000000E+00 -0.00000000000E+00 -0.45593999997E+02  0.45594000000E+02  0.51100000000E-03 0. -1.
    9900012    2    1    2    0    0  0.31327948343E+02 -0.25562270873E+01  0.53622141623E+01  0.59301827683E+02  0.49999787815E+02 0.  0.
         12    1    1    2    0    0 -0.31327948343E+02  0.25562270873E+01 -0.53622141623E+01  0.31886172317E+02  0.00000000000E+00 0. -1.
         11    1    3    3    0    0 -0.47154627336E+01  0.14182274495E+01  0.22680820392E+01  0.54213609259E+01  0.51100000000E-03 0. -1.
        -11    1    3    3    0    0  0.19136841490E+02  0.16220884750E+02  0.94143447417E+01  0.26794881815E+02  0.51100000000E-03 0.  1.
         12    1    3    3    0    0  0.16906569586E+02 -0.20195339287E+02 -0.63202126187E+01  0.27085584942E+02  0.00000000000E+00 0. -1.
</event>
<event>
 7    1  0.5832130E-012  0.5930191E+02  0.7816164E-02  0.1266605E+00
        -11   -1    0    0    0    0  0.00000000000E+00  0.00000000000E+00  0.45593999997E+02  0.45594000000E+02  0.51100000000E-03 0. -1.
         11   -1    0    0    0    0 -0.00000000000E+00 -0.00000000000E+00 -0.45593999997E+02  0.45594000000E+02  0.51100000000E-03 0.  1.
    9900012    2    1    2    0    0  0.24212930846E+01 -0.10680457762E+01 -0.31776081672E+02  0.59301909797E+02  0.49999937572E+02 0.  0.
         12    1    1    2    0    0 -0.24212930846E+01  0.10680457762E+01  0.31776081672E+02  0.31886090203E+02  0.00000000000E+00 0. -1.
         11    1    3    3    0    0  0.91589583892E+01  0.19809864962E+02 -0.18908680174E+02  0.28876555452E+02  0.51100000000E-03 0. -1.
        -11    1    3    3    0    0 -0.42583328348E+01  0.18381307538E+01 -0.13190570283E+01  0.48220363857E+01  0.51100000000E-03 0.  1.
        -12    1    3    3    0    0 -0.24793324698E+01 -0.22716041492E+02 -0.11548344469E+02  0.25603317960E+02  0.00000000000E+00 0.  1.
</event>
<event>
 7    1  0.5832130E-012  0.5930194E+02  0.7816164E-02  0.1266605E+00
        -11   -1    0    0    0    0  0.00000000000E+00  0.00000000000E+00  0.45593999997E+02  0.45594000000E+02  0.51100000000E-03 0. -1.
         11   -1    0    0    0    0 -0.00000000000E+00 -0.00000000000E+00 -0.45593999997E+02  0.45594000000E+02  0.51100000000E-03 0.  1.
    9900012    2    1    2    0    0 -0.19399573227E+02 -0.18960314701E+01 -0.25234554590E+02  0.59301935300E+02  0.49999984082E+02 0.  0.
         12    1    1    2    0    0  0.19399573227E+02  0.18960314701E+01  0.25234554590E+02  0.31886064700E+02  0.00000000000E+00 0. -1.
         11    1    3    3    0    0 -0.64337777386E+01  0.97912868881E+01  0.64437439220E+01  0.13371037017E+02  0.51100000000E-03 0. -1.
        -11    1    3    3    0    0 -0.12137020296E+02  0.10932641624E+01 -0.46819564633E+00  0.12195150495E+02  0.51100000000E-03 0.  1.
        -12    1    3    3    0    0 -0.82877519327E+00 -0.12780582521E+02 -0.31210102865E+02  0.33735747787E+02  0.00000000000E+00 0.  1.
</event>
<event>
 7    1  0.5832130E-012  0.5930188E+02  0.7816164E-02  0.1266605E+00
        -11   -1    0    0    0    0  0.00000000000E+00  0.00000000000E+00  0.45593999997E+02  0.45594000000E+02  0.51100000000E-03 0.  1.
         11   -1    0    0    0    0 -0.00000000000E+00 -0.00000000000E+00 -0.45593999997E+02  0.45594000000E+02  0.51100000000E-03 0. -1.
    9900012    2    1    2    0    0  0.95879901066E-01  0.13965680801E+02  0.28664880012E+02  0.59301877951E+02  0.49999879492E+02 0.  0.
         12    1    1    2    0    0 -0.95879901066E-01 -0.13965680801E+02 -0.28664880012E+02  0.31886122049E+02  0.00000000000E+00 0. -1.
         11    1    3    3    0    0  0.53843472971E+01 -0.13035555094E+02  0.77287833893E+01  0.16082629926E+02  0.51100000000E-03 0. -1.
        -11    1    3    3    0    0 -0.10259802861E+02  0.64266178805E+01 -0.17039037794E+01  0.12225721266E+02  0.51100000000E-03 0.  1.
        -12    1    3    3    0    0  0.49713354646E+01  0.20574618014E+02  0.22640000403E+02  0.30993526759E+02  0.00000000000E+00 0.  1.
</event>
<event>
 7    1  0.5832130E-012  0.5930194E+02  0.7816164E-02  0.1266605E+00
        -11   -1    0    0    0    0  0.00000000000E+00  0.00000000000E+00  0.45593999997E+02  0.45594000000E+02  0.51100000000E-03 0.  1.
         11   -1    0    0    0    0 -0.00000000000E+00 -0.00000000000E+00 -0.45593999997E+02  0.45594000000E+02  0.51100000000E-03 0. -1.
    9900012    2    1    2    0    0 -0.17411401959E+02  0.18513905216E+02  0.19256143115E+02  0.59301942668E+02  0.49999997520E+02 0.  0.
         12    1    1    2    0    0  0.17411401959E+02 -0.18513905216E+02 -0.19256143115E+02  0.31886057332E+02  0.00000000000E+00 0. -1.
         11    1    3    3    0    0  0.45730422687E+01 -0.13035729765E+01  0.17388755028E+02  0.18027224406E+02  0.51100000000E-03 0. -1.
        -11    1    3    3    0    0 -0.43655961942E+00  0.13272803800E+02  0.10730586861E+02  0.17073470639E+02  0.51100000000E-03 0.  1.
         12    1    3    3    0    0 -0.21547884609E+02  0.65446743923E+01 -0.88631987743E+01  0.24201247623E+02  0.00000000000E+00 0. -1.
</event>
<event>
 7    1  0.5832130E-012  0.5930199E+02  0.7816164E-02  0.1266605E+00
        -11   -1    0    0    0    0  0.00000000000E+00  0.00000000000E+00  0.45593999997E+02  0.45594000000E+02  0.51100000000E-03 0.  1.
         11   -1    0    0    0    0 -0.00000000000E+00 -0.00000000000E+00 -0.45593999997E+02  0.45594000000E+02  0.51100000000E-03 0. -1.
    9900012    2    1    2    0    0 -0.35078596077E+01 -0.43852712139E+01  0.31387612665E+02  0.59301985645E+02  0.50000075900E+02 0.  0.
         12    1    1    2    0    0  0.35078596077E+01  0.43852712139E+01 -0.31387612665E+02  0.31886014355E+02  0.00000000000E+00 0. -1.
         11    1    3    3    0    0 -0.19946863094E+02 -0.63881081139E+00  0.25917581905E+01  0.20124677322E+02  0.51100000000E-03 0. -1.
        -11    1    3    3    0    0  0.53087930354E+01 -0.11454702269E+02  0.10524053389E+02  0.16436215731E+02  0.51100000000E-03 0.  1.
        -12    1    3    3    0    0  0.11130210451E+02  0.77082418668E+01  0.18271801085E+02  0.22741092591E+02  0.00000000000E+00 0.  1.
</event>
<event>
 7    1  0.5832130E-012  0.5930194E+02  0.7816164E-02  0.1266605E+00
        -11   -1    0    0    0    0  0.00000000000E+00  0.00000000000E+00  0.45593999997E+02  0.45594000000E+02  0.51100000000E-03 0.  1.
         11   -1    0    0    0    0 -0.00000000000E+00 -0.00000000000E+00 -0.45593999997E+02  0.45594000000E+02  0.51100000000E-03 0. -1.
    9900012    2    1    2    0    0 -0.87213956944E+01 -0.25118886347E+02  0.17598280370E+02  0.59301942449E+02  0.49999997121E+02 0.  0.
         12    1    1    2    0    0  0.87213956944E+01  0.25118886347E+02 -0.17598280370E+02  0.31886057551E+02  0.00000000000E+00 0. -1.
         11    1    3    3    0    0 -0.47008447884E+00 -0.27709288919E+01 -0.78762687783E+01  0.83626931350E+01  0.51100000000E-03 0. -1.
        -11    1    3    3    0    0 -0.14166774362E+02 -0.82856065431E+01 -0.47476859623E+01  0.17084767891E+02  0.51100000000E-03 0.  1.
        -12    1    3    3    0    0  0.59154631466E+01 -0.14062350912E+02  0.30222235110E+02  0.33854481424E+02  0.00000000000E+00 0.  1.
</event>
<event>
 7    1  0.5832130E-012  0.5930194E+02  0.7816164E-02  0.1266605E+00
        -11   -1    0    0    0    0  0.00000000000E+00  0.00000000000E+00  0.45593999997E+02  0.45594000000E+02  0.51100000000E-03 0. -1.
         11   -1    0    0    0    0 -0.00000000000E+00 -0.00000000000E+00 -0.45593999997E+02  0.45594000000E+02  0.51100000000E-03 0.  1.
    9900012    2    1    2    0    0  0.11254567687E+02  0.99275173172E+01 -0.28133606581E+02  0.59301941712E+02  0.49999995776E+02 0.  0.
         12    1    1    2    0    0 -0.11254567687E+02 -0.99275173172E+01  0.28133606581E+02  0.31886058288E+02  0.00000000000E+00 0. -1.
         11    1    3    3    0    0  0.13306105047E+01  0.89879949629E+01  0.44668560558E+01  0.10124592883E+02  0.51100000000E-03 0. -1.
        -11    1    3    3    0    0 -0.12964368458E+02  0.15848544100E+01 -0.17139932147E+02  0.21549104094E+02  0.51100000000E-03 0.  1.
        -12    1    3    3    0    0  0.22888325640E+02 -0.64533205563E+00 -0.15460530491E+02  0.27628244734E+02  0.00000000000E+00 0.  1.
</event>
<event>
 7    1  0.5832130E-012  0.5930158E+02  0.7816164E-02  0.1266606E+00
        -11   -1    0    0    0    0  0.00000000000E+00  0.00000000000E+00  0.45593999997E+02  0.45594000000E+02  0.51100000000E-03 0.  1.
         11   -1    0    0    0    0 -0.00000000000E+00 -0.00000000000E+00 -0.45593999997E+02  0.45594000000E+02  0.51100000000E-03 0. -1.
    9900012    2    1    2    0    0  0.73103494603E+01  0.17127009539E+02  0.25883746517E+02  0.59301576576E+02  0.49999329852E+02 0.  0.
         12    1    1    2    0    0 -0.73103494603E+01 -0.17127009539E+02 -0.25883746517E+02  0.31886423424E+02  0.00000000000E+00 0. -1.
         11    1    3    3    0    0  0.23829064426E+02  0.11537473486E+02  0.86768814127E+01  0.27860830518E+02  0.51100000000E-03 0. -1.
        -11    1    3    3    0    0  0.26864359369E+01  0.61358602977E+01  0.69860663223E+01  0.96783698295E+01  0.51100000000E-03 0.  1.
        -12    1    3    3    0    0 -0.19205150903E+02 -0.54632424444E+00  0.10220798782E+02  0.21762376229E+02  0.00000000000E+00 0.  1.
</event>
<event>
 7    1  0.5832130E-012  0.5930191E+02  0.7816164E-02  0.1266605E+00
        -11   -1    0    0    0    0  0.00000000000E+00  0.00000000000E+00  0.45593999997E+02  0.45594000000E+02  0.51100000000E-03 0. -1.
         11   -1    0    0    0    0 -0.00000000000E+00 -0.00000000000E+00 -0.45593999997E+02  0.45594000000E+02  0.51100000000E-03 0.  1.
    9900012    2    1    2    0    0 -0.26704266986E+02 -0.12133190254E+02 -0.12505614943E+02  0.59301912342E+02  0.49999942214E+02 0.  0.
         12    1    1    2    0    0  0.26704266986E+02  0.12133190254E+02  0.12505614943E+02  0.31886087658E+02  0.00000000000E+00 0. -1.
         11    1    3    3    0    0 -0.30306901735E+02 -0.12165325350E+02 -0.17414766380E+01  0.32703763924E+02  0.51100000000E-03 0. -1.
        -11    1    3    3    0    0 -0.40361316425E+01 -0.10670355791E+01  0.64785451596E+01  0.77071701167E+01  0.51100000000E-03 0.  1.
        -12    1    3    3    0    0  0.76387663915E+01  0.10991706744E+01 -0.17242683464E+02  0.18890978302E+02  0.00000000000E+00 0.  1.
</event>
<event>
 7    1  0.5832130E-012  0.5930203E+02  0.7816164E-02  0.1266604E+00
        -11   -1    0    0    0    0  0.00000000000E+00  0.00000000000E+00  0.45593999997E+02  0.45594000000E+02  0.51100000000E-03 0. -1.
         11   -1    0    0    0    0 -0.00000000000E+00 -0.00000000000E+00 -0.45593999997E+02  0.45594000000E+02  0.51100000000E-03 0.  1.
    9900012    2    1    2    0    0  0.89026265891E+00  0.30823593144E+02 -0.81134799982E+01  0.59302030992E+02  0.50000158601E+02 0.  0.
         12    1    1    2    0    0 -0.89026265891E+00 -0.30823593144E+02  0.81134799982E+01  0.31885969008E+02  0.00000000000E+00 0. -1.
         11    1    3    3    0    0 -0.11645635645E+02 -0.44291107772E+01 -0.58258142133E+01  0.13754198027E+02  0.51100000000E-03 0. -1.
        -11    1    3    3    0    0 -0.77184796778E+01  0.54546240261E+01 -0.10918153631E+00  0.94519718933E+01  0.51100000000E-03 0.  1.
        -12    1    3    3    0    0  0.20254377982E+02  0.29798079895E+02 -0.21784842485E+01  0.36095861071E+02  0.00000000000E+00 0.  1.
</event>
<event>
 7    1  0.5832130E-012  0.5930195E+02  0.7816164E-02  0.1266605E+00
        -11   -1    0    0    0    0  0.00000000000E+00  0.00000000000E+00  0.45593999997E+02  0.45594000000E+02  0.51100000000E-03 0.  1.
         11   -1    0    0    0    0 -0.00000000000E+00 -0.00000000000E+00 -0.45593999997E+02  0.45594000000E+02  0.51100000000E-03 0. -1.
    9900012    2    1    2    0    0 -0.22182502079E+02  0.22799411863E+02 -0.22007943172E+01  0.59301951712E+02  0.50000014014E+02 0.  0.
         12    1    1    2    0    0  0.22182502079E+02 -0.22799411863E+02  0.22007943172E+01  0.31886048288E+02  0.00000000000E+00 0. -1.
         11    1    3    3    0    0 -0.24936776404E+02  0.32593304928E+02 -0.86171964033E+01  0.41933547640E+02  0.51100000000E-03 0. -1.
        -11    1    3    3    0    0  0.59137185464E+01 -0.24423391696E+01 -0.97886151367E+00  0.64726546169E+01  0.51100000000E-03 0.  1.
        -12    1    3    3    0    0 -0.31594442215E+01 -0.73515538958E+01  0.73952635998E+01  0.10895749455E+02  0.00000000000E+00 0.  1.
</event>
<event>
 7    1  0.5832130E-012  0.5930196E+02  0.7816164E-02  0.1266605E+00
        -11   -1    0    0    0    0  0.00000000000E+00  0.00000000000E+00  0.45593999997E+02  0.45594000000E+02  0.51100000000E-03 0. -1.
         11   -1    0    0    0    0 -0.00000000000E+00 -0.00000000000E+00 -0.45593999997E+02  0.45594000000E+02  0.51100000000E-03 0.  1.
    9900012    2    1    2    0    0 -0.11434192265E+02 -0.26862768605E+02  0.12820696857E+02  0.59301962966E+02  0.50000034538E+02 0.  0.
         12    1    1    2    0    0  0.11434192265E+02  0.26862768605E+02 -0.12820696857E+02  0.31886037034E+02  0.00000000000E+00 0. -1.
         11    1    3    3    0    0 -0.40370028488E+01 -0.76471626647E+01 -0.64931555506E+01  0.10813767063E+02  0.51100000000E-03 0. -1.
        -11    1    3    3    0    0  0.30364966256E+01 -0.25538364284E+02  0.88231873629E-01  0.25718400945E+02  0.51100000000E-03 0.  1.
         12    1    3    3    0    0 -0.10433686042E+02  0.63227583440E+01  0.19225620534E+02  0.22769794957E+02  0.00000000000E+00 0. -1.
</event>
<event>
 7    1  0.5832130E-012  0.5930191E+02  0.7816164E-02  0.1266605E+00
        -11   -1    0    0    0    0  0.00000000000E+00  0.00000000000E+00  0.45593999997E+02  0.45594000000E+02  0.51100000000E-03 0. -1.
         11   -1    0    0    0    0 -0.00000000000E+00 -0.00000000000E+00 -0.45593999997E+02  0.45594000000E+02  0.51100000000E-03 0.  1.
    9900012    2    1    2    0    0  0.24144425250E+02  0.95584617346E+01 -0.18504189892E+02  0.59301913615E+02  0.49999944535E+02 0.  0.
         12    1    1    2    0    0 -0.24144425250E+02 -0.95584617346E+01  0.18504189892E+02  0.31886086385E+02  0.00000000000E+00 0. -1.
         11    1    3    3    0    0  0.46887649922E+01  0.17430545606E+02 -0.60414435357E+01  0.19034376205E+02  0.51100000000E-03 0. -1.
        -11    1    3    3    0    0 -0.24730509079E+01  0.79950270838E+01 -0.10071787844E+02  0.13094936025E+02  0.51100000000E-03 0.  1.
        -12    1    3    3    0    0  0.21928711166E+02 -0.15867110955E+02 -0.23909585125E+01  0.27172601385E+02  0.00000000000E+00 0.  1.
</event>
<event>
 7    1  0.5832130E-012  0.5930194E+02  0.7816164E-02  0.1266605E+00
        -11   -1    0    0    0    0  0.00000000000E+00  0.00000000000E+00  0.45593999997E+02  0.45594000000E+02  0.51100000000E-03 0.  1.
         11   -1    0    0    0    0 -0.00000000000E+00 -0.00000000000E+00 -0.45593999997E+02  0.45594000000E+02  0.51100000000E-03 0. -1.
    9900012    2    1    2    0    0 -0.24162977614E+02 -0.68201665804E+01  0.19655952201E+02  0.59301943231E+02  0.49999998547E+02 0.  0.
         12    1    1    2    0    0  0.24162977614E+02  0.68201665804E+01 -0.19655952201E+02  0.31886056769E+02  0.00000000000E+00 0. -1.
         11    1    3    3    0    0 -0.13945568874E+02 -0.24094913137E+02  0.10583651144E+02  0.29783508895E+02  0.51100000000E-03 0. -1.
        -11    1    3    3    0    0  0.35454082127E+01  0.34002461772E+01 -0.37193328024E+01  0.61615769261E+01  0.51100000000E-03 0.  1.
        -12    1    3    3    0    0 -0.13762816953E+02  0.13874500380E+02  0.12791633859E+02  0.23356857409E+02  0.00000000000E+00 0.  1.
</event>
<event>
 7    1  0.5832130E-012  0.5930195E+02  0.7816164E-02  0.1266605E+00
        -11   -1    0    0    0    0  0.00000000000E+00  0.00000000000E+00  0.45593999997E+02  0.45594000000E+02  0.51100000000E-03 0.  1.
         11   -1    0    0    0    0 -0.00000000000E+00 -0.00000000000E+00 -0.45593999997E+02  0.45594000000E+02  0.51100000000E-03 0. -1.
    9900012    2    1    2    0    0 -0.22246900948E+02  0.51610046252E+01  0.22252181204E+02  0.59301950717E+02  0.50000012199E+02 0.  0.
         12    1    1    2    0    0  0.22246900948E+02 -0.51610046252E+01 -0.22252181204E+02  0.31886049283E+02  0.00000000000E+00 0. -1.
         11    1    3    3    0    0  0.73030200110E+01  0.16281051522E+01  0.11226173355E+01  0.75660490093E+01  0.51100000000E-03 0. -1.
        -11    1    3    3    0    0 -0.59033954750E+01 -0.41203407074E+01  0.25503214650E+02  0.26499834781E+02  0.51100000000E-03 0.  1.
         12    1    3    3    0    0 -0.23646525485E+02  0.76532401804E+01 -0.43736507813E+01  0.25236066926E+02  0.00000000000E+00 0. -1.
</event>
<event>
 7    1  0.5832130E-012  0.5930195E+02  0.7816164E-02  0.1266605E+00
        -11   -1    0    0    0    0  0.00000000000E+00  0.00000000000E+00  0.45593999997E+02  0.45594000000E+02  0.51100000000E-03 0. -1.
         11   -1    0    0    0    0 -0.00000000000E+00 -0.00000000000E+00 -0.45593999997E+02  0.45594000000E+02  0.51100000000E-03 0.  1.
    9900012    2    1    2    0    0  0.19954566444E+02 -0.17938343517E+02 -0.17226469661E+02  0.59301950588E+02  0.50000011965E+02 0.  0.
         12    1    1    2    0    0 -0.19954566444E+02  0.17938343517E+02  0.17226469661E+02  0.31886049412E+02  0.00000000000E+00 0. -1.
         11    1    3    3    0    0  0.10925374726E+02  0.67927372299E+01  0.71285786257E+01  0.14707879706E+02  0.51100000000E-03 0. -1.
        -11    1    3    3    0    0  0.78255046881E+00 -0.15162299635E+02  0.20526553595E+01  0.15320610619E+02  0.51100000000E-03 0.  1.
        -12    1    3    3    0    0  0.82466412497E+01 -0.95687811116E+01 -0.26407703647E+02  0.29273460263E+02  0.00000000000E+00 0.  1.
</event>
<event>
 7    1  0.5832130E-012  0.5930194E+02  0.7816164E-02  0.1266605E+00
        -11   -1    0    0    0    0  0.00000000000E+00  0.00000000000E+00  0.45593999997E+02  0.45594000000E+02  0.51100000000E-03 0.  1.
         11   -1    0    0    0    0 -0.00000000000E+00 -0.00000000000E+00 -0.45593999997E+02  0.45594000000E+02  0.51100000000E-03 0. -1.
    9900012    2    1    2    0    0  0.48338957908E+01 -0.17898438542E+02  0.25942243176E+02  0.59301942988E+02  0.49999998104E+02 0.  0.
         12    1    1    2    0    0 -0.48338957908E+01  0.17898438542E+02 -0.25942243176E+02  0.31886057012E+02  0.00000000000E+00 0. -1.
         11    1    3    3    0    0  0.13824584325E+02 -0.28914754364E+01  0.17885259143E+02  0.22789520768E+02  0.51100000000E-03 0. -1.
        -11    1    3    3    0    0 -0.38474373097E-01  0.79043065116E+01  0.88955238323E+01  0.11899995219E+02  0.51100000000E-03 0.  1.
         12    1    3    3    0    0 -0.89522141615E+01 -0.22911269617E+02 -0.83853979884E+00  0.24612427001E+02  0.00000000000E+00 0. -1.
</event>
<event>
 7    1  0.5832130E-012  0.5930194E+02  0.7816164E-02  0.1266605E+00
        -11   -1    0    0    0    0  0.00000000000E+00  0.00000000000E+00  0.45593999997E+02  0.45594000000E+02  0.51100000000E-03 0. -1.
         11   -1    0    0    0    0 -0.00000000000E+00 -0.00000000000E+00 -0.45593999997E+02  0.45594000000E+02  0.51100000000E-03 0.  1.
    9900012    2    1    2    0    0  0.51979169466E+01  0.16238778877E+02 -0.26944468161E+02  0.59301942789E+02  0.49999997741E+02 0.  0.
         12    1    1    2    0    0 -0.51979169466E+01 -0.16238778877E+02  0.26944468161E+02  0.31886057211E+02  0.00000000000E+00 0. -1.
         11    1    3    3    0    0  0.11414454803E+02 -0.55725856037E+01 -0.24133553136E+02  0.27272181358E+02  0.51100000000E-03 0. -1.
        -11    1    3    3    0    0 -0.64656967853E+01 -0.24608721399E+01 -0.34860703300E+01  0.77468582803E+01  0.51100000000E-03 0.  1.
         12    1    3    3    0    0  0.24915892863E+00  0.24272236621E+02  0.67515530536E+00  0.24282903151E+02  0.00000000000E+00 0. -1.
</event>
<event>
 7    1  0.5832130E-012  0.5930188E+02  0.7816164E-02  0.1266605E+00
        -11   -1    0    0    0    0  0.00000000000E+00  0.00000000000E+00  0.45593999997E+02  0.45594000000E+02  0.51100000000E-03 0.  1.
         11   -1    0    0    0    0 -0.00000000000E+00 -0.00000000000E+00 -0.45593999997E+02  0.45594000000E+02  0.51100000000E-03 0. -1.
    9900012    2    1    2    0    0  0.29634137718E+02 -0.31478571214E+01  0.11341664126E+02  0.59301882835E+02  0.49999888399E+02 0.  0.
         12    1    1    2    0    0 -0.29634137718E+02  0.31478571214E+01 -0.11341664126E+02  0.31886117165E+02  0.00000000000E+00 0. -1.
         11    1    3    3    0    0  0.45949923783E+01  0.74264824908E+01  0.14853305622E+02  0.17230417444E+02  0.51100000000E-03 0. -1.
        -11    1    3    3    0    0  0.21496017847E+02 -0.18613532888E+02  0.60660838138E+01  0.29074727220E+02  0.51100000000E-03 0.  1.
         12    1    3    3    0    0  0.35431274927E+01  0.80391932762E+01 -0.95777253097E+01  0.12996738170E+02  0.00000000000E+00 0. -1.
</event>
<event>
 7    1  0.5832130E-012  0.5930196E+02  0.7816164E-02  0.1266605E+00
        -11   -1    0    0    0    0  0.00000000000E+00  0.00000000000E+00  0.45593999997E+02  0.45594000000E+02  0.51100000000E-03 0. -1.
         11   -1    0    0    0    0 -0.00000000000E+00 -0.00000000000E+00 -0.45593999997E+02  0.45594000000E+02  0.51100000000E-03 0.  1.
    9900012    2    1    2    0    0  0.17646963934E+02  0.18360074708E+02 -0.19188841799E+02  0.59301963417E+02  0.50000035362E+02 0.  0.
         12    1    1    2    0    0 -0.17646963934E+02 -0.18360074708E+02  0.19188841799E+02  0.31886036583E+02  0.00000000000E+00 0. -1.
         11    1    3    3    0    0  0.14100561805E+02  0.19331897958E+02 -0.11168430434E+02  0.26406097033E+02  0.51100000000E-03 0. -1.
        -11    1    3    3    0    0  0.74492537083E+01  0.84561890437E+01 -0.16258006096E+02  0.19781842089E+02  0.51100000000E-03 0.  1.
         12    1    3    3    0    0 -0.39028515796E+01 -0.94280122943E+01  0.82375947304E+01  0.13114024295E+02  0.00000000000E+00 0. -1.
</event>
<event>
 7    1  0.5832130E-012  0.5930196E+02  0.7816164E-02  0.1266605E+00
        -11   -1    0    0    0    0  0.00000000000E+00  0.00000000000E+00  0.45593999997E+02  0.45594000000E+02  0.51100000000E-03 0. -1.
         11   -1    0    0    0    0 -0.00000000000E+00 -0.00000000000E+00 -0.45593999997E+02  0.45594000000E+02  0.51100000000E-03 0.  1.
    9900012    2    1    2    0    0 -0.15134115584E+00 -0.42366640786E+01 -0.31602967460E+02  0.59301956361E+02  0.50000022494E+02 0.  0.
         12    1    1    2    0    0  0.15134115584E+00  0.42366640786E+01  0.31602967460E+02  0.31886043639E+02  0.00000000000E+00 0. -1.
         11    1    3    3    0    0 -0.19473340937E+02  0.56936195065E+01 -0.20493214487E+02  0.28837478229E+02  0.51100000000E-03 0. -1.
        -11    1    3    3    0    0 -0.29109421087E+01 -0.16748050112E+01 -0.49146781958E+01  0.59525303708E+01  0.51100000000E-03 0.  1.
         12    1    3    3    0    0  0.22232941890E+02 -0.82554785738E+01 -0.61950747771E+01  0.24511947762E+02  0.00000000000E+00 0. -1.
</event>
<event>
 7    1  0.5832130E-012  0.5930200E+02  0.7816164E-02  0.1266605E+00
        -11   -1    0    0    0    0  0.00000000000E+00  0.00000000000E+00  0.45593999997E+02  0.45594000000E+02  0.51100000000E-03 0.  1.
         11   -1    0    0    0    0 -0.00000000000E+00 -0.00000000000E+00 -0.45593999997E+02  0.45594000000E+02  0.51100000000E-03 0. -1.
    9900012    2    1    2    0    0  0.32373869016E+01 -0.78252736922E+01  0.30740874204E+02  0.59302001049E+02  0.50000103993E+02 0.  0.
         12    1    1    2    0    0 -0.32373869016E+01  0.78252736922E+01 -0.30740874204E+02  0.31885998951E+02  0.00000000000E+00 0. -1.
         11    1    3    3    0    0  0.46729814701E+01  0.85758047973E+01 -0.64994945456E+01  0.11731351727E+02  0.51100000000E-03 0. -1.
        -11    1    3    3    0    0 -0.41357634699E+01 -0.13413911596E+02  0.47309635146E+01  0.14812818092E+02  0.51100000000E-03 0.  1.
        -12    1    3    3    0    0  0.27001689014E+01 -0.29871668932E+01  0.32509405235E+02  0.32757831229E+02  0.00000000000E+00 0.  1.
</event>
<event>
 7    1  0.5832130E-012  0.5930194E+02  0.7816164E-02  0.1266605E+00
        -11   -1    0    0    0    0  0.00000000000E+00  0.00000000000E+00  0.45593999997E+02  0.45594000000E+02  0.51100000000E-03 0.  1.
         11   -1    0    0    0    0 -0.00000000000E+00 -0.00000000000E+00 -0.45593999997E+02  0.45594000000E+02  0.51100000000E-03 0. -1.
    9900012    2    1    2    0    0 -0.26813269910E+02  0.91246349193E+01  0.14646167879E+02  0.59301942871E+02  0.49999997891E+02 0.  0.
         12    1    1    2    0    0  0.26813269910E+02 -0.91246349193E+01 -0.14646167879E+02  0.31886057129E+02  0.00000000000E+00 0. -1.
         11    1    3    3    0    0 -0.11320892263E+02  0.26618316644E+01  0.54564778670E+01  0.12846053885E+02  0.51100000000E-03 0.  1.
        -11    1    3    3    0    0 -0.14458089221E+02 -0.10820930483E+02  0.19279060474E+02  0.26416113519E+02  0.51100000000E-03 0. -1.
         12    1    3    3    0    0 -0.10342884262E+01  0.17283733737E+02 -0.10089370462E+02  0.20039775467E+02  0.00000000000E+00 0. -1.
</event>
<event>
 7    1  0.5832130E-012  0.5930187E+02  0.7816164E-02  0.1266605E+00
        -11   -1    0    0    0    0  0.00000000000E+00  0.00000000000E+00  0.45593999997E+02  0.45594000000E+02  0.51100000000E-03 0.  1.
         11   -1    0    0    0    0 -0.00000000000E+00 -0.00000000000E+00 -0.45593999997E+02  0.45594000000E+02  0.51100000000E-03 0. -1.
    9900012    2    1    2    0    0  0.16814759202E+02 -0.22183024779E+02  0.15553220620E+02  0.59301868422E+02  0.49999862113E+02 0.  0.
         12    1    1    2    0    0 -0.16814759202E+02  0.22183024779E+02 -0.15553220620E+02  0.31886131578E+02  0.00000000000E+00 0. -1.
         11    1    3    3    0    0  0.26859915737E+02 -0.24954223298E+01  0.18908097858E+02  0.32942349201E+02  0.51100000000E-03 0. -1.
        -11    1    3    3    0    0  0.21557150354E+01 -0.33196500330E+01 -0.43992885013E+01  0.59178478549E+01  0.51100000000E-03 0.  1.
        -12    1    3    3    0    0 -0.12200871570E+02 -0.16367952416E+02  0.10444112628E+01  0.20441671366E+02  0.00000000000E+00 0.  1.
</event>
<event>
 7    1  0.5832130E-012  0.5930195E+02  0.7816164E-02  0.1266605E+00
        -11   -1    0    0    0    0  0.00000000000E+00  0.00000000000E+00  0.45593999997E+02  0.45594000000E+02  0.51100000000E-03 0. -1.
         11   -1    0    0    0    0 -0.00000000000E+00 -0.00000000000E+00 -0.45593999997E+02  0.45594000000E+02  0.51100000000E-03 0.  1.
    9900012    2    1    2    0    0 -0.22727887169E+02  0.10573804045E+02 -0.19706803082E+02  0.59301948585E+02  0.50000008311E+02 0.  0.
         12    1    1    2    0    0  0.22727887169E+02 -0.10573804045E+02  0.19706803082E+02  0.31886051415E+02  0.00000000000E+00 0. -1.
         11    1    3    3    0    0 -0.11941358773E+02 -0.35789120541E+01 -0.19475632392E+02  0.23123687383E+02  0.51100000000E-03 0. -1.
        -11    1    3    3    0    0 -0.18477462484E+02  0.18906418525E+01 -0.74392908029E+01  0.20008353115E+02  0.51100000000E-03 0.  1.
         12    1    3    3    0    0  0.76909340882E+01  0.12262074247E+02  0.72081201135E+01  0.16169908087E+02  0.00000000000E+00 0. -1.
</event>
<event>
 7    1  0.5832130E-012  0.5930187E+02  0.7816164E-02  0.1266605E+00
        -11   -1    0    0    0    0  0.00000000000E+00  0.00000000000E+00  0.45593999997E+02  0.45594000000E+02  0.51100000000E-03 0. -1.
         11   -1    0    0    0    0 -0.00000000000E+00 -0.00000000000E+00 -0.45593999997E+02  0.45594000000E+02  0.51100000000E-03 0.  1.
    9900012    2    1    2    0    0 -0.10247499402E+02 -0.24195065300E+02 -0.18064134917E+02  0.59301868232E+02  0.49999861766E+02 0.  0.
         12    1    1    2    0    0  0.10247499402E+02  0.24195065300E+02  0.18064134917E+02  0.31886131768E+02  0.00000000000E+00 0. -1.
         11    1    3    3    0    0  0.52808884163E+01 -0.94626365983E+01  0.23874513722E+01  0.11096359681E+02  0.51100000000E-03 0. -1.
        -11    1    3    3    0    0  0.55132052762E+01 -0.11292770760E+02 -0.23518312625E+02  0.26665204535E+02  0.51100000000E-03 0.  1.
        -12    1    3    3    0    0 -0.21041593094E+02 -0.34396579409E+01  0.30667263364E+01  0.21540304016E+02  0.00000000000E+00 0.  1.
</event>
<event>
 7    1  0.5832130E-012  0.5930189E+02  0.7816164E-02  0.1266605E+00
        -11   -1    0    0    0    0  0.00000000000E+00  0.00000000000E+00  0.45593999997E+02  0.45594000000E+02  0.51100000000E-03 0. -1.
         11   -1    0    0    0    0 -0.00000000000E+00 -0.00000000000E+00 -0.45593999997E+02  0.45594000000E+02  0.51100000000E-03 0.  1.
    9900012    2    1    2    0    0  0.14445617000E+02 -0.25317175115E+02 -0.12926295282E+02  0.59301885215E+02  0.49999892740E+02 0.  0.
         12    1    1    2    0    0 -0.14445617000E+02  0.25317175115E+02  0.12926295282E+02  0.31886114785E+02  0.00000000000E+00 0. -1.
         11    1    3    3    0    0  0.90828890031E+01 -0.97260433233E+01  0.16692523059E+01  0.13411979529E+02  0.51100000000E-03 0. -1.
        -11    1    3    3    0    0  0.10461804569E+02 -0.27944566318E+02 -0.75365697736E+01  0.30775770108E+02  0.51100000000E-03 0.  1.
        -12    1    3    3    0    0 -0.50990765715E+01  0.12353434526E+02 -0.70589778148E+01  0.15114135578E+02  0.00000000000E+00 0.  1.
</event>
<event>
 7    1  0.5832130E-012  0.5930195E+02  0.7816164E-02  0.1266605E+00
        -11   -1    0    0    0    0  0.00000000000E+00  0.00000000000E+00  0.45593999997E+02  0.45594000000E+02  0.51100000000E-03 0.  1.
         11   -1    0    0    0    0 -0.00000000000E+00 -0.00000000000E+00 -0.45593999997E+02  0.45594000000E+02  0.51100000000E-03 0. -1.
    9900012    2    1    2    0    0  0.15710700398E+02 -0.12822084272E+01  0.27717327586E+02  0.59301946403E+02  0.50000004333E+02 0.  0.
         12    1    1    2    0    0 -0.15710700398E+02  0.12822084272E+01 -0.27717327586E+02  0.31886053597E+02  0.00000000000E+00 0. -1.
         11    1    3    3    0    0  0.21735607222E+01  0.69723157528E+01  0.67972805825E+01  0.99770023929E+01  0.51100000000E-03 0. -1.
        -11    1    3    3    0    0  0.55193955682E+01 -0.45888833852E+01  0.33334565489E+02  0.34098604587E+02  0.51100000000E-03 0.  1.
         12    1    3    3    0    0  0.80177441080E+01 -0.36656407949E+01 -0.12414518486E+02  0.15226339424E+02  0.00000000000E+00 0. -1.
</event>
<event>
 7    1  0.5832130E-012  0.5930188E+02  0.7816164E-02  0.1266605E+00
        -11   -1    0    0    0    0  0.00000000000E+00  0.00000000000E+00  0.45593999997E+02  0.45594000000E+02  0.51100000000E-03 0.  1.
         11   -1    0    0    0    0 -0.00000000000E+00 -0.00000000000E+00 -0.45593999997E+02  0.45594000000E+02  0.51100000000E-03 0. -1.
    9900012    2    1    2    0    0 -0.14570723290E+01 -0.30553242995E+01  0.31705934455E+02  0.59301884746E+02  0.49999891884E+02 0.  0.
         12    1    1    2    0    0  0.14570723290E+01  0.30553242995E+01 -0.31705934455E+02  0.31886115254E+02  0.00000000000E+00 0. -1.
         11    1    3    3    0    0 -0.59938365120E-01 -0.20787473603E+02  0.20652104544E+02  0.29302424366E+02  0.51100000000E-03 0. -1.
        -11    1    3    3    0    0  0.20362530586E+01 -0.18839667784E+01  0.96442693533E+01  0.10035317083E+02  0.51100000000E-03 0.  1.
        -12    1    3    3    0    0 -0.34333870225E+01  0.19616116082E+02  0.14095605580E+01  0.19964143296E+02  0.00000000000E+00 0.  1.
</event>
<event>
 7    1  0.5832130E-012  0.5930202E+02  0.7816164E-02  0.1266604E+00
        -11   -1    0    0    0    0  0.00000000000E+00  0.00000000000E+00  0.45593999997E+02  0.45594000000E+02  0.51100000000E-03 0. -1.
         11   -1    0    0    0    0 -0.00000000000E+00 -0.00000000000E+00 -0.45593999997E+02  0.45594000000E+02  0.51100000000E-03 0.  1.
    9900012    2    1    2    0    0 -0.17214827572E+02  0.12463396085E+02 -0.23770337755E+02  0.59302023658E+02  0.50000145226E+02 0.  0.
         12    1    1    2    0    0  0.17214827572E+02 -0.12463396085E+02  0.23770337755E+02  0.31885976342E+02  0.00000000000E+00 0. -1.
         11    1    3    3    0    0  0.71161785565E+00  0.23433076257E+02 -0.38534672888E+01  0.23758465296E+02  0.51100000000E-03 0. -1.
        -11    1    3    3    0    0  0.21587145030E+01 -0.86137497271E+01 -0.86365251532E+01  0.12387344334E+02  0.51100000000E-03 0.  1.
        -12    1    3    3    0    0 -0.20085159931E+02 -0.23559304443E+01 -0.11280345313E+02  0.23156214027E+02  0.00000000000E+00 0.  1.
</event>
<event>
 7    1  0.5832130E-012  0.5930193E+02  0.7816164E-02  0.1266605E+00
        -11   -1    0    0    0    0  0.00000000000E+00  0.00000000000E+00  0.45593999997E+02  0.45594000000E+02  0.51100000000E-03 0. -1.
         11   -1    0    0    0    0 -0.00000000000E+00 -0.00000000000E+00 -0.45593999997E+02  0.45594000000E+02  0.51100000000E-03 0.  1.
    9900012    2    1    2    0    0 -0.12249787623E+02  0.27568659296E+02  0.10326324615E+02  0.59301933259E+02  0.49999980360E+02 0.  0.
         12    1    1    2    0    0  0.12249787623E+02 -0.27568659296E+02 -0.10326324615E+02  0.31886066741E+02  0.00000000000E+00 0. -1.
         11    1    3    3    0    0 -0.12661896378E+02  0.76225399700E+01  0.17210075807E+01  0.14879133135E+02  0.51100000000E-03 0. -1.
        -11    1    3    3    0    0 -0.13497167295E+02 -0.55050600616E+01  0.29975508116E+01  0.14881684125E+02  0.51100000000E-03 0.  1.
         12    1    3    3    0    0  0.13909276050E+02  0.25451179387E+02  0.56077662231E+01  0.29541115999E+02  0.00000000000E+00 0. -1.
</event>
<event>
 7    1  0.5832130E-012  0.5930199E+02  0.7816164E-02  0.1266605E+00
        -11   -1    0    0    0    0  0.00000000000E+00  0.00000000000E+00  0.45593999997E+02  0.45594000000E+02  0.51100000000E-03 0. -1.
         11   -1    0    0    0    0 -0.00000000000E+00 -0.00000000000E+00 -0.45593999997E+02  0.45594000000E+02  0.51100000000E-03 0.  1.
    9900012    2    1    2    0    0  0.11743007407E+02 -0.13858584565E+02 -0.26206089270E+02  0.59301988899E+02  0.50000081834E+02 0.  0.
         12    1    1    2    0    0 -0.11743007407E+02  0.13858584565E+02  0.26206089270E+02  0.31886011101E+02  0.00000000000E+00 0. -1.
         11    1    3    3    0    0 -0.32053239454E+01 -0.10663948611E+02  0.60364287865E+01  0.12666190205E+02  0.51100000000E-03 0. -1.
        -11    1    3    3    0    0  0.42435651257E+01 -0.14999445093E+02 -0.24199230893E+02  0.28785308304E+02  0.51100000000E-03 0.  1.
        -12    1    3    3    0    0  0.10704766227E+02  0.11804809138E+02 -0.80432871636E+01  0.17850490390E+02  0.00000000000E+00 0.  1.
</event>
<event>
 7    1  0.5832130E-012  0.5930196E+02  0.7816164E-02  0.1266605E+00
        -11   -1    0    0    0    0  0.00000000000E+00  0.00000000000E+00  0.45593999997E+02  0.45594000000E+02  0.51100000000E-03 0.  1.
         11   -1    0    0    0    0 -0.00000000000E+00 -0.00000000000E+00 -0.45593999997E+02  0.45594000000E+02  0.51100000000E-03 0. -1.
    9900012    2    1    2    0    0 -0.21943128622E+02  0.20580931874E+02  0.10566176418E+02  0.59301957056E+02  0.50000023760E+02 0.  0.
         12    1    1    2    0    0  0.21943128622E+02 -0.20580931874E+02 -0.10566176418E+02  0.31886042944E+02  0.00000000000E+00 0. -1.
         11    1    3    3    0    0 -0.84915964726E+01 -0.56158246996E+01  0.13546813589E+02  0.16945821208E+02  0.51100000000E-03 0. -1.
        -11    1    3    3    0    0 -0.11982709990E+02  0.42022349177E+01  0.10534695202E+02  0.16499209686E+02  0.51100000000E-03 0.  1.
         12    1    3    3    0    0 -0.14688221600E+01  0.21994521656E+02 -0.13515332373E+02  0.25856926163E+02  0.00000000000E+00 0. -1.
</event>
<event>
 7    1  0.5832130E-012  0.5930193E+02  0.7816164E-02  0.1266605E+00
        -11   -1    0    0    0    0  0.00000000000E+00  0.00000000000E+00  0.45593999997E+02  0.45594000000E+02  0.51100000000E-03 0.  1.
         11   -1    0    0    0    0 -0.00000000000E+00 -0.00000000000E+00 -0.45593999997E+02  0.45594000000E+02  0.51100000000E-03 0. -1.
    9900012    2    1    2    0    0  0.24898701241E+02  0.11329609846E+02  0.16383417228E+02  0.59301925566E+02  0.49999966330E+02 0.  0.
         12    1    1    2    0    0 -0.24898701241E+02 -0.11329609846E+02 -0.16383417228E+02  0.31886074434E+02  0.00000000000E+00 0. -1.
         11    1    3    3    0    0  0.18222427169E+02 -0.13584229569E+02 -0.32814590313E+01  0.22964235641E+02  0.51100000000E-03 0.  1.
        -11    1    3    3    0    0  0.47903923754E+01  0.99291707098E+01  0.18047776951E+02  0.21148487966E+02  0.51100000000E-03 0. -1.
        -12    1    3    3    0    0  0.18858816961E+01  0.14984668706E+02  0.16170993083E+01  0.15189201959E+02  0.00000000000E+00 0.  1.
</event>
<event>
 7    1  0.5832130E-012  0.5930193E+02  0.7816164E-02  0.1266605E+00
        -11   -1    0    0    0    0  0.00000000000E+00  0.00000000000E+00  0.45593999997E+02  0.45594000000E+02  0.51100000000E-03 0.  1.
         11   -1    0    0    0    0 -0.00000000000E+00 -0.00000000000E+00 -0.45593999997E+02  0.45594000000E+02  0.51100000000E-03 0. -1.
    9900012    2    1    2    0    0  0.17490090188E+02 -0.82201840423E+01  0.25362304300E+02  0.59301934707E+02  0.49999983001E+02 0.  0.
         12    1    1    2    0    0 -0.17490090188E+02  0.82201840423E+01 -0.25362304300E+02  0.31886065293E+02  0.00000000000E+00 0. -1.
         11    1    3    3    0    0 -0.57776510881E-01  0.11340293944E+02  0.26337943953E+02  0.28675649893E+02  0.51100000000E-03 0. -1.
        -11    1    3    3    0    0 -0.13803445377E+00 -0.94657367347E+01 -0.35282633246E+01  0.10102864336E+02  0.51100000000E-03 0.  1.
        -12    1    3    3    0    0  0.17685901153E+02 -0.10094741251E+02  0.25526236719E+01  0.20523420478E+02  0.00000000000E+00 0.  1.
</event>
<event>
 7    1  0.5832130E-012  0.5930188E+02  0.7816164E-02  0.1266605E+00
        -11   -1    0    0    0    0  0.00000000000E+00  0.00000000000E+00  0.45593999997E+02  0.45594000000E+02  0.51100000000E-03 0.  1.
         11   -1    0    0    0    0 -0.00000000000E+00 -0.00000000000E+00 -0.45593999997E+02  0.45594000000E+02  0.51100000000E-03 0. -1.
    9900012    2    1    2    0    0 -0.15004999459E+02  0.12362204037E+02  0.25273508979E+02  0.59301884628E+02  0.49999891669E+02 0.  0.
         12    1    1    2    0    0  0.15004999459E+02 -0.12362204037E+02 -0.25273508979E+02  0.31886115372E+02  0.00000000000E+00 0. -1.
         11    1    3    3    0    0  0.12619551189E+01  0.12621279226E+02  0.17293283414E+01  0.12801554468E+02  0.51100000000E-03 0. -1.
        -11    1    3    3    0    0 -0.23689147427E+00  0.16021621952E+02  0.15456609385E+02  0.22263316498E+02  0.51100000000E-03 0.  1.
         12    1    3    3    0    0 -0.16030063103E+02 -0.16280697141E+02  0.80875712518E+01  0.24237013662E+02  0.00000000000E+00 0. -1.
</event>
<event>
 7    1  0.5832130E-012  0.5930194E+02  0.7816164E-02  0.1266605E+00
        -11   -1    0    0    0    0  0.00000000000E+00  0.00000000000E+00  0.45593999997E+02  0.45594000000E+02  0.51100000000E-03 0.  1.
         11   -1    0    0    0    0 -0.00000000000E+00 -0.00000000000E+00 -0.45593999997E+02  0.45594000000E+02  0.51100000000E-03 0. -1.
    9900012    2    1    2    0    0 -0.12927983636E+02 -0.17480690986E+02  0.23324092977E+02  0.59301942993E+02  0.49999998113E+02 0.  0.
         12    1    1    2    0    0  0.12927983636E+02  0.17480690986E+02 -0.23324092977E+02  0.31886057007E+02  0.00000000000E+00 0. -1.
         11    1    3    3    0    0  0.11042567038E+01 -0.61682969799E+01  0.16262426806E+02  0.17427960189E+02  0.51100000000E-03 0. -1.
        -11    1    3    3    0    0 -0.12190414568E+02 -0.61674841957E+01  0.22039520089E+02  0.25930378221E+02  0.51100000000E-03 0.  1.
         12    1    3    3    0    0 -0.18418257717E+01 -0.51449098105E+01 -0.14977853917E+02  0.15943604583E+02  0.00000000000E+00 0. -1.
</event>
<event>
 7    1  0.5832130E-012  0.5930197E+02  0.7816164E-02  0.1266605E+00
        -11   -1    0    0    0    0  0.00000000000E+00  0.00000000000E+00  0.45593999997E+02  0.45594000000E+02  0.51100000000E-03 0. -1.
         11   -1    0    0    0    0 -0.00000000000E+00 -0.00000000000E+00 -0.45593999997E+02  0.45594000000E+02  0.51100000000E-03 0.  1.
    9900012    2    1    2    0    0  0.93378241977E+01 -0.28648791800E+02 -0.10429324650E+02  0.59301967870E+02  0.50000043482E+02 0.  0.
         12    1    1    2    0    0 -0.93378241977E+01  0.28648791800E+02  0.10429324650E+02  0.31886032130E+02  0.00000000000E+00 0. -1.
         11    1    3    3    0    0 -0.52730486799E+01 -0.20350306155E+02  0.16049745280E+02  0.26448711250E+02  0.51100000000E-03 0. -1.
        -11    1    3    3    0    0  0.50735184131E+01 -0.42371409968E+01 -0.18869992055E+02  0.19994263010E+02  0.51100000000E-03 0.  1.
        -12    1    3    3    0    0  0.95373544646E+01 -0.40613446485E+01 -0.76090778755E+01  0.12858993610E+02  0.00000000000E+00 0.  1.
</event>
<event>
 7    1  0.5832130E-012  0.5930194E+02  0.7816164E-02  0.1266605E+00
        -11   -1    0    0    0    0  0.00000000000E+00  0.00000000000E+00  0.45593999997E+02  0.45594000000E+02  0.51100000000E-03 0.  1.
         11   -1    0    0    0    0 -0.00000000000E+00 -0.00000000000E+00 -0.45593999997E+02  0.45594000000E+02  0.51100000000E-03 0. -1.
    9900012    2    1    2    0    0 -0.57232443178E+01  0.11545929512E+02  0.29166024762E+02  0.59301936990E+02  0.49999987166E+02 0.  0.
         12    1    1    2    0    0  0.57232443178E+01 -0.11545929512E+02 -0.29166024762E+02  0.31886063010E+02  0.00000000000E+00 0. -1.
         11    1    3    3    0    0  0.15740613532E+02 -0.24025729140E+01  0.52558119876E+01  0.16767910749E+02  0.51100000000E-03 0. -1.
        -11    1    3    3    0    0  0.94636290016E+00  0.68174431716E+01  0.16497980814E+02  0.17876143469E+02  0.51100000000E-03 0.  1.
         12    1    3    3    0    0 -0.22410220750E+02  0.71310592545E+01  0.74122319609E+01  0.24657882772E+02  0.00000000000E+00 0. -1.
</event>
<event>
 7    1  0.5832130E-012  0.5930196E+02  0.7816164E-02  0.1266605E+00
        -11   -1    0    0    0    0  0.00000000000E+00  0.00000000000E+00  0.45593999997E+02  0.45594000000E+02  0.51100000000E-03 0.  1.
         11   -1    0    0    0    0 -0.00000000000E+00 -0.00000000000E+00 -0.45593999997E+02  0.45594000000E+02  0.51100000000E-03 0. -1.
    9900012    2    1    2    0    0  0.21953645103E+02  0.52679480752E+01  0.22516793414E+02  0.59301956096E+02  0.50000022009E+02 0.  0.
         12    1    1    2    0    0 -0.21953645103E+02 -0.52679480752E+01 -0.22516793414E+02  0.31886043904E+02  0.00000000000E+00 0. -1.
         11    1    3    3    0    0  0.58537329213E+01  0.16323494030E+02  0.74353974282E+01  0.18868168476E+02  0.51100000000E-03 0. -1.
        -11    1    3    3    0    0  0.18436122680E+02 -0.56128072209E+01  0.23341804090E+02  0.30269358150E+02  0.51100000000E-03 0.  1.
        -12    1    3    3    0    0 -0.23362104986E+01 -0.54427387334E+01 -0.82604081039E+01  0.10164429470E+02  0.00000000000E+00 0.  1.
</event>
<event>
 7    1  0.5832130E-012  0.5930199E+02  0.7816164E-02  0.1266605E+00
        -11   -1    0    0    0    0  0.00000000000E+00  0.00000000000E+00  0.45593999997E+02  0.45594000000E+02  0.51100000000E-03 0. -1.
         11   -1    0    0    0    0 -0.00000000000E+00 -0.00000000000E+00 -0.45593999997E+02  0.45594000000E+02  0.51100000000E-03 0.  1.
    9900012    2    1    2    0    0 -0.13721649116E+02 -0.21036653259E+02 -0.19644165697E+02  0.59301989263E+02  0.50000082498E+02 0.  0.
         12    1    1    2    0    0  0.13721649116E+02  0.21036653259E+02  0.19644165697E+02  0.31886010737E+02  0.00000000000E+00 0. -1.
         11    1    3    3    0    0 -0.61322287756E+01 -0.31726866779E+02 -0.63393862927E+01  0.32930018588E+02  0.51100000000E-03 0. -1.
        -11    1    3    3    0    0  0.28176446097E+01 -0.41845714846E+00  0.29511883880E+01  0.41016753521E+01  0.51100000000E-03 0.  1.
        -12    1    3    3    0    0 -0.10407064951E+02  0.11108670669E+02 -0.16255967792E+02  0.22270295323E+02  0.00000000000E+00 0.  1.
</event>
<event>
 7    1  0.5832130E-012  0.5930194E+02  0.7816164E-02  0.1266605E+00
        -11   -1    0    0    0    0  0.00000000000E+00  0.00000000000E+00  0.45593999997E+02  0.45594000000E+02  0.51100000000E-03 0. -1.
         11   -1    0    0    0    0 -0.00000000000E+00 -0.00000000000E+00 -0.45593999997E+02  0.45594000000E+02  0.51100000000E-03 0.  1.
    9900012    2    1    2    0    0  0.38640280420E+01 -0.31273467162E+02 -0.48744833596E+01  0.59301936444E+02  0.49999986170E+02 0.  0.
         12    1    1    2    0    0 -0.38640280420E+01  0.31273467162E+02  0.48744833596E+01  0.31886063556E+02  0.00000000000E+00 0. -1.
         11    1    3    3    0    0  0.66990593979E+01 -0.23015655178E+02 -0.13205099415E+02  0.27367360686E+02  0.51100000000E-03 0. -1.
        -11    1    3    3    0    0  0.11552522905E+02 -0.68997908249E+01 -0.27372485921E+01  0.13731730736E+02  0.51100000000E-03 0.  1.
         12    1    3    3    0    0 -0.14387554261E+02 -0.13580211593E+01  0.11067864647E+02  0.18202845023E+02  0.00000000000E+00 0. -1.
</event>
<event>
 7    1  0.5832130E-012  0.5930186E+02  0.7816164E-02  0.1266605E+00
        -11   -1    0    0    0    0  0.00000000000E+00  0.00000000000E+00  0.45593999997E+02  0.45594000000E+02  0.51100000000E-03 0.  1.
         11   -1    0    0    0    0 -0.00000000000E+00 -0.00000000000E+00 -0.45593999997E+02  0.45594000000E+02  0.51100000000E-03 0. -1.
    9900012    2    1    2    0    0  0.29964472988E+02 -0.22434715161E+01 -0.10668788253E+02  0.59301861183E+02  0.49999848910E+02 0.  0.
         12    1    1    2    0    0 -0.29964472988E+02  0.22434715161E+01  0.10668788253E+02  0.31886138817E+02  0.00000000000E+00 0. -1.
         11    1    3    3    0    0  0.84674771728E+01 -0.11496404449E+02  0.10335118195E+02  0.17626121335E+02  0.51100000000E-03 0.  1.
        -11    1    3    3    0    0  0.18979526517E+01 -0.15479648749E+01 -0.19056244168E+02  0.19212986794E+02  0.51100000000E-03 0. -1.
        -12    1    3    3    0    0  0.19599043163E+02  0.10800897808E+02 -0.19476622808E+01  0.22462753053E+02  0.00000000000E+00 0.  1.
</event>
<event>
 7    1  0.5832130E-012  0.5930194E+02  0.7816164E-02  0.1266605E+00
        -11   -1    0    0    0    0  0.00000000000E+00  0.00000000000E+00  0.45593999997E+02  0.45594000000E+02  0.51100000000E-03 0. -1.
         11   -1    0    0    0    0 -0.00000000000E+00 -0.00000000000E+00 -0.45593999997E+02  0.45594000000E+02  0.51100000000E-03 0.  1.
    9900012    2    1    2    0    0 -0.15850460933E+02 -0.25885669473E+02 -0.97681086868E+01  0.59301938105E+02  0.49999989198E+02 0.  0.
         12    1    1    2    0    0  0.15850460933E+02  0.25885669473E+02  0.97681086868E+01  0.31886061895E+02  0.00000000000E+00 0. -1.
         11    1    3    3    0    0  0.67824559991E+00 -0.86529248145E+01 -0.22988951980E+00  0.86825096828E+01  0.51100000000E-03 0. -1.
        -11    1    3    3    0    0  0.37139676439E+01 -0.26971485501E+02 -0.44566811452E+01  0.27588341612E+02  0.51100000000E-03 0.  1.
         12    1    3    3    0    0 -0.20242674177E+02  0.97387408420E+01 -0.50815380217E+01  0.23031086811E+02  0.00000000000E+00 0. -1.
</event>
<event>
 7    1  0.5832130E-012  0.5930181E+02  0.7816164E-02  0.1266605E+00
        -11   -1    0    0    0    0  0.00000000000E+00  0.00000000000E+00  0.45593999997E+02  0.45594000000E+02  0.51100000000E-03 0.  1.
         11   -1    0    0    0    0 -0.00000000000E+00 -0.00000000000E+00 -0.45593999997E+02  0.45594000000E+02  0.51100000000E-03 0. -1.
    9900012    2    1    2    0    0  0.12550060645E+02  0.27986971354E+02  0.87151979765E+01  0.59301807635E+02  0.49999751251E+02 0.  0.
         12    1    1    2    0    0 -0.12550060645E+02 -0.27986971354E+02 -0.87151979765E+01  0.31886192365E+02  0.00000000000E+00 0. -1.
         11    1    3    3    0    0  0.24379268205E+01 -0.55905768395E+00 -0.47522108027E+01  0.53702458464E+01  0.51100000000E-03 0. -1.
        -11    1    3    3    0    0 -0.14805696435E+02  0.28531693802E+01  0.97314233877E+01  0.17945746679E+02  0.51100000000E-03 0.  1.
        -12    1    3    3    0    0  0.24917830260E+02  0.25692859658E+02  0.37359853916E+01  0.35985815110E+02  0.00000000000E+00 0.  1.
</event>
<event>
 7    1  0.5832130E-012  0.5930195E+02  0.7816164E-02  0.1266605E+00
        -11   -1    0    0    0    0  0.00000000000E+00  0.00000000000E+00  0.45593999997E+02  0.45594000000E+02  0.51100000000E-03 0.  1.
         11   -1    0    0    0    0 -0.00000000000E+00 -0.00000000000E+00 -0.45593999997E+02  0.45594000000E+02  0.51100000000E-03 0. -1.
    9900012    2    1    2    0    0 -0.12378390780E+02  0.16599888205E+02  0.24247459650E+02  0.59301950603E+02  0.50000011991E+02 0.  0.
         12    1    1    2    0    0  0.12378390780E+02 -0.16599888205E+02 -0.24247459650E+02  0.31886049397E+02  0.00000000000E+00 0. -1.
         11    1    3    3    0    0 -0.26356263239E+01 -0.97521223029E+01  0.72042300050E+01  0.12407713156E+02  0.51100000000E-03 0. -1.
        -11    1    3    3    0    0 -0.21132777638E+01  0.58059801292E+01  0.23297175018E+02  0.24102566507E+02  0.51100000000E-03 0.  1.
         12    1    3    3    0    0 -0.76294866918E+01  0.20546030379E+02 -0.62539453729E+01  0.22791670940E+02  0.00000000000E+00 0. -1.
</event>
<event>
 7    1  0.5832130E-012  0.5930195E+02  0.7816164E-02  0.1266605E+00
        -11   -1    0    0    0    0  0.00000000000E+00  0.00000000000E+00  0.45593999997E+02  0.45594000000E+02  0.51100000000E-03 0.  1.
         11   -1    0    0    0    0 -0.00000000000E+00 -0.00000000000E+00 -0.45593999997E+02  0.45594000000E+02  0.51100000000E-03 0. -1.
    9900012    2    1    2    0    0  0.73020348957E+01 -0.21680229292E+02  0.22211884456E+02  0.59301954982E+02  0.50000019979E+02 0.  0.
         12    1    1    2    0    0 -0.73020348957E+01  0.21680229292E+02 -0.22211884456E+02  0.31886045018E+02  0.00000000000E+00 0. -1.
         11    1    3    3    0    0 -0.11152959644E+02  0.55095872130E+01  0.14354569124E+02  0.18994675966E+02  0.51100000000E-03 0. -1.
        -11    1    3    3    0    0 -0.18786846043E+01 -0.14920081397E+02  0.68836821522E+01  0.16538541803E+02  0.51100000000E-03 0.  1.
        -12    1    3    3    0    0  0.20333679144E+02 -0.12269735109E+02  0.97363317961E+00  0.23768737214E+02  0.00000000000E+00 0.  1.
</event>
<event>
 7    1  0.5832130E-012  0.5930192E+02  0.7816164E-02  0.1266605E+00
        -11   -1    0    0    0    0  0.00000000000E+00  0.00000000000E+00  0.45593999997E+02  0.45594000000E+02  0.51100000000E-03 0.  1.
         11   -1    0    0    0    0 -0.00000000000E+00 -0.00000000000E+00 -0.45593999997E+02  0.45594000000E+02  0.51100000000E-03 0. -1.
    9900012    2    1    2    0    0  0.72947843455E+01 -0.23932754337E+02  0.19766926214E+02  0.59301921835E+02  0.49999959525E+02 0.  0.
         12    1    1    2    0    0 -0.72947843455E+01  0.23932754337E+02 -0.19766926214E+02  0.31886078165E+02  0.00000000000E+00 0. -1.
         11    1    3    3    0    0 -0.43892450888E+01  0.99430113064E+01 -0.23114112819E+01  0.11111776125E+02  0.51100000000E-03 0. -1.
        -11    1    3    3    0    0  0.25372054238E+01 -0.50190627601E+01  0.16469514661E+02  0.17403255896E+02  0.51100000000E-03 0.  1.
        -12    1    3    3    0    0  0.91468240104E+01 -0.28856702883E+02  0.56088228347E+01  0.30786889813E+02  0.00000000000E+00 0.  1.
</event>
<event>
 7    1  0.5832130E-012  0.5930204E+02  0.7816164E-02  0.1266604E+00
        -11   -1    0    0    0    0  0.00000000000E+00  0.00000000000E+00  0.45593999997E+02  0.45594000000E+02  0.51100000000E-03 0.  1.
         11   -1    0    0    0    0 -0.00000000000E+00 -0.00000000000E+00 -0.45593999997E+02  0.45594000000E+02  0.51100000000E-03 0. -1.
    9900012    2    1    2    0    0 -0.30089760446E+02  0.55866273268E+01  0.89504396446E+01  0.59302039791E+02  0.50000174650E+02 0.  0.
         12    1    1    2    0    0  0.30089760446E+02 -0.55866273268E+01 -0.89504396446E+01  0.31885960209E+02  0.00000000000E+00 0. -1.
         11    1    3    3    0    0 -0.33484608181E+01 -0.60377784759E+01 -0.14786061459E+02  0.16318534631E+02  0.51100000000E-03 0. -1.
        -11    1    3    3    0    0 -0.16745604959E+02 -0.38778394371E+01  0.91825785330E+01  0.19487757001E+02  0.51100000000E-03 0.  1.
         12    1    3    3    0    0 -0.99956946691E+01  0.15502245240E+02  0.14553922570E+02  0.23495748160E+02  0.00000000000E+00 0. -1.
</event>
<event>
 7    1  0.5832130E-012  0.5930195E+02  0.7816164E-02  0.1266605E+00
        -11   -1    0    0    0    0  0.00000000000E+00  0.00000000000E+00  0.45593999997E+02  0.45594000000E+02  0.51100000000E-03 0.  1.
         11   -1    0    0    0    0 -0.00000000000E+00 -0.00000000000E+00 -0.45593999997E+02  0.45594000000E+02  0.51100000000E-03 0. -1.
    9900012    2    1    2    0    0  0.12977039146E+02  0.29743737533E+01  0.28973605838E+02  0.59301948513E+02  0.50000008179E+02 0.  0.
         12    1    1    2    0    0 -0.12977039146E+02 -0.29743737533E+01 -0.28973605838E+02  0.31886051487E+02  0.00000000000E+00 0. -1.
         11    1    3    3    0    0  0.67615451472E+01 -0.74427984929E+01  0.15866202861E+02  0.18784305568E+02  0.51100000000E-03 0. -1.
        -11    1    3    3    0    0 -0.14331688008E+02  0.10103635454E+01  0.10445976404E+02  0.17763348191E+02  0.51100000000E-03 0.  1.
         12    1    3    3    0    0  0.20547182006E+02  0.94068087008E+01  0.26614265722E+01  0.22754294753E+02  0.00000000000E+00 0. -1.
</event>
<event>
 7    1  0.5832130E-012  0.5930181E+02  0.7816164E-02  0.1266605E+00
        -11   -1    0    0    0    0  0.00000000000E+00  0.00000000000E+00  0.45593999997E+02  0.45594000000E+02  0.51100000000E-03 0.  1.
         11   -1    0    0    0    0 -0.00000000000E+00 -0.00000000000E+00 -0.45593999997E+02  0.45594000000E+02  0.51100000000E-03 0. -1.
    9900012    2    1    2    0    0  0.36505309252E+01  0.22111752323E+02  0.22682003344E+02  0.59301807964E+02  0.49999751852E+02 0.  0.
         12    1    1    2    0    0 -0.36505309252E+01 -0.22111752323E+02 -0.22682003344E+02  0.31886192036E+02  0.00000000000E+00 0. -1.
         11    1    3    3    0    0  0.15584820920E+02 -0.62240509801E+01  0.47599778626E+01  0.17443704974E+02  0.51100000000E-03 0. -1.
        -11    1    3    3    0    0 -0.18651149881E+01  0.12938723635E+02  0.19409052207E+02  0.23400866032E+02  0.51100000000E-03 0.  1.
        -12    1    3    3    0    0 -0.10069175007E+02  0.15397079668E+02 -0.14870267255E+01  0.18457236957E+02  0.00000000000E+00 0.  1.
</event>
<event>
 7    1  0.6454173E-012  0.5930195E+02  0.7816164E-02  0.1266605E+00
        -11   -1    0    0    0    0  0.00000000000E+00  0.00000000000E+00  0.45593999997E+02  0.45594000000E+02  0.51100000000E-03 0. -1.
         11   -1    0    0    0    0 -0.00000000000E+00 -0.00000000000E+00 -0.45593999997E+02  0.45594000000E+02  0.51100000000E-03 0.  1.
    9900012    2    1    2    0    0  0.23878510880E+01 -0.16033080409E+02 -0.27458303744E+02  0.59301953762E+02  0.50000017753E+02 0.  0.
         12    1    1    2    0    0 -0.23878510880E+01  0.16033080409E+02  0.27458303744E+02  0.31886046238E+02  0.00000000000E+00 0. -1.
         11    1    3    3    0    0 -0.13409099558E+02 -0.90748447365E+01 -0.12888791941E+02  0.20694871730E+02  0.51100000000E-03 0.  1.
        -11    1    3    3    0    0  0.13308981675E+02 -0.19023027887E+02 -0.11515684716E+02  0.25915547032E+02  0.51100000000E-03 0. -1.
         12    1    3    3    0    0  0.24879689710E+01  0.12064792215E+02 -0.30538270866E+01  0.12691535000E+02  0.00000000000E+00 0. -1.
</event>
<event>
 7    1  0.5832130E-012  0.5930194E+02  0.7816164E-02  0.1266605E+00
        -11   -1    0    0    0    0  0.00000000000E+00  0.00000000000E+00  0.45593999997E+02  0.45594000000E+02  0.51100000000E-03 0.  1.
         11   -1    0    0    0    0 -0.00000000000E+00 -0.00000000000E+00 -0.45593999997E+02  0.45594000000E+02  0.51100000000E-03 0. -1.
    9900012    2    1    2    0    0 -0.28409025397E+02 -0.47071398004E+01 -0.13692743349E+02  0.59301935496E+02  0.49999984440E+02 0.  0.
         12    1    1    2    0    0  0.28409025397E+02  0.47071398004E+01  0.13692743349E+02  0.31886064504E+02  0.00000000000E+00 0. -1.
         11    1    3    3    0    0 -0.20921896072E+02 -0.24743693714E+01 -0.66245711094E+01  0.22084682060E+02  0.51100000000E-03 0. -1.
        -11    1    3    3    0    0 -0.15626995231E+02  0.57558556823E+01  0.78730335137E+01  0.18420573052E+02  0.51100000000E-03 0.  1.
         12    1    3    3    0    0  0.81398659060E+01 -0.79886261112E+01 -0.14941205753E+02  0.18796680384E+02  0.00000000000E+00 0. -1.
</event>
<event>
 7    1  0.5832130E-012  0.5930197E+02  0.7816164E-02  0.1266605E+00
        -11   -1    0    0    0    0  0.00000000000E+00  0.00000000000E+00  0.45593999997E+02  0.45594000000E+02  0.51100000000E-03 0.  1.
         11   -1    0    0    0    0 -0.00000000000E+00 -0.00000000000E+00 -0.45593999997E+02  0.45594000000E+02  0.51100000000E-03 0. -1.
    9900012    2    1    2    0    0  0.19361989911E+02 -0.21271734998E+02  0.13760289753E+02  0.59301969560E+02  0.50000046565E+02 0.  0.
         12    1    1    2    0    0 -0.19361989911E+02  0.21271734998E+02 -0.13760289753E+02  0.31886030440E+02  0.00000000000E+00 0. -1.
         11    1    3    3    0    0  0.23613777521E+02 -0.10263645614E+02  0.82115165927E+01  0.27025578904E+02  0.51100000000E-03 0.  1.
        -11    1    3    3    0    0  0.10535343310E+00 -0.99555050917E+01 -0.11172406590E+02  0.14964820421E+02  0.51100000000E-03 0. -1.
         12    1    3    3    0    0 -0.43571410427E+01 -0.10525842923E+01  0.16721179750E+02  0.17311570234E+02  0.00000000000E+00 0. -1.
</event>
<event>
 7    1  0.5832130E-012  0.5930193E+02  0.7816164E-02  0.1266605E+00
        -11   -1    0    0    0    0  0.00000000000E+00  0.00000000000E+00  0.45593999997E+02  0.45594000000E+02  0.51100000000E-03 0.  1.
         11   -1    0    0    0    0 -0.00000000000E+00 -0.00000000000E+00 -0.45593999997E+02  0.45594000000E+02  0.51100000000E-03 0. -1.
    9900012    2    1    2    0    0 -0.18607271600E+02 -0.17542207384E+02  0.19046307553E+02  0.59301930507E+02  0.49999975341E+02 0.  0.
         12    1    1    2    0    0  0.18607271600E+02  0.17542207384E+02 -0.19046307553E+02  0.31886069493E+02  0.00000000000E+00 0. -1.
         11    1    3    3    0    0  0.67119871263E+01 -0.25504572919E+02  0.51383113009E+01  0.26868871474E+02  0.51100000000E-03 0.  1.
        -11    1    3    3    0    0 -0.62818061400E+01  0.32585986190E+01 -0.18063367433E+01  0.73035885721E+01  0.51100000000E-03 0. -1.
        -12    1    3    3    0    0 -0.19037452587E+02  0.47037669159E+01  0.15714332995E+02  0.25129470461E+02  0.00000000000E+00 0.  1.
</event>
<event>
 7    1  0.5832130E-012  0.5930195E+02  0.7816164E-02  0.1266605E+00
        -11   -1    0    0    0    0  0.00000000000E+00  0.00000000000E+00  0.45593999997E+02  0.45594000000E+02  0.51100000000E-03 0.  1.
         11   -1    0    0    0    0 -0.00000000000E+00 -0.00000000000E+00 -0.45593999997E+02  0.45594000000E+02  0.51100000000E-03 0. -1.
    9900012    2    1    2    0    0  0.37145278491E+01 -0.22686293688E+02  0.22096482956E+02  0.59301949798E+02  0.50000010524E+02 0.  0.
         12    1    1    2    0    0 -0.37145278491E+01  0.22686293688E+02 -0.22096482956E+02  0.31886050202E+02  0.00000000000E+00 0. -1.
         11    1    3    3    0    0 -0.63366163725E+01 -0.12566756827E+01 -0.72242575358E+01  0.96913279807E+01  0.51100000000E-03 0. -1.
        -11    1    3    3    0    0  0.12555191147E+01 -0.28615028399E+02  0.21674701698E+02  0.35919199218E+02  0.51100000000E-03 0.  1.
         12    1    3    3    0    0  0.87956251069E+01  0.71854103937E+01  0.76460387942E+01  0.13691422599E+02  0.00000000000E+00 0. -1.
</event>
<event>
 7    1  0.5832130E-012  0.5930194E+02  0.7816164E-02  0.1266605E+00
        -11   -1    0    0    0    0  0.00000000000E+00  0.00000000000E+00  0.45593999997E+02  0.45594000000E+02  0.51100000000E-03 0. -1.
         11   -1    0    0    0    0 -0.00000000000E+00 -0.00000000000E+00 -0.45593999997E+02  0.45594000000E+02  0.51100000000E-03 0.  1.
    9900012    2    1    2    0    0  0.19245927740E+01  0.30622272100E+02 -0.86771532150E+01  0.59301943583E+02  0.49999999189E+02 0.  0.
         12    1    1    2    0    0 -0.19245927740E+01 -0.30622272100E+02  0.86771532150E+01  0.31886056417E+02  0.00000000000E+00 0. -1.
         11    1    3    3    0    0  0.45602313941E+01  0.58091843759E+00  0.45417430231E+01  0.64622446989E+01  0.51100000000E-03 0. -1.
        -11    1    3    3    0    0  0.15910631692E+02  0.15205245537E+02  0.54006574476E+01  0.22660864807E+02  0.51100000000E-03 0.  1.
        -12    1    3    3    0    0 -0.18546270312E+02  0.14836108126E+02 -0.18619553686E+02  0.30178834077E+02  0.00000000000E+00 0.  1.
</event>
<event>
 7    1  0.5832130E-012  0.5930196E+02  0.7816164E-02  0.1266605E+00
        -11   -1    0    0    0    0  0.00000000000E+00  0.00000000000E+00  0.45593999997E+02  0.45594000000E+02  0.51100000000E-03 0.  1.
         11   -1    0    0    0    0 -0.00000000000E+00 -0.00000000000E+00 -0.45593999997E+02  0.45594000000E+02  0.51100000000E-03 0. -1.
    9900012    2    1    2    0    0  0.48885099648E+01  0.21273848493E+02  0.23243176382E+02  0.59301962183E+02  0.50000033110E+02 0.  0.
         12    1    1    2    0    0 -0.48885099648E+01 -0.21273848493E+02 -0.23243176382E+02  0.31886037817E+02  0.00000000000E+00 0. -1.
         11    1    3    3    0    0  0.18218547504E+02  0.10999180908E+02 -0.22729930651E+01  0.21402428636E+02  0.51100000000E-03 0. -1.
        -11    1    3    3    0    0 -0.30432055432E+01 -0.71344618663E+01  0.61245456938E+01  0.98828996917E+01  0.51100000000E-03 0.  1.
        -12    1    3    3    0    0 -0.10286831996E+02  0.17409129452E+02  0.19391623753E+02  0.28016633855E+02  0.00000000000E+00 0.  1.
</event>
<event>
 7    1  0.5832130E-012  0.5930197E+02  0.7816164E-02  0.1266605E+00
        -11   -1    0    0    0    0  0.00000000000E+00  0.00000000000E+00  0.45593999997E+02  0.45594000000E+02  0.51100000000E-03 0. -1.
         11   -1    0    0    0    0 -0.00000000000E+00 -0.00000000000E+00 -0.45593999997E+02  0.45594000000E+02  0.51100000000E-03 0.  1.
    9900012    2    1    2    0    0 -0.23244704445E+02  0.20375961736E+02  0.78245135825E+01  0.59301966784E+02  0.50000041502E+02 0.  0.
         12    1    1    2    0    0  0.23244704445E+02 -0.20375961736E+02 -0.78245135825E+01  0.31886033216E+02  0.00000000000E+00 0. -1.
         11    1    3    3    0    0  0.95093747478E+00 -0.19969376619E+01  0.11999165828E+02  0.12201312345E+02  0.51100000000E-03 0. -1.
        -11    1    3    3    0    0  0.43086936622E+01 -0.21812352204E+01  0.64030603705E+01  0.80200879378E+01  0.51100000000E-03 0.  1.
        -12    1    3    3    0    0 -0.28504335582E+02  0.24554134619E+02 -0.10577712616E+02  0.39080566501E+02  0.00000000000E+00 0.  1.
</event>
<event>
 7    1  0.5832130E-012  0.5930196E+02  0.7816164E-02  0.1266605E+00
        -11   -1    0    0    0    0  0.00000000000E+00  0.00000000000E+00  0.45593999997E+02  0.45594000000E+02  0.51100000000E-03 0.  1.
         11   -1    0    0    0    0 -0.00000000000E+00 -0.00000000000E+00 -0.45593999997E+02  0.45594000000E+02  0.51100000000E-03 0. -1.
    9900012    2    1    2    0    0 -0.27903312712E+02 -0.13858537948E+02  0.67871671784E+01  0.59301959596E+02  0.50000028393E+02 0.  0.
         12    1    1    2    0    0  0.27903312712E+02  0.13858537948E+02 -0.67871671784E+01  0.31886040404E+02  0.00000000000E+00 0. -1.
         11    1    3    3    0    0 -0.14767501137E+02 -0.16781283451E+02  0.66021900403E+01  0.23308356392E+02  0.51100000000E-03 0. -1.
        -11    1    3    3    0    0 -0.16188709084E+02 -0.11542485684E+02 -0.46877745875E+01  0.20427396026E+02  0.51100000000E-03 0.  1.
         12    1    3    3    0    0  0.30528975091E+01  0.14465231188E+02  0.48727517257E+01  0.15566207178E+02  0.00000000000E+00 0. -1.
</event>
<event>
 7    1  0.5832130E-012  0.5930193E+02  0.7816164E-02  0.1266605E+00
        -11   -1    0    0    0    0  0.00000000000E+00  0.00000000000E+00  0.45593999997E+02  0.45594000000E+02  0.51100000000E-03 0.  1.
         11   -1    0    0    0    0 -0.00000000000E+00 -0.00000000000E+00 -0.45593999997E+02  0.45594000000E+02  0.51100000000E-03 0. -1.
    9900012    2    1    2    0    0 -0.79370419983E+01 -0.27242763071E+02  0.14544996768E+02  0.59301926137E+02  0.49999967371E+02 0.  0.
         12    1    1    2    0    0  0.79370419983E+01  0.27242763071E+02 -0.14544996768E+02  0.31886073863E+02  0.00000000000E+00 0. -1.
         11    1    3    3    0    0 -0.13870542880E+02  0.58330997148E+01 -0.28696413297E+01  0.15318350228E+02  0.51100000000E-03 0. -1.
        -11    1    3    3    0    0 -0.43244264003E+01 -0.20578741360E+01  0.90822590561E+01  0.10267567359E+02  0.51100000000E-03 0.  1.
         12    1    3    3    0    0  0.10257927282E+02 -0.31017988650E+02  0.83323790419E+01  0.33716008550E+02  0.00000000000E+00 0. -1.
</event>
<event>
 7    1  0.5832130E-012  0.5930194E+02  0.7816164E-02  0.1266605E+00
        -11   -1    0    0    0    0  0.00000000000E+00  0.00000000000E+00  0.45593999997E+02  0.45594000000E+02  0.51100000000E-03 0. -1.
         11   -1    0    0    0    0 -0.00000000000E+00 -0.00000000000E+00 -0.45593999997E+02  0.45594000000E+02  0.51100000000E-03 0.  1.
    9900012    2    1    2    0    0 -0.23392238155E+02  0.12274535616E+01 -0.21633713983E+02  0.59301936761E+02  0.49999986748E+02 0.  0.
         12    1    1    2    0    0  0.23392238155E+02 -0.12274535616E+01  0.21633713983E+02  0.31886063239E+02  0.00000000000E+00 0. -1.
         11    1    3    3    0    0 -0.51269076301E+01  0.16324613339E+02 -0.37310486732E+01  0.17512821217E+02  0.51100000000E-03 0. -1.
        -11    1    3    3    0    0  0.59177447003E+00  0.78232316679E+01 -0.19125117785E+01  0.80753236664E+01  0.51100000000E-03 0.  1.
        -12    1    3    3    0    0 -0.18857104995E+02 -0.22920391446E+02 -0.15990153532E+02  0.33713791878E+02  0.00000000000E+00 0.  1.
</event>
<event>
 7    1  0.5832130E-012  0.5930194E+02  0.7816164E-02  0.1266605E+00
        -11   -1    0    0    0    0  0.00000000000E+00  0.00000000000E+00  0.45593999997E+02  0.45594000000E+02  0.51100000000E-03 0.  1.
         11   -1    0    0    0    0 -0.00000000000E+00 -0.00000000000E+00 -0.45593999997E+02  0.45594000000E+02  0.51100000000E-03 0. -1.
    9900012    2    1    2    0    0  0.22130164145E+02  0.18268849841E+02  0.13900557077E+02  0.59301944636E+02  0.50000001110E+02 0.  0.
         12    1    1    2    0    0 -0.22130164145E+02 -0.18268849841E+02 -0.13900557077E+02  0.31886055364E+02  0.00000000000E+00 0. -1.
         11    1    3    3    0    0  0.18926709644E+02  0.64835036601E+01  0.19089004966E+02  0.27652238038E+02  0.51100000000E-03 0. -1.
        -11    1    3    3    0    0  0.20054248170E+01  0.70935619295E+01  0.11839385534E+02  0.13946734371E+02  0.51100000000E-03 0.  1.
         12    1    3    3    0    0  0.11980296844E+01  0.46917842514E+01 -0.17027833423E+02  0.17702972227E+02  0.00000000000E+00 0. -1.
</event>
<event>
 7    1  0.5832130E-012  0.5930192E+02  0.7816164E-02  0.1266605E+00
        -11   -1    0    0    0    0  0.00000000000E+00  0.00000000000E+00  0.45593999997E+02  0.45594000000E+02  0.51100000000E-03 0.  1.
         11   -1    0    0    0    0 -0.00000000000E+00 -0.00000000000E+00 -0.45593999997E+02  0.45594000000E+02  0.51100000000E-03 0. -1.
    9900012    2    1    2    0    0  0.16945264317E+02  0.20110177381E+02  0.18032222922E+02  0.59301917133E+02  0.49999950951E+02 0.  0.
         12    1    1    2    0    0 -0.16945264317E+02 -0.20110177381E+02 -0.18032222922E+02  0.31886082867E+02  0.00000000000E+00 0. -1.
         11    1    3    3    0    0  0.10107257331E+02  0.44246900670E+01 -0.11805536843E+02  0.16158750983E+02  0.51100000000E-03 0. -1.
        -11    1    3    3    0    0  0.59222679546E-01  0.16494122640E+02  0.47811679684E+01  0.17173210427E+02  0.51100000000E-03 0.  1.
        -12    1    3    3    0    0  0.67787843060E+01 -0.80863532554E+00  0.25056591797E+02  0.25969955722E+02  0.00000000000E+00 0.  1.
</event>
<event>
 7    1  0.5832130E-012  0.5930195E+02  0.7816164E-02  0.1266605E+00
        -11   -1    0    0    0    0  0.00000000000E+00  0.00000000000E+00  0.45593999997E+02  0.45594000000E+02  0.51100000000E-03 0. -1.
         11   -1    0    0    0    0 -0.00000000000E+00 -0.00000000000E+00 -0.45593999997E+02  0.45594000000E+02  0.51100000000E-03 0.  1.
    9900012    2    1    2    0    0  0.65640638520E+01  0.29686054343E+02  0.96110091328E+01  0.59301948924E+02  0.50000008929E+02 0.  0.
         12    1    1    2    0    0 -0.65640638520E+01 -0.29686054343E+02 -0.96110091328E+01  0.31886051076E+02  0.00000000000E+00 0. -1.
         11    1    3    3    0    0  0.16198907935E+02 -0.23794198316E+01  0.74271250503E+01  0.17978555108E+02  0.51100000000E-03 0. -1.
        -11    1    3    3    0    0 -0.13027231740E+01  0.13528473975E+02 -0.10667535723E+02  0.17277529176E+02  0.51100000000E-03 0.  1.
        -12    1    3    3    0    0 -0.83321209087E+01  0.18537000199E+02  0.12851419806E+02  0.24045864639E+02  0.00000000000E+00 0.  1.
</event>
<event>
 7    1  0.5832130E-012  0.5930196E+02  0.7816164E-02  0.1266605E+00
        -11   -1    0    0    0    0  0.00000000000E+00  0.00000000000E+00  0.45593999997E+02  0.45594000000E+02  0.51100000000E-03 0.  1.
         11   -1    0    0    0    0 -0.00000000000E+00 -0.00000000000E+00 -0.45593999997E+02  0.45594000000E+02  0.51100000000E-03 0. -1.
    9900012    2    1    2    0    0  0.11852413916E+02  0.63079120069E+01  0.28921450225E+02  0.59301956774E+02  0.50000023246E+02 0.  0.
         12    1    1    2    0    0 -0.11852413916E+02 -0.63079120069E+01 -0.28921450225E+02  0.31886043226E+02  0.00000000000E+00 0. -1.
         11    1    3    3    0    0  0.54142603406E+01  0.24280305820E+02  0.26834423715E+02  0.36591443838E+02  0.51100000000E-03 0.  1.
        -11    1    3    3    0    0 -0.33416400576E+01 -0.61967060226E+01 -0.95248018381E+00  0.71044311923E+01  0.51100000000E-03 0. -1.
        -12    1    3    3    0    0  0.97797936328E+01 -0.11775687791E+02  0.30395066931E+01  0.15606081744E+02  0.00000000000E+00 0.  1.
</event>
<event>
 7    1  0.5832130E-012  0.5930210E+02  0.7816164E-02  0.1266604E+00
        -11   -1    0    0    0    0  0.00000000000E+00  0.00000000000E+00  0.45593999997E+02  0.45594000000E+02  0.51100000000E-03 0. -1.
         11   -1    0    0    0    0 -0.00000000000E+00 -0.00000000000E+00 -0.45593999997E+02  0.45594000000E+02  0.51100000000E-03 0.  1.
    9900012    2    1    2    0    0 -0.90884371918E+01 -0.27145846970E+02 -0.14043289166E+02  0.59302099215E+02  0.50000283023E+02 0.  0.
         12    1    1    2    0    0  0.90884371918E+01  0.27145846970E+02  0.14043289166E+02  0.31885900785E+02  0.00000000000E+00 0. -1.
         11    1    3    3    0    0 -0.27023955670E+01 -0.61322523276E+01 -0.22613601324E+02  0.23585640239E+02  0.51100000000E-03 0. -1.
        -11    1    3    3    0    0  0.94793460553E+00 -0.13678698631E+02 -0.82155792674E+01  0.15984402372E+02  0.51100000000E-03 0.  1.
         12    1    3    3    0    0 -0.73339762303E+01 -0.73348960117E+01  0.16785891425E+02  0.19732056603E+02  0.00000000000E+00 0. -1.
</event>
<event>
 7    1  0.5832130E-012  0.5930197E+02  0.7816164E-02  0.1266605E+00
        -11   -1    0    0    0    0  0.00000000000E+00  0.00000000000E+00  0.45593999997E+02  0.45594000000E+02  0.51100000000E-03 0. -1.
         11   -1    0    0    0    0 -0.00000000000E+00 -0.00000000000E+00 -0.45593999997E+02  0.45594000000E+02  0.51100000000E-03 0.  1.
    9900012    2    1    2    0    0 -0.30139670590E+00 -0.20809671358E+02 -0.24157516877E+02  0.59301970400E+02  0.50000048096E+02 0.  0.
         12    1    1    2    0    0  0.30139670590E+00  0.20809671358E+02  0.24157516877E+02  0.31886029600E+02  0.00000000000E+00 0. -1.
         11    1    3    3    0    0  0.71937501773E+01 -0.13763845143E+01 -0.88898193392E+00  0.73779919412E+01  0.51100000000E-03 0. -1.
        -11    1    3    3    0    0  0.13108638862E+02 -0.11307671053E+01  0.33837395145E+01  0.13585460626E+02  0.51100000000E-03 0.  1.
        -12    1    3    3    0    0 -0.20603785745E+02 -0.18302519739E+02 -0.26652274457E+02  0.38338517832E+02  0.00000000000E+00 0.  1.
</event>
<event>
 7    1  0.5832130E-012  0.5930196E+02  0.7816164E-02  0.1266605E+00
        -11   -1    0    0    0    0  0.00000000000E+00  0.00000000000E+00  0.45593999997E+02  0.45594000000E+02  0.51100000000E-03 0.  1.
         11   -1    0    0    0    0 -0.00000000000E+00 -0.00000000000E+00 -0.45593999997E+02  0.45594000000E+02  0.51100000000E-03 0. -1.
    9900012    2    1    2    0    0  0.82514084443E+01  0.97724024740E+01  0.29208459606E+02  0.59301957536E+02  0.50000024636E+02 0.  0.
         12    1    1    2    0    0 -0.82514084443E+01 -0.97724024740E+01 -0.29208459606E+02  0.31886042464E+02  0.00000000000E+00 0. -1.
         11    1    3    3    0    0 -0.22594235597E+01 -0.16899867019E+02  0.15243542655E+02  0.22870856849E+02  0.51100000000E-03 0. -1.
        -11    1    3    3    0    0 -0.32992106331E+01  0.30670369774E+01  0.68055537533E+01  0.81613153825E+01  0.51100000000E-03 0.  1.
         12    1    3    3    0    0  0.13810042637E+02  0.23605232516E+02  0.71593631984E+01  0.28269785305E+02  0.00000000000E+00 0. -1.
</event>
<event>
 7    1  0.5832130E-012  0.5930196E+02  0.7816164E-02  0.1266605E+00
        -11   -1    0    0    0    0  0.00000000000E+00  0.00000000000E+00  0.45593999997E+02  0.45594000000E+02  0.51100000000E-03 0.  1.
         11   -1    0    0    0    0 -0.00000000000E+00 -0.00000000000E+00 -0.45593999997E+02  0.45594000000E+02  0.51100000000E-03 0. -1.
    9900012    2    1    2    0    0  0.18860124119E+01 -0.30670098067E+02 -0.85151539457E+01  0.59301955953E+02  0.50000021749E+02 0.  0.
         12    1    1    2    0    0 -0.18860124119E+01  0.30670098067E+02  0.85151539457E+01  0.31886044047E+02  0.00000000000E+00 0. -1.
         11    1    3    3    0    0  0.28121836345E+01 -0.51937794602E+01  0.69421908765E+01  0.91146989145E+01  0.51100000000E-03 0. -1.
        -11    1    3    3    0    0 -0.86268279632E+01 -0.45744048874E+01  0.11585419254E+02  0.15151543827E+02  0.51100000000E-03 0.  1.
         12    1    3    3    0    0  0.77006567406E+01 -0.20901913719E+02 -0.27042764077E+02  0.35035713212E+02  0.00000000000E+00 0. -1.
</event>
<event>
 7    1  0.5832130E-012  0.5930191E+02  0.7816164E-02  0.1266605E+00
        -11   -1    0    0    0    0  0.00000000000E+00  0.00000000000E+00  0.45593999997E+02  0.45594000000E+02  0.51100000000E-03 0. -1.
         11   -1    0    0    0    0 -0.00000000000E+00 -0.00000000000E+00 -0.45593999997E+02  0.45594000000E+02  0.51100000000E-03 0.  1.
    9900012    2    1    2    0    0 -0.18028729525E+01 -0.16366625750E+02 -0.27305787908E+02  0.59301908321E+02  0.49999934879E+02 0.  0.
         12    1    1    2    0    0  0.18028729525E+01  0.16366625750E+02  0.27305787908E+02  0.31886091679E+02  0.00000000000E+00 0. -1.
         11    1    3    3    0    0 -0.16003718826E+02 -0.14818928697E+02 -0.28004324260E+01  0.21990045157E+02  0.51100000000E-03 0. -1.
        -11    1    3    3    0    0 -0.21652894886E+01 -0.94976301901E+01 -0.64779547591E+01  0.11698604871E+02  0.51100000000E-03 0.  1.
        -12    1    3    3    0    0  0.16366135362E+02  0.79499331374E+01 -0.18027400722E+02  0.25613258293E+02  0.00000000000E+00 0.  1.
</event>
<event>
 7    1  0.5832130E-012  0.5930205E+02  0.7816164E-02  0.1266604E+00
        -11   -1    0    0    0    0  0.00000000000E+00  0.00000000000E+00  0.45593999997E+02  0.45594000000E+02  0.51100000000E-03 0.  1.
         11   -1    0    0    0    0 -0.00000000000E+00 -0.00000000000E+00 -0.45593999997E+02  0.45594000000E+02  0.51100000000E-03 0. -1.
    9900012    2    1    2    0    0  0.26104726006E+02  0.17488893549E+02  0.54217826973E+01  0.59302049409E+02  0.50000192190E+02 0.  0.
         12    1    1    2    0    0 -0.26104726006E+02 -0.17488893549E+02 -0.54217826973E+01  0.31885950591E+02  0.00000000000E+00 0. -1.
         11    1    3    3    0    0  0.18412877646E+02 -0.82520332495E+01  0.47098340648E+01  0.20719861320E+02  0.51100000000E-03 0. -1.
        -11    1    3    3    0    0  0.92942439808E+01  0.88679300531E+01  0.12510171533E+02  0.17931189215E+02  0.51100000000E-03 0.  1.
         12    1    3    3    0    0 -0.16023956202E+01  0.16872996746E+02 -0.11798222901E+02  0.20650998875E+02  0.00000000000E+00 0. -1.
</event>
<event>
 7    1  0.5832130E-012  0.5930189E+02  0.7816164E-02  0.1266605E+00
        -11   -1    0    0    0    0  0.00000000000E+00  0.00000000000E+00  0.45593999997E+02  0.45594000000E+02  0.51100000000E-03 0.  1.
         11   -1    0    0    0    0 -0.00000000000E+00 -0.00000000000E+00 -0.45593999997E+02  0.45594000000E+02  0.51100000000E-03 0. -1.
    9900012    2    1    2    0    0  0.31123592420E+02 -0.49880527858E+01  0.48130056136E+01  0.59301894895E+02  0.49999910393E+02 0.  0.
         12    1    1    2    0    0 -0.31123592420E+02  0.49880527858E+01 -0.48130056136E+01  0.31886105105E+02  0.00000000000E+00 0. -1.
         11    1    3    3    0    0  0.10195890048E+02  0.10345885627E+02  0.16083400288E+02  0.21671854751E+02  0.51100000000E-03 0. -1.
        -11    1    3    3    0    0  0.10903373015E+02  0.53553457061E+01 -0.28626290378E+00  0.12150934839E+02  0.51100000000E-03 0.  1.
         12    1    3    3    0    0  0.10024329357E+02 -0.20689284119E+02 -0.10984131770E+02  0.25479105305E+02  0.00000000000E+00 0. -1.
</event>
<event>
 7    1  0.5832130E-012  0.5930194E+02  0.7816164E-02  0.1266605E+00
        -11   -1    0    0    0    0  0.00000000000E+00  0.00000000000E+00  0.45593999997E+02  0.45594000000E+02  0.51100000000E-03 0. -1.
         11   -1    0    0    0    0 -0.00000000000E+00 -0.00000000000E+00 -0.45593999997E+02  0.45594000000E+02  0.51100000000E-03 0.  1.
    9900012    2    1    2    0    0  0.15803858317E+02 -0.81173814214E+01 -0.26477664228E+02  0.59301944712E+02  0.50000001248E+02 0.  0.
         12    1    1    2    0    0 -0.15803858317E+02  0.81173814214E+01  0.26477664228E+02  0.31886055288E+02  0.00000000000E+00 0. -1.
         11    1    3    3    0    0 -0.61288369551E+01  0.27585905522E+01  0.55406227868E+01  0.87103941003E+01  0.51100000000E-03 0. -1.
        -11    1    3    3    0    0  0.21613512355E+02 -0.19978756775E+02 -0.28043000616E+02  0.40653468763E+02  0.51100000000E-03 0.  1.
         12    1    3    3    0    0  0.31918291720E+00  0.91027848018E+01 -0.39752863990E+01  0.99380818490E+01  0.00000000000E+00 0. -1.
</event>
<event>
 7    1  0.5832130E-012  0.5930199E+02  0.7816164E-02  0.1266605E+00
        -11   -1    0    0    0    0  0.00000000000E+00  0.00000000000E+00  0.45593999997E+02  0.45594000000E+02  0.51100000000E-03 0. -1.
         11   -1    0    0    0    0 -0.00000000000E+00 -0.00000000000E+00 -0.45593999997E+02  0.45594000000E+02  0.51100000000E-03 0.  1.
    9900012    2    1    2    0    0  0.44366363600E-01 -0.31822765212E+02  0.20068058081E+01  0.59301990158E+02  0.50000084131E+02 0.  0.
         12    1    1    2    0    0 -0.44366363600E-01  0.31822765212E+02 -0.20068058081E+01  0.31886009842E+02  0.00000000000E+00 0. -1.
         11    1    3    3    0    0 -0.10553613633E+02 -0.27582737209E+01 -0.39158686548E+01  0.11589687753E+02  0.51100000000E-03 0. -1.
        -11    1    3    3    0    0  0.31294393749E+01 -0.22008098796E+02 -0.13308217716E+02  0.25908656130E+02  0.51100000000E-03 0.  1.
        -12    1    3    3    0    0  0.74685406219E+01 -0.70563926949E+01  0.19230892179E+02  0.21803646275E+02  0.00000000000E+00 0.  1.
</event>
<event>
 7    1  0.5832130E-012  0.5930194E+02  0.7816164E-02  0.1266605E+00
        -11   -1    0    0    0    0  0.00000000000E+00  0.00000000000E+00  0.45593999997E+02  0.45594000000E+02  0.51100000000E-03 0. -1.
         11   -1    0    0    0    0 -0.00000000000E+00 -0.00000000000E+00 -0.45593999997E+02  0.45594000000E+02  0.51100000000E-03 0.  1.
    9900012    2    1    2    0    0  0.50662878482E+00 -0.45693093748E+01 -0.31552900767E+02  0.59301940229E+02  0.49999993072E+02 0.  0.
         12    1    1    2    0    0 -0.50662878482E+00  0.45693093748E+01  0.31552900767E+02  0.31886059771E+02  0.00000000000E+00 0. -1.
         11    1    3    3    0    0  0.56436612678E+01  0.89846817542E+01 -0.34407876076E+02  0.36006629321E+02  0.51100000000E-03 0. -1.
        -11    1    3    3    0    0 -0.42925154532E+01  0.85901738390E+00  0.70162064704E+01  0.82698702093E+01  0.51100000000E-03 0.  1.
        -12    1    3    3    0    0 -0.84451702980E+00 -0.14413008513E+02 -0.41612311618E+01  0.15025440699E+02  0.00000000000E+00 0.  1.
</event>
<event>
 7    1  0.5832130E-012  0.5930192E+02  0.7816164E-02  0.1266605E+00
        -11   -1    0    0    0    0  0.00000000000E+00  0.00000000000E+00  0.45593999997E+02  0.45594000000E+02  0.51100000000E-03 0.  1.
         11   -1    0    0    0    0 -0.00000000000E+00 -0.00000000000E+00 -0.45593999997E+02  0.45594000000E+02  0.51100000000E-03 0. -1.
    9900012    2    1    2    0    0  0.25975973928E+02  0.15801792487E+02  0.96059618141E+01  0.59301915736E+02  0.49999948403E+02 0.  0.
         12    1    1    2    0    0 -0.25975973928E+02 -0.15801792487E+02 -0.96059618141E+01  0.31886084264E+02  0.00000000000E+00 0. -1.
         11    1    3    3    0    0  0.66759879511E+01 -0.71353174747E+01 -0.29454886087E+01  0.10205756904E+02  0.51100000000E-03 0. -1.
        -11    1    3    3    0    0 -0.84349864351E+01 -0.26004546293E+01  0.63844668821E+01  0.10893703597E+02  0.51100000000E-03 0.  1.
        -12    1    3    3    0    0  0.27734972412E+02  0.25537564591E+02  0.61669835408E+01  0.38202455234E+02  0.00000000000E+00 0.  1.
</event>
<event>
 7    1  0.5832130E-012  0.5930188E+02  0.7816164E-02  0.1266605E+00
        -11   -1    0    0    0    0  0.00000000000E+00  0.00000000000E+00  0.45593999997E+02  0.45594000000E+02  0.51100000000E-03 0.  1.
         11   -1    0    0    0    0 -0.00000000000E+00 -0.00000000000E+00 -0.45593999997E+02  0.45594000000E+02  0.51100000000E-03 0. -1.
    9900012    2    1    2    0    0 -0.37014454808E+01 -0.18455631435E+01  0.31616733078E+02  0.59301880567E+02  0.49999884263E+02 0.  0.
         12    1    1    2    0    0  0.37014454808E+01  0.18455631435E+01 -0.31616733078E+02  0.31886119433E+02  0.00000000000E+00 0. -1.
         11    1    3    3    0    0 -0.18842367439E+01 -0.22978023180E+02  0.16410510480E+02  0.28299200551E+02  0.51100000000E-03 0. -1.
        -11    1    3    3    0    0 -0.55615460978E+01  0.51524568100E+01  0.12129515350E+02  0.14303976687E+02  0.51100000000E-03 0.  1.
        -12    1    3    3    0    0  0.37443373609E+01  0.15980003226E+02  0.30767072490E+01  0.16698703329E+02  0.00000000000E+00 0.  1.
</event>
<event>
 7    1  0.5832130E-012  0.5930193E+02  0.7816164E-02  0.1266605E+00
        -11   -1    0    0    0    0  0.00000000000E+00  0.00000000000E+00  0.45593999997E+02  0.45594000000E+02  0.51100000000E-03 0.  1.
         11   -1    0    0    0    0 -0.00000000000E+00 -0.00000000000E+00 -0.45593999997E+02  0.45594000000E+02  0.51100000000E-03 0. -1.
    9900012    2    1    2    0    0 -0.23362054493E+02  0.69529535004E+01  0.20557042775E+02  0.59301934702E+02  0.49999982992E+02 0.  0.
         12    1    1    2    0    0  0.23362054493E+02 -0.69529535004E+01 -0.20557042775E+02  0.31886065298E+02  0.00000000000E+00 0. -1.
         11    1    3    3    0    0  0.10356163709E+02  0.54922668903E+01 -0.53850402004E+01  0.12900146534E+02  0.51100000000E-03 0. -1.
        -11    1    3    3    0    0 -0.13578108025E+02 -0.23311403076E+01  0.57252567456E+00  0.13788655431E+02  0.51100000000E-03 0.  1.
        -12    1    3    3    0    0 -0.20140110177E+02  0.37918269176E+01  0.25369557301E+02  0.32613132738E+02  0.00000000000E+00 0.  1.
</event>
<event>
 7    1  0.5832130E-012  0.5930195E+02  0.7816164E-02  0.1266605E+00
        -11   -1    0    0    0    0  0.00000000000E+00  0.00000000000E+00  0.45593999997E+02  0.45594000000E+02  0.51100000000E-03 0.  1.
         11   -1    0    0    0    0 -0.00000000000E+00 -0.00000000000E+00 -0.45593999997E+02  0.45594000000E+02  0.51100000000E-03 0. -1.
    9900012    2    1    2    0    0 -0.14327925026E+02 -0.14641524507E+02  0.24434740935E+02  0.59301949131E+02  0.50000009308E+02 0.  0.
         12    1    1    2    0    0  0.14327925026E+02  0.14641524507E+02 -0.24434740935E+02  0.31886050869E+02  0.00000000000E+00 0. -1.
         11    1    3    3    0    0  0.41744484409E+01 -0.35765042997E+01 -0.99861529547E+01  0.11399151455E+02  0.51100000000E-03 0. -1.
        -11    1    3    3    0    0  0.37661409428E+01  0.45976765318E+01  0.79907136164E+01  0.99586119240E+01  0.51100000000E-03 0.  1.
        -12    1    3    3    0    0 -0.22268514410E+02 -0.15662696739E+02  0.26430180273E+02  0.37944185753E+02  0.00000000000E+00 0.  1.
</event>
<event>
 7    1  0.5832130E-012  0.5930187E+02  0.7816164E-02  0.1266605E+00
        -11   -1    0    0    0    0  0.00000000000E+00  0.00000000000E+00  0.45593999997E+02  0.45594000000E+02  0.51100000000E-03 0.  1.
         11   -1    0    0    0    0 -0.00000000000E+00 -0.00000000000E+00 -0.45593999997E+02  0.45594000000E+02  0.51100000000E-03 0. -1.
    9900012    2    1    2    0    0 -0.13299550321E+02  0.24858998740E+02  0.14895546354E+02  0.59301872009E+02  0.49999868655E+02 0.  0.
         12    1    1    2    0    0  0.13299550321E+02 -0.24858998740E+02 -0.14895546354E+02  0.31886127991E+02  0.00000000000E+00 0. -1.
         11    1    3    3    0    0  0.59395371308E+01 -0.27528188456E+01  0.45180626043E+01  0.79541814715E+01  0.51100000000E-03 0. -1.
        -11    1    3    3    0    0  0.97414277754E+01  0.16425010922E+02  0.57274366169E+01  0.19936898690E+02  0.51100000000E-03 0.  1.
        -12    1    3    3    0    0 -0.28980515227E+02  0.11186806663E+02  0.46500471324E+01  0.31410791848E+02  0.00000000000E+00 0.  1.
</event>
<event>
 7    1  0.5832130E-012  0.5930179E+02  0.7816164E-02  0.1266605E+00
        -11   -1    0    0    0    0  0.00000000000E+00  0.00000000000E+00  0.45593999997E+02  0.45594000000E+02  0.51100000000E-03 0. -1.
         11   -1    0    0    0    0 -0.00000000000E+00 -0.00000000000E+00 -0.45593999997E+02  0.45594000000E+02  0.51100000000E-03 0.  1.
    9900012    2    1    2    0    0 -0.28607005632E+01 -0.73602075476E+01 -0.30892949384E+02  0.59301786921E+02  0.49999713475E+02 0.  0.
         12    1    1    2    0    0  0.28607005632E+01  0.73602075476E+01  0.30892949384E+02  0.31886213079E+02  0.00000000000E+00 0. -1.
         11    1    3    3    0    0  0.46591701111E+01 -0.98239807494E+01 -0.29291718798E+01  0.11260484539E+02  0.51100000000E-03 0. -1.
        -11    1    3    3    0    0  0.15081837725E+02  0.36437318812E+01 -0.64103581299E+01  0.16787831986E+02  0.51100000000E-03 0.  1.
        -12    1    3    3    0    0 -0.22601708399E+02 -0.11799586795E+01 -0.21553419374E+02  0.31253470396E+02  0.00000000000E+00 0.  1.
</event>
<event>
 7    1  0.5832130E-012  0.5930194E+02  0.7816164E-02  0.1266605E+00
        -11   -1    0    0    0    0  0.00000000000E+00  0.00000000000E+00  0.45593999997E+02  0.45594000000E+02  0.51100000000E-03 0. -1.
         11   -1    0    0    0    0 -0.00000000000E+00 -0.00000000000E+00 -0.45593999997E+02  0.45594000000E+02  0.51100000000E-03 0.  1.
    9900012    2    1    2    0    0 -0.24984919030E+02  0.19805732359E+02 -0.45554192122E+00  0.59301941422E+02  0.49999995248E+02 0.  0.
         12    1    1    2    0    0  0.24984919030E+02 -0.19805732359E+02  0.45554192122E+00  0.31886058578E+02  0.00000000000E+00 0. -1.
         11    1    3    3    0    0 -0.48856760457E+01  0.15878209045E+01 -0.57692296736E+01  0.77249606430E+01  0.51100000000E-03 0. -1.
        -11    1    3    3    0    0  0.59754247050E+01  0.14130253738E+02 -0.12454122848E+02  0.19760438945E+02  0.51100000000E-03 0.  1.
         12    1    3    3    0    0 -0.26074667689E+02  0.40876577159E+01  0.17767810601E+02  0.31816541834E+02  0.00000000000E+00 0. -1.
</event>
<event>
 7    1  0.5832130E-012  0.5930208E+02  0.7816164E-02  0.1266604E+00
        -11   -1    0    0    0    0  0.00000000000E+00  0.00000000000E+00  0.45593999997E+02  0.45594000000E+02  0.51100000000E-03 0.  1.
         11   -1    0    0    0    0 -0.00000000000E+00 -0.00000000000E+00 -0.45593999997E+02  0.45594000000E+02  0.51100000000E-03 0. -1.
    9900012    2    1    2    0    0 -0.21571710192E+02  0.20009622854E+02 -0.12287738358E+02  0.59302075185E+02  0.50000239199E+02 0.  0.
         12    1    1    2    0    0  0.21571710192E+02 -0.20009622854E+02  0.12287738358E+02  0.31885924815E+02  0.00000000000E+00 0. -1.
         11    1    3    3    0    0 -0.11470140669E+02  0.74075535115E+01 -0.19660029746E+02  0.23936431352E+02  0.51100000000E-03 0. -1.
        -11    1    3    3    0    0 -0.13584054148E+02  0.42565397271E+00 -0.77464246353E+01  0.15643362915E+02  0.51100000000E-03 0.  1.
         12    1    3    3    0    0  0.34824846257E+01  0.12176415370E+02  0.15118716023E+02  0.19722280918E+02  0.00000000000E+00 0. -1.
</event>
<event>
 7    1  0.5832130E-012  0.5930195E+02  0.7816164E-02  0.1266605E+00
        -11   -1    0    0    0    0  0.00000000000E+00  0.00000000000E+00  0.45593999997E+02  0.45594000000E+02  0.51100000000E-03 0.  1.
         11   -1    0    0    0    0 -0.00000000000E+00 -0.00000000000E+00 -0.45593999997E+02  0.45594000000E+02  0.51100000000E-03 0. -1.
    9900012    2    1    2    0    0 -0.17040403335E+02  0.44146817037E-01  0.26950752171E+02  0.59301947605E+02  0.50000006524E+02 0.  0.
         12    1    1    2    0    0  0.17040403335E+02 -0.44146817037E-01 -0.26950752171E+02  0.31886052395E+02  0.00000000000E+00 0. -1.
         11    1    3    3    0    0 -0.48204678245E+01  0.48298634794E+01  0.84553400693E+01  0.10865416109E+02  0.51100000000E-03 0. -1.
        -11    1    3    3    0    0 -0.37279112020E+01 -0.10630234665E+02  0.30558438297E+02  0.32568656134E+02  0.51100000000E-03 0.  1.
        -12    1    3    3    0    0 -0.84920243084E+01  0.58445180024E+01 -0.12063026195E+02  0.15867875362E+02  0.00000000000E+00 0.  1.
</event>
<event>
 7    1  0.5832130E-012  0.5930197E+02  0.7816164E-02  0.1266605E+00
        -11   -1    0    0    0    0  0.00000000000E+00  0.00000000000E+00  0.45593999997E+02  0.45594000000E+02  0.51100000000E-03 0. -1.
         11   -1    0    0    0    0 -0.00000000000E+00 -0.00000000000E+00 -0.45593999997E+02  0.45594000000E+02  0.51100000000E-03 0.  1.
    9900012    2    1    2    0    0 -0.22540712567E+02  0.26065625368E+01 -0.22401808492E+02  0.59301969908E+02  0.50000047200E+02 0.  0.
         12    1    1    2    0    0  0.22540712567E+02 -0.26065625368E+01  0.22401808492E+02  0.31886030092E+02  0.00000000000E+00 0. -1.
         11    1    3    3    0    0 -0.25980973523E+00 -0.21149606271E+01 -0.79952604017E+01  0.82743427960E+01  0.51100000000E-03 0. -1.
        -11    1    3    3    0    0  0.89185682512E+01 -0.43094623237E+01  0.69988394273E+01  0.12128317227E+02  0.51100000000E-03 0.  1.
        -12    1    3    3    0    0 -0.31199471083E+02  0.90309854876E+01 -0.21405387518E+02  0.38899309885E+02  0.00000000000E+00 0.  1.
</event>
<event>
 7    1  0.5832130E-012  0.5930194E+02  0.7816164E-02  0.1266605E+00
        -11   -1    0    0    0    0  0.00000000000E+00  0.00000000000E+00  0.45593999997E+02  0.45594000000E+02  0.51100000000E-03 0.  1.
         11   -1    0    0    0    0 -0.00000000000E+00 -0.00000000000E+00 -0.45593999997E+02  0.45594000000E+02  0.51100000000E-03 0. -1.
    9900012    2    1    2    0    0 -0.14004167645E+02 -0.83331964088E+01  0.27407338082E+02  0.59301936359E+02  0.49999986014E+02 0.  0.
         12    1    1    2    0    0  0.14004167645E+02  0.83331964088E+01 -0.27407338082E+02  0.31886063641E+02  0.00000000000E+00 0. -1.
         11    1    3    3    0    0 -0.13382938426E+02  0.23560140160E+01 -0.42165661241E+01  0.14227904733E+02  0.51100000000E-03 0. -1.
        -11    1    3    3    0    0 -0.15252450534E+02 -0.42580989163E+01  0.12664482586E+02  0.20277025747E+02  0.51100000000E-03 0.  1.
        -12    1    3    3    0    0  0.14631221316E+02 -0.64311115085E+01  0.18959421619E+02  0.24797005879E+02  0.00000000000E+00 0.  1.
</event>
<event>
 7    1  0.5832130E-012  0.5930201E+02  0.7816164E-02  0.1266605E+00
        -11   -1    0    0    0    0  0.00000000000E+00  0.00000000000E+00  0.45593999997E+02  0.45594000000E+02  0.51100000000E-03 0.  1.
         11   -1    0    0    0    0 -0.00000000000E+00 -0.00000000000E+00 -0.45593999997E+02  0.45594000000E+02  0.51100000000E-03 0. -1.
    9900012    2    1    2    0    0 -0.30588212841E+02 -0.73902898906E+01  0.51440232990E+01  0.59302013656E+02  0.50000126984E+02 0.  0.
         12    1    1    2    0    0  0.30588212841E+02  0.73902898906E+01 -0.51440232990E+01  0.31885986344E+02  0.00000000000E+00 0. -1.
         11    1    3    3    0    0  0.12748614879E+02 -0.61367450784E+01 -0.33103931999E+00  0.14152611377E+02  0.51100000000E-03 0. -1.
        -11    1    3    3    0    0 -0.38566538236E+01 -0.32520531355E+01  0.21346097305E+01  0.54777903642E+01  0.51100000000E-03 0.  1.
        -12    1    3    3    0    0 -0.39480173896E+02  0.19985083234E+01  0.33404528885E+01  0.39671611915E+02  0.00000000000E+00 0.  1.
</event>
<event>
 7    1  0.5832130E-012  0.5930213E+02  0.7816164E-02  0.1266604E+00
        -11   -1    0    0    0    0  0.00000000000E+00  0.00000000000E+00  0.45593999997E+02  0.45594000000E+02  0.51100000000E-03 0. -1.
         11   -1    0    0    0    0 -0.00000000000E+00 -0.00000000000E+00 -0.45593999997E+02  0.45594000000E+02  0.51100000000E-03 0.  1.
    9900012    2    1    2    0    0  0.44197942794E+01 -0.16858607927E+02 -0.26701333604E+02  0.59302133869E+02  0.50000346224E+02 0.  0.
         12    1    1    2    0    0 -0.44197942794E+01  0.16858607927E+02  0.26701333604E+02  0.31885866131E+02  0.00000000000E+00 0. -1.
         11    1    3    3    0    0  0.10067983810E+02  0.10556781832E+02 -0.12237677390E+02  0.19041289053E+02  0.51100000000E-03 0. -1.
        -11    1    3    3    0    0 -0.67752839877E+01 -0.14969155519E+02 -0.20590255168E+02  0.26342716227E+02  0.51100000000E-03 0.  1.
         12    1    3    3    0    0  0.11270944569E+01 -0.12446234240E+02  0.61265989545E+01  0.13918128589E+02  0.00000000000E+00 0. -1.
</event>
<event>
 7    1  0.5832130E-012  0.5930195E+02  0.7816164E-02  0.1266605E+00
        -11   -1    0    0    0    0  0.00000000000E+00  0.00000000000E+00  0.45593999997E+02  0.45594000000E+02  0.51100000000E-03 0. -1.
         11   -1    0    0    0    0 -0.00000000000E+00 -0.00000000000E+00 -0.45593999997E+02  0.45594000000E+02  0.51100000000E-03 0.  1.
    9900012    2    1    2    0    0  0.23587544209E+02 -0.35155267098E+01 -0.21165748436E+02  0.59301951692E+02  0.50000013978E+02 0.  0.
         12    1    1    2    0    0 -0.23587544209E+02  0.35155267098E+01  0.21165748436E+02  0.31886048308E+02  0.00000000000E+00 0. -1.
         11    1    3    3    0    0  0.27482461251E+01 -0.47233619773E+01  0.12538171549E+01  0.56066980346E+01  0.51100000000E-03 0. -1.
        -11    1    3    3    0    0  0.66949837798E+01  0.10137930357E+01  0.13493237311E+02  0.15096954578E+02  0.51100000000E-03 0.  1.
        -12    1    3    3    0    0  0.14144314304E+02  0.19404223184E+00 -0.35912802902E+02  0.38598299079E+02  0.00000000000E+00 0.  1.
</event>
<event>
 7    1  0.5832130E-012  0.5930197E+02  0.7816164E-02  0.1266605E+00
        -11   -1    0    0    0    0  0.00000000000E+00  0.00000000000E+00  0.45593999997E+02  0.45594000000E+02  0.51100000000E-03 0.  1.
         11   -1    0    0    0    0 -0.00000000000E+00 -0.00000000000E+00 -0.45593999997E+02  0.45594000000E+02  0.51100000000E-03 0. -1.
    9900012    2    1    2    0    0 -0.29465813751E+02 -0.13384146921E+01  0.12111705197E+02  0.59301969568E+02  0.50000046580E+02 0.  0.
         12    1    1    2    0    0  0.29465813751E+02  0.13384146921E+01 -0.12111705197E+02  0.31886030432E+02  0.00000000000E+00 0. -1.
         11    1    3    3    0    0 -0.57806387055E+00 -0.59740551983E+01 -0.71625461875E+01  0.93448146852E+01  0.51100000000E-03 0. -1.
        -11    1    3    3    0    0 -0.10547958539E+01  0.13232981834E+02 -0.26012659289E+01  0.13527416132E+02  0.51100000000E-03 0.  1.
        -12    1    3    3    0    0 -0.27832954027E+02 -0.85973413276E+01  0.21875517313E+02  0.36429738751E+02  0.00000000000E+00 0.  1.
</event>
<event>
 7    1  0.5832130E-012  0.5930195E+02  0.7816164E-02  0.1266605E+00
        -11   -1    0    0    0    0  0.00000000000E+00  0.00000000000E+00  0.45593999997E+02  0.45594000000E+02  0.51100000000E-03 0.  1.
         11   -1    0    0    0    0 -0.00000000000E+00 -0.00000000000E+00 -0.45593999997E+02  0.45594000000E+02  0.51100000000E-03 0. -1.
    9900012    2    1    2    0    0 -0.12719764899E+02  0.11999574312E+02  0.26663422510E+02  0.59301948148E+02  0.50000007515E+02 0.  0.
         12    1    1    2    0    0  0.12719764899E+02 -0.11999574312E+02 -0.26663422510E+02  0.31886051852E+02  0.00000000000E+00 0. -1.
         11    1    3    3    0    0  0.10233753373E+01  0.15791597287E+02  0.35482467552E+01  0.16217641544E+02  0.51100000000E-03 0. -1.
        -11    1    3    3    0    0  0.96852114494E+00 -0.10090862715E+02 -0.45596667862E+01  0.11115489418E+02  0.51100000000E-03 0.  1.
        -12    1    3    3    0    0 -0.14711661381E+02  0.62988397404E+01  0.27674842541E+02  0.31968817187E+02  0.00000000000E+00 0.  1.
</event>
<event>
 7    1  0.5832130E-012  0.5930193E+02  0.7816164E-02  0.1266605E+00
        -11   -1    0    0    0    0  0.00000000000E+00  0.00000000000E+00  0.45593999997E+02  0.45594000000E+02  0.51100000000E-03 0. -1.
         11   -1    0    0    0    0 -0.00000000000E+00 -0.00000000000E+00 -0.45593999997E+02  0.45594000000E+02  0.51100000000E-03 0.  1.
    9900012    2    1    2    0    0  0.14519901444E+02 -0.26027739706E+02 -0.11333606545E+02  0.59301930793E+02  0.49999975863E+02 0.  0.
         12    1    1    2    0    0 -0.14519901444E+02  0.26027739706E+02  0.11333606545E+02  0.31886069207E+02  0.00000000000E+00 0. -1.
         11    1    3    3    0    0  0.15896669536E+02 -0.65578496591E+01  0.11879136897E+02  0.20900320289E+02  0.51100000000E-03 0. -1.
        -11    1    3    3    0    0  0.59202995339E+01  0.30160340844E+01 -0.29663615627E+01  0.72763802369E+01  0.51100000000E-03 0.  1.
        -12    1    3    3    0    0 -0.72970676265E+01 -0.22485924131E+02 -0.20246381879E+02  0.31125230267E+02  0.00000000000E+00 0.  1.
</event>
<event>
 7    1  0.5832130E-012  0.5930194E+02  0.7816164E-02  0.1266605E+00
        -11   -1    0    0    0    0  0.00000000000E+00  0.00000000000E+00  0.45593999997E+02  0.45594000000E+02  0.51100000000E-03 0.  1.
         11   -1    0    0    0    0 -0.00000000000E+00 -0.00000000000E+00 -0.45593999997E+02  0.45594000000E+02  0.51100000000E-03 0. -1.
    9900012    2    1    2    0    0 -0.71348035279E+01 -0.29008219839E+02  0.11150710292E+02  0.59301943806E+02  0.49999999596E+02 0.  0.
         12    1    1    2    0    0  0.71348035279E+01  0.29008219839E+02 -0.11150710292E+02  0.31886056194E+02  0.00000000000E+00 0. -1.
         11    1    3    3    0    0 -0.68102382479E+01  0.72857396159E+01  0.64564498460E+01  0.11880534147E+02  0.51100000000E-03 0. -1.
        -11    1    3    3    0    0  0.13730228136E+02 -0.96223255903E+01  0.41321764313E+01  0.17267981838E+02  0.51100000000E-03 0.  1.
         12    1    3    3    0    0 -0.14054793416E+02 -0.26671633864E+02  0.56208401420E+00  0.30153427821E+02  0.00000000000E+00 0. -1.
</event>
<event>
 7    1  0.5832130E-012  0.5930197E+02  0.7816164E-02  0.1266605E+00
        -11   -1    0    0    0    0  0.00000000000E+00  0.00000000000E+00  0.45593999997E+02  0.45594000000E+02  0.51100000000E-03 0.  1.
         11   -1    0    0    0    0 -0.00000000000E+00 -0.00000000000E+00 -0.45593999997E+02  0.45594000000E+02  0.51100000000E-03 0. -1.
    9900012    2    1    2    0    0 -0.13858138489E+02  0.20822136680E+02  0.19776489419E+02  0.59301969955E+02  0.50000047285E+02 0.  0.
         12    1    1    2    0    0  0.13858138489E+02 -0.20822136680E+02 -0.19776489419E+02  0.31886030045E+02  0.00000000000E+00 0. -1.
         11    1    3    3    0    0  0.71788606051E+01  0.12149104723E+02  0.12003465973E+02  0.18526197148E+02  0.51100000000E-03 0. -1.
        -11    1    3    3    0    0 -0.24825143838E+01  0.10574295121E+02  0.16838437513E+02  0.20037753694E+02  0.51100000000E-03 0.  1.
         12    1    3    3    0    0 -0.18554484710E+02 -0.19012631639E+01 -0.90654140672E+01  0.20738019112E+02  0.00000000000E+00 0. -1.
</event>
<event>
 7    1  0.5832130E-012  0.5930222E+02  0.7816164E-02  0.1266604E+00
        -11   -1    0    0    0    0  0.00000000000E+00  0.00000000000E+00  0.45593999997E+02  0.45594000000E+02  0.51100000000E-03 0.  1.
         11   -1    0    0    0    0 -0.00000000000E+00 -0.00000000000E+00 -0.45593999997E+02  0.45594000000E+02  0.51100000000E-03 0. -1.
    9900012    2    1    2    0    0 -0.87516532182E+01  0.25714493725E+02  0.16699591771E+02  0.59302219675E+02  0.50000502712E+02 0.  0.
         12    1    1    2    0    0  0.87516532182E+01 -0.25714493725E+02 -0.16699591771E+02  0.31885780325E+02  0.00000000000E+00 0. -1.
         11    1    3    3    0    0  0.45777880197E+01  0.23417096995E+02  0.15818197822E+02  0.28627468582E+02  0.51100000000E-03 0. -1.
        -11    1    3    3    0    0 -0.15251046108E+02  0.12682353540E+02  0.24928712533E+01  0.19991270746E+02  0.51100000000E-03 0.  1.
        -12    1    3    3    0    0  0.19216048704E+01 -0.10384956810E+02 -0.16114773039E+01  0.10683480347E+02  0.00000000000E+00 0.  1.
</event>
<event>
 7    1  0.5832130E-012  0.5930194E+02  0.7816164E-02  0.1266605E+00
        -11   -1    0    0    0    0  0.00000000000E+00  0.00000000000E+00  0.45593999997E+02  0.45594000000E+02  0.51100000000E-03 0.  1.
         11   -1    0    0    0    0 -0.00000000000E+00 -0.00000000000E+00 -0.45593999997E+02  0.45594000000E+02  0.51100000000E-03 0. -1.
    9900012    2    1    2    0    0 -0.17846797201E+02  0.25754191153E+02 -0.59105327353E+01  0.59301938320E+02  0.49999989591E+02 0.  0.
         12    1    1    2    0    0  0.17846797201E+02 -0.25754191153E+02  0.59105327353E+01  0.31886061680E+02  0.00000000000E+00 0. -1.
         11    1    3    3    0    0 -0.18399110576E+01  0.98279314228E+01  0.33802671825E+01  0.10554606352E+02  0.51100000000E-03 0. -1.
        -11    1    3    3    0    0 -0.27270377246E+02  0.21999625455E+02 -0.74160380723E+01  0.35814167814E+02  0.51100000000E-03 0.  1.
         12    1    3    3    0    0  0.11263491103E+02 -0.60733657248E+01 -0.18747618455E+01  0.12933164154E+02  0.00000000000E+00 0. -1.
</event>
<event>
 7    1  0.5832130E-012  0.5930196E+02  0.7816164E-02  0.1266605E+00
        -11   -1    0    0    0    0  0.00000000000E+00  0.00000000000E+00  0.45593999997E+02  0.45594000000E+02  0.51100000000E-03 0.  1.
         11   -1    0    0    0    0 -0.00000000000E+00 -0.00000000000E+00 -0.45593999997E+02  0.45594000000E+02  0.51100000000E-03 0. -1.
    9900012    2    1    2    0    0  0.12639108336E+02 -0.10684114834E+02  0.27254761832E+02  0.59301962118E+02  0.50000032992E+02 0.  0.
         12    1    1    2    0    0 -0.12639108336E+02  0.10684114834E+02 -0.27254761832E+02  0.31886037882E+02  0.00000000000E+00 0. -1.
         11    1    3    3    0    0 -0.92298489809E+01  0.81780574062E+01  0.14774155692E+01  0.12419882937E+02  0.51100000000E-03 0. -1.
        -11    1    3    3    0    0  0.20753423045E+02 -0.36390198415E+01  0.23307590911E+02  0.31419593056E+02  0.51100000000E-03 0.  1.
         12    1    3    3    0    0  0.11155342712E+01 -0.15223152398E+02  0.24697553521E+01  0.15462486125E+02  0.00000000000E+00 0. -1.
</event>
<event>
 7    1  0.5832130E-012  0.5930193E+02  0.7816164E-02  0.1266605E+00
        -11   -1    0    0    0    0  0.00000000000E+00  0.00000000000E+00  0.45593999997E+02  0.45594000000E+02  0.51100000000E-03 0.  1.
         11   -1    0    0    0    0 -0.00000000000E+00 -0.00000000000E+00 -0.45593999997E+02  0.45594000000E+02  0.51100000000E-03 0. -1.
    9900012    2    1    2    0    0 -0.15512648522E+02  0.66062263853E+01  0.27063569335E+02  0.59301932880E+02  0.49999979668E+02 0.  0.
         12    1    1    2    0    0  0.15512648522E+02 -0.66062263853E+01 -0.27063569335E+02  0.31886067120E+02  0.00000000000E+00 0. -1.
         11    1    3    3    0    0 -0.11880334195E+02 -0.72056833403E+01  0.92579599303E+01  0.16696527642E+02  0.51100000000E-03 0. -1.
        -11    1    3    3    0    0 -0.14612115347E+02 -0.55646424385E+01  0.11651222093E+02  0.19499490683E+02  0.51100000000E-03 0.  1.
        -12    1    3    3    0    0  0.10979801019E+02  0.19376552164E+02  0.61543873124E+01  0.23105914554E+02  0.00000000000E+00 0.  1.
</event>
<event>
 7    1  0.5832130E-012  0.5930201E+02  0.7816164E-02  0.1266605E+00
        -11   -1    0    0    0    0  0.00000000000E+00  0.00000000000E+00  0.45593999997E+02  0.45594000000E+02  0.51100000000E-03 0.  1.
         11   -1    0    0    0    0 -0.00000000000E+00 -0.00000000000E+00 -0.45593999997E+02  0.45594000000E+02  0.51100000000E-03 0. -1.
    9900012    2    1    2    0    0  0.10688513067E+01 -0.30887678740E+02  0.78437893379E+01  0.59302012917E+02  0.50000125637E+02 0.  0.
         12    1    1    2    0    0 -0.10688513067E+01  0.30887678740E+02 -0.78437893379E+01  0.31885987083E+02  0.00000000000E+00 0. -1.
         11    1    3    3    0    0  0.85665398955E+01 -0.15365005691E+02  0.13309510789E+01  0.17642007729E+02  0.51100000000E-03 0.  1.
        -11    1    3    3    0    0 -0.54014540962E+01  0.28445363613E+01  0.18597686244E+02  0.19573988540E+02  0.51100000000E-03 0. -1.
         12    1    3    3    0    0 -0.20962344925E+01 -0.18367209411E+02 -0.12084847985E+02  0.22086016649E+02  0.00000000000E+00 0. -1.
</event>
<event>
 7    1  0.5832130E-012  0.5930191E+02  0.7816164E-02  0.1266605E+00
        -11   -1    0    0    0    0  0.00000000000E+00  0.00000000000E+00  0.45593999997E+02  0.45594000000E+02  0.51100000000E-03 0. -1.
         11   -1    0    0    0    0 -0.00000000000E+00 -0.00000000000E+00 -0.45593999997E+02  0.45594000000E+02  0.51100000000E-03 0.  1.
    9900012    2    1    2    0    0 -0.31415833080E+01  0.77095067388E+01 -0.30780138928E+02  0.59301905974E+02  0.49999930599E+02 0.  0.
         12    1    1    2    0    0  0.31415833080E+01 -0.77095067388E+01  0.30780138928E+02  0.31886094026E+02  0.00000000000E+00 0. -1.
         11    1    3    3    0    0  0.27602540880E+01  0.13730261178E+02 -0.26182903083E+02  0.29693155588E+02  0.51100000000E-03 0.  1.
        -11    1    3    3    0    0 -0.97206997678E+01  0.10717011346E+01 -0.14094758036E+02  0.17155254345E+02  0.51100000000E-03 0. -1.
         12    1    3    3    0    0  0.38188623718E+01 -0.70924555737E+01  0.94975221910E+01  0.12453496041E+02  0.00000000000E+00 0. -1.
</event>
<event>
 7    1  0.5832130E-012  0.5930195E+02  0.7816164E-02  0.1266605E+00
        -11   -1    0    0    0    0  0.00000000000E+00  0.00000000000E+00  0.45593999997E+02  0.45594000000E+02  0.51100000000E-03 0. -1.
         11   -1    0    0    0    0 -0.00000000000E+00 -0.00000000000E+00 -0.45593999997E+02  0.45594000000E+02  0.51100000000E-03 0.  1.
    9900012    2    1    2    0    0 -0.16366869192E+02 -0.71227823661E+01  0.26421805070E+02  0.59301949462E+02  0.50000009911E+02 0.  0.
         12    1    1    2    0    0  0.16366869192E+02  0.71227823661E+01 -0.26421805070E+02  0.31886050538E+02  0.00000000000E+00 0. -1.
         11    1    3    3    0    0 -0.57615595417E+01  0.14529794024E+02  0.29927747308E+02  0.33763597882E+02  0.51100000000E-03 0. -1.
        -11    1    3    3    0    0 -0.50396880666E+01 -0.39773222465E+01 -0.27721519864E+01  0.69930233060E+01  0.51100000000E-03 0.  1.
        -12    1    3    3    0    0 -0.55656215832E+01 -0.17675254144E+02 -0.73379025205E+00  0.18545328274E+02  0.00000000000E+00 0.  1.
</event>
<event>
 7    1  0.5832130E-012  0.5930191E+02  0.7816164E-02  0.1266605E+00
        -11   -1    0    0    0    0  0.00000000000E+00  0.00000000000E+00  0.45593999997E+02  0.45594000000E+02  0.51100000000E-03 0. -1.
         11   -1    0    0    0    0 -0.00000000000E+00 -0.00000000000E+00 -0.45593999997E+02  0.45594000000E+02  0.51100000000E-03 0.  1.
    9900012    2    1    2    0    0 -0.13932134479E+02  0.27280315032E+02 -0.88545502858E+01  0.59301905536E+02  0.49999929800E+02 0.  0.
         12    1    1    2    0    0  0.13932134479E+02 -0.27280315032E+02  0.88545502858E+01  0.31886094464E+02  0.00000000000E+00 0. -1.
         11    1    3    3    0    0 -0.77540440980E+01 -0.50181196191E+01 -0.57168330092E+01  0.10862269758E+02  0.51100000000E-03 0. -1.
        -11    1    3    3    0    0  0.88516432188E+01  0.27268593306E+02 -0.11050323081E+02  0.30725191765E+02  0.51100000000E-03 0.  1.
         12    1    3    3    0    0 -0.15029733600E+02  0.50298413454E+01  0.79126058043E+01  0.17714444012E+02  0.00000000000E+00 0. -1.
</event>
<event>
 7    1  0.5832130E-012  0.5930194E+02  0.7816164E-02  0.1266605E+00
        -11   -1    0    0    0    0  0.00000000000E+00  0.00000000000E+00  0.45593999997E+02  0.45594000000E+02  0.51100000000E-03 0. -1.
         11   -1    0    0    0    0 -0.00000000000E+00 -0.00000000000E+00 -0.45593999997E+02  0.45594000000E+02  0.51100000000E-03 0.  1.
    9900012    2    1    2    0    0 -0.48393307139E+01  0.26655013931E+02  0.16817020081E+02  0.59301936370E+02  0.49999986033E+02 0.  0.
         12    1    1    2    0    0  0.48393307139E+01 -0.26655013931E+02 -0.16817020081E+02  0.31886063630E+02  0.00000000000E+00 0. -1.
         11    1    3    3    0    0 -0.71931613075E+01 -0.58751176292E+01 -0.64001248434E+01  0.11279192126E+02  0.51100000000E-03 0. -1.
        -11    1    3    3    0    0 -0.61177133729E+01 -0.19880144264E+01  0.45248878843E+01  0.78646823775E+01  0.51100000000E-03 0.  1.
        -12    1    3    3    0    0  0.84715439665E+01  0.34518145987E+02  0.18692257040E+02  0.40158061866E+02  0.00000000000E+00 0.  1.
</event>
<event>
 7    1  0.5832130E-012  0.5930194E+02  0.7816164E-02  0.1266605E+00
        -11   -1    0    0    0    0  0.00000000000E+00  0.00000000000E+00  0.45593999997E+02  0.45594000000E+02  0.51100000000E-03 0.  1.
         11   -1    0    0    0    0 -0.00000000000E+00 -0.00000000000E+00 -0.45593999997E+02  0.45594000000E+02  0.51100000000E-03 0. -1.
    9900012    2    1    2    0    0 -0.19590945180E+02 -0.67207101207E+01  0.24243504261E+02  0.59301943856E+02  0.49999999687E+02 0.  0.
         12    1    1    2    0    0  0.19590945180E+02  0.67207101207E+01 -0.24243504261E+02  0.31886056144E+02  0.00000000000E+00 0. -1.
         11    1    3    3    0    0  0.69068970038E+01  0.88256801844E+01  0.80173912143E+01  0.13779565272E+02  0.51100000000E-03 0. -1.
        -11    1    3    3    0    0 -0.19335775430E+02  0.44115513298E+00  0.19761088590E+02  0.27650812861E+02  0.51100000000E-03 0.  1.
        -12    1    3    3    0    0 -0.71620667536E+01 -0.15987545438E+02 -0.35349755430E+01  0.17871565723E+02  0.00000000000E+00 0.  1.
</event>
<event>
 7    1  0.5832130E-012  0.5930195E+02  0.7816164E-02  0.1266605E+00
        -11   -1    0    0    0    0  0.00000000000E+00  0.00000000000E+00  0.45593999997E+02  0.45594000000E+02  0.51100000000E-03 0. -1.
         11   -1    0    0    0    0 -0.00000000000E+00 -0.00000000000E+00 -0.45593999997E+02  0.45594000000E+02  0.51100000000E-03 0.  1.
    9900012    2    1    2    0    0  0.27260790543E+02 -0.65970432180E+01 -0.15167359390E+02  0.59301945507E+02  0.50000002698E+02 0.  0.
         12    1    1    2    0    0 -0.27260790543E+02  0.65970432180E+01  0.15167359390E+02  0.31886054493E+02  0.00000000000E+00 0. -1.
         11    1    3    3    0    0  0.21409784328E+02 -0.76370312800E+01 -0.67361174689E+00  0.22741083193E+02  0.51100000000E-03 0. -1.
        -11    1    3    3    0    0  0.16587501956E+02  0.10172076618E+02 -0.79164760167E+01  0.21006831190E+02  0.51100000000E-03 0.  1.
         12    1    3    3    0    0 -0.10736495741E+02 -0.91320885557E+01 -0.65772716264E+01  0.15554031125E+02  0.00000000000E+00 0. -1.
</event>
<event>
 7    1  0.5832130E-012  0.5930193E+02  0.7816164E-02  0.1266605E+00
        -11   -1    0    0    0    0  0.00000000000E+00  0.00000000000E+00  0.45593999997E+02  0.45594000000E+02  0.51100000000E-03 0.  1.
         11   -1    0    0    0    0 -0.00000000000E+00 -0.00000000000E+00 -0.45593999997E+02  0.45594000000E+02  0.51100000000E-03 0. -1.
    9900012    2    1    2    0    0  0.94688123385E+01  0.30440997806E+02 -0.63952951392E+00  0.59301925414E+02  0.49999966052E+02 0.  0.
         12    1    1    2    0    0 -0.94688123385E+01 -0.30440997806E+02  0.63952951392E+00  0.31886074586E+02  0.00000000000E+00 0. -1.
         11    1    3    3    0    0 -0.10070528189E+02  0.20069139660E+02  0.61399271099E+01  0.23278415106E+02  0.51100000000E-03 0. -1.
        -11    1    3    3    0    0  0.53193366264E+01  0.95643368584E+01  0.94294574681E+01  0.14445987335E+02  0.51100000000E-03 0.  1.
        -12    1    3    3    0    0  0.14220003901E+02  0.80752128785E+00 -0.16208914092E+02  0.21577522972E+02  0.00000000000E+00 0.  1.
</event>
<event>
 7    1  0.5832130E-012  0.5930194E+02  0.7816164E-02  0.1266605E+00
        -11   -1    0    0    0    0  0.00000000000E+00  0.00000000000E+00  0.45593999997E+02  0.45594000000E+02  0.51100000000E-03 0.  1.
         11   -1    0    0    0    0 -0.00000000000E+00 -0.00000000000E+00 -0.45593999997E+02  0.45594000000E+02  0.51100000000E-03 0. -1.
    9900012    2    1    2    0    0 -0.21023289510E+02 -0.12508218973E+02  0.20452062965E+02  0.59301935282E+02  0.49999984049E+02 0.  0.
         12    1    1    2    0    0  0.21023289510E+02  0.12508218973E+02 -0.20452062965E+02  0.31886064718E+02  0.00000000000E+00 0. -1.
         11    1    3    3    0    0  0.39421125940E+01  0.20120848751E+01 -0.41587242422E+01  0.60731972495E+01  0.51100000000E-03 0. -1.
        -11    1    3    3    0    0 -0.18497656364E+02  0.74363945861E+01  0.44222158176E+00  0.19941384495E+02  0.51100000000E-03 0.  1.
        -12    1    3    3    0    0 -0.64677457395E+01 -0.21956698434E+02  0.24168565626E+02  0.33287353537E+02  0.00000000000E+00 0.  1.
</event>
<event>
 7    1  0.5832130E-012  0.5930198E+02  0.7816164E-02  0.1266605E+00
        -11   -1    0    0    0    0  0.00000000000E+00  0.00000000000E+00  0.45593999997E+02  0.45594000000E+02  0.51100000000E-03 0.  1.
         11   -1    0    0    0    0 -0.00000000000E+00 -0.00000000000E+00 -0.45593999997E+02  0.45594000000E+02  0.51100000000E-03 0. -1.
    9900012    2    1    2    0    0  0.69001306272E+01  0.27208933124E+02  0.15125497936E+02  0.59301975910E+02  0.50000058146E+02 0.  0.
         12    1    1    2    0    0 -0.69001306272E+01 -0.27208933124E+02 -0.15125497936E+02  0.31886024090E+02  0.00000000000E+00 0. -1.
         11    1    3    3    0    0 -0.20417969502E+01 -0.44589244445E+01 -0.50183816530E+01  0.70167725247E+01  0.51100000000E-03 0. -1.
        -11    1    3    3    0    0 -0.86442521897E+01 -0.19494944470E+01  0.92569736458E+01  0.12814647317E+02  0.51100000000E-03 0.  1.
         12    1    3    3    0    0  0.17586179767E+02  0.33617352016E+02  0.10886905943E+02  0.39470556069E+02  0.00000000000E+00 0. -1.
</event>
<event>
 7    1  0.5832130E-012  0.5930194E+02  0.7816164E-02  0.1266605E+00
        -11   -1    0    0    0    0  0.00000000000E+00  0.00000000000E+00  0.45593999997E+02  0.45594000000E+02  0.51100000000E-03 0.  1.
         11   -1    0    0    0    0 -0.00000000000E+00 -0.00000000000E+00 -0.45593999997E+02  0.45594000000E+02  0.51100000000E-03 0. -1.
    9900012    2    1    2    0    0  0.16053787728E+02 -0.39428180624E+00  0.27547074261E+02  0.59301939426E+02  0.49999991608E+02 0.  0.
         12    1    1    2    0    0 -0.16053787728E+02  0.39428180624E+00 -0.27547074261E+02  0.31886060574E+02  0.00000000000E+00 0. -1.
         11    1    3    3    0    0 -0.11787190157E+02 -0.92927544510E+00  0.19082056869E+02  0.22448302815E+02  0.51100000000E-03 0. -1.
        -11    1    3    3    0    0  0.12059090246E+02 -0.41150742417E+01  0.14523740987E+02  0.19320831920E+02  0.51100000000E-03 0.  1.
         12    1    3    3    0    0  0.15781887639E+02  0.46500678806E+01 -0.60587235943E+01  0.17532804691E+02  0.00000000000E+00 0. -1.
</event>
<event>
 7    1  0.5832130E-012  0.5930191E+02  0.7816164E-02  0.1266605E+00
        -11   -1    0    0    0    0  0.00000000000E+00  0.00000000000E+00  0.45593999997E+02  0.45594000000E+02  0.51100000000E-03 0.  1.
         11   -1    0    0    0    0 -0.00000000000E+00 -0.00000000000E+00 -0.45593999997E+02  0.45594000000E+02  0.51100000000E-03 0. -1.
    9900012    2    1    2    0    0 -0.11967770825E+02  0.16497293745E+02  0.24522128800E+02  0.59301905220E+02  0.49999929225E+02 0.  0.
         12    1    1    2    0    0  0.11967770825E+02 -0.16497293745E+02 -0.24522128800E+02  0.31886094780E+02  0.00000000000E+00 0. -1.
         11    1    3    3    0    0 -0.46847182399E+01  0.51637689363E+01 -0.23532353836E+01  0.73585876122E+01  0.51100000000E-03 0. -1.
        -11    1    3    3    0    0 -0.20819711115E+02  0.90062473790E+00  0.91110573999E+00  0.20859089380E+02  0.51100000000E-03 0.  1.
        -12    1    3    3    0    0  0.13536658530E+02  0.10432900071E+02  0.25964258443E+02  0.31084228228E+02  0.00000000000E+00 0.  1.
</event>
<event>
 7    1  0.5832130E-012  0.5930194E+02  0.7816164E-02  0.1266605E+00
        -11   -1    0    0    0    0  0.00000000000E+00  0.00000000000E+00  0.45593999997E+02  0.45594000000E+02  0.51100000000E-03 0.  1.
         11   -1    0    0    0    0 -0.00000000000E+00 -0.00000000000E+00 -0.45593999997E+02  0.45594000000E+02  0.51100000000E-03 0. -1.
    9900012    2    1    2    0    0 -0.18499792508E+02 -0.24590148403E+02  0.83548179766E+01  0.59301941844E+02  0.49999996017E+02 0.  0.
         12    1    1    2    0    0  0.18499792508E+02  0.24590148403E+02 -0.83548179766E+01  0.31886058156E+02  0.00000000000E+00 0. -1.
         11    1    3    3    0    0 -0.60573246307E+01 -0.98969212594E+01 -0.17007303358E+02  0.20588555070E+02  0.51100000000E-03 0. -1.
        -11    1    3    3    0    0 -0.11642048960E+02 -0.14316717646E+02  0.61057573321E+01  0.19436717341E+02  0.51100000000E-03 0.  1.
        -12    1    3    3    0    0 -0.80041891778E+00 -0.37650949717E+00  0.19256364002E+02  0.19276669433E+02  0.00000000000E+00 0.  1.
</event>
<event>
 7    1  0.5832130E-012  0.5930189E+02  0.7816164E-02  0.1266605E+00
        -11   -1    0    0    0    0  0.00000000000E+00  0.00000000000E+00  0.45593999997E+02  0.45594000000E+02  0.51100000000E-03 0.  1.
         11   -1    0    0    0    0 -0.00000000000E+00 -0.00000000000E+00 -0.45593999997E+02  0.45594000000E+02  0.51100000000E-03 0. -1.
    9900012    2    1    2    0    0 -0.16455569339E+00 -0.76362387561E+01  0.30957787702E+02  0.59301892675E+02  0.49999906345E+02 0.  0.
         12    1    1    2    0    0  0.16455569339E+00  0.76362387561E+01 -0.30957787702E+02  0.31886107325E+02  0.00000000000E+00 0. -1.
         11    1    3    3    0    0 -0.84595635576E+01 -0.14753266754E+02  0.11048096983E+02  0.20280126792E+02  0.51100000000E-03 0. -1.
        -11    1    3    3    0    0 -0.64610559319E+01  0.14679994324E+02  0.52132074351E+01  0.16864904658E+02  0.51100000000E-03 0.  1.
         12    1    3    3    0    0  0.14756063796E+02 -0.75629663258E+01  0.14696483284E+02  0.22156861225E+02  0.00000000000E+00 0. -1.
</event>
<event>
 7    1  0.5832130E-012  0.5930195E+02  0.7816164E-02  0.1266605E+00
        -11   -1    0    0    0    0  0.00000000000E+00  0.00000000000E+00  0.45593999997E+02  0.45594000000E+02  0.51100000000E-03 0.  1.
         11   -1    0    0    0    0 -0.00000000000E+00 -0.00000000000E+00 -0.45593999997E+02  0.45594000000E+02  0.51100000000E-03 0. -1.
    9900012    2    1    2    0    0  0.19208189356E+02 -0.34271037519E+01  0.25219449355E+02  0.59301949692E+02  0.50000010330E+02 0.  0.
         12    1    1    2    0    0 -0.19208189356E+02  0.34271037519E+01 -0.25219449355E+02  0.31886050308E+02  0.00000000000E+00 0. -1.
         11    1    3    3    0    0  0.10571173823E+02  0.18208286343E+02  0.34866602567E+01  0.21341232569E+02  0.51100000000E-03 0. -1.
        -11    1    3    3    0    0 -0.21557993330E+01  0.16718918665E+01 -0.16819463438E+01  0.32049394599E+01  0.51100000000E-03 0.  1.
        -12    1    3    3    0    0  0.10792814866E+02 -0.23307281962E+02  0.23414735442E+02  0.34755777663E+02  0.00000000000E+00 0.  1.
</event>
<event>
 7    1  0.5832130E-012  0.5930194E+02  0.7816164E-02  0.1266605E+00
        -11   -1    0    0    0    0  0.00000000000E+00  0.00000000000E+00  0.45593999997E+02  0.45594000000E+02  0.51100000000E-03 0. -1.
         11   -1    0    0    0    0 -0.00000000000E+00 -0.00000000000E+00 -0.45593999997E+02  0.45594000000E+02  0.51100000000E-03 0.  1.
    9900012    2    1    2    0    0 -0.55809436605E+01 -0.89646952584E+00 -0.31381052831E+02  0.59301936170E+02  0.49999985670E+02 0.  0.
         12    1    1    2    0    0  0.55809436605E+01  0.89646952584E+00  0.31381052831E+02  0.31886063830E+02  0.00000000000E+00 0. -1.
         11    1    3    3    0    0  0.79950183828E+01 -0.72343835185E+01 -0.78660414534E+01  0.13346581294E+02  0.51100000000E-03 0. -1.
        -11    1    3    3    0    0 -0.25999290639E+01  0.10695985395E+02 -0.30368037754E+02  0.32301415634E+02  0.51100000000E-03 0.  1.
        -12    1    3    3    0    0 -0.10976032979E+02 -0.43580714028E+01  0.68530263758E+01  0.13653939242E+02  0.00000000000E+00 0.  1.
</event>
<event>
 7    1  0.5832130E-012  0.5930193E+02  0.7816164E-02  0.1266605E+00
        -11   -1    0    0    0    0  0.00000000000E+00  0.00000000000E+00  0.45593999997E+02  0.45594000000E+02  0.51100000000E-03 0. -1.
         11   -1    0    0    0    0 -0.00000000000E+00 -0.00000000000E+00 -0.45593999997E+02  0.45594000000E+02  0.51100000000E-03 0.  1.
    9900012    2    1    2    0    0 -0.26300350173E+01  0.30224213231E+02 -0.98133125400E+01  0.59301933252E+02  0.49999980348E+02 0.  0.
         12    1    1    2    0    0  0.26300350173E+01 -0.30224213231E+02  0.98133125400E+01  0.31886066748E+02  0.00000000000E+00 0. -1.
         11    1    3    3    0    0  0.18533205795E+01  0.15881975203E+02 -0.12848311322E+02  0.20512216789E+02  0.51100000000E-03 0. -1.
        -11    1    3    3    0    0  0.60175156548E+01  0.22833714055E+02 -0.33535558112E+01  0.23850268952E+02  0.51100000000E-03 0.  1.
         12    1    3    3    0    0 -0.10500871252E+02 -0.84914760268E+01  0.63885545932E+01  0.14939447511E+02  0.00000000000E+00 0. -1.
</event>
<event>
 7    1  0.5832130E-012  0.5930194E+02  0.7816164E-02  0.1266605E+00
        -11   -1    0    0    0    0  0.00000000000E+00  0.00000000000E+00  0.45593999997E+02  0.45594000000E+02  0.51100000000E-03 0. -1.
         11   -1    0    0    0    0 -0.00000000000E+00 -0.00000000000E+00 -0.45593999997E+02  0.45594000000E+02  0.51100000000E-03 0.  1.
    9900012    2    1    2    0    0  0.21207655267E+01 -0.27400288029E+02 -0.16169332587E+02  0.59301941184E+02  0.49999994814E+02 0.  0.
         12    1    1    2    0    0 -0.21207655267E+01  0.27400288029E+02  0.16169332587E+02  0.31886058816E+02  0.00000000000E+00 0. -1.
         11    1    3    3    0    0  0.13930475669E+02 -0.13128332409E+02  0.58459125251E+01  0.20014643582E+02  0.51100000000E-03 0. -1.
        -11    1    3    3    0    0  0.80210720369E+01 -0.58143074436E+01 -0.11868623964E+02  0.15459883658E+02  0.51100000000E-03 0.  1.
         12    1    3    3    0    0 -0.19830782179E+02 -0.84576481761E+01 -0.10146621148E+02  0.23827413944E+02  0.00000000000E+00 0. -1.
</event>
<event>
 7    1  0.5832130E-012  0.5930193E+02  0.7816164E-02  0.1266605E+00
        -11   -1    0    0    0    0  0.00000000000E+00  0.00000000000E+00  0.45593999997E+02  0.45594000000E+02  0.51100000000E-03 0.  1.
         11   -1    0    0    0    0 -0.00000000000E+00 -0.00000000000E+00 -0.45593999997E+02  0.45594000000E+02  0.51100000000E-03 0. -1.
    9900012    2    1    2    0    0 -0.57766631099E+01 -0.26764359723E+02  0.16340768646E+02  0.59301929248E+02  0.49999973045E+02 0.  0.
         12    1    1    2    0    0  0.57766631099E+01  0.26764359723E+02 -0.16340768646E+02  0.31886070752E+02  0.00000000000E+00 0. -1.
         11    1    3    3    0    0 -0.26555869185E+01 -0.22758454682E+00 -0.53073335566E+01  0.59390004504E+01  0.51100000000E-03 0. -1.
        -11    1    3    3    0    0 -0.17659672761E+02 -0.22370503151E+02  0.24954669230E+02  0.37881908214E+02  0.51100000000E-03 0.  1.
         12    1    3    3    0    0  0.14538596570E+02 -0.41662720245E+01 -0.33065670271E+01  0.15481020584E+02  0.00000000000E+00 0. -1.
</event>
<event>
 7    1  0.5832130E-012  0.5930194E+02  0.7816164E-02  0.1266605E+00
        -11   -1    0    0    0    0  0.00000000000E+00  0.00000000000E+00  0.45593999997E+02  0.45594000000E+02  0.51100000000E-03 0.  1.
         11   -1    0    0    0    0 -0.00000000000E+00 -0.00000000000E+00 -0.45593999997E+02  0.45594000000E+02  0.51100000000E-03 0. -1.
    9900012    2    1    2    0    0 -0.16160346678E+02  0.16248203531E+02  0.22171144796E+02  0.59301943733E+02  0.49999999462E+02 0.  0.
         12    1    1    2    0    0  0.16160346678E+02 -0.16248203531E+02 -0.22171144796E+02  0.31886056267E+02  0.00000000000E+00 0. -1.
         11    1    3    3    0    0 -0.49302822687E+01 -0.14160794422E+02  0.23617332453E+01  0.15179379634E+02  0.51100000000E-03 0. -1.
        -11    1    3    3    0    0 -0.87276006402E+01 -0.16818147242E+00  0.38530705753E+01  0.95417739997E+01  0.51100000000E-03 0.  1.
        -12    1    3    3    0    0 -0.25024637686E+01  0.30577179425E+02  0.15956340976E+02  0.34580790098E+02  0.00000000000E+00 0.  1.
</event>
<event>
 7    1  0.5832130E-012  0.5930185E+02  0.7816164E-02  0.1266605E+00
        -11   -1    0    0    0    0  0.00000000000E+00  0.00000000000E+00  0.45593999997E+02  0.45594000000E+02  0.51100000000E-03 0. -1.
         11   -1    0    0    0    0 -0.00000000000E+00 -0.00000000000E+00 -0.45593999997E+02  0.45594000000E+02  0.51100000000E-03 0.  1.
    9900012    2    1    2    0    0 -0.81336457065E+01 -0.28267530999E+02 -0.12309218432E+02  0.59301853170E+02  0.49999834297E+02 0.  0.
         12    1    1    2    0    0  0.81336457065E+01  0.28267530999E+02  0.12309218432E+02  0.31886146830E+02  0.00000000000E+00 0. -1.
         11    1    3    3    0    0 -0.75458153346E+01 -0.94548749112E+01  0.14636862441E+01  0.12185087867E+02  0.51100000000E-03 0. -1.
        -11    1    3    3    0    0 -0.26480202601E+01 -0.14112592669E+02  0.13293788351E+02  0.19567884201E+02  0.51100000000E-03 0.  1.
        -12    1    3    3    0    0  0.20601898883E+01 -0.47000634193E+01 -0.27066693027E+02  0.27548881102E+02  0.00000000000E+00 0.  1.
</event>
<event>
 7    1  0.5832130E-012  0.5930194E+02  0.7816164E-02  0.1266605E+00
        -11   -1    0    0    0    0  0.00000000000E+00  0.00000000000E+00  0.45593999997E+02  0.45594000000E+02  0.51100000000E-03 0.  1.
         11   -1    0    0    0    0 -0.00000000000E+00 -0.00000000000E+00 -0.45593999997E+02  0.45594000000E+02  0.51100000000E-03 0. -1.
    9900012    2    1    2    0    0 -0.28278042267E+02 -0.83157967352E+01  0.12162273613E+02  0.59301936441E+02  0.49999986164E+02 0.  0.
         12    1    1    2    0    0  0.28278042267E+02  0.83157967352E+01 -0.12162273613E+02  0.31886063559E+02  0.00000000000E+00 0. -1.
         11    1    3    3    0    0 -0.23007430443E+02  0.91050898179E+01  0.96159484190E+01  0.26546392983E+02  0.51100000000E-03 0. -1.
        -11    1    3    3    0    0 -0.15829421493E+02 -0.57149881709E+01  0.23270675792E+01  0.16989612073E+02  0.51100000000E-03 0.  1.
         12    1    3    3    0    0  0.10558809668E+02 -0.11705898382E+02  0.21925761494E+00  0.15765931385E+02  0.00000000000E+00 0. -1.
</event>
<event>
 7    1  0.5832130E-012  0.5930195E+02  0.7816164E-02  0.1266605E+00
        -11   -1    0    0    0    0  0.00000000000E+00  0.00000000000E+00  0.45593999997E+02  0.45594000000E+02  0.51100000000E-03 0. -1.
         11   -1    0    0    0    0 -0.00000000000E+00 -0.00000000000E+00 -0.45593999997E+02  0.45594000000E+02  0.51100000000E-03 0.  1.
    9900012    2    1    2    0    0 -0.10578931979E+02 -0.32359962507E+01 -0.29905428329E+02  0.59301951058E+02  0.50000012822E+02 0.  0.
         12    1    1    2    0    0  0.10578931979E+02  0.32359962507E+01  0.29905428329E+02  0.31886048942E+02  0.00000000000E+00 0. -1.
         11    1    3    3    0    0 -0.14313947170E+02 -0.30058543968E+01 -0.23976582837E+02  0.28085597182E+02  0.51100000000E-03 0. -1.
        -11    1    3    3    0    0  0.28452574052E+01  0.10200159324E+02 -0.14313014550E+02  0.17804525427E+02  0.51100000000E-03 0.  1.
         12    1    3    3    0    0  0.88975778599E+00 -0.10430301178E+02  0.83841690575E+01  0.13411828450E+02  0.00000000000E+00 0. -1.
</event>
<event>
 7    1  0.5832130E-012  0.5930196E+02  0.7816164E-02  0.1266605E+00
        -11   -1    0    0    0    0  0.00000000000E+00  0.00000000000E+00  0.45593999997E+02  0.45594000000E+02  0.51100000000E-03 0.  1.
         11   -1    0    0    0    0 -0.00000000000E+00 -0.00000000000E+00 -0.45593999997E+02  0.45594000000E+02  0.51100000000E-03 0. -1.
    9900012    2    1    2    0    0  0.49416624472E+01  0.28856165728E+02  0.12634136223E+02  0.59301957185E+02  0.50000023996E+02 0.  0.
         12    1    1    2    0    0 -0.49416624472E+01 -0.28856165728E+02 -0.12634136223E+02  0.31886042815E+02  0.00000000000E+00 0. -1.
         11    1    3    3    0    0  0.71355718514E+01  0.10487073832E+02 -0.62482623484E+01  0.14139868664E+02  0.51100000000E-03 0. -1.
        -11    1    3    3    0    0  0.13988580517E+02 -0.18309435684E+01  0.19725100041E+01  0.14245123208E+02  0.51100000000E-03 0.  1.
         12    1    3    3    0    0 -0.16182489921E+02  0.20200035464E+02  0.16909888568E+02  0.30916965313E+02  0.00000000000E+00 0. -1.
</event>
<event>
 7    1  0.5832130E-012  0.5930190E+02  0.7816164E-02  0.1266605E+00
        -11   -1    0    0    0    0  0.00000000000E+00  0.00000000000E+00  0.45593999997E+02  0.45594000000E+02  0.51100000000E-03 0.  1.
         11   -1    0    0    0    0 -0.00000000000E+00 -0.00000000000E+00 -0.45593999997E+02  0.45594000000E+02  0.51100000000E-03 0. -1.
    9900012    2    1    2    0    0 -0.11177379677E+02 -0.29857673566E+02  0.55591915163E+00  0.59301897489E+02  0.49999915125E+02 0.  0.
         12    1    1    2    0    0  0.11177379677E+02  0.29857673566E+02 -0.55591915163E+00  0.31886102511E+02  0.00000000000E+00 0. -1.
         11    1    3    3    0    0 -0.14769614742E+02  0.29144479533E+01 -0.29212027551E+01  0.15335219343E+02  0.51100000000E-03 0. -1.
        -11    1    3    3    0    0 -0.17516026974E+01 -0.14465509573E+02 -0.12414545072E+02  0.19142622830E+02  0.51100000000E-03 0.  1.
        -12    1    3    3    0    0  0.53438377623E+01 -0.18306611946E+02  0.15891666979E+02  0.24824055316E+02  0.00000000000E+00 0.  1.
</event>
<event>
 7    1  0.5832130E-012  0.5930197E+02  0.7816164E-02  0.1266605E+00
        -11   -1    0    0    0    0  0.00000000000E+00  0.00000000000E+00  0.45593999997E+02  0.45594000000E+02  0.51100000000E-03 0.  1.
         11   -1    0    0    0    0 -0.00000000000E+00 -0.00000000000E+00 -0.45593999997E+02  0.45594000000E+02  0.51100000000E-03 0. -1.
    9900012    2    1    2    0    0 -0.18905048074E+01  0.21594546356E+02  0.23384189270E+02  0.59301972518E+02  0.50000051960E+02 0.  0.
         12    1    1    2    0    0  0.18905048074E+01 -0.21594546356E+02 -0.23384189270E+02  0.31886027482E+02  0.00000000000E+00 0. -1.
         11    1    3    3    0    0  0.91289742076E+01  0.23994654809E+02  0.13292951129E+02  0.28909932194E+02  0.51100000000E-03 0. -1.
        -11    1    3    3    0    0 -0.18601330536E+01  0.95855372271E+01  0.11680041590E+02  0.15223862543E+02  0.51100000000E-03 0.  1.
         12    1    3    3    0    0 -0.91593459614E+01 -0.11985645680E+02 -0.15888034497E+01  0.15168177781E+02  0.00000000000E+00 0. -1.
</event>
<event>
 7    1  0.5832130E-012  0.5930189E+02  0.7816164E-02  0.1266605E+00
        -11   -1    0    0    0    0  0.00000000000E+00  0.00000000000E+00  0.45593999997E+02  0.45594000000E+02  0.51100000000E-03 0.  1.
         11   -1    0    0    0    0 -0.00000000000E+00 -0.00000000000E+00 -0.45593999997E+02  0.45594000000E+02  0.51100000000E-03 0. -1.
    9900012    2    1    2    0    0  0.18877742881E+02 -0.21386224323E+02  0.14247245079E+02  0.59301893944E+02  0.49999908660E+02 0.  0.
         12    1    1    2    0    0 -0.18877742881E+02  0.21386224323E+02 -0.14247245079E+02  0.31886106056E+02  0.00000000000E+00 0. -1.
         11    1    3    3    0    0 -0.50191297930E+01 -0.60540266091E+01 -0.20227025471E+01  0.81199894038E+01  0.51100000000E-03 0. -1.
        -11    1    3    3    0    0  0.18599279582E+02 -0.27615450525E+02  0.17737210761E+02  0.37724726036E+02  0.51100000000E-03 0.  1.
         12    1    3    3    0    0  0.52975930914E+01  0.12283252811E+02 -0.14672631342E+01  0.13457178504E+02  0.00000000000E+00 0. -1.
</event>
<event>
 7    1  0.5832130E-012  0.5930194E+02  0.7816164E-02  0.1266605E+00
        -11   -1    0    0    0    0  0.00000000000E+00  0.00000000000E+00  0.45593999997E+02  0.45594000000E+02  0.51100000000E-03 0.  1.
         11   -1    0    0    0    0 -0.00000000000E+00 -0.00000000000E+00 -0.45593999997E+02  0.45594000000E+02  0.51100000000E-03 0. -1.
    9900012    2    1    2    0    0 -0.31563503021E+02 -0.45165862784E+01  0.25798928970E+00  0.59301939832E+02  0.49999992347E+02 0.  0.
         12    1    1    2    0    0  0.31563503021E+02  0.45165862784E+01 -0.25798928970E+00  0.31886060168E+02  0.00000000000E+00 0. -1.
         11    1    3    3    0    0 -0.13295780364E+02 -0.12220708172E+01  0.44282198398E-01  0.13351898507E+02  0.51100000000E-03 0. -1.
        -11    1    3    3    0    0 -0.30013310212E+02  0.42479238657E+01 -0.56063723433E+01  0.30826531724E+02  0.51100000000E-03 0.  1.
        -12    1    3    3    0    0  0.11745587555E+02 -0.75424393269E+01  0.58200794346E+01  0.15123509600E+02  0.00000000000E+00 0.  1.
</event>
<event>
 7    1  0.5832130E-012  0.5930194E+02  0.7816164E-02  0.1266605E+00
        -11   -1    0    0    0    0  0.00000000000E+00  0.00000000000E+00  0.45593999997E+02  0.45594000000E+02  0.51100000000E-03 0.  1.
         11   -1    0    0    0    0 -0.00000000000E+00 -0.00000000000E+00 -0.45593999997E+02  0.45594000000E+02  0.51100000000E-03 0. -1.
    9900012    2    1    2    0    0 -0.14744273080E+02 -0.17627099342E+02  0.22104582750E+02  0.59301940374E+02  0.49999993337E+02 0.  0.
         12    1    1    2    0    0  0.14744273080E+02  0.17627099342E+02 -0.22104582750E+02  0.31886059626E+02  0.00000000000E+00 0. -1.
         11    1    3    3    0    0 -0.13317865520E+02 -0.62775813293E+01 -0.54927906054E+01  0.15714462073E+02  0.51100000000E-03 0. -1.
        -11    1    3    3    0    0 -0.93739620191E+01  0.17702235429E+01  0.26550831706E+02  0.28212612780E+02  0.51100000000E-03 0.  1.
         12    1    3    3    0    0  0.79475544593E+01 -0.13119741556E+02  0.10465416500E+01  0.15374865521E+02  0.00000000000E+00 0. -1.
</event>
<event>
 7    1  0.5832130E-012  0.5930194E+02  0.7816164E-02  0.1266605E+00
        -11   -1    0    0    0    0  0.00000000000E+00  0.00000000000E+00  0.45593999997E+02  0.45594000000E+02  0.51100000000E-03 0. -1.
         11   -1    0    0    0    0 -0.00000000000E+00 -0.00000000000E+00 -0.45593999997E+02  0.45594000000E+02  0.51100000000E-03 0.  1.
    9900012    2    1    2    0    0 -0.14996861562E+02  0.21069502905E+02 -0.18651831050E+02  0.59301943315E+02  0.49999998700E+02 0.  0.
         12    1    1    2    0    0  0.14996861562E+02 -0.21069502905E+02  0.18651831050E+02  0.31886056685E+02  0.00000000000E+00 0. -1.
         11    1    3    3    0    0  0.95745248655E+01  0.28226089702E+01 -0.21157625179E+02  0.23394096504E+02  0.51100000000E-03 0. -1.
        -11    1    3    3    0    0 -0.26970746417E+01  0.12125521617E+02  0.42437821304E+01  0.13126773143E+02  0.51100000000E-03 0.  1.
        -12    1    3    3    0    0 -0.21874311786E+02  0.61213723182E+01 -0.17379880016E+01  0.22781073668E+02  0.00000000000E+00 0.  1.
</event>
<event>
 7    1  0.5832130E-012  0.5930195E+02  0.7816164E-02  0.1266605E+00
        -11   -1    0    0    0    0  0.00000000000E+00  0.00000000000E+00  0.45593999997E+02  0.45594000000E+02  0.51100000000E-03 0.  1.
         11   -1    0    0    0    0 -0.00000000000E+00 -0.00000000000E+00 -0.45593999997E+02  0.45594000000E+02  0.51100000000E-03 0. -1.
    9900012    2    1    2    0    0 -0.22397931208E+01  0.20940063169E+02  0.23941955103E+02  0.59301950811E+02  0.50000012371E+02 0.  0.
         12    1    1    2    0    0  0.22397931208E+01 -0.20940063169E+02 -0.23941955103E+02  0.31886049189E+02  0.00000000000E+00 0. -1.
         11    1    3    3    0    0  0.78112425514E+01 -0.48289475616E+01 -0.89331454748E+01  0.12811531254E+02  0.51100000000E-03 0. -1.
        -11    1    3    3    0    0  0.30171202563E+00  0.11835626578E+02  0.34588193901E+01  0.12334363319E+02  0.51100000000E-03 0.  1.
        -12    1    3    3    0    0 -0.10352747698E+02  0.13933384152E+02  0.29416281187E+02  0.34156056238E+02  0.00000000000E+00 0.  1.
</event>
<event>
 7    1  0.5832130E-012  0.5930195E+02  0.7816164E-02  0.1266605E+00
        -11   -1    0    0    0    0  0.00000000000E+00  0.00000000000E+00  0.45593999997E+02  0.45594000000E+02  0.51100000000E-03 0.  1.
         11   -1    0    0    0    0 -0.00000000000E+00 -0.00000000000E+00 -0.45593999997E+02  0.45594000000E+02  0.51100000000E-03 0. -1.
    9900012    2    1    2    0    0  0.14578724790E+02 -0.14477362801E+02  0.24384157680E+02  0.59301946686E+02  0.50000004849E+02 0.  0.
         12    1    1    2    0    0 -0.14578724790E+02  0.14477362801E+02 -0.24384157680E+02  0.31886053314E+02  0.00000000000E+00 0. -1.
         11    1    3    3    0    0  0.15393095760E+02  0.49838754252E+01 -0.38045250643E+01  0.16621095709E+02  0.51100000000E-03 0. -1.
        -11    1    3    3    0    0  0.41467846753E+01 -0.68059112060E+01 -0.31122248928E+01  0.85558281032E+01  0.51100000000E-03 0.  1.
         12    1    3    3    0    0 -0.49611556449E+01 -0.12655327020E+02  0.31300907637E+02  0.34125022875E+02  0.00000000000E+00 0. -1.
</event>
<event>
 7    1  0.5832130E-012  0.5930200E+02  0.7816164E-02  0.1266605E+00
        -11   -1    0    0    0    0  0.00000000000E+00  0.00000000000E+00  0.45593999997E+02  0.45594000000E+02  0.51100000000E-03 0.  1.
         11   -1    0    0    0    0 -0.00000000000E+00 -0.00000000000E+00 -0.45593999997E+02  0.45594000000E+02  0.51100000000E-03 0. -1.
    9900012    2    1    2    0    0  0.12524957463E+01 -0.44778562146E+00  0.31858243975E+02  0.59302000459E+02  0.50000102917E+02 0.  0.
         12    1    1    2    0    0 -0.12524957463E+01  0.44778562146E+00 -0.31858243975E+02  0.31885999541E+02  0.00000000000E+00 0. -1.
         11    1    3    3    0    0  0.23153850421E+01 -0.94411357429E+01 -0.18417329694E+01  0.98938381127E+01  0.51100000000E-03 0. -1.
        -11    1    3    3    0    0 -0.54022044958E+01 -0.12786166480E+02  0.11795393336E+02  0.18215410258E+02  0.51100000000E-03 0.  1.
         12    1    3    3    0    0  0.43393152000E+01  0.21779516601E+02  0.21904583608E+02  0.31192752088E+02  0.00000000000E+00 0. -1.
</event>
<event>
 7    1  0.5832130E-012  0.5930193E+02  0.7816164E-02  0.1266605E+00
        -11   -1    0    0    0    0  0.00000000000E+00  0.00000000000E+00  0.45593999997E+02  0.45594000000E+02  0.51100000000E-03 0.  1.
         11   -1    0    0    0    0 -0.00000000000E+00 -0.00000000000E+00 -0.45593999997E+02  0.45594000000E+02  0.51100000000E-03 0. -1.
    9900012    2    1    2    0    0 -0.11253188842E+02 -0.26557512894E+02  0.13593600308E+02  0.59301925930E+02  0.49999966995E+02 0.  0.
         12    1    1    2    0    0  0.11253188842E+02  0.26557512894E+02 -0.13593600308E+02  0.31886074070E+02  0.00000000000E+00 0. -1.
         11    1    3    3    0    0  0.86223458504E+01  0.35621994176E+00  0.28035610351E+01  0.90736814661E+01  0.51100000000E-03 0. -1.
        -11    1    3    3    0    0 -0.12419144833E+02 -0.28143588647E+02  0.21203541165E+02  0.37361569808E+02  0.51100000000E-03 0.  1.
         12    1    3    3    0    0 -0.74563898598E+01  0.12298558116E+01 -0.10413501892E+02  0.12866674656E+02  0.00000000000E+00 0. -1.
</event>
<event>
 7    1  0.5832130E-012  0.5930194E+02  0.7816164E-02  0.1266605E+00
        -11   -1    0    0    0    0  0.00000000000E+00  0.00000000000E+00  0.45593999997E+02  0.45594000000E+02  0.51100000000E-03 0. -1.
         11   -1    0    0    0    0 -0.00000000000E+00 -0.00000000000E+00 -0.45593999997E+02  0.45594000000E+02  0.51100000000E-03 0.  1.
    9900012    2    1    2    0    0 -0.85183963347E+01 -0.21775252422E+02 -0.21679392945E+02  0.59301940779E+02  0.49999994076E+02 0.  0.
         12    1    1    2    0    0  0.85183963347E+01  0.21775252422E+02  0.21679392945E+02  0.31886059221E+02  0.00000000000E+00 0. -1.
         11    1    3    3    0    0 -0.19280971928E+02  0.35958892766E+01 -0.13406084080E+02  0.23757301800E+02  0.51100000000E-03 0. -1.
        -11    1    3    3    0    0  0.89461591100E+00 -0.11104662363E+01 -0.92269601306E+01  0.93365018290E+01  0.51100000000E-03 0.  1.
         12    1    3    3    0    0  0.98679596824E+01 -0.24260675462E+02  0.95365126579E+00  0.26208137151E+02  0.00000000000E+00 0. -1.
</event>
<event>
 7    1  0.5832130E-012  0.5930191E+02  0.7816164E-02  0.1266605E+00
        -11   -1    0    0    0    0  0.00000000000E+00  0.00000000000E+00  0.45593999997E+02  0.45594000000E+02  0.51100000000E-03 0.  1.
         11   -1    0    0    0    0 -0.00000000000E+00 -0.00000000000E+00 -0.45593999997E+02  0.45594000000E+02  0.51100000000E-03 0. -1.
    9900012    2    1    2    0    0  0.22414541994E+02 -0.18473910139E+02  0.13153932036E+02  0.59301906219E+02  0.49999931045E+02 0.  0.
         12    1    1    2    0    0 -0.22414541994E+02  0.18473910139E+02 -0.13153932036E+02  0.31886093781E+02  0.00000000000E+00 0. -1.
         11    1    3    3    0    0  0.24581854605E+01 -0.86432382327E+01  0.14890766886E+02  0.17392043630E+02  0.51100000000E-03 0. -1.
        -11    1    3    3    0    0  0.18305848061E+02 -0.22525586095E+02 -0.21111796969E+01  0.29102631876E+02  0.51100000000E-03 0.  1.
         12    1    3    3    0    0  0.16505084729E+01  0.12694914188E+02  0.37434484663E+00  0.12807230713E+02  0.00000000000E+00 0. -1.
</event>
<event>
 7    1  0.5832130E-012  0.5930192E+02  0.7816164E-02  0.1266605E+00
        -11   -1    0    0    0    0  0.00000000000E+00  0.00000000000E+00  0.45593999997E+02  0.45594000000E+02  0.51100000000E-03 0. -1.
         11   -1    0    0    0    0 -0.00000000000E+00 -0.00000000000E+00 -0.45593999997E+02  0.45594000000E+02  0.51100000000E-03 0.  1.
    9900012    2    1    2    0    0  0.14381961569E+02  0.29254707594E+01 -0.28307651036E+02  0.59301916751E+02  0.49999950255E+02 0.  0.
         12    1    1    2    0    0 -0.14381961569E+02 -0.29254707594E+01  0.28307651036E+02  0.31886083249E+02  0.00000000000E+00 0. -1.
         11    1    3    3    0    0 -0.36150699104E+01  0.51540989614E+01  0.43054025299E-01  0.62956588592E+01  0.51100000000E-03 0. -1.
        -11    1    3    3    0    0  0.11156451019E+02 -0.24393676741E+01  0.93067108773E+01  0.14731998561E+02  0.51100000000E-03 0.  1.
        -12    1    3    3    0    0  0.68405804607E+01  0.21073947207E+00 -0.37657415939E+02  0.38274259331E+02  0.00000000000E+00 0.  1.
</event>
<event>
 7    1  0.5832130E-012  0.5930193E+02  0.7816164E-02  0.1266605E+00
        -11   -1    0    0    0    0  0.00000000000E+00  0.00000000000E+00  0.45593999997E+02  0.45594000000E+02  0.51100000000E-03 0.  1.
         11   -1    0    0    0    0 -0.00000000000E+00 -0.00000000000E+00 -0.45593999997E+02  0.45594000000E+02  0.51100000000E-03 0. -1.
    9900012    2    1    2    0    0 -0.13200112433E+01  0.27675130001E+02  0.15781832226E+02  0.59301929708E+02  0.49999973884E+02 0.  0.
         12    1    1    2    0    0  0.13200112433E+01 -0.27675130001E+02 -0.15781832226E+02  0.31886070292E+02  0.00000000000E+00 0. -1.
         11    1    3    3    0    0 -0.16590009084E+01  0.64402524759E+01 -0.61407603617E+01  0.90519652037E+01  0.51100000000E-03 0. -1.
        -11    1    3    3    0    0 -0.80551495528E+01  0.30945446913E+02  0.12526698315E+02  0.34342747268E+02  0.51100000000E-03 0.  1.
        -12    1    3    3    0    0  0.83941392180E+01 -0.97105693876E+01  0.93958942720E+01  0.15907217237E+02  0.00000000000E+00 0.  1.
</event>
<event>
 7    1  0.5832130E-012  0.5930194E+02  0.7816164E-02  0.1266605E+00
        -11   -1    0    0    0    0  0.00000000000E+00  0.00000000000E+00  0.45593999997E+02  0.45594000000E+02  0.51100000000E-03 0.  1.
         11   -1    0    0    0    0 -0.00000000000E+00 -0.00000000000E+00 -0.45593999997E+02  0.45594000000E+02  0.51100000000E-03 0. -1.
    9900012    2    1    2    0    0  0.15453215690E+02  0.16852958774E+02  0.22223793657E+02  0.59301935660E+02  0.49999984739E+02 0.  0.
         12    1    1    2    0    0 -0.15453215690E+02 -0.16852958774E+02 -0.22223793657E+02  0.31886064340E+02  0.00000000000E+00 0. -1.
         11    1    3    3    0    0 -0.18495711301E+01 -0.46638064789E+01 -0.33279737739E+01  0.60205825249E+01  0.51100000000E-03 0. -1.
        -11    1    3    3    0    0 -0.45278562459E+01  0.57902479845E+01  0.25330110718E+02  0.26375044325E+02  0.51100000000E-03 0.  1.
         12    1    3    3    0    0  0.21830643066E+02  0.15726517269E+02  0.22165671252E+00  0.26906308810E+02  0.00000000000E+00 0. -1.
</event>
<event>
 7    1  0.5832130E-012  0.5930193E+02  0.7816164E-02  0.1266605E+00
        -11   -1    0    0    0    0  0.00000000000E+00  0.00000000000E+00  0.45593999997E+02  0.45594000000E+02  0.51100000000E-03 0. -1.
         11   -1    0    0    0    0 -0.00000000000E+00 -0.00000000000E+00 -0.45593999997E+02  0.45594000000E+02  0.51100000000E-03 0.  1.
    9900012    2    1    2    0    0  0.11013388185E+02  0.23910356945E+00 -0.29922725919E+02  0.59301930687E+02  0.49999975670E+02 0.  0.
         12    1    1    2    0    0 -0.11013388185E+02 -0.23910356945E+00  0.29922725919E+02  0.31886069313E+02  0.00000000000E+00 0. -1.
         11    1    3    3    0    0 -0.14717416757E+01  0.39182295848E+01  0.25450785996E+01  0.48985683601E+01  0.51100000000E-03 0. -1.
        -11    1    3    3    0    0  0.23420183394E+02  0.85689648150E+01 -0.10699061910E+02  0.27136729247E+02  0.51100000000E-03 0.  1.
        -12    1    3    3    0    0 -0.10935053534E+02 -0.12248090830E+02 -0.21768742609E+02  0.27266633080E+02  0.00000000000E+00 0.  1.
</event>
<event>
 7    1  0.5832130E-012  0.5930195E+02  0.7816164E-02  0.1266605E+00
        -11   -1    0    0    0    0  0.00000000000E+00  0.00000000000E+00  0.45593999997E+02  0.45594000000E+02  0.51100000000E-03 0.  1.
         11   -1    0    0    0    0 -0.00000000000E+00 -0.00000000000E+00 -0.45593999997E+02  0.45594000000E+02  0.51100000000E-03 0. -1.
    9900012    2    1    2    0    0  0.80563812446E+01  0.28871215114E+02  0.10875104679E+02  0.59301949089E+02  0.50000009230E+02 0.  0.
         12    1    1    2    0    0 -0.80563812446E+01 -0.28871215114E+02 -0.10875104679E+02  0.31886050911E+02  0.00000000000E+00 0. -1.
         11    1    3    3    0    0  0.15285897343E+01 -0.52986770235E+01 -0.47146059096E+01  0.72553479530E+01  0.51100000000E-03 0. -1.
        -11    1    3    3    0    0  0.48394304202E+01  0.56371098322E+01  0.21597245525E+02  0.22839398166E+02  0.51100000000E-03 0.  1.
        -12    1    3    3    0    0  0.16883610901E+01  0.28532782306E+02 -0.60075349366E+01  0.29207202969E+02  0.00000000000E+00 0.  1.
</event>
<event>
 7    1  0.5832130E-012  0.5930202E+02  0.7816164E-02  0.1266604E+00
        -11   -1    0    0    0    0  0.00000000000E+00  0.00000000000E+00  0.45593999997E+02  0.45594000000E+02  0.51100000000E-03 0. -1.
         11   -1    0    0    0    0 -0.00000000000E+00 -0.00000000000E+00 -0.45593999997E+02  0.45594000000E+02  0.51100000000E-03 0.  1.
    9900012    2    1    2    0    0  0.18051846448E+02 -0.19839459810E+02 -0.17240715419E+02  0.59302021986E+02  0.50000142178E+02 0.  0.
         12    1    1    2    0    0 -0.18051846448E+02  0.19839459810E+02  0.17240715419E+02  0.31885978014E+02  0.00000000000E+00 0. -1.
         11    1    3    3    0    0 -0.36561274267E+01 -0.14978843724E+02 -0.51452305780E+01  0.16254427859E+02  0.51100000000E-03 0. -1.
        -11    1    3    3    0    0  0.12244585576E+02 -0.18749071445E+02 -0.13558307921E+02  0.26177953891E+02  0.51100000000E-03 0.  1.
        -12    1    3    3    0    0  0.94633882982E+01  0.13888455359E+02  0.14628230800E+01  0.16869640236E+02  0.00000000000E+00 0.  1.
</event>
<event>
 7    1  0.5832130E-012  0.5930201E+02  0.7816164E-02  0.1266605E+00
        -11   -1    0    0    0    0  0.00000000000E+00  0.00000000000E+00  0.45593999997E+02  0.45594000000E+02  0.51100000000E-03 0.  1.
         11   -1    0    0    0    0 -0.00000000000E+00 -0.00000000000E+00 -0.45593999997E+02  0.45594000000E+02  0.51100000000E-03 0. -1.
    9900012    2    1    2    0    0 -0.24403621699E+02  0.19451175035E+02  0.65445500308E+01  0.59302014092E+02  0.50000127780E+02 0.  0.
         12    1    1    2    0    0  0.24403621699E+02 -0.19451175035E+02 -0.65445500308E+01  0.31885985908E+02  0.00000000000E+00 0. -1.
         11    1    3    3    0    0 -0.62157537354E+00  0.55448655169E+01 -0.56494868396E+01  0.79403143110E+01  0.51100000000E-03 0. -1.
        -11    1    3    3    0    0 -0.13618470492E+02 -0.12030566593E+02 -0.47166508256E+01  0.18773493717E+02  0.51100000000E-03 0.  1.
        -12    1    3    3    0    0 -0.10163575833E+02  0.25936876110E+02  0.16910687696E+02  0.32588206064E+02  0.00000000000E+00 0.  1.
</event>
<event>
 7    1  0.5832130E-012  0.5930194E+02  0.7816164E-02  0.1266605E+00
        -11   -1    0    0    0    0  0.00000000000E+00  0.00000000000E+00  0.45593999997E+02  0.45594000000E+02  0.51100000000E-03 0. -1.
         11   -1    0    0    0    0 -0.00000000000E+00 -0.00000000000E+00 -0.45593999997E+02  0.45594000000E+02  0.51100000000E-03 0.  1.
    9900012    2    1    2    0    0 -0.50715094442E+01  0.20594746134E+02 -0.23808764139E+02  0.59301936803E+02  0.49999986825E+02 0.  0.
         12    1    1    2    0    0  0.50715094442E+01 -0.20594746134E+02  0.23808764139E+02  0.31886063197E+02  0.00000000000E+00 0. -1.
         11    1    3    3    0    0  0.83861768083E+01  0.13705822147E+01 -0.20115711732E+02  0.21836856821E+02  0.51100000000E-03 0. -1.
        -11    1    3    3    0    0  0.90118122076E+01  0.27762933557E+01 -0.12421437248E+01  0.95112294345E+01  0.51100000000E-03 0.  1.
         12    1    3    3    0    0 -0.22469498460E+02  0.16447870563E+02 -0.24509086823E+01  0.27953850548E+02  0.00000000000E+00 0. -1.
</event>
<event>
 7    1  0.7506505E-012  0.5930194E+02  0.7816164E-02  0.1266605E+00
        -11   -1    0    0    0    0  0.00000000000E+00  0.00000000000E+00  0.45593999997E+02  0.45594000000E+02  0.51100000000E-03 0. -1.
         11   -1    0    0    0    0 -0.00000000000E+00 -0.00000000000E+00 -0.45593999997E+02  0.45594000000E+02  0.51100000000E-03 0.  1.
    9900012    2    1    2    0    0 -0.26429798319E+02  0.56422572826E+01 -0.16921924642E+02  0.59301939723E+02  0.49999992149E+02 0.  0.
         12    1    1    2    0    0  0.26429798319E+02 -0.56422572826E+01  0.16921924642E+02  0.31886060277E+02  0.00000000000E+00 0. -1.
         11    1    3    3    0    0 -0.20949494042E+02 -0.13873588433E+01  0.77368756227E+01  0.22375551610E+02  0.51100000000E-03 0. -1.
        -11    1    3    3    0    0 -0.15941772142E+02  0.52462740392E+01 -0.16552319592E+02  0.23572076159E+02  0.51100000000E-03 0.  1.
         12    1    3    3    0    0  0.10461467864E+02  0.17833420866E+01 -0.81064806725E+01  0.13354311954E+02  0.00000000000E+00 0. -1.
</event>
<event>
 7    1  0.5832130E-012  0.5930187E+02  0.7816164E-02  0.1266605E+00
        -11   -1    0    0    0    0  0.00000000000E+00  0.00000000000E+00  0.45593999997E+02  0.45594000000E+02  0.51100000000E-03 0. -1.
         11   -1    0    0    0    0 -0.00000000000E+00 -0.00000000000E+00 -0.45593999997E+02  0.45594000000E+02  0.51100000000E-03 0.  1.
    9900012    2    1    2    0    0 -0.11040961226E+02 -0.29758213495E+02 -0.30448492894E+01  0.59301871317E+02  0.49999867393E+02 0.  0.
         12    1    1    2    0    0  0.11040961226E+02  0.29758213495E+02  0.30448492894E+01  0.31886128683E+02  0.00000000000E+00 0. -1.
         11    1    3    3    0    0  0.12233979441E+02 -0.16268886758E+02 -0.12828642116E+02  0.24060776964E+02  0.51100000000E-03 0. -1.
        -11    1    3    3    0    0 -0.13724129771E+02 -0.89719653438E+01 -0.49348157322E+01  0.17123092789E+02  0.51100000000E-03 0.  1.
        -12    1    3    3    0    0 -0.95508108964E+01 -0.45173613928E+01  0.14718608559E+02  0.18118001563E+02  0.00000000000E+00 0.  1.
</event>
<event>
 7    1  0.5832130E-012  0.5930196E+02  0.7816164E-02  0.1266605E+00
        -11   -1    0    0    0    0  0.00000000000E+00  0.00000000000E+00  0.45593999997E+02  0.45594000000E+02  0.51100000000E-03 0.  1.
         11   -1    0    0    0    0 -0.00000000000E+00 -0.00000000000E+00 -0.45593999997E+02  0.45594000000E+02  0.51100000000E-03 0. -1.
    9900012    2    1    2    0    0 -0.29925639025E+02  0.21093507772E+00  0.11005953038E+02  0.59301962822E+02  0.50000034276E+02 0.  0.
         12    1    1    2    0    0  0.29925639025E+02 -0.21093507772E+00 -0.11005953038E+02  0.31886037178E+02  0.00000000000E+00 0. -1.
         11    1    3    3    0    0  0.13406651728E+01  0.35104848443E+01 -0.47497702199E+01  0.60565009989E+01  0.51100000000E-03 0. -1.
        -11    1    3    3    0    0 -0.18591104083E+02  0.17441179738E+02  0.13468381140E+02  0.28830906896E+02  0.51100000000E-03 0.  1.
         12    1    3    3    0    0 -0.12675200114E+02 -0.20740729504E+02  0.22873421178E+01  0.24414554927E+02  0.00000000000E+00 0. -1.
</event>
<event>
 7    1  0.5832130E-012  0.5930194E+02  0.7816164E-02  0.1266605E+00
        -11   -1    0    0    0    0  0.00000000000E+00  0.00000000000E+00  0.45593999997E+02  0.45594000000E+02  0.51100000000E-03 0. -1.
         11   -1    0    0    0    0 -0.00000000000E+00 -0.00000000000E+00 -0.45593999997E+02  0.45594000000E+02  0.51100000000E-03 0.  1.
    9900012    2    1    2    0    0  0.22851243570E+02 -0.20221390546E+02  0.92540168559E+01  0.59301940408E+02  0.49999993399E+02 0.  0.
         12    1    1    2    0    0 -0.22851243570E+02  0.20221390546E+02 -0.92540168559E+01  0.31886059592E+02  0.00000000000E+00 0. -1.
         11    1    3    3    0    0 -0.47371706117E+01  0.68967512567E+01 -0.21114640672E+01  0.86292667168E+01  0.51100000000E-03 0. -1.
        -11    1    3    3    0    0 -0.35628364488E+01 -0.15455530493E+02  0.61108312361E+01  0.16997337587E+02  0.51100000000E-03 0.  1.
         12    1    3    3    0    0  0.31151250631E+02 -0.11662611310E+02  0.52546496870E+01  0.33675336104E+02  0.00000000000E+00 0. -1.
</event>
<event>
 7    1  0.7811175E-012  0.5930199E+02  0.7816164E-02  0.1266605E+00
        -11   -1    0    0    0    0  0.00000000000E+00  0.00000000000E+00  0.45593999997E+02  0.45594000000E+02  0.51100000000E-03 0. -1.
         11   -1    0    0    0    0 -0.00000000000E+00 -0.00000000000E+00 -0.45593999997E+02  0.45594000000E+02  0.51100000000E-03 0.  1.
    9900012    2    1    2    0    0  0.94586934134E+01  0.26462599424E+02 -0.15065904022E+02  0.59301991887E+02  0.50000087285E+02 0.  0.
         12    1    1    2    0    0 -0.94586934134E+01 -0.26462599424E+02  0.15065904022E+02  0.31886008113E+02  0.00000000000E+00 0. -1.
         11    1    3    3    0    0  0.47478226956E+01  0.14263166384E+02  0.11601244468E+02  0.18988644215E+02  0.51100000000E-03 0. -1.
        -11    1    3    3    0    0  0.11312160083E+02  0.17851422237E+02 -0.15736728950E+02  0.26349248185E+02  0.51100000000E-03 0.  1.
         12    1    3    3    0    0 -0.66012893654E+01 -0.56519891972E+01 -0.10930419540E+02  0.13964099487E+02  0.00000000000E+00 0. -1.
</event>
<event>
 7    1  0.5832130E-012  0.5930194E+02  0.7816164E-02  0.1266605E+00
        -11   -1    0    0    0    0  0.00000000000E+00  0.00000000000E+00  0.45593999997E+02  0.45594000000E+02  0.51100000000E-03 0.  1.
         11   -1    0    0    0    0 -0.00000000000E+00 -0.00000000000E+00 -0.45593999997E+02  0.45594000000E+02  0.51100000000E-03 0. -1.
    9900012    2    1    2    0    0  0.22425234901E+02 -0.13864387454E+02  0.17933444079E+02  0.59301940093E+02  0.49999992825E+02 0.  0.
         12    1    1    2    0    0 -0.22425234901E+02  0.13864387454E+02 -0.17933444079E+02  0.31886059907E+02  0.00000000000E+00 0. -1.
         11    1    3    3    0    0 -0.52538965282E+01 -0.50964191493E+01 -0.81053590040E+01  0.10921252754E+02  0.51100000000E-03 0. -1.
        -11    1    3    3    0    0  0.59179211457E+01  0.37077696692E+01 -0.49147363675E+01  0.85395538777E+01  0.51100000000E-03 0.  1.
         12    1    3    3    0    0  0.21761210284E+02 -0.12475737974E+02  0.30953539450E+02  0.39841133461E+02  0.00000000000E+00 0. -1.
</event>
<event>
 7    1  0.5832130E-012  0.5930193E+02  0.7816164E-02  0.1266605E+00
        -11   -1    0    0    0    0  0.00000000000E+00  0.00000000000E+00  0.45593999997E+02  0.45594000000E+02  0.51100000000E-03 0.  1.
         11   -1    0    0    0    0 -0.00000000000E+00 -0.00000000000E+00 -0.45593999997E+02  0.45594000000E+02  0.51100000000E-03 0. -1.
    9900012    2    1    2    0    0  0.15049912942E+02 -0.12148870881E+02  0.25350080612E+02  0.59301928898E+02  0.49999972408E+02 0.  0.
         12    1    1    2    0    0 -0.15049912942E+02  0.12148870881E+02 -0.25350080612E+02  0.31886071102E+02  0.00000000000E+00 0. -1.
         11    1    3    3    0    0  0.77237157465E+01 -0.92359937708E+01 -0.94363802797E+01  0.15297210168E+02  0.51100000000E-03 0. -1.
        -11    1    3    3    0    0  0.23953355977E+01  0.74936492187E+01  0.55330655349E+00  0.78866063450E+01  0.51100000000E-03 0.  1.
        -12    1    3    3    0    0  0.49308615976E+01 -0.10406526329E+02  0.34233154339E+02  0.36118112386E+02  0.00000000000E+00 0.  1.
</event>
<event>
 7    1  0.5832130E-012  0.5930194E+02  0.7816164E-02  0.1266605E+00
        -11   -1    0    0    0    0  0.00000000000E+00  0.00000000000E+00  0.45593999997E+02  0.45594000000E+02  0.51100000000E-03 0.  1.
         11   -1    0    0    0    0 -0.00000000000E+00 -0.00000000000E+00 -0.45593999997E+02  0.45594000000E+02  0.51100000000E-03 0. -1.
    9900012    2    1    2    0    0 -0.27422478569E+02 -0.12637686501E+02 -0.10247810495E+02  0.59301936102E+02  0.49999985545E+02 0.  0.
         12    1    1    2    0    0  0.27422478569E+02  0.12637686501E+02  0.10247810495E+02  0.31886063898E+02  0.00000000000E+00 0. -1.
         11    1    3    3    0    0 -0.24536357841E+01  0.50480898732E+01 -0.22429434231E+01  0.60443639359E+01  0.51100000000E-03 0. -1.
        -11    1    3    3    0    0 -0.21031553682E+02 -0.39794863076E+01  0.15037781823E+02  0.26159079570E+02  0.51100000000E-03 0.  1.
        -12    1    3    3    0    0 -0.39372891032E+01 -0.13706290067E+02 -0.23042648895E+02  0.27098492596E+02  0.00000000000E+00 0.  1.
</event>
<event>
 7    1  0.5832130E-012  0.5930194E+02  0.7816164E-02  0.1266605E+00
        -11   -1    0    0    0    0  0.00000000000E+00  0.00000000000E+00  0.45593999997E+02  0.45594000000E+02  0.51100000000E-03 0.  1.
         11   -1    0    0    0    0 -0.00000000000E+00 -0.00000000000E+00 -0.45593999997E+02  0.45594000000E+02  0.51100000000E-03 0. -1.
    9900012    2    1    2    0    0 -0.19002232639E+01 -0.15745700526E+02  0.27661944755E+02  0.59301935314E+02  0.49999984108E+02 0.  0.
         12    1    1    2    0    0  0.19002232639E+01  0.15745700526E+02 -0.27661944755E+02  0.31886064686E+02  0.00000000000E+00 0. -1.
         11    1    3    3    0    0  0.26111528156E-01 -0.99907758690E+01  0.72355407431E+01  0.12335693510E+02  0.51100000000E-03 0. -1.
        -11    1    3    3    0    0  0.34796308973E+01 -0.11493496008E+02  0.31306130254E+02  0.33530315737E+02  0.51100000000E-03 0.  1.
         12    1    3    3    0    0 -0.54059656893E+01  0.57385713510E+01 -0.10879726241E+02  0.13435926067E+02  0.00000000000E+00 0. -1.
</event>
<event>
 7    1  0.5832130E-012  0.5930195E+02  0.7816164E-02  0.1266605E+00
        -11   -1    0    0    0    0  0.00000000000E+00  0.00000000000E+00  0.45593999997E+02  0.45594000000E+02  0.51100000000E-03 0.  1.
         11   -1    0    0    0    0 -0.00000000000E+00 -0.00000000000E+00 -0.45593999997E+02  0.45594000000E+02  0.51100000000E-03 0. -1.
    9900012    2    1    2    0    0 -0.31442795544E+02  0.49718274892E+01 -0.18307690158E+01  0.59301950145E+02  0.50000011156E+02 0.  0.
         12    1    1    2    0    0  0.31442795544E+02 -0.49718274892E+01  0.18307690158E+01  0.31886049855E+02  0.00000000000E+00 0. -1.
         11    1    3    3    0    0  0.60030331913E+01  0.12865238641E+01 -0.15942729691E+01  0.63429691557E+01  0.51100000000E-03 0. -1.
        -11    1    3    3    0    0 -0.58945612939E+01 -0.67921717086E+01  0.14124329494E+02  0.16744435890E+02  0.51100000000E-03 0.  1.
         12    1    3    3    0    0 -0.31551267441E+02  0.10477475334E+02 -0.14360825541E+02  0.36214545099E+02  0.00000000000E+00 0. -1.
</event>
<event>
 7    1  0.5832130E-012  0.5930196E+02  0.7816164E-02  0.1266605E+00
        -11   -1    0    0    0    0  0.00000000000E+00  0.00000000000E+00  0.45593999997E+02  0.45594000000E+02  0.51100000000E-03 0. -1.
         11   -1    0    0    0    0 -0.00000000000E+00 -0.00000000000E+00 -0.45593999997E+02  0.45594000000E+02  0.51100000000E-03 0.  1.
    9900012    2    1    2    0    0 -0.20442114742E+02 -0.14053784383E+02 -0.20033236438E+02  0.59301961162E+02  0.50000031248E+02 0.  0.
         12    1    1    2    0    0  0.20442114742E+02  0.14053784383E+02  0.20033236438E+02  0.31886038838E+02  0.00000000000E+00 0. -1.
         11    1    3    3    0    0 -0.54010349878E+01  0.28403238669E+00  0.40328816007E+01  0.67465537575E+01  0.51100000000E-03 0. -1.
        -11    1    3    3    0    0 -0.77145054884E+01 -0.24439740310E+02 -0.20627989112E+00  0.25629222637E+02  0.51100000000E-03 0.  1.
        -12    1    3    3    0    0 -0.73265742660E+01  0.10101923540E+02 -0.23859838148E+02  0.26926184767E+02  0.00000000000E+00 0.  1.
</event>
<event>
 7    1  0.5832130E-012  0.5930177E+02  0.7816164E-02  0.1266605E+00
        -11   -1    0    0    0    0  0.00000000000E+00  0.00000000000E+00  0.45593999997E+02  0.45594000000E+02  0.51100000000E-03 0. -1.
         11   -1    0    0    0    0 -0.00000000000E+00 -0.00000000000E+00 -0.45593999997E+02  0.45594000000E+02  0.51100000000E-03 0.  1.
    9900012    2    1    2    0    0  0.22581327178E+02 -0.19750956577E+01 -0.22425748824E+02  0.59301771777E+02  0.49999685855E+02 0.  0.
         12    1    1    2    0    0 -0.22581327178E+02  0.19750956577E+01  0.22425748824E+02  0.31886228223E+02  0.00000000000E+00 0. -1.
         11    1    3    3    0    0  0.12198429688E+02  0.26722639220E+01  0.36711286858E+01  0.13016138729E+02  0.51100000000E-03 0. -1.
        -11    1    3    3    0    0 -0.97735148961E+01  0.17847475798E+01 -0.22802483139E+02  0.24872879908E+02  0.51100000000E-03 0.  1.
         12    1    3    3    0    0  0.20156412386E+02 -0.64321071595E+01 -0.32943943714E+01  0.21412753140E+02  0.00000000000E+00 0. -1.
</event>
<event>
 7    1  0.5832130E-012  0.5930195E+02  0.7816164E-02  0.1266605E+00
        -11   -1    0    0    0    0  0.00000000000E+00  0.00000000000E+00  0.45593999997E+02  0.45594000000E+02  0.51100000000E-03 0.  1.
         11   -1    0    0    0    0 -0.00000000000E+00 -0.00000000000E+00 -0.45593999997E+02  0.45594000000E+02  0.51100000000E-03 0. -1.
    9900012    2    1    2    0    0 -0.20873133028E+02  0.22217750140E+01  0.24002008901E+02  0.59301946655E+02  0.50000004792E+02 0.  0.
         12    1    1    2    0    0  0.20873133028E+02 -0.22217750140E+01 -0.24002008901E+02  0.31886053345E+02  0.00000000000E+00 0. -1.
         11    1    3    3    0    0 -0.14192714205E+02 -0.13746707478E+02  0.28231861325E+02  0.34459296237E+02  0.51100000000E-03 0. -1.
        -11    1    3    3    0    0 -0.38646377359E+01 -0.32447689848E+01 -0.12286861329E+01  0.51936134308E+01  0.51100000000E-03 0.  1.
        -12    1    3    3    0    0 -0.28157810871E+01  0.19213251476E+02 -0.30011662918E+01  0.19649036988E+02  0.00000000000E+00 0.  1.
</event>
<event>
 7    1  0.5832130E-012  0.5930195E+02  0.7816164E-02  0.1266605E+00
        -11   -1    0    0    0    0  0.00000000000E+00  0.00000000000E+00  0.45593999997E+02  0.45594000000E+02  0.51100000000E-03 0. -1.
         11   -1    0    0    0    0 -0.00000000000E+00 -0.00000000000E+00 -0.45593999997E+02  0.45594000000E+02  0.51100000000E-03 0.  1.
    9900012    2    1    2    0    0  0.17513365800E+01  0.26159723685E+02 -0.18147231754E+02  0.59301947509E+02  0.50000006350E+02 0.  0.
         12    1    1    2    0    0 -0.17513365800E+01 -0.26159723685E+02  0.18147231754E+02  0.31886052491E+02  0.00000000000E+00 0. -1.
         11    1    3    3    0    0 -0.34529135297E+01  0.13670354204E+02 -0.16936761385E+01  0.14201046970E+02  0.51100000000E-03 0. -1.
        -11    1    3    3    0    0 -0.16608228743E+02  0.10964529859E+02 -0.10176278504E+02  0.22351975784E+02  0.51100000000E-03 0.  1.
         12    1    3    3    0    0  0.21812478853E+02  0.15248396218E+01 -0.62772771119E+01  0.22748924755E+02  0.00000000000E+00 0. -1.
</event>
<event>
 7    1  0.5832130E-012  0.5930193E+02  0.7816164E-02  0.1266605E+00
        -11   -1    0    0    0    0  0.00000000000E+00  0.00000000000E+00  0.45593999997E+02  0.45594000000E+02  0.51100000000E-03 0.  1.
         11   -1    0    0    0    0 -0.00000000000E+00 -0.00000000000E+00 -0.45593999997E+02  0.45594000000E+02  0.51100000000E-03 0. -1.
    9900012    2    1    2    0    0  0.20977385855E+02  0.24671217700E+01  0.23886906852E+02  0.59301925828E+02  0.49999966809E+02 0.  0.
         12    1    1    2    0    0 -0.20977385855E+02 -0.24671217700E+01 -0.23886906852E+02  0.31886074172E+02  0.00000000000E+00 0. -1.
         11    1    3    3    0    0 -0.70893551209E+01  0.14488166700E+02  0.10511523464E+02  0.19252481818E+02  0.51100000000E-03 0. -1.
        -11    1    3    3    0    0  0.15825710807E+01  0.16831204370E+01  0.97384760985E+01  0.10008763291E+02  0.51100000000E-03 0.  1.
         12    1    3    3    0    0  0.26484169895E+02 -0.13704165367E+02  0.36369072890E+01  0.30040680719E+02  0.00000000000E+00 0. -1.
</event>
<event>
 7    1  0.5832130E-012  0.5930193E+02  0.7816164E-02  0.1266605E+00
        -11   -1    0    0    0    0  0.00000000000E+00  0.00000000000E+00  0.45593999997E+02  0.45594000000E+02  0.51100000000E-03 0.  1.
         11   -1    0    0    0    0 -0.00000000000E+00 -0.00000000000E+00 -0.45593999997E+02  0.45594000000E+02  0.51100000000E-03 0. -1.
    9900012    2    1    2    0    0 -0.24062507738E+02 -0.17444208096E+02  0.11550606815E+02  0.59301934195E+02  0.49999982067E+02 0.  0.
         12    1    1    2    0    0  0.24062507738E+02  0.17444208096E+02 -0.11550606815E+02  0.31886065805E+02  0.00000000000E+00 0. -1.
         11    1    3    3    0    0 -0.23708019134E+02  0.78534090146E+00 -0.35066689096E+01  0.23978816874E+02  0.51100000000E-03 0.  1.
        -11    1    3    3    0    0 -0.11272678975E+02 -0.12729710927E+02  0.15025668442E+01  0.17069755093E+02  0.51100000000E-03 0. -1.
        -12    1    3    3    0    0  0.10918190370E+02 -0.54998380705E+01  0.13554708881E+02  0.18253362227E+02  0.00000000000E+00 0.  1.
</event>
<event>
 7    1  0.5832130E-012  0.5930194E+02  0.7816164E-02  0.1266605E+00
        -11   -1    0    0    0    0  0.00000000000E+00  0.00000000000E+00  0.45593999997E+02  0.45594000000E+02  0.51100000000E-03 0.  1.
         11   -1    0    0    0    0 -0.00000000000E+00 -0.00000000000E+00 -0.45593999997E+02  0.45594000000E+02  0.51100000000E-03 0. -1.
    9900012    2    1    2    0    0  0.10191992517E+02 -0.80378872116E+01  0.29124504201E+02  0.59301935846E+02  0.49999985078E+02 0.  0.
         12    1    1    2    0    0 -0.10191992517E+02  0.80378872116E+01 -0.29124504201E+02  0.31886064154E+02  0.00000000000E+00 0. -1.
         11    1    3    3    0    0  0.12597390456E+02 -0.23923959214E+02  0.12968991023E+02  0.29987410678E+02  0.51100000000E-03 0. -1.
        -11    1    3    3    0    0 -0.26249417905E+01 -0.33050151228E+01 -0.11071012212E-01  0.42206121823E+01  0.51100000000E-03 0.  1.
         12    1    3    3    0    0  0.21954385176E+00  0.19191087125E+02  0.16166584190E+02  0.25093912986E+02  0.00000000000E+00 0. -1.
</event>
<event>
 7    1  0.5832130E-012  0.5930193E+02  0.7816164E-02  0.1266605E+00
        -11   -1    0    0    0    0  0.00000000000E+00  0.00000000000E+00  0.45593999997E+02  0.45594000000E+02  0.51100000000E-03 0. -1.
         11   -1    0    0    0    0 -0.00000000000E+00 -0.00000000000E+00 -0.45593999997E+02  0.45594000000E+02  0.51100000000E-03 0.  1.
    9900012    2    1    2    0    0 -0.55046288737E+01 -0.90215578426E+00 -0.31394373339E+02  0.59301929351E+02  0.49999973233E+02 0.  0.
         12    1    1    2    0    0  0.55046288737E+01  0.90215578426E+00  0.31394373339E+02  0.31886070649E+02  0.00000000000E+00 0. -1.
         11    1    3    3    0    0 -0.39242263232E+01  0.84578567447E+01  0.74931118606E+01  0.11961672900E+02  0.51100000000E-03 0. -1.
        -11    1    3    3    0    0 -0.56531867651E+00  0.80576947736E+01 -0.58320465552E+01  0.99628709493E+01  0.51100000000E-03 0.  1.
        -12    1    3    3    0    0 -0.10150838740E+01 -0.17417707303E+02 -0.33055438644E+02  0.37377385501E+02  0.00000000000E+00 0.  1.
</event>
<event>
 7    1  0.5832130E-012  0.5930195E+02  0.7816164E-02  0.1266605E+00
        -11   -1    0    0    0    0  0.00000000000E+00  0.00000000000E+00  0.45593999997E+02  0.45594000000E+02  0.51100000000E-03 0.  1.
         11   -1    0    0    0    0 -0.00000000000E+00 -0.00000000000E+00 -0.45593999997E+02  0.45594000000E+02  0.51100000000E-03 0. -1.
    9900012    2    1    2    0    0 -0.24304615532E+02 -0.20600321420E+02  0.12778482804E+01  0.59301945446E+02  0.50000002587E+02 0.  0.
         12    1    1    2    0    0  0.24304615532E+02  0.20600321420E+02 -0.12778482804E+01  0.31886054554E+02  0.00000000000E+00 0. -1.
         11    1    3    3    0    0  0.43670229681E+01  0.46287770332E+00  0.11895976266E+02  0.12680670209E+02  0.51100000000E-03 0. -1.
        -11    1    3    3    0    0 -0.31755496192E+01 -0.22235585719E+00 -0.13211133261E+02  0.13589245741E+02  0.51100000000E-03 0.  1.
        -12    1    3    3    0    0 -0.25496088881E+02 -0.20840843266E+02  0.25930052748E+01  0.33032029496E+02  0.00000000000E+00 0.  1.
</event>
<event>
 7    1  0.5832130E-012  0.5930196E+02  0.7816164E-02  0.1266605E+00
        -11   -1    0    0    0    0  0.00000000000E+00  0.00000000000E+00  0.45593999997E+02  0.45594000000E+02  0.51100000000E-03 0.  1.
         11   -1    0    0    0    0 -0.00000000000E+00 -0.00000000000E+00 -0.45593999997E+02  0.45594000000E+02  0.51100000000E-03 0. -1.
    9900012    2    1    2    0    0  0.25873366898E+02 -0.13132806774E+02 -0.13221861465E+02  0.59301963103E+02  0.50000034789E+02 0.  0.
         12    1    1    2    0    0 -0.25873366898E+02  0.13132806774E+02  0.13221861465E+02  0.31886036897E+02  0.00000000000E+00 0. -1.
         11    1    3    3    0    0 -0.22957722390E+01 -0.14991265806E+02  0.10373103732E+02  0.18374163979E+02  0.51100000000E-03 0. -1.
        -11    1    3    3    0    0  0.10197767040E+02 -0.22026597047E+01  0.67714622401E+00  0.10454888313E+02  0.51100000000E-03 0.  1.
        -12    1    3    3    0    0  0.17971372098E+02  0.40611187360E+01 -0.24272111421E+02  0.30472910811E+02  0.00000000000E+00 0.  1.
</event>
<event>
 7    1  0.5832130E-012  0.5930196E+02  0.7816164E-02  0.1266605E+00
        -11   -1    0    0    0    0  0.00000000000E+00  0.00000000000E+00  0.45593999997E+02  0.45594000000E+02  0.51100000000E-03 0. -1.
         11   -1    0    0    0    0 -0.00000000000E+00 -0.00000000000E+00 -0.45593999997E+02  0.45594000000E+02  0.51100000000E-03 0.  1.
    9900012    2    1    2    0    0 -0.67683712629E+01 -0.28024749871E+02 -0.13620640616E+02  0.59301963782E+02  0.50000036028E+02 0.  0.
         12    1    1    2    0    0  0.67683712629E+01  0.28024749871E+02  0.13620640616E+02  0.31886036218E+02  0.00000000000E+00 0. -1.
         11    1    3    3    0    0  0.17445134240E+02 -0.18706622334E+02 -0.12545929495E+02  0.28489836345E+02  0.51100000000E-03 0. -1.
        -11    1    3    3    0    0 -0.15424873264E+01  0.40439701766E+00 -0.55210875509E+01  0.57467566597E+01  0.51100000000E-03 0.  1.
         12    1    3    3    0    0 -0.22671018176E+02 -0.97225245542E+01  0.44463764301E+01  0.25065370778E+02  0.00000000000E+00 0. -1.
</event>
<event>
 7    1  0.5832130E-012  0.5930193E+02  0.7816164E-02  0.1266605E+00
        -11   -1    0    0    0    0  0.00000000000E+00  0.00000000000E+00  0.45593999997E+02  0.45594000000E+02  0.51100000000E-03 0.  1.
         11   -1    0    0    0    0 -0.00000000000E+00 -0.00000000000E+00 -0.45593999997E+02  0.45594000000E+02  0.51100000000E-03 0. -1.
    9900012    2    1    2    0    0 -0.13465135699E+02  0.35339765213E+01  0.28686628388E+02  0.59301929096E+02  0.49999972767E+02 0.  0.
         12    1    1    2    0    0  0.13465135699E+02 -0.35339765213E+01 -0.28686628388E+02  0.31886070904E+02  0.00000000000E+00 0. -1.
         11    1    3    3    0    0  0.85176821718E+01  0.43175204645E+01  0.22461199923E+02  0.24406912848E+02  0.51100000000E-03 0. -1.
        -11    1    3    3    0    0 -0.20167240971E+01 -0.69105948466E+01  0.11303736002E+02  0.13401415786E+02  0.51100000000E-03 0.  1.
         12    1    3    3    0    0 -0.19966093774E+02  0.61270509034E+01 -0.50783075365E+01  0.21493600461E+02  0.00000000000E+00 0. -1.
</event>
<event>
 7    1  0.5832130E-012  0.5930195E+02  0.7816164E-02  0.1266605E+00
        -11   -1    0    0    0    0  0.00000000000E+00  0.00000000000E+00  0.45593999997E+02  0.45594000000E+02  0.51100000000E-03 0. -1.
         11   -1    0    0    0    0 -0.00000000000E+00 -0.00000000000E+00 -0.45593999997E+02  0.45594000000E+02  0.51100000000E-03 0.  1.
    9900012    2    1    2    0    0  0.17076386263E+02 -0.25829176530E+02 -0.76138660674E+01  0.59301948433E+02  0.50000008035E+02 0.  0.
         12    1    1    2    0    0 -0.17076386263E+02  0.25829176530E+02  0.76138660674E+01  0.31886051567E+02  0.00000000000E+00 0. -1.
         11    1    3    3    0    0  0.41694538966E+01  0.24207683508E+01  0.39079970491E+01  0.62061990301E+01  0.51100000000E-03 0. -1.
        -11    1    3    3    0    0  0.13479279864E+02  0.36119967085E+01 -0.15643511444E+02  0.20963228674E+02  0.51100000000E-03 0.  1.
        -12    1    3    3    0    0 -0.57234749756E+00 -0.31861941589E+02  0.41216483274E+01  0.32132520730E+02  0.00000000000E+00 0.  1.
</event>
<event>
 7    1  0.5832130E-012  0.5930193E+02  0.7816164E-02  0.1266605E+00
        -11   -1    0    0    0    0  0.00000000000E+00  0.00000000000E+00  0.45593999997E+02  0.45594000000E+02  0.51100000000E-03 0.  1.
         11   -1    0    0    0    0 -0.00000000000E+00 -0.00000000000E+00 -0.45593999997E+02  0.45594000000E+02  0.51100000000E-03 0. -1.
    9900012    2    1    2    0    0 -0.23820774163E+02  0.19542156469E+02  0.82095156985E+01  0.59301932365E+02  0.49999978730E+02 0.  0.
         12    1    1    2    0    0  0.23820774163E+02 -0.19542156469E+02 -0.82095156985E+01  0.31886067635E+02  0.00000000000E+00 0. -1.
         11    1    3    3    0    0  0.13057320219E+02  0.80662306168E+00 -0.30075998701E+01  0.13423483501E+02  0.51100000000E-03 0. -1.
        -11    1    3    3    0    0 -0.10813661193E+02  0.14308500093E+02  0.29340231555E+01  0.18173522924E+02  0.51100000000E-03 0.  1.
        -12    1    3    3    0    0 -0.26064433189E+02  0.44270333143E+01  0.82830924131E+01  0.27704925941E+02  0.00000000000E+00 0.  1.
</event>
<event>
 7    1  0.5832130E-012  0.5930195E+02  0.7816164E-02  0.1266605E+00
        -11   -1    0    0    0    0  0.00000000000E+00  0.00000000000E+00  0.45593999997E+02  0.45594000000E+02  0.51100000000E-03 0.  1.
         11   -1    0    0    0    0 -0.00000000000E+00 -0.00000000000E+00 -0.45593999997E+02  0.45594000000E+02  0.51100000000E-03 0. -1.
    9900012    2    1    2    0    0  0.17818017841E+02 -0.53447357243E+01  0.25897335427E+02  0.59301953805E+02  0.50000017831E+02 0.  0.
         12    1    1    2    0    0 -0.17818017841E+02  0.53447357243E+01 -0.25897335427E+02  0.31886046195E+02  0.00000000000E+00 0. -1.
         11    1    3    3    0    0 -0.10349563887E+02 -0.72682872901E+01  0.17003598514E+02  0.21191126338E+02  0.51100000000E-03 0.  1.
        -11    1    3    3    0    0  0.16169867979E+01  0.17494332215E+01  0.11208578466E+02  0.11458943860E+02  0.51100000000E-03 0. -1.
        -12    1    3    3    0    0  0.26550594931E+02  0.17411834433E+00 -0.23148415525E+01  0.26651883607E+02  0.00000000000E+00 0.  1.
</event>
<event>
 7    1  0.5832130E-012  0.5930197E+02  0.7816164E-02  0.1266605E+00
        -11   -1    0    0    0    0  0.00000000000E+00  0.00000000000E+00  0.45593999997E+02  0.45594000000E+02  0.51100000000E-03 0.  1.
         11   -1    0    0    0    0 -0.00000000000E+00 -0.00000000000E+00 -0.45593999997E+02  0.45594000000E+02  0.51100000000E-03 0. -1.
    9900012    2    1    2    0    0  0.23648059700E+02 -0.37747418980E+01 -0.21053257698E+02  0.59301967577E+02  0.50000042949E+02 0.  0.
         12    1    1    2    0    0 -0.23648059700E+02  0.37747418980E+01  0.21053257698E+02  0.31886032423E+02  0.00000000000E+00 0. -1.
         11    1    3    3    0    0  0.33514673353E+01 -0.13886388124E+02 -0.86904854646E+01  0.16720904470E+02  0.51100000000E-03 0. -1.
        -11    1    3    3    0    0  0.22833861144E+02 -0.43474659784E+01 -0.15003085241E+02  0.27665470214E+02  0.51100000000E-03 0.  1.
         12    1    3    3    0    0 -0.25372687794E+01  0.14459112204E+02  0.26403130071E+01  0.14915592893E+02  0.00000000000E+00 0. -1.
</event>
<event>
 7    1  0.5832130E-012  0.5930197E+02  0.7816164E-02  0.1266605E+00
        -11   -1    0    0    0    0  0.00000000000E+00  0.00000000000E+00  0.45593999997E+02  0.45594000000E+02  0.51100000000E-03 0.  1.
         11   -1    0    0    0    0 -0.00000000000E+00 -0.00000000000E+00 -0.45593999997E+02  0.45594000000E+02  0.51100000000E-03 0. -1.
    9900012    2    1    2    0    0  0.18949856286E+01  0.24470386394E+02  0.20355045349E+02  0.59301974033E+02  0.50000054722E+02 0.  0.
         12    1    1    2    0    0 -0.18949856286E+01 -0.24470386394E+02 -0.20355045349E+02  0.31886025967E+02  0.00000000000E+00 0. -1.
         11    1    3    3    0    0  0.47464620916E+01 -0.24262399897E+01  0.21398194815E+01  0.57440726448E+01  0.51100000000E-03 0. -1.
        -11    1    3    3    0    0  0.18315900538E+02  0.20809337602E+02  0.59694801564E+01  0.28357281914E+02  0.51100000000E-03 0.  1.
         12    1    3    3    0    0 -0.21167377001E+02  0.60872887823E+01  0.12245745711E+02  0.25200619474E+02  0.00000000000E+00 0. -1.
</event>
<event>
 7    1  0.5832130E-012  0.5930194E+02  0.7816164E-02  0.1266605E+00
        -11   -1    0    0    0    0  0.00000000000E+00  0.00000000000E+00  0.45593999997E+02  0.45594000000E+02  0.51100000000E-03 0.  1.
         11   -1    0    0    0    0 -0.00000000000E+00 -0.00000000000E+00 -0.45593999997E+02  0.45594000000E+02  0.51100000000E-03 0. -1.
    9900012    2    1    2    0    0  0.23566125919E+02  0.20378299036E+02  0.67884774255E+01  0.59301940536E+02  0.49999993631E+02 0.  0.
         12    1    1    2    0    0 -0.23566125919E+02 -0.20378299036E+02 -0.67884774255E+01  0.31886059464E+02  0.00000000000E+00 0. -1.
         11    1    3    3    0    0 -0.59527865111E+01  0.91081293774E+01 -0.10430483348E+02  0.15072779144E+02  0.51100000000E-03 0. -1.
        -11    1    3    3    0    0  0.13448157446E+02  0.28066603921E+01 -0.57959068178E+01  0.14910493532E+02  0.51100000000E-03 0.  1.
        -12    1    3    3    0    0  0.16070754983E+02  0.84635092662E+01  0.23014867591E+02  0.29318667860E+02  0.00000000000E+00 0.  1.
</event>
<event>
 7    1  0.5832130E-012  0.5930194E+02  0.7816164E-02  0.1266605E+00
        -11   -1    0    0    0    0  0.00000000000E+00  0.00000000000E+00  0.45593999997E+02  0.45594000000E+02  0.51100000000E-03 0. -1.
         11   -1    0    0    0    0 -0.00000000000E+00 -0.00000000000E+00 -0.45593999997E+02  0.45594000000E+02  0.51100000000E-03 0.  1.
    9900012    2    1    2    0    0  0.41924418420E+01 -0.26084258389E+02 -0.17853735420E+02  0.59301937641E+02  0.49999988352E+02 0.  0.
         12    1    1    2    0    0 -0.41924418420E+01  0.26084258389E+02  0.17853735420E+02  0.31886062359E+02  0.00000000000E+00 0. -1.
         11    1    3    3    0    0  0.35175891888E+01  0.71298671188E-01  0.50148249286E+01  0.61259274014E+01  0.51100000000E-03 0. -1.
        -11    1    3    3    0    0  0.10753312202E+02 -0.33726559469E+02 -0.17112868904E+02  0.39318759128E+02  0.51100000000E-03 0.  1.
         12    1    3    3    0    0 -0.10078459549E+02  0.75710024090E+01 -0.57556914451E+01  0.13857251112E+02  0.00000000000E+00 0. -1.
</event>
<event>
 7    1  0.5832130E-012  0.5930193E+02  0.7816164E-02  0.1266605E+00
        -11   -1    0    0    0    0  0.00000000000E+00  0.00000000000E+00  0.45593999997E+02  0.45594000000E+02  0.51100000000E-03 0.  1.
         11   -1    0    0    0    0 -0.00000000000E+00 -0.00000000000E+00 -0.45593999997E+02  0.45594000000E+02  0.51100000000E-03 0. -1.
    9900012    2    1    2    0    0  0.26329506399E+02 -0.10263201791E+02  0.14769741483E+02  0.59301929660E+02  0.49999973797E+02 0.  0.
         12    1    1    2    0    0 -0.26329506399E+02  0.10263201791E+02 -0.14769741483E+02  0.31886070340E+02  0.00000000000E+00 0. -1.
         11    1    3    3    0    0 -0.50559167156E+01 -0.87294821849E+01 -0.56873796268E+01  0.11580692567E+02  0.51100000000E-03 0. -1.
        -11    1    3    3    0    0  0.51548089465E+01 -0.12301631797E+02  0.10877973676E+01  0.13382283195E+02  0.51100000000E-03 0.  1.
        -12    1    3    3    0    0  0.26230614169E+02  0.10767912191E+02  0.19369323742E+02  0.34338953898E+02  0.00000000000E+00 0.  1.
</event>
<event>
 7    1  0.5832130E-012  0.5930195E+02  0.7816164E-02  0.1266605E+00
        -11   -1    0    0    0    0  0.00000000000E+00  0.00000000000E+00  0.45593999997E+02  0.45594000000E+02  0.51100000000E-03 0.  1.
         11   -1    0    0    0    0 -0.00000000000E+00 -0.00000000000E+00 -0.45593999997E+02  0.45594000000E+02  0.51100000000E-03 0. -1.
    9900012    2    1    2    0    0  0.23825705740E+02 -0.15438263321E+02  0.14516053078E+02  0.59301952497E+02  0.50000015446E+02 0.  0.
         12    1    1    2    0    0 -0.23825705740E+02  0.15438263321E+02 -0.14516053078E+02  0.31886047503E+02  0.00000000000E+00 0. -1.
         11    1    3    3    0    0  0.55596803779E+00 -0.30335822834E+01 -0.11059729435E+02  0.11481695753E+02  0.51100000000E-03 0. -1.
        -11    1    3    3    0    0  0.99866654401E+01 -0.12218075867E+02 -0.32222977644E+01  0.16105839551E+02  0.51100000000E-03 0.  1.
        -12    1    3    3    0    0  0.13283072262E+02 -0.18660517074E+00  0.28798080278E+02  0.31714417193E+02  0.00000000000E+00 0.  1.
</event>
<event>
 7    1  0.5832130E-012  0.5930194E+02  0.7816164E-02  0.1266605E+00
        -11   -1    0    0    0    0  0.00000000000E+00  0.00000000000E+00  0.45593999997E+02  0.45594000000E+02  0.51100000000E-03 0. -1.
         11   -1    0    0    0    0 -0.00000000000E+00 -0.00000000000E+00 -0.45593999997E+02  0.45594000000E+02  0.51100000000E-03 0.  1.
    9900012    2    1    2    0    0  0.27471735097E+02 -0.15497480285E+02  0.46747111308E+01  0.59301936452E+02  0.49999986184E+02 0.  0.
         12    1    1    2    0    0 -0.27471735097E+02  0.15497480285E+02 -0.46747111308E+01  0.31886063548E+02  0.00000000000E+00 0. -1.
         11    1    3    3    0    0 -0.62257825865E-01  0.28000115925E+01 -0.64668081529E+01  0.70472369694E+01  0.51100000000E-03 0. -1.
        -11    1    3    3    0    0 -0.92147823281E+01 -0.40014195173E+01 -0.28034729579E+01  0.10429910469E+02  0.51100000000E-03 0.  1.
        -12    1    3    3    0    0  0.36748775251E+02 -0.14296072360E+02  0.13944992242E+02  0.41824789013E+02  0.00000000000E+00 0.  1.
</event>
<event>
 7    1  0.6221733E-012  0.5930193E+02  0.7816164E-02  0.1266605E+00
        -11   -1    0    0    0    0  0.00000000000E+00  0.00000000000E+00  0.45593999997E+02  0.45594000000E+02  0.51100000000E-03 0. -1.
         11   -1    0    0    0    0 -0.00000000000E+00 -0.00000000000E+00 -0.45593999997E+02  0.45594000000E+02  0.51100000000E-03 0.  1.
    9900012    2    1    2    0    0 -0.30797733921E+02 -0.23849127995E+01 -0.79077938867E+01  0.59301930505E+02  0.49999975337E+02 0.  0.
         12    1    1    2    0    0  0.30797733921E+02  0.23849127995E+01  0.79077938867E+01  0.31886069495E+02  0.00000000000E+00 0. -1.
         11    1    3    3    0    0 -0.91312592828E+01 -0.10886968861E+02  0.74713385865E+01  0.16053874536E+02  0.51100000000E-03 0. -1.
        -11    1    3    3    0    0 -0.25898982574E+02  0.92007923519E+01 -0.21161620514E+00  0.27485571851E+02  0.51100000000E-03 0.  1.
         12    1    3    3    0    0  0.42325079364E+01 -0.69873628999E+00 -0.15167516268E+02  0.15762484118E+02  0.00000000000E+00 0. -1.
</event>
<event>
 7    1  0.5832130E-012  0.5930195E+02  0.7816164E-02  0.1266605E+00
        -11   -1    0    0    0    0  0.00000000000E+00  0.00000000000E+00  0.45593999997E+02  0.45594000000E+02  0.51100000000E-03 0.  1.
         11   -1    0    0    0    0 -0.00000000000E+00 -0.00000000000E+00 -0.45593999997E+02  0.45594000000E+02  0.51100000000E-03 0. -1.
    9900012    2    1    2    0    0  0.19092495041E+01 -0.97279253069E+01  0.30305815966E+02  0.59301949040E+02  0.50000009141E+02 0.  0.
         12    1    1    2    0    0 -0.19092495041E+01  0.97279253069E+01 -0.30305815966E+02  0.31886050960E+02  0.00000000000E+00 0. -1.
         11    1    3    3    0    0 -0.14575300269E+02 -0.10906503975E+01  0.80843614399E+01  0.16702867908E+02  0.51100000000E-03 0. -1.
        -11    1    3    3    0    0  0.25537771505E+01 -0.11998447709E+02  0.25141007993E+02  0.27974181102E+02  0.51100000000E-03 0.  1.
         12    1    3    3    0    0  0.13930772622E+02  0.33611727997E+01 -0.29195534663E+01  0.14624900030E+02  0.00000000000E+00 0. -1.
</event>
<event>
 7    1  0.5832130E-012  0.5930189E+02  0.7816164E-02  0.1266605E+00
        -11   -1    0    0    0    0  0.00000000000E+00  0.00000000000E+00  0.45593999997E+02  0.45594000000E+02  0.51100000000E-03 0.  1.
         11   -1    0    0    0    0 -0.00000000000E+00 -0.00000000000E+00 -0.45593999997E+02  0.45594000000E+02  0.51100000000E-03 0. -1.
    9900012    2    1    2    0    0 -0.10496398352E+02 -0.29857861542E+02 -0.38803944748E+01  0.59301894319E+02  0.49999909343E+02 0.  0.
         12    1    1    2    0    0  0.10496398352E+02  0.29857861542E+02  0.38803944748E+01  0.31886105681E+02  0.00000000000E+00 0. -1.
         11    1    3    3    0    0  0.81209516212E+01 -0.21679288172E+02 -0.49198258708E+01  0.23667405387E+02  0.51100000000E-03 0. -1.
        -11    1    3    3    0    0 -0.16294121320E+02 -0.18467925835E+02  0.32941949403E+01  0.24847824750E+02  0.51100000000E-03 0.  1.
         12    1    3    3    0    0 -0.23232286537E+01  0.10289352466E+02 -0.22547635442E+01  0.10786664182E+02  0.00000000000E+00 0. -1.
</event>
<event>
 7    1  0.5832130E-012  0.5930193E+02  0.7816164E-02  0.1266605E+00
        -11   -1    0    0    0    0  0.00000000000E+00  0.00000000000E+00  0.45593999997E+02  0.45594000000E+02  0.51100000000E-03 0. -1.
         11   -1    0    0    0    0 -0.00000000000E+00 -0.00000000000E+00 -0.45593999997E+02  0.45594000000E+02  0.51100000000E-03 0.  1.
    9900012    2    1    2    0    0  0.14920038227E+02 -0.76454703370E+01 -0.27123061858E+02  0.59301933420E+02  0.49999980654E+02 0.  0.
         12    1    1    2    0    0 -0.14920038227E+02  0.76454703370E+01  0.27123061858E+02  0.31886066580E+02  0.00000000000E+00 0. -1.
         11    1    3    3    0    0 -0.11493816371E+02 -0.12512192261E+01  0.48340565992E+01  0.12531618722E+02  0.51100000000E-03 0. -1.
        -11    1    3    3    0    0 -0.16470238425E+01  0.11550357134E+01  0.14602033573E+01  0.24857572574E+01  0.51100000000E-03 0.  1.
        -12    1    3    3    0    0  0.28060878441E+02 -0.75492868243E+01 -0.33417321815E+02  0.44284557441E+02  0.00000000000E+00 0.  1.
</event>
<event>
 7    1  0.5832130E-012  0.5930195E+02  0.7816164E-02  0.1266605E+00
        -11   -1    0    0    0    0  0.00000000000E+00  0.00000000000E+00  0.45593999997E+02  0.45594000000E+02  0.51100000000E-03 0. -1.
         11   -1    0    0    0    0 -0.00000000000E+00 -0.00000000000E+00 -0.45593999997E+02  0.45594000000E+02  0.51100000000E-03 0.  1.
    9900012    2    1    2    0    0 -0.15712437599E+02  0.22155754781E+02 -0.16702149215E+02  0.59301953622E+02  0.50000017497E+02 0.  0.
         12    1    1    2    0    0  0.15712437599E+02 -0.22155754781E+02  0.16702149215E+02  0.31886046378E+02  0.00000000000E+00 0. -1.
         11    1    3    3    0    0 -0.94002506438E+01 -0.10933213093E+02 -0.85066332075E+01  0.16741047443E+02  0.51100000000E-03 0. -1.
        -11    1    3    3    0    0  0.75167937836E+01  0.11726979316E+02 -0.98493574136E+01  0.17059720818E+02  0.51100000000E-03 0.  1.
        -12    1    3    3    0    0 -0.13828980739E+02  0.21361988558E+02  0.16538414060E+01  0.25501185361E+02  0.00000000000E+00 0.  1.
</event>
<event>
 7    1  0.5832130E-012  0.5930196E+02  0.7816164E-02  0.1266605E+00
        -11   -1    0    0    0    0  0.00000000000E+00  0.00000000000E+00  0.45593999997E+02  0.45594000000E+02  0.51100000000E-03 0. -1.
         11   -1    0    0    0    0 -0.00000000000E+00 -0.00000000000E+00 -0.45593999997E+02  0.45594000000E+02  0.51100000000E-03 0.  1.
    9900012    2    1    2    0    0 -0.28428141329E+02 -0.89718565641E+01 -0.11316626821E+02  0.59301961171E+02  0.50000031265E+02 0.  0.
         12    1    1    2    0    0  0.28428141329E+02  0.89718565641E+01  0.11316626821E+02  0.31886038829E+02  0.00000000000E+00 0. -1.
         11    1    3    3    0    0 -0.20804552202E+02  0.11990059068E+02 -0.59871152726E+01  0.24747453572E+02  0.51100000000E-03 0. -1.
        -11    1    3    3    0    0  0.38243341911E+01 -0.84405928956E+01 -0.12976074034E+02  0.15945144654E+02  0.51100000000E-03 0.  1.
         12    1    3    3    0    0 -0.11447923318E+02 -0.12521322736E+02  0.76465624853E+01  0.18609362945E+02  0.00000000000E+00 0. -1.
</event>
<event>
 7    1  0.5832130E-012  0.5930196E+02  0.7816164E-02  0.1266605E+00
        -11   -1    0    0    0    0  0.00000000000E+00  0.00000000000E+00  0.45593999997E+02  0.45594000000E+02  0.51100000000E-03 0. -1.
         11   -1    0    0    0    0 -0.00000000000E+00 -0.00000000000E+00 -0.45593999997E+02  0.45594000000E+02  0.51100000000E-03 0.  1.
    9900012    2    1    2    0    0  0.73181329795E+01  0.18772238787E+02 -0.24713707414E+02  0.59301963032E+02  0.50000034659E+02 0.  0.
         12    1    1    2    0    0 -0.73181329795E+01 -0.18772238787E+02  0.24713707414E+02  0.31886036968E+02  0.00000000000E+00 0. -1.
         11    1    3    3    0    0 -0.34940992488E+01  0.23574306836E+01  0.56285021947E+01  0.70318024862E+01  0.51100000000E-03 0. -1.
        -11    1    3    3    0    0  0.44616870493E+01  0.27642589924E+02 -0.13581478254E+02  0.31120346735E+02  0.51100000000E-03 0.  1.
         12    1    3    3    0    0  0.63505451789E+01 -0.11227781821E+02 -0.16760731355E+02  0.21149813811E+02  0.00000000000E+00 0. -1.
</event>
<event>
 7    1  0.5832130E-012  0.5930194E+02  0.7816164E-02  0.1266605E+00
        -11   -1    0    0    0    0  0.00000000000E+00  0.00000000000E+00  0.45593999997E+02  0.45594000000E+02  0.51100000000E-03 0.  1.
         11   -1    0    0    0    0 -0.00000000000E+00 -0.00000000000E+00 -0.45593999997E+02  0.45594000000E+02  0.51100000000E-03 0. -1.
    9900012    2    1    2    0    0  0.17933170435E+02 -0.22010934718E+02 -0.14513477313E+02  0.59301939210E+02  0.49999991214E+02 0.  0.
         12    1    1    2    0    0 -0.17933170435E+02  0.22010934718E+02  0.14513477313E+02  0.31886060790E+02  0.00000000000E+00 0. -1.
         11    1    3    3    0    0  0.67253813496E+01 -0.20087012603E+02 -0.16026295865E+02  0.26562398029E+02  0.51100000000E-03 0. -1.
        -11    1    3    3    0    0 -0.99373363051E+01 -0.32648198548E+01 -0.33835254389E+01  0.10993541112E+02  0.51100000000E-03 0.  1.
        -12    1    3    3    0    0  0.21145125391E+02  0.13408977402E+01  0.48963439914E+01  0.21746000069E+02  0.00000000000E+00 0.  1.
</event>
<event>
 7    1  0.5832130E-012  0.5930193E+02  0.7816164E-02  0.1266605E+00
        -11   -1    0    0    0    0  0.00000000000E+00  0.00000000000E+00  0.45593999997E+02  0.45594000000E+02  0.51100000000E-03 0.  1.
         11   -1    0    0    0    0 -0.00000000000E+00 -0.00000000000E+00 -0.45593999997E+02  0.45594000000E+02  0.51100000000E-03 0. -1.
    9900012    2    1    2    0    0  0.12305672083E+02 -0.80826078855E+01  0.28283626798E+02  0.59301926856E+02  0.49999968683E+02 0.  0.
         12    1    1    2    0    0 -0.12305672083E+02  0.80826078855E+01 -0.28283626798E+02  0.31886073144E+02  0.00000000000E+00 0. -1.
         11    1    3    3    0    0  0.87977952955E+01  0.10198165645E+02  0.71853830754E+01  0.15265435296E+02  0.51100000000E-03 0. -1.
        -11    1    3    3    0    0 -0.65569892264E+01 -0.31392090178E+01 -0.73091996563E+01  0.10308886499E+02  0.51100000000E-03 0.  1.
        -12    1    3    3    0    0  0.10064866014E+02 -0.15141564513E+02  0.28407443379E+02  0.33727605061E+02  0.00000000000E+00 0.  1.
</event>
<event>
 7    1  0.5832130E-012  0.5930194E+02  0.7816164E-02  0.1266605E+00
        -11   -1    0    0    0    0  0.00000000000E+00  0.00000000000E+00  0.45593999997E+02  0.45594000000E+02  0.51100000000E-03 0. -1.
         11   -1    0    0    0    0 -0.00000000000E+00 -0.00000000000E+00 -0.45593999997E+02  0.45594000000E+02  0.51100000000E-03 0.  1.
    9900012    2    1    2    0    0  0.17171559228E+02 -0.39472973209E+01  0.26575877605E+02  0.59301939206E+02  0.49999991207E+02 0.  0.
         12    1    1    2    0    0 -0.17171559228E+02  0.39472973209E+01 -0.26575877605E+02  0.31886060794E+02  0.00000000000E+00 0. -1.
         11    1    3    3    0    0  0.84994167966E+01 -0.93603410660E+01  0.86426474289E+01  0.15315071844E+02  0.51100000000E-03 0. -1.
        -11    1    3    3    0    0  0.14565586429E+02 -0.10217997963E+02 -0.20850711333E+01  0.17913997663E+02  0.51100000000E-03 0.  1.
         12    1    3    3    0    0 -0.58934439972E+01  0.15631041708E+02  0.20018301309E+02  0.26072869699E+02  0.00000000000E+00 0. -1.
</event>
<event>
 7    1  0.5832130E-012  0.5930194E+02  0.7816164E-02  0.1266605E+00
        -11   -1    0    0    0    0  0.00000000000E+00  0.00000000000E+00  0.45593999997E+02  0.45594000000E+02  0.51100000000E-03 0.  1.
         11   -1    0    0    0    0 -0.00000000000E+00 -0.00000000000E+00 -0.45593999997E+02  0.45594000000E+02  0.51100000000E-03 0. -1.
    9900012    2    1    2    0    0 -0.14601767175E+02  0.26035922814E+02  0.11208912489E+02  0.59301943477E+02  0.49999998996E+02 0.  0.
         12    1    1    2    0    0  0.14601767175E+02 -0.26035922814E+02 -0.11208912489E+02  0.31886056523E+02  0.00000000000E+00 0. -1.
         11    1    3    3    0    0 -0.15205390504E+02 -0.81811766120E+00 -0.17020702065E+01  0.15322214596E+02  0.51100000000E-03 0.  1.
        -11    1    3    3    0    0 -0.14509813268E+02  0.17900980243E+02  0.16246425201E+01  0.23100199963E+02  0.51100000000E-03 0. -1.
         12    1    3    3    0    0  0.15113436598E+02  0.89530602320E+01  0.11286340175E+02  0.20879528919E+02  0.00000000000E+00 0. -1.
</event>
<event>
 7    1  0.5832130E-012  0.5930198E+02  0.7816164E-02  0.1266605E+00
        -11   -1    0    0    0    0  0.00000000000E+00  0.00000000000E+00  0.45593999997E+02  0.45594000000E+02  0.51100000000E-03 0. -1.
         11   -1    0    0    0    0 -0.00000000000E+00 -0.00000000000E+00 -0.45593999997E+02  0.45594000000E+02  0.51100000000E-03 0.  1.
    9900012    2    1    2    0    0 -0.99457664777E+01 -0.17310933999E+00 -0.30294724313E+02  0.59301975492E+02  0.50000057384E+02 0.  0.
         12    1    1    2    0    0  0.99457664777E+01  0.17310933999E+00  0.30294724313E+02  0.31886024508E+02  0.00000000000E+00 0. -1.
         11    1    3    3    0    0  0.12065140133E+02 -0.81465555784E+01 -0.91750774710E+01  0.17208021998E+02  0.51100000000E-03 0. -1.
        -11    1    3    3    0    0 -0.12176268488E+02 -0.79603870067E+01 -0.17947157046E+02  0.23102591237E+02  0.51100000000E-03 0.  1.
        -12    1    3    3    0    0 -0.98346381227E+01  0.15933833245E+02 -0.31724897967E+01  0.18991362258E+02  0.00000000000E+00 0.  1.
</event>
<event>
 7    1  0.5832130E-012  0.5930194E+02  0.7816164E-02  0.1266605E+00
        -11   -1    0    0    0    0  0.00000000000E+00  0.00000000000E+00  0.45593999997E+02  0.45594000000E+02  0.51100000000E-03 0.  1.
         11   -1    0    0    0    0 -0.00000000000E+00 -0.00000000000E+00 -0.45593999997E+02  0.45594000000E+02  0.51100000000E-03 0. -1.
    9900012    2    1    2    0    0  0.43151101030E+01  0.88035760618E+01  0.30341351054E+02  0.59301941754E+02  0.49999995853E+02 0.  0.
         12    1    1    2    0    0 -0.43151101030E+01 -0.88035760618E+01 -0.30341351054E+02  0.31886058246E+02  0.00000000000E+00 0. -1.
         11    1    3    3    0    0  0.10329979028E+02  0.14259604752E+02  0.66037891420E+01  0.18805712582E+02  0.51100000000E-03 0. -1.
        -11    1    3    3    0    0  0.11951586846E+02 -0.35457063527E+01  0.17283469497E+02  0.21310344431E+02  0.51100000000E-03 0.  1.
         12    1    3    3    0    0 -0.17966455771E+02 -0.19103223377E+01  0.64540924153E+01  0.19185884741E+02  0.00000000000E+00 0. -1.
</event>
<event>
 7    1  0.5832130E-012  0.5930193E+02  0.7816164E-02  0.1266605E+00
        -11   -1    0    0    0    0  0.00000000000E+00  0.00000000000E+00  0.45593999997E+02  0.45594000000E+02  0.51100000000E-03 0. -1.
         11   -1    0    0    0    0 -0.00000000000E+00 -0.00000000000E+00 -0.45593999997E+02  0.45594000000E+02  0.51100000000E-03 0.  1.
    9900012    2    1    2    0    0  0.16897717169E+02  0.25167182031E+02 -0.98894629912E+01  0.59301931331E+02  0.49999976844E+02 0.  0.
         12    1    1    2    0    0 -0.16897717169E+02 -0.25167182031E+02  0.98894629912E+01  0.31886068669E+02  0.00000000000E+00 0. -1.
         11    1    3    3    0    0 -0.79510211593E+01 -0.17125513818E+01 -0.86476564495E+01  0.11871542951E+02  0.51100000000E-03 0. -1.
        -11    1    3    3    0    0  0.93407347713E+01 -0.47825437826E+01 -0.56189132953E+01  0.11903538885E+02  0.51100000000E-03 0.  1.
         12    1    3    3    0    0  0.15508003557E+02  0.31662277195E+02  0.43771067536E+01  0.35526849495E+02  0.00000000000E+00 0. -1.
</event>
<event>
 7    1  0.6081313E-012  0.5930194E+02  0.7816164E-02  0.1266605E+00
        -11   -1    0    0    0    0  0.00000000000E+00  0.00000000000E+00  0.45593999997E+02  0.45594000000E+02  0.51100000000E-03 0.  1.
         11   -1    0    0    0    0 -0.00000000000E+00 -0.00000000000E+00 -0.45593999997E+02  0.45594000000E+02  0.51100000000E-03 0. -1.
    9900012    2    1    2    0    0  0.41149179144E+01  0.21210539802E+02 -0.23449970052E+02  0.59301942803E+02  0.49999997767E+02 0.  0.
         12    1    1    2    0    0 -0.41149179144E+01 -0.21210539802E+02  0.23449970052E+02  0.31886057197E+02  0.00000000000E+00 0. -1.
         11    1    3    3    0    0 -0.80362042487E+01 -0.47170071818E+01 -0.60969416594E+01  0.11135682886E+02  0.51100000000E-03 0. -1.
        -11    1    3    3    0    0  0.15508992401E+02  0.27558876477E+02 -0.24566420943E+02  0.40044095148E+02  0.51100000000E-03 0.  1.
         12    1    3    3    0    0 -0.33578702384E+01 -0.16313294931E+01  0.72133925510E+01  0.81221647698E+01  0.00000000000E+00 0. -1.
</event>
<event>
 7    1  0.5832130E-012  0.5930197E+02  0.7816164E-02  0.1266605E+00
        -11   -1    0    0    0    0  0.00000000000E+00  0.00000000000E+00  0.45593999997E+02  0.45594000000E+02  0.51100000000E-03 0. -1.
         11   -1    0    0    0    0 -0.00000000000E+00 -0.00000000000E+00 -0.45593999997E+02  0.45594000000E+02  0.51100000000E-03 0.  1.
    9900012    2    1    2    0    0  0.22827772685E+02 -0.14860472406E+02 -0.16576422608E+02  0.59301974340E+02  0.50000055282E+02 0.  0.
         12    1    1    2    0    0 -0.22827772685E+02  0.14860472406E+02  0.16576422608E+02  0.31886025660E+02  0.00000000000E+00 0. -1.
         11    1    3    3    0    0 -0.44009438367E+01  0.57527153905E+00 -0.16856722990E+02  0.17431246491E+02  0.51100000000E-03 0. -1.
        -11    1    3    3    0    0  0.19415499356E+02 -0.18893485141E+02 -0.96611205593E+01  0.28762173887E+02  0.51100000000E-03 0.  1.
         12    1    3    3    0    0  0.78132171658E+01  0.34577411953E+01  0.99414209408E+01  0.13108553962E+02  0.00000000000E+00 0. -1.
</event>
<event>
 7    1  0.5832130E-012  0.5930198E+02  0.7816164E-02  0.1266605E+00
        -11   -1    0    0    0    0  0.00000000000E+00  0.00000000000E+00  0.45593999997E+02  0.45594000000E+02  0.51100000000E-03 0. -1.
         11   -1    0    0    0    0 -0.00000000000E+00 -0.00000000000E+00 -0.45593999997E+02  0.45594000000E+02  0.51100000000E-03 0.  1.
    9900012    2    1    2    0    0 -0.17246676218E+02 -0.22798069635E+02 -0.14125101990E+02  0.59301979146E+02  0.50000064048E+02 0.  0.
         12    1    1    2    0    0  0.17246676218E+02  0.22798069635E+02  0.14125101990E+02  0.31886020854E+02  0.00000000000E+00 0. -1.
         11    1    3    3    0    0  0.14054737451E+01  0.74524173838E+01  0.71390435039E+00  0.76173184910E+01  0.51100000000E-03 0. -1.
        -11    1    3    3    0    0 -0.26548827367E+02 -0.16493796837E+02 -0.20735212577E+01  0.31323873632E+02  0.51100000000E-03 0.  1.
         12    1    3    3    0    0  0.78966774041E+01 -0.13756690182E+02 -0.12765485083E+02  0.20360787023E+02  0.00000000000E+00 0. -1.
</event>
<event>
 7    1  0.5832130E-012  0.5930197E+02  0.7816164E-02  0.1266605E+00
        -11   -1    0    0    0    0  0.00000000000E+00  0.00000000000E+00  0.45593999997E+02  0.45594000000E+02  0.51100000000E-03 0.  1.
         11   -1    0    0    0    0 -0.00000000000E+00 -0.00000000000E+00 -0.45593999997E+02  0.45594000000E+02  0.51100000000E-03 0. -1.
    9900012    2    1    2    0    0 -0.20576878719E+01  0.35092840011E+01  0.31625457056E+02  0.59301973475E+02  0.50000053704E+02 0.  0.
         12    1    1    2    0    0  0.20576878719E+01 -0.35092840011E+01 -0.31625457056E+02  0.31886026525E+02  0.00000000000E+00 0. -1.
         11    1    3    3    0    0 -0.11888798413E+02 -0.23240675586E+00  0.49170431077E+01  0.12867589276E+02  0.51100000000E-03 0. -1.
        -11    1    3    3    0    0 -0.54619498436E+01  0.16141037190E+02  0.65470973436E+01  0.18254601106E+02  0.51100000000E-03 0.  1.
        -12    1    3    3    0    0  0.15293060384E+02 -0.12399346433E+02  0.20161316605E+02  0.28179783092E+02  0.00000000000E+00 0.  1.
</event>
<event>
 7    1  0.5832130E-012  0.5930196E+02  0.7816164E-02  0.1266605E+00
        -11   -1    0    0    0    0  0.00000000000E+00  0.00000000000E+00  0.45593999997E+02  0.45594000000E+02  0.51100000000E-03 0.  1.
         11   -1    0    0    0    0 -0.00000000000E+00 -0.00000000000E+00 -0.45593999997E+02  0.45594000000E+02  0.51100000000E-03 0. -1.
    9900012    2    1    2    0    0  0.13790021282E+02  0.19615950956E+02  0.21018315823E+02  0.59301955734E+02  0.50000021350E+02 0.  0.
         12    1    1    2    0    0 -0.13790021282E+02 -0.19615950956E+02 -0.21018315823E+02  0.31886044266E+02  0.00000000000E+00 0. -1.
         11    1    3    3    0    0  0.12870555670E+02  0.41313494108E+01  0.47390541222E+01  0.14324031745E+02  0.51100000000E-03 0. -1.
        -11    1    3    3    0    0  0.10464293625E+02 -0.66439063440E+01 -0.44702413047E+01  0.13176721525E+02  0.51100000000E-03 0.  1.
        -12    1    3    3    0    0 -0.95448280122E+01  0.22128507889E+02  0.20749503005E+02  0.31801202464E+02  0.00000000000E+00 0.  1.
</event>
<event>
 7    1  0.5832130E-012  0.5930197E+02  0.7816164E-02  0.1266605E+00
        -11   -1    0    0    0    0  0.00000000000E+00  0.00000000000E+00  0.45593999997E+02  0.45594000000E+02  0.51100000000E-03 0.  1.
         11   -1    0    0    0    0 -0.00000000000E+00 -0.00000000000E+00 -0.45593999997E+02  0.45594000000E+02  0.51100000000E-03 0. -1.
    9900012    2    1    2    0    0 -0.18500975406E+02 -0.13557039073E+02  0.22150380913E+02  0.59301972120E+02  0.50000051233E+02 0.  0.
         12    1    1    2    0    0  0.18500975406E+02  0.13557039073E+02 -0.22150380913E+02  0.31886027880E+02  0.00000000000E+00 0. -1.
         11    1    3    3    0    0 -0.13324117434E+02 -0.11529770220E+02 -0.54434427915E+01  0.18441767172E+02  0.51100000000E-03 0. -1.
        -11    1    3    3    0    0 -0.30823369641E+01 -0.54010858864E+01 -0.50282987234E+01  0.79972694230E+01  0.51100000000E-03 0.  1.
        -12    1    3    3    0    0 -0.20945210080E+01  0.33738170336E+01  0.32622122428E+02  0.32862935525E+02  0.00000000000E+00 0.  1.
</event>
<event>
 7    1  0.5832130E-012  0.5930195E+02  0.7816164E-02  0.1266605E+00
        -11   -1    0    0    0    0  0.00000000000E+00  0.00000000000E+00  0.45593999997E+02  0.45594000000E+02  0.51100000000E-03 0.  1.
         11   -1    0    0    0    0 -0.00000000000E+00 -0.00000000000E+00 -0.45593999997E+02  0.45594000000E+02  0.51100000000E-03 0. -1.
    9900012    2    1    2    0    0 -0.26132689969E+02  0.11078092611E+02 -0.14528552341E+02  0.59301945775E+02  0.50000003187E+02 0.  0.
         12    1    1    2    0    0  0.26132689969E+02 -0.11078092611E+02  0.14528552341E+02  0.31886054225E+02  0.00000000000E+00 0. -1.
         11    1    3    3    0    0 -0.10851102957E+02 -0.18011728887E+02 -0.10382852477E+02  0.23451491183E+02  0.51100000000E-03 0.  1.
        -11    1    3    3    0    0  0.26263823377E+01  0.39635851087E+01 -0.50363976128E+00  0.47813747362E+01  0.51100000000E-03 0. -1.
        -12    1    3    3    0    0 -0.17907969349E+02  0.25126236389E+02 -0.36420601025E+01  0.31069079856E+02  0.00000000000E+00 0.  1.
</event>
<event>
 7    1  0.5832130E-012  0.5930196E+02  0.7816164E-02  0.1266605E+00
        -11   -1    0    0    0    0  0.00000000000E+00  0.00000000000E+00  0.45593999997E+02  0.45594000000E+02  0.51100000000E-03 0.  1.
         11   -1    0    0    0    0 -0.00000000000E+00 -0.00000000000E+00 -0.45593999997E+02  0.45594000000E+02  0.51100000000E-03 0. -1.
    9900012    2    1    2    0    0  0.55339836863E+01  0.47551433315E+00  0.31398545706E+02  0.59301956630E+02  0.50000022984E+02 0.  0.
         12    1    1    2    0    0 -0.55339836863E+01 -0.47551433315E+00 -0.31398545706E+02  0.31886043370E+02  0.00000000000E+00 0. -1.
         11    1    3    3    0    0  0.84479800678E+01  0.49033139617E+01  0.10446666784E+02  0.14301877576E+02  0.51100000000E-03 0. -1.
        -11    1    3    3    0    0  0.37198055386E+01  0.79093769900E+01  0.27990545959E+02  0.29323469457E+02  0.51100000000E-03 0.  1.
         12    1    3    3    0    0 -0.66338019201E+01 -0.12337176619E+02 -0.70386670368E+01  0.15676609598E+02  0.00000000000E+00 0. -1.
</event>
<event>
 7    1  0.5832130E-012  0.5930193E+02  0.7816164E-02  0.1266605E+00
        -11   -1    0    0    0    0  0.00000000000E+00  0.00000000000E+00  0.45593999997E+02  0.45594000000E+02  0.51100000000E-03 0.  1.
         11   -1    0    0    0    0 -0.00000000000E+00 -0.00000000000E+00 -0.45593999997E+02  0.45594000000E+02  0.51100000000E-03 0. -1.
    9900012    2    1    2    0    0 -0.12289541727E+02 -0.26110054078E+02  0.13562947804E+02  0.59301932306E+02  0.49999978623E+02 0.  0.
         12    1    1    2    0    0  0.12289541727E+02  0.26110054078E+02 -0.13562947804E+02  0.31886067694E+02  0.00000000000E+00 0. -1.
         11    1    3    3    0    0 -0.11333273470E+02 -0.73595418794E+01 -0.77911339213E+01  0.15598324021E+02  0.51100000000E-03 0. -1.
        -11    1    3    3    0    0 -0.62386932982E+00 -0.14412289364E+02 -0.62768574638E+01  0.15732203835E+02  0.51100000000E-03 0.  1.
        -12    1    3    3    0    0 -0.33239892754E+00 -0.43382228352E+01  0.27630939189E+02  0.27971404450E+02  0.00000000000E+00 0.  1.
</event>
<event>
 7    1  0.5832130E-012  0.5930195E+02  0.7816164E-02  0.1266605E+00
        -11   -1    0    0    0    0  0.00000000000E+00  0.00000000000E+00  0.45593999997E+02  0.45594000000E+02  0.51100000000E-03 0.  1.
         11   -1    0    0    0    0 -0.00000000000E+00 -0.00000000000E+00 -0.45593999997E+02  0.45594000000E+02  0.51100000000E-03 0. -1.
    9900012    2    1    2    0    0  0.12911356128E+02  0.56525361379E+01  0.28601852040E+02  0.59301949414E+02  0.50000009824E+02 0.  0.
         12    1    1    2    0    0 -0.12911356128E+02 -0.56525361379E+01 -0.28601852040E+02  0.31886050586E+02  0.00000000000E+00 0. -1.
         11    1    3    3    0    0 -0.93086035386E+01  0.14960632517E+02  0.13278069276E+02  0.22063040341E+02  0.51100000000E-03 0. -1.
        -11    1    3    3    0    0 -0.25334479905E+01 -0.85325339532E+01  0.61953313970E+01  0.10844566647E+02  0.51100000000E-03 0.  1.
         12    1    3    3    0    0  0.24753407658E+02 -0.77556242561E+00  0.91284513663E+01  0.26394342426E+02  0.00000000000E+00 0. -1.
</event>
<event>
 7    1  0.5832130E-012  0.5930195E+02  0.7816164E-02  0.1266605E+00
        -11   -1    0    0    0    0  0.00000000000E+00  0.00000000000E+00  0.45593999997E+02  0.45594000000E+02  0.51100000000E-03 0. -1.
         11   -1    0    0    0    0 -0.00000000000E+00 -0.00000000000E+00 -0.45593999997E+02  0.45594000000E+02  0.51100000000E-03 0.  1.
    9900012    2    1    2    0    0 -0.22607093839E+02  0.12657973203E+02  0.18585357365E+02  0.59301945276E+02  0.50000002277E+02 0.  0.
         12    1    1    2    0    0  0.22607093839E+02 -0.12657973203E+02 -0.18585357365E+02  0.31886054724E+02  0.00000000000E+00 0. -1.
         11    1    3    3    0    0 -0.83938128041E+01  0.69833001710E+01  0.19296604271E+00  0.10920614031E+02  0.51100000000E-03 0. -1.
        -11    1    3    3    0    0 -0.28407410204E+02 -0.22222016188E+01  0.12248442973E+02  0.31015213848E+02  0.51100000000E-03 0.  1.
         12    1    3    3    0    0  0.14194129169E+02  0.78968746510E+01  0.61439483501E+01  0.17366117397E+02  0.00000000000E+00 0. -1.
</event>
<event>
 7    1  0.5832130E-012  0.5930199E+02  0.7816164E-02  0.1266605E+00
        -11   -1    0    0    0    0  0.00000000000E+00  0.00000000000E+00  0.45593999997E+02  0.45594000000E+02  0.51100000000E-03 0.  1.
         11   -1    0    0    0    0 -0.00000000000E+00 -0.00000000000E+00 -0.45593999997E+02  0.45594000000E+02  0.51100000000E-03 0. -1.
    9900012    2    1    2    0    0  0.24924106887E+02 -0.16702850867E+02  0.10794513659E+02  0.59301986509E+02  0.50000077476E+02 0.  0.
         12    1    1    2    0    0 -0.24924106887E+02  0.16702850867E+02 -0.10794513659E+02  0.31886013491E+02  0.00000000000E+00 0. -1.
         11    1    3    3    0    0  0.74213236555E+01  0.12447453342E+02 -0.48007662934E+01  0.15266384534E+02  0.51100000000E-03 0. -1.
        -11    1    3    3    0    0  0.58811228551E+01 -0.47595801571E+01  0.15240721797E+02  0.17015311060E+02  0.51100000000E-03 0.  1.
        -12    1    3    3    0    0  0.11621660376E+02 -0.24390724051E+02  0.35455815525E+00  0.27020290915E+02  0.00000000000E+00 0.  1.
</event>
<event>
 7    1  0.5832130E-012  0.5930194E+02  0.7816164E-02  0.1266605E+00
        -11   -1    0    0    0    0  0.00000000000E+00  0.00000000000E+00  0.45593999997E+02  0.45594000000E+02  0.51100000000E-03 0.  1.
         11   -1    0    0    0    0 -0.00000000000E+00 -0.00000000000E+00 -0.45593999997E+02  0.45594000000E+02  0.51100000000E-03 0. -1.
    9900012    2    1    2    0    0 -0.16954512401E+01 -0.10191469137E+02  0.30165882336E+02  0.59301936348E+02  0.49999985995E+02 0.  0.
         12    1    1    2    0    0  0.16954512401E+01  0.10191469137E+02 -0.30165882336E+02  0.31886063652E+02  0.00000000000E+00 0. -1.
         11    1    3    3    0    0  0.14679442877E+02 -0.48926287323E+01  0.16006394817E+01  0.15555896185E+02  0.51100000000E-03 0. -1.
        -11    1    3    3    0    0 -0.46994019534E+01 -0.10308734941E+02  0.28895122117E+02  0.31036792316E+02  0.51100000000E-03 0.  1.
         12    1    3    3    0    0 -0.11675492164E+02  0.50098945365E+01 -0.32987926293E+00  0.12709247848E+02  0.00000000000E+00 0. -1.
</event>
<event>
 7    1  0.5832130E-012  0.5930195E+02  0.7816164E-02  0.1266605E+00
        -11   -1    0    0    0    0  0.00000000000E+00  0.00000000000E+00  0.45593999997E+02  0.45594000000E+02  0.51100000000E-03 0. -1.
         11   -1    0    0    0    0 -0.00000000000E+00 -0.00000000000E+00 -0.45593999997E+02  0.45594000000E+02  0.51100000000E-03 0.  1.
    9900012    2    1    2    0    0  0.48828999788E+01 -0.20187490487E+02 -0.24193854036E+02  0.59301951993E+02  0.50000014527E+02 0.  0.
         12    1    1    2    0    0 -0.48828999788E+01  0.20187490487E+02  0.24193854036E+02  0.31886048007E+02  0.00000000000E+00 0. -1.
         11    1    3    3    0    0 -0.11417508770E+02  0.12912562829E+01  0.54241203218E+01  0.12706216228E+02  0.51100000000E-03 0. -1.
        -11    1    3    3    0    0  0.55092693133E+01 -0.11356433613E+02  0.92677602615E+00  0.12656205863E+02  0.51100000000E-03 0.  1.
        -12    1    3    3    0    0  0.10791139436E+02 -0.10122313157E+02 -0.30544750384E+02  0.33939529902E+02  0.00000000000E+00 0.  1.
</event>
<event>
 7    1  0.5832130E-012  0.5930189E+02  0.7816164E-02  0.1266605E+00
        -11   -1    0    0    0    0  0.00000000000E+00  0.00000000000E+00  0.45593999997E+02  0.45594000000E+02  0.51100000000E-03 0. -1.
         11   -1    0    0    0    0 -0.00000000000E+00 -0.00000000000E+00 -0.45593999997E+02  0.45594000000E+02  0.51100000000E-03 0.  1.
    9900012    2    1    2    0    0  0.27505352091E+02 -0.78918966518E+01 -0.14067604392E+02  0.59301891430E+02  0.49999904074E+02 0.  0.
         12    1    1    2    0    0 -0.27505352091E+02  0.78918966518E+01  0.14067604392E+02  0.31886108570E+02  0.00000000000E+00 0. -1.
         11    1    3    3    0    0 -0.58671055922E+00 -0.91277067043E+01  0.95393597035E+01  0.13215848167E+02  0.51100000000E-03 0. -1.
        -11    1    3    3    0    0  0.69340813664E+01  0.13084520771E+02 -0.12649628092E+02  0.19475606776E+02  0.51100000000E-03 0.  1.
        -12    1    3    3    0    0  0.21157981284E+02 -0.11848710718E+02 -0.10957336004E+02  0.26610436486E+02  0.00000000000E+00 0.  1.
</event>
<event>
 7    1  0.5832130E-012  0.5930181E+02  0.7816164E-02  0.1266605E+00
        -11   -1    0    0    0    0  0.00000000000E+00  0.00000000000E+00  0.45593999997E+02  0.45594000000E+02  0.51100000000E-03 0.  1.
         11   -1    0    0    0    0 -0.00000000000E+00 -0.00000000000E+00 -0.45593999997E+02  0.45594000000E+02  0.51100000000E-03 0. -1.
    9900012    2    1    2    0    0  0.14838670288E+02 -0.27880463311E+02  0.43843582454E+01  0.59301812276E+02  0.49999759715E+02 0.  0.
         12    1    1    2    0    0 -0.14838670288E+02  0.27880463311E+02 -0.43843582454E+01  0.31886187724E+02  0.00000000000E+00 0. -1.
         11    1    3    3    0    0  0.39977461836E+01 -0.82060964058E+01 -0.77390932274E+01  0.11967270241E+02  0.51100000000E-03 0. -1.
        -11    1    3    3    0    0  0.16715418114E+02  0.70600462496E+01  0.72080200056E+01  0.19524472040E+02  0.51100000000E-03 0.  1.
         12    1    3    3    0    0 -0.58744940096E+01 -0.26734413155E+02  0.49154314672E+01  0.27810069995E+02  0.00000000000E+00 0. -1.
</event>
<event>
 7    1  0.5832130E-012  0.5930195E+02  0.7816164E-02  0.1266605E+00
        -11   -1    0    0    0    0  0.00000000000E+00  0.00000000000E+00  0.45593999997E+02  0.45594000000E+02  0.51100000000E-03 0. -1.
         11   -1    0    0    0    0 -0.00000000000E+00 -0.00000000000E+00 -0.45593999997E+02  0.45594000000E+02  0.51100000000E-03 0.  1.
    9900012    2    1    2    0    0 -0.16562001289E+01 -0.28516725959E+02 -0.14169459877E+02  0.59301948951E+02  0.50000008978E+02 0.  0.
         12    1    1    2    0    0  0.16562001289E+01  0.28516725959E+02  0.14169459877E+02  0.31886051049E+02  0.00000000000E+00 0. -1.
         11    1    3    3    0    0 -0.12618670965E+01 -0.82238798535E+00  0.13777521728E+02  0.13859608068E+02  0.51100000000E-03 0. -1.
        -11    1    3    3    0    0  0.21952841724E+01  0.18196086255E+01 -0.10887213713E+02  0.11254406729E+02  0.51100000000E-03 0.  1.
        -12    1    3    3    0    0 -0.25896172048E+01 -0.29513946599E+02 -0.17059767892E+02  0.34187934154E+02  0.00000000000E+00 0.  1.
</event>
<event>
 7    1  0.5832130E-012  0.5930195E+02  0.7816164E-02  0.1266605E+00
        -11   -1    0    0    0    0  0.00000000000E+00  0.00000000000E+00  0.45593999997E+02  0.45594000000E+02  0.51100000000E-03 0.  1.
         11   -1    0    0    0    0 -0.00000000000E+00 -0.00000000000E+00 -0.45593999997E+02  0.45594000000E+02  0.51100000000E-03 0. -1.
    9900012    2    1    2    0    0 -0.29999683189E+02  0.60904913420E+01 -0.89244268952E+01  0.59301945499E+02  0.50000002683E+02 0.  0.
         12    1    1    2    0    0  0.29999683189E+02 -0.60904913420E+01  0.89244268952E+01  0.31886054501E+02  0.00000000000E+00 0. -1.
         11    1    3    3    0    0 -0.93274428741E+01 -0.26591015407E+01 -0.12439528428E+02  0.15773835277E+02  0.51100000000E-03 0. -1.
        -11    1    3    3    0    0 -0.16774204747E+02 -0.11466850846E+02 -0.55027972173E+01  0.21050971253E+02  0.51100000000E-03 0.  1.
        -12    1    3    3    0    0 -0.38980355680E+01  0.20216443729E+02  0.90178987505E+01  0.22477138968E+02  0.00000000000E+00 0.  1.
</event>
<event>
 7    1  0.5832130E-012  0.5930195E+02  0.7816164E-02  0.1266605E+00
        -11   -1    0    0    0    0  0.00000000000E+00  0.00000000000E+00  0.45593999997E+02  0.45594000000E+02  0.51100000000E-03 0. -1.
         11   -1    0    0    0    0 -0.00000000000E+00 -0.00000000000E+00 -0.45593999997E+02  0.45594000000E+02  0.51100000000E-03 0.  1.
    9900012    2    1    2    0    0  0.34279960206E+00 -0.28470723807E+02 -0.14353412662E+02  0.59301951630E+02  0.50000013864E+02 0.  0.
         12    1    1    2    0    0 -0.34279960206E+00  0.28470723807E+02  0.14353412662E+02  0.31886048370E+02  0.00000000000E+00 0. -1.
         11    1    3    3    0    0 -0.47451760885E+01  0.80966045979E+01  0.79277804904E+01  0.12285007362E+02  0.51100000000E-03 0. -1.
        -11    1    3    3    0    0  0.67837041195E+01 -0.13121224424E+02 -0.21079030619E+00  0.14772596413E+02  0.51100000000E-03 0.  1.
        -12    1    3    3    0    0 -0.16957284289E+01 -0.23446103981E+02 -0.22070402846E+02  0.32244347854E+02  0.00000000000E+00 0.  1.
</event>
<event>
 7    1  0.5832130E-012  0.5930196E+02  0.7816164E-02  0.1266605E+00
        -11   -1    0    0    0    0  0.00000000000E+00  0.00000000000E+00  0.45593999997E+02  0.45594000000E+02  0.51100000000E-03 0. -1.
         11   -1    0    0    0    0 -0.00000000000E+00 -0.00000000000E+00 -0.45593999997E+02  0.45594000000E+02  0.51100000000E-03 0.  1.
    9900012    2    1    2    0    0  0.99061335072E+01 -0.26834237551E+02 -0.14089412837E+02  0.59301963243E+02  0.50000035044E+02 0.  0.
         12    1    1    2    0    0 -0.99061335072E+01  0.26834237551E+02  0.14089412837E+02  0.31886036757E+02  0.00000000000E+00 0. -1.
         11    1    3    3    0    0  0.30088309819E+01 -0.16496812224E+02 -0.36350531951E+01  0.17158423279E+02  0.51100000000E-03 0. -1.
        -11    1    3    3    0    0 -0.25921812827E+00 -0.20230342399E+02  0.64996362706E+01  0.21250393397E+02  0.51100000000E-03 0.  1.
         12    1    3    3    0    0  0.71565206536E+01  0.98929170721E+01 -0.16953995912E+02  0.20893146566E+02  0.00000000000E+00 0. -1.
</event>
<event>
 7    1  0.5832130E-012  0.5930193E+02  0.7816164E-02  0.1266605E+00
        -11   -1    0    0    0    0  0.00000000000E+00  0.00000000000E+00  0.45593999997E+02  0.45594000000E+02  0.51100000000E-03 0. -1.
         11   -1    0    0    0    0 -0.00000000000E+00 -0.00000000000E+00 -0.45593999997E+02  0.45594000000E+02  0.51100000000E-03 0.  1.
    9900012    2    1    2    0    0  0.25982054304E+02 -0.13807926138E+02  0.12288027062E+02  0.59301928132E+02  0.49999971010E+02 0.  0.
         12    1    1    2    0    0 -0.25982054304E+02  0.13807926138E+02 -0.12288027062E+02  0.31886071868E+02  0.00000000000E+00 0. -1.
         11    1    3    3    0    0  0.52878819986E+00  0.94787368309E+01  0.81519146445E+01  0.12513184307E+02  0.51100000000E-03 0. -1.
        -11    1    3    3    0    0  0.22233008650E+02 -0.16172270391E+01  0.95041303889E+01  0.24233253839E+02  0.51100000000E-03 0.  1.
        -12    1    3    3    0    0  0.32202574544E+01 -0.21669435929E+02 -0.53680179713E+01  0.22555489986E+02  0.00000000000E+00 0.  1.
</event>
<event>
 7    1  0.5832130E-012  0.5930212E+02  0.7816164E-02  0.1266604E+00
        -11   -1    0    0    0    0  0.00000000000E+00  0.00000000000E+00  0.45593999997E+02  0.45594000000E+02  0.51100000000E-03 0. -1.
         11   -1    0    0    0    0 -0.00000000000E+00 -0.00000000000E+00 -0.45593999997E+02  0.45594000000E+02  0.51100000000E-03 0.  1.
    9900012    2    1    2    0    0 -0.27339109358E+02 -0.60416254850E+01 -0.15257174186E+02  0.59302117495E+02  0.50000316362E+02 0.  0.
         12    1    1    2    0    0  0.27339109358E+02  0.60416254850E+01  0.15257174186E+02  0.31885882505E+02  0.00000000000E+00 0. -1.
         11    1    3    3    0    0  0.75326981535E+01  0.25882169553E+01  0.23413529378E+01  0.83019481039E+01  0.51100000000E-03 0. -1.
        -11    1    3    3    0    0 -0.97263633752E+01 -0.10226227372E+02 -0.21282001716E+02  0.25536277491E+02  0.51100000000E-03 0.  1.
         12    1    3    3    0    0 -0.25145444136E+02  0.15963849321E+01  0.36834745920E+01  0.25463891900E+02  0.00000000000E+00 0. -1.
</event>
<event>
 7    1  0.5832130E-012  0.5930193E+02  0.7816164E-02  0.1266605E+00
        -11   -1    0    0    0    0  0.00000000000E+00  0.00000000000E+00  0.45593999997E+02  0.45594000000E+02  0.51100000000E-03 0. -1.
         11   -1    0    0    0    0 -0.00000000000E+00 -0.00000000000E+00 -0.45593999997E+02  0.45594000000E+02  0.51100000000E-03 0.  1.
    9900012    2    1    2    0    0  0.10684628551E+02 -0.21147215649E+02 -0.21339053864E+02  0.59301933501E+02  0.49999980801E+02 0.  0.
         12    1    1    2    0    0 -0.10684628551E+02  0.21147215649E+02  0.21339053864E+02  0.31886066499E+02  0.00000000000E+00 0. -1.
         11    1    3    3    0    0  0.13272510487E+02 -0.11121107881E+02  0.60958041682E+01  0.18357489040E+02  0.51100000000E-03 0. -1.
        -11    1    3    3    0    0  0.12751962357E+02 -0.31978292987E+01 -0.15604540129E+02  0.20404419352E+02  0.51100000000E-03 0.  1.
        -12    1    3    3    0    0 -0.15339844293E+02 -0.68282784685E+01 -0.11830317904E+02  0.20540025109E+02  0.00000000000E+00 0.  1.
</event>
<event>
 7    1  0.5832130E-012  0.5930194E+02  0.7816164E-02  0.1266605E+00
        -11   -1    0    0    0    0  0.00000000000E+00  0.00000000000E+00  0.45593999997E+02  0.45594000000E+02  0.51100000000E-03 0. -1.
         11   -1    0    0    0    0 -0.00000000000E+00 -0.00000000000E+00 -0.45593999997E+02  0.45594000000E+02  0.51100000000E-03 0.  1.
    9900012    2    1    2    0    0  0.21466527915E+02 -0.23520364290E+01 -0.23460111473E+02  0.59301941504E+02  0.49999995397E+02 0.  0.
         12    1    1    2    0    0 -0.21466527915E+02  0.23520364290E+01  0.23460111473E+02  0.31886058496E+02  0.00000000000E+00 0. -1.
         11    1    3    3    0    0 -0.84796684043E+00  0.10162594472E+00  0.23722968331E+01  0.25213425235E+01  0.51100000000E-03 0. -1.
        -11    1    3    3    0    0 -0.70081890480E+01  0.14882731379E+02 -0.95997031863E+01  0.19046383084E+02  0.51100000000E-03 0.  1.
         12    1    3    3    0    0  0.29322683804E+02 -0.17336393753E+02 -0.16232705120E+02  0.37734215897E+02  0.00000000000E+00 0. -1.
</event>
<event>
 7    1  0.5832130E-012  0.5930193E+02  0.7816164E-02  0.1266605E+00
        -11   -1    0    0    0    0  0.00000000000E+00  0.00000000000E+00  0.45593999997E+02  0.45594000000E+02  0.51100000000E-03 0.  1.
         11   -1    0    0    0    0 -0.00000000000E+00 -0.00000000000E+00 -0.45593999997E+02  0.45594000000E+02  0.51100000000E-03 0. -1.
    9900012    2    1    2    0    0  0.20743432003E+02 -0.15498830606E+01  0.24166696566E+02  0.59301932013E+02  0.49999978088E+02 0.  0.
         12    1    1    2    0    0 -0.20743432003E+02  0.15498830606E+01 -0.24166696566E+02  0.31886067987E+02  0.00000000000E+00 0. -1.
         11    1    3    3    0    0  0.68225899683E+01  0.13200133093E+02  0.67032087321E+01  0.16301050737E+02  0.51100000000E-03 0. -1.
        -11    1    3    3    0    0  0.12949127077E+02  0.60902261500E+01  0.16880757799E+02  0.22129860613E+02  0.51100000000E-03 0.  1.
         12    1    3    3    0    0  0.97171495753E+00 -0.20840242304E+02  0.58273003493E+00  0.20871020663E+02  0.00000000000E+00 0. -1.
</event>
<event>
 7    1  0.5832130E-012  0.5930200E+02  0.7816164E-02  0.1266605E+00
        -11   -1    0    0    0    0  0.00000000000E+00  0.00000000000E+00  0.45593999997E+02  0.45594000000E+02  0.51100000000E-03 0.  1.
         11   -1    0    0    0    0 -0.00000000000E+00 -0.00000000000E+00 -0.45593999997E+02  0.45594000000E+02  0.51100000000E-03 0. -1.
    9900012    2    1    2    0    0  0.64728645084E+01  0.28244255346E+02  0.13307191444E+02  0.59301995560E+02  0.50000093983E+02 0.  0.
         12    1    1    2    0    0 -0.64728645084E+01 -0.28244255346E+02 -0.13307191444E+02  0.31886004440E+02  0.00000000000E+00 0. -1.
         11    1    3    3    0    0  0.31866391939E+01  0.49586172324E+01  0.19288542183E+01  0.62018572272E+01  0.51100000000E-03 0. -1.
        -11    1    3    3    0    0  0.24270160940E+02  0.69592375425E+01  0.46193473754E+01  0.25667295722E+02  0.51100000000E-03 0.  1.
         12    1    3    3    0    0 -0.20983935626E+02  0.16326400571E+02  0.67589898508E+01  0.27432842611E+02  0.00000000000E+00 0. -1.
</event>
<event>
 7    1  0.5832130E-012  0.5930194E+02  0.7816164E-02  0.1266605E+00
        -11   -1    0    0    0    0  0.00000000000E+00  0.00000000000E+00  0.45593999997E+02  0.45594000000E+02  0.51100000000E-03 0.  1.
         11   -1    0    0    0    0 -0.00000000000E+00 -0.00000000000E+00 -0.45593999997E+02  0.45594000000E+02  0.51100000000E-03 0. -1.
    9900012    2    1    2    0    0 -0.27874905229E+02 -0.14563313991E+02  0.52555234660E+01  0.59301937483E+02  0.49999988064E+02 0.  0.
         12    1    1    2    0    0  0.27874905229E+02  0.14563313991E+02 -0.52555234660E+01  0.31886062517E+02  0.00000000000E+00 0. -1.
         11    1    3    3    0    0 -0.74925092834E+00  0.61729365163E+01  0.17762731148E+01  0.64669674985E+01  0.51100000000E-03 0. -1.
        -11    1    3    3    0    0 -0.35940011496E+01 -0.67022516544E+01  0.19615125537E+02  0.21037827160E+02  0.51100000000E-03 0.  1.
         12    1    3    3    0    0 -0.23531653151E+02 -0.14033998852E+02 -0.16135875186E+02  0.31797142825E+02  0.00000000000E+00 0. -1.
</event>
<event>
 7    1  0.5832130E-012  0.5930189E+02  0.7816164E-02  0.1266605E+00
        -11   -1    0    0    0    0  0.00000000000E+00  0.00000000000E+00  0.45593999997E+02  0.45594000000E+02  0.51100000000E-03 0. -1.
         11   -1    0    0    0    0 -0.00000000000E+00 -0.00000000000E+00 -0.45593999997E+02  0.45594000000E+02  0.51100000000E-03 0.  1.
    9900012    2    1    2    0    0 -0.11229782914E+02 -0.13369439825E+02 -0.26680966390E+02  0.59301891535E+02  0.49999904266E+02 0.  0.
         12    1    1    2    0    0  0.11229782914E+02  0.13369439825E+02  0.26680966390E+02  0.31886108465E+02  0.00000000000E+00 0. -1.
         11    1    3    3    0    0  0.69764436916E+01  0.66162592899E+01 -0.17999351051E+02  0.20406427715E+02  0.51100000000E-03 0. -1.
        -11    1    3    3    0    0 -0.53170285390E+00 -0.10387812152E+02  0.77117613384E+01  0.12948382618E+02  0.51100000000E-03 0.  1.
        -12    1    3    3    0    0 -0.17674523752E+02 -0.95978869627E+01 -0.16393376678E+02  0.25947081202E+02  0.00000000000E+00 0.  1.
</event>
<event>
 7    1  0.5832130E-012  0.5930194E+02  0.7816164E-02  0.1266605E+00
        -11   -1    0    0    0    0  0.00000000000E+00  0.00000000000E+00  0.45593999997E+02  0.45594000000E+02  0.51100000000E-03 0.  1.
         11   -1    0    0    0    0 -0.00000000000E+00 -0.00000000000E+00 -0.45593999997E+02  0.45594000000E+02  0.51100000000E-03 0. -1.
    9900012    2    1    2    0    0 -0.25970232645E+02  0.18500309253E+02  0.79948656429E-01  0.59301940069E+02  0.49999992781E+02 0.  0.
         12    1    1    2    0    0  0.25970232645E+02 -0.18500309253E+02 -0.79948656429E-01  0.31886059931E+02  0.00000000000E+00 0. -1.
         11    1    3    3    0    0 -0.22605525030E+02  0.85141476606E+01  0.13216400299E+02  0.27534954320E+02  0.51100000000E-03 0.  1.
        -11    1    3    3    0    0 -0.14680996072E+02  0.37017269212E+01 -0.10839242548E+02  0.18620515759E+02  0.51100000000E-03 0. -1.
        -12    1    3    3    0    0  0.11316288457E+02  0.62844346712E+01 -0.22972090946E+01  0.13146469990E+02  0.00000000000E+00 0.  1.
</event>
<event>
 7    1  0.5832130E-012  0.5930189E+02  0.7816164E-02  0.1266605E+00
        -11   -1    0    0    0    0  0.00000000000E+00  0.00000000000E+00  0.45593999997E+02  0.45594000000E+02  0.51100000000E-03 0.  1.
         11   -1    0    0    0    0 -0.00000000000E+00 -0.00000000000E+00 -0.45593999997E+02  0.45594000000E+02  0.51100000000E-03 0. -1.
    9900012    2    1    2    0    0 -0.17304650337E+02  0.43680665125E+01 -0.26423348132E+02  0.59301886176E+02  0.49999894491E+02 0.  0.
         12    1    1    2    0    0  0.17304650337E+02 -0.43680665125E+01  0.26423348132E+02  0.31886113824E+02  0.00000000000E+00 0. -1.
         11    1    3    3    0    0  0.28566563521E+00  0.19736147123E+02 -0.27877747159E+02  0.34157955077E+02  0.51100000000E-03 0. -1.
        -11    1    3    3    0    0 -0.21661172407E+01 -0.43141989949E+01  0.36348947804E+01  0.60429162822E+01  0.51100000000E-03 0.  1.
        -12    1    3    3    0    0 -0.15424198732E+02 -0.11053881616E+02 -0.21804957530E+01  0.19101014816E+02  0.00000000000E+00 0.  1.
</event>
<event>
 7    1  0.5832130E-012  0.5930193E+02  0.7816164E-02  0.1266605E+00
        -11   -1    0    0    0    0  0.00000000000E+00  0.00000000000E+00  0.45593999997E+02  0.45594000000E+02  0.51100000000E-03 0.  1.
         11   -1    0    0    0    0 -0.00000000000E+00 -0.00000000000E+00 -0.45593999997E+02  0.45594000000E+02  0.51100000000E-03 0. -1.
    9900012    2    1    2    0    0 -0.23313815186E+00  0.86466621082E+01  0.30690429150E+02  0.59301928426E+02  0.49999971547E+02 0.  0.
         12    1    1    2    0    0  0.23313815186E+00 -0.86466621082E+01 -0.30690429150E+02  0.31886071574E+02  0.00000000000E+00 0. -1.
         11    1    3    3    0    0  0.24397053353E+01  0.43948530444E+01  0.27758047068E+01  0.57421239482E+01  0.51100000000E-03 0. -1.
        -11    1    3    3    0    0 -0.11782025003E+02  0.14215638574E+02  0.34047759925E+02  0.38731775707E+02  0.51100000000E-03 0.  1.
        -12    1    3    3    0    0  0.91091815156E+01 -0.99638295099E+01 -0.61331354824E+01  0.14828028771E+02  0.00000000000E+00 0.  1.
</event>
<event>
 7    1  0.5832130E-012  0.5930195E+02  0.7816164E-02  0.1266605E+00
        -11   -1    0    0    0    0  0.00000000000E+00  0.00000000000E+00  0.45593999997E+02  0.45594000000E+02  0.51100000000E-03 0.  1.
         11   -1    0    0    0    0 -0.00000000000E+00 -0.00000000000E+00 -0.45593999997E+02  0.45594000000E+02  0.51100000000E-03 0. -1.
    9900012    2    1    2    0    0  0.22245396091E+02  0.22711386367E+02 -0.24607770399E+01  0.59301950674E+02  0.50000012122E+02 0.  0.
         12    1    1    2    0    0 -0.22245396091E+02 -0.22711386367E+02  0.24607770399E+01  0.31886049326E+02  0.00000000000E+00 0. -1.
         11    1    3    3    0    0  0.61435944408E+01 -0.11217301132E+02 -0.18567773612E+01  0.12923591597E+02  0.51100000000E-03 0. -1.
        -11    1    3    3    0    0  0.18297758380E+02  0.80979544384E+01 -0.34278430623E+01  0.20301106771E+02  0.51100000000E-03 0.  1.
         12    1    3    3    0    0 -0.21959567293E+01  0.25830733061E+02  0.28238433836E+01  0.26077252306E+02  0.00000000000E+00 0. -1.
</event>
<event>
 7    1  0.5832130E-012  0.5930195E+02  0.7816164E-02  0.1266605E+00
        -11   -1    0    0    0    0  0.00000000000E+00  0.00000000000E+00  0.45593999997E+02  0.45594000000E+02  0.51100000000E-03 0. -1.
         11   -1    0    0    0    0 -0.00000000000E+00 -0.00000000000E+00 -0.45593999997E+02  0.45594000000E+02  0.51100000000E-03 0.  1.
    9900012    2    1    2    0    0  0.13511266444E+02 -0.27095258655E+02 -0.10000625197E+02  0.59301954983E+02  0.50000019980E+02 0.  0.
         12    1    1    2    0    0 -0.13511266444E+02  0.27095258655E+02  0.10000625197E+02  0.31886045017E+02  0.00000000000E+00 0. -1.
         11    1    3    3    0    0 -0.53388630134E+00 -0.16322151402E+02 -0.23024563962E+02  0.28228145651E+02  0.51100000000E-03 0. -1.
        -11    1    3    3    0    0  0.46896317835E+01  0.35712527413E+01 -0.38430430658E+01  0.70367231489E+01  0.51100000000E-03 0.  1.
         12    1    3    3    0    0  0.93555209613E+01 -0.14344359994E+02  0.16866981831E+02  0.24037086183E+02  0.00000000000E+00 0. -1.
</event>
<event>
 7    1  0.5832130E-012  0.5930196E+02  0.7816164E-02  0.1266605E+00
        -11   -1    0    0    0    0  0.00000000000E+00  0.00000000000E+00  0.45593999997E+02  0.45594000000E+02  0.51100000000E-03 0. -1.
         11   -1    0    0    0    0 -0.00000000000E+00 -0.00000000000E+00 -0.45593999997E+02  0.45594000000E+02  0.51100000000E-03 0.  1.
    9900012    2    1    2    0    0 -0.10298020720E+02 -0.29724632239E+02 -0.52073751250E+01  0.59301956843E+02  0.50000023373E+02 0.  0.
         12    1    1    2    0    0  0.10298020720E+02  0.29724632239E+02  0.52073751250E+01  0.31886043157E+02  0.00000000000E+00 0. -1.
         11    1    3    3    0    0  0.64026242539E+00  0.82304356380E+01 -0.10879638065E+02  0.13657105530E+02  0.51100000000E-03 0. -1.
        -11    1    3    3    0    0 -0.28316503395E+01 -0.26261496524E+01 -0.63703964024E+01  0.74496212136E+01  0.51100000000E-03 0.  1.
        -12    1    3    3    0    0 -0.81066328062E+01 -0.35328918224E+02  0.12042659342E+02  0.38195230100E+02  0.00000000000E+00 0.  1.
</event>
<event>
 7    1  0.5832130E-012  0.5930193E+02  0.7816164E-02  0.1266605E+00
        -11   -1    0    0    0    0  0.00000000000E+00  0.00000000000E+00  0.45593999997E+02  0.45594000000E+02  0.51100000000E-03 0.  1.
         11   -1    0    0    0    0 -0.00000000000E+00 -0.00000000000E+00 -0.45593999997E+02  0.45594000000E+02  0.51100000000E-03 0. -1.
    9900012    2    1    2    0    0  0.82968835154E+01  0.19227556923E+02  0.24045457000E+02  0.59301933708E+02  0.49999981179E+02 0.  0.
         12    1    1    2    0    0 -0.82968835154E+01 -0.19227556923E+02 -0.24045457000E+02  0.31886066292E+02  0.00000000000E+00 0. -1.
         11    1    3    3    0    0  0.15484652312E+01  0.18499650691E+01 -0.11497435275E+02  0.11747813988E+02  0.51100000000E-03 0. -1.
        -11    1    3    3    0    0  0.80061808469E+01 -0.38046474082E+01  0.44710983753E+01  0.99279904611E+01  0.51100000000E-03 0.  1.
        -12    1    3    3    0    0 -0.12577625626E+01  0.21182239262E+02  0.31071793900E+02  0.37626129258E+02  0.00000000000E+00 0.  1.
</event>
<event>
 7    1  0.5832130E-012  0.5930194E+02  0.7816164E-02  0.1266605E+00
        -11   -1    0    0    0    0  0.00000000000E+00  0.00000000000E+00  0.45593999997E+02  0.45594000000E+02  0.51100000000E-03 0. -1.
         11   -1    0    0    0    0 -0.00000000000E+00 -0.00000000000E+00 -0.45593999997E+02  0.45594000000E+02  0.51100000000E-03 0.  1.
    9900012    2    1    2    0    0  0.92752485969E+01 -0.21791550314E+02 -0.21349911700E+02  0.59301942997E+02  0.49999998120E+02 0.  0.
         12    1    1    2    0    0 -0.92752485969E+01  0.21791550314E+02  0.21349911700E+02  0.31886057003E+02  0.00000000000E+00 0. -1.
         11    1    3    3    0    0  0.17388165395E+00  0.15450200774E+02 -0.76749857567E+01  0.17252372168E+02  0.51100000000E-03 0. -1.
        -11    1    3    3    0    0  0.28812930339E+01 -0.16161611260E+02 -0.11328985222E+02  0.19946063132E+02  0.51100000000E-03 0.  1.
        -12    1    3    3    0    0  0.62200739091E+01 -0.21080139828E+02 -0.23459407216E+01  0.22103507696E+02  0.00000000000E+00 0.  1.
</event>
<event>
 7    1  0.5832130E-012  0.5930196E+02  0.7816164E-02  0.1266605E+00
        -11   -1    0    0    0    0  0.00000000000E+00  0.00000000000E+00  0.45593999997E+02  0.45594000000E+02  0.51100000000E-03 0. -1.
         11   -1    0    0    0    0 -0.00000000000E+00 -0.00000000000E+00 -0.45593999997E+02  0.45594000000E+02  0.51100000000E-03 0.  1.
    9900012    2    1    2    0    0  0.27352544728E+02 -0.11716285713E+02 -0.11458041662E+02  0.59301956458E+02  0.50000022671E+02 0.  0.
         12    1    1    2    0    0 -0.27352544728E+02  0.11716285713E+02  0.11458041662E+02  0.31886043542E+02  0.00000000000E+00 0. -1.
         11    1    3    3    0    0  0.37506607498E+01 -0.13767179029E+02  0.19526510303E+01  0.14401927676E+02  0.51100000000E-03 0. -1.
        -11    1    3    3    0    0  0.17403195520E+02 -0.15885663917E+02 -0.47384252599E+01  0.24034937209E+02  0.51100000000E-03 0.  1.
         12    1    3    3    0    0  0.61986884577E+01  0.17936557233E+02 -0.86722674321E+01  0.20865091574E+02  0.00000000000E+00 0. -1.
</event>
<event>
 7    1  0.5832130E-012  0.5930195E+02  0.7816164E-02  0.1266605E+00
        -11   -1    0    0    0    0  0.00000000000E+00  0.00000000000E+00  0.45593999997E+02  0.45594000000E+02  0.51100000000E-03 0.  1.
         11   -1    0    0    0    0 -0.00000000000E+00 -0.00000000000E+00 -0.45593999997E+02  0.45594000000E+02  0.51100000000E-03 0. -1.
    9900012    2    1    2    0    0  0.27293611840E+02  0.13145280955E+02  0.99488912873E+01  0.59301951382E+02  0.50000013412E+02 0.  0.
         12    1    1    2    0    0 -0.27293611840E+02 -0.13145280955E+02 -0.99488912873E+01  0.31886048618E+02  0.00000000000E+00 0. -1.
         11    1    3    3    0    0 -0.89837059136E+01  0.10117267207E+02 -0.59289692924E+01  0.14772228837E+02  0.51100000000E-03 0. -1.
        -11    1    3    3    0    0  0.81507702888E+01  0.96611259214E+01  0.59823905677E+01  0.13984327211E+02  0.51100000000E-03 0.  1.
        -12    1    3    3    0    0  0.28126547464E+02 -0.66331121733E+01  0.98954700120E+01  0.30545395334E+02  0.00000000000E+00 0.  1.
</event>
<event>
 7    1  0.5832130E-012  0.5930193E+02  0.7816164E-02  0.1266605E+00
        -11   -1    0    0    0    0  0.00000000000E+00  0.00000000000E+00  0.45593999997E+02  0.45594000000E+02  0.51100000000E-03 0.  1.
         11   -1    0    0    0    0 -0.00000000000E+00 -0.00000000000E+00 -0.45593999997E+02  0.45594000000E+02  0.51100000000E-03 0. -1.
    9900012    2    1    2    0    0 -0.27079597266E+01  0.24941451795E+02  0.19680251663E+02  0.59301931426E+02  0.49999977018E+02 0.  0.
         12    1    1    2    0    0  0.27079597266E+01 -0.24941451795E+02 -0.19680251663E+02  0.31886068574E+02  0.00000000000E+00 0. -1.
         11    1    3    3    0    0 -0.12238164972E+01  0.25300004233E+02  0.65497270833E+01  0.26162699902E+02  0.51100000000E-03 0. -1.
        -11    1    3    3    0    0 -0.73147724442E+01  0.13177668676E+02  0.99544362793E+01  0.18062326803E+02  0.51100000000E-03 0.  1.
         12    1    3    3    0    0  0.58306292147E+01 -0.13536221114E+02  0.31760883009E+01  0.15076904721E+02  0.00000000000E+00 0. -1.
</event>
<event>
 7    1  0.5832130E-012  0.5930194E+02  0.7816164E-02  0.1266605E+00
        -11   -1    0    0    0    0  0.00000000000E+00  0.00000000000E+00  0.45593999997E+02  0.45594000000E+02  0.51100000000E-03 0. -1.
         11   -1    0    0    0    0 -0.00000000000E+00 -0.00000000000E+00 -0.45593999997E+02  0.45594000000E+02  0.51100000000E-03 0.  1.
    9900012    2    1    2    0    0  0.11486255861E+02 -0.84582102855E+00 -0.29733332514E+02  0.59301944281E+02  0.50000000462E+02 0.  0.
         12    1    1    2    0    0 -0.11486255861E+02  0.84582102855E+00  0.29733332514E+02  0.31886055719E+02  0.00000000000E+00 0. -1.
         11    1    3    3    0    0 -0.33805789700E+01 -0.88236843716E+01 -0.87031645253E+01  0.12846431142E+02  0.51100000000E-03 0. -1.
        -11    1    3    3    0    0  0.14277055475E+02 -0.71369235348E+01 -0.26021617226E+02  0.30526947996E+02  0.51100000000E-03 0.  1.
        -12    1    3    3    0    0  0.58977935573E+00  0.15114786878E+02  0.49914492379E+01  0.15928565144E+02  0.00000000000E+00 0.  1.
</event>
<event>
 7    1  0.5832130E-012  0.5930195E+02  0.7816164E-02  0.1266605E+00
        -11   -1    0    0    0    0  0.00000000000E+00  0.00000000000E+00  0.45593999997E+02  0.45594000000E+02  0.51100000000E-03 0.  1.
         11   -1    0    0    0    0 -0.00000000000E+00 -0.00000000000E+00 -0.45593999997E+02  0.45594000000E+02  0.51100000000E-03 0. -1.
    9900012    2    1    2    0    0  0.29037399557E+02  0.84013345921E+01 -0.10147277733E+02  0.59301949110E+02  0.50000009269E+02 0.  0.
         12    1    1    2    0    0 -0.29037399557E+02 -0.84013345921E+01  0.10147277733E+02  0.31886050890E+02  0.00000000000E+00 0. -1.
         11    1    3    3    0    0  0.21766331942E+02  0.36670258909E+01 -0.90986055676E+01  0.23874775572E+02  0.51100000000E-03 0. -1.
        -11    1    3    3    0    0  0.14293737959E+02  0.10578164193E+02  0.10539260920E+02  0.20670861703E+02  0.51100000000E-03 0.  1.
         12    1    3    3    0    0 -0.70226703436E+01 -0.58438554921E+01 -0.11587933086E+02  0.14756311835E+02  0.00000000000E+00 0. -1.
</event>
<event>
 7    1  0.5832130E-012  0.5930208E+02  0.7816164E-02  0.1266604E+00
        -11   -1    0    0    0    0  0.00000000000E+00  0.00000000000E+00  0.45593999997E+02  0.45594000000E+02  0.51100000000E-03 0.  1.
         11   -1    0    0    0    0 -0.00000000000E+00 -0.00000000000E+00 -0.45593999997E+02  0.45594000000E+02  0.51100000000E-03 0. -1.
    9900012    2    1    2    0    0  0.94001339188E+01  0.23089943080E+02  0.19879738748E+02  0.59302078313E+02  0.50000244904E+02 0.  0.
         12    1    1    2    0    0 -0.94001339188E+01 -0.23089943080E+02 -0.19879738748E+02  0.31885921687E+02  0.00000000000E+00 0. -1.
         11    1    3    3    0    0 -0.41352843505E+00 -0.15105662557E+02  0.59880885123E+01  0.16254514799E+02  0.51100000000E-03 0. -1.
        -11    1    3    3    0    0 -0.20530539233E+01  0.70164600493E+01  0.35019079091E+01  0.81061150559E+01  0.51100000000E-03 0.  1.
        -12    1    3    3    0    0  0.11866716277E+02  0.31179145588E+02  0.10389742326E+02  0.34941448459E+02  0.00000000000E+00 0.  1.
</event>
<event>
 7    1  0.5832130E-012  0.5930195E+02  0.7816164E-02  0.1266605E+00
        -11   -1    0    0    0    0  0.00000000000E+00  0.00000000000E+00  0.45593999997E+02  0.45594000000E+02  0.51100000000E-03 0. -1.
         11   -1    0    0    0    0 -0.00000000000E+00 -0.00000000000E+00 -0.45593999997E+02  0.45594000000E+02  0.51100000000E-03 0.  1.
    9900012    2    1    2    0    0  0.23001542187E+02  0.18001749945E+02 -0.12790094655E+02  0.59301945597E+02  0.50000002862E+02 0.  0.
         12    1    1    2    0    0 -0.23001542187E+02 -0.18001749945E+02  0.12790094655E+02  0.31886054403E+02  0.00000000000E+00 0. -1.
         11    1    3    3    0    0  0.16010819958E+02  0.11460354358E+01 -0.71451104838E+01  0.17570212208E+02  0.51100000000E-03 0. -1.
        -11    1    3    3    0    0  0.20687677431E+02  0.92351502247E+01  0.44495833611E+01  0.23088239203E+02  0.51100000000E-03 0.  1.
        -12    1    3    3    0    0 -0.13696955201E+02  0.76205642848E+01 -0.10094567532E+02  0.18643494186E+02  0.00000000000E+00 0.  1.
</event>
<event>
 7    1  0.5832130E-012  0.5930194E+02  0.7816164E-02  0.1266605E+00
        -11   -1    0    0    0    0  0.00000000000E+00  0.00000000000E+00  0.45593999997E+02  0.45594000000E+02  0.51100000000E-03 0.  1.
         11   -1    0    0    0    0 -0.00000000000E+00 -0.00000000000E+00 -0.45593999997E+02  0.45594000000E+02  0.51100000000E-03 0. -1.
    9900012    2    1    2    0    0 -0.15884106220E+02 -0.27092253800E+02 -0.55159384690E+01  0.59301943116E+02  0.49999998338E+02 0.  0.
         12    1    1    2    0    0  0.15884106220E+02  0.27092253800E+02  0.55159384690E+01  0.31886056884E+02  0.00000000000E+00 0. -1.
         11    1    3    3    0    0 -0.14448040910E+02  0.63612886134E+00  0.58319217899E+01  0.15593648004E+02  0.51100000000E-03 0. -1.
        -11    1    3    3    0    0 -0.16988540533E+01 -0.17808860789E+02  0.97639233698E+01  0.20380771024E+02  0.51100000000E-03 0.  1.
         12    1    3    3    0    0  0.26278874272E+00 -0.99195218726E+01 -0.21111783629E+02  0.23327524088E+02  0.00000000000E+00 0. -1.
</event>
<event>
 7    1  0.5832130E-012  0.5930187E+02  0.7816164E-02  0.1266605E+00
        -11   -1    0    0    0    0  0.00000000000E+00  0.00000000000E+00  0.45593999997E+02  0.45594000000E+02  0.51100000000E-03 0.  1.
         11   -1    0    0    0    0 -0.00000000000E+00 -0.00000000000E+00 -0.45593999997E+02  0.45594000000E+02  0.51100000000E-03 0. -1.
    9900012    2    1    2    0    0  0.26276622439E+02 -0.15401272639E+02  0.94374495247E+01  0.59301866035E+02  0.49999857760E+02 0.  0.
         12    1    1    2    0    0 -0.26276622439E+02  0.15401272639E+02 -0.94374495247E+01  0.31886133965E+02  0.00000000000E+00 0. -1.
         11    1    3    3    0    0  0.17137953964E+01  0.26942330259E+01 -0.18511421705E+01  0.36908960775E+01  0.51100000000E-03 0. -1.
        -11    1    3    3    0    0  0.15989003994E+02 -0.33921165178E+01  0.27574008060E+02  0.32054338614E+02  0.51100000000E-03 0.  1.
         12    1    3    3    0    0  0.85738230486E+01 -0.14703389148E+02 -0.16285416365E+02  0.23556631344E+02  0.00000000000E+00 0. -1.
</event>
<event>
 7    1  0.5832130E-012  0.5930197E+02  0.7816164E-02  0.1266605E+00
        -11   -1    0    0    0    0  0.00000000000E+00  0.00000000000E+00  0.45593999997E+02  0.45594000000E+02  0.51100000000E-03 0.  1.
         11   -1    0    0    0    0 -0.00000000000E+00 -0.00000000000E+00 -0.45593999997E+02  0.45594000000E+02  0.51100000000E-03 0. -1.
    9900012    2    1    2    0    0 -0.18178034254E+02  0.89982899081E+01  0.24603029383E+02  0.59301965354E+02  0.50000038894E+02 0.  0.
         12    1    1    2    0    0  0.18178034254E+02 -0.89982899081E+01 -0.24603029383E+02  0.31886034646E+02  0.00000000000E+00 0. -1.
         11    1    3    3    0    0 -0.45554202843E+01 -0.72032479504E+00 -0.26677939992E+01  0.53280246677E+01  0.51100000000E-03 0. -1.
        -11    1    3    3    0    0  0.14204485490E+02  0.69860118972E+01  0.19174722021E+02  0.24864467319E+02  0.51100000000E-03 0.  1.
         12    1    3    3    0    0 -0.27827099459E+02  0.27326028060E+01  0.80961013621E+01  0.29109473367E+02  0.00000000000E+00 0. -1.
</event>
<event>
 7    1  0.5832130E-012  0.5930195E+02  0.7816164E-02  0.1266605E+00
        -11   -1    0    0    0    0  0.00000000000E+00  0.00000000000E+00  0.45593999997E+02  0.45594000000E+02  0.51100000000E-03 0.  1.
         11   -1    0    0    0    0 -0.00000000000E+00 -0.00000000000E+00 -0.45593999997E+02  0.45594000000E+02  0.51100000000E-03 0. -1.
    9900012    2    1    2    0    0 -0.85087722132E+00 -0.19495806319E+02  0.25217250616E+02  0.59301949999E+02  0.50000010890E+02 0.  0.
         12    1    1    2    0    0  0.85087722132E+00  0.19495806319E+02 -0.25217250616E+02  0.31886050001E+02  0.00000000000E+00 0. -1.
         11    1    3    3    0    0 -0.92700721948E+01  0.19927169268E+01  0.24610355035E+02  0.26373750861E+02  0.51100000000E-03 0. -1.
        -11    1    3    3    0    0  0.50395211926E+01  0.44612619239E+01  0.62277981912E+00  0.67592519385E+01  0.51100000000E-03 0.  1.
        -12    1    3    3    0    0  0.33796737808E+01 -0.25949785169E+02 -0.15884238885E-01  0.26168947199E+02  0.00000000000E+00 0.  1.
</event>
<event>
 7    1  0.5832130E-012  0.5930194E+02  0.7816164E-02  0.1266605E+00
        -11   -1    0    0    0    0  0.00000000000E+00  0.00000000000E+00  0.45593999997E+02  0.45594000000E+02  0.51100000000E-03 0.  1.
         11   -1    0    0    0    0 -0.00000000000E+00 -0.00000000000E+00 -0.45593999997E+02  0.45594000000E+02  0.51100000000E-03 0. -1.
    9900012    2    1    2    0    0  0.20905711656E+02  0.81964701179E+01  0.22638239197E+02  0.59301940724E+02  0.49999993974E+02 0.  0.
         12    1    1    2    0    0 -0.20905711656E+02 -0.81964701179E+01 -0.22638239197E+02  0.31886059276E+02  0.00000000000E+00 0. -1.
         11    1    3    3    0    0  0.71370941940E+01 -0.42091151831E+00 -0.41612813113E+01  0.82723359732E+01  0.51100000000E-03 0. -1.
        -11    1    3    3    0    0  0.41391933733E+01 -0.13829633549E+02 -0.44056030492E+00  0.14442499075E+02  0.51100000000E-03 0.  1.
        -12    1    3    3    0    0  0.96294240886E+01  0.22447015185E+02  0.27240080813E+02  0.36587105676E+02  0.00000000000E+00 0.  1.
</event>
<event>
 7    1  0.5832130E-012  0.5930192E+02  0.7816164E-02  0.1266605E+00
        -11   -1    0    0    0    0  0.00000000000E+00  0.00000000000E+00  0.45593999997E+02  0.45594000000E+02  0.51100000000E-03 0.  1.
         11   -1    0    0    0    0 -0.00000000000E+00 -0.00000000000E+00 -0.45593999997E+02  0.45594000000E+02  0.51100000000E-03 0. -1.
    9900012    2    1    2    0    0  0.30612257228E+02  0.44310273670E+01 -0.77445307342E+01  0.59301920712E+02  0.49999957477E+02 0.  0.
         12    1    1    2    0    0 -0.30612257228E+02 -0.44310273670E+01  0.77445307342E+01  0.31886079288E+02  0.00000000000E+00 0. -1.
         11    1    3    3    0    0 -0.60384829583E+00  0.51746625792E+01 -0.89980056803E+01  0.10397397369E+02  0.51100000000E-03 0. -1.
        -11    1    3    3    0    0 -0.58991364521E+01 -0.81304808243E+01 -0.37701979357E+01  0.10729348631E+02  0.51100000000E-03 0.  1.
         12    1    3    3    0    0  0.37115241975E+02  0.73868456121E+01  0.50236728818E+01  0.38175174711E+02  0.00000000000E+00 0. -1.
</event>
<event>
 7    1  0.5832130E-012  0.5930198E+02  0.7816164E-02  0.1266605E+00
        -11   -1    0    0    0    0  0.00000000000E+00  0.00000000000E+00  0.45593999997E+02  0.45594000000E+02  0.51100000000E-03 0. -1.
         11   -1    0    0    0    0 -0.00000000000E+00 -0.00000000000E+00 -0.45593999997E+02  0.45594000000E+02  0.51100000000E-03 0.  1.
    9900012    2    1    2    0    0  0.19470498862E+02  0.24863133880E+02 -0.44093785188E+01  0.59301978436E+02  0.50000062752E+02 0.  0.
         12    1    1    2    0    0 -0.19470498862E+02 -0.24863133880E+02  0.44093785188E+01  0.31886021564E+02  0.00000000000E+00 0. -1.
         11    1    3    3    0    0 -0.79260193273E+01 -0.94449020383E+01 -0.21014985033E+00  0.12331752516E+02  0.51100000000E-03 0.  1.
        -11    1    3    3    0    0  0.55366702674E+01  0.89956281990E+01  0.58154200363E+01  0.12057991325E+02  0.51100000000E-03 0. -1.
        -12    1    3    3    0    0  0.21859847922E+02  0.25312407719E+02 -0.10014648705E+02  0.34912234595E+02  0.00000000000E+00 0.  1.
</event>
<event>
 7    1  0.5832130E-012  0.5930194E+02  0.7816164E-02  0.1266605E+00
        -11   -1    0    0    0    0  0.00000000000E+00  0.00000000000E+00  0.45593999997E+02  0.45594000000E+02  0.51100000000E-03 0.  1.
         11   -1    0    0    0    0 -0.00000000000E+00 -0.00000000000E+00 -0.45593999997E+02  0.45594000000E+02  0.51100000000E-03 0. -1.
    9900012    2    1    2    0    0 -0.75645238057E+01  0.99891004663E+01  0.29320923106E+02  0.59301942227E+02  0.49999996716E+02 0.  0.
         12    1    1    2    0    0  0.75645238057E+01 -0.99891004663E+01 -0.29320923106E+02  0.31886057773E+02  0.00000000000E+00 0. -1.
         11    1    3    3    0    0 -0.50874704108E+01  0.93260893607E+01  0.16082732086E+02  0.19274661334E+02  0.51100000000E-03 0. -1.
        -11    1    3    3    0    0  0.16824453601E+02 -0.88310250602E+00  0.51026026964E+00  0.16855339653E+02  0.51100000000E-03 0.  1.
         12    1    3    3    0    0 -0.19301506996E+02  0.15461136116E+01  0.12727930751E+02  0.23171941240E+02  0.00000000000E+00 0. -1.
</event>
<event>
 7    1  0.5832130E-012  0.5930198E+02  0.7816164E-02  0.1266605E+00
        -11   -1    0    0    0    0  0.00000000000E+00  0.00000000000E+00  0.45593999997E+02  0.45594000000E+02  0.51100000000E-03 0.  1.
         11   -1    0    0    0    0 -0.00000000000E+00 -0.00000000000E+00 -0.45593999997E+02  0.45594000000E+02  0.51100000000E-03 0. -1.
    9900012    2    1    2    0    0  0.61382601144E+01 -0.99881148890E+01  0.29652620522E+02  0.59301975160E+02  0.50000056778E+02 0.  0.
         12    1    1    2    0    0 -0.61382601144E+01  0.99881148890E+01 -0.29652620522E+02  0.31886024840E+02  0.00000000000E+00 0. -1.
         11    1    3    3    0    0  0.80471387393E+01  0.11551842704E+02  0.95595564329E+00  0.14110824327E+02  0.51100000000E-03 0. -1.
        -11    1    3    3    0    0  0.11889788609E+02 -0.56423577667E+01  0.67878448164E+01  0.14808042134E+02  0.51100000000E-03 0.  1.
        -12    1    3    3    0    0 -0.13798667234E+02 -0.15897599826E+02  0.21908820062E+02  0.30383108699E+02  0.00000000000E+00 0.  1.
</event>
<event>
 7    1  0.5832130E-012  0.5930199E+02  0.7816164E-02  0.1266605E+00
        -11   -1    0    0    0    0  0.00000000000E+00  0.00000000000E+00  0.45593999997E+02  0.45594000000E+02  0.51100000000E-03 0.  1.
         11   -1    0    0    0    0 -0.00000000000E+00 -0.00000000000E+00 -0.45593999997E+02  0.45594000000E+02  0.51100000000E-03 0. -1.
    9900012    2    1    2    0    0 -0.11005201923E+02  0.21579998467E+02  0.20734189514E+02  0.59301993383E+02  0.50000090012E+02 0.  0.
         12    1    1    2    0    0  0.11005201923E+02 -0.21579998467E+02 -0.20734189514E+02  0.31886006617E+02  0.00000000000E+00 0. -1.
         11    1    3    3    0    0 -0.16601951103E+01  0.24012923481E+02  0.11409427428E+02  0.26637413096E+02  0.51100000000E-03 0. -1.
        -11    1    3    3    0    0 -0.19968183997E+02 -0.44584109020E+01  0.54070426698E+01  0.21162275648E+02  0.51100000000E-03 0.  1.
         12    1    3    3    0    0  0.10623177185E+02  0.20254858871E+01  0.39177194160E+01  0.11502304639E+02  0.00000000000E+00 0. -1.
</event>
<event>
 7    1  0.5832130E-012  0.5930196E+02  0.7816164E-02  0.1266605E+00
        -11   -1    0    0    0    0  0.00000000000E+00  0.00000000000E+00  0.45593999997E+02  0.45594000000E+02  0.51100000000E-03 0.  1.
         11   -1    0    0    0    0 -0.00000000000E+00 -0.00000000000E+00 -0.45593999997E+02  0.45594000000E+02  0.51100000000E-03 0. -1.
    9900012    2    1    2    0    0  0.61973940780E+01 -0.19318351056E+02  0.24599051829E+02  0.59301957100E+02  0.50000023841E+02 0.  0.
         12    1    1    2    0    0 -0.61973940780E+01  0.19318351056E+02 -0.24599051829E+02  0.31886042900E+02  0.00000000000E+00 0. -1.
         11    1    3    3    0    0  0.80146203895E+01 -0.66372468438E+00  0.26950089006E+00  0.80465707873E+01  0.51100000000E-03 0. -1.
        -11    1    3    3    0    0  0.76102084588E+01  0.11348326390E+02  0.73489954586E+01  0.15514751663E+02  0.51100000000E-03 0.  1.
         12    1    3    3    0    0 -0.94274347703E+01 -0.30002952762E+02  0.16980555481E+02  0.35740634650E+02  0.00000000000E+00 0. -1.
</event>
<event>
 7    1  0.5832130E-012  0.5930228E+02  0.7816164E-02  0.1266604E+00
        -11   -1    0    0    0    0  0.00000000000E+00  0.00000000000E+00  0.45593999997E+02  0.45594000000E+02  0.51100000000E-03 0.  1.
         11   -1    0    0    0    0 -0.00000000000E+00 -0.00000000000E+00 -0.45593999997E+02  0.45594000000E+02  0.51100000000E-03 0. -1.
    9900012    2    1    2    0    0 -0.20399252348E+02  0.85131951590E+01  0.22980317404E+02  0.59302282568E+02  0.50000617413E+02 0.  0.
         12    1    1    2    0    0  0.20399252348E+02 -0.85131951590E+01 -0.22980317404E+02  0.31885717432E+02  0.00000000000E+00 0. -1.
         11    1    3    3    0    0 -0.11011395339E+02 -0.62330770950E+01  0.15397255419E+02  0.19929313889E+02  0.51100000000E-03 0. -1.
        -11    1    3    3    0    0 -0.16973001995E+02  0.17791300229E+02  0.14603322893E+02  0.28598430033E+02  0.51100000000E-03 0.  1.
         12    1    3    3    0    0  0.75851449864E+01 -0.30450279752E+01 -0.70202609076E+01  0.10774538647E+02  0.00000000000E+00 0. -1.
</event>
<event>
 7    1  0.5832130E-012  0.5930195E+02  0.7816164E-02  0.1266605E+00
        -11   -1    0    0    0    0  0.00000000000E+00  0.00000000000E+00  0.45593999997E+02  0.45594000000E+02  0.51100000000E-03 0. -1.
         11   -1    0    0    0    0 -0.00000000000E+00 -0.00000000000E+00 -0.45593999997E+02  0.45594000000E+02  0.51100000000E-03 0.  1.
    9900012    2    1    2    0    0 -0.25009987901E+02  0.12419732777E+02  0.15393854564E+02  0.59301952653E+02  0.50000015731E+02 0.  0.
         12    1    1    2    0    0  0.25009987901E+02 -0.12419732777E+02 -0.15393854564E+02  0.31886047347E+02  0.00000000000E+00 0. -1.
         11    1    3    3    0    0  0.70439801377E+01 -0.10326867538E-01  0.47154845089E+01  0.84766477595E+01  0.51100000000E-03 0. -1.
        -11    1    3    3    0    0 -0.25973984088E+02  0.12666532882E+01 -0.88970140603E+01  0.27484707010E+02  0.51100000000E-03 0.  1.
         12    1    3    3    0    0 -0.60799839506E+01  0.11163406356E+02  0.19575384116E+02  0.23340597884E+02  0.00000000000E+00 0. -1.
</event>
<event>
 7    1  0.5832130E-012  0.5930194E+02  0.7816164E-02  0.1266605E+00
        -11   -1    0    0    0    0  0.00000000000E+00  0.00000000000E+00  0.45593999997E+02  0.45594000000E+02  0.51100000000E-03 0. -1.
         11   -1    0    0    0    0 -0.00000000000E+00 -0.00000000000E+00 -0.45593999997E+02  0.45594000000E+02  0.51100000000E-03 0.  1.
    9900012    2    1    2    0    0 -0.25421177278E+02  0.10125171984E+02  0.16369657775E+02  0.59301936311E+02  0.49999985926E+02 0.  0.
         12    1    1    2    0    0  0.25421177278E+02 -0.10125171984E+02 -0.16369657775E+02  0.31886063689E+02  0.00000000000E+00 0. -1.
         11    1    3    3    0    0 -0.95498227277E+01  0.61653065484E+01  0.20160215108E+02  0.23143992577E+02  0.51100000000E-03 0. -1.
        -11    1    3    3    0    0 -0.64054623965E+01  0.17738965470E+02 -0.46285736824E+01  0.19419694618E+02  0.51100000000E-03 0.  1.
        -12    1    3    3    0    0 -0.94658921539E+01 -0.13779100035E+02  0.83801635001E+00  0.16738249115E+02  0.00000000000E+00 0.  1.
</event>
<event>
 7    1  0.5832130E-012  0.5930211E+02  0.7816164E-02  0.1266604E+00
        -11   -1    0    0    0    0  0.00000000000E+00  0.00000000000E+00  0.45593999997E+02  0.45594000000E+02  0.51100000000E-03 0. -1.
         11   -1    0    0    0    0 -0.00000000000E+00 -0.00000000000E+00 -0.45593999997E+02  0.45594000000E+02  0.51100000000E-03 0.  1.
    9900012    2    1    2    0    0  0.17767705744E+02  0.11926474565E+02 -0.23638480273E+02  0.59302111074E+02  0.50000304652E+02 0.  0.
         12    1    1    2    0    0 -0.17767705744E+02 -0.11926474565E+02  0.23638480273E+02  0.31885888926E+02  0.00000000000E+00 0. -1.
         11    1    3    3    0    0 -0.96583571410E+01  0.10198070456E+02 -0.25723783908E+02  0.29308660196E+02  0.51100000000E-03 0. -1.
        -11    1    3    3    0    0  0.18203543803E+01 -0.17021573222E+01 -0.27490080781E+01  0.37105357153E+01  0.51100000000E-03 0.  1.
         12    1    3    3    0    0  0.25605708504E+02  0.34305614319E+01  0.48343117125E+01  0.26282915163E+02  0.00000000000E+00 0. -1.
</event>
<event>
 7    1  0.5832130E-012  0.5930192E+02  0.7816164E-02  0.1266605E+00
        -11   -1    0    0    0    0  0.00000000000E+00  0.00000000000E+00  0.45593999997E+02  0.45594000000E+02  0.51100000000E-03 0.  1.
         11   -1    0    0    0    0 -0.00000000000E+00 -0.00000000000E+00 -0.45593999997E+02  0.45594000000E+02  0.51100000000E-03 0. -1.
    9900012    2    1    2    0    0 -0.31661919029E+02  0.34917145671E+01  0.14327958089E+01  0.59301920105E+02  0.49999956371E+02 0.  0.
         12    1    1    2    0    0  0.31661919029E+02 -0.34917145671E+01 -0.14327958089E+01  0.31886079895E+02  0.00000000000E+00 0. -1.
         11    1    3    3    0    0 -0.24357866637E+00  0.14949510513E+02 -0.18214036301E+01  0.15062028634E+02  0.51100000000E-03 0. -1.
        -11    1    3    3    0    0  0.44546261868E+01 -0.22311320223E+01 -0.41289559072E+01  0.64706971580E+01  0.51100000000E-03 0.  1.
        -12    1    3    3    0    0 -0.35872966549E+02 -0.92266639232E+01  0.73831553463E+01  0.37769194313E+02  0.00000000000E+00 0.  1.
</event>
<event>
 7    1  0.5832130E-012  0.5930194E+02  0.7816164E-02  0.1266605E+00
        -11   -1    0    0    0    0  0.00000000000E+00  0.00000000000E+00  0.45593999997E+02  0.45594000000E+02  0.51100000000E-03 0.  1.
         11   -1    0    0    0    0 -0.00000000000E+00 -0.00000000000E+00 -0.45593999997E+02  0.45594000000E+02  0.51100000000E-03 0. -1.
    9900012    2    1    2    0    0  0.28775485361E+02  0.64785565959E+01  0.12112830184E+02  0.59301938650E+02  0.49999990192E+02 0.  0.
         12    1    1    2    0    0 -0.28775485361E+02 -0.64785565959E+01 -0.12112830184E+02  0.31886061350E+02  0.00000000000E+00 0. -1.
         11    1    3    3    0    0 -0.56947828179E+01  0.10677240678E+01  0.14320113884E+02  0.15447855772E+02  0.51100000000E-03 0. -1.
        -11    1    3    3    0    0  0.63860565469E+01 -0.44527313746E+01  0.91331973369E+01  0.12000992824E+02  0.51100000000E-03 0.  1.
        -12    1    3    3    0    0  0.28084211632E+02  0.98635639027E+01 -0.11340481036E+02  0.31853090054E+02  0.00000000000E+00 0.  1.
</event>
<event>
 7    1  0.5832130E-012  0.5930199E+02  0.7816164E-02  0.1266605E+00
        -11   -1    0    0    0    0  0.00000000000E+00  0.00000000000E+00  0.45593999997E+02  0.45594000000E+02  0.51100000000E-03 0.  1.
         11   -1    0    0    0    0 -0.00000000000E+00 -0.00000000000E+00 -0.45593999997E+02  0.45594000000E+02  0.51100000000E-03 0. -1.
    9900012    2    1    2    0    0 -0.24364459392E+02  0.10730089504E+02  0.17548666841E+02  0.59301993506E+02  0.50000090236E+02 0.  0.
         12    1    1    2    0    0  0.24364459392E+02 -0.10730089504E+02 -0.17548666841E+02  0.31886006494E+02  0.00000000000E+00 0. -1.
         11    1    3    3    0    0 -0.47235175922E+01  0.99609251525E+00 -0.49031985893E+01  0.68807830521E+01  0.51100000000E-03 0. -1.
        -11    1    3    3    0    0 -0.12560996664E+02  0.23912323184E+02  0.27703408175E+01  0.27152396316E+02  0.51100000000E-03 0.  1.
         12    1    3    3    0    0 -0.70799451364E+01 -0.14178326195E+02  0.19681524613E+02  0.25268814137E+02  0.00000000000E+00 0. -1.
</event>
<event>
 7    1  0.5832130E-012  0.5930193E+02  0.7816164E-02  0.1266605E+00
        -11   -1    0    0    0    0  0.00000000000E+00  0.00000000000E+00  0.45593999997E+02  0.45594000000E+02  0.51100000000E-03 0.  1.
         11   -1    0    0    0    0 -0.00000000000E+00 -0.00000000000E+00 -0.45593999997E+02  0.45594000000E+02  0.51100000000E-03 0. -1.
    9900012    2    1    2    0    0 -0.14186991854E+02  0.28248106891E+02 -0.41827427895E+01  0.59301927522E+02  0.49999969898E+02 0.  0.
         12    1    1    2    0    0  0.14186991854E+02 -0.28248106891E+02  0.41827427895E+01  0.31886072478E+02  0.00000000000E+00 0. -1.
         11    1    3    3    0    0 -0.12914130395E+02  0.43720588494E+01 -0.14589855584E+02  0.19968814403E+02  0.51100000000E-03 0. -1.
        -11    1    3    3    0    0  0.90770814780E+01  0.64410201212E+01 -0.65384871595E+01  0.12908600348E+02  0.51100000000E-03 0.  1.
        -12    1    3    3    0    0 -0.10349942938E+02  0.17435027920E+02  0.16945599954E+02  0.26424512771E+02  0.00000000000E+00 0.  1.
</event>
<event>
 7    1  0.5832130E-012  0.5930193E+02  0.7816164E-02  0.1266605E+00
        -11   -1    0    0    0    0  0.00000000000E+00  0.00000000000E+00  0.45593999997E+02  0.45594000000E+02  0.51100000000E-03 0.  1.
         11   -1    0    0    0    0 -0.00000000000E+00 -0.00000000000E+00 -0.45593999997E+02  0.45594000000E+02  0.51100000000E-03 0. -1.
    9900012    2    1    2    0    0  0.96599916486E+01 -0.76346859253E+01  0.29412886251E+02  0.59301925525E+02  0.49999966255E+02 0.  0.
         12    1    1    2    0    0 -0.96599916486E+01  0.76346859253E+01 -0.29412886251E+02  0.31886074475E+02  0.00000000000E+00 0. -1.
         11    1    3    3    0    0 -0.41021660776E+01  0.33323699839E+01 -0.76292941433E+01  0.92810875237E+01  0.51100000000E-03 0. -1.
        -11    1    3    3    0    0 -0.37064668483E+01 -0.13955851551E+01  0.27767382103E+02  0.28048405721E+02  0.51100000000E-03 0.  1.
         12    1    3    3    0    0  0.17468624574E+02 -0.95714707541E+01  0.92747982919E+01  0.21972432279E+02  0.00000000000E+00 0. -1.
</event>
<event>
 7    1  0.5857709E-012  0.5930196E+02  0.7816164E-02  0.1266605E+00
        -11   -1    0    0    0    0  0.00000000000E+00  0.00000000000E+00  0.45593999997E+02  0.45594000000E+02  0.51100000000E-03 0. -1.
         11   -1    0    0    0    0 -0.00000000000E+00 -0.00000000000E+00 -0.45593999997E+02  0.45594000000E+02  0.51100000000E-03 0.  1.
    9900012    2    1    2    0    0  0.29787281858E+02 -0.15000507267E+01 -0.11277726923E+02  0.59301961720E+02  0.50000032267E+02 0.  0.
         12    1    1    2    0    0 -0.29787281858E+02  0.15000507267E+01  0.11277726923E+02  0.31886038280E+02  0.00000000000E+00 0. -1.
         11    1    3    3    0    0 -0.10068349029E+01  0.10760184807E+02  0.88047325457E+00  0.10842994375E+02  0.51100000000E-03 0. -1.
        -11    1    3    3    0    0  0.22849073475E+02  0.12959044116E+01 -0.20450990167E+02  0.30692059657E+02  0.51100000000E-03 0.  1.
         12    1    3    3    0    0  0.79450432852E+01 -0.13556139945E+02  0.82927899893E+01  0.17766907689E+02  0.00000000000E+00 0. -1.
</event>
<event>
 7    1  0.5832130E-012  0.5930194E+02  0.7816164E-02  0.1266605E+00
        -11   -1    0    0    0    0  0.00000000000E+00  0.00000000000E+00  0.45593999997E+02  0.45594000000E+02  0.51100000000E-03 0. -1.
         11   -1    0    0    0    0 -0.00000000000E+00 -0.00000000000E+00 -0.45593999997E+02  0.45594000000E+02  0.51100000000E-03 0.  1.
    9900012    2    1    2    0    0 -0.18958714764E+02  0.16769289358E+02 -0.19392749765E+02  0.59301942318E+02  0.49999996882E+02 0.  0.
         12    1    1    2    0    0  0.18958714764E+02 -0.16769289358E+02  0.19392749765E+02  0.31886057682E+02  0.00000000000E+00 0. -1.
         11    1    3    3    0    0  0.80253495253E+00 -0.27241899064E+01 -0.73283207255E+01  0.78593611644E+01  0.51100000000E-03 0. -1.
        -11    1    3    3    0    0  0.13044688482E+02  0.74763188870E+01 -0.45150313775E+01  0.15698558860E+02  0.51100000000E-03 0.  1.
         12    1    3    3    0    0 -0.32805938199E+02  0.12017160377E+02 -0.75493976616E+01  0.35744022293E+02  0.00000000000E+00 0. -1.
</event>
<event>
 7    1  0.5832130E-012  0.5930194E+02  0.7816164E-02  0.1266605E+00
        -11   -1    0    0    0    0  0.00000000000E+00  0.00000000000E+00  0.45593999997E+02  0.45594000000E+02  0.51100000000E-03 0.  1.
         11   -1    0    0    0    0 -0.00000000000E+00 -0.00000000000E+00 -0.45593999997E+02  0.45594000000E+02  0.51100000000E-03 0. -1.
    9900012    2    1    2    0    0  0.22915978734E+02  0.99713703720E+01  0.19802784842E+02  0.59301943550E+02  0.49999999128E+02 0.  0.
         12    1    1    2    0    0 -0.22915978734E+02 -0.99713703720E+01 -0.19802784842E+02  0.31886056450E+02  0.00000000000E+00 0. -1.
         11    1    3    3    0    0  0.14838250992E+02 -0.28830262601E+01  0.52792806734E+01  0.16011131678E+02  0.51100000000E-03 0. -1.
        -11    1    3    3    0    0  0.21875768149E+02  0.74370278310E+01  0.16421317716E+02  0.28346398199E+02  0.51100000000E-03 0.  1.
         12    1    3    3    0    0 -0.13798040406E+02  0.54173688011E+01 -0.18978135474E+01  0.14944413673E+02  0.00000000000E+00 0. -1.
</event>
<event>
 7    1  0.5832130E-012  0.5930179E+02  0.7816164E-02  0.1266605E+00
        -11   -1    0    0    0    0  0.00000000000E+00  0.00000000000E+00  0.45593999997E+02  0.45594000000E+02  0.51100000000E-03 0.  1.
         11   -1    0    0    0    0 -0.00000000000E+00 -0.00000000000E+00 -0.45593999997E+02  0.45594000000E+02  0.51100000000E-03 0. -1.
    9900012    2    1    2    0    0  0.25565958410E+02 -0.46656589819E+01  0.18475494399E+02  0.59301788302E+02  0.49999715993E+02 0.  0.
         12    1    1    2    0    0 -0.25565958410E+02  0.46656589819E+01 -0.18475494399E+02  0.31886211698E+02  0.00000000000E+00 0. -1.
         11    1    3    3    0    0 -0.86452774349E+01  0.76163971164E+01  0.68549108340E+01  0.13406719575E+02  0.51100000000E-03 0. -1.
        -11    1    3    3    0    0  0.24190404661E+01  0.60137433373E+01 -0.19742507269E+01  0.67760262615E+01  0.51100000000E-03 0.  1.
         12    1    3    3    0    0  0.31792195379E+02 -0.18295799436E+02  0.13594834292E+02  0.39119042466E+02  0.00000000000E+00 0. -1.
</event>
<event>
 7    1  0.5832130E-012  0.5930235E+02  0.7816164E-02  0.1266603E+00
        -11   -1    0    0    0    0  0.00000000000E+00  0.00000000000E+00  0.45593999997E+02  0.45594000000E+02  0.51100000000E-03 0.  1.
         11   -1    0    0    0    0 -0.00000000000E+00 -0.00000000000E+00 -0.45593999997E+02  0.45594000000E+02  0.51100000000E-03 0. -1.
    9900012    2    1    2    0    0  0.47437629867E+01 -0.59760458718E+00  0.31525135301E+02  0.59302351594E+02  0.50000743297E+02 0.  0.
         12    1    1    2    0    0 -0.47437629867E+01  0.59760458718E+00 -0.31525135301E+02  0.31885648406E+02  0.00000000000E+00 0. -1.
         11    1    3    3    0    0  0.19587281351E+02 -0.40547713345E+01  0.61025833194E+00  0.20011875894E+02  0.51100000000E-03 0. -1.
        -11    1    3    3    0    0 -0.42346990355E+01 -0.13360310199E+01 -0.16268901457E+01  0.47291042084E+01  0.51100000000E-03 0.  1.
        -12    1    3    3    0    0 -0.10608819329E+02  0.47931977672E+01  0.32541767115E+02  0.34561371491E+02  0.00000000000E+00 0.  1.
</event>
<event>
 7    1  0.5832130E-012  0.5930198E+02  0.7816164E-02  0.1266605E+00
        -11   -1    0    0    0    0  0.00000000000E+00  0.00000000000E+00  0.45593999997E+02  0.45594000000E+02  0.51100000000E-03 0.  1.
         11   -1    0    0    0    0 -0.00000000000E+00 -0.00000000000E+00 -0.45593999997E+02  0.45594000000E+02  0.51100000000E-03 0. -1.
    9900012    2    1    2    0    0  0.24553229771E+02 -0.13108507099E+02  0.15557125530E+02  0.59301981037E+02  0.50000067496E+02 0.  0.
         12    1    1    2    0    0 -0.24553229771E+02  0.13108507099E+02 -0.15557125530E+02  0.31886018963E+02  0.00000000000E+00 0. -1.
         11    1    3    3    0    0 -0.87589149824E+01 -0.34361290435E+01 -0.64700846804E+01  0.11418737693E+02  0.51100000000E-03 0. -1.
        -11    1    3    3    0    0  0.21503055013E+02 -0.75537969498E+01 -0.10594993899E-01  0.22791255686E+02  0.51100000000E-03 0.  1.
        -12    1    3    3    0    0  0.11809089740E+02 -0.21185811058E+01  0.22037805204E+02  0.25091987658E+02  0.00000000000E+00 0.  1.
</event>
<event>
 7    1  0.5832130E-012  0.5930195E+02  0.7816164E-02  0.1266605E+00
        -11   -1    0    0    0    0  0.00000000000E+00  0.00000000000E+00  0.45593999997E+02  0.45594000000E+02  0.51100000000E-03 0. -1.
         11   -1    0    0    0    0 -0.00000000000E+00 -0.00000000000E+00 -0.45593999997E+02  0.45594000000E+02  0.51100000000E-03 0.  1.
    9900012    2    1    2    0    0  0.27416516517E+02 -0.10762288720E+02  0.12215900480E+02  0.59301945667E+02  0.50000002989E+02 0.  0.
         12    1    1    2    0    0 -0.27416516517E+02  0.10762288720E+02 -0.12215900480E+02  0.31886054333E+02  0.00000000000E+00 0. -1.
         11    1    3    3    0    0  0.26807515551E+01 -0.13899484744E+02  0.77716168813E+01  0.16148688314E+02  0.51100000000E-03 0. -1.
        -11    1    3    3    0    0 -0.66057602588E+00 -0.12176779978E+02 -0.30385894668E+01  0.12567551772E+02  0.51100000000E-03 0.  1.
        -12    1    3    3    0    0  0.25396340987E+02  0.15313976003E+02  0.74828730656E+01  0.30585705581E+02  0.00000000000E+00 0.  1.
</event>
<event>
 7    1  0.5832130E-012  0.5930193E+02  0.7816164E-02  0.1266605E+00
        -11   -1    0    0    0    0  0.00000000000E+00  0.00000000000E+00  0.45593999997E+02  0.45594000000E+02  0.51100000000E-03 0. -1.
         11   -1    0    0    0    0 -0.00000000000E+00 -0.00000000000E+00 -0.45593999997E+02  0.45594000000E+02  0.51100000000E-03 0.  1.
    9900012    2    1    2    0    0  0.22450530926E+02 -0.21905712782E+02 -0.57301580505E+01  0.59301932468E+02  0.49999978919E+02 0.  0.
         12    1    1    2    0    0 -0.22450530926E+02  0.21905712782E+02  0.57301580505E+01  0.31886067532E+02  0.00000000000E+00 0. -1.
         11    1    3    3    0    0  0.55771428089E+01 -0.14754977764E+00  0.87662027144E+01  0.10390986630E+02  0.51100000000E-03 0. -1.
        -11    1    3    3    0    0  0.10831337564E+01 -0.17908881884E+02  0.92106641589E+01  0.20167735708E+02  0.51100000000E-03 0.  1.
         12    1    3    3    0    0  0.15790254360E+02 -0.38492811209E+01 -0.23707024924E+02  0.28743210131E+02  0.00000000000E+00 0. -1.
</event>
<event>
 7    1  0.5832130E-012  0.5930196E+02  0.7816164E-02  0.1266605E+00
        -11   -1    0    0    0    0  0.00000000000E+00  0.00000000000E+00  0.45593999997E+02  0.45594000000E+02  0.51100000000E-03 0.  1.
         11   -1    0    0    0    0 -0.00000000000E+00 -0.00000000000E+00 -0.45593999997E+02  0.45594000000E+02  0.51100000000E-03 0. -1.
    9900012    2    1    2    0    0 -0.56293287198E+01 -0.41525481298E+01  0.31109268584E+02  0.59301959329E+02  0.50000027906E+02 0.  0.
         12    1    1    2    0    0  0.56293287198E+01  0.41525481298E+01 -0.31109268584E+02  0.31886040671E+02  0.00000000000E+00 0. -1.
         11    1    3    3    0    0 -0.65363807609E+01 -0.13973140694E+01  0.19010537744E+02  0.20151359895E+02  0.51100000000E-03 0. -1.
        -11    1    3    3    0    0 -0.12022966048E+02 -0.13313570953E+02  0.13423031421E+02  0.22404924836E+02  0.51100000000E-03 0.  1.
         12    1    3    3    0    0  0.12930018089E+02  0.10558336892E+02 -0.13243005801E+01  0.16745674598E+02  0.00000000000E+00 0. -1.
</event>
<event>
 7    1  0.5832130E-012  0.5930194E+02  0.7816164E-02  0.1266605E+00
        -11   -1    0    0    0    0  0.00000000000E+00  0.00000000000E+00  0.45593999997E+02  0.45594000000E+02  0.51100000000E-03 0. -1.
         11   -1    0    0    0    0 -0.00000000000E+00 -0.00000000000E+00 -0.45593999997E+02  0.45594000000E+02  0.51100000000E-03 0.  1.
    9900012    2    1    2    0    0 -0.23444343793E+01  0.30591213369E+02 -0.86834301339E+01  0.59301942438E+02  0.49999997101E+02 0.  0.
         12    1    1    2    0    0  0.23444343793E+01 -0.30591213369E+02  0.86834301339E+01  0.31886057562E+02  0.00000000000E+00 0. -1.
         11    1    3    3    0    0  0.92796716269E+01  0.31933186355E+01  0.10621596573E+01  0.98710573299E+01  0.51100000000E-03 0. -1.
        -11    1    3    3    0    0 -0.67216555947E+01  0.61004404249E+00  0.12540578825E+02  0.14241450951E+02  0.51100000000E-03 0.  1.
        -12    1    3    3    0    0 -0.49024504116E+01  0.26787850691E+02 -0.22286168616E+02  0.35189434157E+02  0.00000000000E+00 0.  1.
</event>
<event>
 7    1  0.5832130E-012  0.5930193E+02  0.7816164E-02  0.1266605E+00
        -11   -1    0    0    0    0  0.00000000000E+00  0.00000000000E+00  0.45593999997E+02  0.45594000000E+02  0.51100000000E-03 0.  1.
         11   -1    0    0    0    0 -0.00000000000E+00 -0.00000000000E+00 -0.45593999997E+02  0.45594000000E+02  0.51100000000E-03 0. -1.
    9900012    2    1    2    0    0 -0.25933121252E+02 -0.35524086848E+01  0.18209200676E+02  0.59301931340E+02  0.49999976860E+02 0.  0.
         12    1    1    2    0    0  0.25933121252E+02  0.35524086848E+01 -0.18209200676E+02  0.31886068660E+02  0.00000000000E+00 0. -1.
         11    1    3    3    0    0 -0.30280197743E+02 -0.38049352050E+01  0.17770802469E+02  0.35315284622E+02  0.51100000000E-03 0. -1.
        -11    1    3    3    0    0 -0.22323533978E+01 -0.21935052003E+01  0.10926753279E+02  0.11366125296E+02  0.51100000000E-03 0.  1.
        -12    1    3    3    0    0  0.65794298884E+01  0.24460317206E+01 -0.10488355072E+02  0.12620521422E+02  0.00000000000E+00 0.  1.
</event>
<event>
 7    1  0.5832130E-012  0.5930197E+02  0.7816164E-02  0.1266605E+00
        -11   -1    0    0    0    0  0.00000000000E+00  0.00000000000E+00  0.45593999997E+02  0.45594000000E+02  0.51100000000E-03 0. -1.
         11   -1    0    0    0    0 -0.00000000000E+00 -0.00000000000E+00 -0.45593999997E+02  0.45594000000E+02  0.51100000000E-03 0.  1.
    9900012    2    1    2    0    0  0.50045609525E+01 -0.13652445178E+02 -0.28377521466E+02  0.59301974625E+02  0.50000055802E+02 0.  0.
         12    1    1    2    0    0 -0.50045609525E+01  0.13652445178E+02  0.28377521466E+02  0.31886025375E+02  0.00000000000E+00 0. -1.
         11    1    3    3    0    0 -0.98206756776E+01  0.28660763373E+01 -0.56790992221E+01  0.11700950071E+02  0.51100000000E-03 0. -1.
        -11    1    3    3    0    0  0.13228679673E+02 -0.26558075786E+02 -0.22825726728E+02  0.37434518245E+02  0.51100000000E-03 0.  1.
         12    1    3    3    0    0  0.15965569573E+01  0.10039554271E+02  0.12730448394E+00  0.10166506308E+02  0.00000000000E+00 0. -1.
</event>
<event>
 7    1  0.5832130E-012  0.5930195E+02  0.7816164E-02  0.1266605E+00
        -11   -1    0    0    0    0  0.00000000000E+00  0.00000000000E+00  0.45593999997E+02  0.45594000000E+02  0.51100000000E-03 0.  1.
         11   -1    0    0    0    0 -0.00000000000E+00 -0.00000000000E+00 -0.45593999997E+02  0.45594000000E+02  0.51100000000E-03 0. -1.
    9900012    2    1    2    0    0  0.21424012903E+02  0.34507285225E+01  0.23362882047E+02  0.59301951111E+02  0.50000012918E+02 0.  0.
         12    1    1    2    0    0 -0.21424012903E+02 -0.34507285225E+01 -0.23362882047E+02  0.31886048889E+02  0.00000000000E+00 0. -1.
         11    1    3    3    0    0  0.14289271149E+01  0.15748653864E+02  0.23523970730E+02  0.28345001860E+02  0.51100000000E-03 0. -1.
        -11    1    3    3    0    0 -0.40703584440E+01 -0.16386582000E+01 -0.14045735851E+01  0.46071515903E+01  0.51100000000E-03 0.  1.
         12    1    3    3    0    0  0.24065444232E+02 -0.10659267142E+02  0.12434849017E+01  0.26349797661E+02  0.00000000000E+00 0. -1.
</event>
<event>
 7    1  0.5832130E-012  0.5930189E+02  0.7816164E-02  0.1266605E+00
        -11   -1    0    0    0    0  0.00000000000E+00  0.00000000000E+00  0.45593999997E+02  0.45594000000E+02  0.51100000000E-03 0.  1.
         11   -1    0    0    0    0 -0.00000000000E+00 -0.00000000000E+00 -0.45593999997E+02  0.45594000000E+02  0.51100000000E-03 0. -1.
    9900012    2    1    2    0    0  0.93768735436E+01  0.30202728460E+02 -0.40735379982E+01  0.59301885848E+02  0.49999893894E+02 0.  0.
         12    1    1    2    0    0 -0.93768735436E+01 -0.30202728460E+02  0.40735379982E+01  0.31886114152E+02  0.00000000000E+00 0. -1.
         11    1    3    3    0    0 -0.33994209807E+01 -0.80868772044E+01 -0.50458533554E+01  0.10119994183E+02  0.51100000000E-03 0. -1.
        -11    1    3    3    0    0 -0.58588893935E+01  0.25965602712E+02 -0.17451416685E+01  0.26675543646E+02  0.51100000000E-03 0.  1.
        -12    1    3    3    0    0  0.18635183918E+02  0.12324002953E+02  0.27174570257E+01  0.22506348018E+02  0.00000000000E+00 0.  1.
</event>
<event>
 7    1  0.7293492E-012  0.5930191E+02  0.7816164E-02  0.1266605E+00
        -11   -1    0    0    0    0  0.00000000000E+00  0.00000000000E+00  0.45593999997E+02  0.45594000000E+02  0.51100000000E-03 0. -1.
         11   -1    0    0    0    0 -0.00000000000E+00 -0.00000000000E+00 -0.45593999997E+02  0.45594000000E+02  0.51100000000E-03 0.  1.
    9900012    2    1    2    0    0  0.22123437993E+02  0.83085561816E+01 -0.21406644260E+02  0.59301905336E+02  0.49999929435E+02 0.  0.
         12    1    1    2    0    0 -0.22123437993E+02 -0.83085561816E+01  0.21406644260E+02  0.31886094664E+02  0.00000000000E+00 0. -1.
         11    1    3    3    0    0  0.11865363674E+02 -0.84023307252E+01  0.43415151582E+00  0.14545600866E+02  0.51100000000E-03 0. -1.
        -11    1    3    3    0    0  0.22563676416E+02  0.10794034943E+02 -0.17114033779E+02  0.30307108675E+02  0.51100000000E-03 0.  1.
         12    1    3    3    0    0 -0.12305602098E+02  0.59168519641E+01 -0.47267619969E+01  0.14449195795E+02  0.00000000000E+00 0. -1.
</event>
<event>
 7    1  0.5832130E-012  0.5930188E+02  0.7816164E-02  0.1266605E+00
        -11   -1    0    0    0    0  0.00000000000E+00  0.00000000000E+00  0.45593999997E+02  0.45594000000E+02  0.51100000000E-03 0.  1.
         11   -1    0    0    0    0 -0.00000000000E+00 -0.00000000000E+00 -0.45593999997E+02  0.45594000000E+02  0.51100000000E-03 0. -1.
    9900012    2    1    2    0    0 -0.12996142798E+02  0.15577571640E+02  0.24600083541E+02  0.59301881138E+02  0.49999885305E+02 0.  0.
         12    1    1    2    0    0  0.12996142798E+02 -0.15577571640E+02 -0.24600083541E+02  0.31886118862E+02  0.00000000000E+00 0. -1.
         11    1    3    3    0    0  0.48672154115E+01 -0.49131994962E+01  0.22951867954E+02  0.23971181823E+02  0.51100000000E-03 0. -1.
        -11    1    3    3    0    0 -0.43936855252E+01  0.73518301204E+01  0.11303278553E+02  0.14181607276E+02  0.51100000000E-03 0.  1.
         12    1    3    3    0    0 -0.13469672684E+02  0.13138941016E+02 -0.96550629655E+01  0.21149092040E+02  0.00000000000E+00 0. -1.
</event>
<event>
 7    1  0.5832130E-012  0.5930192E+02  0.7816164E-02  0.1266605E+00
        -11   -1    0    0    0    0  0.00000000000E+00  0.00000000000E+00  0.45593999997E+02  0.45594000000E+02  0.51100000000E-03 0.  1.
         11   -1    0    0    0    0 -0.00000000000E+00 -0.00000000000E+00 -0.45593999997E+02  0.45594000000E+02  0.51100000000E-03 0. -1.
    9900012    2    1    2    0    0 -0.70822980030E+00 -0.31363970901E+02 -0.57027795896E+01  0.59301922235E+02  0.49999960256E+02 0.  0.
         12    1    1    2    0    0  0.70822980030E+00  0.31363970901E+02  0.57027795896E+01  0.31886077765E+02  0.00000000000E+00 0. -1.
         11    1    3    3    0    0 -0.57536932214E+01  0.77139048564E+01  0.22471649989E+01  0.98822600964E+01  0.51100000000E-03 0. -1.
        -11    1    3    3    0    0  0.95613167256E+01 -0.50019189488E+01  0.59725741150E+01  0.12333272579E+02  0.51100000000E-03 0.  1.
         12    1    3    3    0    0 -0.45158533045E+01 -0.34075956809E+02 -0.13922518703E+02  0.37086389560E+02  0.00000000000E+00 0. -1.
</event>
<event>
 7    1  0.5832130E-012  0.5930194E+02  0.7816164E-02  0.1266605E+00
        -11   -1    0    0    0    0  0.00000000000E+00  0.00000000000E+00  0.45593999997E+02  0.45594000000E+02  0.51100000000E-03 0.  1.
         11   -1    0    0    0    0 -0.00000000000E+00 -0.00000000000E+00 -0.45593999997E+02  0.45594000000E+02  0.51100000000E-03 0. -1.
    9900012    2    1    2    0    0  0.29378409773E+02  0.24101319765E+01  0.12158177438E+02  0.59301937597E+02  0.49999988272E+02 0.  0.
         12    1    1    2    0    0 -0.29378409773E+02 -0.24101319765E+01 -0.12158177438E+02  0.31886062403E+02  0.00000000000E+00 0. -1.
         11    1    3    3    0    0  0.79917864073E+01  0.28051775360E+01 -0.17139196256E+02  0.19117785425E+02  0.51100000000E-03 0. -1.
        -11    1    3    3    0    0  0.78848816010E+01 -0.26074394040E+00 -0.39345073445E-01  0.78892898007E+01  0.51100000000E-03 0.  1.
         12    1    3    3    0    0  0.13501741765E+02 -0.13430161912E+00  0.29336718767E+02  0.32294862372E+02  0.00000000000E+00 0. -1.
</event>
<event>
 7    1  0.5832130E-012  0.5930193E+02  0.7816164E-02  0.1266605E+00
        -11   -1    0    0    0    0  0.00000000000E+00  0.00000000000E+00  0.45593999997E+02  0.45594000000E+02  0.51100000000E-03 0.  1.
         11   -1    0    0    0    0 -0.00000000000E+00 -0.00000000000E+00 -0.45593999997E+02  0.45594000000E+02  0.51100000000E-03 0. -1.
    9900012    2    1    2    0    0  0.31708491648E+02  0.17210929827E+01  0.28863297585E+01  0.59301929325E+02  0.49999973186E+02 0.  0.
         12    1    1    2    0    0 -0.31708491648E+02 -0.17210929827E+01 -0.28863297585E+01  0.31886070675E+02  0.00000000000E+00 0. -1.
         11    1    3    3    0    0  0.16574057924E+02  0.76982335511E+01 -0.82763125002E+01  0.20061394387E+02  0.51100000000E-03 0. -1.
        -11    1    3    3    0    0  0.12999121964E+02  0.13048036818E+02  0.43984469318E+01  0.18936070667E+02  0.51100000000E-03 0.  1.
        -12    1    3    3    0    0  0.21353117595E+01 -0.19025177387E+02  0.67641953269E+01  0.20304464271E+02  0.00000000000E+00 0.  1.
</event>
<event>
 7    1  0.5832130E-012  0.5930196E+02  0.7816164E-02  0.1266605E+00
        -11   -1    0    0    0    0  0.00000000000E+00  0.00000000000E+00  0.45593999997E+02  0.45594000000E+02  0.51100000000E-03 0.  1.
         11   -1    0    0    0    0 -0.00000000000E+00 -0.00000000000E+00 -0.45593999997E+02  0.45594000000E+02  0.51100000000E-03 0. -1.
    9900012    2    1    2    0    0  0.65333588546E+01  0.29799958722E+02  0.92734661701E+01  0.59301960852E+02  0.50000030683E+02 0.  0.
         12    1    1    2    0    0 -0.65333588546E+01 -0.29799958722E+02 -0.92734661701E+01  0.31886039148E+02  0.00000000000E+00 0. -1.
         11    1    3    3    0    0  0.67492476477E+01  0.22746278267E+02 -0.54293003023E+01  0.24339737485E+02  0.51100000000E-03 0. -1.
        -11    1    3    3    0    0  0.13773724119E+02  0.11486733528E+01 -0.60785298764E-02  0.13821539849E+02  0.51100000000E-03 0.  1.
        -12    1    3    3    0    0 -0.13989612912E+02  0.59050071017E+01  0.14708845002E+02  0.21140683518E+02  0.00000000000E+00 0.  1.
</event>
<event>
 7    1  0.5832130E-012  0.5930192E+02  0.7816164E-02  0.1266605E+00
        -11   -1    0    0    0    0  0.00000000000E+00  0.00000000000E+00  0.45593999997E+02  0.45594000000E+02  0.51100000000E-03 0.  1.
         11   -1    0    0    0    0 -0.00000000000E+00 -0.00000000000E+00 -0.45593999997E+02  0.45594000000E+02  0.51100000000E-03 0. -1.
    9900012    2    1    2    0    0  0.12687815538E+02  0.17091680682E+02  0.23740590641E+02  0.59301923796E+02  0.49999963103E+02 0.  0.
         12    1    1    2    0    0 -0.12687815538E+02 -0.17091680682E+02 -0.23740590641E+02  0.31886076204E+02  0.00000000000E+00 0. -1.
         11    1    3    3    0    0 -0.18529134475E+02  0.42269191341E+01  0.92536038730E+01  0.21138232061E+02  0.51100000000E-03 0. -1.
        -11    1    3    3    0    0  0.11339403738E+02  0.10192709977E+02  0.65316924590E+01  0.16587236673E+02  0.51100000000E-03 0.  1.
        -12    1    3    3    0    0  0.19877546276E+02  0.26720515716E+01  0.79552943091E+01  0.21576455063E+02  0.00000000000E+00 0.  1.
</event>
<event>
 7    1  0.5832130E-012  0.5930187E+02  0.7816164E-02  0.1266605E+00
        -11   -1    0    0    0    0  0.00000000000E+00  0.00000000000E+00  0.45593999997E+02  0.45594000000E+02  0.51100000000E-03 0.  1.
         11   -1    0    0    0    0 -0.00000000000E+00 -0.00000000000E+00 -0.45593999997E+02  0.45594000000E+02  0.51100000000E-03 0. -1.
    9900012    2    1    2    0    0  0.11079534459E+02  0.22272317895E+02  0.19947758056E+02  0.59301870105E+02  0.49999865182E+02 0.  0.
         12    1    1    2    0    0 -0.11079534459E+02 -0.22272317895E+02 -0.19947758056E+02  0.31886129895E+02  0.00000000000E+00 0. -1.
         11    1    3    3    0    0 -0.24179814004E+01  0.38840710898E+01 -0.69697976086E+01  0.83373089932E+01  0.51100000000E-03 0. -1.
        -11    1    3    3    0    0  0.94755351077E+01  0.68120042724E+01 -0.78738470799E+01  0.14077877535E+02  0.51100000000E-03 0.  1.
        -12    1    3    3    0    0  0.40219807519E+01  0.11576242532E+02  0.34791402745E+02  0.36886683577E+02  0.00000000000E+00 0.  1.
</event>
<event>
 7    1  0.5832130E-012  0.5930194E+02  0.7816164E-02  0.1266605E+00
        -11   -1    0    0    0    0  0.00000000000E+00  0.00000000000E+00  0.45593999997E+02  0.45594000000E+02  0.51100000000E-03 0. -1.
         11   -1    0    0    0    0 -0.00000000000E+00 -0.00000000000E+00 -0.45593999997E+02  0.45594000000E+02  0.51100000000E-03 0.  1.
    9900012    2    1    2    0    0  0.18699697009E+02  0.13191852749E+02 -0.22203985201E+02  0.59301943393E+02  0.49999998842E+02 0.  0.
         12    1    1    2    0    0 -0.18699697009E+02 -0.13191852749E+02  0.22203985201E+02  0.31886056607E+02  0.00000000000E+00 0. -1.
         11    1    3    3    0    0  0.38115612878E+01  0.84500230769E+01  0.47906096864E+01  0.10434597782E+02  0.51100000000E-03 0. -1.
        -11    1    3    3    0    0  0.61389742130E+00 -0.48470998301E+01  0.82859635960E+01  0.96191704311E+01  0.51100000000E-03 0.  1.
        -12    1    3    3    0    0  0.14274238300E+02  0.95889295017E+01 -0.35280558483E+02  0.39248175179E+02  0.00000000000E+00 0.  1.
</event>
<event>
 7    1  0.5832130E-012  0.5930192E+02  0.7816164E-02  0.1266605E+00
        -11   -1    0    0    0    0  0.00000000000E+00  0.00000000000E+00  0.45593999997E+02  0.45594000000E+02  0.51100000000E-03 0. -1.
         11   -1    0    0    0    0 -0.00000000000E+00 -0.00000000000E+00 -0.45593999997E+02  0.45594000000E+02  0.51100000000E-03 0.  1.
    9900012    2    1    2    0    0  0.13683658012E+02 -0.27205522061E+01 -0.28671911406E+02  0.59301915189E+02  0.49999947405E+02 0.  0.
         12    1    1    2    0    0 -0.13683658012E+02  0.27205522061E+01  0.28671911406E+02  0.31886084811E+02  0.00000000000E+00 0. -1.
         11    1    3    3    0    0  0.15472793512E+02 -0.25169697630E+01  0.26333177643E+01  0.15895811982E+02  0.51100000000E-03 0. -1.
        -11    1    3    3    0    0  0.13662361701E+02 -0.20318270583E+01 -0.10129962326E+02  0.17129056759E+02  0.51100000000E-03 0.  1.
        -12    1    3    3    0    0 -0.15451497201E+02  0.18282446153E+01 -0.21175266844E+02  0.26277046448E+02  0.00000000000E+00 0.  1.
</event>
<event>
 7    1  0.5832130E-012  0.5930199E+02  0.7816164E-02  0.1266605E+00
        -11   -1    0    0    0    0  0.00000000000E+00  0.00000000000E+00  0.45593999997E+02  0.45594000000E+02  0.51100000000E-03 0.  1.
         11   -1    0    0    0    0 -0.00000000000E+00 -0.00000000000E+00 -0.45593999997E+02  0.45594000000E+02  0.51100000000E-03 0. -1.
    9900012    2    1    2    0    0  0.22069861703E+01  0.30749505563E+02 -0.81433882709E+01  0.59301989700E+02  0.50000083294E+02 0.  0.
         12    1    1    2    0    0 -0.22069861703E+01 -0.30749505563E+02  0.81433882709E+01  0.31886010300E+02  0.00000000000E+00 0. -1.
         11    1    3    3    0    0  0.68281694343E+01  0.11849388172E+02  0.11410966358E+01  0.13723483511E+02  0.51100000000E-03 0.  1.
        -11    1    3    3    0    0  0.52694508159E+01 -0.93125808185E+01 -0.11365745360E+02  0.15609978900E+02  0.51100000000E-03 0. -1.
         12    1    3    3    0    0 -0.98906340799E+01  0.28212698210E+02  0.20812604537E+01  0.29968527289E+02  0.00000000000E+00 0. -1.
</event>
<event>
 7    1  0.5832130E-012  0.5930204E+02  0.7816164E-02  0.1266604E+00
        -11   -1    0    0    0    0  0.00000000000E+00  0.00000000000E+00  0.45593999997E+02  0.45594000000E+02  0.51100000000E-03 0.  1.
         11   -1    0    0    0    0 -0.00000000000E+00 -0.00000000000E+00 -0.45593999997E+02  0.45594000000E+02  0.51100000000E-03 0. -1.
    9900012    2    1    2    0    0 -0.27317078654E+02  0.73303695879E+01  0.14722673039E+02  0.59302043752E+02  0.50000181872E+02 0.  0.
         12    1    1    2    0    0  0.27317078654E+02 -0.73303695879E+01 -0.14722673039E+02  0.31885956248E+02  0.00000000000E+00 0. -1.
         11    1    3    3    0    0 -0.74855996964E+01  0.74015116428E+01  0.22429441371E+02  0.24776933182E+02  0.51100000000E-03 0. -1.
        -11    1    3    3    0    0 -0.66930123689E+01  0.10453878664E+02  0.50525176791E+01  0.13401788270E+02  0.51100000000E-03 0.  1.
         12    1    3    3    0    0 -0.13138466588E+02 -0.10525020719E+02 -0.12759286012E+02  0.21123322299E+02  0.00000000000E+00 0. -1.
</event>
<event>
 7    1  0.5832130E-012  0.5930194E+02  0.7816164E-02  0.1266605E+00
        -11   -1    0    0    0    0  0.00000000000E+00  0.00000000000E+00  0.45593999997E+02  0.45594000000E+02  0.51100000000E-03 0. -1.
         11   -1    0    0    0    0 -0.00000000000E+00 -0.00000000000E+00 -0.45593999997E+02  0.45594000000E+02  0.51100000000E-03 0.  1.
    9900012    2    1    2    0    0  0.10960784677E+02  0.26017812496E+02 -0.14820768710E+02  0.59301944224E+02  0.50000000358E+02 0.  0.
         12    1    1    2    0    0 -0.10960784677E+02 -0.26017812496E+02  0.14820768710E+02  0.31886055776E+02  0.00000000000E+00 0. -1.
         11    1    3    3    0    0 -0.72458199469E+01 -0.43887107132E+01 -0.12443512757E+02  0.15053361698E+02  0.51100000000E-03 0. -1.
        -11    1    3    3    0    0  0.76300097752E+01 -0.33722077539E+01  0.20131621517E+01  0.85814716929E+01  0.51100000000E-03 0.  1.
        -12    1    3    3    0    0  0.10576594849E+02  0.33778730963E+02 -0.43904181046E+01  0.35667110833E+02  0.00000000000E+00 0.  1.
</event>
<event>
 7    1  0.5832130E-012  0.5930191E+02  0.7816164E-02  0.1266605E+00
        -11   -1    0    0    0    0  0.00000000000E+00  0.00000000000E+00  0.45593999997E+02  0.45594000000E+02  0.51100000000E-03 0. -1.
         11   -1    0    0    0    0 -0.00000000000E+00 -0.00000000000E+00 -0.45593999997E+02  0.45594000000E+02  0.51100000000E-03 0.  1.
    9900012    2    1    2    0    0 -0.30139794036E+02  0.75444214697E+01 -0.71691786263E+01  0.59301912093E+02  0.49999941759E+02 0.  0.
         12    1    1    2    0    0  0.30139794036E+02 -0.75444214697E+01  0.71691786263E+01  0.31886087907E+02  0.00000000000E+00 0. -1.
         11    1    3    3    0    0 -0.80526628543E+01  0.13956133937E+02 -0.87290790037E+00  0.16136326161E+02  0.51100000000E-03 0. -1.
        -11    1    3    3    0    0 -0.24340272530E+02  0.96482507968E+01 -0.13782511586E+01  0.26219023376E+02  0.51100000000E-03 0.  1.
        -12    1    3    3    0    0  0.22531413489E+01 -0.16059963264E+02 -0.49180195674E+01  0.16946562556E+02  0.00000000000E+00 0.  1.
</event>
<event>
 7    1  0.5832130E-012  0.5930199E+02  0.7816164E-02  0.1266605E+00
        -11   -1    0    0    0    0  0.00000000000E+00  0.00000000000E+00  0.45593999997E+02  0.45594000000E+02  0.51100000000E-03 0.  1.
         11   -1    0    0    0    0 -0.00000000000E+00 -0.00000000000E+00 -0.45593999997E+02  0.45594000000E+02  0.51100000000E-03 0. -1.
    9900012    2    1    2    0    0 -0.13059206653E+02 -0.23527894649E+02  0.17105936692E+02  0.59301987782E+02  0.50000079797E+02 0.  0.
         12    1    1    2    0    0  0.13059206653E+02  0.23527894649E+02 -0.17105936692E+02  0.31886012218E+02  0.00000000000E+00 0. -1.
         11    1    3    3    0    0 -0.16769788407E+02  0.10284394894E+02  0.56543873828E-01  0.19672259123E+02  0.51100000000E-03 0. -1.
        -11    1    3    3    0    0  0.17534441789E+01  0.20221133075E-01  0.14779575296E+00  0.17597781759E+01  0.51100000000E-03 0.  1.
         12    1    3    3    0    0  0.19571375744E+01 -0.33832510677E+02  0.16901597066E+02  0.37869950482E+02  0.00000000000E+00 0. -1.
</event>
<event>
 7    1  0.5832130E-012  0.5930195E+02  0.7816164E-02  0.1266605E+00
        -11   -1    0    0    0    0  0.00000000000E+00  0.00000000000E+00  0.45593999997E+02  0.45594000000E+02  0.51100000000E-03 0. -1.
         11   -1    0    0    0    0 -0.00000000000E+00 -0.00000000000E+00 -0.45593999997E+02  0.45594000000E+02  0.51100000000E-03 0.  1.
    9900012    2    1    2    0    0  0.87574720441E+01 -0.29581730746E+02 -0.80590464058E+01  0.59301947571E+02  0.50000006463E+02 0.  0.
         12    1    1    2    0    0 -0.87574720441E+01  0.29581730746E+02  0.80590464058E+01  0.31886052429E+02  0.00000000000E+00 0. -1.
         11    1    3    3    0    0  0.15443266532E+01  0.57239029891E+01  0.26344850685E+01  0.64875667301E+01  0.51100000000E-03 0. -1.
        -11    1    3    3    0    0 -0.49446274805E+00  0.66228728253E+01 -0.75680919007E+01  0.10068910226E+02  0.51100000000E-03 0.  1.
        -12    1    3    3    0    0  0.77076081390E+01 -0.41928506560E+02 -0.31254395736E+01  0.42745470615E+02  0.00000000000E+00 0.  1.
</event>
<event>
 7    1  0.5832130E-012  0.5930194E+02  0.7816164E-02  0.1266605E+00
        -11   -1    0    0    0    0  0.00000000000E+00  0.00000000000E+00  0.45593999997E+02  0.45594000000E+02  0.51100000000E-03 0. -1.
         11   -1    0    0    0    0 -0.00000000000E+00 -0.00000000000E+00 -0.45593999997E+02  0.45594000000E+02  0.51100000000E-03 0.  1.
    9900012    2    1    2    0    0 -0.20060427381E+02  0.31662524678E+00 -0.24783051337E+02  0.59301942987E+02  0.49999998102E+02 0.  0.
         12    1    1    2    0    0  0.20060427381E+02 -0.31662524678E+00  0.24783051337E+02  0.31886057013E+02  0.00000000000E+00 0. -1.
         11    1    3    3    0    0  0.39676894235E+01 -0.31450612058E+01 -0.14763442297E+02  0.15607472508E+02  0.51100000000E-03 0. -1.
        -11    1    3    3    0    0 -0.73872755107E-01  0.11504610134E+02 -0.13993202815E+02  0.18115497145E+02  0.51100000000E-03 0.  1.
         12    1    3    3    0    0 -0.23954244050E+02 -0.80429236818E+01  0.39735937751E+01  0.25578973334E+02  0.00000000000E+00 0. -1.
</event>
<event>
 7    1  0.5832130E-012  0.5930193E+02  0.7816164E-02  0.1266605E+00
        -11   -1    0    0    0    0  0.00000000000E+00  0.00000000000E+00  0.45593999997E+02  0.45594000000E+02  0.51100000000E-03 0.  1.
         11   -1    0    0    0    0 -0.00000000000E+00 -0.00000000000E+00 -0.45593999997E+02  0.45594000000E+02  0.51100000000E-03 0. -1.
    9900012    2    1    2    0    0 -0.29148670436E+02 -0.42004781698E+01  0.12224260591E+02  0.59301928557E+02  0.49999971786E+02 0.  0.
         12    1    1    2    0    0  0.29148670436E+02  0.42004781698E+01 -0.12224260591E+02  0.31886071443E+02  0.00000000000E+00 0. -1.
         11    1    3    3    0    0  0.60514217149E+01 -0.14161152182E+02  0.58954704593E-01  0.15400045838E+02  0.51100000000E-03 0. -1.
        -11    1    3    3    0    0 -0.18102893823E+02 -0.52584758341E+01  0.86607809032E+01  0.20745492498E+02  0.51100000000E-03 0.  1.
        -12    1    3    3    0    0 -0.17097198328E+02  0.15219149847E+02  0.35045249831E+01  0.23156390221E+02  0.00000000000E+00 0.  1.
</event>
<event>
 7    1  0.5832130E-012  0.5930199E+02  0.7816164E-02  0.1266605E+00
        -11   -1    0    0    0    0  0.00000000000E+00  0.00000000000E+00  0.45593999997E+02  0.45594000000E+02  0.51100000000E-03 0.  1.
         11   -1    0    0    0    0 -0.00000000000E+00 -0.00000000000E+00 -0.45593999997E+02  0.45594000000E+02  0.51100000000E-03 0. -1.
    9900012    2    1    2    0    0  0.10795612546E+02 -0.18476664512E+02  0.23638644806E+02  0.59301985667E+02  0.50000075941E+02 0.  0.
         12    1    1    2    0    0 -0.10795612546E+02  0.18476664512E+02 -0.23638644806E+02  0.31886014333E+02  0.00000000000E+00 0. -1.
         11    1    3    3    0    0 -0.33898970666E+00 -0.13637847982E+02 -0.51168839719E+01  0.14570117139E+02  0.51100000000E-03 0. -1.
        -11    1    3    3    0    0  0.21791340862E+01 -0.10186481274E+02 -0.33754969177E+01  0.10950205743E+02  0.51100000000E-03 0.  1.
        -12    1    3    3    0    0  0.89554681662E+01  0.53476647434E+01  0.32131025696E+02  0.33781662786E+02  0.00000000000E+00 0.  1.
</event>
<event>
 7    1  0.5832130E-012  0.5930192E+02  0.7816164E-02  0.1266605E+00
        -11   -1    0    0    0    0  0.00000000000E+00  0.00000000000E+00  0.45593999997E+02  0.45594000000E+02  0.51100000000E-03 0. -1.
         11   -1    0    0    0    0 -0.00000000000E+00 -0.00000000000E+00 -0.45593999997E+02  0.45594000000E+02  0.51100000000E-03 0.  1.
    9900012    2    1    2    0    0 -0.13796275060E+02  0.28387377173E+02  0.45323076499E+01  0.59301918383E+02  0.49999953230E+02 0.  0.
         12    1    1    2    0    0  0.13796275060E+02 -0.28387377173E+02 -0.45323076499E+01  0.31886081617E+02  0.00000000000E+00 0. -1.
         11    1    3    3    0    0 -0.33123663134E+01 -0.98224593440E+00  0.11203211917E+02  0.11723844728E+02  0.51100000000E-03 0. -1.
        -11    1    3    3    0    0  0.18692468908E+01  0.11707239069E+02  0.13563661773E+02  0.18014617718E+02  0.51100000000E-03 0.  1.
        -12    1    3    3    0    0 -0.12353155637E+02  0.17662384038E+02 -0.20234566041E+02  0.29563455938E+02  0.00000000000E+00 0.  1.
</event>
<event>
 7    1  0.5832130E-012  0.5930194E+02  0.7816164E-02  0.1266605E+00
        -11   -1    0    0    0    0  0.00000000000E+00  0.00000000000E+00  0.45593999997E+02  0.45594000000E+02  0.51100000000E-03 0.  1.
         11   -1    0    0    0    0 -0.00000000000E+00 -0.00000000000E+00 -0.45593999997E+02  0.45594000000E+02  0.51100000000E-03 0. -1.
    9900012    2    1    2    0    0 -0.19693955819E+02  0.73035961519E+01  0.23990127052E+02  0.59301943353E+02  0.49999998769E+02 0.  0.
         12    1    1    2    0    0  0.19693955819E+02 -0.73035961519E+01 -0.23990127052E+02  0.31886056647E+02  0.00000000000E+00 0. -1.
         11    1    3    3    0    0 -0.57546480444E+01  0.98458153110E+01 -0.63307132134E+01  0.13043541824E+02  0.51100000000E-03 0. -1.
        -11    1    3    3    0    0 -0.10377488696E+02  0.11678234776E+02  0.39941829880E+01  0.16125350760E+02  0.51100000000E-03 0.  1.
        -12    1    3    3    0    0 -0.35618190784E+01 -0.14220453935E+02  0.26326657277E+02  0.30133050769E+02  0.00000000000E+00 0.  1.
</event>
<event>
 7    1  0.5832130E-012  0.5930196E+02  0.7816164E-02  0.1266605E+00
        -11   -1    0    0    0    0  0.00000000000E+00  0.00000000000E+00  0.45593999997E+02  0.45594000000E+02  0.51100000000E-03 0.  1.
         11   -1    0    0    0    0 -0.00000000000E+00 -0.00000000000E+00 -0.45593999997E+02  0.45594000000E+02  0.51100000000E-03 0. -1.
    9900012    2    1    2    0    0  0.83174736879E+01 -0.94277255385E+01  0.29302857829E+02  0.59301955179E+02  0.50000020337E+02 0.  0.
         12    1    1    2    0    0 -0.83174736879E+01  0.94277255385E+01 -0.29302857829E+02  0.31886044821E+02  0.00000000000E+00 0. -1.
         11    1    3    3    0    0 -0.10577028986E+02 -0.67360131577E+01  0.19587270567E+02  0.23257441475E+02  0.51100000000E-03 0. -1.
        -11    1    3    3    0    0  0.79138333804E+01 -0.15763383231E+02  0.50142392244E+01  0.18337273650E+02  0.51100000000E-03 0.  1.
        -12    1    3    3    0    0  0.10980669294E+02  0.13071670850E+02  0.47013480378E+01  0.17707240054E+02  0.00000000000E+00 0.  1.
</event>
<event>
 7    1  0.5832130E-012  0.5930196E+02  0.7816164E-02  0.1266605E+00
        -11   -1    0    0    0    0  0.00000000000E+00  0.00000000000E+00  0.45593999997E+02  0.45594000000E+02  0.51100000000E-03 0.  1.
         11   -1    0    0    0    0 -0.00000000000E+00 -0.00000000000E+00 -0.45593999997E+02  0.45594000000E+02  0.51100000000E-03 0. -1.
    9900012    2    1    2    0    0  0.18287452188E+02  0.20626687778E+02  0.16025876012E+02  0.59301955119E+02  0.50000020227E+02 0.  0.
         12    1    1    2    0    0 -0.18287452188E+02 -0.20626687778E+02 -0.16025876012E+02  0.31886044881E+02  0.00000000000E+00 0. -1.
         11    1    3    3    0    0  0.20404877413E+02  0.24787018251E+02  0.10836824080E+02  0.33884982698E+02  0.51100000000E-03 0.  1.
        -11    1    3    3    0    0 -0.47178295840E+01  0.24822989817E+01  0.13470353280E+02  0.14486895526E+02  0.51100000000E-03 0. -1.
        -12    1    3    3    0    0  0.26004043588E+01 -0.66426294549E+01 -0.82813013485E+01  0.10930076895E+02  0.00000000000E+00 0.  1.
</event>
<event>
 7    1  0.5832130E-012  0.5930194E+02  0.7816164E-02  0.1266605E+00
        -11   -1    0    0    0    0  0.00000000000E+00  0.00000000000E+00  0.45593999997E+02  0.45594000000E+02  0.51100000000E-03 0.  1.
         11   -1    0    0    0    0 -0.00000000000E+00 -0.00000000000E+00 -0.45593999997E+02  0.45594000000E+02  0.51100000000E-03 0. -1.
    9900012    2    1    2    0    0  0.57407834764E+00 -0.42348685350E+01  0.31598373776E+02  0.59301938739E+02  0.49999990354E+02 0.  0.
         12    1    1    2    0    0 -0.57407834764E+00  0.42348685350E+01 -0.31598373776E+02  0.31886061261E+02  0.00000000000E+00 0. -1.
         11    1    3    3    0    0  0.23952146923E+01 -0.11631270627E+02 -0.29622213334E+01  0.12239210159E+02  0.51100000000E-03 0. -1.
        -11    1    3    3    0    0 -0.52690263514E+01 -0.11521369590E+02  0.14975893689E+02  0.19615860622E+02  0.51100000000E-03 0.  1.
        -12    1    3    3    0    0  0.34478900067E+01  0.18917771682E+02  0.19584701421E+02  0.27446867957E+02  0.00000000000E+00 0.  1.
</event>
<event>
 7    1  0.5832130E-012  0.5930194E+02  0.7816164E-02  0.1266605E+00
        -11   -1    0    0    0    0  0.00000000000E+00  0.00000000000E+00  0.45593999997E+02  0.45594000000E+02  0.51100000000E-03 0.  1.
         11   -1    0    0    0    0 -0.00000000000E+00 -0.00000000000E+00 -0.45593999997E+02  0.45594000000E+02  0.51100000000E-03 0. -1.
    9900012    2    1    2    0    0  0.17842669715E+01 -0.30305785244E+02 -0.97517591318E+01  0.59301936680E+02  0.49999986599E+02 0.  0.
         12    1    1    2    0    0 -0.17842669715E+01  0.30305785244E+02  0.97517591318E+01  0.31886063320E+02  0.00000000000E+00 0. -1.
         11    1    3    3    0    0 -0.18245947644E+01 -0.48427548645E+01 -0.13738978483E+02  0.14681312977E+02  0.51100000000E-03 0. -1.
        -11    1    3    3    0    0  0.18249027453E+02 -0.12014756545E+02 -0.55924757207E+01  0.22553429069E+02  0.51100000000E-03 0.  1.
         12    1    3    3    0    0 -0.14640165717E+02 -0.13448273834E+02  0.95796950715E+01  0.22067194634E+02  0.00000000000E+00 0. -1.
</event>
<event>
 7    1  0.5832130E-012  0.5930196E+02  0.7816164E-02  0.1266605E+00
        -11   -1    0    0    0    0  0.00000000000E+00  0.00000000000E+00  0.45593999997E+02  0.45594000000E+02  0.51100000000E-03 0. -1.
         11   -1    0    0    0    0 -0.00000000000E+00 -0.00000000000E+00 -0.45593999997E+02  0.45594000000E+02  0.51100000000E-03 0.  1.
    9900012    2    1    2    0    0 -0.44215744878E+01 -0.12455832068E+02 -0.29017609008E+02  0.59301957505E+02  0.50000024579E+02 0.  0.
         12    1    1    2    0    0  0.44215744878E+01  0.12455832068E+02  0.29017609008E+02  0.31886042495E+02  0.00000000000E+00 0. -1.
         11    1    3    3    0    0  0.20009328979E+02  0.36787102685E+01 -0.15141950078E+02  0.25361088459E+02  0.51100000000E-03 0. -1.
        -11    1    3    3    0    0 -0.97569099969E+01 -0.12364861935E+02 -0.82419107125E+01  0.17776844372E+02  0.51100000000E-03 0.  1.
        -12    1    3    3    0    0 -0.14673993470E+02 -0.37696804008E+01 -0.56337482177E+01  0.16164024674E+02  0.00000000000E+00 0.  1.
</event>
<event>
 7    1  0.5832130E-012  0.5930193E+02  0.7816164E-02  0.1266605E+00
        -11   -1    0    0    0    0  0.00000000000E+00  0.00000000000E+00  0.45593999997E+02  0.45594000000E+02  0.51100000000E-03 0.  1.
         11   -1    0    0    0    0 -0.00000000000E+00 -0.00000000000E+00 -0.45593999997E+02  0.45594000000E+02  0.51100000000E-03 0. -1.
    9900012    2    1    2    0    0  0.26245179005E+02  0.14794394889E+02 -0.10442133693E+02  0.59301926281E+02  0.49999967635E+02 0.  0.
         12    1    1    2    0    0 -0.26245179005E+02 -0.14794394889E+02  0.10442133693E+02  0.31886073719E+02  0.00000000000E+00 0. -1.
         11    1    3    3    0    0  0.10729748300E+02 -0.11330192120E+01 -0.63334059904E+00  0.10807976300E+02  0.51100000000E-03 0. -1.
        -11    1    3    3    0    0 -0.51253197875E+01  0.14216804329E+01  0.13273598803E+02  0.14299598023E+02  0.51100000000E-03 0.  1.
         12    1    3    3    0    0  0.20640750492E+02  0.14505733668E+02 -0.23082391897E+02  0.34194351958E+02  0.00000000000E+00 0. -1.
</event>
<event>
 7    1  0.5832130E-012  0.5930191E+02  0.7816164E-02  0.1266605E+00
        -11   -1    0    0    0    0  0.00000000000E+00  0.00000000000E+00  0.45593999997E+02  0.45594000000E+02  0.51100000000E-03 0.  1.
         11   -1    0    0    0    0 -0.00000000000E+00 -0.00000000000E+00 -0.45593999997E+02  0.45594000000E+02  0.51100000000E-03 0. -1.
    9900012    2    1    2    0    0 -0.44667284755E+01 -0.13343495449E+01  0.31543470513E+02  0.59301910808E+02  0.49999939415E+02 0.  0.
         12    1    1    2    0    0  0.44667284755E+01  0.13343495449E+01 -0.31543470513E+02  0.31886089192E+02  0.00000000000E+00 0. -1.
         11    1    3    3    0    0  0.14116281272E+02  0.79105235317E+01  0.12277105812E+02  0.20311895699E+02  0.51100000000E-03 0. -1.
        -11    1    3    3    0    0  0.25872597174E+01 -0.57281788419E+01  0.16117699523E+02  0.17299889707E+02  0.51100000000E-03 0.  1.
         12    1    3    3    0    0 -0.21170269465E+02 -0.35166942348E+01  0.31486651770E+01  0.21690125402E+02  0.00000000000E+00 0. -1.
</event>
<event>
 7    1  0.5832130E-012  0.5930178E+02  0.7816164E-02  0.1266605E+00
        -11   -1    0    0    0    0  0.00000000000E+00  0.00000000000E+00  0.45593999997E+02  0.45594000000E+02  0.51100000000E-03 0. -1.
         11   -1    0    0    0    0 -0.00000000000E+00 -0.00000000000E+00 -0.45593999997E+02  0.45594000000E+02  0.51100000000E-03 0.  1.
    9900012    2    1    2    0    0  0.26380074760E+02  0.17810137140E+02  0.19030862771E+01  0.59301779360E+02  0.49999699685E+02 0.  0.
         12    1    1    2    0    0 -0.26380074760E+02 -0.17810137140E+02 -0.19030862771E+01  0.31886220640E+02  0.00000000000E+00 0. -1.
         11    1    3    3    0    0 -0.47390945679E+01 -0.87018518225E+01 -0.93950944587E+01  0.13654634474E+02  0.51100000000E-03 0. -1.
        -11    1    3    3    0    0  0.74179331368E+01  0.23748000170E+01 -0.37241215936E+01  0.86333359166E+01  0.51100000000E-03 0.  1.
        -12    1    3    3    0    0  0.23701236191E+02  0.24137188946E+02  0.15022302329E+02  0.37013808970E+02  0.00000000000E+00 0.  1.
</event>
<event>
 7    1  0.5832130E-012  0.5930200E+02  0.7816164E-02  0.1266605E+00
        -11   -1    0    0    0    0  0.00000000000E+00  0.00000000000E+00  0.45593999997E+02  0.45594000000E+02  0.51100000000E-03 0.  1.
         11   -1    0    0    0    0 -0.00000000000E+00 -0.00000000000E+00 -0.45593999997E+02  0.45594000000E+02  0.51100000000E-03 0. -1.
    9900012    2    1    2    0    0  0.15140378657E+02 -0.18306106651E+02  0.21269044832E+02  0.59302001902E+02  0.50000105549E+02 0.  0.
         12    1    1    2    0    0 -0.15140378657E+02  0.18306106651E+02 -0.21269044832E+02  0.31885998098E+02  0.00000000000E+00 0. -1.
         11    1    3    3    0    0 -0.16366952443E+01 -0.10119956307E+02 -0.15957338218E+01  0.10374904995E+02  0.51100000000E-03 0. -1.
        -11    1    3    3    0    0  0.20271592609E+02 -0.80674354948E+01  0.32235715682E+02  0.38925086360E+02  0.51100000000E-03 0.  1.
         12    1    3    3    0    0 -0.34945187077E+01 -0.11871484990E+00 -0.93709370273E+01  0.10002010547E+02  0.00000000000E+00 0. -1.
</event>
<event>
 7    1  0.5832130E-012  0.5930200E+02  0.7816164E-02  0.1266605E+00
        -11   -1    0    0    0    0  0.00000000000E+00  0.00000000000E+00  0.45593999997E+02  0.45594000000E+02  0.51100000000E-03 0.  1.
         11   -1    0    0    0    0 -0.00000000000E+00 -0.00000000000E+00 -0.45593999997E+02  0.45594000000E+02  0.51100000000E-03 0. -1.
    9900012    2    1    2    0    0 -0.26755111577E+02 -0.11919269739E+02  0.12602051284E+02  0.59302004905E+02  0.50000111026E+02 0.  0.
         12    1    1    2    0    0  0.26755111577E+02  0.11919269739E+02 -0.12602051284E+02  0.31885995095E+02  0.00000000000E+00 0. -1.
         11    1    3    3    0    0  0.52248488737E+01 -0.14424361731E+02  0.34286758110E+01  0.15719957862E+02  0.51100000000E-03 0. -1.
        -11    1    3    3    0    0  0.38182505792E+01 -0.83440352412E+00 -0.37109849964E+01  0.53894968811E+01  0.51100000000E-03 0.  1.
        -12    1    3    3    0    0 -0.35798211030E+02  0.33394955158E+01  0.12884360470E+02  0.38192550163E+02  0.00000000000E+00 0.  1.
</event>
<event>
 7    1  0.5832130E-012  0.5930190E+02  0.7816164E-02  0.1266605E+00
        -11   -1    0    0    0    0  0.00000000000E+00  0.00000000000E+00  0.45593999997E+02  0.45594000000E+02  0.51100000000E-03 0.  1.
         11   -1    0    0    0    0 -0.00000000000E+00 -0.00000000000E+00 -0.45593999997E+02  0.45594000000E+02  0.51100000000E-03 0. -1.
    9900012    2    1    2    0    0  0.29005922575E+02 -0.84298140425E+01  0.10213616064E+02  0.59301901739E+02  0.49999922876E+02 0.  0.
         12    1    1    2    0    0 -0.29005922575E+02  0.84298140425E+01 -0.10213616064E+02  0.31886098261E+02  0.00000000000E+00 0. -1.
         11    1    3    3    0    0 -0.22739040160E+01 -0.75149647274E+00 -0.23126458801E+01  0.33292217785E+01  0.51100000000E-03 0. -1.
        -11    1    3    3    0    0  0.67058477683E+00 -0.12415112567E+02  0.20512206122E+02  0.23986148175E+02  0.51100000000E-03 0.  1.
        -12    1    3    3    0    0  0.30609241814E+02  0.47367949975E+01 -0.79859441779E+01  0.31986531786E+02  0.00000000000E+00 0.  1.
</event>
<event>
 7    1  0.5832130E-012  0.5930197E+02  0.7816164E-02  0.1266605E+00
        -11   -1    0    0    0    0  0.00000000000E+00  0.00000000000E+00  0.45593999997E+02  0.45594000000E+02  0.51100000000E-03 0.  1.
         11   -1    0    0    0    0 -0.00000000000E+00 -0.00000000000E+00 -0.45593999997E+02  0.45594000000E+02  0.51100000000E-03 0. -1.
    9900012    2    1    2    0    0  0.72347212595E+01  0.83053223069E+01  0.29923225053E+02  0.59301969079E+02  0.50000045688E+02 0.  0.
         12    1    1    2    0    0 -0.72347212595E+01 -0.83053223069E+01 -0.29923225053E+02  0.31886030921E+02  0.00000000000E+00 0. -1.
         11    1    3    3    0    0  0.75238177003E+01  0.10752502564E+01  0.44769919986E+01  0.88208533328E+01  0.51100000000E-03 0. -1.
        -11    1    3    3    0    0  0.32503443323E+01  0.65180750156E+01 -0.11362071945E+02  0.13496174248E+02  0.51100000000E-03 0.  1.
        -12    1    3    3    0    0 -0.35394407732E+01  0.71199703493E+00  0.36808304999E+02  0.36984941499E+02  0.00000000000E+00 0.  1.
</event>
<event>
 7    1  0.5832130E-012  0.5930194E+02  0.7816164E-02  0.1266605E+00
        -11   -1    0    0    0    0  0.00000000000E+00  0.00000000000E+00  0.45593999997E+02  0.45594000000E+02  0.51100000000E-03 0. -1.
         11   -1    0    0    0    0 -0.00000000000E+00 -0.00000000000E+00 -0.45593999997E+02  0.45594000000E+02  0.51100000000E-03 0.  1.
    9900012    2    1    2    0    0  0.31043456498E+02 -0.41077609205E+01 -0.60125520854E+01  0.59301942330E+02  0.49999996905E+02 0.  0.
         12    1    1    2    0    0 -0.31043456498E+02  0.41077609205E+01  0.60125520854E+01  0.31886057670E+02  0.00000000000E+00 0. -1.
         11    1    3    3    0    0 -0.84026028056E+01 -0.12388388090E+01  0.49657396636E+01  0.98385479707E+01  0.51100000000E-03 0. -1.
        -11    1    3    3    0    0  0.10720334576E+02  0.10734799835E+02 -0.89507609356E+01  0.17614699047E+02  0.51100000000E-03 0.  1.
        -12    1    3    3    0    0  0.28725724728E+02 -0.13603721947E+02 -0.20275308135E+01  0.31848695313E+02  0.00000000000E+00 0.  1.
</event>
<event>
 7    1  0.5832130E-012  0.5930194E+02  0.7816164E-02  0.1266605E+00
        -11   -1    0    0    0    0  0.00000000000E+00  0.00000000000E+00  0.45593999997E+02  0.45594000000E+02  0.51100000000E-03 0. -1.
         11   -1    0    0    0    0 -0.00000000000E+00 -0.00000000000E+00 -0.45593999997E+02  0.45594000000E+02  0.51100000000E-03 0.  1.
    9900012    2    1    2    0    0 -0.10372908803E+02 -0.22831494877E+02  0.19693810829E+02  0.59301943795E+02  0.49999999576E+02 0.  0.
         12    1    1    2    0    0  0.10372908803E+02  0.22831494877E+02 -0.19693810829E+02  0.31886056205E+02  0.00000000000E+00 0. -1.
         11    1    3    3    0    0 -0.27218720083E+02 -0.14550449917E+02  0.15231021967E+02  0.34417413414E+02  0.51100000000E-03 0. -1.
        -11    1    3    3    0    0 -0.28205607016E+00 -0.19988823548E+01  0.62363294558E+01  0.65549135492E+01  0.51100000000E-03 0.  1.
        -12    1    3    3    0    0  0.17127867350E+02 -0.62821626048E+01 -0.17735405939E+01  0.18329616831E+02  0.00000000000E+00 0.  1.
</event>
<event>
 7    1  0.5832130E-012  0.5930194E+02  0.7816164E-02  0.1266605E+00
        -11   -1    0    0    0    0  0.00000000000E+00  0.00000000000E+00  0.45593999997E+02  0.45594000000E+02  0.51100000000E-03 0.  1.
         11   -1    0    0    0    0 -0.00000000000E+00 -0.00000000000E+00 -0.45593999997E+02  0.45594000000E+02  0.51100000000E-03 0. -1.
    9900012    2    1    2    0    0 -0.20949981996E+02  0.85148699249E+01  0.22479229820E+02  0.59301944603E+02  0.50000001049E+02 0.  0.
         12    1    1    2    0    0  0.20949981996E+02 -0.85148699249E+01 -0.22479229820E+02  0.31886055397E+02  0.00000000000E+00 0. -1.
         11    1    3    3    0    0  0.23841983670E+01  0.14917480510E+02 -0.47881470261E+01  0.15847459696E+02  0.51100000000E-03 0. -1.
        -11    1    3    3    0    0 -0.14645408380E+02  0.44816973499E+01  0.31977874065E+01  0.15646067950E+02  0.51100000000E-03 0.  1.
        -12    1    3    3    0    0 -0.86887719829E+01 -0.10884307935E+02  0.24069589440E+02  0.27808416956E+02  0.00000000000E+00 0.  1.
</event>
<event>
 7    1  0.5832130E-012  0.5930193E+02  0.7816164E-02  0.1266605E+00
        -11   -1    0    0    0    0  0.00000000000E+00  0.00000000000E+00  0.45593999997E+02  0.45594000000E+02  0.51100000000E-03 0.  1.
         11   -1    0    0    0    0 -0.00000000000E+00 -0.00000000000E+00 -0.45593999997E+02  0.45594000000E+02  0.51100000000E-03 0. -1.
    9900012    2    1    2    0    0 -0.10298883456E+02 -0.28884801412E+02  0.87362694100E+01  0.59301934764E+02  0.49999983105E+02 0.  0.
         12    1    1    2    0    0  0.10298883456E+02  0.28884801412E+02 -0.87362694100E+01  0.31886065236E+02  0.00000000000E+00 0. -1.
         11    1    3    3    0    0 -0.27970017970E+01 -0.22341924302E+02  0.17756923513E+02  0.28675654020E+02  0.51100000000E-03 0. -1.
        -11    1    3    3    0    0 -0.15467303753E+02 -0.93945273586E+01  0.21917569331E+00  0.18098139902E+02  0.51100000000E-03 0.  1.
         12    1    3    3    0    0  0.79654220944E+01  0.28516502489E+01 -0.92398297961E+01  0.12528140842E+02  0.00000000000E+00 0. -1.
</event>
<event>
 7    1  0.5832130E-012  0.5930199E+02  0.7816164E-02  0.1266605E+00
        -11   -1    0    0    0    0  0.00000000000E+00  0.00000000000E+00  0.45593999997E+02  0.45594000000E+02  0.51100000000E-03 0.  1.
         11   -1    0    0    0    0 -0.00000000000E+00 -0.00000000000E+00 -0.45593999997E+02  0.45594000000E+02  0.51100000000E-03 0. -1.
    9900012    2    1    2    0    0  0.21439459399E+02 -0.62922297803E-01  0.23602191423E+02  0.59301987102E+02  0.50000078557E+02 0.  0.
         12    1    1    2    0    0 -0.21439459399E+02  0.62922297803E-01 -0.23602191423E+02  0.31886012898E+02  0.00000000000E+00 0. -1.
         11    1    3    3    0    0  0.49774149218E+01 -0.16475746669E+02  0.23809542638E+02  0.29378890525E+02  0.51100000000E-03 0. -1.
        -11    1    3    3    0    0  0.20959777075E+01 -0.42583953801E+01  0.12308116967E+00  0.47478629929E+01  0.51100000000E-03 0.  1.
         12    1    3    3    0    0  0.14366066770E+02  0.20671219752E+02 -0.33043238375E+00  0.25175233584E+02  0.00000000000E+00 0. -1.
</event>
<event>
 7    1  0.5832130E-012  0.5930194E+02  0.7816164E-02  0.1266605E+00
        -11   -1    0    0    0    0  0.00000000000E+00  0.00000000000E+00  0.45593999997E+02  0.45594000000E+02  0.51100000000E-03 0.  1.
         11   -1    0    0    0    0 -0.00000000000E+00 -0.00000000000E+00 -0.45593999997E+02  0.45594000000E+02  0.51100000000E-03 0. -1.
    9900012    2    1    2    0    0 -0.90764232127E+01  0.86532568446E+01  0.29316554319E+02  0.59301942396E+02  0.49999997024E+02 0.  0.
         12    1    1    2    0    0  0.90764232127E+01 -0.86532568446E+01 -0.29316554319E+02  0.31886057604E+02  0.00000000000E+00 0. -1.
         11    1    3    3    0    0  0.20542857441E+01 -0.37934849731E+01  0.75414387834E+00  0.43794236390E+01  0.51100000000E-03 0. -1.
        -11    1    3    3    0    0 -0.11112097860E+00  0.61060592050E+00 -0.11605147856E+02  0.11621731562E+02  0.51100000000E-03 0.  1.
        -12    1    3    3    0    0 -0.11019587978E+02  0.11836135897E+02  0.40167558297E+02  0.43300787196E+02  0.00000000000E+00 0.  1.
</event>
<event>
 7    1  0.5832130E-012  0.5930194E+02  0.7816164E-02  0.1266605E+00
        -11   -1    0    0    0    0  0.00000000000E+00  0.00000000000E+00  0.45593999997E+02  0.45594000000E+02  0.51100000000E-03 0.  1.
         11   -1    0    0    0    0 -0.00000000000E+00 -0.00000000000E+00 -0.45593999997E+02  0.45594000000E+02  0.51100000000E-03 0. -1.
    9900012    2    1    2    0    0 -0.51870495916E+01  0.18376617761E+02  0.25536552426E+02  0.59301936059E+02  0.49999985468E+02 0.  0.
         12    1    1    2    0    0  0.51870495916E+01 -0.18376617761E+02 -0.25536552426E+02  0.31886063941E+02  0.00000000000E+00 0. -1.
         11    1    3    3    0    0 -0.11356827296E+02  0.17078531532E+01  0.42982141246E+01  0.12262501113E+02  0.51100000000E-03 0.  1.
        -11    1    3    3    0    0  0.18882385399E+02  0.21189612188E+02  0.15873826238E+02  0.32519571072E+02  0.51100000000E-03 0. -1.
         12    1    3    3    0    0 -0.12712607695E+02 -0.45208475798E+01  0.53645120633E+01  0.14519863874E+02  0.00000000000E+00 0. -1.
</event>
<event>
 7    1  0.5832130E-012  0.5930199E+02  0.7816164E-02  0.1266605E+00
        -11   -1    0    0    0    0  0.00000000000E+00  0.00000000000E+00  0.45593999997E+02  0.45594000000E+02  0.51100000000E-03 0.  1.
         11   -1    0    0    0    0 -0.00000000000E+00 -0.00000000000E+00 -0.45593999997E+02  0.45594000000E+02  0.51100000000E-03 0. -1.
    9900012    2    1    2    0    0  0.18294123944E+02 -0.22587562948E+02  0.13108957722E+02  0.59301988281E+02  0.50000080707E+02 0.  0.
         12    1    1    2    0    0 -0.18294123944E+02  0.22587562948E+02 -0.13108957722E+02  0.31886011719E+02  0.00000000000E+00 0. -1.
         11    1    3    3    0    0  0.17649161971E+02 -0.24481836548E+02 -0.25040434711E+01  0.30284046510E+02  0.51100000000E-03 0. -1.
        -11    1    3    3    0    0  0.59136907181E+01 -0.74520218661E+01 -0.64901431817E+00  0.95354909495E+01  0.51100000000E-03 0.  1.
         12    1    3    3    0    0 -0.52687287458E+01  0.93462954654E+01  0.16262015511E+02  0.19482450822E+02  0.00000000000E+00 0. -1.
</event>
<event>
 7    1  0.5832130E-012  0.5930196E+02  0.7816164E-02  0.1266605E+00
        -11   -1    0    0    0    0  0.00000000000E+00  0.00000000000E+00  0.45593999997E+02  0.45594000000E+02  0.51100000000E-03 0. -1.
         11   -1    0    0    0    0 -0.00000000000E+00 -0.00000000000E+00 -0.45593999997E+02  0.45594000000E+02  0.51100000000E-03 0.  1.
    9900012    2    1    2    0    0  0.10902665209E+02 -0.27105268854E+02  0.12773235714E+02  0.59301964516E+02  0.50000037365E+02 0.  0.
         12    1    1    2    0    0 -0.10902665209E+02  0.27105268854E+02 -0.12773235714E+02  0.31886035484E+02  0.00000000000E+00 0. -1.
         11    1    3    3    0    0  0.47200131719E+01 -0.15021345208E+02  0.12174650822E+02  0.19903302718E+02  0.51100000000E-03 0. -1.
        -11    1    3    3    0    0 -0.69670028302E+01 -0.14325245953E+02  0.13470493484E+02  0.20861591382E+02  0.51100000000E-03 0.  1.
        -12    1    3    3    0    0  0.13149654867E+02  0.22413223070E+01 -0.12871908591E+02  0.18537070415E+02  0.00000000000E+00 0.  1.
</event>
<event>
 7    1  0.5832130E-012  0.5930194E+02  0.7816164E-02  0.1266605E+00
        -11   -1    0    0    0    0  0.00000000000E+00  0.00000000000E+00  0.45593999997E+02  0.45594000000E+02  0.51100000000E-03 0.  1.
         11   -1    0    0    0    0 -0.00000000000E+00 -0.00000000000E+00 -0.45593999997E+02  0.45594000000E+02  0.51100000000E-03 0. -1.
    9900012    2    1    2    0    0  0.62682082070E+01 -0.30445116865E+02  0.71081163223E+01  0.59301938897E+02  0.49999990642E+02 0.  0.
         12    1    1    2    0    0 -0.62682082070E+01  0.30445116865E+02 -0.71081163223E+01  0.31886061103E+02  0.00000000000E+00 0. -1.
         11    1    3    3    0    0 -0.65189818244E+01 -0.12874125272E+02 -0.11217673990E+02  0.18277757947E+02  0.51100000000E-03 0. -1.
        -11    1    3    3    0    0 -0.43402508240E+00 -0.68701077675E+01 -0.74491714689E+01  0.10142825757E+02  0.51100000000E-03 0.  1.
        -12    1    3    3    0    0  0.13221215114E+02 -0.10700883825E+02  0.25774961781E+02  0.30881355193E+02  0.00000000000E+00 0.  1.
</event>
<event>
 7    1  0.5832130E-012  0.5930194E+02  0.7816164E-02  0.1266605E+00
        -11   -1    0    0    0    0  0.00000000000E+00  0.00000000000E+00  0.45593999997E+02  0.45594000000E+02  0.51100000000E-03 0.  1.
         11   -1    0    0    0    0 -0.00000000000E+00 -0.00000000000E+00 -0.45593999997E+02  0.45594000000E+02  0.51100000000E-03 0. -1.
    9900012    2    1    2    0    0 -0.84964751783E+01  0.30575977466E+02  0.31049054301E+01  0.59301938371E+02  0.49999989683E+02 0.  0.
         12    1    1    2    0    0  0.84964751783E+01 -0.30575977466E+02 -0.31049054301E+01  0.31886061629E+02  0.00000000000E+00 0. -1.
         11    1    3    3    0    0  0.83878484861E+01 -0.10708232656E+01 -0.10886087478E+02  0.13784395726E+02  0.51100000000E-03 0. -1.
        -11    1    3    3    0    0 -0.31091863981E+01  0.45908362626E+01 -0.67598181158E+01  0.87428804675E+01  0.51100000000E-03 0.  1.
        -12    1    3    3    0    0 -0.13775137266E+02  0.27055964470E+02  0.20750811024E+02  0.36774662177E+02  0.00000000000E+00 0.  1.
</event>
<event>
 7    1  0.5832130E-012  0.5930194E+02  0.7816164E-02  0.1266605E+00
        -11   -1    0    0    0    0  0.00000000000E+00  0.00000000000E+00  0.45593999997E+02  0.45594000000E+02  0.51100000000E-03 0. -1.
         11   -1    0    0    0    0 -0.00000000000E+00 -0.00000000000E+00 -0.45593999997E+02  0.45594000000E+02  0.51100000000E-03 0.  1.
    9900012    2    1    2    0    0  0.30874106299E+02  0.79606319364E+01 -0.37222007390E+00  0.59301942728E+02  0.49999997629E+02 0.  0.
         12    1    1    2    0    0 -0.30874106299E+02 -0.79606319364E+01  0.37222007390E+00  0.31886057272E+02  0.00000000000E+00 0. -1.
         11    1    3    3    0    0  0.79613412744E+00 -0.16704196158E+01 -0.25473343634E+01  0.31484986679E+01  0.51100000000E-03 0. -1.
        -11    1    3    3    0    0  0.34605064574E+02  0.53971351293E+01 -0.14845109810E+02  0.38039674648E+02  0.51100000000E-03 0.  1.
         12    1    3    3    0    0 -0.45270924023E+01  0.42339164229E+01  0.17020224100E+02  0.18113769412E+02  0.00000000000E+00 0. -1.
</event>
<event>
 7    1  0.5832130E-012  0.5930191E+02  0.7816164E-02  0.1266605E+00
        -11   -1    0    0    0    0  0.00000000000E+00  0.00000000000E+00  0.45593999997E+02  0.45594000000E+02  0.51100000000E-03 0.  1.
         11   -1    0    0    0    0 -0.00000000000E+00 -0.00000000000E+00 -0.45593999997E+02  0.45594000000E+02  0.51100000000E-03 0. -1.
    9900012    2    1    2    0    0 -0.30719840150E+02  0.84675644186E+01  0.11465308465E+01  0.59301909632E+02  0.49999937270E+02 0.  0.
         12    1    1    2    0    0  0.30719840150E+02 -0.84675644186E+01 -0.11465308465E+01  0.31886090368E+02  0.00000000000E+00 0. -1.
         11    1    3    3    0    0 -0.26658094344E+02 -0.87487588271E+01  0.11984606970E+02  0.30509434271E+02  0.51100000000E-03 0. -1.
        -11    1    3    3    0    0 -0.11073985446E+02  0.71403789955E+01 -0.12877854672E+01  0.13239205321E+02  0.51100000000E-03 0.  1.
        -12    1    3    3    0    0  0.70122396400E+01  0.10075944250E+02 -0.95502906564E+01  0.15553270040E+02  0.00000000000E+00 0.  1.
</event>
<event>
 7    1  0.5832130E-012  0.5930193E+02  0.7816164E-02  0.1266605E+00
        -11   -1    0    0    0    0  0.00000000000E+00  0.00000000000E+00  0.45593999997E+02  0.45594000000E+02  0.51100000000E-03 0.  1.
         11   -1    0    0    0    0 -0.00000000000E+00 -0.00000000000E+00 -0.45593999997E+02  0.45594000000E+02  0.51100000000E-03 0. -1.
    9900012    2    1    2    0    0  0.11016386149E+02  0.29545683148E+02 -0.47342773125E+01  0.59301928776E+02  0.49999972184E+02 0.  0.
         12    1    1    2    0    0 -0.11016386149E+02 -0.29545683148E+02  0.47342773125E+01  0.31886071224E+02  0.00000000000E+00 0. -1.
         11    1    3    3    0    0  0.14468654171E+02  0.34815548495E+00 -0.11841198089E+02  0.18699656098E+02  0.51100000000E-03 0. -1.
        -11    1    3    3    0    0 -0.50015641715E+01  0.59207282948E+01 -0.92820820513E+01  0.12092465223E+02  0.51100000000E-03 0.  1.
        -12    1    3    3    0    0  0.15492961496E+01  0.23276799368E+02  0.16389002828E+02  0.28509807454E+02  0.00000000000E+00 0.  1.
</event>
<event>
 7    1  0.5832130E-012  0.5930193E+02  0.7816164E-02  0.1266605E+00
        -11   -1    0    0    0    0  0.00000000000E+00  0.00000000000E+00  0.45593999997E+02  0.45594000000E+02  0.51100000000E-03 0.  1.
         11   -1    0    0    0    0 -0.00000000000E+00 -0.00000000000E+00 -0.45593999997E+02  0.45594000000E+02  0.51100000000E-03 0. -1.
    9900012    2    1    2    0    0  0.16571325523E+02  0.21028228297E+02  0.17318372620E+02  0.59301933370E+02  0.49999980563E+02 0.  0.
         12    1    1    2    0    0 -0.16571325523E+02 -0.21028228297E+02 -0.17318372620E+02  0.31886066630E+02  0.00000000000E+00 0. -1.
         11    1    3    3    0    0 -0.11535667385E+01  0.13229464232E+02  0.62956945744E+01  0.14696435300E+02  0.51100000000E-03 0. -1.
        -11    1    3    3    0    0 -0.50217376346E+01  0.38712047344E+01  0.19119458995E+02  0.20143430381E+02  0.51100000000E-03 0.  1.
         12    1    3    3    0    0  0.22746629896E+02  0.39275593307E+01 -0.80967809493E+01  0.24462067690E+02  0.00000000000E+00 0. -1.
</event>
<event>
 7    1  0.5832130E-012  0.5930195E+02  0.7816164E-02  0.1266605E+00
        -11   -1    0    0    0    0  0.00000000000E+00  0.00000000000E+00  0.45593999997E+02  0.45594000000E+02  0.51100000000E-03 0.  1.
         11   -1    0    0    0    0 -0.00000000000E+00 -0.00000000000E+00 -0.45593999997E+02  0.45594000000E+02  0.51100000000E-03 0. -1.
    9900012    2    1    2    0    0 -0.55510407668E+01 -0.57680643031E+01  0.30864798795E+02  0.59301946246E+02  0.50000004045E+02 0.  0.
         12    1    1    2    0    0  0.55510407668E+01  0.57680643031E+01 -0.30864798795E+02  0.31886053754E+02  0.00000000000E+00 0. -1.
         11    1    3    3    0    0  0.79163395297E+01  0.24064764210E+01  0.19059494456E+02  0.20777966443E+02  0.51100000000E-03 0. -1.
        -11    1    3    3    0    0 -0.21926737201E+02  0.85099414523E+00  0.13903445428E+02  0.25977139764E+02  0.51100000000E-03 0.  1.
         12    1    3    3    0    0  0.84593569043E+01 -0.90255348693E+01 -0.20981410898E+01  0.12546840038E+02  0.00000000000E+00 0. -1.
</event>
<event>
 7    1  0.5832130E-012  0.5930191E+02  0.7816164E-02  0.1266605E+00
        -11   -1    0    0    0    0  0.00000000000E+00  0.00000000000E+00  0.45593999997E+02  0.45594000000E+02  0.51100000000E-03 0.  1.
         11   -1    0    0    0    0 -0.00000000000E+00 -0.00000000000E+00 -0.45593999997E+02  0.45594000000E+02  0.51100000000E-03 0. -1.
    9900012    2    1    2    0    0  0.19470615052E+02  0.84719330403E+01  0.23787486381E+02  0.59301905722E+02  0.49999930140E+02 0.  0.
         12    1    1    2    0    0 -0.19470615052E+02 -0.84719330403E+01 -0.23787486381E+02  0.31886094278E+02  0.00000000000E+00 0. -1.
         11    1    3    3    0    0  0.16931363413E+01 -0.81868704240E+01  0.89021157859E+01  0.12212257111E+02  0.51100000000E-03 0.  1.
        -11    1    3    3    0    0  0.27950553247E+02  0.52631562823E+01  0.49560875208E+01  0.28870348883E+02  0.51100000000E-03 0. -1.
         12    1    3    3    0    0 -0.10173074536E+02  0.11395647182E+02  0.99292830745E+01  0.18219299728E+02  0.00000000000E+00 0. -1.
</event>
<event>
 7    1  0.5832130E-012  0.5930194E+02  0.7816164E-02  0.1266605E+00
        -11   -1    0    0    0    0  0.00000000000E+00  0.00000000000E+00  0.45593999997E+02  0.45594000000E+02  0.51100000000E-03 0.  1.
         11   -1    0    0    0    0 -0.00000000000E+00 -0.00000000000E+00 -0.45593999997E+02  0.45594000000E+02  0.51100000000E-03 0. -1.
    9900012    2    1    2    0    0  0.86904941505E+01 -0.18648737370E+02  0.24360226947E+02  0.59301941119E+02  0.49999994695E+02 0.  0.
         12    1    1    2    0    0 -0.86904941505E+01  0.18648737370E+02 -0.24360226947E+02  0.31886058881E+02  0.00000000000E+00 0. -1.
         11    1    3    3    0    0  0.97388648179E+01 -0.17595727031E+01  0.55174309727E+01  0.11330649974E+02  0.51100000000E-03 0. -1.
        -11    1    3    3    0    0 -0.36074032901E+01 -0.25985268251E+02  0.25363563589E+02  0.36490517710E+02  0.51100000000E-03 0.  1.
         12    1    3    3    0    0  0.25590326227E+01  0.90961035836E+01 -0.65207676149E+01  0.11480773435E+02  0.00000000000E+00 0. -1.
</event>
<event>
 7    1  0.5832130E-012  0.5930194E+02  0.7816164E-02  0.1266605E+00
        -11   -1    0    0    0    0  0.00000000000E+00  0.00000000000E+00  0.45593999997E+02  0.45594000000E+02  0.51100000000E-03 0. -1.
         11   -1    0    0    0    0 -0.00000000000E+00 -0.00000000000E+00 -0.45593999997E+02  0.45594000000E+02  0.51100000000E-03 0.  1.
    9900012    2    1    2    0    0  0.19208876201E+01  0.25137314016E+02 -0.19522974650E+02  0.59301938714E+02  0.49999990308E+02 0.  0.
         12    1    1    2    0    0 -0.19208876201E+01 -0.25137314016E+02  0.19522974650E+02  0.31886061286E+02  0.00000000000E+00 0. -1.
         11    1    3    3    0    0 -0.77885751138E+01  0.10531876989E+02 -0.13217393750E+01  0.13165459751E+02  0.51100000000E-03 0. -1.
        -11    1    3    3    0    0 -0.12341648153E+02  0.14434172154E+02 -0.27012245401E+01  0.19182237074E+02  0.51100000000E-03 0.  1.
         12    1    3    3    0    0  0.22051110887E+02  0.17126487323E+00 -0.15500010735E+02  0.26954241889E+02  0.00000000000E+00 0. -1.
</event>
<event>
 7    1  0.5832130E-012  0.5930187E+02  0.7816164E-02  0.1266605E+00
        -11   -1    0    0    0    0  0.00000000000E+00  0.00000000000E+00  0.45593999997E+02  0.45594000000E+02  0.51100000000E-03 0.  1.
         11   -1    0    0    0    0 -0.00000000000E+00 -0.00000000000E+00 -0.45593999997E+02  0.45594000000E+02  0.51100000000E-03 0. -1.
    9900012    2    1    2    0    0 -0.46767758933E+01  0.34936170736E+01  0.31347207015E+02  0.59301874794E+02  0.49999873734E+02 0.  0.
         12    1    1    2    0    0  0.46767758933E+01 -0.34936170736E+01 -0.31347207015E+02  0.31886125206E+02  0.00000000000E+00 0. -1.
         11    1    3    3    0    0  0.77934698866E+01  0.53956764463E+01  0.11615350519E+02  0.14992260174E+02  0.51100000000E-03 0. -1.
        -11    1    3    3    0    0  0.10940267187E+02 -0.60944108608E+01  0.15868623830E+02  0.20214957640E+02  0.51100000000E-03 0.  1.
         12    1    3    3    0    0 -0.23410512967E+02  0.41923514881E+01  0.38632326663E+01  0.24094656980E+02  0.00000000000E+00 0. -1.
</event>
<event>
 7    1  0.5832130E-012  0.5930191E+02  0.7816164E-02  0.1266605E+00
        -11   -1    0    0    0    0  0.00000000000E+00  0.00000000000E+00  0.45593999997E+02  0.45594000000E+02  0.51100000000E-03 0.  1.
         11   -1    0    0    0    0 -0.00000000000E+00 -0.00000000000E+00 -0.45593999997E+02  0.45594000000E+02  0.51100000000E-03 0. -1.
    9900012    2    1    2    0    0 -0.81893852186E+01 -0.25585564935E+02  0.17176601020E+02  0.59301909210E+02  0.49999936500E+02 0.  0.
         12    1    1    2    0    0  0.81893852186E+01  0.25585564935E+02 -0.17176601020E+02  0.31886090790E+02  0.00000000000E+00 0. -1.
         11    1    3    3    0    0  0.11825454705E+02 -0.39054576371E+01  0.10590890880E+01  0.12498625856E+02  0.51100000000E-03 0. -1.
        -11    1    3    3    0    0  0.24730522082E+01 -0.20551963923E+02  0.35037266163E+01  0.20994649527E+02  0.51100000000E-03 0.  1.
         12    1    3    3    0    0 -0.22487892132E+02 -0.11281433753E+01  0.12613785316E+02  0.25808633826E+02  0.00000000000E+00 0. -1.
</event>
<event>
 7    1  0.5832130E-012  0.5930195E+02  0.7816164E-02  0.1266605E+00
        -11   -1    0    0    0    0  0.00000000000E+00  0.00000000000E+00  0.45593999997E+02  0.45594000000E+02  0.51100000000E-03 0. -1.
         11   -1    0    0    0    0 -0.00000000000E+00 -0.00000000000E+00 -0.45593999997E+02  0.45594000000E+02  0.51100000000E-03 0.  1.
    9900012    2    1    2    0    0  0.19488721918E+02 -0.34190601478E+01 -0.25004394609E+02  0.59301952831E+02  0.50000016055E+02 0.  0.
         12    1    1    2    0    0 -0.19488721918E+02  0.34190601478E+01  0.25004394609E+02  0.31886047169E+02  0.00000000000E+00 0. -1.
         11    1    3    3    0    0  0.10889430594E+02 -0.14736390146E+02  0.12367488041E+01  0.18364924206E+02  0.51100000000E-03 0. -1.
        -11    1    3    3    0    0  0.14876841547E+02 -0.33664435733E+01 -0.10529249226E+02  0.18534250626E+02  0.51100000000E-03 0.  1.
        -12    1    3    3    0    0 -0.62775502229E+01  0.14683773572E+02 -0.15711894187E+02  0.22402777999E+02  0.00000000000E+00 0.  1.
</event>
<event>
 7    1  0.5832130E-012  0.5930211E+02  0.7816164E-02  0.1266604E+00
        -11   -1    0    0    0    0  0.00000000000E+00  0.00000000000E+00  0.45593999997E+02  0.45594000000E+02  0.51100000000E-03 0. -1.
         11   -1    0    0    0    0 -0.00000000000E+00 -0.00000000000E+00 -0.45593999997E+02  0.45594000000E+02  0.51100000000E-03 0.  1.
    9900012    2    1    2    0    0 -0.36637910750E+01 -0.28133883555E+02 -0.14552367508E+02  0.59302107053E+02  0.50000297318E+02 0.  0.
         12    1    1    2    0    0  0.36637910750E+01  0.28133883555E+02  0.14552367508E+02  0.31885892947E+02  0.00000000000E+00 0. -1.
         11    1    3    3    0    0  0.18067852746E+01 -0.90784556746E+01  0.28398535934E+00  0.92608573258E+01  0.51100000000E-03 0. -1.
        -11    1    3    3    0    0  0.15141112370E+02 -0.62570973389E+01  0.66033699199E+01  0.17663777780E+02  0.51100000000E-03 0.  1.
        -12    1    3    3    0    0 -0.20611688719E+02 -0.12798330541E+02 -0.21439722788E+02  0.32377471947E+02  0.00000000000E+00 0.  1.
</event>
<event>
 7    1  0.5832130E-012  0.5930189E+02  0.7816164E-02  0.1266605E+00
        -11   -1    0    0    0    0  0.00000000000E+00  0.00000000000E+00  0.45593999997E+02  0.45594000000E+02  0.51100000000E-03 0.  1.
         11   -1    0    0    0    0 -0.00000000000E+00 -0.00000000000E+00 -0.45593999997E+02  0.45594000000E+02  0.51100000000E-03 0. -1.
    9900012    2    1    2    0    0 -0.16791309073E+02  0.18138059560E+02  0.20144151244E+02  0.59301888692E+02  0.49999899081E+02 0.  0.
         12    1    1    2    0    0  0.16791309073E+02 -0.18138059560E+02 -0.20144151244E+02  0.31886111308E+02  0.00000000000E+00 0. -1.
         11    1    3    3    0    0 -0.12780327877E+02 -0.98312459197E+01  0.14508806409E+02  0.21690911476E+02  0.51100000000E-03 0. -1.
        -11    1    3    3    0    0 -0.13856846409E+02  0.11548474404E+02  0.25528495550E+01  0.18218026638E+02  0.51100000000E-03 0.  1.
         12    1    3    3    0    0  0.98458652123E+01  0.16420831076E+02  0.30824952795E+01  0.19392950579E+02  0.00000000000E+00 0. -1.
</event>
<event>
 7    1  0.5832130E-012  0.5930191E+02  0.7816164E-02  0.1266605E+00
        -11   -1    0    0    0    0  0.00000000000E+00  0.00000000000E+00  0.45593999997E+02  0.45594000000E+02  0.51100000000E-03 0.  1.
         11   -1    0    0    0    0 -0.00000000000E+00 -0.00000000000E+00 -0.45593999997E+02  0.45594000000E+02  0.51100000000E-03 0. -1.
    9900012    2    1    2    0    0 -0.21819281224E+01  0.21549724293E+02  0.23400239554E+02  0.59301911519E+02  0.49999940712E+02 0.  0.
         12    1    1    2    0    0  0.21819281224E+01 -0.21549724293E+02 -0.23400239554E+02  0.31886088481E+02  0.00000000000E+00 0. -1.
         11    1    3    3    0    0 -0.48233272703E+01  0.32340388238E+01 -0.48088422784E+01  0.75397916012E+01  0.51100000000E-03 0. -1.
        -11    1    3    3    0    0  0.13698371925E+01 -0.11286971756E+02  0.16198383746E+02  0.19790397207E+02  0.51100000000E-03 0.  1.
         12    1    3    3    0    0  0.12715619554E+01  0.29602657225E+02  0.12010698086E+02  0.31971722711E+02  0.00000000000E+00 0. -1.
</event>
<event>
 7    1  0.5832130E-012  0.5930194E+02  0.7816164E-02  0.1266605E+00
        -11   -1    0    0    0    0  0.00000000000E+00  0.00000000000E+00  0.45593999997E+02  0.45594000000E+02  0.51100000000E-03 0.  1.
         11   -1    0    0    0    0 -0.00000000000E+00 -0.00000000000E+00 -0.45593999997E+02  0.45594000000E+02  0.51100000000E-03 0. -1.
    9900012    2    1    2    0    0 -0.71011858499E+01 -0.15928867111E+02 -0.26693916917E+02  0.59301939593E+02  0.49999991912E+02 0.  0.
         12    1    1    2    0    0  0.71011858499E+01  0.15928867111E+02  0.26693916917E+02  0.31886060407E+02  0.00000000000E+00 0. -1.
         11    1    3    3    0    0  0.38504633444E+01 -0.12287375004E+02  0.19726732466E+01  0.13026783657E+02  0.51100000000E-03 0. -1.
        -11    1    3    3    0    0 -0.94626042175E+01 -0.14267664370E+02 -0.16427116859E+01  0.17199000759E+02  0.51100000000E-03 0.  1.
         12    1    3    3    0    0 -0.14890449768E+01  0.10626172263E+02 -0.27023878477E+02  0.29076155177E+02  0.00000000000E+00 0. -1.
</event>
<event>
 7    1  0.5832130E-012  0.5930194E+02  0.7816164E-02  0.1266605E+00
        -11   -1    0    0    0    0  0.00000000000E+00  0.00000000000E+00  0.45593999997E+02  0.45594000000E+02  0.51100000000E-03 0. -1.
         11   -1    0    0    0    0 -0.00000000000E+00 -0.00000000000E+00 -0.45593999997E+02  0.45594000000E+02  0.51100000000E-03 0.  1.
    9900012    2    1    2    0    0 -0.14135216766E+02 -0.10192422428E+02 -0.26702645602E+02  0.59301935487E+02  0.49999984424E+02 0.  0.
         12    1    1    2    0    0  0.14135216766E+02  0.10192422428E+02  0.26702645602E+02  0.31886064513E+02  0.00000000000E+00 0. -1.
         11    1    3    3    0    0  0.97735024363E+01 -0.26823382188E+01  0.21522843589E+00  0.10137189538E+02  0.51100000000E-03 0. -1.
        -11    1    3    3    0    0 -0.11388396947E+02 -0.56563103570E+01  0.58800157293E+01  0.14009426009E+02  0.51100000000E-03 0.  1.
        -12    1    3    3    0    0 -0.12520322255E+02 -0.18537738525E+01 -0.32797889767E+02  0.35155319940E+02  0.00000000000E+00 0.  1.
</event>
<event>
 7    1  0.5832130E-012  0.5930200E+02  0.7816164E-02  0.1266605E+00
        -11   -1    0    0    0    0  0.00000000000E+00  0.00000000000E+00  0.45593999997E+02  0.45594000000E+02  0.51100000000E-03 0. -1.
         11   -1    0    0    0    0 -0.00000000000E+00 -0.00000000000E+00 -0.45593999997E+02  0.45594000000E+02  0.51100000000E-03 0.  1.
    9900012    2    1    2    0    0  0.21566067812E+02 -0.18482978942E+02  0.14491410075E+02  0.59302003742E+02  0.50000108904E+02 0.  0.
         12    1    1    2    0    0 -0.21566067812E+02  0.18482978942E+02 -0.14491410075E+02  0.31885996258E+02  0.00000000000E+00 0. -1.
         11    1    3    3    0    0  0.26457071123E+02 -0.19393102973E+02 -0.28162956066E+01  0.32924164022E+02  0.51100000000E-03 0. -1.
        -11    1    3    3    0    0  0.18514288559E+01  0.48901020824E+01 -0.19568625554E+01  0.55830277185E+01  0.51100000000E-03 0.  1.
         12    1    3    3    0    0 -0.67424321674E+01 -0.39799780520E+01  0.19264568237E+02  0.20794812001E+02  0.00000000000E+00 0. -1.
</event>
<event>
 7    1  0.5832130E-012  0.5930207E+02  0.7816164E-02  0.1266604E+00
        -11   -1    0    0    0    0  0.00000000000E+00  0.00000000000E+00  0.45593999997E+02  0.45594000000E+02  0.51100000000E-03 0.  1.
         11   -1    0    0    0    0 -0.00000000000E+00 -0.00000000000E+00 -0.45593999997E+02  0.45594000000E+02  0.51100000000E-03 0. -1.
    9900012    2    1    2    0    0  0.30752601903E+02 -0.78310914756E+01 -0.31087393436E+01  0.59302066145E+02  0.50000222712E+02 0.  0.
         12    1    1    2    0    0 -0.30752601903E+02  0.78310914756E+01  0.31087393436E+01  0.31885933855E+02  0.00000000000E+00 0. -1.
         11    1    3    3    0    0 -0.66431986883E-01  0.56494879556E+01 -0.10951811919E+01  0.57550455666E+01  0.51100000000E-03 0. -1.
        -11    1    3    3    0    0  0.23064474043E+02  0.90061626157E+01  0.10234829290E+02  0.26792399272E+02  0.51100000000E-03 0.  1.
        -12    1    3    3    0    0  0.77545598475E+01 -0.22486742047E+02 -0.12248387441E+02  0.26754621306E+02  0.00000000000E+00 0.  1.
</event>
<event>
 7    1  0.5832130E-012  0.5930192E+02  0.7816164E-02  0.1266605E+00
        -11   -1    0    0    0    0  0.00000000000E+00  0.00000000000E+00  0.45593999997E+02  0.45594000000E+02  0.51100000000E-03 0.  1.
         11   -1    0    0    0    0 -0.00000000000E+00 -0.00000000000E+00 -0.45593999997E+02  0.45594000000E+02  0.51100000000E-03 0. -1.
    9900012    2    1    2    0    0  0.19350506822E+01 -0.26118707816E+02  0.18187652435E+02  0.59301921216E+02  0.49999958397E+02 0.  0.
         12    1    1    2    0    0 -0.19350506822E+01  0.26118707816E+02 -0.18187652435E+02  0.31886078784E+02  0.00000000000E+00 0. -1.
         11    1    3    3    0    0  0.39399803303E+01  0.68289165835E+01  0.13813778130E+02  0.15905282557E+02  0.51100000000E-03 0. -1.
        -11    1    3    3    0    0 -0.35886371695E+01 -0.23546691893E+02  0.15749299795E+02  0.28554604885E+02  0.51100000000E-03 0.  1.
        -12    1    3    3    0    0  0.15837075215E+01 -0.94009325065E+01 -0.11375425489E+02  0.14842033775E+02  0.00000000000E+00 0.  1.
</event>
<event>
 7    1  0.5832130E-012  0.5930194E+02  0.7816164E-02  0.1266605E+00
        -11   -1    0    0    0    0  0.00000000000E+00  0.00000000000E+00  0.45593999997E+02  0.45594000000E+02  0.51100000000E-03 0.  1.
         11   -1    0    0    0    0 -0.00000000000E+00 -0.00000000000E+00 -0.45593999997E+02  0.45594000000E+02  0.51100000000E-03 0. -1.
    9900012    2    1    2    0    0  0.12522553366E+02  0.29298896848E+02  0.12170224822E+01  0.59301939675E+02  0.49999992062E+02 0.  0.
         12    1    1    2    0    0 -0.12522553366E+02 -0.29298896848E+02 -0.12170224822E+01  0.31886060325E+02  0.00000000000E+00 0. -1.
         11    1    3    3    0    0 -0.56045350298E+01 -0.88818802329E+00 -0.92461534603E+01  0.10848550361E+02  0.51100000000E-03 0. -1.
        -11    1    3    3    0    0  0.11601348167E+02  0.66759263487E+01 -0.99195759807E+01  0.16660049814E+02  0.51100000000E-03 0.  1.
        -12    1    3    3    0    0  0.65257402289E+01  0.23511158523E+02  0.20382751923E+02  0.31793339500E+02  0.00000000000E+00 0.  1.
</event>
<event>
 7    1  0.5832130E-012  0.5930194E+02  0.7816164E-02  0.1266605E+00
        -11   -1    0    0    0    0  0.00000000000E+00  0.00000000000E+00  0.45593999997E+02  0.45594000000E+02  0.51100000000E-03 0.  1.
         11   -1    0    0    0    0 -0.00000000000E+00 -0.00000000000E+00 -0.45593999997E+02  0.45594000000E+02  0.51100000000E-03 0. -1.
    9900012    2    1    2    0    0 -0.11557925542E+02  0.93500057386E+00  0.29702881720E+02  0.59301936408E+02  0.49999986104E+02 0.  0.
         12    1    1    2    0    0  0.11557925542E+02 -0.93500057386E+00 -0.29702881720E+02  0.31886063592E+02  0.00000000000E+00 0. -1.
         11    1    3    3    0    0 -0.74594714602E+01 -0.90316648193E+01 -0.14517651506E+01  0.11803487035E+02  0.51100000000E-03 0. -1.
        -11    1    3    3    0    0  0.53421139095E+01 -0.11075487337E+02  0.14712897548E+02  0.19174826083E+02  0.51100000000E-03 0.  1.
        -12    1    3    3    0    0 -0.94405679914E+01  0.21042152730E+02  0.16441749322E+02  0.28323623290E+02  0.00000000000E+00 0.  1.
</event>
<event>
 7    1  0.5832130E-012  0.5930228E+02  0.7816164E-02  0.1266604E+00
        -11   -1    0    0    0    0  0.00000000000E+00  0.00000000000E+00  0.45593999997E+02  0.45594000000E+02  0.51100000000E-03 0. -1.
         11   -1    0    0    0    0 -0.00000000000E+00 -0.00000000000E+00 -0.45593999997E+02  0.45594000000E+02  0.51100000000E-03 0.  1.
    9900012    2    1    2    0    0 -0.14361404978E+02  0.14095067837E+02 -0.24734151390E+02  0.59302280074E+02  0.50000612863E+02 0.  0.
         12    1    1    2    0    0  0.14361404978E+02 -0.14095067837E+02  0.24734151390E+02  0.31885719926E+02  0.00000000000E+00 0. -1.
         11    1    3    3    0    0 -0.28406207604E+02  0.12396667564E+02 -0.64483419081E+01  0.31657086265E+02  0.51100000000E-03 0. -1.
        -11    1    3    3    0    0 -0.21879104452E+01  0.23168907359E+00  0.98110712492E+00  0.24089838926E+01  0.51100000000E-03 0.  1.
        -12    1    3    3    0    0  0.16232713072E+02  0.14667112000E+01 -0.19266916606E+02  0.25236209916E+02  0.00000000000E+00 0.  1.
</event>
<event>
 7    1  0.5832130E-012  0.5930193E+02  0.7816164E-02  0.1266605E+00
        -11   -1    0    0    0    0  0.00000000000E+00  0.00000000000E+00  0.45593999997E+02  0.45594000000E+02  0.51100000000E-03 0.  1.
         11   -1    0    0    0    0 -0.00000000000E+00 -0.00000000000E+00 -0.45593999997E+02  0.45594000000E+02  0.51100000000E-03 0. -1.
    9900012    2    1    2    0    0 -0.25046152510E+02 -0.19184272736E+02 -0.46233297382E+01  0.59301933233E+02  0.49999980314E+02 0.  0.
         12    1    1    2    0    0  0.25046152510E+02  0.19184272736E+02  0.46233297382E+01  0.31886066767E+02  0.00000000000E+00 0. -1.
         11    1    3    3    0    0 -0.33511235049E+01 -0.32455842604E+01  0.15448498853E+02  0.16137532743E+02  0.51100000000E-03 0. -1.
        -11    1    3    3    0    0 -0.13988002214E+02 -0.20107525895E+02 -0.39438950574E+01  0.24809899477E+02  0.51100000000E-03 0.  1.
        -12    1    3    3    0    0 -0.77070267916E+01  0.41688374196E+01 -0.16127933534E+02  0.18354501014E+02  0.00000000000E+00 0.  1.
</event>
<event>
 7    1  0.5832130E-012  0.5930195E+02  0.7816164E-02  0.1266605E+00
        -11   -1    0    0    0    0  0.00000000000E+00  0.00000000000E+00  0.45593999997E+02  0.45594000000E+02  0.51100000000E-03 0.  1.
         11   -1    0    0    0    0 -0.00000000000E+00 -0.00000000000E+00 -0.45593999997E+02  0.45594000000E+02  0.51100000000E-03 0. -1.
    9900012    2    1    2    0    0  0.20555118844E+02  0.16215229885E+01  0.24322368822E+02  0.59301954892E+02  0.50000019815E+02 0.  0.
         12    1    1    2    0    0 -0.20555118844E+02 -0.16215229885E+01 -0.24322368822E+02  0.31886045108E+02  0.00000000000E+00 0. -1.
         11    1    3    3    0    0 -0.73006074390E+01  0.76071628947E+00  0.10020567080E+02  0.12421325336E+02  0.51100000000E-03 0. -1.
        -11    1    3    3    0    0  0.22141364089E+02  0.70918038274E+01  0.24405001892E+02  0.33706643304E+02  0.51100000000E-03 0.  1.
         12    1    3    3    0    0  0.57143621944E+01 -0.62309971284E+01 -0.10103200150E+02  0.13173986252E+02  0.00000000000E+00 0. -1.
</event>
<event>
 7    1  0.5832130E-012  0.5930195E+02  0.7816164E-02  0.1266605E+00
        -11   -1    0    0    0    0  0.00000000000E+00  0.00000000000E+00  0.45593999997E+02  0.45594000000E+02  0.51100000000E-03 0.  1.
         11   -1    0    0    0    0 -0.00000000000E+00 -0.00000000000E+00 -0.45593999997E+02  0.45594000000E+02  0.51100000000E-03 0. -1.
    9900012    2    1    2    0    0  0.22080913256E+02 -0.60721833436E+01  0.22187429214E+02  0.59301950450E+02  0.50000011713E+02 0.  0.
         12    1    1    2    0    0 -0.22080913256E+02  0.60721833436E+01 -0.22187429214E+02  0.31886049550E+02  0.00000000000E+00 0. -1.
         11    1    3    3    0    0  0.11369168034E+02 -0.97135374683E+01  0.83612063973E+01  0.17132441875E+02  0.51100000000E-03 0. -1.
        -11    1    3    3    0    0  0.23356424108E+02  0.77014714020E+01  0.15049652245E+02  0.28832745999E+02  0.51100000000E-03 0.  1.
         12    1    3    3    0    0 -0.12644678886E+02 -0.40601172773E+01 -0.12234294279E+01  0.13336762576E+02  0.00000000000E+00 0. -1.
</event>
<event>
 7    1  0.5832130E-012  0.5930194E+02  0.7816164E-02  0.1266605E+00
        -11   -1    0    0    0    0  0.00000000000E+00  0.00000000000E+00  0.45593999997E+02  0.45594000000E+02  0.51100000000E-03 0. -1.
         11   -1    0    0    0    0 -0.00000000000E+00 -0.00000000000E+00 -0.45593999997E+02  0.45594000000E+02  0.51100000000E-03 0.  1.
    9900012    2    1    2    0    0 -0.23823384994E+02 -0.20408062947E+02  0.57164770457E+01  0.59301940105E+02  0.49999992847E+02 0.  0.
         12    1    1    2    0    0  0.23823384994E+02  0.20408062947E+02 -0.57164770457E+01  0.31886059895E+02  0.00000000000E+00 0. -1.
         11    1    3    3    0    0 -0.26460777095E+02 -0.12332867082E+02  0.82525532536E+01  0.30337715312E+02  0.51100000000E-03 0. -1.
        -11    1    3    3    0    0 -0.16086843266E+01 -0.16868248285E+02 -0.68656199525E+01  0.18282844501E+02  0.51100000000E-03 0.  1.
         12    1    3    3    0    0  0.42460764275E+01  0.87930524205E+01  0.43295437446E+01  0.10681380292E+02  0.00000000000E+00 0. -1.
</event>
<event>
 7    1  0.5832130E-012  0.5930195E+02  0.7816164E-02  0.1266605E+00
        -11   -1    0    0    0    0  0.00000000000E+00  0.00000000000E+00  0.45593999997E+02  0.45594000000E+02  0.51100000000E-03 0.  1.
         11   -1    0    0    0    0 -0.00000000000E+00 -0.00000000000E+00 -0.45593999997E+02  0.45594000000E+02  0.51100000000E-03 0. -1.
    9900012    2    1    2    0    0  0.19503574687E+02  0.21031195349E+02 -0.13929089058E+02  0.59301950930E+02  0.50000012587E+02 0.  0.
         12    1    1    2    0    0 -0.19503574687E+02 -0.21031195349E+02  0.13929089058E+02  0.31886049070E+02  0.00000000000E+00 0. -1.
         11    1    3    3    0    0  0.60281413334E+01 -0.80899623275E+01 -0.21367963128E+01  0.10312704647E+02  0.51100000000E-03 0. -1.
        -11    1    3    3    0    0  0.21024876234E+02  0.10947734475E+02  0.36381074092E+01  0.23981954394E+02  0.51100000000E-03 0.  1.
         12    1    3    3    0    0 -0.75494428809E+01  0.18173423201E+02 -0.15430400154E+02  0.25007291888E+02  0.00000000000E+00 0. -1.
</event>
<event>
 7    1  0.5832130E-012  0.5930194E+02  0.7816164E-02  0.1266605E+00
        -11   -1    0    0    0    0  0.00000000000E+00  0.00000000000E+00  0.45593999997E+02  0.45594000000E+02  0.51100000000E-03 0.  1.
         11   -1    0    0    0    0 -0.00000000000E+00 -0.00000000000E+00 -0.45593999997E+02  0.45594000000E+02  0.51100000000E-03 0. -1.
    9900012    2    1    2    0    0 -0.77976987261E+01  0.30909536347E+02 -0.71911261126E+00  0.59301942458E+02  0.49999997138E+02 0.  0.
         12    1    1    2    0    0  0.77976987261E+01 -0.30909536347E+02  0.71911261126E+00  0.31886057542E+02  0.00000000000E+00 0. -1.
         11    1    3    3    0    0  0.13488132903E+02  0.84442113717E+01 -0.88631485778E+01  0.18215099173E+02  0.51100000000E-03 0. -1.
        -11    1    3    3    0    0 -0.11143397268E+02  0.13656434485E+02  0.17404334329E+02  0.24770635019E+02  0.51100000000E-03 0.  1.
         12    1    3    3    0    0 -0.10142434361E+02  0.88088904904E+01 -0.92602983630E+01  0.16316208267E+02  0.00000000000E+00 0. -1.
</event>
<event>
 7    1  0.5832130E-012  0.5930213E+02  0.7816164E-02  0.1266604E+00
        -11   -1    0    0    0    0  0.00000000000E+00  0.00000000000E+00  0.45593999997E+02  0.45594000000E+02  0.51100000000E-03 0.  1.
         11   -1    0    0    0    0 -0.00000000000E+00 -0.00000000000E+00 -0.45593999997E+02  0.45594000000E+02  0.51100000000E-03 0. -1.
    9900012    2    1    2    0    0  0.76454247541E+01 -0.50773066592E+01  0.30536490417E+02  0.59302128371E+02  0.50000336196E+02 0.  0.
         12    1    1    2    0    0 -0.76454247541E+01  0.50773066592E+01 -0.30536490417E+02  0.31885871629E+02  0.00000000000E+00 0. -1.
         11    1    3    3    0    0 -0.66719113669E+00  0.11932071569E+02  0.19672163781E+01  0.12111540632E+02  0.51100000000E-03 0. -1.
        -11    1    3    3    0    0 -0.10274136412E+02  0.99073611707E+00  0.14320013554E+02  0.17652258369E+02  0.51100000000E-03 0.  1.
        -12    1    3    3    0    0  0.18586752303E+02 -0.18000114345E+02  0.14249260485E+02  0.29538329370E+02  0.00000000000E+00 0.  1.
</event>
<event>
 7    1  0.5832130E-012  0.5930197E+02  0.7816164E-02  0.1266605E+00
        -11   -1    0    0    0    0  0.00000000000E+00  0.00000000000E+00  0.45593999997E+02  0.45594000000E+02  0.51100000000E-03 0.  1.
         11   -1    0    0    0    0 -0.00000000000E+00 -0.00000000000E+00 -0.45593999997E+02  0.45594000000E+02  0.51100000000E-03 0. -1.
    9900012    2    1    2    0    0  0.56494886038E+01  0.30919493439E+02 -0.53653805475E+01  0.59301966938E+02  0.50000041783E+02 0.  0.
         12    1    1    2    0    0 -0.56494886038E+01 -0.30919493439E+02  0.53653805475E+01  0.31886033062E+02  0.00000000000E+00 0. -1.
         11    1    3    3    0    0 -0.51893297899E+00  0.62639933667E+01 -0.84238255439E+01  0.10510363523E+02  0.51100000000E-03 0. -1.
        -11    1    3    3    0    0  0.55996662503E+01  0.31026401826E+02 -0.10963645970E+02  0.33379565689E+02  0.51100000000E-03 0.  1.
         12    1    3    3    0    0  0.56875533249E+00 -0.63709017539E+01  0.14022090966E+02  0.15412037725E+02  0.00000000000E+00 0. -1.
</event>
<event>
 7    1  0.5832130E-012  0.5930196E+02  0.7816164E-02  0.1266605E+00
        -11   -1    0    0    0    0  0.00000000000E+00  0.00000000000E+00  0.45593999997E+02  0.45594000000E+02  0.51100000000E-03 0.  1.
         11   -1    0    0    0    0 -0.00000000000E+00 -0.00000000000E+00 -0.45593999997E+02  0.45594000000E+02  0.51100000000E-03 0. -1.
    9900012    2    1    2    0    0 -0.64497936916E+01 -0.63128460044E+01  0.30582148703E+02  0.59301957871E+02  0.50000025247E+02 0.  0.
         12    1    1    2    0    0  0.64497936916E+01  0.63128460044E+01 -0.30582148703E+02  0.31886042129E+02  0.00000000000E+00 0. -1.
         11    1    3    3    0    0 -0.61924782709E+01 -0.14675491668E+02  0.48363778095E+01  0.16646542987E+02  0.51100000000E-03 0. -1.
        -11    1    3    3    0    0 -0.74074266205E+01 -0.95434333742E+00  0.29417243223E+02  0.30350534418E+02  0.51100000000E-03 0.  1.
        -12    1    3    3    0    0  0.71501111998E+01  0.93169890014E+01 -0.36714723292E+01  0.12304880466E+02  0.00000000000E+00 0.  1.
</event>
<event>
 7    1  0.5832130E-012  0.5930191E+02  0.7816164E-02  0.1266605E+00
        -11   -1    0    0    0    0  0.00000000000E+00  0.00000000000E+00  0.45593999997E+02  0.45594000000E+02  0.51100000000E-03 0. -1.
         11   -1    0    0    0    0 -0.00000000000E+00 -0.00000000000E+00 -0.45593999997E+02  0.45594000000E+02  0.51100000000E-03 0.  1.
    9900012    2    1    2    0    0 -0.25923605435E+02 -0.10019688484E+02 -0.15629955135E+02  0.59301906267E+02  0.49999931133E+02 0.  0.
         12    1    1    2    0    0  0.25923605435E+02  0.10019688484E+02  0.15629955135E+02  0.31886093733E+02  0.00000000000E+00 0. -1.
         11    1    3    3    0    0 -0.17352348153E+02 -0.16288389221E+02  0.15230845913E+01  0.23848173867E+02  0.51100000000E-03 0. -1.
        -11    1    3    3    0    0 -0.18052602859E+01 -0.96337918619E+01 -0.15166378025E+02  0.18057905000E+02  0.51100000000E-03 0.  1.
         12    1    3    3    0    0 -0.67659969955E+01  0.15902492599E+02 -0.19866617014E+01  0.17395827400E+02  0.00000000000E+00 0. -1.
</event>
<event>
 7    1  0.5832130E-012  0.5930201E+02  0.7816164E-02  0.1266605E+00
        -11   -1    0    0    0    0  0.00000000000E+00  0.00000000000E+00  0.45593999997E+02  0.45594000000E+02  0.51100000000E-03 0.  1.
         11   -1    0    0    0    0 -0.00000000000E+00 -0.00000000000E+00 -0.45593999997E+02  0.45594000000E+02  0.51100000000E-03 0. -1.
    9900012    2    1    2    0    0  0.82701272688E+01 -0.76583051495E+01  0.29827361393E+02  0.59302013572E+02  0.50000126833E+02 0.  0.
         12    1    1    2    0    0 -0.82701272688E+01  0.76583051495E+01 -0.29827361393E+02  0.31885986428E+02  0.00000000000E+00 0. -1.
         11    1    3    3    0    0  0.19401636134E+02 -0.91040351533E+01  0.51995132610E+01  0.22053160299E+02  0.51100000000E-03 0. -1.
        -11    1    3    3    0    0 -0.32742428944E+01 -0.11167249927E+02  0.50897201827E+01  0.12701708124E+02  0.51100000000E-03 0.  1.
        -12    1    3    3    0    0 -0.78572659706E+01  0.12612979931E+02  0.19538127949E+02  0.24547145150E+02  0.00000000000E+00 0.  1.
</event>
<event>
 7    1  0.5832130E-012  0.5930193E+02  0.7816164E-02  0.1266605E+00
        -11   -1    0    0    0    0  0.00000000000E+00  0.00000000000E+00  0.45593999997E+02  0.45594000000E+02  0.51100000000E-03 0.  1.
         11   -1    0    0    0    0 -0.00000000000E+00 -0.00000000000E+00 -0.45593999997E+02  0.45594000000E+02  0.51100000000E-03 0. -1.
    9900012    2    1    2    0    0  0.16770327294E+02  0.14336722475E+02  0.23020339663E+02  0.59301928949E+02  0.49999972500E+02 0.  0.
         12    1    1    2    0    0 -0.16770327294E+02 -0.14336722475E+02 -0.23020339663E+02  0.31886071051E+02  0.00000000000E+00 0. -1.
         11    1    3    3    0    0  0.71429498498E+01  0.83276362457E+00  0.41266461879E+01  0.82912264975E+01  0.51100000000E-03 0. -1.
        -11    1    3    3    0    0  0.20386436111E+02  0.24556879150E+02  0.11729594982E+02  0.34003389384E+02  0.51100000000E-03 0.  1.
         12    1    3    3    0    0 -0.10759058667E+02 -0.11052920299E+02  0.71640984935E+01  0.17007313067E+02  0.00000000000E+00 0. -1.
</event>
<event>
 7    1  0.5832130E-012  0.5930198E+02  0.7816164E-02  0.1266605E+00
        -11   -1    0    0    0    0  0.00000000000E+00  0.00000000000E+00  0.45593999997E+02  0.45594000000E+02  0.51100000000E-03 0.  1.
         11   -1    0    0    0    0 -0.00000000000E+00 -0.00000000000E+00 -0.45593999997E+02  0.45594000000E+02  0.51100000000E-03 0. -1.
    9900012    2    1    2    0    0  0.85676458372E+01 -0.15435216184E+02  0.26553111703E+02  0.59301981199E+02  0.50000067791E+02 0.  0.
         12    1    1    2    0    0 -0.85676458372E+01  0.15435216184E+02 -0.26553111703E+02  0.31886018801E+02  0.00000000000E+00 0. -1.
         11    1    3    3    0    0 -0.16330799667E+02 -0.38292874327E+01  0.12605980422E+02  0.20982592849E+02  0.51100000000E-03 0. -1.
        -11    1    3    3    0    0  0.56697256173E+01 -0.15113945897E+02  0.60792461287E+01  0.17249184992E+02  0.51100000000E-03 0.  1.
         12    1    3    3    0    0  0.19228719886E+02  0.35080171452E+01  0.78678851522E+01  0.21070203358E+02  0.00000000000E+00 0. -1.
</event>
<event>
 7    1  0.5832130E-012  0.5930193E+02  0.7816164E-02  0.1266605E+00
        -11   -1    0    0    0    0  0.00000000000E+00  0.00000000000E+00  0.45593999997E+02  0.45594000000E+02  0.51100000000E-03 0. -1.
         11   -1    0    0    0    0 -0.00000000000E+00 -0.00000000000E+00 -0.45593999997E+02  0.45594000000E+02  0.51100000000E-03 0.  1.
    9900012    2    1    2    0    0 -0.22431043379E+02  0.23010922122E+01 -0.22544955436E+02  0.59301925484E+02  0.49999966180E+02 0.  0.
         12    1    1    2    0    0  0.22431043379E+02 -0.23010922122E+01  0.22544955436E+02  0.31886074516E+02  0.00000000000E+00 0. -1.
         11    1    3    3    0    0 -0.16498289813E+02  0.14435705328E+01 -0.12230161404E+01  0.16606421390E+02  0.51100000000E-03 0. -1.
        -11    1    3    3    0    0 -0.20799508405E+02  0.42768857688E+01 -0.89065701141E+01  0.23026903683E+02  0.51100000000E-03 0.  1.
        -12    1    3    3    0    0  0.14866754839E+02 -0.34193640894E+01 -0.12415369181E+02  0.19668600411E+02  0.00000000000E+00 0.  1.
</event>
<event>
 7    1  0.5832130E-012  0.5930195E+02  0.7816164E-02  0.1266605E+00
        -11   -1    0    0    0    0  0.00000000000E+00  0.00000000000E+00  0.45593999997E+02  0.45594000000E+02  0.51100000000E-03 0.  1.
         11   -1    0    0    0    0 -0.00000000000E+00 -0.00000000000E+00 -0.45593999997E+02  0.45594000000E+02  0.51100000000E-03 0. -1.
    9900012    2    1    2    0    0 -0.22126898836E+01 -0.44776832288E+01  0.31492450298E+02  0.59301951807E+02  0.50000014187E+02 0.  0.
         12    1    1    2    0    0  0.22126898836E+01  0.44776832288E+01 -0.31492450298E+02  0.31886048193E+02  0.00000000000E+00 0. -1.
         11    1    3    3    0    0 -0.68846610478E+01  0.14588231308E+02  0.72032913530E+01  0.17666421738E+02  0.51100000000E-03 0. -1.
        -11    1    3    3    0    0  0.92118400162E+01  0.23558051133E+01  0.15194907837E+02  0.17924648913E+02  0.51100000000E-03 0.  1.
        -12    1    3    3    0    0 -0.45398688520E+01 -0.21421719650E+02  0.90942511075E+01  0.23710881156E+02  0.00000000000E+00 0.  1.
</event>
<event>
 7    1  0.5832130E-012  0.5930197E+02  0.7816164E-02  0.1266605E+00
        -11   -1    0    0    0    0  0.00000000000E+00  0.00000000000E+00  0.45593999997E+02  0.45594000000E+02  0.51100000000E-03 0. -1.
         11   -1    0    0    0    0 -0.00000000000E+00 -0.00000000000E+00 -0.45593999997E+02  0.45594000000E+02  0.51100000000E-03 0.  1.
    9900012    2    1    2    0    0  0.22622222495E+02  0.14666650351E+02 -0.17024781379E+02  0.59301972274E+02  0.50000051515E+02 0.  0.
         12    1    1    2    0    0 -0.22622222495E+02 -0.14666650351E+02  0.17024781379E+02  0.31886027726E+02  0.00000000000E+00 0. -1.
         11    1    3    3    0    0  0.20487104783E+02  0.78277334631E+01 -0.24446845264E+02  0.32842702648E+02  0.51100000000E-03 0. -1.
        -11    1    3    3    0    0 -0.58911612858E+01  0.48425204765E+00 -0.67526088214E+01  0.89742970476E+01  0.51100000000E-03 0.  1.
         12    1    3    3    0    0  0.80262789970E+01  0.63546648402E+01  0.14174672706E+02  0.17484972579E+02  0.00000000000E+00 0. -1.
</event>
<event>
 7    1  0.5832130E-012  0.5930212E+02  0.7816164E-02  0.1266604E+00
        -11   -1    0    0    0    0  0.00000000000E+00  0.00000000000E+00  0.45593999997E+02  0.45594000000E+02  0.51100000000E-03 0. -1.
         11   -1    0    0    0    0 -0.00000000000E+00 -0.00000000000E+00 -0.45593999997E+02  0.45594000000E+02  0.51100000000E-03 0.  1.
    9900012    2    1    2    0    0 -0.25199772196E+02 -0.66750783011E+01 -0.18360936947E+02  0.59302122333E+02  0.50000325185E+02 0.  0.
         12    1    1    2    0    0  0.25199772196E+02  0.66750783011E+01  0.18360936947E+02  0.31885877667E+02  0.00000000000E+00 0. -1.
         11    1    3    3    0    0 -0.72906933608E+01 -0.11360711431E+02  0.11305292380E+02  0.17607657708E+02  0.51100000000E-03 0.  1.
        -11    1    3    3    0    0 -0.73297532349E+01 -0.81401124248E-01  0.23038224316E+01  0.76837169836E+01  0.51100000000E-03 0. -1.
        -12    1    3    3    0    0 -0.10579325600E+02  0.47670342541E+01 -0.31970051758E+02  0.34010747642E+02  0.00000000000E+00 0.  1.
</event>
<event>
 7    1  0.5832130E-012  0.5930192E+02  0.7816164E-02  0.1266605E+00
        -11   -1    0    0    0    0  0.00000000000E+00  0.00000000000E+00  0.45593999997E+02  0.45594000000E+02  0.51100000000E-03 0.  1.
         11   -1    0    0    0    0 -0.00000000000E+00 -0.00000000000E+00 -0.45593999997E+02  0.45594000000E+02  0.51100000000E-03 0. -1.
    9900012    2    1    2    0    0 -0.23801979351E+02  0.64736170902E+01  0.20205937126E+02  0.59301924130E+02  0.49999963712E+02 0.  0.
         12    1    1    2    0    0  0.23801979351E+02 -0.64736170902E+01 -0.20205937126E+02  0.31886075870E+02  0.00000000000E+00 0. -1.
         11    1    3    3    0    0  0.22409694520E+01 -0.17436321286E+02  0.15523436781E+02  0.23452597592E+02  0.51100000000E-03 0. -1.
        -11    1    3    3    0    0 -0.73219755112E+01  0.54587471056E+01 -0.94707361856E-01  0.91333572740E+01  0.51100000000E-03 0.  1.
        -12    1    3    3    0    0 -0.18720973292E+02  0.18451191270E+02  0.47772077068E+01  0.26715969265E+02  0.00000000000E+00 0.  1.
</event>
<event>
 7    1  0.5832130E-012  0.5930188E+02  0.7816164E-02  0.1266605E+00
        -11   -1    0    0    0    0  0.00000000000E+00  0.00000000000E+00  0.45593999997E+02  0.45594000000E+02  0.51100000000E-03 0.  1.
         11   -1    0    0    0    0 -0.00000000000E+00 -0.00000000000E+00 -0.45593999997E+02  0.45594000000E+02  0.51100000000E-03 0. -1.
    9900012    2    1    2    0    0 -0.10137910072E+02  0.30184076692E+02 -0.16937710992E+01  0.59301881282E+02  0.49999885566E+02 0.  0.
         12    1    1    2    0    0  0.10137910072E+02 -0.30184076692E+02  0.16937710992E+01  0.31886118718E+02  0.00000000000E+00 0. -1.
         11    1    3    3    0    0 -0.22130454447E+02  0.41186515101E+01  0.12854669604E+02  0.25922245952E+02  0.51100000000E-03 0.  1.
        -11    1    3    3    0    0  0.22232146864E+01  0.15398148210E+02 -0.81430748934E+01  0.17560048998E+02  0.51100000000E-03 0. -1.
        -12    1    3    3    0    0  0.97693296887E+01  0.10667276972E+02 -0.64053658098E+01  0.15819586332E+02  0.00000000000E+00 0.  1.
</event>
<event>
 7    1  0.5832130E-012  0.5930197E+02  0.7816164E-02  0.1266605E+00
        -11   -1    0    0    0    0  0.00000000000E+00  0.00000000000E+00  0.45593999997E+02  0.45594000000E+02  0.51100000000E-03 0.  1.
         11   -1    0    0    0    0 -0.00000000000E+00 -0.00000000000E+00 -0.45593999997E+02  0.45594000000E+02  0.51100000000E-03 0. -1.
    9900012    2    1    2    0    0 -0.63339547479E+01  0.23273640590E+02  0.20855156508E+02  0.59301970425E+02  0.50000048143E+02 0.  0.
         12    1    1    2    0    0  0.63339547479E+01 -0.23273640590E+02 -0.20855156508E+02  0.31886029575E+02  0.00000000000E+00 0. -1.
         11    1    3    3    0    0  0.91782433624E+01 -0.83049563794E+00 -0.79662315175E+01  0.12181572931E+02  0.51100000000E-03 0. -1.
        -11    1    3    3    0    0  0.18475356046E+01 -0.15361529735E+01  0.11279225629E+02  0.11532306136E+02  0.51100000000E-03 0.  1.
         12    1    3    3    0    0 -0.17359733715E+02  0.25640289201E+02  0.17542162397E+02  0.35588091358E+02  0.00000000000E+00 0. -1.
</event>
<event>
 7    1  0.5832130E-012  0.5930194E+02  0.7816164E-02  0.1266605E+00
        -11   -1    0    0    0    0  0.00000000000E+00  0.00000000000E+00  0.45593999997E+02  0.45594000000E+02  0.51100000000E-03 0.  1.
         11   -1    0    0    0    0 -0.00000000000E+00 -0.00000000000E+00 -0.45593999997E+02  0.45594000000E+02  0.51100000000E-03 0. -1.
    9900012    2    1    2    0    0 -0.17873730257E+02 -0.83568711864E+01  0.25048222408E+02  0.59301937604E+02  0.49999988284E+02 0.  0.
         12    1    1    2    0    0  0.17873730257E+02  0.83568711864E+01 -0.25048222408E+02  0.31886062396E+02  0.00000000000E+00 0. -1.
         11    1    3    3    0    0  0.24386697756E+01  0.69124163926E+01 -0.10105506656E+02  0.12483984768E+02  0.51100000000E-03 0. -1.
        -11    1    3    3    0    0 -0.19616016426E+01 -0.28870848944E+01 -0.16566425538E+01  0.38636258882E+01  0.51100000000E-03 0.  1.
        -12    1    3    3    0    0 -0.18350798390E+02 -0.12382202685E+02  0.36810371618E+02  0.42954326947E+02  0.00000000000E+00 0.  1.
</event>
<event>
 7    1  0.5832130E-012  0.5930194E+02  0.7816164E-02  0.1266605E+00
        -11   -1    0    0    0    0  0.00000000000E+00  0.00000000000E+00  0.45593999997E+02  0.45594000000E+02  0.51100000000E-03 0.  1.
         11   -1    0    0    0    0 -0.00000000000E+00 -0.00000000000E+00 -0.45593999997E+02  0.45594000000E+02  0.51100000000E-03 0. -1.
    9900012    2    1    2    0    0  0.28097069115E+02 -0.14757689355E+02  0.30799943032E+01  0.59301936385E+02  0.49999986062E+02 0.  0.
         12    1    1    2    0    0 -0.28097069115E+02  0.14757689355E+02 -0.30799943032E+01  0.31886063615E+02  0.00000000000E+00 0. -1.
         11    1    3    3    0    0  0.18189077508E+02 -0.17655750014E+02  0.11635675345E+02  0.27891880362E+02  0.51100000000E-03 0. -1.
        -11    1    3    3    0    0  0.13642367082E+02  0.11618664230E+01  0.69585292720E+01  0.15358556022E+02  0.51100000000E-03 0.  1.
         12    1    3    3    0    0 -0.37343754752E+01  0.17361942367E+01 -0.15514210314E+02  0.16051500001E+02  0.00000000000E+00 0. -1.
</event>
<event>
 7    1  0.5832130E-012  0.5930185E+02  0.7816164E-02  0.1266605E+00
        -11   -1    0    0    0    0  0.00000000000E+00  0.00000000000E+00  0.45593999997E+02  0.45594000000E+02  0.51100000000E-03 0.  1.
         11   -1    0    0    0    0 -0.00000000000E+00 -0.00000000000E+00 -0.45593999997E+02  0.45594000000E+02  0.51100000000E-03 0. -1.
    9900012    2    1    2    0    0 -0.19192515913E+02 -0.21179127817E+02  0.14135713042E+02  0.59301850885E+02  0.49999830130E+02 0.  0.
         12    1    1    2    0    0  0.19192515913E+02  0.21179127817E+02 -0.14135713042E+02  0.31886149115E+02  0.00000000000E+00 0. -1.
         11    1    3    3    0    0 -0.82194847747E+01 -0.89068366935E+00  0.91619324809E+01  0.12340755828E+02  0.51100000000E-03 0.  1.
        -11    1    3    3    0    0 -0.43273623596E+01  0.12503544272E+02  0.10398782579E+01  0.13272001786E+02  0.51100000000E-03 0. -1.
         12    1    3    3    0    0 -0.66456687788E+01 -0.32791988420E+02  0.39339023036E+01  0.33689093271E+02  0.00000000000E+00 0. -1.
</event>
<event>
 7    1  0.5832130E-012  0.5930196E+02  0.7816164E-02  0.1266605E+00
        -11   -1    0    0    0    0  0.00000000000E+00  0.00000000000E+00  0.45593999997E+02  0.45594000000E+02  0.51100000000E-03 0.  1.
         11   -1    0    0    0    0 -0.00000000000E+00 -0.00000000000E+00 -0.45593999997E+02  0.45594000000E+02  0.51100000000E-03 0. -1.
    9900012    2    1    2    0    0 -0.25589538464E+02 -0.15015390009E+02  0.11680458718E+02  0.59301960237E+02  0.50000029562E+02 0.  0.
         12    1    1    2    0    0  0.25589538464E+02  0.15015390009E+02 -0.11680458718E+02  0.31886039763E+02  0.00000000000E+00 0. -1.
         11    1    3    3    0    0  0.81385271934E+01  0.70001189795E+01  0.99878847956E+01  0.14662712353E+02  0.51100000000E-03 0. -1.
        -11    1    3    3    0    0 -0.12615744125E+02 -0.19663346198E+02  0.68909295315E+00  0.23372612881E+02  0.51100000000E-03 0.  1.
        -12    1    3    3    0    0 -0.21112321532E+02 -0.23521627901E+01  0.10034809694E+01  0.21266635003E+02  0.00000000000E+00 0.  1.
</event>
<event>
 7    1  0.5832130E-012  0.5930196E+02  0.7816164E-02  0.1266605E+00
        -11   -1    0    0    0    0  0.00000000000E+00  0.00000000000E+00  0.45593999997E+02  0.45594000000E+02  0.51100000000E-03 0. -1.
         11   -1    0    0    0    0 -0.00000000000E+00 -0.00000000000E+00 -0.45593999997E+02  0.45594000000E+02  0.51100000000E-03 0.  1.
    9900012    2    1    2    0    0 -0.97164192059E+01  0.30027127863E+02  0.45478122566E+01  0.59301955934E+02  0.50000021713E+02 0.  0.
         12    1    1    2    0    0  0.97164192059E+01 -0.30027127863E+02 -0.45478122566E+01  0.31886044066E+02  0.00000000000E+00 0. -1.
         11    1    3    3    0    0  0.12320848707E+02  0.77120205163E+01  0.87429311194E+01  0.16962235057E+02  0.51100000000E-03 0. -1.
        -11    1    3    3    0    0 -0.85046418799E+01  0.95904934631E+01  0.12101990079E+02  0.17628518443E+02  0.51100000000E-03 0.  1.
        -12    1    3    3    0    0 -0.13532626033E+02  0.12724613884E+02 -0.16297108942E+02  0.24711202433E+02  0.00000000000E+00 0.  1.
</event>
<event>
 7    1  0.5832130E-012  0.5930195E+02  0.7816164E-02  0.1266605E+00
        -11   -1    0    0    0    0  0.00000000000E+00  0.00000000000E+00  0.45593999997E+02  0.45594000000E+02  0.51100000000E-03 0.  1.
         11   -1    0    0    0    0 -0.00000000000E+00 -0.00000000000E+00 -0.45593999997E+02  0.45594000000E+02  0.51100000000E-03 0. -1.
    9900012    2    1    2    0    0  0.23843234377E+02  0.14575173640E+02  0.15355291433E+02  0.59301945255E+02  0.50000002239E+02 0.  0.
         12    1    1    2    0    0 -0.23843234377E+02 -0.14575173640E+02 -0.15355291433E+02  0.31886054745E+02  0.00000000000E+00 0. -1.
         11    1    3    3    0    0  0.47021539258E+01  0.17522325823E+02 -0.94247869498E+01  0.20444284363E+02  0.51100000000E-03 0. -1.
        -11    1    3    3    0    0 -0.19231399206E+01 -0.58902787720E+01  0.13336541379E+02  0.14705685546E+02  0.51100000000E-03 0.  1.
        -12    1    3    3    0    0  0.21064220372E+02  0.29431265891E+01  0.11443537003E+02  0.24151975346E+02  0.00000000000E+00 0.  1.
</event>
<event>
 7    1  0.5832130E-012  0.5930193E+02  0.7816164E-02  0.1266605E+00
        -11   -1    0    0    0    0  0.00000000000E+00  0.00000000000E+00  0.45593999997E+02  0.45594000000E+02  0.51100000000E-03 0.  1.
         11   -1    0    0    0    0 -0.00000000000E+00 -0.00000000000E+00 -0.45593999997E+02  0.45594000000E+02  0.51100000000E-03 0. -1.
    9900012    2    1    2    0    0 -0.19480936839E+02 -0.21909674679E+02  0.12537174311E+02  0.59301929618E+02  0.49999973721E+02 0.  0.
         12    1    1    2    0    0  0.19480936839E+02  0.21909674679E+02 -0.12537174311E+02  0.31886070382E+02  0.00000000000E+00 0. -1.
         11    1    3    3    0    0  0.10223686709E+01 -0.23488683467E+02 -0.34563376532E+01  0.23763622598E+02  0.51100000000E-03 0. -1.
        -11    1    3    3    0    0  0.33640457086E+01  0.62862928280E+01  0.56779376251E+01  0.91144531918E+01  0.51100000000E-03 0.  1.
        -12    1    3    3    0    0 -0.23867351219E+02 -0.47072840399E+01  0.10315574339E+02  0.26423853829E+02  0.00000000000E+00 0.  1.
</event>
<event>
 7    1  0.5832130E-012  0.5930203E+02  0.7816164E-02  0.1266604E+00
        -11   -1    0    0    0    0  0.00000000000E+00  0.00000000000E+00  0.45593999997E+02  0.45594000000E+02  0.51100000000E-03 0. -1.
         11   -1    0    0    0    0 -0.00000000000E+00 -0.00000000000E+00 -0.45593999997E+02  0.45594000000E+02  0.51100000000E-03 0.  1.
    9900012    2    1    2    0    0  0.19177102309E+02  0.18522852543E+02 -0.17488782400E+02  0.59302033979E+02  0.50000164049E+02 0.  0.
         12    1    1    2    0    0 -0.19177102309E+02 -0.18522852543E+02  0.17488782400E+02  0.31885966021E+02  0.00000000000E+00 0. -1.
         11    1    3    3    0    0 -0.95108728326E+01 -0.61482968558E+00  0.60650307793E+01  0.11296871965E+02  0.51100000000E-03 0. -1.
        -11    1    3    3    0    0  0.58908776520E+01  0.49345414511E+01 -0.19348129360E+02  0.20818315226E+02  0.51100000000E-03 0.  1.
        -12    1    3    3    0    0  0.22797097489E+02  0.14203140778E+02 -0.42056838187E+01  0.27186846788E+02  0.00000000000E+00 0.  1.
</event>
<event>
 7    1  0.5832130E-012  0.5930195E+02  0.7816164E-02  0.1266605E+00
        -11   -1    0    0    0    0  0.00000000000E+00  0.00000000000E+00  0.45593999997E+02  0.45594000000E+02  0.51100000000E-03 0.  1.
         11   -1    0    0    0    0 -0.00000000000E+00 -0.00000000000E+00 -0.45593999997E+02  0.45594000000E+02  0.51100000000E-03 0. -1.
    9900012    2    1    2    0    0 -0.15851599014E+02 -0.22674179132E+02  0.15853338244E+02  0.59301954085E+02  0.50000018342E+02 0.  0.
         12    1    1    2    0    0  0.15851599014E+02  0.22674179132E+02 -0.15853338244E+02  0.31886045915E+02  0.00000000000E+00 0. -1.
         11    1    3    3    0    0  0.14573532004E+02 -0.98412820396E+01 -0.21767280175E+01  0.17719390858E+02  0.51100000000E-03 0. -1.
        -11    1    3    3    0    0 -0.23626070062E+01 -0.87750018042E+01  0.36883772383E+01  0.98074816056E+01  0.51100000000E-03 0.  1.
         12    1    3    3    0    0 -0.28062524011E+02 -0.40578952885E+01  0.14341689023E+02  0.31775081622E+02  0.00000000000E+00 0. -1.
</event>
<event>
 7    1  0.6403043E-012  0.5930196E+02  0.7816164E-02  0.1266605E+00
        -11   -1    0    0    0    0  0.00000000000E+00  0.00000000000E+00  0.45593999997E+02  0.45594000000E+02  0.51100000000E-03 0. -1.
         11   -1    0    0    0    0 -0.00000000000E+00 -0.00000000000E+00 -0.45593999997E+02  0.45594000000E+02  0.51100000000E-03 0.  1.
    9900012    2    1    2    0    0 -0.75096264126E+01  0.12927122852E+02 -0.28164064025E+02  0.59301960790E+02  0.50000030570E+02 0.  0.
         12    1    1    2    0    0  0.75096264126E+01 -0.12927122852E+02  0.28164064025E+02  0.31886039210E+02  0.00000000000E+00 0. -1.
         11    1    3    3    0    0  0.67754091098E+01 -0.48022589382E+01  0.25804698996E+01  0.86963604272E+01  0.51100000000E-03 0. -1.
        -11    1    3    3    0    0 -0.68195044772E+01 -0.89037277240E+01 -0.15160182424E+02  0.18857707711E+02  0.51100000000E-03 0.  1.
         12    1    3    3    0    0 -0.74655310452E+01  0.26633109514E+02 -0.15584351500E+02  0.31747892652E+02  0.00000000000E+00 0. -1.
</event>
<event>
 7    1  0.5832130E-012  0.5930200E+02  0.7816164E-02  0.1266605E+00
        -11   -1    0    0    0    0  0.00000000000E+00  0.00000000000E+00  0.45593999997E+02  0.45594000000E+02  0.51100000000E-03 0.  1.
         11   -1    0    0    0    0 -0.00000000000E+00 -0.00000000000E+00 -0.45593999997E+02  0.45594000000E+02  0.51100000000E-03 0. -1.
    9900012    2    1    2    0    0  0.19355479171E+02 -0.46107992968E+01  0.24916319515E+02  0.59301999588E+02  0.50000101329E+02 0.  0.
         12    1    1    2    0    0 -0.19355479171E+02  0.46107992968E+01 -0.24916319515E+02  0.31886000412E+02  0.00000000000E+00 0. -1.
         11    1    3    3    0    0  0.71305335113E+01 -0.16433998157E+02  0.39835515996E+01  0.18351825173E+02  0.51100000000E-03 0. -1.
        -11    1    3    3    0    0  0.14487117568E+02 -0.56443788338E+01  0.16736115761E+02  0.22843667807E+02  0.51100000000E-03 0.  1.
         12    1    3    3    0    0 -0.22621719084E+01  0.17467577694E+02  0.41966521544E+01  0.18106506608E+02  0.00000000000E+00 0. -1.
</event>
<event>
 7    1  0.5832130E-012  0.5930222E+02  0.7816164E-02  0.1266604E+00
        -11   -1    0    0    0    0  0.00000000000E+00  0.00000000000E+00  0.45593999997E+02  0.45594000000E+02  0.51100000000E-03 0.  1.
         11   -1    0    0    0    0 -0.00000000000E+00 -0.00000000000E+00 -0.45593999997E+02  0.45594000000E+02  0.51100000000E-03 0. -1.
    9900012    2    1    2    0    0 -0.40794375545E+01 -0.88482094299E+01  0.30360674522E+02  0.59302216675E+02  0.50000497240E+02 0.  0.
         12    1    1    2    0    0  0.40794375545E+01  0.88482094299E+01 -0.30360674522E+02  0.31885783325E+02  0.00000000000E+00 0. -1.
         11    1    3    3    0    0  0.45813120929E+01  0.85290812585E+01  0.94153271394E+01  0.13504889226E+02  0.51100000000E-03 0. -1.
        -11    1    3    3    0    0 -0.14212003882E+02  0.11516101640E+01 -0.34443092509E+01  0.14668692061E+02  0.51100000000E-03 0.  1.
        -12    1    3    3    0    0  0.55512542348E+01 -0.18528900852E+02  0.24389656633E+02  0.31128635387E+02  0.00000000000E+00 0.  1.
</event>
<event>
 7    1  0.5832130E-012  0.5930194E+02  0.7816164E-02  0.1266605E+00
        -11   -1    0    0    0    0  0.00000000000E+00  0.00000000000E+00  0.45593999997E+02  0.45594000000E+02  0.51100000000E-03 0.  1.
         11   -1    0    0    0    0 -0.00000000000E+00 -0.00000000000E+00 -0.45593999997E+02  0.45594000000E+02  0.51100000000E-03 0. -1.
    9900012    2    1    2    0    0 -0.27073249422E+02 -0.16447669109E+02  0.36378802032E+01  0.59301939946E+02  0.49999992556E+02 0.  0.
         12    1    1    2    0    0  0.27073249422E+02  0.16447669109E+02 -0.36378802032E+01  0.31886060054E+02  0.00000000000E+00 0. -1.
         11    1    3    3    0    0 -0.36505291533E+02 -0.51348056667E+01  0.93267562555E+01  0.38026187314E+02  0.51100000000E-03 0. -1.
        -11    1    3    3    0    0 -0.10154937513E+01 -0.31544332364E+00  0.34203989087E+01  0.35818795353E+01  0.51100000000E-03 0.  1.
         12    1    3    3    0    0  0.10447535862E+02 -0.10997420118E+02 -0.91092749610E+01  0.17693873097E+02  0.00000000000E+00 0. -1.
</event>
<event>
 7    1  0.5832130E-012  0.5930194E+02  0.7816164E-02  0.1266605E+00
        -11   -1    0    0    0    0  0.00000000000E+00  0.00000000000E+00  0.45593999997E+02  0.45594000000E+02  0.51100000000E-03 0. -1.
         11   -1    0    0    0    0 -0.00000000000E+00 -0.00000000000E+00 -0.45593999997E+02  0.45594000000E+02  0.51100000000E-03 0.  1.
    9900012    2    1    2    0    0  0.26436897167E+02  0.63816791652E+01 -0.16645876210E+02  0.59301944183E+02  0.50000000284E+02 0.  0.
         12    1    1    2    0    0 -0.26436897167E+02 -0.63816791652E+01  0.16645876210E+02  0.31886055817E+02  0.00000000000E+00 0. -1.
         11    1    3    3    0    0 -0.50867485031E+01 -0.67581004441E+00 -0.44671450783E+00  0.51508527122E+01  0.51100000000E-03 0. -1.
        -11    1    3    3    0    0  0.35763543525E+01 -0.68439213435E+01 -0.21178747636E+02  0.22542602367E+02  0.51100000000E-03 0.  1.
         12    1    3    3    0    0  0.27947291317E+02  0.13901410553E+02  0.49795859340E+01  0.31608489104E+02  0.00000000000E+00 0. -1.
</event>
<event>
 7    1  0.5832130E-012  0.5930194E+02  0.7816164E-02  0.1266605E+00
        -11   -1    0    0    0    0  0.00000000000E+00  0.00000000000E+00  0.45593999997E+02  0.45594000000E+02  0.51100000000E-03 0.  1.
         11   -1    0    0    0    0 -0.00000000000E+00 -0.00000000000E+00 -0.45593999997E+02  0.45594000000E+02  0.51100000000E-03 0. -1.
    9900012    2    1    2    0    0 -0.29295690894E+02  0.11547258438E+02  0.50143993836E+01  0.59301939039E+02  0.49999990902E+02 0.  0.
         12    1    1    2    0    0  0.29295690894E+02 -0.11547258438E+02 -0.50143993836E+01  0.31886060961E+02  0.00000000000E+00 0. -1.
         11    1    3    3    0    0 -0.34698895851E+01 -0.50037206758E+01 -0.88569794123E+01  0.10748183051E+02  0.51100000000E-03 0. -1.
        -11    1    3    3    0    0 -0.12160746978E+02 -0.91045045445E+01  0.12119103283E+02  0.19433178708E+02  0.51100000000E-03 0.  1.
         12    1    3    3    0    0 -0.13665054331E+02  0.25655483659E+02  0.17522755131E+01  0.29120577280E+02  0.00000000000E+00 0. -1.
</event>
<event>
 7    1  0.5832130E-012  0.5930196E+02  0.7816164E-02  0.1266605E+00
        -11   -1    0    0    0    0  0.00000000000E+00  0.00000000000E+00  0.45593999997E+02  0.45594000000E+02  0.51100000000E-03 0. -1.
         11   -1    0    0    0    0 -0.00000000000E+00 -0.00000000000E+00 -0.45593999997E+02  0.45594000000E+02  0.51100000000E-03 0.  1.
    9900012    2    1    2    0    0 -0.12315239061E+02  0.26830953712E+02  0.12048003212E+02  0.59301959612E+02  0.50000028423E+02 0.  0.
         12    1    1    2    0    0  0.12315239061E+02 -0.26830953712E+02 -0.12048003212E+02  0.31886040388E+02  0.00000000000E+00 0. -1.
         11    1    3    3    0    0  0.12920761856E+02  0.33036365255E+01 -0.58268297005E+01  0.14553763975E+02  0.51100000000E-03 0. -1.
        -11    1    3    3    0    0 -0.61326208662E+01 -0.26472043559E+01 -0.16971274208E+01  0.68918046501E+01  0.51100000000E-03 0.  1.
        -12    1    3    3    0    0 -0.19103380050E+02  0.26174521542E+02  0.19571960333E+02  0.37856390987E+02  0.00000000000E+00 0.  1.
</event>
<event>
 7    1  0.5832130E-012  0.5930198E+02  0.7816164E-02  0.1266605E+00
        -11   -1    0    0    0    0  0.00000000000E+00  0.00000000000E+00  0.45593999997E+02  0.45594000000E+02  0.51100000000E-03 0. -1.
         11   -1    0    0    0    0 -0.00000000000E+00 -0.00000000000E+00 -0.45593999997E+02  0.45594000000E+02  0.51100000000E-03 0.  1.
    9900012    2    1    2    0    0 -0.18842311250E+02  0.25599135868E+02  0.25238561295E+01  0.59301979550E+02  0.50000064783E+02 0.  0.
         12    1    1    2    0    0  0.18842311250E+02 -0.25599135868E+02 -0.25238561295E+01  0.31886020450E+02  0.00000000000E+00 0. -1.
         11    1    3    3    0    0 -0.20058175491E+02 -0.12819187686E+01  0.96395393950E+01  0.22291129172E+02  0.51100000000E-03 0. -1.
        -11    1    3    3    0    0 -0.86538003398E+01  0.10182490875E+02 -0.10903850778E+02  0.17247183619E+02  0.51100000000E-03 0.  1.
        -12    1    3    3    0    0  0.98696645814E+01  0.16698563761E+02  0.37881675120E+01  0.19763666759E+02  0.00000000000E+00 0.  1.
</event>
<event>
 7    1  0.5832130E-012  0.5930196E+02  0.7816164E-02  0.1266605E+00
        -11   -1    0    0    0    0  0.00000000000E+00  0.00000000000E+00  0.45593999997E+02  0.45594000000E+02  0.51100000000E-03 0. -1.
         11   -1    0    0    0    0 -0.00000000000E+00 -0.00000000000E+00 -0.45593999997E+02  0.45594000000E+02  0.51100000000E-03 0.  1.
    9900012    2    1    2    0    0 -0.20573455327E+02 -0.17407239693E+02 -0.17042316641E+02  0.59301958942E+02  0.50000027201E+02 0.  0.
         12    1    1    2    0    0  0.20573455327E+02  0.17407239693E+02  0.17042316641E+02  0.31886041058E+02  0.00000000000E+00 0. -1.
         11    1    3    3    0    0  0.53379339906E+01 -0.29036991305E+01 -0.22612266330E+01  0.64836836810E+01  0.51100000000E-03 0. -1.
        -11    1    3    3    0    0  0.48086839396E+01 -0.93124609341E+00 -0.18398534703E+02  0.19039347152E+02  0.51100000000E-03 0.  1.
         12    1    3    3    0    0 -0.30720073257E+02 -0.13572294469E+02  0.36174446945E+01  0.33778928109E+02  0.00000000000E+00 0. -1.
</event>
<event>
 7    1  0.5832130E-012  0.5930194E+02  0.7816164E-02  0.1266605E+00
        -11   -1    0    0    0    0  0.00000000000E+00  0.00000000000E+00  0.45593999997E+02  0.45594000000E+02  0.51100000000E-03 0.  1.
         11   -1    0    0    0    0 -0.00000000000E+00 -0.00000000000E+00 -0.45593999997E+02  0.45594000000E+02  0.51100000000E-03 0. -1.
    9900012    2    1    2    0    0  0.23007068193E+02  0.22076408205E+02 -0.16599261514E+00  0.59301944433E+02  0.50000000739E+02 0.  0.
         12    1    1    2    0    0 -0.23007068193E+02 -0.22076408205E+02  0.16599261514E+00  0.31886055567E+02  0.00000000000E+00 0. -1.
         11    1    3    3    0    0  0.56334410533E+01  0.16618756291E+02 -0.11727498331E+02  0.21105755996E+02  0.51100000000E-03 0. -1.
        -11    1    3    3    0    0  0.76415684751E+01  0.13366649555E+02 -0.60781702418E+01  0.16553097681E+02  0.51100000000E-03 0.  1.
        -12    1    3    3    0    0  0.97320586650E+01 -0.79089976417E+01  0.17639675958E+02  0.21643090756E+02  0.00000000000E+00 0.  1.
</event>
<event>
 7    1  0.5832130E-012  0.5930194E+02  0.7816164E-02  0.1266605E+00
        -11   -1    0    0    0    0  0.00000000000E+00  0.00000000000E+00  0.45593999997E+02  0.45594000000E+02  0.51100000000E-03 0.  1.
         11   -1    0    0    0    0 -0.00000000000E+00 -0.00000000000E+00 -0.45593999997E+02  0.45594000000E+02  0.51100000000E-03 0. -1.
    9900012    2    1    2    0    0  0.16897559997E+02 -0.25244054572E+02  0.96918120728E+01  0.59301936487E+02  0.49999986248E+02 0.  0.
         12    1    1    2    0    0 -0.16897559997E+02  0.25244054572E+02 -0.96918120728E+01  0.31886063513E+02  0.00000000000E+00 0. -1.
         11    1    3    3    0    0  0.88170202729E+01 -0.19845770262E+01  0.22396920796E+02  0.24151613898E+02  0.51100000000E-03 0. -1.
        -11    1    3    3    0    0 -0.10172292509E+01 -0.67727245139E+01  0.56317175447E+01  0.88668368348E+01  0.51100000000E-03 0.  1.
         12    1    3    3    0    0  0.90977689753E+01 -0.16486753032E+02 -0.18336826268E+02  0.26283485755E+02  0.00000000000E+00 0. -1.
</event>
<event>
 7    1  0.5832130E-012  0.5930195E+02  0.7816164E-02  0.1266605E+00
        -11   -1    0    0    0    0  0.00000000000E+00  0.00000000000E+00  0.45593999997E+02  0.45594000000E+02  0.51100000000E-03 0. -1.
         11   -1    0    0    0    0 -0.00000000000E+00 -0.00000000000E+00 -0.45593999997E+02  0.45594000000E+02  0.51100000000E-03 0.  1.
    9900012    2    1    2    0    0 -0.17036323121E+02  0.24415666205E+02 -0.11417503386E+02  0.59301945912E+02  0.50000003437E+02 0.  0.
         12    1    1    2    0    0  0.17036323121E+02 -0.24415666205E+02  0.11417503386E+02  0.31886054088E+02  0.00000000000E+00 0. -1.
         11    1    3    3    0    0  0.30989617045E+01  0.41662454901E+01  0.30670051147E+01  0.60305626408E+01  0.51100000000E-03 0. -1.
        -11    1    3    3    0    0 -0.11046746156E+02  0.18264118993E+02 -0.29013481311E+02  0.36019310671E+02  0.51100000000E-03 0.  1.
         12    1    3    3    0    0 -0.90885386696E+01  0.19853017219E+01  0.14528972810E+02  0.17252072600E+02  0.00000000000E+00 0. -1.
</event>
<event>
 7    1  0.5832130E-012  0.5930195E+02  0.7816164E-02  0.1266605E+00
        -11   -1    0    0    0    0  0.00000000000E+00  0.00000000000E+00  0.45593999997E+02  0.45594000000E+02  0.51100000000E-03 0. -1.
         11   -1    0    0    0    0 -0.00000000000E+00 -0.00000000000E+00 -0.45593999997E+02  0.45594000000E+02  0.51100000000E-03 0.  1.
    9900012    2    1    2    0    0  0.11555449878E+02  0.15779955141E+02 -0.25183029987E+02  0.59301946537E+02  0.50000004575E+02 0.  0.
         12    1    1    2    0    0 -0.11555449878E+02 -0.15779955141E+02  0.25183029987E+02  0.31886053463E+02  0.00000000000E+00 0. -1.
         11    1    3    3    0    0 -0.46270403279E+01  0.27283586813E+02 -0.87150847302E+01  0.29013036961E+02  0.51100000000E-03 0. -1.
        -11    1    3    3    0    0  0.18258828424E+01  0.11401367293E+01 -0.97938142079E+01  0.10027589786E+02  0.51100000000E-03 0.  1.
         12    1    3    3    0    0  0.14356607364E+02 -0.12643768401E+02 -0.66741310491E+01  0.20261319790E+02  0.00000000000E+00 0. -1.
</event>
<event>
 7    1  0.5832130E-012  0.5930195E+02  0.7816164E-02  0.1266605E+00
        -11   -1    0    0    0    0  0.00000000000E+00  0.00000000000E+00  0.45593999997E+02  0.45594000000E+02  0.51100000000E-03 0. -1.
         11   -1    0    0    0    0 -0.00000000000E+00 -0.00000000000E+00 -0.45593999997E+02  0.45594000000E+02  0.51100000000E-03 0.  1.
    9900012    2    1    2    0    0 -0.26130055888E+02 -0.18068823282E+02 -0.27309344753E+01  0.59301949780E+02  0.50000010491E+02 0.  0.
         12    1    1    2    0    0  0.26130055888E+02  0.18068823282E+02  0.27309344753E+01  0.31886050220E+02  0.00000000000E+00 0. -1.
         11    1    3    3    0    0 -0.76484398968E+00 -0.12291336693E+02  0.37030863003E+01  0.12859813080E+02  0.51100000000E-03 0. -1.
        -11    1    3    3    0    0  0.89208681119E+01 -0.75108830159E+01 -0.14115472129E+01  0.11746817328E+02  0.51100000000E-03 0.  1.
         12    1    3    3    0    0 -0.34286080010E+02  0.17333964273E+01 -0.50224735627E+01  0.34695319372E+02  0.00000000000E+00 0. -1.
</event>
<event>
 7    1  0.5832130E-012  0.5930195E+02  0.7816164E-02  0.1266605E+00
        -11   -1    0    0    0    0  0.00000000000E+00  0.00000000000E+00  0.45593999997E+02  0.45594000000E+02  0.51100000000E-03 0.  1.
         11   -1    0    0    0    0 -0.00000000000E+00 -0.00000000000E+00 -0.45593999997E+02  0.45594000000E+02  0.51100000000E-03 0. -1.
    9900012    2    1    2    0    0 -0.36311414715E+01  0.31270789531E+02 -0.50668143303E+01  0.59301951738E+02  0.50000014062E+02 0.  0.
         12    1    1    2    0    0  0.36311414715E+01 -0.31270789531E+02  0.50668143303E+01  0.31886048262E+02  0.00000000000E+00 0. -1.
         11    1    3    3    0    0  0.40406143232E+01  0.87792054132E+01 -0.18685071231E+01  0.98433902151E+01  0.51100000000E-03 0. -1.
        -11    1    3    3    0    0 -0.41841942225E+01  0.80107102102E+01  0.19967423516E+02  0.21917503541E+02  0.51100000000E-03 0.  1.
         12    1    3    3    0    0 -0.34875615722E+01  0.14480873908E+02 -0.23165730723E+02  0.27541057982E+02  0.00000000000E+00 0. -1.
</event>
<event>
 7    1  0.5832130E-012  0.5930198E+02  0.7816164E-02  0.1266605E+00
        -11   -1    0    0    0    0  0.00000000000E+00  0.00000000000E+00  0.45593999997E+02  0.45594000000E+02  0.51100000000E-03 0.  1.
         11   -1    0    0    0    0 -0.00000000000E+00 -0.00000000000E+00 -0.45593999997E+02  0.45594000000E+02  0.51100000000E-03 0. -1.
    9900012    2    1    2    0    0 -0.27430521607E+02  0.13604626167E+02  0.88993613402E+01  0.59301984240E+02  0.50000073337E+02 0.  0.
         12    1    1    2    0    0  0.27430521607E+02 -0.13604626167E+02 -0.88993613402E+01  0.31886015760E+02  0.00000000000E+00 0. -1.
         11    1    3    3    0    0 -0.20628840212E+01  0.16140654902E+02  0.30400562191E+01  0.16553494291E+02  0.51100000000E-03 0. -1.
        -11    1    3    3    0    0 -0.14654414530E+02 -0.19157337198E+01  0.20080425590E+02  0.24932817592E+02  0.51100000000E-03 0.  1.
         12    1    3    3    0    0 -0.10713223056E+02 -0.62029501559E+00 -0.14221120469E+02  0.17815672358E+02  0.00000000000E+00 0. -1.
</event>
<event>
 7    1  0.5832130E-012  0.5930195E+02  0.7816164E-02  0.1266605E+00
        -11   -1    0    0    0    0  0.00000000000E+00  0.00000000000E+00  0.45593999997E+02  0.45594000000E+02  0.51100000000E-03 0. -1.
         11   -1    0    0    0    0 -0.00000000000E+00 -0.00000000000E+00 -0.45593999997E+02  0.45594000000E+02  0.51100000000E-03 0.  1.
    9900012    2    1    2    0    0 -0.20228404850E+02 -0.13873877821E+02 -0.20372714772E+02  0.59301947317E+02  0.50000005999E+02 0.  0.
         12    1    1    2    0    0  0.20228404850E+02  0.13873877821E+02  0.20372714772E+02  0.31886052683E+02  0.00000000000E+00 0. -1.
         11    1    3    3    0    0 -0.19068293892E+01 -0.19075076195E+02 -0.10988405720E+01  0.19201614021E+02  0.51100000000E-03 0. -1.
        -11    1    3    3    0    0  0.69308894921E+01 -0.85496169300E-01  0.13606350463E+01  0.70637006404E+01  0.51100000000E-03 0.  1.
         12    1    3    3    0    0 -0.25252464953E+02  0.52866945436E+01 -0.20634509246E+02  0.33036632655E+02  0.00000000000E+00 0. -1.
</event>
<event>
 7    1  0.5832130E-012  0.5930195E+02  0.7816164E-02  0.1266605E+00
        -11   -1    0    0    0    0  0.00000000000E+00  0.00000000000E+00  0.45593999997E+02  0.45594000000E+02  0.51100000000E-03 0.  1.
         11   -1    0    0    0    0 -0.00000000000E+00 -0.00000000000E+00 -0.45593999997E+02  0.45594000000E+02  0.51100000000E-03 0. -1.
    9900012    2    1    2    0    0 -0.26783383348E+02 -0.16704578475E+02  0.45086366131E+01  0.59301947097E+02  0.50000005599E+02 0.  0.
         12    1    1    2    0    0  0.26783383348E+02  0.16704578475E+02 -0.45086366131E+01  0.31886052903E+02  0.00000000000E+00 0. -1.
         11    1    3    3    0    0 -0.52435344832E+00 -0.12147186375E+02  0.10430967543E+02  0.16019805476E+02  0.51100000000E-03 0. -1.
        -11    1    3    3    0    0 -0.94849141117E+01 -0.62232209034E+01  0.13454879407E+02  0.17599029923E+02  0.51100000000E-03 0.  1.
         12    1    3    3    0    0 -0.16774115788E+02  0.16658288026E+01 -0.19377210337E+02  0.25683111698E+02  0.00000000000E+00 0. -1.
</event>
<event>
 7    1  0.5832130E-012  0.5930195E+02  0.7816164E-02  0.1266605E+00
        -11   -1    0    0    0    0  0.00000000000E+00  0.00000000000E+00  0.45593999997E+02  0.45594000000E+02  0.51100000000E-03 0. -1.
         11   -1    0    0    0    0 -0.00000000000E+00 -0.00000000000E+00 -0.45593999997E+02  0.45594000000E+02  0.51100000000E-03 0.  1.
    9900012    2    1    2    0    0 -0.25808904552E+02  0.16500431503E+02 -0.88519086388E+01  0.59301951632E+02  0.50000013869E+02 0.  0.
         12    1    1    2    0    0  0.25808904552E+02 -0.16500431503E+02  0.88519086388E+01  0.31886048368E+02  0.00000000000E+00 0. -1.
         11    1    3    3    0    0 -0.28706708056E+02  0.44440486537E+01  0.38860208730E+00  0.29051259314E+02  0.51100000000E-03 0. -1.
        -11    1    3    3    0    0 -0.55731914432E+01 -0.57589459506E+01  0.91005659852E+00  0.80656137149E+01  0.51100000000E-03 0.  1.
        -12    1    3    3    0    0  0.84709949477E+01  0.17815328800E+02 -0.10150567325E+02  0.22185078604E+02  0.00000000000E+00 0.  1.
</event>
<event>
 7    1  0.5832130E-012  0.5930205E+02  0.7816164E-02  0.1266604E+00
        -11   -1    0    0    0    0  0.00000000000E+00  0.00000000000E+00  0.45593999997E+02  0.45594000000E+02  0.51100000000E-03 0.  1.
         11   -1    0    0    0    0 -0.00000000000E+00 -0.00000000000E+00 -0.45593999997E+02  0.45594000000E+02  0.51100000000E-03 0. -1.
    9900012    2    1    2    0    0  0.46790055918E+01 -0.37469721865E+01  0.31317425200E+02  0.59302046744E+02  0.50000187329E+02 0.  0.
         12    1    1    2    0    0 -0.46790055918E+01  0.37469721865E+01 -0.31317425200E+02  0.31885953256E+02  0.00000000000E+00 0. -1.
         11    1    3    3    0    0 -0.39188611387E+01  0.46096759949E+00  0.10634487830E+02  0.11342940334E+02  0.51100000000E-03 0. -1.
        -11    1    3    3    0    0 -0.14272129639E+02  0.66832096815E+01  0.15497833090E+02  0.22102981854E+02  0.51100000000E-03 0.  1.
         12    1    3    3    0    0  0.22869996369E+02 -0.10891149468E+02  0.51851042794E+01  0.25856124556E+02  0.00000000000E+00 0. -1.
</event>
<event>
 7    1  0.5832130E-012  0.5930192E+02  0.7816164E-02  0.1266605E+00
        -11   -1    0    0    0    0  0.00000000000E+00  0.00000000000E+00  0.45593999997E+02  0.45594000000E+02  0.51100000000E-03 0. -1.
         11   -1    0    0    0    0 -0.00000000000E+00 -0.00000000000E+00 -0.45593999997E+02  0.45594000000E+02  0.51100000000E-03 0.  1.
    9900012    2    1    2    0    0  0.22422643820E+02 -0.62492228901E+01 -0.21792067314E+02  0.59301922467E+02  0.49999960679E+02 0.  0.
         12    1    1    2    0    0 -0.22422643820E+02  0.62492228901E+01  0.21792067314E+02  0.31886077533E+02  0.00000000000E+00 0. -1.
         11    1    3    3    0    0  0.24031433054E+02 -0.15085999709E+02 -0.21424880490E+02  0.35554502755E+02  0.51100000000E-03 0. -1.
        -11    1    3    3    0    0 -0.34813758627E+01  0.59825164351E+01 -0.10767957559E+02  0.12800757440E+02  0.51100000000E-03 0.  1.
         12    1    3    3    0    0  0.18725866286E+01  0.28542603837E+01  0.10400770735E+02  0.10946662272E+02  0.00000000000E+00 0. -1.
</event>
<event>
 7    1  0.5832130E-012  0.5930193E+02  0.7816164E-02  0.1266605E+00
        -11   -1    0    0    0    0  0.00000000000E+00  0.00000000000E+00  0.45593999997E+02  0.45594000000E+02  0.51100000000E-03 0. -1.
         11   -1    0    0    0    0 -0.00000000000E+00 -0.00000000000E+00 -0.45593999997E+02  0.45594000000E+02  0.51100000000E-03 0.  1.
    9900012    2    1    2    0    0  0.14342093812E+02 -0.30201339736E+01 -0.28317917276E+02  0.59301932463E+02  0.49999978909E+02 0.  0.
         12    1    1    2    0    0 -0.14342093812E+02  0.30201339736E+01  0.28317917276E+02  0.31886067537E+02  0.00000000000E+00 0. -1.
         11    1    3    3    0    0  0.26171736183E+02  0.88173113565E+01 -0.87164904204E+01  0.28960006214E+02  0.51100000000E-03 0. -1.
        -11    1    3    3    0    0  0.62337808640E+00 -0.83975610158E+01 -0.22630029832E+01  0.87194503276E+01  0.51100000000E-03 0.  1.
        -12    1    3    3    0    0 -0.12453020458E+02 -0.34398843143E+01 -0.17338423872E+02  0.21622475922E+02  0.00000000000E+00 0.  1.
</event>
<event>
 7    1  0.5832130E-012  0.5930196E+02  0.7816164E-02  0.1266605E+00
        -11   -1    0    0    0    0  0.00000000000E+00  0.00000000000E+00  0.45593999997E+02  0.45594000000E+02  0.51100000000E-03 0.  1.
         11   -1    0    0    0    0 -0.00000000000E+00 -0.00000000000E+00 -0.45593999997E+02  0.45594000000E+02  0.51100000000E-03 0. -1.
    9900012    2    1    2    0    0 -0.27574988734E+02 -0.14936411668E+02  0.57657008088E+01  0.59301957552E+02  0.50000024664E+02 0.  0.
         12    1    1    2    0    0  0.27574988734E+02  0.14936411668E+02 -0.57657008088E+01  0.31886042448E+02  0.00000000000E+00 0. -1.
         11    1    3    3    0    0  0.46794749183E+01 -0.41496994626E+01 -0.33069836514E+00  0.62631344238E+01  0.51100000000E-03 0. -1.
        -11    1    3    3    0    0 -0.59195212179E+01 -0.22175772946E+02  0.79417510718E+01  0.24287384535E+02  0.51100000000E-03 0.  1.
        -12    1    3    3    0    0 -0.26334942434E+02  0.11389060740E+02 -0.18453518979E+01  0.28751438593E+02  0.00000000000E+00 0.  1.
</event>
<event>
 7    1  0.5832130E-012  0.5930195E+02  0.7816164E-02  0.1266605E+00
        -11   -1    0    0    0    0  0.00000000000E+00  0.00000000000E+00  0.45593999997E+02  0.45594000000E+02  0.51100000000E-03 0.  1.
         11   -1    0    0    0    0 -0.00000000000E+00 -0.00000000000E+00 -0.45593999997E+02  0.45594000000E+02  0.51100000000E-03 0. -1.
    9900012    2    1    2    0    0  0.16951141252E+02 -0.20420162447E+02  0.17674734491E+02  0.59301945628E+02  0.50000002918E+02 0.  0.
         12    1    1    2    0    0 -0.16951141252E+02  0.20420162447E+02 -0.17674734491E+02  0.31886054372E+02  0.00000000000E+00 0. -1.
         11    1    3    3    0    0  0.12999178737E+02 -0.17407671552E+02 -0.86822728456E+00  0.21743033265E+02  0.51100000000E-03 0. -1.
        -11    1    3    3    0    0 -0.56032390392E+01 -0.52330253469E+01 -0.68848343229E+01  0.10304454664E+02  0.51100000000E-03 0.  1.
        -12    1    3    3    0    0  0.95552015541E+01  0.22205344514E+01  0.25427796099E+02  0.27254457698E+02  0.00000000000E+00 0.  1.
</event>
<event>
 7    1  0.5832130E-012  0.5930192E+02  0.7816164E-02  0.1266605E+00
        -11   -1    0    0    0    0  0.00000000000E+00  0.00000000000E+00  0.45593999997E+02  0.45594000000E+02  0.51100000000E-03 0.  1.
         11   -1    0    0    0    0 -0.00000000000E+00 -0.00000000000E+00 -0.45593999997E+02  0.45594000000E+02  0.51100000000E-03 0. -1.
    9900012    2    1    2    0    0  0.22512717044E+02  0.18528964042E+02  0.12906486022E+02  0.59301916537E+02  0.49999949863E+02 0.  0.
         12    1    1    2    0    0 -0.22512717044E+02 -0.18528964042E+02 -0.12906486022E+02  0.31886083463E+02  0.00000000000E+00 0. -1.
         11    1    3    3    0    0  0.25296067486E+01  0.19457253912E+01  0.59984646355E+01  0.67945813591E+01  0.51100000000E-03 0. -1.
        -11    1    3    3    0    0  0.24943031575E+02  0.26273108855E+02  0.14725153530E+02  0.39105769649E+02  0.51100000000E-03 0.  1.
         12    1    3    3    0    0 -0.49599212795E+01 -0.96898702046E+01 -0.78171321430E+01  0.13401565529E+02  0.00000000000E+00 0. -1.
</event>
<event>
 7    1  0.5832130E-012  0.5930193E+02  0.7816164E-02  0.1266605E+00
        -11   -1    0    0    0    0  0.00000000000E+00  0.00000000000E+00  0.45593999997E+02  0.45594000000E+02  0.51100000000E-03 0.  1.
         11   -1    0    0    0    0 -0.00000000000E+00 -0.00000000000E+00 -0.45593999997E+02  0.45594000000E+02  0.51100000000E-03 0. -1.
    9900012    2    1    2    0    0 -0.14940546609E+02 -0.14610467344E+02  0.24083930662E+02  0.59301930862E+02  0.49999975988E+02 0.  0.
         12    1    1    2    0    0  0.14940546609E+02  0.14610467344E+02 -0.24083930662E+02  0.31886069138E+02  0.00000000000E+00 0. -1.
         11    1    3    3    0    0 -0.17229337532E+02  0.11910890990E+02  0.85593644607E+01  0.22627021815E+02  0.51100000000E-03 0. -1.
        -11    1    3    3    0    0 -0.69196844093E+01 -0.24051561887E+01  0.45550088748E+01  0.86264079852E+01  0.51100000000E-03 0.  1.
         12    1    3    3    0    0  0.92084753327E+01 -0.24116202145E+02  0.10969557327E+02  0.28048501062E+02  0.00000000000E+00 0. -1.
</event>
<event>
 7    1  0.5832130E-012  0.5930194E+02  0.7816164E-02  0.1266605E+00
        -11   -1    0    0    0    0  0.00000000000E+00  0.00000000000E+00  0.45593999997E+02  0.45594000000E+02  0.51100000000E-03 0.  1.
         11   -1    0    0    0    0 -0.00000000000E+00 -0.00000000000E+00 -0.45593999997E+02  0.45594000000E+02  0.51100000000E-03 0. -1.
    9900012    2    1    2    0    0 -0.34579198930E+01  0.14194493655E+02  0.28342190342E+02  0.59301943275E+02  0.49999998627E+02 0.  0.
         12    1    1    2    0    0  0.34579198930E+01 -0.14194493655E+02 -0.28342190342E+02  0.31886056725E+02  0.00000000000E+00 0. -1.
         11    1    3    3    0    0 -0.76645031487E+01  0.21444269423E+01  0.21254555725E+02  0.22695799496E+02  0.51100000000E-03 0.  1.
        -11    1    3    3    0    0 -0.14408152488E+02  0.17467031206E+01  0.43701596886E+01  0.15157312620E+02  0.51100000000E-03 0. -1.
         12    1    3    3    0    0  0.18614735743E+02  0.10303363592E+02  0.27174749280E+01  0.21448831159E+02  0.00000000000E+00 0. -1.
</event>
<event>
 7    1  0.5832130E-012  0.5930192E+02  0.7816164E-02  0.1266605E+00
        -11   -1    0    0    0    0  0.00000000000E+00  0.00000000000E+00  0.45593999997E+02  0.45594000000E+02  0.51100000000E-03 0. -1.
         11   -1    0    0    0    0 -0.00000000000E+00 -0.00000000000E+00 -0.45593999997E+02  0.45594000000E+02  0.51100000000E-03 0.  1.
    9900012    2    1    2    0    0 -0.29614898482E+02  0.11766155954E+02 -0.11123758798E+01  0.59301921248E+02  0.49999958456E+02 0.  0.
         12    1    1    2    0    0  0.29614898482E+02 -0.11766155954E+02  0.11123758798E+01  0.31886078752E+02  0.00000000000E+00 0. -1.
         11    1    3    3    0    0 -0.30022551264E+01  0.32895842777E+01  0.34439427473E+01  0.56298883179E+01  0.51100000000E-03 0. -1.
        -11    1    3    3    0    0 -0.22773903509E+02  0.25532253099E+02  0.35591465879E+01  0.34397880081E+02  0.51100000000E-03 0.  1.
        -12    1    3    3    0    0 -0.38387398469E+01 -0.17055681423E+02 -0.81154652150E+01  0.19274152849E+02  0.00000000000E+00 0.  1.
</event>
<event>
 7    1  0.5832130E-012  0.5930194E+02  0.7816164E-02  0.1266605E+00
        -11   -1    0    0    0    0  0.00000000000E+00  0.00000000000E+00  0.45593999997E+02  0.45594000000E+02  0.51100000000E-03 0.  1.
         11   -1    0    0    0    0 -0.00000000000E+00 -0.00000000000E+00 -0.45593999997E+02  0.45594000000E+02  0.51100000000E-03 0. -1.
    9900012    2    1    2    0    0  0.31804923820E+01 -0.27155810999E+02  0.16406311674E+02  0.59301942458E+02  0.49999997138E+02 0.  0.
         12    1    1    2    0    0 -0.31804923820E+01  0.27155810999E+02 -0.16406311674E+02  0.31886057542E+02  0.00000000000E+00 0. -1.
         11    1    3    3    0    0  0.34516707885E+01 -0.16369785784E+02  0.56755182467E+01  0.17666222728E+02  0.51100000000E-03 0.  1.
        -11    1    3    3    0    0 -0.12490594963E+02  0.93095076151E+01  0.91430839893E+01  0.18063163612E+02  0.51100000000E-03 0. -1.
         12    1    3    3    0    0  0.12219416557E+02 -0.20095532830E+02  0.15877094382E+01  0.23572556119E+02  0.00000000000E+00 0. -1.
</event>
<event>
 7    1  0.5832130E-012  0.5930206E+02  0.7816164E-02  0.1266604E+00
        -11   -1    0    0    0    0  0.00000000000E+00  0.00000000000E+00  0.45593999997E+02  0.45594000000E+02  0.51100000000E-03 0.  1.
         11   -1    0    0    0    0 -0.00000000000E+00 -0.00000000000E+00 -0.45593999997E+02  0.45594000000E+02  0.51100000000E-03 0. -1.
    9900012    2    1    2    0    0 -0.11667904794E+02  0.20699228930E+02  0.21262992524E+02  0.59302063732E+02  0.50000218312E+02 0.  0.
         12    1    1    2    0    0  0.11667904794E+02 -0.20699228930E+02 -0.21262992524E+02  0.31885936268E+02  0.00000000000E+00 0. -1.
         11    1    3    3    0    0  0.47923138190E+01  0.13914841938E+02 -0.40200592093E+01  0.15256145457E+02  0.51100000000E-03 0. -1.
        -11    1    3    3    0    0 -0.74398542019E+01  0.12998461156E+02 -0.15560639631E+01  0.15057647834E+02  0.51100000000E-03 0.  1.
        -12    1    3    3    0    0 -0.90203644116E+01 -0.62140741637E+01  0.26839115697E+02  0.28988270442E+02  0.00000000000E+00 0.  1.
</event>
<event>
 7    1  0.5832130E-012  0.5930199E+02  0.7816164E-02  0.1266605E+00
        -11   -1    0    0    0    0  0.00000000000E+00  0.00000000000E+00  0.45593999997E+02  0.45594000000E+02  0.51100000000E-03 0. -1.
         11   -1    0    0    0    0 -0.00000000000E+00 -0.00000000000E+00 -0.45593999997E+02  0.45594000000E+02  0.51100000000E-03 0.  1.
    9900012    2    1    2    0    0  0.29758699495E+01  0.19870414950E+02 -0.24759413838E+02  0.59301987928E+02  0.50000080063E+02 0.  0.
         12    1    1    2    0    0 -0.29758699495E+01 -0.19870414950E+02  0.24759413838E+02  0.31886012072E+02  0.00000000000E+00 0. -1.
         11    1    3    3    0    0 -0.89136318033E+01  0.12841229465E+02 -0.23223141977E+02  0.27994005245E+02  0.51100000000E-03 0. -1.
        -11    1    3    3    0    0  0.77804628583E+01  0.66471958059E+01 -0.14475049036E+02  0.17727037520E+02  0.51100000000E-03 0.  1.
         12    1    3    3    0    0  0.41090388945E+01  0.38198967942E+00  0.12938777175E+02  0.13580945163E+02  0.00000000000E+00 0. -1.
</event>
<event>
 7    1  0.5832130E-012  0.5930191E+02  0.7816164E-02  0.1266605E+00
        -11   -1    0    0    0    0  0.00000000000E+00  0.00000000000E+00  0.45593999997E+02  0.45594000000E+02  0.51100000000E-03 0. -1.
         11   -1    0    0    0    0 -0.00000000000E+00 -0.00000000000E+00 -0.45593999997E+02  0.45594000000E+02  0.51100000000E-03 0.  1.
    9900012    2    1    2    0    0 -0.69413267307E-01  0.28722819202E+02  0.13846219855E+02  0.59301906395E+02  0.49999931367E+02 0.  0.
         12    1    1    2    0    0  0.69413267307E-01 -0.28722819202E+02 -0.13846219855E+02  0.31886093605E+02  0.00000000000E+00 0. -1.
         11    1    3    3    0    0  0.67906607301E+01  0.62774973468E+01  0.10092605843E+02  0.13688708451E+02  0.51100000000E-03 0. -1.
        -11    1    3    3    0    0  0.95208844135E+01  0.23968697855E+02  0.10481600507E+02  0.27838995426E+02  0.51100000000E-03 0.  1.
         12    1    3    3    0    0 -0.16380958411E+02 -0.15233759997E+01 -0.67279864949E+01  0.17774202519E+02  0.00000000000E+00 0. -1.
</event>
<event>
 7    1  0.5832130E-012  0.5930199E+02  0.7816164E-02  0.1266605E+00
        -11   -1    0    0    0    0  0.00000000000E+00  0.00000000000E+00  0.45593999997E+02  0.45594000000E+02  0.51100000000E-03 0. -1.
         11   -1    0    0    0    0 -0.00000000000E+00 -0.00000000000E+00 -0.45593999997E+02  0.45594000000E+02  0.51100000000E-03 0.  1.
    9900012    2    1    2    0    0  0.54479364566E+01 -0.10929485230E+02 -0.29454780874E+02  0.59301987779E+02  0.50000079791E+02 0.  0.
         12    1    1    2    0    0 -0.54479364566E+01  0.10929485230E+02  0.29454780874E+02  0.31886012221E+02  0.00000000000E+00 0. -1.
         11    1    3    3    0    0 -0.80100001184E+01  0.31794606178E+01 -0.14844191789E+01  0.87448597631E+01  0.51100000000E-03 0. -1.
        -11    1    3    3    0    0  0.11631485825E+02  0.77056820853E+01  0.12926301634E+01  0.14012133738E+02  0.51100000000E-03 0.  1.
        -12    1    3    3    0    0  0.18264507500E+01 -0.21814627933E+02 -0.29262991859E+02  0.36544994277E+02  0.00000000000E+00 0.  1.
</event>
<event>
 7    1  0.5832130E-012  0.5930194E+02  0.7816164E-02  0.1266605E+00
        -11   -1    0    0    0    0  0.00000000000E+00  0.00000000000E+00  0.45593999997E+02  0.45594000000E+02  0.51100000000E-03 0. -1.
         11   -1    0    0    0    0 -0.00000000000E+00 -0.00000000000E+00 -0.45593999997E+02  0.45594000000E+02  0.51100000000E-03 0.  1.
    9900012    2    1    2    0    0 -0.10849313645E+02  0.60463382849E+01 -0.29367587612E+02  0.59301936973E+02  0.49999987133E+02 0.  0.
         12    1    1    2    0    0  0.10849313645E+02 -0.60463382849E+01  0.29367587612E+02  0.31886063027E+02  0.00000000000E+00 0. -1.
         11    1    3    3    0    0 -0.10481912676E+02  0.12418314659E+02 -0.30383796862E+01  0.16532295174E+02  0.51100000000E-03 0. -1.
        -11    1    3    3    0    0 -0.14627626408E+02  0.49905010650E+01 -0.11426832264E+02  0.19220953438E+02  0.51100000000E-03 0.  1.
         12    1    3    3    0    0  0.14260225439E+02 -0.11362477440E+02 -0.14902375662E+02  0.23548688361E+02  0.00000000000E+00 0. -1.
</event>
<event>
 7    1  0.5832130E-012  0.5930193E+02  0.7816164E-02  0.1266605E+00
        -11   -1    0    0    0    0  0.00000000000E+00  0.00000000000E+00  0.45593999997E+02  0.45594000000E+02  0.51100000000E-03 0.  1.
         11   -1    0    0    0    0 -0.00000000000E+00 -0.00000000000E+00 -0.45593999997E+02  0.45594000000E+02  0.51100000000E-03 0. -1.
    9900012    2    1    2    0    0 -0.76626896002E+01  0.93955045191E+01  0.29491174821E+02  0.59301926090E+02  0.49999967286E+02 0.  0.
         12    1    1    2    0    0  0.76626896002E+01 -0.93955045191E+01 -0.29491174821E+02  0.31886073910E+02  0.00000000000E+00 0. -1.
         11    1    3    3    0    0 -0.61638988855E+01 -0.52196122061E+01  0.64786385175E+01  0.10354262811E+02  0.51100000000E-03 0. -1.
        -11    1    3    3    0    0  0.94230683777E+01 -0.11320730996E+02  0.50927727276E+01  0.15584912648E+02  0.51100000000E-03 0.  1.
         12    1    3    3    0    0 -0.10921859092E+02  0.25935847722E+02  0.17919763575E+02  0.33362750631E+02  0.00000000000E+00 0. -1.
</event>
<event>
 7    1  0.5832130E-012  0.5930199E+02  0.7816164E-02  0.1266605E+00
        -11   -1    0    0    0    0  0.00000000000E+00  0.00000000000E+00  0.45593999997E+02  0.45594000000E+02  0.51100000000E-03 0.  1.
         11   -1    0    0    0    0 -0.00000000000E+00 -0.00000000000E+00 -0.45593999997E+02  0.45594000000E+02  0.51100000000E-03 0. -1.
    9900012    2    1    2    0    0 -0.16193129963E+02 -0.25603508780E+02  0.99479017857E+01  0.59301986299E+02  0.50000077092E+02 0.  0.
         12    1    1    2    0    0  0.16193129963E+02  0.25603508780E+02 -0.99479017857E+01  0.31886013701E+02  0.00000000000E+00 0. -1.
         11    1    3    3    0    0 -0.80566119972E+01 -0.77232167382E+01 -0.11149404467E+02  0.15775496629E+02  0.51100000000E-03 0. -1.
        -11    1    3    3    0    0  0.10725444330E+02 -0.78642985763E+01  0.17322311240E+02  0.21839066261E+02  0.51100000000E-03 0.  1.
         12    1    3    3    0    0 -0.18861962296E+02 -0.10015993465E+02  0.37749950132E+01  0.21687423409E+02  0.00000000000E+00 0. -1.
</event>
<event>
 7    1  0.5832130E-012  0.5930197E+02  0.7816164E-02  0.1266605E+00
        -11   -1    0    0    0    0  0.00000000000E+00  0.00000000000E+00  0.45593999997E+02  0.45594000000E+02  0.51100000000E-03 0. -1.
         11   -1    0    0    0    0 -0.00000000000E+00 -0.00000000000E+00 -0.45593999997E+02  0.45594000000E+02  0.51100000000E-03 0.  1.
    9900012    2    1    2    0    0 -0.26784038114E+02 -0.13315182738E+02 -0.11047166175E+02  0.59301973757E+02  0.50000054219E+02 0.  0.
         12    1    1    2    0    0  0.26784038114E+02  0.13315182738E+02  0.11047166175E+02  0.31886026243E+02  0.00000000000E+00 0. -1.
         11    1    3    3    0    0 -0.11412514028E+02 -0.13255813146E+02 -0.23553023083E+02  0.29337807608E+02  0.51100000000E-03 0. -1.
        -11    1    3    3    0    0 -0.30284824244E+01  0.10351896387E+02  0.28741637478E+01  0.11162180885E+02  0.51100000000E-03 0.  1.
         12    1    3    3    0    0 -0.12343041662E+02 -0.10411265979E+02  0.96316931599E+01  0.18801985264E+02  0.00000000000E+00 0. -1.
</event>
<event>
 7    1  0.5832130E-012  0.5930195E+02  0.7816164E-02  0.1266605E+00
        -11   -1    0    0    0    0  0.00000000000E+00  0.00000000000E+00  0.45593999997E+02  0.45594000000E+02  0.51100000000E-03 0. -1.
         11   -1    0    0    0    0 -0.00000000000E+00 -0.00000000000E+00 -0.45593999997E+02  0.45594000000E+02  0.51100000000E-03 0.  1.
    9900012    2    1    2    0    0 -0.20451153217E+02 -0.20472226353E+02 -0.13392474196E+02  0.59301951564E+02  0.50000013745E+02 0.  0.
         12    1    1    2    0    0  0.20451153217E+02  0.20472226353E+02  0.13392474196E+02  0.31886048436E+02  0.00000000000E+00 0. -1.
         11    1    3    3    0    0 -0.24777688065E+01  0.14938002073E+01 -0.18927272882E+02  0.19147126059E+02  0.51100000000E-03 0. -1.
        -11    1    3    3    0    0  0.51776756671E+01 -0.11541851618E+01 -0.50004053659E+01  0.72900289976E+01  0.51100000000E-03 0.  1.
        -12    1    3    3    0    0 -0.23151060077E+02 -0.20811841399E+02  0.10535204051E+02  0.32864796508E+02  0.00000000000E+00 0.  1.
</event>
<event>
 7    1  0.5832130E-012  0.5930193E+02  0.7816164E-02  0.1266605E+00
        -11   -1    0    0    0    0  0.00000000000E+00  0.00000000000E+00  0.45593999997E+02  0.45594000000E+02  0.51100000000E-03 0.  1.
         11   -1    0    0    0    0 -0.00000000000E+00 -0.00000000000E+00 -0.45593999997E+02  0.45594000000E+02  0.51100000000E-03 0. -1.
    9900012    2    1    2    0    0  0.31679598784E+02 -0.35328043197E+01 -0.80223666877E+00  0.59301932993E+02  0.49999979876E+02 0.  0.
         12    1    1    2    0    0 -0.31679598784E+02  0.35328043197E+01  0.80223666877E+00  0.31886067007E+02  0.00000000000E+00 0. -1.
         11    1    3    3    0    0  0.12262373700E+02  0.15171067992E+01 -0.16395079708E+01  0.12464164972E+02  0.51100000000E-03 0. -1.
        -11    1    3    3    0    0  0.19210387529E+02 -0.21276227467E+02  0.69515788747E+01  0.29496462387E+02  0.51100000000E-03 0.  1.
         12    1    3    3    0    0  0.20683755565E+00  0.16226316348E+02 -0.61143075727E+01  0.17341305635E+02  0.00000000000E+00 0. -1.
</event>
<event>
 7    1  0.5832130E-012  0.5930186E+02  0.7816164E-02  0.1266605E+00
        -11   -1    0    0    0    0  0.00000000000E+00  0.00000000000E+00  0.45593999997E+02  0.45594000000E+02  0.51100000000E-03 0.  1.
         11   -1    0    0    0    0 -0.00000000000E+00 -0.00000000000E+00 -0.45593999997E+02  0.45594000000E+02  0.51100000000E-03 0. -1.
    9900012    2    1    2    0    0 -0.94320192303E+01  0.12918674389E+02  0.27583885193E+02  0.59301861051E+02  0.49999848670E+02 0.  0.
         12    1    1    2    0    0  0.94320192303E+01 -0.12918674389E+02 -0.27583885193E+02  0.31886138949E+02  0.00000000000E+00 0. -1.
         11    1    3    3    0    0  0.77061937320E+01  0.56374496332E+01 -0.14999332298E+01  0.96651984023E+01  0.51100000000E-03 0. -1.
        -11    1    3    3    0    0 -0.12208818081E+02 -0.82416108853E+01 -0.16819053662E+01  0.14825929813E+02  0.51100000000E-03 0.  1.
        -12    1    3    3    0    0 -0.49293948817E+01  0.15522835641E+02  0.30765723789E+02  0.34810732835E+02  0.00000000000E+00 0.  1.
</event>
<event>
 7    1  0.5832130E-012  0.5930195E+02  0.7816164E-02  0.1266605E+00
        -11   -1    0    0    0    0  0.00000000000E+00  0.00000000000E+00  0.45593999997E+02  0.45594000000E+02  0.51100000000E-03 0. -1.
         11   -1    0    0    0    0 -0.00000000000E+00 -0.00000000000E+00 -0.45593999997E+02  0.45594000000E+02  0.51100000000E-03 0.  1.
    9900012    2    1    2    0    0 -0.18507242729E+02  0.24126225057E+02  0.95982902992E+01  0.59301953747E+02  0.50000017726E+02 0.  0.
         12    1    1    2    0    0  0.18507242729E+02 -0.24126225057E+02 -0.95982902992E+01  0.31886046253E+02  0.00000000000E+00 0. -1.
         11    1    3    3    0    0 -0.15225602733E+02  0.19511326573E+02 -0.48016284815E+01  0.25210443858E+02  0.51100000000E-03 0. -1.
        -11    1    3    3    0    0  0.10414254423E+02  0.55327539488E+01 -0.27654803786E+01  0.12112635693E+02  0.51100000000E-03 0.  1.
         12    1    3    3    0    0 -0.13695894420E+02 -0.91785546428E+00  0.17165399159E+02  0.21978874196E+02  0.00000000000E+00 0. -1.
</event>
<event>
 7    1  0.5832130E-012  0.5930197E+02  0.7816164E-02  0.1266605E+00
        -11   -1    0    0    0    0  0.00000000000E+00  0.00000000000E+00  0.45593999997E+02  0.45594000000E+02  0.51100000000E-03 0.  1.
         11   -1    0    0    0    0 -0.00000000000E+00 -0.00000000000E+00 -0.45593999997E+02  0.45594000000E+02  0.51100000000E-03 0. -1.
    9900012    2    1    2    0    0 -0.20990415171E+02  0.57832783509E+01  0.23295392824E+02  0.59301965998E+02  0.50000040068E+02 0.  0.
         12    1    1    2    0    0  0.20990415171E+02 -0.57832783509E+01 -0.23295392824E+02  0.31886034002E+02  0.00000000000E+00 0. -1.
         11    1    3    3    0    0  0.13010107395E+02 -0.30320734193E+00  0.61435137931E+01  0.14390885695E+02  0.51100000000E-03 0. -1.
        -11    1    3    3    0    0 -0.27026071975E+01  0.25937223960E+01  0.12534414481E+02  0.13082164507E+02  0.51100000000E-03 0.  1.
        -12    1    3    3    0    0 -0.31297915369E+02  0.34927632968E+01  0.46174645500E+01  0.31828915796E+02  0.00000000000E+00 0.  1.
</event>
<event>
 7    1  0.5832130E-012  0.5930195E+02  0.7816164E-02  0.1266605E+00
        -11   -1    0    0    0    0  0.00000000000E+00  0.00000000000E+00  0.45593999997E+02  0.45594000000E+02  0.51100000000E-03 0.  1.
         11   -1    0    0    0    0 -0.00000000000E+00 -0.00000000000E+00 -0.45593999997E+02  0.45594000000E+02  0.51100000000E-03 0. -1.
    9900012    2    1    2    0    0 -0.30604587288E+02  0.82641441118E+01  0.34326744694E+01  0.59301951406E+02  0.50000013456E+02 0.  0.
         12    1    1    2    0    0  0.30604587288E+02 -0.82641441118E+01 -0.34326744694E+01  0.31886048594E+02  0.00000000000E+00 0. -1.
         11    1    3    3    0    0 -0.16931553689E+02 -0.53469881955E+01  0.25808828306E+01  0.17942373018E+02  0.51100000000E-03 0. -1.
        -11    1    3    3    0    0 -0.25346365319E+02  0.70817546385E+01  0.60603649762E+01  0.27005879129E+02  0.51100000000E-03 0.  1.
         12    1    3    3    0    0  0.11673331720E+02  0.65293776688E+01 -0.52085733374E+01  0.14353699258E+02  0.00000000000E+00 0. -1.
</event>
<event>
 7    1  0.5832130E-012  0.5930195E+02  0.7816164E-02  0.1266605E+00
        -11   -1    0    0    0    0  0.00000000000E+00  0.00000000000E+00  0.45593999997E+02  0.45594000000E+02  0.51100000000E-03 0. -1.
         11   -1    0    0    0    0 -0.00000000000E+00 -0.00000000000E+00 -0.45593999997E+02  0.45594000000E+02  0.51100000000E-03 0.  1.
    9900012    2    1    2    0    0 -0.76904174505E+01  0.50844235675E+01 -0.30524194510E+02  0.59301947656E+02  0.50000006617E+02 0.  0.
         12    1    1    2    0    0  0.76904174505E+01 -0.50844235675E+01  0.30524194510E+02  0.31886052344E+02  0.00000000000E+00 0. -1.
         11    1    3    3    0    0 -0.94725897560E+01  0.11438311982E+02 -0.16057657239E+02  0.21872660880E+02  0.51100000000E-03 0. -1.
        -11    1    3    3    0    0 -0.11817764231E+02  0.79988524057E+01 -0.30336467167E+01  0.14589181056E+02  0.51100000000E-03 0.  1.
        -12    1    3    3    0    0  0.13599936537E+02 -0.14352740821E+02 -0.11432890554E+02  0.22840105720E+02  0.00000000000E+00 0.  1.
</event>
<event>
 7    1  0.5832130E-012  0.5930193E+02  0.7816164E-02  0.1266605E+00
        -11   -1    0    0    0    0  0.00000000000E+00  0.00000000000E+00  0.45593999997E+02  0.45594000000E+02  0.51100000000E-03 0.  1.
         11   -1    0    0    0    0 -0.00000000000E+00 -0.00000000000E+00 -0.45593999997E+02  0.45594000000E+02  0.51100000000E-03 0. -1.
    9900012    2    1    2    0    0  0.14711419945E+02 -0.27492270008E+02 -0.66686137791E+01  0.59301934129E+02  0.49999981948E+02 0.  0.
         12    1    1    2    0    0 -0.14711419945E+02  0.27492270008E+02  0.66686137791E+01  0.31886065871E+02  0.00000000000E+00 0. -1.
         11    1    3    3    0    0  0.13700938560E+02  0.49632490295E+01 -0.18794072212E+01  0.14692914283E+02  0.51100000000E-03 0. -1.
        -11    1    3    3    0    0 -0.17330321842E+01  0.24142190978E+00 -0.11064916696E+02  0.11202413438E+02  0.51100000000E-03 0.  1.
        -12    1    3    3    0    0  0.27435135687E+01 -0.32696940947E+02  0.62757101379E+01  0.33406606409E+02  0.00000000000E+00 0.  1.
</event>
<event>
 7    1  0.5832130E-012  0.5930195E+02  0.7816164E-02  0.1266605E+00
        -11   -1    0    0    0    0  0.00000000000E+00  0.00000000000E+00  0.45593999997E+02  0.45594000000E+02  0.51100000000E-03 0.  1.
         11   -1    0    0    0    0 -0.00000000000E+00 -0.00000000000E+00 -0.45593999997E+02  0.45594000000E+02  0.51100000000E-03 0. -1.
    9900012    2    1    2    0    0 -0.10165250539E+02  0.28472326048E+02  0.10134821915E+02  0.59301948436E+02  0.50000008039E+02 0.  0.
         12    1    1    2    0    0  0.10165250539E+02 -0.28472326048E+02 -0.10134821915E+02  0.31886051564E+02  0.00000000000E+00 0. -1.
         11    1    3    3    0    0  0.96102123690E+01  0.15094920550E+02 -0.30084324149E+01  0.18145618591E+02  0.51100000000E-03 0. -1.
        -11    1    3    3    0    0  0.36384157984E+01  0.14396008538E+02  0.13211273140E+01  0.14907330713E+02  0.51100000000E-03 0.  1.
        -12    1    3    3    0    0 -0.23413878706E+02 -0.10186030403E+01  0.11822127016E+02  0.26248999132E+02  0.00000000000E+00 0.  1.
</event>
<event>
 7    1  0.5832130E-012  0.5930166E+02  0.7816164E-02  0.1266606E+00
        -11   -1    0    0    0    0  0.00000000000E+00  0.00000000000E+00  0.45593999997E+02  0.45594000000E+02  0.51100000000E-03 0. -1.
         11   -1    0    0    0    0 -0.00000000000E+00 -0.00000000000E+00 -0.45593999997E+02  0.45594000000E+02  0.51100000000E-03 0.  1.
    9900012    2    1    2    0    0  0.14796088020E+01 -0.50917435513E+01 -0.31442381448E+02  0.59301663652E+02  0.49999488659E+02 0.  0.
         12    1    1    2    0    0 -0.14796088020E+01  0.50917435513E+01  0.31442381448E+02  0.31886336348E+02  0.00000000000E+00 0. -1.
         11    1    3    3    0    0 -0.11700912092E+02  0.17205637143E+01 -0.13392520132E+02  0.17867044496E+02  0.51100000000E-03 0. -1.
        -11    1    3    3    0    0  0.85883413085E+01 -0.16121779096E+02 -0.23456830621E+02  0.29730359411E+02  0.51100000000E-03 0.  1.
         12    1    3    3    0    0  0.45921795851E+01  0.93094718302E+01  0.54069693061E+01  0.11704259745E+02  0.00000000000E+00 0. -1.
</event>
<event>
 7    1  0.5832130E-012  0.5930201E+02  0.7816164E-02  0.1266605E+00
        -11   -1    0    0    0    0  0.00000000000E+00  0.00000000000E+00  0.45593999997E+02  0.45594000000E+02  0.51100000000E-03 0. -1.
         11   -1    0    0    0    0 -0.00000000000E+00 -0.00000000000E+00 -0.45593999997E+02  0.45594000000E+02  0.51100000000E-03 0.  1.
    9900012    2    1    2    0    0 -0.24613677933E+02  0.16851992844E+02 -0.11264709694E+02  0.59302007955E+02  0.50000116588E+02 0.  0.
         12    1    1    2    0    0  0.24613677933E+02 -0.16851992844E+02  0.11264709694E+02  0.31885992045E+02  0.00000000000E+00 0. -1.
         11    1    3    3    0    0 -0.16633207006E+02  0.23265342383E+01  0.27927328539E+01  0.17025736222E+02  0.51100000000E-03 0. -1.
        -11    1    3    3    0    0 -0.16285970599E+02  0.13596997627E+02 -0.22129978090E+02  0.30656926026E+02  0.51100000000E-03 0.  1.
         12    1    3    3    0    0  0.83054996720E+01  0.92846097872E+00  0.80725355419E+01  0.11619345707E+02  0.00000000000E+00 0. -1.
</event>
<event>
 7    1  0.5832130E-012  0.5930196E+02  0.7816164E-02  0.1266605E+00
        -11   -1    0    0    0    0  0.00000000000E+00  0.00000000000E+00  0.45593999997E+02  0.45594000000E+02  0.51100000000E-03 0. -1.
         11   -1    0    0    0    0 -0.00000000000E+00 -0.00000000000E+00 -0.45593999997E+02  0.45594000000E+02  0.51100000000E-03 0.  1.
    9900012    2    1    2    0    0 -0.20190274395E+02  0.24093446104E+02 -0.53458687264E+01  0.59301958575E+02  0.50000026531E+02 0.  0.
         12    1    1    2    0    0  0.20190274395E+02 -0.24093446104E+02  0.53458687264E+01  0.31886041425E+02  0.00000000000E+00 0. -1.
         11    1    3    3    0    0 -0.23058985507E+01 -0.12387211683E+02  0.86140497989E+01  0.15263093907E+02  0.51100000000E-03 0. -1.
        -11    1    3    3    0    0 -0.32882027430E+01  0.13693500233E+01 -0.87559580468E-01  0.35630132903E+01  0.51100000000E-03 0.  1.
        -12    1    3    3    0    0 -0.14596173101E+02  0.35111307764E+02 -0.13872358945E+02  0.40475851378E+02  0.00000000000E+00 0.  1.
</event>
<event>
 7    1  0.5832130E-012  0.5930197E+02  0.7816164E-02  0.1266605E+00
        -11   -1    0    0    0    0  0.00000000000E+00  0.00000000000E+00  0.45593999997E+02  0.45594000000E+02  0.51100000000E-03 0. -1.
         11   -1    0    0    0    0 -0.00000000000E+00 -0.00000000000E+00 -0.45593999997E+02  0.45594000000E+02  0.51100000000E-03 0.  1.
    9900012    2    1    2    0    0 -0.21490723286E+02 -0.21350270569E+02 -0.99515699378E+01  0.59301968812E+02  0.50000045200E+02 0.  0.
         12    1    1    2    0    0  0.21490723286E+02  0.21350270569E+02  0.99515699378E+01  0.31886031188E+02  0.00000000000E+00 0. -1.
         11    1    3    3    0    0  0.10507071132E+02 -0.16152827451E+02 -0.25639567085E+01  0.19439296610E+02  0.51100000000E-03 0. -1.
        -11    1    3    3    0    0 -0.31248014975E+01  0.16865254483E+01 -0.94636239337E+01  0.10107864795E+02  0.51100000000E-03 0.  1.
         12    1    3    3    0    0 -0.28872992920E+02 -0.68839685661E+01  0.20760107044E+01  0.29754807407E+02  0.00000000000E+00 0. -1.
</event>
<event>
 7    1  0.5832130E-012  0.5930195E+02  0.7816164E-02  0.1266605E+00
        -11   -1    0    0    0    0  0.00000000000E+00  0.00000000000E+00  0.45593999997E+02  0.45594000000E+02  0.51100000000E-03 0. -1.
         11   -1    0    0    0    0 -0.00000000000E+00 -0.00000000000E+00 -0.45593999997E+02  0.45594000000E+02  0.51100000000E-03 0.  1.
    9900012    2    1    2    0    0  0.46176859287E+01 -0.61276034316E+01 -0.30949150164E+02  0.59301945948E+02  0.50000003502E+02 0.  0.
         12    1    1    2    0    0 -0.46176859287E+01  0.61276034316E+01  0.30949150164E+02  0.31886054052E+02  0.00000000000E+00 0. -1.
         11    1    3    3    0    0 -0.10849598358E+02 -0.91446409063E+01 -0.12895118694E+02  0.19173479815E+02  0.51100000000E-03 0.  1.
        -11    1    3    3    0    0  0.36285890522E+01 -0.13180734837E+02 -0.84692157668E+00  0.13697288263E+02  0.51100000000E-03 0. -1.
        -12    1    3    3    0    0  0.11838695234E+02  0.16197772311E+02 -0.17207109893E+02  0.26431177870E+02  0.00000000000E+00 0.  1.
</event>
<event>
 7    1  0.5832130E-012  0.5930186E+02  0.7816164E-02  0.1266605E+00
        -11   -1    0    0    0    0  0.00000000000E+00  0.00000000000E+00  0.45593999997E+02  0.45594000000E+02  0.51100000000E-03 0. -1.
         11   -1    0    0    0    0 -0.00000000000E+00 -0.00000000000E+00 -0.45593999997E+02  0.45594000000E+02  0.51100000000E-03 0.  1.
    9900012    2    1    2    0    0  0.16784145289E+02  0.45639987202E+01 -0.26724300785E+02  0.59301860851E+02  0.49999848305E+02 0.  0.
         12    1    1    2    0    0 -0.16784145289E+02 -0.45639987202E+01  0.26724300785E+02  0.31886139149E+02  0.00000000000E+00 0. -1.
         11    1    3    3    0    0  0.46035708984E+01 -0.17302648669E+01  0.38771916766E+01  0.62625312042E+01  0.51100000000E-03 0. -1.
        -11    1    3    3    0    0 -0.87903226787E+01 -0.11468307254E+02 -0.17198131011E+02  0.22462581210E+02  0.51100000000E-03 0.  1.
        -12    1    3    3    0    0  0.20970897069E+02  0.17762570842E+02 -0.13403361450E+02  0.30576748436E+02  0.00000000000E+00 0.  1.
</event>
<event>
 7    1  0.5832130E-012  0.5930194E+02  0.7816164E-02  0.1266605E+00
        -11   -1    0    0    0    0  0.00000000000E+00  0.00000000000E+00  0.45593999997E+02  0.45594000000E+02  0.51100000000E-03 0.  1.
         11   -1    0    0    0    0 -0.00000000000E+00 -0.00000000000E+00 -0.45593999997E+02  0.45594000000E+02  0.51100000000E-03 0. -1.
    9900012    2    1    2    0    0  0.26302454757E+02  0.14192198070E+02  0.11112293756E+02  0.59301942156E+02  0.49999996587E+02 0.  0.
         12    1    1    2    0    0 -0.26302454757E+02 -0.14192198070E+02 -0.11112293756E+02  0.31886057844E+02  0.00000000000E+00 0. -1.
         11    1    3    3    0    0  0.49523230201E+01 -0.62340173084E+00 -0.67818954755E+01  0.84207030298E+01  0.51100000000E-03 0. -1.
        -11    1    3    3    0    0  0.29384911296E+02 -0.19926148641E+00  0.56930596657E+01  0.29931983657E+02  0.51100000000E-03 0.  1.
         12    1    3    3    0    0 -0.80347795596E+01  0.15014861288E+02  0.12201129566E+02  0.20949255470E+02  0.00000000000E+00 0. -1.
</event>
<event>
 7    1  0.5832130E-012  0.5930197E+02  0.7816164E-02  0.1266605E+00
        -11   -1    0    0    0    0  0.00000000000E+00  0.00000000000E+00  0.45593999997E+02  0.45594000000E+02  0.51100000000E-03 0.  1.
         11   -1    0    0    0    0 -0.00000000000E+00 -0.00000000000E+00 -0.45593999997E+02  0.45594000000E+02  0.51100000000E-03 0. -1.
    9900012    2    1    2    0    0 -0.16002480616E+02 -0.16335316222E+02  0.22221549649E+02  0.59301965271E+02  0.50000038743E+02 0.  0.
         12    1    1    2    0    0  0.16002480616E+02  0.16335316222E+02 -0.22221549649E+02  0.31886034729E+02  0.00000000000E+00 0. -1.
         11    1    3    3    0    0 -0.11252134767E+02  0.87019136200E+01  0.86416530263E+01  0.16643677621E+02  0.51100000000E-03 0. -1.
        -11    1    3    3    0    0 -0.61372124135E+01 -0.15324959457E+00  0.16462120063E+02  0.17569583344E+02  0.51100000000E-03 0.  1.
         12    1    3    3    0    0  0.13868665645E+01 -0.24883980247E+02 -0.28822234405E+01  0.25088704307E+02  0.00000000000E+00 0. -1.
</event>
<event>
 7    1  0.5832130E-012  0.5930200E+02  0.7816164E-02  0.1266605E+00
        -11   -1    0    0    0    0  0.00000000000E+00  0.00000000000E+00  0.45593999997E+02  0.45594000000E+02  0.51100000000E-03 0. -1.
         11   -1    0    0    0    0 -0.00000000000E+00 -0.00000000000E+00 -0.45593999997E+02  0.45594000000E+02  0.51100000000E-03 0.  1.
    9900012    2    1    2    0    0  0.11561866272E+01 -0.27190527474E+02 -0.16614924374E+02  0.59301995801E+02  0.50000094422E+02 0.  0.
         12    1    1    2    0    0 -0.11561866272E+01  0.27190527474E+02  0.16614924374E+02  0.31886004199E+02  0.00000000000E+00 0. -1.
         11    1    3    3    0    0  0.18813045799E+02 -0.21800727037E+02 -0.18957181631E+02  0.34475746942E+02  0.51100000000E-03 0. -1.
        -11    1    3    3    0    0 -0.71432036857E+01 -0.70882461334E+01  0.79181640352E+01  0.12804917575E+02  0.51100000000E-03 0.  1.
        -12    1    3    3    0    0 -0.10513655486E+02  0.16984456959E+01 -0.55759067777E+01  0.12021331284E+02  0.00000000000E+00 0.  1.
</event>
<event>
 7    1  0.5832130E-012  0.5930186E+02  0.7816164E-02  0.1266605E+00
        -11   -1    0    0    0    0  0.00000000000E+00  0.00000000000E+00  0.45593999997E+02  0.45594000000E+02  0.51100000000E-03 0. -1.
         11   -1    0    0    0    0 -0.00000000000E+00 -0.00000000000E+00 -0.45593999997E+02  0.45594000000E+02  0.51100000000E-03 0.  1.
    9900012    2    1    2    0    0  0.25217009251E+02 -0.52249334072E+01 -0.18802347001E+02  0.59301862927E+02  0.49999852091E+02 0.  0.
         12    1    1    2    0    0 -0.25217009251E+02  0.52249334072E+01  0.18802347001E+02  0.31886137073E+02  0.00000000000E+00 0. -1.
         11    1    3    3    0    0  0.15662103970E+02  0.11501998842E+02 -0.27832533914E+02  0.33944770178E+02  0.51100000000E-03 0. -1.
        -11    1    3    3    0    0  0.71860825239E+01 -0.65799377045E+01 -0.22509548913E+01  0.10000108020E+02  0.51100000000E-03 0.  1.
        -12    1    3    3    0    0  0.23688227574E+01 -0.10146994545E+02  0.11281141804E+02  0.15356984728E+02  0.00000000000E+00 0.  1.
</event>
<event>
 7    1  0.5832130E-012  0.5930194E+02  0.7816164E-02  0.1266605E+00
        -11   -1    0    0    0    0  0.00000000000E+00  0.00000000000E+00  0.45593999997E+02  0.45594000000E+02  0.51100000000E-03 0. -1.
         11   -1    0    0    0    0 -0.00000000000E+00 -0.00000000000E+00 -0.45593999997E+02  0.45594000000E+02  0.51100000000E-03 0.  1.
    9900012    2    1    2    0    0  0.60996268205E+01 -0.20563075296E+01 -0.31229587079E+02  0.59301937886E+02  0.49999988799E+02 0.  0.
         12    1    1    2    0    0 -0.60996268205E+01  0.20563075296E+01  0.31229587079E+02  0.31886062114E+02  0.00000000000E+00 0. -1.
         11    1    3    3    0    0  0.18995321407E+02 -0.58440520822E+01 -0.97186489613E+01  0.22123004271E+02  0.51100000000E-03 0. -1.
        -11    1    3    3    0    0 -0.18155612946E+02  0.22429108999E+00 -0.40571386475E+01  0.18604756441E+02  0.51100000000E-03 0.  1.
         12    1    3    3    0    0  0.52599183603E+01  0.35634534626E+01 -0.17453799470E+02  0.18574177174E+02  0.00000000000E+00 0. -1.
</event>
<event>
 7    1  0.5832130E-012  0.5930190E+02  0.7816164E-02  0.1266605E+00
        -11   -1    0    0    0    0  0.00000000000E+00  0.00000000000E+00  0.45593999997E+02  0.45594000000E+02  0.51100000000E-03 0.  1.
         11   -1    0    0    0    0 -0.00000000000E+00 -0.00000000000E+00 -0.45593999997E+02  0.45594000000E+02  0.51100000000E-03 0. -1.
    9900012    2    1    2    0    0  0.16037689725E+02  0.15891065521E+02  0.22516429835E+02  0.59301904792E+02  0.49999928443E+02 0.  0.
         12    1    1    2    0    0 -0.16037689725E+02 -0.15891065521E+02 -0.22516429835E+02  0.31886095208E+02  0.00000000000E+00 0. -1.
         11    1    3    3    0    0  0.13572507193E+02  0.54438891018E+01  0.56860098768E+01  0.15690111174E+02  0.51100000000E-03 0. -1.
        -11    1    3    3    0    0  0.83945549285E+01  0.13407715553E+02  0.27106077569E+02  0.31384308663E+02  0.51100000000E-03 0.  1.
         12    1    3    3    0    0 -0.59293723970E+01 -0.29605391332E+01 -0.10275657611E+02  0.12227484955E+02  0.00000000000E+00 0. -1.
</event>
<event>
 7    1  0.5832130E-012  0.5930195E+02  0.7816164E-02  0.1266605E+00
        -11   -1    0    0    0    0  0.00000000000E+00  0.00000000000E+00  0.45593999997E+02  0.45594000000E+02  0.51100000000E-03 0. -1.
         11   -1    0    0    0    0 -0.00000000000E+00 -0.00000000000E+00 -0.45593999997E+02  0.45594000000E+02  0.51100000000E-03 0.  1.
    9900012    2    1    2    0    0  0.15073762024E+02  0.43258508830E+01 -0.27763079654E+02  0.59301954788E+02  0.50000019623E+02 0.  0.
         12    1    1    2    0    0 -0.15073762024E+02 -0.43258508830E+01  0.27763079654E+02  0.31886045212E+02  0.00000000000E+00 0. -1.
         11    1    3    3    0    0  0.51510258507E+00  0.21158382100E+02 -0.16658842217E+02  0.26934355163E+02  0.51100000000E-03 0. -1.
        -11    1    3    3    0    0 -0.40189951643E+01 -0.96792365421E+01 -0.43233072786E+01  0.11337148154E+02  0.51100000000E-03 0.  1.
        -12    1    3    3    0    0  0.18577654604E+02 -0.71532946748E+01 -0.67809301576E+01  0.21030451471E+02  0.00000000000E+00 0.  1.
</event>
<event>
 7    1  0.5832130E-012  0.5930195E+02  0.7816164E-02  0.1266605E+00
        -11   -1    0    0    0    0  0.00000000000E+00  0.00000000000E+00  0.45593999997E+02  0.45594000000E+02  0.51100000000E-03 0.  1.
         11   -1    0    0    0    0 -0.00000000000E+00 -0.00000000000E+00 -0.45593999997E+02  0.45594000000E+02  0.51100000000E-03 0. -1.
    9900012    2    1    2    0    0 -0.91708753204E+01 -0.59948426375E+01  0.29944565415E+02  0.59301951479E+02  0.50000013590E+02 0.  0.
         12    1    1    2    0    0  0.91708753204E+01  0.59948426375E+01 -0.29944565415E+02  0.31886048521E+02  0.00000000000E+00 0. -1.
         11    1    3    3    0    0 -0.15934418598E+02 -0.25002921792E+01 -0.32788596947E+01  0.16459285471E+02  0.51100000000E-03 0. -1.
        -11    1    3    3    0    0 -0.74105316545E+01  0.59754909447E+01  0.81981439313E+01  0.12563122049E+02  0.51100000000E-03 0.  1.
        -12    1    3    3    0    0  0.14174074932E+02 -0.94700414030E+01  0.25025281178E+02  0.30279543960E+02  0.00000000000E+00 0.  1.
</event>
<event>
 7    1  0.5832130E-012  0.5930194E+02  0.7816164E-02  0.1266605E+00
        -11   -1    0    0    0    0  0.00000000000E+00  0.00000000000E+00  0.45593999997E+02  0.45594000000E+02  0.51100000000E-03 0.  1.
         11   -1    0    0    0    0 -0.00000000000E+00 -0.00000000000E+00 -0.45593999997E+02  0.45594000000E+02  0.51100000000E-03 0. -1.
    9900012    2    1    2    0    0 -0.31693202037E+02  0.32838044449E+01  0.12159540983E+01  0.59301937663E+02  0.49999988393E+02 0.  0.
         12    1    1    2    0    0  0.31693202037E+02 -0.32838044449E+01 -0.12159540983E+01  0.31886062337E+02  0.00000000000E+00 0. -1.
         11    1    3    3    0    0  0.20562045430E+01  0.35070520914E+01 -0.31844661523E+01  0.51641278481E+01  0.51100000000E-03 0. -1.
        -11    1    3    3    0    0  0.15892490210E+00 -0.12493702326E+02 -0.92861393152E+01  0.15567602211E+02  0.51100000000E-03 0.  1.
        -12    1    3    3    0    0 -0.33908331482E+02  0.12270454680E+02  0.13686559566E+02  0.38570207605E+02  0.00000000000E+00 0.  1.
</event>
<event>
 7    1  0.5832130E-012  0.5930195E+02  0.7816164E-02  0.1266605E+00
        -11   -1    0    0    0    0  0.00000000000E+00  0.00000000000E+00  0.45593999997E+02  0.45594000000E+02  0.51100000000E-03 0.  1.
         11   -1    0    0    0    0 -0.00000000000E+00 -0.00000000000E+00 -0.45593999997E+02  0.45594000000E+02  0.51100000000E-03 0. -1.
    9900012    2    1    2    0    0  0.13371191829E+02  0.22579627780E+02  0.18113308378E+02  0.59301948159E+02  0.50000007535E+02 0.  0.
         12    1    1    2    0    0 -0.13371191829E+02 -0.22579627780E+02 -0.18113308378E+02  0.31886051841E+02  0.00000000000E+00 0. -1.
         11    1    3    3    0    0 -0.69586179762E+01  0.49313397488E+01 -0.64080667964E+01  0.10667886210E+02  0.51100000000E-03 0. -1.
        -11    1    3    3    0    0 -0.57864678212E+01 -0.39447505614E+01  0.88862629061E+01  0.11314147583E+02  0.51100000000E-03 0.  1.
        -12    1    3    3    0    0  0.26116277626E+02  0.21593038592E+02  0.15635112268E+02  0.37319914366E+02  0.00000000000E+00 0.  1.
</event>
<event>
 7    1  0.5832130E-012  0.5930189E+02  0.7816164E-02  0.1266605E+00
        -11   -1    0    0    0    0  0.00000000000E+00  0.00000000000E+00  0.45593999997E+02  0.45594000000E+02  0.51100000000E-03 0.  1.
         11   -1    0    0    0    0 -0.00000000000E+00 -0.00000000000E+00 -0.45593999997E+02  0.45594000000E+02  0.51100000000E-03 0. -1.
    9900012    2    1    2    0    0  0.28837488950E+02  0.13549828785E+02 -0.12350791573E+01  0.59301889394E+02  0.49999900360E+02 0.  0.
         12    1    1    2    0    0 -0.28837488950E+02 -0.13549828785E+02  0.12350791573E+01  0.31886110606E+02  0.00000000000E+00 0. -1.
         11    1    3    3    0    0  0.99648456642E+01  0.20502844670E+01 -0.82653405650E+01  0.13107923956E+02  0.51100000000E-03 0. -1.
        -11    1    3    3    0    0  0.29361260371E+02  0.13220645611E+01  0.10433839793E+02  0.31188082313E+02  0.51100000000E-03 0.  1.
        -12    1    3    3    0    0 -0.10488617084E+02  0.10177479757E+02 -0.34035783857E+01  0.15005883125E+02  0.00000000000E+00 0.  1.
</event>
<event>
 7    1  0.5832130E-012  0.5930195E+02  0.7816164E-02  0.1266605E+00
        -11   -1    0    0    0    0  0.00000000000E+00  0.00000000000E+00  0.45593999997E+02  0.45594000000E+02  0.51100000000E-03 0.  1.
         11   -1    0    0    0    0 -0.00000000000E+00 -0.00000000000E+00 -0.45593999997E+02  0.45594000000E+02  0.51100000000E-03 0. -1.
    9900012    2    1    2    0    0 -0.95760350322E+01  0.10354026235E+01  0.30396507450E+02  0.59301950219E+02  0.50000011291E+02 0.  0.
         12    1    1    2    0    0  0.95760350322E+01 -0.10354026235E+01 -0.30396507450E+02  0.31886049781E+02  0.00000000000E+00 0. -1.
         11    1    3    3    0    0  0.60507903836E+01  0.58392569978E+01  0.13965685765E+02  0.16301820932E+02  0.51100000000E-03 0. -1.
        -11    1    3    3    0    0 -0.14064514297E+02  0.31685057260E+01  0.26436227425E+02  0.30111859983E+02  0.51100000000E-03 0.  1.
         12    1    3    3    0    0 -0.15623111192E+01 -0.79723601003E+01 -0.10005405740E+02  0.12888269303E+02  0.00000000000E+00 0. -1.
</event>
<event>
 7    1  0.5832130E-012  0.5930194E+02  0.7816164E-02  0.1266605E+00
        -11   -1    0    0    0    0  0.00000000000E+00  0.00000000000E+00  0.45593999997E+02  0.45594000000E+02  0.51100000000E-03 0.  1.
         11   -1    0    0    0    0 -0.00000000000E+00 -0.00000000000E+00 -0.45593999997E+02  0.45594000000E+02  0.51100000000E-03 0. -1.
    9900012    2    1    2    0    0  0.93832383248E+01 -0.23923434114E+02  0.18877103749E+02  0.59301938669E+02  0.49999990226E+02 0.  0.
         12    1    1    2    0    0 -0.93832383248E+01  0.23923434114E+02 -0.18877103749E+02  0.31886061331E+02  0.00000000000E+00 0. -1.
         11    1    3    3    0    0  0.52750497902E+01  0.52525000350E+01  0.23260714141E+02  0.24422852608E+02  0.51100000000E-03 0. -1.
        -11    1    3    3    0    0  0.63580600474E+01 -0.12899207332E+01 -0.20569861016E+01  0.68058809237E+01  0.51100000000E-03 0.  1.
        -12    1    3    3    0    0 -0.22498715127E+01 -0.27886013416E+02 -0.23266242905E+01  0.28073205137E+02  0.00000000000E+00 0.  1.
</event>
<event>
 7    1  0.5832130E-012  0.5930195E+02  0.7816164E-02  0.1266605E+00
        -11   -1    0    0    0    0  0.00000000000E+00  0.00000000000E+00  0.45593999997E+02  0.45594000000E+02  0.51100000000E-03 0.  1.
         11   -1    0    0    0    0 -0.00000000000E+00 -0.00000000000E+00 -0.45593999997E+02  0.45594000000E+02  0.51100000000E-03 0. -1.
    9900012    2    1    2    0    0  0.38649526900E+01 -0.10659276881E+02  0.29802054194E+02  0.59301945413E+02  0.50000002527E+02 0.  0.
         12    1    1    2    0    0 -0.38649526900E+01  0.10659276881E+02 -0.29802054194E+02  0.31886054587E+02  0.00000000000E+00 0. -1.
         11    1    3    3    0    0  0.20619871643E+01 -0.54303981423E+01 -0.76195976376E+01  0.95811942611E+01  0.51100000000E-03 0. -1.
        -11    1    3    3    0    0  0.46152890605E+01  0.90405097547E+01  0.64292930003E+00  0.10170794860E+02  0.51100000000E-03 0.  1.
        -12    1    3    3    0    0 -0.28123235348E+01 -0.14269388494E+02  0.36778722532E+02  0.39549956292E+02  0.00000000000E+00 0.  1.
</event>
<event>
 7    1  0.5832130E-012  0.5930196E+02  0.7816164E-02  0.1266605E+00
        -11   -1    0    0    0    0  0.00000000000E+00  0.00000000000E+00  0.45593999997E+02  0.45594000000E+02  0.51100000000E-03 0.  1.
         11   -1    0    0    0    0 -0.00000000000E+00 -0.00000000000E+00 -0.45593999997E+02  0.45594000000E+02  0.51100000000E-03 0. -1.
    9900012    2    1    2    0    0 -0.21027949923E+02 -0.21913290117E+02  0.97135421447E+01  0.59301955048E+02  0.50000020098E+02 0.  0.
         12    1    1    2    0    0  0.21027949923E+02  0.21913290117E+02 -0.97135421447E+01  0.31886044952E+02  0.00000000000E+00 0. -1.
         11    1    3    3    0    0  0.36848972712E+01  0.15233908173E+01  0.11721246513E+01  0.41560875762E+01  0.51100000000E-03 0. -1.
        -11    1    3    3    0    0  0.42238537512E+00 -0.21994904559E+02  0.17823155176E+02  0.28312878636E+02  0.51100000000E-03 0.  1.
         12    1    3    3    0    0 -0.25135232569E+02 -0.14417763755E+01 -0.92817376829E+01  0.26832988835E+02  0.00000000000E+00 0. -1.
</event>
<event>
 7    1  0.5832130E-012  0.5930195E+02  0.7816164E-02  0.1266605E+00
        -11   -1    0    0    0    0  0.00000000000E+00  0.00000000000E+00  0.45593999997E+02  0.45594000000E+02  0.51100000000E-03 0.  1.
         11   -1    0    0    0    0 -0.00000000000E+00 -0.00000000000E+00 -0.45593999997E+02  0.45594000000E+02  0.51100000000E-03 0. -1.
    9900012    2    1    2    0    0 -0.18975345024E+02 -0.86127863609E+01  0.24134544137E+02  0.59301952450E+02  0.50000015360E+02 0.  0.
         12    1    1    2    0    0  0.18975345024E+02  0.86127863609E+01 -0.24134544137E+02  0.31886047550E+02  0.00000000000E+00 0. -1.
         11    1    3    3    0    0 -0.24383208790E+01  0.91421832016E+01  0.15853778196E+02  0.18462589357E+02  0.51100000000E-03 0. -1.
        -11    1    3    3    0    0 -0.29412843699E+01 -0.87442240655E+01  0.19137968841E+02  0.21245575066E+02  0.51100000000E-03 0.  1.
         12    1    3    3    0    0 -0.13595739775E+02 -0.90107454970E+01 -0.10857202900E+02  0.19593788027E+02  0.00000000000E+00 0. -1.
</event>
<event>
 7    1  0.5832130E-012  0.5930210E+02  0.7816164E-02  0.1266604E+00
        -11   -1    0    0    0    0  0.00000000000E+00  0.00000000000E+00  0.45593999997E+02  0.45594000000E+02  0.51100000000E-03 0.  1.
         11   -1    0    0    0    0 -0.00000000000E+00 -0.00000000000E+00 -0.45593999997E+02  0.45594000000E+02  0.51100000000E-03 0. -1.
    9900012    2    1    2    0    0 -0.21100198288E+02 -0.13120259053E+02  0.19983774561E+02  0.59302096984E+02  0.50000278955E+02 0.  0.
         12    1    1    2    0    0  0.21100198288E+02  0.13120259053E+02 -0.19983774561E+02  0.31885903016E+02  0.00000000000E+00 0. -1.
         11    1    3    3    0    0  0.76074979289E+01 -0.46858511881E+01 -0.90966913180E+01  0.12750726226E+02  0.51100000000E-03 0. -1.
        -11    1    3    3    0    0 -0.20696507228E+02  0.31253243522E+01  0.11002302135E+02  0.23646642812E+02  0.51100000000E-03 0.  1.
        -12    1    3    3    0    0 -0.80111889892E+01 -0.11559732217E+02  0.18078163744E+02  0.22904727946E+02  0.00000000000E+00 0.  1.
</event>
<event>
 7    1  0.5832130E-012  0.5930193E+02  0.7816164E-02  0.1266605E+00
        -11   -1    0    0    0    0  0.00000000000E+00  0.00000000000E+00  0.45593999997E+02  0.45594000000E+02  0.51100000000E-03 0.  1.
         11   -1    0    0    0    0 -0.00000000000E+00 -0.00000000000E+00 -0.45593999997E+02  0.45594000000E+02  0.51100000000E-03 0. -1.
    9900012    2    1    2    0    0 -0.71597022666E+01  0.82798774460E+01  0.29948350433E+02  0.59301930930E+02  0.49999976114E+02 0.  0.
         12    1    1    2    0    0  0.71597022666E+01 -0.82798774460E+01 -0.29948350433E+02  0.31886069070E+02  0.00000000000E+00 0. -1.
         11    1    3    3    0    0  0.30491652011E+01 -0.49904233045E+01  0.55347077232E+01  0.80520011813E+01  0.51100000000E-03 0. -1.
        -11    1    3    3    0    0 -0.18261067177E+02 -0.96883879627E+01  0.99041341367E+01  0.22922113974E+02  0.51100000000E-03 0.  1.
        -12    1    3    3    0    0  0.80521997093E+01  0.22958688713E+02  0.14509508573E+02  0.28327815776E+02  0.00000000000E+00 0.  1.
</event>
<event>
 7    1  0.5832130E-012  0.5930199E+02  0.7816164E-02  0.1266605E+00
        -11   -1    0    0    0    0  0.00000000000E+00  0.00000000000E+00  0.45593999997E+02  0.45594000000E+02  0.51100000000E-03 0.  1.
         11   -1    0    0    0    0 -0.00000000000E+00 -0.00000000000E+00 -0.45593999997E+02  0.45594000000E+02  0.51100000000E-03 0. -1.
    9900012    2    1    2    0    0 -0.21989460389E+02  0.14011856502E+02  0.18353454457E+02  0.59301987685E+02  0.50000079621E+02 0.  0.
         12    1    1    2    0    0  0.21989460389E+02 -0.14011856502E+02 -0.18353454457E+02  0.31886012315E+02  0.00000000000E+00 0. -1.
         11    1    3    3    0    0 -0.24909739411E+01  0.13947122017E+00 -0.10575174975E+02  0.10865483395E+02  0.51100000000E-03 0. -1.
        -11    1    3    3    0    0 -0.49290905463E+01 -0.85544707687E+01  0.12557307515E+01  0.99524752564E+01  0.51100000000E-03 0.  1.
         12    1    3    3    0    0 -0.14569395901E+02  0.22426856051E+02  0.27672898681E+02  0.38484029034E+02  0.00000000000E+00 0. -1.
</event>
<event>
 7    1  0.5832130E-012  0.5930194E+02  0.7816164E-02  0.1266605E+00
        -11   -1    0    0    0    0  0.00000000000E+00  0.00000000000E+00  0.45593999997E+02  0.45594000000E+02  0.51100000000E-03 0. -1.
         11   -1    0    0    0    0 -0.00000000000E+00 -0.00000000000E+00 -0.45593999997E+02  0.45594000000E+02  0.51100000000E-03 0.  1.
    9900012    2    1    2    0    0 -0.10377011713E+02 -0.29691716666E+02 -0.52383484861E+01  0.59301941831E+02  0.49999995994E+02 0.  0.
         12    1    1    2    0    0  0.10377011713E+02  0.29691716666E+02  0.52383484861E+01  0.31886058169E+02  0.00000000000E+00 0. -1.
         11    1    3    3    0    0  0.43480665053E+01  0.85413355744E+01  0.60231942828E+00  0.96032746854E+01  0.51100000000E-03 0. -1.
        -11    1    3    3    0    0  0.54204980797E+00 -0.89288294820E+01 -0.13104923141E+02  0.15866846715E+02  0.51100000000E-03 0.  1.
        -12    1    3    3    0    0 -0.15267128026E+02 -0.29304222759E+02  0.72642552262E+01  0.33831820430E+02  0.00000000000E+00 0.  1.
</event>
<event>
 7    1  0.5832130E-012  0.5930203E+02  0.7816164E-02  0.1266604E+00
        -11   -1    0    0    0    0  0.00000000000E+00  0.00000000000E+00  0.45593999997E+02  0.45594000000E+02  0.51100000000E-03 0.  1.
         11   -1    0    0    0    0 -0.00000000000E+00 -0.00000000000E+00 -0.45593999997E+02  0.45594000000E+02  0.51100000000E-03 0. -1.
    9900012    2    1    2    0    0  0.13245800231E+02 -0.77770475809E+01  0.27942465231E+02  0.59302030421E+02  0.50000157560E+02 0.  0.
         12    1    1    2    0    0 -0.13245800231E+02  0.77770475809E+01 -0.27942465231E+02  0.31885969579E+02  0.00000000000E+00 0. -1.
         11    1    3    3    0    0  0.19359690504E+02 -0.59234742650E+01  0.14763461878E+02  0.25056834810E+02  0.51100000000E-03 0. -1.
        -11    1    3    3    0    0  0.25172190438E+01 -0.15209319397E+02  0.41771252221E+01  0.15972105798E+02  0.51100000000E-03 0.  1.
        -12    1    3    3    0    0 -0.86311093173E+01  0.13355746081E+02  0.90018781309E+01  0.18273089813E+02  0.00000000000E+00 0.  1.
</event>
<event>
 7    1  0.8957317E-012  0.5930195E+02  0.7816164E-02  0.1266605E+00
        -11   -1    0    0    0    0  0.00000000000E+00  0.00000000000E+00  0.45593999997E+02  0.45594000000E+02  0.51100000000E-03 0. -1.
         11   -1    0    0    0    0 -0.00000000000E+00 -0.00000000000E+00 -0.45593999997E+02  0.45594000000E+02  0.51100000000E-03 0.  1.
    9900012    2    1    2    0    0 -0.15600628484E+02 -0.25092226551E+01 -0.27695566226E+02  0.59301949821E+02  0.50000010566E+02 0.  0.
         12    1    1    2    0    0  0.15600628484E+02  0.25092226551E+01  0.27695566226E+02  0.31886050179E+02  0.00000000000E+00 0. -1.
         11    1    3    3    0    0 -0.74470515129E+01  0.46478567229E+01  0.57540646782E+01  0.10496209265E+02  0.51100000000E-03 0. -1.
        -11    1    3    3    0    0 -0.18925598624E+02 -0.46565766948E+01 -0.32250725546E+02  0.37682506396E+02  0.51100000000E-03 0.  1.
         12    1    3    3    0    0  0.10772021652E+02 -0.25005026832E+01 -0.11989053581E+01  0.11123234161E+02  0.00000000000E+00 0. -1.
</event>
<event>
 7    1  0.5832130E-012  0.5930194E+02  0.7816164E-02  0.1266605E+00
        -11   -1    0    0    0    0  0.00000000000E+00  0.00000000000E+00  0.45593999997E+02  0.45594000000E+02  0.51100000000E-03 0.  1.
         11   -1    0    0    0    0 -0.00000000000E+00 -0.00000000000E+00 -0.45593999997E+02  0.45594000000E+02  0.51100000000E-03 0. -1.
    9900012    2    1    2    0    0  0.27492671927E+02  0.47329153458E+01  0.15442583418E+02  0.59301939096E+02  0.49999991006E+02 0.  0.
         12    1    1    2    0    0 -0.27492671927E+02 -0.47329153458E+01 -0.15442583418E+02  0.31886060904E+02  0.00000000000E+00 0. -1.
         11    1    3    3    0    0  0.22489184814E+02 -0.30424847521E+01  0.11762021914E+02  0.25561011460E+02  0.51100000000E-03 0. -1.
        -11    1    3    3    0    0  0.66623930769E+01 -0.72827418403E+00  0.16761044960E+02  0.18051329403E+02  0.51100000000E-03 0.  1.
         12    1    3    3    0    0 -0.16589059644E+01  0.85036742819E+01 -0.13080483456E+02  0.15689598234E+02  0.00000000000E+00 0. -1.
</event>
<event>
 7    1  0.5832130E-012  0.5930190E+02  0.7816164E-02  0.1266605E+00
        -11   -1    0    0    0    0  0.00000000000E+00  0.00000000000E+00  0.45593999997E+02  0.45594000000E+02  0.51100000000E-03 0. -1.
         11   -1    0    0    0    0 -0.00000000000E+00 -0.00000000000E+00 -0.45593999997E+02  0.45594000000E+02  0.51100000000E-03 0.  1.
    9900012    2    1    2    0    0  0.33031345634E+01 -0.48126535382E+01 -0.31347266649E+02  0.59301898664E+02  0.49999917268E+02 0.  0.
         12    1    1    2    0    0 -0.33031345634E+01  0.48126535382E+01  0.31347266649E+02  0.31886101336E+02  0.00000000000E+00 0. -1.
         11    1    3    3    0    0  0.15374032504E+02  0.51190193454E+01  0.14299740142E+00  0.16204495766E+02  0.51100000000E-03 0. -1.
        -11    1    3    3    0    0  0.69337203918E+01  0.16522568995E+01 -0.86114595317E+01  0.11178714902E+02  0.51100000000E-03 0.  1.
        -12    1    3    3    0    0 -0.19004618333E+02 -0.11583929783E+02 -0.22878804519E+02  0.31918687996E+02  0.00000000000E+00 0.  1.
</event>
<event>
 7    1  0.5832130E-012  0.5930196E+02  0.7816164E-02  0.1266605E+00
        -11   -1    0    0    0    0  0.00000000000E+00  0.00000000000E+00  0.45593999997E+02  0.45594000000E+02  0.51100000000E-03 0. -1.
         11   -1    0    0    0    0 -0.00000000000E+00 -0.00000000000E+00 -0.45593999997E+02  0.45594000000E+02  0.51100000000E-03 0.  1.
    9900012    2    1    2    0    0 -0.40635153302E+01 -0.21348943711E+02 -0.23333018399E+02  0.59301963840E+02  0.50000036132E+02 0.  0.
         12    1    1    2    0    0  0.40635153302E+01  0.21348943711E+02  0.23333018399E+02  0.31886036160E+02  0.00000000000E+00 0. -1.
         11    1    3    3    0    0  0.62694975259E+01 -0.11774743165E+02 -0.81236093127E+01  0.15618713274E+02  0.51100000000E-03 0.  1.
        -11    1    3    3    0    0 -0.61249811596E+01  0.43552205221E+01  0.11224917226E+02  0.13508593820E+02  0.51100000000E-03 0. -1.
         12    1    3    3    0    0 -0.42080316965E+01 -0.13929421068E+02 -0.26434326313E+02  0.30174656745E+02  0.00000000000E+00 0. -1.
</event>
<event>
 7    1  0.5832130E-012  0.5930194E+02  0.7816164E-02  0.1266605E+00
        -11   -1    0    0    0    0  0.00000000000E+00  0.00000000000E+00  0.45593999997E+02  0.45594000000E+02  0.51100000000E-03 0.  1.
         11   -1    0    0    0    0 -0.00000000000E+00 -0.00000000000E+00 -0.45593999997E+02  0.45594000000E+02  0.51100000000E-03 0. -1.
    9900012    2    1    2    0    0 -0.22282750036E+02  0.22801582096E+02 -0.53612857629E+00  0.59301944598E+02  0.50000001040E+02 0.  0.
         12    1    1    2    0    0  0.22282750036E+02 -0.22801582096E+02  0.53612857629E+00  0.31886055402E+02  0.00000000000E+00 0. -1.
         11    1    3    3    0    0  0.12676281801E+01  0.24927766628E+02  0.69631645709E+01  0.25913048670E+02  0.51100000000E-03 0. -1.
        -11    1    3    3    0    0 -0.30394055201E+01 -0.10243815069E+01 -0.11948935326E+02  0.12371919781E+02  0.51100000000E-03 0.  1.
        -12    1    3    3    0    0 -0.20510972696E+02 -0.11018030252E+01  0.44496421786E+01  0.21016976147E+02  0.00000000000E+00 0.  1.
</event>
<event>
 7    1  0.5832130E-012  0.5930196E+02  0.7816164E-02  0.1266605E+00
        -11   -1    0    0    0    0  0.00000000000E+00  0.00000000000E+00  0.45593999997E+02  0.45594000000E+02  0.51100000000E-03 0.  1.
         11   -1    0    0    0    0 -0.00000000000E+00 -0.00000000000E+00 -0.45593999997E+02  0.45594000000E+02  0.51100000000E-03 0. -1.
    9900012    2    1    2    0    0  0.31355332345E+02 -0.22290527240E+01  0.53473502325E+01  0.59301957646E+02  0.50000024837E+02 0.  0.
         12    1    1    2    0    0 -0.31355332345E+02  0.22290527240E+01 -0.53473502325E+01  0.31886042354E+02  0.00000000000E+00 0. -1.
         11    1    3    3    0    0  0.10681665026E+02  0.52887651271E+01 -0.29194488804E+01  0.12271600805E+02  0.51100000000E-03 0. -1.
        -11    1    3    3    0    0  0.26079034890E+02  0.86705791797E+01  0.11265442228E+02  0.29701939212E+02  0.51100000000E-03 0.  1.
         12    1    3    3    0    0 -0.54053675710E+01 -0.16188397031E+02 -0.29986431147E+01  0.17328417629E+02  0.00000000000E+00 0. -1.
</event>
<event>
 7    1  0.5832130E-012  0.5930186E+02  0.7816164E-02  0.1266605E+00
        -11   -1    0    0    0    0  0.00000000000E+00  0.00000000000E+00  0.45593999997E+02  0.45594000000E+02  0.51100000000E-03 0. -1.
         11   -1    0    0    0    0 -0.00000000000E+00 -0.00000000000E+00 -0.45593999997E+02  0.45594000000E+02  0.51100000000E-03 0.  1.
    9900012    2    1    2    0    0 -0.12948697210E+02 -0.13824235531E+01 -0.29105774422E+02  0.59301859452E+02  0.49999845754E+02 0.  0.
         12    1    1    2    0    0  0.12948697210E+02  0.13824235531E+01  0.29105774422E+02  0.31886140548E+02  0.00000000000E+00 0. -1.
         11    1    3    3    0    0  0.15117505438E+02 -0.88925849142E+01 -0.88764389553E+01  0.19657268526E+02  0.51100000000E-03 0. -1.
        -11    1    3    3    0    0  0.13420251899E+01  0.43069580723E+01 -0.28082337202E+01  0.53138588931E+01  0.51100000000E-03 0.  1.
         12    1    3    3    0    0 -0.29408227837E+02  0.32032032889E+01 -0.17421101747E+02  0.34330732033E+02  0.00000000000E+00 0. -1.
</event>
<event>
 7    1  0.5832130E-012  0.5930192E+02  0.7816164E-02  0.1266605E+00
        -11   -1    0    0    0    0  0.00000000000E+00  0.00000000000E+00  0.45593999997E+02  0.45594000000E+02  0.51100000000E-03 0. -1.
         11   -1    0    0    0    0 -0.00000000000E+00 -0.00000000000E+00 -0.45593999997E+02  0.45594000000E+02  0.51100000000E-03 0.  1.
    9900012    2    1    2    0    0 -0.13071539419E+02 -0.24284792134E+02 -0.16003298496E+02  0.59301924127E+02  0.49999963706E+02 0.  0.
         12    1    1    2    0    0  0.13071539419E+02  0.24284792134E+02  0.16003298496E+02  0.31886075873E+02  0.00000000000E+00 0. -1.
         11    1    3    3    0    0 -0.13824294337E+01  0.37771909315E+01 -0.55489871785E+01  0.68534328216E+01  0.51100000000E-03 0. -1.
        -11    1    3    3    0    0 -0.18246192179E+02  0.32307579349E+01  0.81578363823E+00  0.18547960240E+02  0.51100000000E-03 0.  1.
        -12    1    3    3    0    0  0.65570821932E+01 -0.31292741001E+02 -0.11270094956E+02  0.33900531066E+02  0.00000000000E+00 0.  1.
</event>
<event>
 7    1  0.5832130E-012  0.5930191E+02  0.7816164E-02  0.1266605E+00
        -11   -1    0    0    0    0  0.00000000000E+00  0.00000000000E+00  0.45593999997E+02  0.45594000000E+02  0.51100000000E-03 0.  1.
         11   -1    0    0    0    0 -0.00000000000E+00 -0.00000000000E+00 -0.45593999997E+02  0.45594000000E+02  0.51100000000E-03 0. -1.
    9900012    2    1    2    0    0  0.74155576468E+01  0.29310124679E+02  0.10131575308E+02  0.59301910209E+02  0.49999938323E+02 0.  0.
         12    1    1    2    0    0 -0.74155576468E+01 -0.29310124679E+02 -0.10131575308E+02  0.31886089791E+02  0.00000000000E+00 0. -1.
         11    1    3    3    0    0  0.11504530427E+02  0.45749322056E+01 -0.15005342033E+02  0.19453650424E+02  0.51100000000E-03 0. -1.
        -11    1    3    3    0    0  0.16169785068E+01 -0.21172959310E+01  0.54514868208E+01  0.60676412526E+01  0.51100000000E-03 0.  1.
        -12    1    3    3    0    0 -0.57059512872E+01  0.26852488405E+02  0.19685430521E+02  0.33780618532E+02  0.00000000000E+00 0.  1.
</event>
<event>
 7    1  0.5832130E-012  0.5930193E+02  0.7816164E-02  0.1266605E+00
        -11   -1    0    0    0    0  0.00000000000E+00  0.00000000000E+00  0.45593999997E+02  0.45594000000E+02  0.51100000000E-03 0. -1.
         11   -1    0    0    0    0 -0.00000000000E+00 -0.00000000000E+00 -0.45593999997E+02  0.45594000000E+02  0.51100000000E-03 0.  1.
    9900012    2    1    2    0    0  0.33391381085E+01 -0.95944462645E+01 -0.30224467293E+02  0.59301926777E+02  0.49999968539E+02 0.  0.
         12    1    1    2    0    0 -0.33391381085E+01  0.95944462645E+01  0.30224467293E+02  0.31886073223E+02  0.00000000000E+00 0. -1.
         11    1    3    3    0    0  0.11892873759E+02  0.11729933955E+02 -0.13734991573E+02  0.21625951786E+02  0.51100000000E-03 0. -1.
        -11    1    3    3    0    0 -0.56613042835E+01 -0.19973000258E+02  0.12229504549E+00  0.20760203801E+02  0.51100000000E-03 0.  1.
         12    1    3    3    0    0 -0.28924313670E+01 -0.13513799614E+01 -0.16611770765E+02  0.16915771191E+02  0.00000000000E+00 0. -1.
</event>
<event>
 7    1  0.5832130E-012  0.5930195E+02  0.7816164E-02  0.1266605E+00
        -11   -1    0    0    0    0  0.00000000000E+00  0.00000000000E+00  0.45593999997E+02  0.45594000000E+02  0.51100000000E-03 0.  1.
         11   -1    0    0    0    0 -0.00000000000E+00 -0.00000000000E+00 -0.45593999997E+02  0.45594000000E+02  0.51100000000E-03 0. -1.
    9900012    2    1    2    0    0  0.41532918890E+01 -0.29226727646E+02 -0.12052754240E+02  0.59301947765E+02  0.50000006815E+02 0.  0.
         12    1    1    2    0    0 -0.41532918890E+01  0.29226727646E+02  0.12052754240E+02  0.31886052235E+02  0.00000000000E+00 0. -1.
         11    1    3    3    0    0 -0.28478187050E+01 -0.50093714280E+01  0.11776605076E+02  0.13110770414E+02  0.51100000000E-03 0. -1.
        -11    1    3    3    0    0 -0.97728392493E+01 -0.18709776483E+01 -0.80010345518E+00  0.99824400901E+01  0.51100000000E-03 0.  1.
         12    1    3    3    0    0  0.16773949843E+02 -0.22346378569E+02 -0.23029255861E+02  0.36208737260E+02  0.00000000000E+00 0. -1.
</event>
<event>
 7    1  0.5832130E-012  0.5930194E+02  0.7816164E-02  0.1266605E+00
        -11   -1    0    0    0    0  0.00000000000E+00  0.00000000000E+00  0.45593999997E+02  0.45594000000E+02  0.51100000000E-03 0. -1.
         11   -1    0    0    0    0 -0.00000000000E+00 -0.00000000000E+00 -0.45593999997E+02  0.45594000000E+02  0.51100000000E-03 0.  1.
    9900012    2    1    2    0    0 -0.17355497564E+02 -0.12275677176E+01 -0.26720785742E+02  0.59301943347E+02  0.49999998759E+02 0.  0.
         12    1    1    2    0    0  0.17355497564E+02  0.12275677176E+01  0.26720785742E+02  0.31886056653E+02  0.00000000000E+00 0. -1.
         11    1    3    3    0    0 -0.16863498065E+02 -0.11578043607E+02 -0.13859357532E+02  0.24708509713E+02  0.51100000000E-03 0. -1.
        -11    1    3    3    0    0  0.11568313130E+02 -0.10323987168E+01 -0.13734281137E+02  0.17986722725E+02  0.51100000000E-03 0.  1.
         12    1    3    3    0    0 -0.12060312629E+02  0.11382874606E+02  0.87285292630E+00  0.16606710910E+02  0.00000000000E+00 0. -1.
</event>
<event>
 7    1  0.5832130E-012  0.5930190E+02  0.7816164E-02  0.1266605E+00
        -11   -1    0    0    0    0  0.00000000000E+00  0.00000000000E+00  0.45593999997E+02  0.45594000000E+02  0.51100000000E-03 0.  1.
         11   -1    0    0    0    0 -0.00000000000E+00 -0.00000000000E+00 -0.45593999997E+02  0.45594000000E+02  0.51100000000E-03 0. -1.
    9900012    2    1    2    0    0  0.21010230682E+02  0.68828834420E+00  0.23975397368E+02  0.59301902510E+02  0.49999924282E+02 0.  0.
         12    1    1    2    0    0 -0.21010230682E+02 -0.68828834420E+00 -0.23975397368E+02  0.31886097490E+02  0.00000000000E+00 0. -1.
         11    1    3    3    0    0  0.12712489560E+01 -0.10401982409E+02  0.44052091650E+01  0.11367637398E+02  0.51100000000E-03 0. -1.
        -11    1    3    3    0    0  0.19175377546E+02  0.75936373022E+01 -0.65002617890E+01  0.21624334327E+02  0.51100000000E-03 0.  1.
         12    1    3    3    0    0  0.56360418024E+00  0.34966334514E+01  0.26070449992E+02  0.26309930786E+02  0.00000000000E+00 0. -1.
</event>
<event>
 7    1  0.5832130E-012  0.5930194E+02  0.7816164E-02  0.1266605E+00
        -11   -1    0    0    0    0  0.00000000000E+00  0.00000000000E+00  0.45593999997E+02  0.45594000000E+02  0.51100000000E-03 0. -1.
         11   -1    0    0    0    0 -0.00000000000E+00 -0.00000000000E+00 -0.45593999997E+02  0.45594000000E+02  0.51100000000E-03 0.  1.
    9900012    2    1    2    0    0 -0.14987125607E+02  0.17601679906E+02 -0.21961050920E+02  0.59301939927E+02  0.49999992521E+02 0.  0.
         12    1    1    2    0    0  0.14987125607E+02 -0.17601679906E+02  0.21961050920E+02  0.31886060073E+02  0.00000000000E+00 0. -1.
         11    1    3    3    0    0  0.33912496945E+01  0.90787063955E+01 -0.10218273298E+02  0.14083202539E+02  0.51100000000E-03 0. -1.
        -11    1    3    3    0    0 -0.87780401587E+01  0.20600464151E+02 -0.17838942200E+02  0.28629721817E+02  0.51100000000E-03 0.  1.
         12    1    3    3    0    0 -0.96003351431E+01 -0.12077490640E+02  0.60961645783E+01  0.16589015570E+02  0.00000000000E+00 0. -1.
</event>
<event>
 7    1  0.5832130E-012  0.5930175E+02  0.7816164E-02  0.1266605E+00
        -11   -1    0    0    0    0  0.00000000000E+00  0.00000000000E+00  0.45593999997E+02  0.45594000000E+02  0.51100000000E-03 0.  1.
         11   -1    0    0    0    0 -0.00000000000E+00 -0.00000000000E+00 -0.45593999997E+02  0.45594000000E+02  0.51100000000E-03 0. -1.
    9900012    2    1    2    0    0  0.19052995601E+02 -0.17066610518E+02 -0.19038045803E+02  0.59301748669E+02  0.49999643711E+02 0.  0.
         12    1    1    2    0    0 -0.19052995601E+02  0.17066610518E+02  0.19038045803E+02  0.31886251331E+02  0.00000000000E+00 0. -1.
         11    1    3    3    0    0  0.10554785762E+02  0.53238464981E+01 -0.30090951988E+01  0.12198421955E+02  0.51100000000E-03 0. -1.
        -11    1    3    3    0    0  0.21694493443E+02 -0.50975994440E+01 -0.55917640156E+01  0.22976170066E+02  0.51100000000E-03 0.  1.
         12    1    3    3    0    0 -0.13196283605E+02 -0.17292857572E+02 -0.10437186588E+02  0.24127156647E+02  0.00000000000E+00 0. -1.
</event>
<event>
 7    1  0.5832130E-012  0.5930197E+02  0.7816164E-02  0.1266605E+00
        -11   -1    0    0    0    0  0.00000000000E+00  0.00000000000E+00  0.45593999997E+02  0.45594000000E+02  0.51100000000E-03 0.  1.
         11   -1    0    0    0    0 -0.00000000000E+00 -0.00000000000E+00 -0.45593999997E+02  0.45594000000E+02  0.51100000000E-03 0. -1.
    9900012    2    1    2    0    0 -0.29326191234E+01 -0.10620432516E+02  0.29921983467E+02  0.59301969574E+02  0.50000046590E+02 0.  0.
         12    1    1    2    0    0  0.29326191234E+01  0.10620432516E+02 -0.29921983467E+02  0.31886030426E+02  0.00000000000E+00 0. -1.
         11    1    3    3    0    0 -0.95769188095E+01 -0.49860580503E+01 -0.39766349876E+01  0.11506162473E+02  0.51100000000E-03 0. -1.
        -11    1    3    3    0    0  0.14219958839E+02 -0.11070866227E+02  0.70108492441E+01  0.19337096881E+02  0.51100000000E-03 0.  1.
        -12    1    3    3    0    0 -0.75756591526E+01  0.54364917616E+01  0.26887769210E+02  0.28458710220E+02  0.00000000000E+00 0.  1.
</event>
<event>
 7    1  0.5832130E-012  0.5930196E+02  0.7816164E-02  0.1266605E+00
        -11   -1    0    0    0    0  0.00000000000E+00  0.00000000000E+00  0.45593999997E+02  0.45594000000E+02  0.51100000000E-03 0.  1.
         11   -1    0    0    0    0 -0.00000000000E+00 -0.00000000000E+00 -0.45593999997E+02  0.45594000000E+02  0.51100000000E-03 0. -1.
    9900012    2    1    2    0    0 -0.29189265731E+02  0.12663686619E+02 -0.20826968182E+01  0.59301955737E+02  0.50000021355E+02 0.  0.
         12    1    1    2    0    0  0.29189265731E+02 -0.12663686619E+02  0.20826968182E+01  0.31886044263E+02  0.00000000000E+00 0. -1.
         11    1    3    3    0    0 -0.29127217786E+01  0.39867474200E+01 -0.12632908100E+02  0.13563497723E+02  0.51100000000E-03 0. -1.
        -11    1    3    3    0    0 -0.93697117194E+01  0.19091939165E+02 -0.33088131264E+01  0.21523054694E+02  0.51100000000E-03 0.  1.
        -12    1    3    3    0    0 -0.16906832233E+02 -0.10414999966E+02  0.13859024408E+02  0.24215403321E+02  0.00000000000E+00 0.  1.
</event>
<event>
 7    1  0.5832130E-012  0.5930195E+02  0.7816164E-02  0.1266605E+00
        -11   -1    0    0    0    0  0.00000000000E+00  0.00000000000E+00  0.45593999997E+02  0.45594000000E+02  0.51100000000E-03 0.  1.
         11   -1    0    0    0    0 -0.00000000000E+00 -0.00000000000E+00 -0.45593999997E+02  0.45594000000E+02  0.51100000000E-03 0. -1.
    9900012    2    1    2    0    0  0.20709078877E+01 -0.26913990258E+02 -0.16972594355E+02  0.59301945207E+02  0.50000002151E+02 0.  0.
         12    1    1    2    0    0 -0.20709078877E+01  0.26913990258E+02  0.16972594355E+02  0.31886054793E+02  0.00000000000E+00 0. -1.
         11    1    3    3    0    0 -0.22866827357E+01 -0.83506460110E+00 -0.16950180716E+01  0.29663677024E+01  0.51100000000E-03 0. -1.
        -11    1    3    3    0    0 -0.14659771976E+02 -0.25851525615E+02 -0.21097784766E+02  0.36446218094E+02  0.51100000000E-03 0.  1.
        -12    1    3    3    0    0  0.19017362599E+02 -0.22740004167E+00  0.58202084824E+01  0.19889359411E+02  0.00000000000E+00 0.  1.
</event>
<event>
 7    1  0.5832130E-012  0.5930206E+02  0.7816164E-02  0.1266604E+00
        -11   -1    0    0    0    0  0.00000000000E+00  0.00000000000E+00  0.45593999997E+02  0.45594000000E+02  0.51100000000E-03 0.  1.
         11   -1    0    0    0    0 -0.00000000000E+00 -0.00000000000E+00 -0.45593999997E+02  0.45594000000E+02  0.51100000000E-03 0. -1.
    9900012    2    1    2    0    0 -0.25657529348E+01 -0.22102230767E+02  0.22839029448E+02  0.59302063301E+02  0.50000217526E+02 0.  0.
         12    1    1    2    0    0  0.25657529348E+01  0.22102230767E+02 -0.22839029448E+02  0.31885936699E+02  0.00000000000E+00 0. -1.
         11    1    3    3    0    0 -0.55147186120E+00  0.10703907872E+02  0.88112766795E+01  0.13875026556E+02  0.51100000000E-03 0.  1.
        -11    1    3    3    0    0 -0.13179089530E+02 -0.97060779001E+01  0.39269118751E+00  0.16372249561E+02  0.51100000000E-03 0. -1.
        -12    1    3    3    0    0  0.11164808457E+02 -0.23100060739E+02  0.13635061581E+02  0.29054787185E+02  0.00000000000E+00 0.  1.
</event>
<event>
 7    1  0.5832130E-012  0.5930195E+02  0.7816164E-02  0.1266605E+00
        -11   -1    0    0    0    0  0.00000000000E+00  0.00000000000E+00  0.45593999997E+02  0.45594000000E+02  0.51100000000E-03 0. -1.
         11   -1    0    0    0    0 -0.00000000000E+00 -0.00000000000E+00 -0.45593999997E+02  0.45594000000E+02  0.51100000000E-03 0.  1.
    9900012    2    1    2    0    0 -0.13871672369E+01 -0.13233688176E+02 -0.28976984054E+02  0.59301947555E+02  0.50000006432E+02 0.  0.
         12    1    1    2    0    0  0.13871672369E+01  0.13233688176E+02  0.28976984054E+02  0.31886052445E+02  0.00000000000E+00 0. -1.
         11    1    3    3    0    0 -0.26087738819E+01 -0.47831474697E+01 -0.21395305857E+01  0.58533573504E+01  0.51100000000E-03 0. -1.
        -11    1    3    3    0    0 -0.19059436830E+02  0.24465287077E+01 -0.15924480210E+01  0.19281688877E+02  0.51100000000E-03 0.  1.
         12    1    3    3    0    0  0.20281043475E+02 -0.10897069414E+02 -0.25245005447E+02  0.34166901327E+02  0.00000000000E+00 0. -1.
</event>
<event>
 7    1  0.5832130E-012  0.5930194E+02  0.7816164E-02  0.1266605E+00
        -11   -1    0    0    0    0  0.00000000000E+00  0.00000000000E+00  0.45593999997E+02  0.45594000000E+02  0.51100000000E-03 0. -1.
         11   -1    0    0    0    0 -0.00000000000E+00 -0.00000000000E+00 -0.45593999997E+02  0.45594000000E+02  0.51100000000E-03 0.  1.
    9900012    2    1    2    0    0 -0.23616858730E+02 -0.63004053044E+01 -0.20476073387E+02  0.59301941846E+02  0.49999996021E+02 0.  0.
         12    1    1    2    0    0  0.23616858730E+02  0.63004053044E+01  0.20476073387E+02  0.31886058154E+02  0.00000000000E+00 0. -1.
         11    1    3    3    0    0 -0.11527816556E+02  0.59154594661E+00 -0.21637959374E+02  0.24524309721E+02  0.51100000000E-03 0. -1.
        -11    1    3    3    0    0 -0.21060174898E+02 -0.14243804334E+01 -0.61402466536E+01  0.21983231236E+02  0.51100000000E-03 0.  1.
         12    1    3    3    0    0  0.89711327245E+01 -0.54675708176E+01  0.73021326404E+01  0.12794400889E+02  0.00000000000E+00 0. -1.
</event>
<event>
 7    1  0.5832130E-012  0.5930195E+02  0.7816164E-02  0.1266605E+00
        -11   -1    0    0    0    0  0.00000000000E+00  0.00000000000E+00  0.45593999997E+02  0.45594000000E+02  0.51100000000E-03 0.  1.
         11   -1    0    0    0    0 -0.00000000000E+00 -0.00000000000E+00 -0.45593999997E+02  0.45594000000E+02  0.51100000000E-03 0. -1.
    9900012    2    1    2    0    0  0.12695764593E+02 -0.29177669125E+02  0.20497656169E+01  0.59301947355E+02  0.50000006068E+02 0.  0.
         12    1    1    2    0    0 -0.12695764593E+02  0.29177669125E+02 -0.20497656169E+01  0.31886052645E+02  0.00000000000E+00 0. -1.
         11    1    3    3    0    0 -0.20219242024E+01  0.13005324526E+02 -0.15508981700E+01  0.13252619699E+02  0.51100000000E-03 0.  1.
        -11    1    3    3    0    0  0.35103404206E+01 -0.17313184590E+02  0.60219202846E+01  0.18663664557E+02  0.51100000000E-03 0. -1.
        -12    1    3    3    0    0  0.11207348375E+02 -0.24869809061E+02 -0.24212564977E+01  0.27385663099E+02  0.00000000000E+00 0.  1.
</event>
<event>
 7    1  0.5832130E-012  0.5930195E+02  0.7816164E-02  0.1266605E+00
        -11   -1    0    0    0    0  0.00000000000E+00  0.00000000000E+00  0.45593999997E+02  0.45594000000E+02  0.51100000000E-03 0.  1.
         11   -1    0    0    0    0 -0.00000000000E+00 -0.00000000000E+00 -0.45593999997E+02  0.45594000000E+02  0.51100000000E-03 0. -1.
    9900012    2    1    2    0    0  0.18223666981E+02  0.76279270788E+01  0.25028639229E+02  0.59301951462E+02  0.50000013558E+02 0.  0.
         12    1    1    2    0    0 -0.18223666981E+02 -0.76279270788E+01 -0.25028639229E+02  0.31886048538E+02  0.00000000000E+00 0. -1.
         11    1    3    3    0    0  0.12274452134E+01  0.35212292925E+01 -0.13047328440E+02  0.13569762606E+02  0.51100000000E-03 0. -1.
        -11    1    3    3    0    0  0.28514971093E+01 -0.67937864333E+01  0.92908136434E+01  0.11857731161E+02  0.51100000000E-03 0.  1.
        -12    1    3    3    0    0  0.14144724658E+02  0.10900484220E+02  0.28785154026E+02  0.33874457695E+02  0.00000000000E+00 0.  1.
</event>
<event>
 7    1  0.5832130E-012  0.5930192E+02  0.7816164E-02  0.1266605E+00
        -11   -1    0    0    0    0  0.00000000000E+00  0.00000000000E+00  0.45593999997E+02  0.45594000000E+02  0.51100000000E-03 0.  1.
         11   -1    0    0    0    0 -0.00000000000E+00 -0.00000000000E+00 -0.45593999997E+02  0.45594000000E+02  0.51100000000E-03 0. -1.
    9900012    2    1    2    0    0 -0.22308075194E+02  0.14931524914E+02  0.17208179254E+02  0.59301920148E+02  0.49999956449E+02 0.  0.
         12    1    1    2    0    0  0.22308075194E+02 -0.14931524914E+02 -0.17208179254E+02  0.31886079852E+02  0.00000000000E+00 0. -1.
         11    1    3    3    0    0  0.33553809173E+01 -0.40339615422E+01  0.23462117037E+01  0.57477070597E+01  0.51100000000E-03 0. -1.
        -11    1    3    3    0    0 -0.24365774171E+01  0.10627941731E+02  0.24690571464E+02  0.26991005435E+02  0.51100000000E-03 0.  1.
         12    1    3    3    0    0 -0.23226878694E+02  0.83375447250E+01 -0.98286039139E+01  0.26563207653E+02  0.00000000000E+00 0. -1.
</event>
<event>
 7    1  0.5832130E-012  0.5930194E+02  0.7816164E-02  0.1266605E+00
        -11   -1    0    0    0    0  0.00000000000E+00  0.00000000000E+00  0.45593999997E+02  0.45594000000E+02  0.51100000000E-03 0. -1.
         11   -1    0    0    0    0 -0.00000000000E+00 -0.00000000000E+00 -0.45593999997E+02  0.45594000000E+02  0.51100000000E-03 0.  1.
    9900012    2    1    2    0    0 -0.26481065516E+02 -0.10075415322E+02 -0.14627368152E+02  0.59301941545E+02  0.49999995471E+02 0.  0.
         12    1    1    2    0    0  0.26481065516E+02  0.10075415322E+02  0.14627368152E+02  0.31886058455E+02  0.00000000000E+00 0. -1.
         11    1    3    3    0    0 -0.14875850604E+01 -0.11617587316E+02  0.55212485759E-01  0.11712569874E+02  0.51100000000E-03 0. -1.
        -11    1    3    3    0    0 -0.16433055502E+02 -0.16100431110E+02 -0.15862149650E+02  0.27944176260E+02  0.51100000000E-03 0.  1.
        -12    1    3    3    0    0 -0.85604249534E+01  0.17642603105E+02  0.11795690123E+01  0.19645195411E+02  0.00000000000E+00 0.  1.
</event>
<event>
 7    1  0.5832130E-012  0.5930195E+02  0.7816164E-02  0.1266605E+00
        -11   -1    0    0    0    0  0.00000000000E+00  0.00000000000E+00  0.45593999997E+02  0.45594000000E+02  0.51100000000E-03 0.  1.
         11   -1    0    0    0    0 -0.00000000000E+00 -0.00000000000E+00 -0.45593999997E+02  0.45594000000E+02  0.51100000000E-03 0. -1.
    9900012    2    1    2    0    0 -0.31064719891E-01  0.28454287035E+02  0.14390027399E+02  0.59301948124E+02  0.50000007470E+02 0.  0.
         12    1    1    2    0    0  0.31064719891E-01 -0.28454287035E+02 -0.14390027399E+02  0.31886051876E+02  0.00000000000E+00 0. -1.
         11    1    3    3    0    0  0.58394965988E+01  0.37381508513E+00  0.36696337637E+01  0.69069291633E+01  0.51100000000E-03 0. -1.
        -11    1    3    3    0    0  0.64016862318E+01  0.23341396868E+02 -0.11325677398E+02  0.26722151170E+02  0.51100000000E-03 0.  1.
         12    1    3    3    0    0 -0.12272247550E+02  0.47390750824E+01  0.22046071034E+02  0.25672867791E+02  0.00000000000E+00 0. -1.
</event>
<event>
 7    1  0.5832130E-012  0.5930195E+02  0.7816164E-02  0.1266605E+00
        -11   -1    0    0    0    0  0.00000000000E+00  0.00000000000E+00  0.45593999997E+02  0.45594000000E+02  0.51100000000E-03 0. -1.
         11   -1    0    0    0    0 -0.00000000000E+00 -0.00000000000E+00 -0.45593999997E+02  0.45594000000E+02  0.51100000000E-03 0.  1.
    9900012    2    1    2    0    0 -0.14600816173E+02  0.24853236477E+02 -0.13632800783E+02  0.59301945784E+02  0.50000003203E+02 0.  0.
         12    1    1    2    0    0  0.14600816173E+02 -0.24853236477E+02  0.13632800783E+02  0.31886054216E+02  0.00000000000E+00 0. -1.
         11    1    3    3    0    0 -0.14494461218E+02 -0.53335994326E+01 -0.13302351156E+01  0.15501813270E+02  0.51100000000E-03 0. -1.
        -11    1    3    3    0    0 -0.12601218286E+02  0.49773274612E+01 -0.66875844138E+01  0.15109211644E+02  0.51100000000E-03 0.  1.
        -12    1    3    3    0    0  0.12494863332E+02  0.25209508448E+02 -0.56149812538E+01  0.28690920870E+02  0.00000000000E+00 0.  1.
</event>
<event>
 7    1  0.5832130E-012  0.5930194E+02  0.7816164E-02  0.1266605E+00
        -11   -1    0    0    0    0  0.00000000000E+00  0.00000000000E+00  0.45593999997E+02  0.45594000000E+02  0.51100000000E-03 0.  1.
         11   -1    0    0    0    0 -0.00000000000E+00 -0.00000000000E+00 -0.45593999997E+02  0.45594000000E+02  0.51100000000E-03 0. -1.
    9900012    2    1    2    0    0 -0.50412412994E+01  0.17675050869E+02  0.26055698794E+02  0.59301937579E+02  0.49999988240E+02 0.  0.
         12    1    1    2    0    0  0.50412412994E+01 -0.17675050869E+02 -0.26055698794E+02  0.31886062421E+02  0.00000000000E+00 0. -1.
         11    1    3    3    0    0 -0.39646458381E+01 -0.73984924915E+01 -0.50228123975E+00  0.84088283651E+01  0.51100000000E-03 0. -1.
        -11    1    3    3    0    0 -0.17365512558E+02  0.63670919575E+01  0.13175172194E+02  0.22708721871E+02  0.51100000000E-03 0.  1.
        -12    1    3    3    0    0  0.16288917096E+02  0.18706451403E+02  0.13382807839E+02  0.28184387344E+02  0.00000000000E+00 0.  1.
</event>
<event>
 7    1  0.5832130E-012  0.5930193E+02  0.7816164E-02  0.1266605E+00
        -11   -1    0    0    0    0  0.00000000000E+00  0.00000000000E+00  0.45593999997E+02  0.45594000000E+02  0.51100000000E-03 0.  1.
         11   -1    0    0    0    0 -0.00000000000E+00 -0.00000000000E+00 -0.45593999997E+02  0.45594000000E+02  0.51100000000E-03 0. -1.
    9900012    2    1    2    0    0 -0.30948558899E+02  0.10804783494E+01  0.75987471292E+01  0.59301926404E+02  0.49999967859E+02 0.  0.
         12    1    1    2    0    0  0.30948558899E+02 -0.10804783494E+01 -0.75987471292E+01  0.31886073596E+02  0.00000000000E+00 0. -1.
         11    1    3    3    0    0 -0.19727089881E+02 -0.69126042207E+01 -0.15592433244E+02  0.26078077901E+02  0.51100000000E-03 0. -1.
        -11    1    3    3    0    0 -0.74284380297E+01 -0.29679219153E+01  0.84125845097E+00  0.80435047149E+01  0.51100000000E-03 0.  1.
        -12    1    3    3    0    0 -0.37930309891E+01  0.10961004485E+02  0.22349921922E+02  0.25180343789E+02  0.00000000000E+00 0.  1.
</event>
<event>
 7    1  0.5832130E-012  0.5930187E+02  0.7816164E-02  0.1266605E+00
        -11   -1    0    0    0    0  0.00000000000E+00  0.00000000000E+00  0.45593999997E+02  0.45594000000E+02  0.51100000000E-03 0.  1.
         11   -1    0    0    0    0 -0.00000000000E+00 -0.00000000000E+00 -0.45593999997E+02  0.45594000000E+02  0.51100000000E-03 0. -1.
    9900012    2    1    2    0    0  0.10780537959E+02 -0.41175068431E+01  0.29724591923E+02  0.59301870942E+02  0.49999866709E+02 0.  0.
         12    1    1    2    0    0 -0.10780537959E+02  0.41175068431E+01 -0.29724591923E+02  0.31886129058E+02  0.00000000000E+00 0. -1.
         11    1    3    3    0    0  0.70267910740E+01 -0.10543773656E+00  0.42278860966E+01  0.82013371484E+01  0.51100000000E-03 0. -1.
        -11    1    3    3    0    0  0.14977458884E+02 -0.19803536112E+02  0.12773822272E+02  0.27922658413E+02  0.51100000000E-03 0.  1.
        -12    1    3    3    0    0 -0.11223711999E+02  0.15791467005E+02  0.12722883555E+02  0.23177875381E+02  0.00000000000E+00 0.  1.
</event>
<event>
 7    1  0.5832130E-012  0.5930215E+02  0.7816164E-02  0.1266604E+00
        -11   -1    0    0    0    0  0.00000000000E+00  0.00000000000E+00  0.45593999997E+02  0.45594000000E+02  0.51100000000E-03 0. -1.
         11   -1    0    0    0    0 -0.00000000000E+00 -0.00000000000E+00 -0.45593999997E+02  0.45594000000E+02  0.51100000000E-03 0.  1.
    9900012    2    1    2    0    0  0.11761600296E+02 -0.25331877021E+02 -0.15384030274E+02  0.59302146987E+02  0.50000370147E+02 0.  0.
         12    1    1    2    0    0 -0.11761600296E+02  0.25331877021E+02  0.15384030274E+02  0.31885853013E+02  0.00000000000E+00 0. -1.
         11    1    3    3    0    0  0.23709443545E+01 -0.52723551708E+01  0.30053229995E+01  0.65154487774E+01  0.51100000000E-03 0. -1.
        -11    1    3    3    0    0 -0.16474807156E+00 -0.32933527909E+02 -0.15866854214E+02  0.36556825154E+02  0.51100000000E-03 0.  1.
        -12    1    3    3    0    0  0.95554040131E+01  0.12874006059E+02 -0.25224990601E+01  0.16229873055E+02  0.00000000000E+00 0.  1.
</event>
<event>
 7    1  0.5832130E-012  0.5930195E+02  0.7816164E-02  0.1266605E+00
        -11   -1    0    0    0    0  0.00000000000E+00  0.00000000000E+00  0.45593999997E+02  0.45594000000E+02  0.51100000000E-03 0. -1.
         11   -1    0    0    0    0 -0.00000000000E+00 -0.00000000000E+00 -0.45593999997E+02  0.45594000000E+02  0.51100000000E-03 0.  1.
    9900012    2    1    2    0    0 -0.42669640527E+01 -0.22195305942E+02 -0.22491810177E+02  0.59301951121E+02  0.50000012936E+02 0.  0.
         12    1    1    2    0    0  0.42669640527E+01  0.22195305942E+02  0.22491810177E+02  0.31886048879E+02  0.00000000000E+00 0. -1.
         11    1    3    3    0    0 -0.85601432470E+01 -0.44553604358E+01  0.67182736617E+01  0.11758464622E+02  0.51100000000E-03 0. -1.
        -11    1    3    3    0    0  0.25049388509E+00  0.80417416950E+01 -0.16840319674E+02  0.18663566745E+02  0.51100000000E-03 0.  1.
        -12    1    3    3    0    0  0.40426853092E+01 -0.25781687202E+02 -0.12369764164E+02  0.28879919753E+02  0.00000000000E+00 0.  1.
</event>
<event>
 7    1  0.5832130E-012  0.5930195E+02  0.7816164E-02  0.1266605E+00
        -11   -1    0    0    0    0  0.00000000000E+00  0.00000000000E+00  0.45593999997E+02  0.45594000000E+02  0.51100000000E-03 0.  1.
         11   -1    0    0    0    0 -0.00000000000E+00 -0.00000000000E+00 -0.45593999997E+02  0.45594000000E+02  0.51100000000E-03 0. -1.
    9900012    2    1    2    0    0  0.10250290094E+02 -0.10144943265E+01  0.30176525194E+02  0.59301947899E+02  0.50000007061E+02 0.  0.
         12    1    1    2    0    0 -0.10250290094E+02  0.10144943265E+01 -0.30176525194E+02  0.31886052101E+02  0.00000000000E+00 0. -1.
         11    1    3    3    0    0 -0.56815795686E+01 -0.65992461719E+01  0.50483751440E+01  0.10065609186E+02  0.51100000000E-03 0. -1.
        -11    1    3    3    0    0  0.19083282584E+02 -0.70963860367E+01  0.29157369295E+02  0.35562375531E+02  0.51100000000E-03 0.  1.
         12    1    3    3    0    0 -0.31514129214E+01  0.12681137882E+02 -0.40292192445E+01  0.13673963182E+02  0.00000000000E+00 0. -1.
</event>
<event>
 7    1  0.5832130E-012  0.5930195E+02  0.7816164E-02  0.1266605E+00
        -11   -1    0    0    0    0  0.00000000000E+00  0.00000000000E+00  0.45593999997E+02  0.45594000000E+02  0.51100000000E-03 0. -1.
         11   -1    0    0    0    0 -0.00000000000E+00 -0.00000000000E+00 -0.45593999997E+02  0.45594000000E+02  0.51100000000E-03 0.  1.
    9900012    2    1    2    0    0 -0.22013355781E+02  0.22288114560E+02 -0.59474591121E+01  0.59301950491E+02  0.50000011787E+02 0.  0.
         12    1    1    2    0    0  0.22013355781E+02 -0.22288114560E+02  0.59474591121E+01  0.31886049509E+02  0.00000000000E+00 0. -1.
         11    1    3    3    0    0  0.13909876124E+02  0.59622677075E+00  0.58547569789E+00  0.13934953254E+02  0.51100000000E-03 0. -1.
        -11    1    3    3    0    0 -0.13743609136E+01  0.53628481501E+01  0.25404258698E+01  0.60912044837E+01  0.51100000000E-03 0.  1.
        -12    1    3    3    0    0 -0.34548870992E+02  0.16329039639E+02 -0.90733606798E+01  0.39275792753E+02  0.00000000000E+00 0.  1.
</event>
<event>
 7    1  0.5832130E-012  0.5930194E+02  0.7816164E-02  0.1266605E+00
        -11   -1    0    0    0    0  0.00000000000E+00  0.00000000000E+00  0.45593999997E+02  0.45594000000E+02  0.51100000000E-03 0.  1.
         11   -1    0    0    0    0 -0.00000000000E+00 -0.00000000000E+00 -0.45593999997E+02  0.45594000000E+02  0.51100000000E-03 0. -1.
    9900012    2    1    2    0    0 -0.10634270561E+02 -0.12551889821E+02  0.27314527132E+02  0.59301936572E+02  0.49999986403E+02 0.  0.
         12    1    1    2    0    0  0.10634270561E+02  0.12551889821E+02 -0.27314527132E+02  0.31886063428E+02  0.00000000000E+00 0. -1.
         11    1    3    3    0    0  0.56694215331E+01 -0.15188237257E+01 -0.50939193021E+01  0.77715622719E+01  0.51100000000E-03 0. -1.
        -11    1    3    3    0    0  0.55875625696E+01 -0.12991159771E+02  0.24156472862E+01  0.14346652562E+02  0.51100000000E-03 0.  1.
        -12    1    3    3    0    0 -0.21891254664E+02  0.19580936755E+01  0.29992799148E+02  0.37183721739E+02  0.00000000000E+00 0.  1.
</event>
<event>
 7    1  0.5832130E-012  0.5930190E+02  0.7816164E-02  0.1266605E+00
        -11   -1    0    0    0    0  0.00000000000E+00  0.00000000000E+00  0.45593999997E+02  0.45594000000E+02  0.51100000000E-03 0.  1.
         11   -1    0    0    0    0 -0.00000000000E+00 -0.00000000000E+00 -0.45593999997E+02  0.45594000000E+02  0.51100000000E-03 0. -1.
    9900012    2    1    2    0    0  0.11671760498E+02 -0.29628796413E+02  0.16210015038E+01  0.59301902467E+02  0.49999924203E+02 0.  0.
         12    1    1    2    0    0 -0.11671760498E+02  0.29628796413E+02 -0.16210015038E+01  0.31886097533E+02  0.00000000000E+00 0. -1.
         11    1    3    3    0    0  0.71872466344E+01  0.29416213871E+01 -0.13373838977E+02  0.15465096825E+02  0.51100000000E-03 0. -1.
        -11    1    3    3    0    0  0.64668988476E+01  0.18378236110E+01  0.22170859713E+01  0.70791134188E+01  0.51100000000E-03 0.  1.
         12    1    3    3    0    0 -0.19823849843E+01 -0.34408241411E+02  0.12777754510E+02  0.36757692223E+02  0.00000000000E+00 0. -1.
</event>
<event>
 7    1  0.5832130E-012  0.5930195E+02  0.7816164E-02  0.1266605E+00
        -11   -1    0    0    0    0  0.00000000000E+00  0.00000000000E+00  0.45593999997E+02  0.45594000000E+02  0.51100000000E-03 0. -1.
         11   -1    0    0    0    0 -0.00000000000E+00 -0.00000000000E+00 -0.45593999997E+02  0.45594000000E+02  0.51100000000E-03 0.  1.
    9900012    2    1    2    0    0 -0.16752746537E+00 -0.14056237176E+02 -0.28620168996E+02  0.59301953799E+02  0.50000017820E+02 0.  0.
         12    1    1    2    0    0  0.16752746537E+00  0.14056237176E+02  0.28620168996E+02  0.31886046201E+02  0.00000000000E+00 0. -1.
         11    1    3    3    0    0  0.91548429259E+01 -0.47103866708E+01 -0.38376651355E+00  0.10302726269E+02  0.51100000000E-03 0. -1.
        -11    1    3    3    0    0  0.85745769496E+01 -0.13596713316E+02 -0.25863661627E+02  0.30451978194E+02  0.51100000000E-03 0.  1.
         12    1    3    3    0    0 -0.17896947341E+02  0.42508628108E+01 -0.23727408550E+01  0.18547249336E+02  0.00000000000E+00 0. -1.
</event>
<event>
 7    1  0.5832130E-012  0.5930204E+02  0.7816164E-02  0.1266604E+00
        -11   -1    0    0    0    0  0.00000000000E+00  0.00000000000E+00  0.45593999997E+02  0.45594000000E+02  0.51100000000E-03 0.  1.
         11   -1    0    0    0    0 -0.00000000000E+00 -0.00000000000E+00 -0.45593999997E+02  0.45594000000E+02  0.51100000000E-03 0. -1.
    9900012    2    1    2    0    0  0.17881318379E+02  0.11571435305E+02  0.23729203136E+02  0.59302035322E+02  0.50000166498E+02 0.  0.
         12    1    1    2    0    0 -0.17881318379E+02 -0.11571435305E+02 -0.23729203136E+02  0.31885964678E+02  0.00000000000E+00 0. -1.
         11    1    3    3    0    0  0.14968947933E+02 -0.10472140479E+02  0.44634535108E+01  0.18805784906E+02  0.51100000000E-03 0. -1.
        -11    1    3    3    0    0  0.10737188265E+02 -0.93869621182E+00  0.93609058717E+01  0.14275675865E+02  0.51100000000E-03 0.  1.
        -12    1    3    3    0    0 -0.78248178188E+01  0.22982271995E+02  0.99048437536E+01  0.26220574550E+02  0.00000000000E+00 0.  1.
</event>
<event>
 7    1  0.5832130E-012  0.5930196E+02  0.7816164E-02  0.1266605E+00
        -11   -1    0    0    0    0  0.00000000000E+00  0.00000000000E+00  0.45593999997E+02  0.45594000000E+02  0.51100000000E-03 0.  1.
         11   -1    0    0    0    0 -0.00000000000E+00 -0.00000000000E+00 -0.45593999997E+02  0.45594000000E+02  0.51100000000E-03 0. -1.
    9900012    2    1    2    0    0  0.27435572775E+02  0.15861558289E+02  0.35242273075E+01  0.59301955044E+02  0.50000020090E+02 0.  0.
         12    1    1    2    0    0 -0.27435572775E+02 -0.15861558289E+02 -0.35242273075E+01  0.31886044956E+02  0.00000000000E+00 0. -1.
         11    1    3    3    0    0  0.37380979709E+00 -0.97201057494E+01 -0.68453161398E+01  0.11894475308E+02  0.51100000000E-03 0. -1.
        -11    1    3    3    0    0  0.26954612772E+02  0.79800333979E+01  0.98864586952E+01  0.29798895089E+02  0.51100000000E-03 0.  1.
         12    1    3    3    0    0  0.10715020579E+00  0.17601630641E+02  0.48308475209E+00  0.17608584646E+02  0.00000000000E+00 0. -1.
</event>
<event>
 7    1  0.5832130E-012  0.5930195E+02  0.7816164E-02  0.1266605E+00
        -11   -1    0    0    0    0  0.00000000000E+00  0.00000000000E+00  0.45593999997E+02  0.45594000000E+02  0.51100000000E-03 0.  1.
         11   -1    0    0    0    0 -0.00000000000E+00 -0.00000000000E+00 -0.45593999997E+02  0.45594000000E+02  0.51100000000E-03 0. -1.
    9900012    2    1    2    0    0 -0.21626606114E+02 -0.37767476389E+01  0.23124581860E+02  0.59301949743E+02  0.50000010424E+02 0.  0.
         12    1    1    2    0    0  0.21626606114E+02  0.37767476389E+01 -0.23124581860E+02  0.31886050257E+02  0.00000000000E+00 0. -1.
         11    1    3    3    0    0 -0.87965533808E+01  0.87327252873E+01  0.12450409307E+02  0.17568509740E+02  0.51100000000E-03 0. -1.
        -11    1    3    3    0    0 -0.14571198825E+02 -0.12169368245E+02  0.22691560266E+02  0.29585811908E+02  0.51100000000E-03 0.  1.
         12    1    3    3    0    0  0.17411460914E+01 -0.34010468135E+00 -0.12017387713E+02  0.12147628095E+02  0.00000000000E+00 0. -1.
</event>
<event>
 7    1  0.5832130E-012  0.5930196E+02  0.7816164E-02  0.1266605E+00
        -11   -1    0    0    0    0  0.00000000000E+00  0.00000000000E+00  0.45593999997E+02  0.45594000000E+02  0.51100000000E-03 0.  1.
         11   -1    0    0    0    0 -0.00000000000E+00 -0.00000000000E+00 -0.45593999997E+02  0.45594000000E+02  0.51100000000E-03 0. -1.
    9900012    2    1    2    0    0 -0.25504305533E+01 -0.50432165084E+01  0.31381220147E+02  0.59301957494E+02  0.50000024560E+02 0.  0.
         12    1    1    2    0    0  0.25504305533E+01  0.50432165084E+01 -0.31381220147E+02  0.31886042506E+02  0.00000000000E+00 0. -1.
         11    1    3    3    0    0 -0.40555008945E+01  0.56203960189E+01  0.10864244415E+02  0.12886727509E+02  0.51100000000E-03 0. -1.
        -11    1    3    3    0    0 -0.15340501129E+02 -0.71013363577E+01  0.23492091360E+02  0.28941981785E+02  0.51100000000E-03 0.  1.
         12    1    3    3    0    0  0.16845571470E+02 -0.35622761696E+01 -0.29751156277E+01  0.17473248200E+02  0.00000000000E+00 0. -1.
</event>
<event>
 7    1  0.5832130E-012  0.5930193E+02  0.7816164E-02  0.1266605E+00
        -11   -1    0    0    0    0  0.00000000000E+00  0.00000000000E+00  0.45593999997E+02  0.45594000000E+02  0.51100000000E-03 0. -1.
         11   -1    0    0    0    0 -0.00000000000E+00 -0.00000000000E+00 -0.45593999997E+02  0.45594000000E+02  0.51100000000E-03 0.  1.
    9900012    2    1    2    0    0 -0.17579950629E+02  0.21590425384E+02 -0.15540931866E+02  0.59301926306E+02  0.49999967679E+02 0.  0.
         12    1    1    2    0    0  0.17579950629E+02 -0.21590425384E+02  0.15540931866E+02  0.31886073694E+02  0.00000000000E+00 0. -1.
         11    1    3    3    0    0 -0.59732127582E+01  0.24549718473E+02  0.73780970182E+01  0.26321175195E+02  0.51100000000E-03 0. -1.
        -11    1    3    3    0    0 -0.69010649229E+01  0.29400429359E+01  0.13002331099E+01  0.76130910894E+01  0.51100000000E-03 0.  1.
         12    1    3    3    0    0 -0.47056729480E+01 -0.58993360249E+01 -0.24219261994E+02  0.25367660021E+02  0.00000000000E+00 0. -1.
</event>
<event>
 7    1  0.5832130E-012  0.5930191E+02  0.7816164E-02  0.1266605E+00
        -11   -1    0    0    0    0  0.00000000000E+00  0.00000000000E+00  0.45593999997E+02  0.45594000000E+02  0.51100000000E-03 0.  1.
         11   -1    0    0    0    0 -0.00000000000E+00 -0.00000000000E+00 -0.45593999997E+02  0.45594000000E+02  0.51100000000E-03 0. -1.
    9900012    2    1    2    0    0  0.16591991443E+02  0.19451439465E+02  0.19054390167E+02  0.59301914289E+02  0.49999945764E+02 0.  0.
         12    1    1    2    0    0 -0.16591991443E+02 -0.19451439465E+02 -0.19054390167E+02  0.31886085711E+02  0.00000000000E+00 0. -1.
         11    1    3    3    0    0  0.26538308928E+01 -0.30347753393E+01  0.18514008088E+02  0.18947854114E+02  0.51100000000E-03 0.  1.
        -11    1    3    3    0    0  0.40465652040E+01 -0.71165879470E+01 -0.34586453373E+01  0.88872235140E+01  0.51100000000E-03 0. -1.
         12    1    3    3    0    0  0.98915953458E+01  0.29602802751E+02  0.39990274166E+01  0.31466836662E+02  0.00000000000E+00 0. -1.
</event>
<event>
 7    1  0.5832130E-012  0.5930192E+02  0.7816164E-02  0.1266605E+00
        -11   -1    0    0    0    0  0.00000000000E+00  0.00000000000E+00  0.45593999997E+02  0.45594000000E+02  0.51100000000E-03 0.  1.
         11   -1    0    0    0    0 -0.00000000000E+00 -0.00000000000E+00 -0.45593999997E+02  0.45594000000E+02  0.51100000000E-03 0. -1.
    9900012    2    1    2    0    0  0.21605630686E+02  0.82879832668E+00  0.23435691164E+02  0.59301924601E+02  0.49999964571E+02 0.  0.
         12    1    1    2    0    0 -0.21605630686E+02 -0.82879832668E+00 -0.23435691164E+02  0.31886075399E+02  0.00000000000E+00 0. -1.
         11    1    3    3    0    0  0.13429304046E+02 -0.64809505455E+00  0.49094591583E+01  0.14313246447E+02  0.51100000000E-03 0. -1.
        -11    1    3    3    0    0  0.46181178525E+01  0.46985890011E+01  0.30963848526E+02  0.31656968694E+02  0.51100000000E-03 0.  1.
         12    1    3    3    0    0  0.35582087870E+01 -0.32216956199E+01 -0.12437616520E+02  0.13331709460E+02  0.00000000000E+00 0. -1.
</event>
<event>
 7    1  0.5832130E-012  0.5930226E+02  0.7816164E-02  0.1266604E+00
        -11   -1    0    0    0    0  0.00000000000E+00  0.00000000000E+00  0.45593999997E+02  0.45594000000E+02  0.51100000000E-03 0. -1.
         11   -1    0    0    0    0 -0.00000000000E+00 -0.00000000000E+00 -0.45593999997E+02  0.45594000000E+02  0.51100000000E-03 0.  1.
    9900012    2    1    2    0    0 -0.31223127559E+02 -0.61234490648E+01 -0.20785445441E+01  0.59302256000E+02  0.50000568959E+02 0.  0.
         12    1    1    2    0    0  0.31223127559E+02  0.61234490648E+01  0.20785445441E+01  0.31885744000E+02  0.00000000000E+00 0. -1.
         11    1    3    3    0    0 -0.14241191850E+02  0.73001481175E+01  0.16512685014E+02  0.22995053261E+02  0.51100000000E-03 0. -1.
        -11    1    3    3    0    0 -0.16913236082E+02  0.48283755732E+00 -0.74480020946E+01  0.18486844575E+02  0.51100000000E-03 0.  1.
         12    1    3    3    0    0 -0.68699626888E-01 -0.13906434740E+02 -0.11143227463E+02  0.17820358164E+02  0.00000000000E+00 0. -1.
</event>
<event>
 7    1  0.5832130E-012  0.5930194E+02  0.7816164E-02  0.1266605E+00
        -11   -1    0    0    0    0  0.00000000000E+00  0.00000000000E+00  0.45593999997E+02  0.45594000000E+02  0.51100000000E-03 0. -1.
         11   -1    0    0    0    0 -0.00000000000E+00 -0.00000000000E+00 -0.45593999997E+02  0.45594000000E+02  0.51100000000E-03 0.  1.
    9900012    2    1    2    0    0  0.90262719277E+01 -0.21405475406E+02 -0.21841534467E+02  0.59301943641E+02  0.49999999294E+02 0.  0.
         12    1    1    2    0    0 -0.90262719277E+01  0.21405475406E+02  0.21841534467E+02  0.31886056359E+02  0.00000000000E+00 0. -1.
         11    1    3    3    0    0  0.39775580048E+01  0.14394350431E+02 -0.61243680261E+01  0.16140823275E+02  0.51100000000E-03 0.  1.
        -11    1    3    3    0    0  0.14993243459E+01 -0.40526645237E+00  0.26919019349E+01  0.31078208893E+01  0.51100000000E-03 0. -1.
        -12    1    3    3    0    0  0.35493895770E+01 -0.35394559385E+02 -0.18409068376E+02  0.40053299476E+02  0.00000000000E+00 0.  1.
</event>
<event>
 7    1  0.5832130E-012  0.5930196E+02  0.7816164E-02  0.1266605E+00
        -11   -1    0    0    0    0  0.00000000000E+00  0.00000000000E+00  0.45593999997E+02  0.45594000000E+02  0.51100000000E-03 0.  1.
         11   -1    0    0    0    0 -0.00000000000E+00 -0.00000000000E+00 -0.45593999997E+02  0.45594000000E+02  0.51100000000E-03 0. -1.
    9900012    2    1    2    0    0 -0.91912694359E+01  0.93978613196E+01  0.29050309898E+02  0.59301957029E+02  0.50000023710E+02 0.  0.
         12    1    1    2    0    0  0.91912694359E+01 -0.93978613196E+01 -0.29050309898E+02  0.31886042971E+02  0.00000000000E+00 0. -1.
         11    1    3    3    0    0 -0.17781253446E+02  0.10705860043E+02  0.54162359489E+01  0.21450501754E+02  0.51100000000E-03 0. -1.
        -11    1    3    3    0    0 -0.29774177389E+01  0.48566123901E+01  0.24071745314E+02  0.24736625134E+02  0.51100000000E-03 0.  1.
         12    1    3    3    0    0  0.11567401749E+02 -0.61646111137E+01 -0.43767136520E+00  0.13114830141E+02  0.00000000000E+00 0. -1.
</event>
<event>
 7    1  0.5832130E-012  0.5930195E+02  0.7816164E-02  0.1266605E+00
        -11   -1    0    0    0    0  0.00000000000E+00  0.00000000000E+00  0.45593999997E+02  0.45594000000E+02  0.51100000000E-03 0. -1.
         11   -1    0    0    0    0 -0.00000000000E+00 -0.00000000000E+00 -0.45593999997E+02  0.45594000000E+02  0.51100000000E-03 0.  1.
    9900012    2    1    2    0    0 -0.40428671674E+01 -0.31623543592E+02  0.57182243767E+00  0.59301948737E+02  0.50000008588E+02 0.  0.
         12    1    1    2    0    0  0.40428671674E+01  0.31623543592E+02 -0.57182243767E+00  0.31886051263E+02  0.00000000000E+00 0. -1.
         11    1    3    3    0    0 -0.70226303655E+01 -0.17362688563E+01 -0.68856135101E+01  0.99871737976E+01  0.51100000000E-03 0. -1.
        -11    1    3    3    0    0 -0.91814104506E+01 -0.13702353658E+02 -0.12646159044E+02  0.20784083633E+02  0.51100000000E-03 0.  1.
         12    1    3    3    0    0  0.12161173649E+02 -0.16184921078E+02  0.20103594992E+02  0.28530691306E+02  0.00000000000E+00 0. -1.
</event>
<event>
 7    1  0.5832130E-012  0.5930193E+02  0.7816164E-02  0.1266605E+00
        -11   -1    0    0    0    0  0.00000000000E+00  0.00000000000E+00  0.45593999997E+02  0.45594000000E+02  0.51100000000E-03 0. -1.
         11   -1    0    0    0    0 -0.00000000000E+00 -0.00000000000E+00 -0.45593999997E+02  0.45594000000E+02  0.51100000000E-03 0.  1.
    9900012    2    1    2    0    0 -0.16702244143E+02 -0.22794636420E+02 -0.14770268979E+02  0.59301933221E+02  0.49999980291E+02 0.  0.
         12    1    1    2    0    0  0.16702244143E+02  0.22794636420E+02  0.14770268979E+02  0.31886066779E+02  0.00000000000E+00 0. -1.
         11    1    3    3    0    0 -0.36188079639E+01 -0.42214365209E+01  0.11398395392E+02  0.12682259860E+02  0.51100000000E-03 0. -1.
        -11    1    3    3    0    0  0.63578253018E+01 -0.17044159932E+01  0.34072069820E+01  0.74118847890E+01  0.51100000000E-03 0.  1.
        -12    1    3    3    0    0 -0.19441261481E+02 -0.16868783906E+02 -0.29575871353E+02  0.39207788572E+02  0.00000000000E+00 0.  1.
</event>
<event>
 7    1  0.5832130E-012  0.5930194E+02  0.7816164E-02  0.1266605E+00
        -11   -1    0    0    0    0  0.00000000000E+00  0.00000000000E+00  0.45593999997E+02  0.45594000000E+02  0.51100000000E-03 0.  1.
         11   -1    0    0    0    0 -0.00000000000E+00 -0.00000000000E+00 -0.45593999997E+02  0.45594000000E+02  0.51100000000E-03 0. -1.
    9900012    2    1    2    0    0 -0.11842290171E+02  0.11544120627E+02  0.27261952222E+02  0.59301943541E+02  0.49999999112E+02 0.  0.
         12    1    1    2    0    0  0.11842290171E+02 -0.11544120627E+02 -0.27261952222E+02  0.31886056459E+02  0.00000000000E+00 0. -1.
         11    1    3    3    0    0 -0.33394034109E+01 -0.58483518138E+01  0.32722881388E+02  0.33408708455E+02  0.51100000000E-03 0. -1.
        -11    1    3    3    0    0  0.16831791721E+01  0.56122608537E+00 -0.59548223851E+01  0.62135317448E+01  0.51100000000E-03 0.  1.
        -12    1    3    3    0    0 -0.10186065932E+02  0.16831246356E+02  0.49389321977E+00  0.19679703341E+02  0.00000000000E+00 0.  1.
</event>
<event>
 7    1  0.5832130E-012  0.5930195E+02  0.7816164E-02  0.1266605E+00
        -11   -1    0    0    0    0  0.00000000000E+00  0.00000000000E+00  0.45593999997E+02  0.45594000000E+02  0.51100000000E-03 0.  1.
         11   -1    0    0    0    0 -0.00000000000E+00 -0.00000000000E+00 -0.45593999997E+02  0.45594000000E+02  0.51100000000E-03 0. -1.
    9900012    2    1    2    0    0 -0.91564876576E+01  0.30074596367E+02 -0.53289441001E+01  0.59301948847E+02  0.50000008790E+02 0.  0.
         12    1    1    2    0    0  0.91564876576E+01 -0.30074596367E+02  0.53289441001E+01  0.31886051153E+02  0.00000000000E+00 0. -1.
         11    1    3    3    0    0 -0.29702334791E+01  0.10500778914E+02  0.16879200149E+02  0.20099652800E+02  0.51100000000E-03 0. -1.
        -11    1    3    3    0    0  0.13370553843E+01  0.60115119759E+00  0.49882838741E+01  0.51992380339E+01  0.51100000000E-03 0.  1.
         12    1    3    3    0    0 -0.75233095629E+01  0.18972666255E+02 -0.27196428123E+02  0.34003058014E+02  0.00000000000E+00 0. -1.
</event>
<event>
 7    1  0.5832130E-012  0.5930192E+02  0.7816164E-02  0.1266605E+00
        -11   -1    0    0    0    0  0.00000000000E+00  0.00000000000E+00  0.45593999997E+02  0.45594000000E+02  0.51100000000E-03 0.  1.
         11   -1    0    0    0    0 -0.00000000000E+00 -0.00000000000E+00 -0.45593999997E+02  0.45594000000E+02  0.51100000000E-03 0. -1.
    9900012    2    1    2    0    0  0.13932281704E+02 -0.28344293616E+02  0.43834610764E+01  0.59301918630E+02  0.49999953681E+02 0.  0.
         12    1    1    2    0    0 -0.13932281704E+02  0.28344293616E+02 -0.43834610764E+01  0.31886081370E+02  0.00000000000E+00 0. -1.
         11    1    3    3    0    0 -0.33556101161E+01 -0.98845104518E+01 -0.74978180496E+01  0.12852273802E+02  0.51100000000E-03 0.  1.
        -11    1    3    3    0    0 -0.41498795655E+01  0.81791748127E+01 -0.22616866304E+01  0.94464611205E+01  0.51100000000E-03 0. -1.
        -12    1    3    3    0    0  0.21437771386E+02 -0.26638957977E+02  0.14142965756E+02  0.37003183708E+02  0.00000000000E+00 0.  1.
</event>
<event>
 7    1  0.5832130E-012  0.5930196E+02  0.7816164E-02  0.1266605E+00
        -11   -1    0    0    0    0  0.00000000000E+00  0.00000000000E+00  0.45593999997E+02  0.45594000000E+02  0.51100000000E-03 0. -1.
         11   -1    0    0    0    0 -0.00000000000E+00 -0.00000000000E+00 -0.45593999997E+02  0.45594000000E+02  0.51100000000E-03 0.  1.
    9900012    2    1    2    0    0 -0.80297599741E+01  0.19674808763E+02 -0.23772765925E+02  0.59301960032E+02  0.50000029188E+02 0.  0.
         12    1    1    2    0    0  0.80297599741E+01 -0.19674808763E+02  0.23772765925E+02  0.31886039968E+02  0.00000000000E+00 0. -1.
         11    1    3    3    0    0 -0.15119148598E+01  0.14045204543E+02  0.52032539512E+01  0.15054152554E+02  0.51100000000E-03 0. -1.
        -11    1    3    3    0    0 -0.69914723150E+01 -0.18901614493E+01  0.54137913442E+01  0.90422636776E+01  0.51100000000E-03 0.  1.
        -12    1    3    3    0    0  0.47362720066E+00  0.75197656697E+01 -0.34389811221E+02  0.35205543800E+02  0.00000000000E+00 0.  1.
</event>
<event>
 7    1  0.5832130E-012  0.5930195E+02  0.7816164E-02  0.1266605E+00
        -11   -1    0    0    0    0  0.00000000000E+00  0.00000000000E+00  0.45593999997E+02  0.45594000000E+02  0.51100000000E-03 0.  1.
         11   -1    0    0    0    0 -0.00000000000E+00 -0.00000000000E+00 -0.45593999997E+02  0.45594000000E+02  0.51100000000E-03 0. -1.
    9900012    2    1    2    0    0 -0.25549363097E+02  0.11613013508E+01  0.19042098555E+02  0.59301951439E+02  0.50000013516E+02 0.  0.
         12    1    1    2    0    0  0.25549363097E+02 -0.11613013508E+01 -0.19042098555E+02  0.31886048561E+02  0.00000000000E+00 0. -1.
         11    1    3    3    0    0  0.42388082198E+01 -0.46724241706E+01 -0.15597496358E+01  0.64986046150E+01  0.51100000000E-03 0. -1.
        -11    1    3    3    0    0 -0.14154368812E+00  0.81559739903E+01  0.21558897363E+02  0.23050509802E+02  0.51100000000E-03 0.  1.
         12    1    3    3    0    0 -0.29646627629E+02 -0.23222484689E+01 -0.95704917295E+00  0.29752837022E+02  0.00000000000E+00 0. -1.
</event>
<event>
 7    1  0.5832130E-012  0.5930191E+02  0.7816164E-02  0.1266605E+00
        -11   -1    0    0    0    0  0.00000000000E+00  0.00000000000E+00  0.45593999997E+02  0.45594000000E+02  0.51100000000E-03 0.  1.
         11   -1    0    0    0    0 -0.00000000000E+00 -0.00000000000E+00 -0.45593999997E+02  0.45594000000E+02  0.51100000000E-03 0. -1.
    9900012    2    1    2    0    0 -0.31792294760E+02  0.20725492780E+01 -0.12949835796E+01  0.59301914491E+02  0.49999946132E+02 0.  0.
         12    1    1    2    0    0  0.31792294760E+02 -0.20725492780E+01  0.12949835796E+01  0.31886085509E+02  0.00000000000E+00 0. -1.
         11    1    3    3    0    0 -0.83442248684E+01  0.13699244033E+02 -0.48696722025E+01  0.16763325546E+02  0.51100000000E-03 0. -1.
        -11    1    3    3    0    0  0.34343802966E+01 -0.10465005918E+02  0.99977797832E+01  0.14875043454E+02  0.51100000000E-03 0.  1.
         12    1    3    3    0    0 -0.26882450189E+02 -0.11616888368E+01 -0.64230911603E+01  0.27663545491E+02  0.00000000000E+00 0. -1.
</event>
<event>
 7    1  0.5832130E-012  0.5930195E+02  0.7816164E-02  0.1266605E+00
        -11   -1    0    0    0    0  0.00000000000E+00  0.00000000000E+00  0.45593999997E+02  0.45594000000E+02  0.51100000000E-03 0.  1.
         11   -1    0    0    0    0 -0.00000000000E+00 -0.00000000000E+00 -0.45593999997E+02  0.45594000000E+02  0.51100000000E-03 0. -1.
    9900012    2    1    2    0    0 -0.13775142723E+01 -0.49130806523E+01  0.31475138515E+02  0.59301948949E+02  0.50000008975E+02 0.  0.
         12    1    1    2    0    0  0.13775142723E+01  0.49130806523E+01 -0.31475138515E+02  0.31886051051E+02  0.00000000000E+00 0. -1.
         11    1    3    3    0    0 -0.80226496530E+01  0.96413553996E+01  0.11073736902E+02  0.16731595579E+02  0.51100000000E-03 0. -1.
        -11    1    3    3    0    0  0.18247823716E+01 -0.11766072323E+02  0.29550870543E+02  0.31859445047E+02  0.51100000000E-03 0.  1.
         12    1    3    3    0    0  0.48203530090E+01 -0.27883637293E+01 -0.91494689292E+01  0.10710908323E+02  0.00000000000E+00 0. -1.
</event>
<event>
 7    1  0.5832130E-012  0.5930194E+02  0.7816164E-02  0.1266605E+00
        -11   -1    0    0    0    0  0.00000000000E+00  0.00000000000E+00  0.45593999997E+02  0.45594000000E+02  0.51100000000E-03 0. -1.
         11   -1    0    0    0    0 -0.00000000000E+00 -0.00000000000E+00 -0.45593999997E+02  0.45594000000E+02  0.51100000000E-03 0.  1.
    9900012    2    1    2    0    0  0.27174528079E+02  0.16601005177E+02  0.16348574292E+01  0.59301935521E+02  0.49999984485E+02 0.  0.
         12    1    1    2    0    0 -0.27174528079E+02 -0.16601005177E+02 -0.16348574292E+01  0.31886064479E+02  0.00000000000E+00 0. -1.
         11    1    3    3    0    0 -0.26312968014E+01  0.58803555383E+01 -0.83457879293E+00  0.64960623563E+01  0.51100000000E-03 0. -1.
        -11    1    3    3    0    0  0.24633299751E+02  0.11727236949E+02 -0.17327371151E+02  0.32319735988E+02  0.51100000000E-03 0.  1.
         12    1    3    3    0    0  0.51725251290E+01 -0.10065873100E+01  0.19796807373E+02  0.20486137176E+02  0.00000000000E+00 0. -1.
</event>
<event>
 7    1  0.5832130E-012  0.5930181E+02  0.7816164E-02  0.1266605E+00
        -11   -1    0    0    0    0  0.00000000000E+00  0.00000000000E+00  0.45593999997E+02  0.45594000000E+02  0.51100000000E-03 0.  1.
         11   -1    0    0    0    0 -0.00000000000E+00 -0.00000000000E+00 -0.45593999997E+02  0.45594000000E+02  0.51100000000E-03 0. -1.
    9900012    2    1    2    0    0 -0.20957665796E+02 -0.22080668673E+02  0.94841803878E+01  0.59301806086E+02  0.49999748427E+02 0.  0.
         12    1    1    2    0    0  0.20957665796E+02  0.22080668673E+02 -0.94841803878E+01  0.31886193914E+02  0.00000000000E+00 0. -1.
         11    1    3    3    0    0  0.75512735101E+01 -0.11564903208E+02 -0.32881578374E+01  0.14197911821E+02  0.51100000000E-03 0. -1.
        -11    1    3    3    0    0 -0.27371317250E+01  0.87244533311E+01 -0.25301631072E+01  0.94873442869E+01  0.51100000000E-03 0.  1.
        -12    1    3    3    0    0 -0.25771807581E+02 -0.19240218796E+02  0.15302501332E+02  0.35616549978E+02  0.00000000000E+00 0.  1.
</event>
<event>
 7    1  0.5832130E-012  0.5930194E+02  0.7816164E-02  0.1266605E+00
        -11   -1    0    0    0    0  0.00000000000E+00  0.00000000000E+00  0.45593999997E+02  0.45594000000E+02  0.51100000000E-03 0.  1.
         11   -1    0    0    0    0 -0.00000000000E+00 -0.00000000000E+00 -0.45593999997E+02  0.45594000000E+02  0.51100000000E-03 0. -1.
    9900012    2    1    2    0    0  0.12958015199E+02 -0.29086164222E+02  0.16750311823E+01  0.59301939777E+02  0.49999992248E+02 0.  0.
         12    1    1    2    0    0 -0.12958015199E+02  0.29086164222E+02 -0.16750311823E+01  0.31886060223E+02  0.00000000000E+00 0. -1.
         11    1    3    3    0    0 -0.29804440835E+01 -0.15918196985E+02  0.10757516610E+02  0.19442124526E+02  0.51100000000E-03 0.  1.
        -11    1    3    3    0    0  0.24199326175E+01  0.90302896198E+01 -0.10211403690E+02  0.13844672986E+02  0.51100000000E-03 0. -1.
         12    1    3    3    0    0  0.13518526665E+02 -0.22198256857E+02  0.11289182621E+01  0.26015142266E+02  0.00000000000E+00 0. -1.
</event>
<event>
 7    1  0.5832130E-012  0.5930191E+02  0.7816164E-02  0.1266605E+00
        -11   -1    0    0    0    0  0.00000000000E+00  0.00000000000E+00  0.45593999997E+02  0.45594000000E+02  0.51100000000E-03 0. -1.
         11   -1    0    0    0    0 -0.00000000000E+00 -0.00000000000E+00 -0.45593999997E+02  0.45594000000E+02  0.51100000000E-03 0.  1.
    9900012    2    1    2    0    0  0.81394565783E+01  0.10478804589E+02 -0.28994254622E+02  0.59301907419E+02  0.49999933234E+02 0.  0.
         12    1    1    2    0    0 -0.81394565783E+01 -0.10478804589E+02  0.28994254622E+02  0.31886092581E+02  0.00000000000E+00 0. -1.
         11    1    3    3    0    0 -0.45997194186E+01  0.30077933647E+01 -0.45165684569E+01  0.71136228844E+01  0.51100000000E-03 0. -1.
        -11    1    3    3    0    0 -0.58187107172E+01  0.14883992129E+02 -0.27667885536E+02  0.31951565007E+02  0.51100000000E-03 0.  1.
         12    1    3    3    0    0  0.18557886714E+02 -0.74129809049E+01  0.31901993713E+01  0.20236719527E+02  0.00000000000E+00 0. -1.
</event>
<event>
 7    1  0.5832130E-012  0.5930187E+02  0.7816164E-02  0.1266605E+00
        -11   -1    0    0    0    0  0.00000000000E+00  0.00000000000E+00  0.45593999997E+02  0.45594000000E+02  0.51100000000E-03 0.  1.
         11   -1    0    0    0    0 -0.00000000000E+00 -0.00000000000E+00 -0.45593999997E+02  0.45594000000E+02  0.51100000000E-03 0. -1.
    9900012    2    1    2    0    0 -0.22610040830E+02  0.20588967573E+02  0.90335910164E+01  0.59301869806E+02  0.49999864638E+02 0.  0.
         12    1    1    2    0    0  0.22610040830E+02 -0.20588967573E+02 -0.90335910164E+01  0.31886130194E+02  0.00000000000E+00 0. -1.
         11    1    3    3    0    0  0.28865793349E+01  0.93301093065E+01 -0.64584643478E+01  0.11708759196E+02  0.51100000000E-03 0. -1.
        -11    1    3    3    0    0 -0.35479619852E+01  0.20688786611E+02  0.55035068838E+01  0.21700288338E+02  0.51100000000E-03 0.  1.
        -12    1    3    3    0    0 -0.21948658180E+02 -0.94299283438E+01  0.99885484804E+01  0.25892822272E+02  0.00000000000E+00 0.  1.
</event>
<event>
 7    1  0.5832130E-012  0.5930193E+02  0.7816164E-02  0.1266605E+00
        -11   -1    0    0    0    0  0.00000000000E+00  0.00000000000E+00  0.45593999997E+02  0.45594000000E+02  0.51100000000E-03 0. -1.
         11   -1    0    0    0    0 -0.00000000000E+00 -0.00000000000E+00 -0.45593999997E+02  0.45594000000E+02  0.51100000000E-03 0.  1.
    9900012    2    1    2    0    0  0.24346438614E+02  0.16535921518E+02 -0.12269285610E+02  0.59301934972E+02  0.49999983484E+02 0.  0.
         12    1    1    2    0    0 -0.24346438614E+02 -0.16535921518E+02  0.12269285610E+02  0.31886065028E+02  0.00000000000E+00 0. -1.
         11    1    3    3    0    0 -0.35235268052E+01  0.40935533652E+01 -0.22855341191E+01  0.58648177100E+01  0.51100000000E-03 0. -1.
        -11    1    3    3    0    0  0.17414014769E+02 -0.14478675953E+02 -0.94840330540E+01  0.24552532476E+02  0.51100000000E-03 0.  1.
         12    1    3    3    0    0  0.10455950650E+02  0.26921044106E+02 -0.49971843650E+00  0.28884584786E+02  0.00000000000E+00 0. -1.
</event>
<event>
 7    1  0.5832130E-012  0.5930195E+02  0.7816164E-02  0.1266605E+00
        -11   -1    0    0    0    0  0.00000000000E+00  0.00000000000E+00  0.45593999997E+02  0.45594000000E+02  0.51100000000E-03 0.  1.
         11   -1    0    0    0    0 -0.00000000000E+00 -0.00000000000E+00 -0.45593999997E+02  0.45594000000E+02  0.51100000000E-03 0. -1.
    9900012    2    1    2    0    0  0.63519107609E+01  0.25996462255E+02  0.17336584131E+02  0.59301953374E+02  0.50000017045E+02 0.  0.
         12    1    1    2    0    0 -0.63519107609E+01 -0.25996462255E+02 -0.17336584131E+02  0.31886046626E+02  0.00000000000E+00 0. -1.
         11    1    3    3    0    0 -0.10425918550E+02 -0.78303898828E+00  0.15721868537E+02  0.18880944845E+02  0.51100000000E-03 0.  1.
        -11    1    3    3    0    0  0.50328967596E+01  0.51507255030E+01 -0.10701910166E+02  0.12899259842E+02  0.51100000000E-03 0. -1.
        -12    1    3    3    0    0  0.11744932552E+02  0.21628775741E+02  0.12316625760E+02  0.27521748687E+02  0.00000000000E+00 0.  1.
</event>
<event>
 7    1  0.5832130E-012  0.5930209E+02  0.7816164E-02  0.1266604E+00
        -11   -1    0    0    0    0  0.00000000000E+00  0.00000000000E+00  0.45593999997E+02  0.45594000000E+02  0.51100000000E-03 0.  1.
         11   -1    0    0    0    0 -0.00000000000E+00 -0.00000000000E+00 -0.45593999997E+02  0.45594000000E+02  0.51100000000E-03 0. -1.
    9900012    2    1    2    0    0  0.46739201964E+01 -0.23099698808E+02  0.21477191850E+02  0.59302087989E+02  0.50000262551E+02 0.  0.
         12    1    1    2    0    0 -0.46739201964E+01  0.23099698808E+02 -0.21477191850E+02  0.31885912011E+02  0.00000000000E+00 0. -1.
         11    1    3    3    0    0 -0.20606059175E+00  0.42157054223E+01 -0.32534706516E+01  0.53291373333E+01  0.51100000000E-03 0. -1.
        -11    1    3    3    0    0  0.13745149099E+02  0.16620265781E+01 -0.14574057553E+01  0.13921763103E+02  0.51100000000E-03 0.  1.
         12    1    3    3    0    0 -0.88651683107E+01 -0.28977430808E+02  0.26188068257E+02  0.40051187553E+02  0.00000000000E+00 0. -1.
</event>
<event>
 7    1  0.5832130E-012  0.5930191E+02  0.7816164E-02  0.1266605E+00
        -11   -1    0    0    0    0  0.00000000000E+00  0.00000000000E+00  0.45593999997E+02  0.45594000000E+02  0.51100000000E-03 0. -1.
         11   -1    0    0    0    0 -0.00000000000E+00 -0.00000000000E+00 -0.45593999997E+02  0.45594000000E+02  0.51100000000E-03 0.  1.
    9900012    2    1    2    0    0 -0.22840426864E+02  0.17572322871E+02  0.13647392297E+02  0.59301906685E+02  0.49999931896E+02 0.  0.
         12    1    1    2    0    0  0.22840426864E+02 -0.17572322871E+02 -0.13647392297E+02  0.31886093315E+02  0.00000000000E+00 0. -1.
         11    1    3    3    0    0 -0.12767213381E+02 -0.33667225176E+01 -0.29167133321E+01  0.13521973781E+02  0.51100000000E-03 0.  1.
        -11    1    3    3    0    0 -0.57784334362E+01  0.17680144134E+02 -0.82781467278E+01  0.20359408220E+02  0.51100000000E-03 0. -1.
         12    1    3    3    0    0 -0.42947800468E+01  0.32589012541E+01  0.24842252357E+02  0.25420524684E+02  0.00000000000E+00 0. -1.
</event>
<event>
 7    1  0.5832130E-012  0.5930194E+02  0.7816164E-02  0.1266605E+00
        -11   -1    0    0    0    0  0.00000000000E+00  0.00000000000E+00  0.45593999997E+02  0.45594000000E+02  0.51100000000E-03 0.  1.
         11   -1    0    0    0    0 -0.00000000000E+00 -0.00000000000E+00 -0.45593999997E+02  0.45594000000E+02  0.51100000000E-03 0. -1.
    9900012    2    1    2    0    0 -0.20744385758E+02  0.84049914100E+01  0.22710071831E+02  0.59301940607E+02  0.49999993761E+02 0.  0.
         12    1    1    2    0    0  0.20744385758E+02 -0.84049914100E+01 -0.22710071831E+02  0.31886059393E+02  0.00000000000E+00 0. -1.
         11    1    3    3    0    0 -0.22156623844E+02  0.10822365920E+02  0.19605747458E+02  0.31502776352E+02  0.51100000000E-03 0. -1.
        -11    1    3    3    0    0 -0.87238723262E+01 -0.40321616158E+01  0.11177164485E+02  0.14740871136E+02  0.51100000000E-03 0.  1.
         12    1    3    3    0    0  0.10136110412E+02  0.16147871053E+01 -0.80728401118E+01  0.13058293118E+02  0.00000000000E+00 0. -1.
</event>
<event>
 7    1  0.5832130E-012  0.5930193E+02  0.7816164E-02  0.1266605E+00
        -11   -1    0    0    0    0  0.00000000000E+00  0.00000000000E+00  0.45593999997E+02  0.45594000000E+02  0.51100000000E-03 0. -1.
         11   -1    0    0    0    0 -0.00000000000E+00 -0.00000000000E+00 -0.45593999997E+02  0.45594000000E+02  0.51100000000E-03 0.  1.
    9900012    2    1    2    0    0 -0.29430994309E+02 -0.10729087103E+02 -0.59518936976E+01  0.59301925066E+02  0.49999965419E+02 0.  0.
         12    1    1    2    0    0  0.29430994309E+02  0.10729087103E+02  0.59518936976E+01  0.31886074934E+02  0.00000000000E+00 0. -1.
         11    1    3    3    0    0 -0.71738869209E+01 -0.16139666626E+02  0.69296971458E+01  0.18972985932E+02  0.51100000000E-03 0. -1.
        -11    1    3    3    0    0 -0.18236078308E+02 -0.10874141605E+02 -0.50892984017E+01  0.21833517036E+02  0.51100000000E-03 0.  1.
        -12    1    3    3    0    0 -0.40210290808E+01  0.16284721129E+02 -0.77922924416E+01  0.18495422099E+02  0.00000000000E+00 0.  1.
</event>
<event>
 7    1  0.5832130E-012  0.5930194E+02  0.7816164E-02  0.1266605E+00
        -11   -1    0    0    0    0  0.00000000000E+00  0.00000000000E+00  0.45593999997E+02  0.45594000000E+02  0.51100000000E-03 0.  1.
         11   -1    0    0    0    0 -0.00000000000E+00 -0.00000000000E+00 -0.45593999997E+02  0.45594000000E+02  0.51100000000E-03 0. -1.
    9900012    2    1    2    0    0 -0.21217714938E+02 -0.60040011047E+00  0.23794299135E+02  0.59301943819E+02  0.49999999619E+02 0.  0.
         12    1    1    2    0    0  0.21217714938E+02  0.60040011047E+00 -0.23794299135E+02  0.31886056181E+02  0.00000000000E+00 0. -1.
         11    1    3    3    0    0 -0.32907445610E+01  0.12538147425E+02 -0.55611485993E+01  0.14105336388E+02  0.51100000000E-03 0. -1.
        -11    1    3    3    0    0 -0.39331053298E+01  0.58394502724E+01  0.17376798743E+02  0.18748910151E+02  0.51100000000E-03 0.  1.
        -12    1    3    3    0    0 -0.13993865048E+02 -0.18977997808E+02  0.11978648991E+02  0.26447697280E+02  0.00000000000E+00 0.  1.
</event>
<event>
 7    1  0.5832130E-012  0.5930187E+02  0.7816164E-02  0.1266605E+00
        -11   -1    0    0    0    0  0.00000000000E+00  0.00000000000E+00  0.45593999997E+02  0.45594000000E+02  0.51100000000E-03 0.  1.
         11   -1    0    0    0    0 -0.00000000000E+00 -0.00000000000E+00 -0.45593999997E+02  0.45594000000E+02  0.51100000000E-03 0. -1.
    9900012    2    1    2    0    0 -0.23936076784E+02  0.10039889023E+02  0.18519994904E+02  0.59301868929E+02  0.49999863039E+02 0.  0.
         12    1    1    2    0    0  0.23936076784E+02 -0.10039889023E+02 -0.18519994904E+02  0.31886131071E+02  0.00000000000E+00 0. -1.
         11    1    3    3    0    0  0.74989180041E+01  0.83143229566E+01  0.14449600126E+02  0.18279843585E+02  0.51100000000E-03 0. -1.
        -11    1    3    3    0    0 -0.16743600418E+02  0.12229123417E+02  0.85292228290E+01  0.22419796092E+02  0.51100000000E-03 0.  1.
         12    1    3    3    0    0 -0.14691394370E+02 -0.10503557350E+02 -0.44588280505E+01  0.18602229252E+02  0.00000000000E+00 0. -1.
</event>
<event>
 7    1  0.5832130E-012  0.5930198E+02  0.7816164E-02  0.1266605E+00
        -11   -1    0    0    0    0  0.00000000000E+00  0.00000000000E+00  0.45593999997E+02  0.45594000000E+02  0.51100000000E-03 0. -1.
         11   -1    0    0    0    0 -0.00000000000E+00 -0.00000000000E+00 -0.45593999997E+02  0.45594000000E+02  0.51100000000E-03 0.  1.
    9900012    2    1    2    0    0 -0.16515751440E+02 -0.59542808419E+01 -0.26617569677E+02  0.59301976079E+02  0.50000058454E+02 0.  0.
         12    1    1    2    0    0  0.16515751440E+02  0.59542808419E+01  0.26617569677E+02  0.31886023921E+02  0.00000000000E+00 0. -1.
         11    1    3    3    0    0  0.62148576092E+01  0.79513580005E+01 -0.12509506820E+02  0.16072843877E+02  0.51100000000E-03 0. -1.
        -11    1    3    3    0    0  0.23827547024E+01 -0.60358956243E+01 -0.15572912786E+02  0.16870837823E+02  0.51100000000E-03 0.  1.
        -12    1    3    3    0    0 -0.25113363752E+02 -0.78697432181E+01  0.14648499285E+01  0.26358294379E+02  0.00000000000E+00 0.  1.
</event>
<event>
 7    1  0.5832130E-012  0.5930194E+02  0.7816164E-02  0.1266605E+00
        -11   -1    0    0    0    0  0.00000000000E+00  0.00000000000E+00  0.45593999997E+02  0.45594000000E+02  0.51100000000E-03 0.  1.
         11   -1    0    0    0    0 -0.00000000000E+00 -0.00000000000E+00 -0.45593999997E+02  0.45594000000E+02  0.51100000000E-03 0. -1.
    9900012    2    1    2    0    0 -0.16235412410E+02  0.19877255274E+01  0.27371171704E+02  0.59301941771E+02  0.49999995885E+02 0.  0.
         12    1    1    2    0    0  0.16235412410E+02 -0.19877255274E+01 -0.27371171704E+02  0.31886058229E+02  0.00000000000E+00 0. -1.
         11    1    3    3    0    0  0.91215831115E+01 -0.10837030277E+02  0.49813439234E+01  0.15015268603E+02  0.51100000000E-03 0. -1.
        -11    1    3    3    0    0 -0.92804718097E+01  0.97711362819E+01 -0.32570071302E+01  0.13863994986E+02  0.51100000000E-03 0.  1.
        -12    1    3    3    0    0 -0.16076523712E+02  0.30536195226E+01  0.25646834911E+02  0.30422678183E+02  0.00000000000E+00 0.  1.
</event>
<event>
 7    1  0.5832130E-012  0.5930200E+02  0.7816164E-02  0.1266605E+00
        -11   -1    0    0    0    0  0.00000000000E+00  0.00000000000E+00  0.45593999997E+02  0.45594000000E+02  0.51100000000E-03 0. -1.
         11   -1    0    0    0    0 -0.00000000000E+00 -0.00000000000E+00 -0.45593999997E+02  0.45594000000E+02  0.51100000000E-03 0.  1.
    9900012    2    1    2    0    0  0.29758300392E+02 -0.10894771467E+02 -0.35305153630E+01  0.59301999525E+02  0.50000101214E+02 0.  0.
         12    1    1    2    0    0 -0.29758300392E+02  0.10894771467E+02  0.35305153630E+01  0.31886000475E+02  0.00000000000E+00 0. -1.
         11    1    3    3    0    0  0.10920258136E+02  0.17633334848E+01  0.56610800581E+00  0.11076184418E+02  0.51100000000E-03 0. -1.
        -11    1    3    3    0    0  0.24674700744E+02 -0.56476404735E+01 -0.18377238594E+02  0.31280338846E+02  0.51100000000E-03 0.  1.
         12    1    3    3    0    0 -0.58366584874E+01 -0.70104644785E+01  0.14280615225E+02  0.16945476261E+02  0.00000000000E+00 0. -1.
</event>
<event>
 7    1  0.5832130E-012  0.5930196E+02  0.7816164E-02  0.1266605E+00
        -11   -1    0    0    0    0  0.00000000000E+00  0.00000000000E+00  0.45593999997E+02  0.45594000000E+02  0.51100000000E-03 0.  1.
         11   -1    0    0    0    0 -0.00000000000E+00 -0.00000000000E+00 -0.45593999997E+02  0.45594000000E+02  0.51100000000E-03 0. -1.
    9900012    2    1    2    0    0 -0.49482811904E+01  0.25979197182E+02  0.17813340625E+02  0.59301964229E+02  0.50000036841E+02 0.  0.
         12    1    1    2    0    0  0.49482811904E+01 -0.25979197182E+02 -0.17813340625E+02  0.31886035771E+02  0.00000000000E+00 0. -1.
         11    1    3    3    0    0 -0.31835728361E+01  0.34865103085E+01 -0.14403916540E+02  0.15157958375E+02  0.51100000000E-03 0. -1.
        -11    1    3    3    0    0 -0.61018166835E+01  0.36655429733E+01  0.20136703125E+02  0.21357789800E+02  0.51100000000E-03 0.  1.
        -12    1    3    3    0    0  0.43371083293E+01  0.18827143901E+02  0.12080554041E+02  0.22786216054E+02  0.00000000000E+00 0.  1.
</event>
<event>
 7    1  0.5832130E-012  0.5930191E+02  0.7816164E-02  0.1266605E+00
        -11   -1    0    0    0    0  0.00000000000E+00  0.00000000000E+00  0.45593999997E+02  0.45594000000E+02  0.51100000000E-03 0. -1.
         11   -1    0    0    0    0 -0.00000000000E+00 -0.00000000000E+00 -0.45593999997E+02  0.45594000000E+02  0.51100000000E-03 0.  1.
    9900012    2    1    2    0    0 -0.20515714575E+02  0.23950122570E+02 -0.47137580025E+01  0.59301914788E+02  0.49999946674E+02 0.  0.
         12    1    1    2    0    0  0.20515714575E+02 -0.23950122570E+02  0.47137580025E+01  0.31886085212E+02  0.00000000000E+00 0. -1.
         11    1    3    3    0    0 -0.13427664164E+02  0.37935813104E+01 -0.15012341427E+01  0.14033785244E+02  0.51100000000E-03 0. -1.
        -11    1    3    3    0    0 -0.16875829299E+02  0.13207328610E+02 -0.16732465124E+02  0.27188279330E+02  0.51100000000E-03 0.  1.
         12    1    3    3    0    0  0.97877788878E+01  0.69492126493E+01  0.13519941264E+02  0.18079850215E+02  0.00000000000E+00 0. -1.
</event>
<event>
 7    1  0.5832130E-012  0.5930193E+02  0.7816164E-02  0.1266605E+00
        -11   -1    0    0    0    0  0.00000000000E+00  0.00000000000E+00  0.45593999997E+02  0.45594000000E+02  0.51100000000E-03 0.  1.
         11   -1    0    0    0    0 -0.00000000000E+00 -0.00000000000E+00 -0.45593999997E+02  0.45594000000E+02  0.51100000000E-03 0. -1.
    9900012    2    1    2    0    0  0.26769906464E+02 -0.11559442769E+02 -0.12902426614E+02  0.59301933736E+02  0.49999981231E+02 0.  0.
         12    1    1    2    0    0 -0.26769906464E+02  0.11559442769E+02  0.12902426614E+02  0.31886066264E+02  0.00000000000E+00 0. -1.
         11    1    3    3    0    0  0.14489497500E+01 -0.57371857926E+01 -0.64824770121E+01  0.87770874822E+01  0.51100000000E-03 0. -1.
        -11    1    3    3    0    0  0.18925549452E+02 -0.24446769639E+01 -0.24498262228E+02  0.31053465507E+02  0.51100000000E-03 0.  1.
         12    1    3    3    0    0  0.63954072621E+01 -0.33775800126E+01  0.18078312626E+02  0.19471380747E+02  0.00000000000E+00 0. -1.
</event>
<event>
 7    1  0.5832130E-012  0.5930193E+02  0.7816164E-02  0.1266605E+00
        -11   -1    0    0    0    0  0.00000000000E+00  0.00000000000E+00  0.45593999997E+02  0.45594000000E+02  0.51100000000E-03 0.  1.
         11   -1    0    0    0    0 -0.00000000000E+00 -0.00000000000E+00 -0.45593999997E+02  0.45594000000E+02  0.51100000000E-03 0. -1.
    9900012    2    1    2    0    0  0.76427769459E+01  0.30916319999E+02 -0.15781563737E+01  0.59301930012E+02  0.49999974439E+02 0.  0.
         12    1    1    2    0    0 -0.76427769459E+01 -0.30916319999E+02  0.15781563737E+01  0.31886069988E+02  0.00000000000E+00 0. -1.
         11    1    3    3    0    0 -0.61451626453E+01  0.77238397668E+01 -0.28489336352E+01  0.10273127460E+02  0.51100000000E-03 0.  1.
        -11    1    3    3    0    0 -0.96444566062E+01 -0.28524636692E+00 -0.10095638890E+02  0.13964914378E+02  0.51100000000E-03 0. -1.
        -12    1    3    3    0    0  0.23432396197E+02  0.23477726599E+02  0.11366416152E+02  0.35063888175E+02  0.00000000000E+00 0.  1.
</event>
<event>
 7    1  0.5832130E-012  0.5930193E+02  0.7816164E-02  0.1266605E+00
        -11   -1    0    0    0    0  0.00000000000E+00  0.00000000000E+00  0.45593999997E+02  0.45594000000E+02  0.51100000000E-03 0. -1.
         11   -1    0    0    0    0 -0.00000000000E+00 -0.00000000000E+00 -0.45593999997E+02  0.45594000000E+02  0.51100000000E-03 0.  1.
    9900012    2    1    2    0    0  0.26321849514E+02 -0.54116057224E+01  0.17163812891E+02  0.59301926061E+02  0.49999967232E+02 0.  0.
         12    1    1    2    0    0 -0.26321849514E+02  0.54116057224E+01 -0.17163812891E+02  0.31886073939E+02  0.00000000000E+00 0. -1.
         11    1    3    3    0    0  0.16603794151E+02 -0.10026326790E+02  0.33014319588E+02  0.38290449295E+02  0.51100000000E-03 0. -1.
        -11    1    3    3    0    0  0.42309740768E+01  0.66090331024E+01 -0.77767579094E+01  0.11048005432E+02  0.51100000000E-03 0.  1.
        -12    1    3    3    0    0  0.54870812861E+01 -0.19943120342E+01 -0.80737487874E+01  0.99634713334E+01  0.00000000000E+00 0.  1.
</event>
<event>
 7    1  0.5832130E-012  0.5930195E+02  0.7816164E-02  0.1266605E+00
        -11   -1    0    0    0    0  0.00000000000E+00  0.00000000000E+00  0.45593999997E+02  0.45594000000E+02  0.51100000000E-03 0. -1.
         11   -1    0    0    0    0 -0.00000000000E+00 -0.00000000000E+00 -0.45593999997E+02  0.45594000000E+02  0.51100000000E-03 0.  1.
    9900012    2    1    2    0    0 -0.24941400203E+00 -0.25069107915E+01 -0.31786372628E+02  0.59301948286E+02  0.50000007767E+02 0.  0.
         12    1    1    2    0    0  0.24941400203E+00  0.25069107915E+01  0.31786372628E+02  0.31886051714E+02  0.00000000000E+00 0. -1.
         11    1    3    3    0    0  0.76740811318E+01  0.91442680915E+01  0.28756569181E+01  0.12279192283E+02  0.51100000000E-03 0. -1.
        -11    1    3    3    0    0  0.10197697167E+02 -0.78625306917E-01 -0.96588441938E+01  0.14046084182E+02  0.51100000000E-03 0.  1.
        -12    1    3    3    0    0 -0.18121192300E+02 -0.11572553576E+02 -0.25003185352E+02  0.32976671821E+02  0.00000000000E+00 0.  1.
</event>
<event>
 7    1  0.5832130E-012  0.5930183E+02  0.7816164E-02  0.1266605E+00
        -11   -1    0    0    0    0  0.00000000000E+00  0.00000000000E+00  0.45593999997E+02  0.45594000000E+02  0.51100000000E-03 0. -1.
         11   -1    0    0    0    0 -0.00000000000E+00 -0.00000000000E+00 -0.45593999997E+02  0.45594000000E+02  0.51100000000E-03 0.  1.
    9900012    2    1    2    0    0  0.25973862365E+02 -0.80263895512E+01  0.16663226450E+02  0.59301834173E+02  0.49999799651E+02 0.  0.
         12    1    1    2    0    0 -0.25973862365E+02  0.80263895512E+01 -0.16663226450E+02  0.31886165827E+02  0.00000000000E+00 0. -1.
         11    1    3    3    0    0  0.66729793714E+01  0.14218994094E+02 -0.92909550446E+00  0.15734410236E+02  0.51100000000E-03 0. -1.
        -11    1    3    3    0    0  0.21700733056E+02 -0.11216680947E+02  0.22652735728E+01  0.24532982111E+02  0.51100000000E-03 0.  1.
         12    1    3    3    0    0 -0.23998500625E+01 -0.11028702699E+02  0.15327048382E+02  0.19034441826E+02  0.00000000000E+00 0. -1.
</event>
<event>
 7    1  0.5832130E-012  0.5930192E+02  0.7816164E-02  0.1266605E+00
        -11   -1    0    0    0    0  0.00000000000E+00  0.00000000000E+00  0.45593999997E+02  0.45594000000E+02  0.51100000000E-03 0.  1.
         11   -1    0    0    0    0 -0.00000000000E+00 -0.00000000000E+00 -0.45593999997E+02  0.45594000000E+02  0.51100000000E-03 0. -1.
    9900012    2    1    2    0    0 -0.12722481996E+02 -0.10475738360E+02  0.27296877785E+02  0.59301918724E+02  0.49999953852E+02 0.  0.
         12    1    1    2    0    0  0.12722481996E+02  0.10475738360E+02 -0.27296877785E+02  0.31886081276E+02  0.00000000000E+00 0. -1.
         11    1    3    3    0    0 -0.79860721311E+01  0.24822735553E+01 -0.84860508038E+01  0.11914364800E+02  0.51100000000E-03 0. -1.
        -11    1    3    3    0    0 -0.69987936826E+00 -0.17641220897E+02  0.88404445852E+01  0.19744770614E+02  0.51100000000E-03 0.  1.
        -12    1    3    3    0    0 -0.40365304971E+01  0.46832089816E+01  0.26942484004E+02  0.27642783310E+02  0.00000000000E+00 0.  1.
</event>
<event>
 7    1  0.5832130E-012  0.5930190E+02  0.7816164E-02  0.1266605E+00
        -11   -1    0    0    0    0  0.00000000000E+00  0.00000000000E+00  0.45593999997E+02  0.45594000000E+02  0.51100000000E-03 0.  1.
         11   -1    0    0    0    0 -0.00000000000E+00 -0.00000000000E+00 -0.45593999997E+02  0.45594000000E+02  0.51100000000E-03 0. -1.
    9900012    2    1    2    0    0 -0.20222629276E+02  0.74314369277E+01  0.23506224850E+02  0.59301896501E+02  0.49999913322E+02 0.  0.
         12    1    1    2    0    0  0.20222629276E+02 -0.74314369277E+01 -0.23506224850E+02  0.31886103499E+02  0.00000000000E+00 0. -1.
         11    1    3    3    0    0 -0.10236666689E+02  0.64296437769E+00  0.23947435780E+02  0.26051534096E+02  0.51100000000E-03 0. -1.
        -11    1    3    3    0    0 -0.17279584659E+02 -0.12685346056E+00  0.89802395358E+01  0.19474209616E+02  0.51100000000E-03 0.  1.
         12    1    3    3    0    0  0.72936220723E+01  0.69153260106E+01 -0.94214504651E+01  0.13776152788E+02  0.00000000000E+00 0. -1.
</event>
<event>
 7    1  0.5832130E-012  0.5930197E+02  0.7816164E-02  0.1266605E+00
        -11   -1    0    0    0    0  0.00000000000E+00  0.00000000000E+00  0.45593999997E+02  0.45594000000E+02  0.51100000000E-03 0.  1.
         11   -1    0    0    0    0 -0.00000000000E+00 -0.00000000000E+00 -0.45593999997E+02  0.45594000000E+02  0.51100000000E-03 0. -1.
    9900012    2    1    2    0    0 -0.11946304813E+02 -0.28376903760E+02  0.82919097001E+01  0.59301974344E+02  0.50000055289E+02 0.  0.
         12    1    1    2    0    0  0.11946304813E+02  0.28376903760E+02 -0.82919097001E+01  0.31886025656E+02  0.00000000000E+00 0. -1.
         11    1    3    3    0    0 -0.41925854718E+01  0.32880149075E+00  0.88875264363E+01  0.98322942274E+01  0.51100000000E-03 0. -1.
        -11    1    3    3    0    0 -0.15914432154E+02  0.25509240183E+01 -0.49793264759E+01  0.16869204384E+02  0.51100000000E-03 0.  1.
        -12    1    3    3    0    0  0.81607128132E+01 -0.31256629269E+02  0.43837097398E+01  0.32600475732E+02  0.00000000000E+00 0.  1.
</event>
<event>
 7    1  0.5832130E-012  0.5930195E+02  0.7816164E-02  0.1266605E+00
        -11   -1    0    0    0    0  0.00000000000E+00  0.00000000000E+00  0.45593999997E+02  0.45594000000E+02  0.51100000000E-03 0.  1.
         11   -1    0    0    0    0 -0.00000000000E+00 -0.00000000000E+00 -0.45593999997E+02  0.45594000000E+02  0.51100000000E-03 0. -1.
    9900012    2    1    2    0    0 -0.23968709179E+02  0.71041837597E+01  0.19792721067E+02  0.59301948914E+02  0.50000008911E+02 0.  0.
         12    1    1    2    0    0  0.23968709179E+02 -0.71041837597E+01 -0.19792721067E+02  0.31886051086E+02  0.00000000000E+00 0. -1.
         11    1    3    3    0    0 -0.15599190796E+01  0.50021979972E+01  0.13109565406E+01  0.54012905542E+01  0.51100000000E-03 0.  1.
        -11    1    3    3    0    0  0.13075173537E+02  0.15493698552E+01  0.12021626116E+02  0.17829195290E+02  0.51100000000E-03 0. -1.
        -12    1    3    3    0    0 -0.35483963637E+02  0.55261590722E+00  0.64601384107E+01  0.36071463070E+02  0.00000000000E+00 0.  1.
</event>
<event>
 7    1  0.5832130E-012  0.5930196E+02  0.7816164E-02  0.1266605E+00
        -11   -1    0    0    0    0  0.00000000000E+00  0.00000000000E+00  0.45593999997E+02  0.45594000000E+02  0.51100000000E-03 0.  1.
         11   -1    0    0    0    0 -0.00000000000E+00 -0.00000000000E+00 -0.45593999997E+02  0.45594000000E+02  0.51100000000E-03 0. -1.
    9900012    2    1    2    0    0  0.25749804104E+02 -0.11529352483E+02  0.14857363253E+02  0.59301958808E+02  0.50000026956E+02 0.  0.
         12    1    1    2    0    0 -0.25749804104E+02  0.11529352483E+02 -0.14857363253E+02  0.31886041192E+02  0.00000000000E+00 0. -1.
         11    1    3    3    0    0 -0.44054791055E+01  0.12256743855E+02  0.35839583454E+01  0.13508544472E+02  0.51100000000E-03 0. -1.
        -11    1    3    3    0    0  0.27204168977E+01 -0.57759540577E+01  0.11295687014E+02  0.12975163149E+02  0.51100000000E-03 0.  1.
         12    1    3    3    0    0  0.27434866312E+02 -0.18010142280E+02 -0.22282106427E-01  0.32818251187E+02  0.00000000000E+00 0. -1.
</event>
<event>
 7    1  0.5832130E-012  0.5930193E+02  0.7816164E-02  0.1266605E+00
        -11   -1    0    0    0    0  0.00000000000E+00  0.00000000000E+00  0.45593999997E+02  0.45594000000E+02  0.51100000000E-03 0.  1.
         11   -1    0    0    0    0 -0.00000000000E+00 -0.00000000000E+00 -0.45593999997E+02  0.45594000000E+02  0.51100000000E-03 0. -1.
    9900012    2    1    2    0    0  0.25472630906E+02  0.19177031641E+02 -0.32828652931E+00  0.59301933453E+02  0.49999980714E+02 0.  0.
         12    1    1    2    0    0 -0.25472630906E+02 -0.19177031641E+02  0.32828652931E+00  0.31886066547E+02  0.00000000000E+00 0. -1.
         11    1    3    3    0    0  0.14978179722E+02 -0.25038615839E+01 -0.74326582847E+01  0.16907383004E+02  0.51100000000E-03 0. -1.
        -11    1    3    3    0    0  0.14917307246E+02  0.61845945565E+01  0.17029147398E+02  0.23468428296E+02  0.51100000000E-03 0.  1.
         12    1    3    3    0    0 -0.44228560626E+01  0.15496298668E+02 -0.99247756429E+01  0.18926122153E+02  0.00000000000E+00 0. -1.
</event>
<event>
 7    1  0.5832130E-012  0.5930193E+02  0.7816164E-02  0.1266605E+00
        -11   -1    0    0    0    0  0.00000000000E+00  0.00000000000E+00  0.45593999997E+02  0.45594000000E+02  0.51100000000E-03 0.  1.
         11   -1    0    0    0    0 -0.00000000000E+00 -0.00000000000E+00 -0.45593999997E+02  0.45594000000E+02  0.51100000000E-03 0. -1.
    9900012    2    1    2    0    0 -0.11858804098E+02  0.94019475967E+01  0.28065881620E+02  0.59301928364E+02  0.49999971434E+02 0.  0.
         12    1    1    2    0    0  0.11858804098E+02 -0.94019475967E+01 -0.28065881620E+02  0.31886071636E+02  0.00000000000E+00 0. -1.
         11    1    3    3    0    0  0.55081430870E+01 -0.12815836457E+02  0.12822343339E+02  0.18947237089E+02  0.51100000000E-03 0. -1.
        -11    1    3    3    0    0  0.21421134451E+01  0.10873750094E+02 -0.28341826858E+01  0.11439391718E+02  0.51100000000E-03 0.  1.
        -12    1    3    3    0    0 -0.19509060630E+02  0.11344033960E+02  0.18077720967E+02  0.28915299558E+02  0.00000000000E+00 0.  1.
</event>
<event>
 7    1  0.5832130E-012  0.5930197E+02  0.7816164E-02  0.1266605E+00
        -11   -1    0    0    0    0  0.00000000000E+00  0.00000000000E+00  0.45593999997E+02  0.45594000000E+02  0.51100000000E-03 0. -1.
         11   -1    0    0    0    0 -0.00000000000E+00 -0.00000000000E+00 -0.45593999997E+02  0.45594000000E+02  0.51100000000E-03 0.  1.
    9900012    2    1    2    0    0 -0.11375848876E+02 -0.26043390870E+02 -0.14458590138E+02  0.59301968976E+02  0.50000045500E+02 0.  0.
         12    1    1    2    0    0  0.11375848876E+02  0.26043390870E+02  0.14458590138E+02  0.31886031024E+02  0.00000000000E+00 0. -1.
         11    1    3    3    0    0 -0.11663913557E+01 -0.17802691115E+01  0.12936933707E+02  0.13110838299E+02  0.51100000000E-03 0. -1.
        -11    1    3    3    0    0  0.84137391545E+01 -0.11381246572E+02 -0.73464496581E+01  0.15946601611E+02  0.51100000000E-03 0.  1.
        -12    1    3    3    0    0 -0.18623196675E+02 -0.12881875187E+02 -0.20049074187E+02  0.30244529066E+02  0.00000000000E+00 0.  1.
</event>
<event>
 7    1  0.5832130E-012  0.5930193E+02  0.7816164E-02  0.1266605E+00
        -11   -1    0    0    0    0  0.00000000000E+00  0.00000000000E+00  0.45593999997E+02  0.45594000000E+02  0.51100000000E-03 0.  1.
         11   -1    0    0    0    0 -0.00000000000E+00 -0.00000000000E+00 -0.45593999997E+02  0.45594000000E+02  0.51100000000E-03 0. -1.
    9900012    2    1    2    0    0  0.47791998993E+01  0.30119075996E+02 -0.93124579118E+01  0.59301931523E+02  0.49999977195E+02 0.  0.
         12    1    1    2    0    0 -0.47791998993E+01 -0.30119075996E+02  0.93124579118E+01  0.31886068477E+02  0.00000000000E+00 0. -1.
         11    1    3    3    0    0  0.90027197034E+01  0.10061563531E+02 -0.90164285063E+01  0.16235147244E+02  0.51100000000E-03 0. -1.
        -11    1    3    3    0    0  0.11530331043E+02  0.24173744316E+02 -0.11452309376E+00  0.26783046205E+02  0.51100000000E-03 0.  1.
         12    1    3    3    0    0 -0.15753850847E+02 -0.41162318506E+01 -0.18150631173E+00  0.16283738075E+02  0.00000000000E+00 0. -1.
</event>
<event>
 7    1  0.5832130E-012  0.5930194E+02  0.7816164E-02  0.1266605E+00
        -11   -1    0    0    0    0  0.00000000000E+00  0.00000000000E+00  0.45593999997E+02  0.45594000000E+02  0.51100000000E-03 0.  1.
         11   -1    0    0    0    0 -0.00000000000E+00 -0.00000000000E+00 -0.45593999997E+02  0.45594000000E+02  0.51100000000E-03 0. -1.
    9900012    2    1    2    0    0 -0.31186858766E+02 -0.12088825404E+01 -0.65298885959E+01  0.59301937186E+02  0.49999987522E+02 0.  0.
         12    1    1    2    0    0  0.31186858766E+02  0.12088825404E+01  0.65298885959E+01  0.31886062814E+02  0.00000000000E+00 0. -1.
         11    1    3    3    0    0 -0.21895339210E+02  0.70103267041E+01  0.11350384936E+02  0.25639457835E+02  0.51100000000E-03 0. -1.
        -11    1    3    3    0    0 -0.52112278882E+01  0.85982359751E+01 -0.21613707351E+01  0.10283874839E+02  0.51100000000E-03 0.  1.
         12    1    3    3    0    0 -0.40802916683E+01 -0.16817445220E+02 -0.15718902797E+02  0.23378604512E+02  0.00000000000E+00 0. -1.
</event>
<event>
 7    1  0.5832130E-012  0.5930193E+02  0.7816164E-02  0.1266605E+00
        -11   -1    0    0    0    0  0.00000000000E+00  0.00000000000E+00  0.45593999997E+02  0.45594000000E+02  0.51100000000E-03 0.  1.
         11   -1    0    0    0    0 -0.00000000000E+00 -0.00000000000E+00 -0.45593999997E+02  0.45594000000E+02  0.51100000000E-03 0. -1.
    9900012    2    1    2    0    0  0.16080622416E+02 -0.10033110337E+02  0.25641214517E+02  0.59301927771E+02  0.49999970351E+02 0.  0.
         12    1    1    2    0    0 -0.16080622416E+02  0.10033110337E+02 -0.25641214517E+02  0.31886072229E+02  0.00000000000E+00 0. -1.
         11    1    3    3    0    0  0.66902608901E+01 -0.18219024938E+02  0.65250929440E+01  0.20476066484E+02  0.51100000000E-03 0. -1.
        -11    1    3    3    0    0  0.31422645327E+00 -0.97191032603E+01  0.15693730044E+02  0.18462201099E+02  0.51100000000E-03 0.  1.
         12    1    3    3    0    0  0.90761350725E+01  0.17905017862E+02  0.34223915286E+01  0.20363660188E+02  0.00000000000E+00 0. -1.
</event>
<event>
 7    1  0.5832130E-012  0.5930195E+02  0.7816164E-02  0.1266605E+00
        -11   -1    0    0    0    0  0.00000000000E+00  0.00000000000E+00  0.45593999997E+02  0.45594000000E+02  0.51100000000E-03 0. -1.
         11   -1    0    0    0    0 -0.00000000000E+00 -0.00000000000E+00 -0.45593999997E+02  0.45594000000E+02  0.51100000000E-03 0.  1.
    9900012    2    1    2    0    0  0.24012475803E+02  0.19120987211E+02  0.86318439780E+01  0.59301954830E+02  0.50000019701E+02 0.  0.
         12    1    1    2    0    0 -0.24012475803E+02 -0.19120987211E+02 -0.86318439780E+01  0.31886045170E+02  0.00000000000E+00 0. -1.
         11    1    3    3    0    0  0.11477242925E+02  0.27747988376E+01  0.25330009739E+02  0.27947021441E+02  0.51100000000E-03 0. -1.
        -11    1    3    3    0    0  0.41215339798E+00  0.77084238229E+01  0.14796626675E+01  0.78599662930E+01  0.51100000000E-03 0.  1.
        -12    1    3    3    0    0  0.12123079479E+02  0.86377645506E+01 -0.18177828429E+02  0.23494967097E+02  0.00000000000E+00 0.  1.
</event>
<event>
 7    1  0.5832130E-012  0.5930195E+02  0.7816164E-02  0.1266605E+00
        -11   -1    0    0    0    0  0.00000000000E+00  0.00000000000E+00  0.45593999997E+02  0.45594000000E+02  0.51100000000E-03 0. -1.
         11   -1    0    0    0    0 -0.00000000000E+00 -0.00000000000E+00 -0.45593999997E+02  0.45594000000E+02  0.51100000000E-03 0.  1.
    9900012    2    1    2    0    0 -0.96049609099E+01  0.15107461977E+02 -0.26386155951E+02  0.59301954348E+02  0.50000018822E+02 0.  0.
         12    1    1    2    0    0  0.96049609099E+01 -0.15107461977E+02  0.26386155951E+02  0.31886045652E+02  0.00000000000E+00 0. -1.
         11    1    3    3    0    0  0.77835230713E+01 -0.54863652107E+01  0.33695800214E+01  0.10101361513E+02  0.51100000000E-03 0.  1.
        -11    1    3    3    0    0 -0.18966554766E+02  0.87436983518E+01 -0.46536580090E+01  0.21397172563E+02  0.51100000000E-03 0. -1.
        -12    1    3    3    0    0  0.15780707845E+01  0.11850128836E+02 -0.25102077963E+02  0.27803420273E+02  0.00000000000E+00 0.  1.
</event>
<event>
 7    1  0.5832130E-012  0.5930193E+02  0.7816164E-02  0.1266605E+00
        -11   -1    0    0    0    0  0.00000000000E+00  0.00000000000E+00  0.45593999997E+02  0.45594000000E+02  0.51100000000E-03 0. -1.
         11   -1    0    0    0    0 -0.00000000000E+00 -0.00000000000E+00 -0.45593999997E+02  0.45594000000E+02  0.51100000000E-03 0.  1.
    9900012    2    1    2    0    0  0.96329772602E+01 -0.29004381331E+02 -0.90924798598E+01  0.59301928161E+02  0.49999971064E+02 0.  0.
         12    1    1    2    0    0 -0.96329772602E+01  0.29004381331E+02  0.90924798598E+01  0.31886071839E+02  0.00000000000E+00 0. -1.
         11    1    3    3    0    0 -0.38133283909E+01  0.45674444760E+01  0.63409893538E+01  0.86954682855E+01  0.51100000000E-03 0. -1.
        -11    1    3    3    0    0  0.42693444180E+01 -0.15661601481E+02 -0.23802687513E+02  0.28811126251E+02  0.51100000000E-03 0.  1.
         12    1    3    3    0    0  0.91769612332E+01 -0.17910224326E+02  0.83692182998E+01  0.21795333625E+02  0.00000000000E+00 0. -1.
</event>
<event>
 7    1  0.5832130E-012  0.5930196E+02  0.7816164E-02  0.1266605E+00
        -11   -1    0    0    0    0  0.00000000000E+00  0.00000000000E+00  0.45593999997E+02  0.45594000000E+02  0.51100000000E-03 0. -1.
         11   -1    0    0    0    0 -0.00000000000E+00 -0.00000000000E+00 -0.45593999997E+02  0.45594000000E+02  0.51100000000E-03 0.  1.
    9900012    2    1    2    0    0 -0.59653999530E+01 -0.60304269588E+01 -0.30737074298E+02  0.59301956309E+02  0.50000022398E+02 0.  0.
         12    1    1    2    0    0  0.59653999530E+01  0.60304269588E+01  0.30737074298E+02  0.31886043691E+02  0.00000000000E+00 0. -1.
         11    1    3    3    0    0  0.15160151399E+02 -0.52194862663E+01  0.41965429106E+01  0.16573599488E+02  0.51100000000E-03 0. -1.
        -11    1    3    3    0    0 -0.59821418133E+01 -0.48387857167E+01 -0.57550817195E+01  0.96083731061E+01  0.51100000000E-03 0.  1.
        -12    1    3    3    0    0 -0.15143409539E+02  0.40278450242E+01 -0.29178535489E+02  0.33119983715E+02  0.00000000000E+00 0.  1.
</event>
<event>
 7    1  0.5832130E-012  0.5930192E+02  0.7816164E-02  0.1266605E+00
        -11   -1    0    0    0    0  0.00000000000E+00  0.00000000000E+00  0.45593999997E+02  0.45594000000E+02  0.51100000000E-03 0. -1.
         11   -1    0    0    0    0 -0.00000000000E+00 -0.00000000000E+00 -0.45593999997E+02  0.45594000000E+02  0.51100000000E-03 0.  1.
    9900012    2    1    2    0    0  0.14494173100E+02  0.22175943232E+02 -0.17744530320E+02  0.59301923597E+02  0.49999962740E+02 0.  0.
         12    1    1    2    0    0 -0.14494173100E+02 -0.22175943232E+02  0.17744530320E+02  0.31886076403E+02  0.00000000000E+00 0. -1.
         11    1    3    3    0    0 -0.12346442701E+02  0.88042337625E+00 -0.48975743579E+01  0.13311499823E+02  0.51100000000E-03 0. -1.
        -11    1    3    3    0    0  0.10814864808E+01 -0.39439835387E+01  0.44069567159E+01  0.60121449515E+01  0.51100000000E-03 0.  1.
        -12    1    3    3    0    0  0.25759129320E+02  0.25239503394E+02 -0.17253912678E+02  0.39978278823E+02  0.00000000000E+00 0.  1.
</event>
<event>
 7    1  0.5832130E-012  0.5930195E+02  0.7816164E-02  0.1266605E+00
        -11   -1    0    0    0    0  0.00000000000E+00  0.00000000000E+00  0.45593999997E+02  0.45594000000E+02  0.51100000000E-03 0.  1.
         11   -1    0    0    0    0 -0.00000000000E+00 -0.00000000000E+00 -0.45593999997E+02  0.45594000000E+02  0.51100000000E-03 0. -1.
    9900012    2    1    2    0    0 -0.29201009980E+02 -0.70931829618E+00  0.12787420012E+02  0.59301949337E+02  0.50000009683E+02 0.  0.
         12    1    1    2    0    0  0.29201009980E+02  0.70931829618E+00 -0.12787420012E+02  0.31886050663E+02  0.00000000000E+00 0. -1.
         11    1    3    3    0    0 -0.11332080621E+02  0.55186762232E+01  0.11060567076E+02  0.16769257072E+02  0.51100000000E-03 0. -1.
        -11    1    3    3    0    0 -0.16684136784E+02 -0.12385210464E+02  0.16468166307E+02  0.26513286485E+02  0.51100000000E-03 0.  1.
         12    1    3    3    0    0 -0.11847925753E+01  0.61572159449E+01 -0.14741313371E+02  0.16019405780E+02  0.00000000000E+00 0. -1.
</event>
<event>
 7    1  0.5832130E-012  0.5930193E+02  0.7816164E-02  0.1266605E+00
        -11   -1    0    0    0    0  0.00000000000E+00  0.00000000000E+00  0.45593999997E+02  0.45594000000E+02  0.51100000000E-03 0. -1.
         11   -1    0    0    0    0 -0.00000000000E+00 -0.00000000000E+00 -0.45593999997E+02  0.45594000000E+02  0.51100000000E-03 0.  1.
    9900012    2    1    2    0    0 -0.22712723751E+02 -0.29570936677E+01  0.22183533547E+02  0.59301931196E+02  0.49999976598E+02 0.  0.
         12    1    1    2    0    0  0.22712723751E+02  0.29570936677E+01 -0.22183533547E+02  0.31886068804E+02  0.00000000000E+00 0. -1.
         11    1    3    3    0    0  0.74934104913E+01  0.11890678784E+02  0.97052654390E+00  0.14088341448E+02  0.51100000000E-03 0.  1.
        -11    1    3    3    0    0  0.12995708472E+01 -0.25154102409E+01  0.86856482876E+01  0.91354616470E+01  0.51100000000E-03 0. -1.
        -12    1    3    3    0    0 -0.31505705089E+02 -0.12332362210E+02  0.12527358716E+02  0.36078128101E+02  0.00000000000E+00 0.  1.
</event>
<event>
 7    1  0.5832130E-012  0.5930196E+02  0.7816164E-02  0.1266605E+00
        -11   -1    0    0    0    0  0.00000000000E+00  0.00000000000E+00  0.45593999997E+02  0.45594000000E+02  0.51100000000E-03 0. -1.
         11   -1    0    0    0    0 -0.00000000000E+00 -0.00000000000E+00 -0.45593999997E+02  0.45594000000E+02  0.51100000000E-03 0.  1.
    9900012    2    1    2    0    0  0.23180028473E+02 -0.18303528656E+02  0.12016106303E+02  0.59301957726E+02  0.50000024982E+02 0.  0.
         12    1    1    2    0    0 -0.23180028473E+02  0.18303528656E+02 -0.12016106303E+02  0.31886042274E+02  0.00000000000E+00 0. -1.
         11    1    3    3    0    0  0.68937103984E+01 -0.98840424931E+01 -0.88343463633E+01  0.14941995014E+02  0.51100000000E-03 0. -1.
        -11    1    3    3    0    0 -0.36729812680E+01 -0.16566376861E+02  0.52943634750E+01  0.17775430194E+02  0.51100000000E-03 0.  1.
         12    1    3    3    0    0  0.19959299342E+02  0.81468906988E+01  0.15556089191E+02  0.26584532518E+02  0.00000000000E+00 0. -1.
</event>
<event>
 7    1  0.5832130E-012  0.5930195E+02  0.7816164E-02  0.1266605E+00
        -11   -1    0    0    0    0  0.00000000000E+00  0.00000000000E+00  0.45593999997E+02  0.45594000000E+02  0.51100000000E-03 0.  1.
         11   -1    0    0    0    0 -0.00000000000E+00 -0.00000000000E+00 -0.45593999997E+02  0.45594000000E+02  0.51100000000E-03 0. -1.
    9900012    2    1    2    0    0 -0.12394760349E+02  0.27407154332E+02 -0.10580075601E+02  0.59301949877E+02  0.50000010668E+02 0.  0.
         12    1    1    2    0    0  0.12394760349E+02 -0.27407154332E+02  0.10580075601E+02  0.31886050123E+02  0.00000000000E+00 0. -1.
         11    1    3    3    0    0  0.49515231094E+01  0.30350255921E+01 -0.19220758419E+02  0.20079006846E+02  0.51100000000E-03 0. -1.
        -11    1    3    3    0    0  0.31878758014E+01  0.81957462912E+01 -0.45956099424E+01  0.99223203133E+01  0.51100000000E-03 0.  1.
         12    1    3    3    0    0 -0.20534159260E+02  0.16176382449E+02  0.13236292761E+02  0.29300622718E+02  0.00000000000E+00 0. -1.
</event>
<event>
 7    1  0.5832130E-012  0.5930194E+02  0.7816164E-02  0.1266605E+00
        -11   -1    0    0    0    0  0.00000000000E+00  0.00000000000E+00  0.45593999997E+02  0.45594000000E+02  0.51100000000E-03 0.  1.
         11   -1    0    0    0    0 -0.00000000000E+00 -0.00000000000E+00 -0.45593999997E+02  0.45594000000E+02  0.51100000000E-03 0. -1.
    9900012    2    1    2    0    0  0.10525148873E+01  0.24797755973E+02  0.20017098515E+02  0.59301941576E+02  0.49999995528E+02 0.  0.
         12    1    1    2    0    0 -0.10525148873E+01 -0.24797755973E+02 -0.20017098515E+02  0.31886058424E+02  0.00000000000E+00 0. -1.
         11    1    3    3    0    0 -0.88263240891E+01 -0.19539320170E+01  0.87629259370E+01  0.12590103990E+02  0.51100000000E-03 0. -1.
        -11    1    3    3    0    0 -0.10171392550E+02  0.22389008476E+02  0.84462496341E+01  0.26001231895E+02  0.51100000000E-03 0.  1.
         12    1    3    3    0    0  0.20050231526E+02  0.43626795144E+01  0.28079229435E+01  0.20710605690E+02  0.00000000000E+00 0. -1.
</event>
<event>
 7    1  0.5832130E-012  0.5930200E+02  0.7816164E-02  0.1266605E+00
        -11   -1    0    0    0    0  0.00000000000E+00  0.00000000000E+00  0.45593999997E+02  0.45594000000E+02  0.51100000000E-03 0. -1.
         11   -1    0    0    0    0 -0.00000000000E+00 -0.00000000000E+00 -0.45593999997E+02  0.45594000000E+02  0.51100000000E-03 0.  1.
    9900012    2    1    2    0    0  0.44779118568E+01 -0.28010979517E+02 -0.14561950951E+02  0.59301998626E+02  0.50000099574E+02 0.  0.
         12    1    1    2    0    0 -0.44779118568E+01  0.28010979517E+02  0.14561950951E+02  0.31886001374E+02  0.00000000000E+00 0. -1.
         11    1    3    3    0    0  0.14110415757E+01 -0.13772443354E+01  0.79581897596E+00  0.21263039273E+01  0.51100000000E-03 0. -1.
        -11    1    3    3    0    0  0.11854478877E+02 -0.98479381244E+01 -0.29667912029E+02  0.33431954163E+02  0.51100000000E-03 0.  1.
         12    1    3    3    0    0 -0.87876085962E+01 -0.16785797057E+02  0.14310142101E+02  0.23743740536E+02  0.00000000000E+00 0. -1.
</event>
<event>
 7    1  0.5832130E-012  0.5930195E+02  0.7816164E-02  0.1266605E+00
        -11   -1    0    0    0    0  0.00000000000E+00  0.00000000000E+00  0.45593999997E+02  0.45594000000E+02  0.51100000000E-03 0.  1.
         11   -1    0    0    0    0 -0.00000000000E+00 -0.00000000000E+00 -0.45593999997E+02  0.45594000000E+02  0.51100000000E-03 0. -1.
    9900012    2    1    2    0    0 -0.28421114105E+02 -0.13675319320E+02 -0.46846529871E+01  0.59301951969E+02  0.50000014482E+02 0.  0.
         12    1    1    2    0    0  0.28421114105E+02  0.13675319320E+02  0.46846529871E+01  0.31886048031E+02  0.00000000000E+00 0. -1.
         11    1    3    3    0    0 -0.24932729520E+02 -0.93117905951E+01  0.55383421344E+01  0.27184989963E+02  0.51100000000E-03 0.  1.
        -11    1    3    3    0    0 -0.57165416130E+01  0.24914381183E+01  0.93614215369E+01  0.11248214319E+02  0.51100000000E-03 0. -1.
         12    1    3    3    0    0  0.22281570286E+01 -0.68549668436E+01 -0.19584416658E+02  0.20868747687E+02  0.00000000000E+00 0. -1.
</event>
<event>
 7    1  0.5832130E-012  0.5930193E+02  0.7816164E-02  0.1266605E+00
        -11   -1    0    0    0    0  0.00000000000E+00  0.00000000000E+00  0.45593999997E+02  0.45594000000E+02  0.51100000000E-03 0. -1.
         11   -1    0    0    0    0 -0.00000000000E+00 -0.00000000000E+00 -0.45593999997E+02  0.45594000000E+02  0.51100000000E-03 0.  1.
    9900012    2    1    2    0    0  0.29845327072E+02  0.75070433079E+01 -0.83439791964E+01  0.59301933512E+02  0.49999980822E+02 0.  0.
         12    1    1    2    0    0 -0.29845327072E+02 -0.75070433079E+01  0.83439791964E+01  0.31886066488E+02  0.00000000000E+00 0. -1.
         11    1    3    3    0    0  0.23382614792E+01 -0.11856979024E+02  0.40584887391E+01  0.12748597939E+02  0.51100000000E-03 0. -1.
        -11    1    3    3    0    0 -0.15237505474E+01  0.10487337585E+02  0.48294224570E+01  0.11646003043E+02  0.51100000000E-03 0.  1.
        -12    1    3    3    0    0  0.29030816140E+02  0.88766847469E+01 -0.17231890393E+02  0.34907332530E+02  0.00000000000E+00 0.  1.
</event>
<event>
 7    1  0.5832130E-012  0.5930194E+02  0.7816164E-02  0.1266605E+00
        -11   -1    0    0    0    0  0.00000000000E+00  0.00000000000E+00  0.45593999997E+02  0.45594000000E+02  0.51100000000E-03 0.  1.
         11   -1    0    0    0    0 -0.00000000000E+00 -0.00000000000E+00 -0.45593999997E+02  0.45594000000E+02  0.51100000000E-03 0. -1.
    9900012    2    1    2    0    0 -0.86230269088E+01 -0.13217843715E+02  0.27706549156E+02  0.59301939539E+02  0.49999991814E+02 0.  0.
         12    1    1    2    0    0  0.86230269088E+01  0.13217843715E+02 -0.27706549156E+02  0.31886060461E+02  0.00000000000E+00 0. -1.
         11    1    3    3    0    0  0.14327467441E+02 -0.36275874583E+01  0.42101508027E+01  0.15367533441E+02  0.51100000000E-03 0. -1.
        -11    1    3    3    0    0 -0.66289188733E+01  0.94213170460E+01  0.40285600567E+01  0.12203814023E+02  0.51100000000E-03 0.  1.
         12    1    3    3    0    0 -0.16321575476E+02 -0.19011573303E+02  0.19467838297E+02  0.31730592075E+02  0.00000000000E+00 0. -1.
</event>
<event>
 7    1  0.5832130E-012  0.5930192E+02  0.7816164E-02  0.1266605E+00
        -11   -1    0    0    0    0  0.00000000000E+00  0.00000000000E+00  0.45593999997E+02  0.45594000000E+02  0.51100000000E-03 0. -1.
         11   -1    0    0    0    0 -0.00000000000E+00 -0.00000000000E+00 -0.45593999997E+02  0.45594000000E+02  0.51100000000E-03 0.  1.
    9900012    2    1    2    0    0  0.24475325917E+02 -0.19153093826E+02 -0.71301640478E+01  0.59301924337E+02  0.49999964089E+02 0.  0.
         12    1    1    2    0    0 -0.24475325917E+02  0.19153093826E+02  0.71301640478E+01  0.31886075663E+02  0.00000000000E+00 0. -1.
         11    1    3    3    0    0  0.11184021717E+02 -0.12571957114E+02  0.63207848190E+01  0.17974670190E+02  0.51100000000E-03 0. -1.
        -11    1    3    3    0    0  0.18425521234E+02  0.59630948203E+01 -0.18577205825E+02  0.26836000244E+02  0.51100000000E-03 0.  1.
         12    1    3    3    0    0 -0.51342170346E+01 -0.12544231532E+02  0.51262569578E+01  0.14491253903E+02  0.00000000000E+00 0. -1.
</event>
<event>
 7    1  0.5832130E-012  0.5930196E+02  0.7816164E-02  0.1266605E+00
        -11   -1    0    0    0    0  0.00000000000E+00  0.00000000000E+00  0.45593999997E+02  0.45594000000E+02  0.51100000000E-03 0. -1.
         11   -1    0    0    0    0 -0.00000000000E+00 -0.00000000000E+00 -0.45593999997E+02  0.45594000000E+02  0.51100000000E-03 0.  1.
    9900012    2    1    2    0    0 -0.33957919628E+01 -0.29922617550E+01 -0.31563181542E+02  0.59301961323E+02  0.50000031542E+02 0.  0.
         12    1    1    2    0    0  0.33957919628E+01  0.29922617550E+01  0.31563181542E+02  0.31886038677E+02  0.00000000000E+00 0. -1.
         11    1    3    3    0    0 -0.83993169025E+01 -0.16168196446E+02 -0.20549974868E+02  0.27463804690E+02  0.51100000000E-03 0. -1.
        -11    1    3    3    0    0 -0.22645783910E+01 -0.66120687086E-01  0.75632411729E+01  0.78952710235E+01  0.51100000000E-03 0.  1.
        -12    1    3    3    0    0  0.72681033306E+01  0.13242055378E+02 -0.18576447847E+02  0.23942885609E+02  0.00000000000E+00 0.  1.
</event>
<event>
 7    1  0.5832130E-012  0.5930194E+02  0.7816164E-02  0.1266605E+00
        -11   -1    0    0    0    0  0.00000000000E+00  0.00000000000E+00  0.45593999997E+02  0.45594000000E+02  0.51100000000E-03 0. -1.
         11   -1    0    0    0    0 -0.00000000000E+00 -0.00000000000E+00 -0.45593999997E+02  0.45594000000E+02  0.51100000000E-03 0.  1.
    9900012    2    1    2    0    0 -0.20406464457E+02 -0.94170420006E+01 -0.22618937701E+02  0.59301940124E+02  0.49999992881E+02 0.  0.
         12    1    1    2    0    0  0.20406464457E+02  0.94170420006E+01  0.22618937701E+02  0.31886059876E+02  0.00000000000E+00 0. -1.
         11    1    3    3    0    0 -0.25055675618E+02 -0.14884866134E+02  0.47714157133E+00  0.29147449028E+02  0.51100000000E-03 0. -1.
        -11    1    3    3    0    0 -0.42649003973E+01 -0.43409534042E+01 -0.63080257979E+01  0.87649553099E+01  0.51100000000E-03 0.  1.
         12    1    3    3    0    0  0.89141115592E+01  0.98087775374E+01 -0.16788053475E+02  0.21389535786E+02  0.00000000000E+00 0. -1.
</event>
<event>
 7    1  0.5832130E-012  0.5930195E+02  0.7816164E-02  0.1266605E+00
        -11   -1    0    0    0    0  0.00000000000E+00  0.00000000000E+00  0.45593999997E+02  0.45594000000E+02  0.51100000000E-03 0.  1.
         11   -1    0    0    0    0 -0.00000000000E+00 -0.00000000000E+00 -0.45593999997E+02  0.45594000000E+02  0.51100000000E-03 0. -1.
    9900012    2    1    2    0    0 -0.14651962890E+02  0.14502732735E+02  0.24325111760E+02  0.59301947634E+02  0.50000006578E+02 0.  0.
         12    1    1    2    0    0  0.14651962890E+02 -0.14502732735E+02 -0.24325111760E+02  0.31886052366E+02  0.00000000000E+00 0. -1.
         11    1    3    3    0    0  0.66476280201E+01  0.19182886801E+02  0.16347464335E+01  0.20367780942E+02  0.51100000000E-03 0. -1.
        -11    1    3    3    0    0  0.28140499579E+01 -0.46239281418E+01 -0.55415757235E+00  0.54412020273E+01  0.51100000000E-03 0.  1.
        -12    1    3    3    0    0 -0.24113640868E+02 -0.56225924392E-01  0.23244522899E+02  0.33492964665E+02  0.00000000000E+00 0.  1.
</event>
<event>
 7    1  0.5832130E-012  0.5930194E+02  0.7816164E-02  0.1266605E+00
        -11   -1    0    0    0    0  0.00000000000E+00  0.00000000000E+00  0.45593999997E+02  0.45594000000E+02  0.51100000000E-03 0.  1.
         11   -1    0    0    0    0 -0.00000000000E+00 -0.00000000000E+00 -0.45593999997E+02  0.45594000000E+02  0.51100000000E-03 0. -1.
    9900012    2    1    2    0    0  0.26866788716E+02  0.96698142862E+01 -0.14191227124E+02  0.59301943933E+02  0.49999999827E+02 0.  0.
         12    1    1    2    0    0 -0.26866788716E+02 -0.96698142862E+01  0.14191227124E+02  0.31886056067E+02  0.00000000000E+00 0. -1.
         11    1    3    3    0    0  0.59367813327E+01  0.72401976324E+01 -0.28431812354E+01  0.97851680694E+01  0.51100000000E-03 0. -1.
        -11    1    3    3    0    0  0.98774816045E+01  0.21378051339E+02  0.23313282938E+01  0.23664758899E+02  0.51100000000E-03 0.  1.
        -12    1    3    3    0    0  0.11052525779E+02 -0.18948434685E+02 -0.13679374182E+02  0.25852016964E+02  0.00000000000E+00 0.  1.
</event>
<event>
 7    1  0.5832130E-012  0.5930193E+02  0.7816164E-02  0.1266605E+00
        -11   -1    0    0    0    0  0.00000000000E+00  0.00000000000E+00  0.45593999997E+02  0.45594000000E+02  0.51100000000E-03 0.  1.
         11   -1    0    0    0    0 -0.00000000000E+00 -0.00000000000E+00 -0.45593999997E+02  0.45594000000E+02  0.51100000000E-03 0. -1.
    9900012    2    1    2    0    0  0.37246892072E+01 -0.25421494039E+02 -0.18883738726E+02  0.59301933182E+02  0.49999980219E+02 0.  0.
         12    1    1    2    0    0 -0.37246892072E+01  0.25421494039E+02  0.18883738726E+02  0.31886066818E+02  0.00000000000E+00 0. -1.
         11    1    3    3    0    0  0.62661389459E+01 -0.78327893257E+01 -0.37138420911E+01  0.10696247438E+02  0.51100000000E-03 0. -1.
        -11    1    3    3    0    0  0.11803302792E+02 -0.26691372989E+02 -0.98939889683E+01  0.30816202991E+02  0.51100000000E-03 0.  1.
        -12    1    3    3    0    0 -0.14344752531E+02  0.91026682755E+01 -0.52759076669E+01  0.17789482753E+02  0.00000000000E+00 0.  1.
</event>
<event>
 7    1  0.5832130E-012  0.5930187E+02  0.7816164E-02  0.1266605E+00
        -11   -1    0    0    0    0  0.00000000000E+00  0.00000000000E+00  0.45593999997E+02  0.45594000000E+02  0.51100000000E-03 0. -1.
         11   -1    0    0    0    0 -0.00000000000E+00 -0.00000000000E+00 -0.45593999997E+02  0.45594000000E+02  0.51100000000E-03 0.  1.
    9900012    2    1    2    0    0 -0.16889152399E+02 -0.16309264487E+02  0.21575217773E+02  0.59301865101E+02  0.49999856056E+02 0.  0.
         12    1    1    2    0    0  0.16889152399E+02  0.16309264487E+02 -0.21575217773E+02  0.31886134899E+02  0.00000000000E+00 0. -1.
         11    1    3    3    0    0 -0.25386923273E+01 -0.14916183233E+02 -0.11798252988E+02  0.19186877151E+02  0.51100000000E-03 0. -1.
        -11    1    3    3    0    0 -0.77400505434E+01  0.75017391078E+01  0.12692310514E+02  0.16651703172E+02  0.51100000000E-03 0.  1.
        -12    1    3    3    0    0 -0.66104095279E+01 -0.88948203613E+01  0.20681160247E+02  0.23463284778E+02  0.00000000000E+00 0.  1.
</event>
<event>
 7    1  0.5832130E-012  0.5930196E+02  0.7816164E-02  0.1266605E+00
        -11   -1    0    0    0    0  0.00000000000E+00  0.00000000000E+00  0.45593999997E+02  0.45594000000E+02  0.51100000000E-03 0.  1.
         11   -1    0    0    0    0 -0.00000000000E+00 -0.00000000000E+00 -0.45593999997E+02  0.45594000000E+02  0.51100000000E-03 0. -1.
    9900012    2    1    2    0    0  0.49281519777E+01 -0.29064182110E+00  0.31501560548E+02  0.59301961181E+02  0.50000031283E+02 0.  0.
         12    1    1    2    0    0 -0.49281519777E+01  0.29064182110E+00 -0.31501560548E+02  0.31886038819E+02  0.00000000000E+00 0. -1.
         11    1    3    3    0    0  0.18580172331E+01 -0.20426923791E+02  0.27897430134E+02  0.34626262460E+02  0.51100000000E-03 0. -1.
        -11    1    3    3    0    0  0.44925587501E+01  0.30690319387E+00  0.11246145495E+01  0.46413394445E+01  0.51100000000E-03 0.  1.
        -12    1    3    3    0    0 -0.14224240054E+01  0.19829378776E+02  0.24795158653E+01  0.20034359277E+02  0.00000000000E+00 0.  1.
</event>
<event>
 7    1  0.5832130E-012  0.5930198E+02  0.7816164E-02  0.1266605E+00
        -11   -1    0    0    0    0  0.00000000000E+00  0.00000000000E+00  0.45593999997E+02  0.45594000000E+02  0.51100000000E-03 0. -1.
         11   -1    0    0    0    0 -0.00000000000E+00 -0.00000000000E+00 -0.45593999997E+02  0.45594000000E+02  0.51100000000E-03 0.  1.
    9900012    2    1    2    0    0  0.44195788759E+01 -0.18715455476E+02 -0.25434568370E+02  0.59301980818E+02  0.50000067097E+02 0.  0.
         12    1    1    2    0    0 -0.44195788759E+01  0.18715455476E+02  0.25434568370E+02  0.31886019182E+02  0.00000000000E+00 0. -1.
         11    1    3    3    0    0 -0.46707777518E+01 -0.44662184171E+01 -0.90848496783E+01  0.11148890783E+02  0.51100000000E-03 0. -1.
        -11    1    3    3    0    0  0.84509061793E+01  0.21810451544E+00 -0.28200720798E+02  0.29440550923E+02  0.51100000000E-03 0.  1.
         12    1    3    3    0    0  0.63945044841E+00 -0.14467341574E+02  0.11851002107E+02  0.18712539113E+02  0.00000000000E+00 0. -1.
</event>
<event>
 7    1  0.5832130E-012  0.5930194E+02  0.7816164E-02  0.1266605E+00
        -11   -1    0    0    0    0  0.00000000000E+00  0.00000000000E+00  0.45593999997E+02  0.45594000000E+02  0.51100000000E-03 0. -1.
         11   -1    0    0    0    0 -0.00000000000E+00 -0.00000000000E+00 -0.45593999997E+02  0.45594000000E+02  0.51100000000E-03 0.  1.
    9900012    2    1    2    0    0 -0.14155305249E+02 -0.91105797641E+01 -0.27080353692E+02  0.59301938995E+02  0.49999990821E+02 0.  0.
         12    1    1    2    0    0  0.14155305249E+02  0.91105797641E+01  0.27080353692E+02  0.31886061005E+02  0.00000000000E+00 0. -1.
         11    1    3    3    0    0  0.84355982008E+01 -0.46005100383E+01 -0.27809673115E+02  0.29422813065E+02  0.51100000000E-03 0. -1.
        -11    1    3    3    0    0 -0.13446762539E+02  0.69481400200E+01 -0.68578111762E+00  0.15151315736E+02  0.51100000000E-03 0.  1.
        -12    1    3    3    0    0 -0.91441409110E+01 -0.11458209746E+02  0.14151005399E+01  0.14727810194E+02  0.00000000000E+00 0.  1.
</event>
<event>
 7    1  0.5832130E-012  0.5930195E+02  0.7816164E-02  0.1266605E+00
        -11   -1    0    0    0    0  0.00000000000E+00  0.00000000000E+00  0.45593999997E+02  0.45594000000E+02  0.51100000000E-03 0. -1.
         11   -1    0    0    0    0 -0.00000000000E+00 -0.00000000000E+00 -0.45593999997E+02  0.45594000000E+02  0.51100000000E-03 0.  1.
    9900012    2    1    2    0    0 -0.57900207039E+00  0.23658457978E+02 -0.21369656768E+02  0.59301951206E+02  0.50000013091E+02 0.  0.
         12    1    1    2    0    0  0.57900207039E+00 -0.23658457978E+02  0.21369656768E+02  0.31886048794E+02  0.00000000000E+00 0. -1.
         11    1    3    3    0    0  0.11316702118E+02  0.23243245604E+02 -0.32779010289E+02  0.41746613382E+02  0.51100000000E-03 0.  1.
        -11    1    3    3    0    0 -0.95178935683E+01  0.27581434012E+01  0.94027249136E+01  0.13660486414E+02  0.51100000000E-03 0. -1.
        -12    1    3    3    0    0 -0.23778106203E+01 -0.23429310265E+01  0.20066286077E+01  0.38948514105E+01  0.00000000000E+00 0.  1.
</event>
<event>
 7    1  0.5832130E-012  0.5930194E+02  0.7816164E-02  0.1266605E+00
        -11   -1    0    0    0    0  0.00000000000E+00  0.00000000000E+00  0.45593999997E+02  0.45594000000E+02  0.51100000000E-03 0.  1.
         11   -1    0    0    0    0 -0.00000000000E+00 -0.00000000000E+00 -0.45593999997E+02  0.45594000000E+02  0.51100000000E-03 0. -1.
    9900012    2    1    2    0    0  0.80694401336E+01 -0.30847052399E+02 -0.25413405764E+00  0.59301935804E+02  0.49999985002E+02 0.  0.
         12    1    1    2    0    0 -0.80694401336E+01  0.30847052399E+02  0.25413405764E+00  0.31886064196E+02  0.00000000000E+00 0. -1.
         11    1    3    3    0    0  0.60509477510E+01  0.29441827094E+01 -0.56885008440E+01  0.88114256863E+01  0.51100000000E-03 0. -1.
        -11    1    3    3    0    0  0.18041708236E+02 -0.18492488758E+02  0.10292382948E+02  0.27810223364E+02  0.51100000000E-03 0.  1.
         12    1    3    3    0    0 -0.16023215854E+02 -0.15298746350E+02 -0.48580161614E+01  0.22680286753E+02  0.00000000000E+00 0. -1.
</event>
<event>
 7    1  0.5832130E-012  0.5930196E+02  0.7816164E-02  0.1266605E+00
        -11   -1    0    0    0    0  0.00000000000E+00  0.00000000000E+00  0.45593999997E+02  0.45594000000E+02  0.51100000000E-03 0.  1.
         11   -1    0    0    0    0 -0.00000000000E+00 -0.00000000000E+00 -0.45593999997E+02  0.45594000000E+02  0.51100000000E-03 0. -1.
    9900012    2    1    2    0    0 -0.18314492505E+02  0.25498674748E+02  0.55782439329E+01  0.59301955168E+02  0.50000020318E+02 0.  0.
         12    1    1    2    0    0  0.18314492505E+02 -0.25498674748E+02 -0.55782439329E+01  0.31886044832E+02  0.00000000000E+00 0. -1.
         11    1    3    3    0    0 -0.22666236754E+02  0.13506703236E+02 -0.59407895859E+01  0.27045929491E+02  0.51100000000E-03 0. -1.
        -11    1    3    3    0    0 -0.77065040248E+01 -0.72733302892E+00  0.12499216875E+02  0.14702028444E+02  0.51100000000E-03 0.  1.
         12    1    3    3    0    0  0.12058248274E+02  0.12719304541E+02 -0.98018335660E+00  0.17553997233E+02  0.00000000000E+00 0. -1.
</event>
<event>
 7    1  0.5832130E-012  0.5930199E+02  0.7816164E-02  0.1266605E+00
        -11   -1    0    0    0    0  0.00000000000E+00  0.00000000000E+00  0.45593999997E+02  0.45594000000E+02  0.51100000000E-03 0. -1.
         11   -1    0    0    0    0 -0.00000000000E+00 -0.00000000000E+00 -0.45593999997E+02  0.45594000000E+02  0.51100000000E-03 0.  1.
    9900012    2    1    2    0    0  0.31149392683E+01  0.30606504788E+02 -0.83819368614E+01  0.59301986648E+02  0.50000077729E+02 0.  0.
         12    1    1    2    0    0 -0.31149392683E+01 -0.30606504788E+02  0.83819368614E+01  0.31886013352E+02  0.00000000000E+00 0. -1.
         11    1    3    3    0    0  0.13918528308E+02  0.35534382763E+02 -0.10375964195E+02  0.39548431345E+02  0.51100000000E-03 0. -1.
        -11    1    3    3    0    0 -0.12135845111E+02  0.22073756484E+01  0.19933801173E+01  0.12494991331E+02  0.51100000000E-03 0.  1.
        -12    1    3    3    0    0  0.13322560717E+01 -0.71352536236E+01  0.64721671437E-03  0.72585639718E+01  0.00000000000E+00 0.  1.
</event>
<event>
 7    1  0.5832130E-012  0.5930195E+02  0.7816164E-02  0.1266605E+00
        -11   -1    0    0    0    0  0.00000000000E+00  0.00000000000E+00  0.45593999997E+02  0.45594000000E+02  0.51100000000E-03 0.  1.
         11   -1    0    0    0    0 -0.00000000000E+00 -0.00000000000E+00 -0.45593999997E+02  0.45594000000E+02  0.51100000000E-03 0. -1.
    9900012    2    1    2    0    0 -0.67119672239E+01  0.52530800129E+01  0.30725799717E+02  0.59301950983E+02  0.50000012686E+02 0.  0.
         12    1    1    2    0    0  0.67119672239E+01 -0.52530800129E+01 -0.30725799717E+02  0.31886049017E+02  0.00000000000E+00 0. -1.
         11    1    3    3    0    0 -0.53276201591E+01  0.17589766000E+02  0.12734459159E+02  0.22359558467E+02  0.51100000000E-03 0. -1.
        -11    1    3    3    0    0 -0.37271595425E-01  0.71351181115E+01  0.15756174954E+02  0.17296483720E+02  0.51100000000E-03 0.  1.
        -12    1    3    3    0    0 -0.13470754694E+01 -0.19471804099E+02  0.22351656044E+01  0.19645908797E+02  0.00000000000E+00 0.  1.
</event>
<event>
 7    1  0.5832130E-012  0.5930194E+02  0.7816164E-02  0.1266605E+00
        -11   -1    0    0    0    0  0.00000000000E+00  0.00000000000E+00  0.45593999997E+02  0.45594000000E+02  0.51100000000E-03 0. -1.
         11   -1    0    0    0    0 -0.00000000000E+00 -0.00000000000E+00 -0.45593999997E+02  0.45594000000E+02  0.51100000000E-03 0.  1.
    9900012    2    1    2    0    0  0.23946809127E+02 -0.58005617441E+01 -0.20239186659E+02  0.59301939401E+02  0.49999991562E+02 0.  0.
         12    1    1    2    0    0 -0.23946809127E+02  0.58005617441E+01  0.20239186659E+02  0.31886060599E+02  0.00000000000E+00 0. -1.
         11    1    3    3    0    0  0.26198049483E+02 -0.27140496708E+01 -0.26244282739E+01  0.26468688792E+02  0.51100000000E-03 0. -1.
        -11    1    3    3    0    0 -0.15739754046E+01 -0.10895717640E+02 -0.21447500315E+02  0.24107868664E+02  0.51100000000E-03 0.  1.
         12    1    3    3    0    0 -0.67726495182E+00  0.78092055665E+01  0.38327419304E+01  0.87253819457E+01  0.00000000000E+00 0. -1.
</event>
<event>
 7    1  0.5832130E-012  0.5930195E+02  0.7816164E-02  0.1266605E+00
        -11   -1    0    0    0    0  0.00000000000E+00  0.00000000000E+00  0.45593999997E+02  0.45594000000E+02  0.51100000000E-03 0. -1.
         11   -1    0    0    0    0 -0.00000000000E+00 -0.00000000000E+00 -0.45593999997E+02  0.45594000000E+02  0.51100000000E-03 0.  1.
    9900012    2    1    2    0    0 -0.10728726469E+02 -0.29118180161E+02  0.73311717420E+01  0.59301951850E+02  0.50000014266E+02 0.  0.
         12    1    1    2    0    0  0.10728726469E+02  0.29118180161E+02 -0.73311717420E+01  0.31886048150E+02  0.00000000000E+00 0. -1.
         11    1    3    3    0    0 -0.12221964328E+02 -0.12243417602E+02  0.39265428185E+01  0.17739656856E+02  0.51100000000E-03 0.  1.
        -11    1    3    3    0    0  0.17275425103E+02 -0.72994830097E+00  0.70867266868E+01  0.18686755534E+02  0.51100000000E-03 0. -1.
         12    1    3    3    0    0 -0.15782187244E+02 -0.16144814258E+02 -0.36820977633E+01  0.22875539460E+02  0.00000000000E+00 0. -1.
</event>
<event>
 7    1  0.5832130E-012  0.5930194E+02  0.7816164E-02  0.1266605E+00
        -11   -1    0    0    0    0  0.00000000000E+00  0.00000000000E+00  0.45593999997E+02  0.45594000000E+02  0.51100000000E-03 0. -1.
         11   -1    0    0    0    0 -0.00000000000E+00 -0.00000000000E+00 -0.45593999997E+02  0.45594000000E+02  0.51100000000E-03 0.  1.
    9900012    2    1    2    0    0 -0.74711809944E+01  0.21608535986E+02 -0.22225513788E+02  0.59301939785E+02  0.49999992262E+02 0.  0.
         12    1    1    2    0    0  0.74711809944E+01 -0.21608535986E+02  0.22225513788E+02  0.31886060215E+02  0.00000000000E+00 0. -1.
         11    1    3    3    0    0 -0.28730621469E+01  0.12130689445E+01  0.42094007996E+01  0.52388049894E+01  0.51100000000E-03 0. -1.
        -11    1    3    3    0    0 -0.54724554978E+00  0.24283633119E+02  0.26566591390E+01  0.24434650666E+02  0.51100000000E-03 0.  1.
        -12    1    3    3    0    0 -0.40508732977E+01 -0.38881660775E+01 -0.29091573726E+02  0.29628484129E+02  0.00000000000E+00 0.  1.
</event>
<event>
 7    1  0.5832130E-012  0.5930194E+02  0.7816164E-02  0.1266605E+00
        -11   -1    0    0    0    0  0.00000000000E+00  0.00000000000E+00  0.45593999997E+02  0.45594000000E+02  0.51100000000E-03 0.  1.
         11   -1    0    0    0    0 -0.00000000000E+00 -0.00000000000E+00 -0.45593999997E+02  0.45594000000E+02  0.51100000000E-03 0. -1.
    9900012    2    1    2    0    0 -0.89964652037E+01 -0.43784372620E+01  0.30275631780E+02  0.59301937548E+02  0.49999988182E+02 0.  0.
         12    1    1    2    0    0  0.89964652037E+01  0.43784372620E+01 -0.30275631780E+02  0.31886062452E+02  0.00000000000E+00 0. -1.
         11    1    3    3    0    0 -0.13945617094E+02 -0.12876624220E+02  0.82249730326E+01  0.20686659205E+02  0.51100000000E-03 0. -1.
        -11    1    3    3    0    0 -0.12756763040E+02  0.26985863097E+01  0.82601392557E+01  0.15435260675E+02  0.51100000000E-03 0.  1.
         12    1    3    3    0    0  0.17705914930E+02  0.57996006481E+01  0.13790519492E+02  0.23180017667E+02  0.00000000000E+00 0. -1.
</event>
<event>
 7    1  0.5832130E-012  0.5930198E+02  0.7816164E-02  0.1266605E+00
        -11   -1    0    0    0    0  0.00000000000E+00  0.00000000000E+00  0.45593999997E+02  0.45594000000E+02  0.51100000000E-03 0. -1.
         11   -1    0    0    0    0 -0.00000000000E+00 -0.00000000000E+00 -0.45593999997E+02  0.45594000000E+02  0.51100000000E-03 0.  1.
    9900012    2    1    2    0    0 -0.24326877797E+02 -0.16288208036E+01 -0.20549168762E+02  0.59301978339E+02  0.50000062576E+02 0.  0.
         12    1    1    2    0    0  0.24326877797E+02  0.16288208036E+01  0.20549168762E+02  0.31886021661E+02  0.00000000000E+00 0. -1.
         11    1    3    3    0    0 -0.78853119175E+01  0.79492991269E+01 -0.37846809391E+01  0.11819192473E+02  0.51100000000E-03 0. -1.
        -11    1    3    3    0    0 -0.21048931361E+02  0.33664060043E+01 -0.23879620674E+02  0.32009787325E+02  0.51100000000E-03 0.  1.
         12    1    3    3    0    0  0.46073654820E+01 -0.12944525935E+02  0.71151328508E+01  0.15472998541E+02  0.00000000000E+00 0. -1.
</event>
<event>
 7    1  0.5832130E-012  0.5930195E+02  0.7816164E-02  0.1266605E+00
        -11   -1    0    0    0    0  0.00000000000E+00  0.00000000000E+00  0.45593999997E+02  0.45594000000E+02  0.51100000000E-03 0.  1.
         11   -1    0    0    0    0 -0.00000000000E+00 -0.00000000000E+00 -0.45593999997E+02  0.45594000000E+02  0.51100000000E-03 0. -1.
    9900012    2    1    2    0    0  0.26839035110E+02  0.15172945848E+02  0.81343847849E+01  0.59301948078E+02  0.50000007386E+02 0.  0.
         12    1    1    2    0    0 -0.26839035110E+02 -0.15172945848E+02 -0.81343847849E+01  0.31886051922E+02  0.00000000000E+00 0. -1.
         11    1    3    3    0    0  0.21123413681E+02  0.18550580255E+02 -0.50158952679E+01  0.28556642641E+02  0.51100000000E-03 0. -1.
        -11    1    3    3    0    0 -0.62124356004E+01  0.87724717650E+01  0.55839841696E+01  0.12113277691E+02  0.51100000000E-03 0.  1.
         12    1    3    3    0    0  0.11928057030E+02 -0.12150106172E+02  0.75662958833E+01  0.18632027745E+02  0.00000000000E+00 0. -1.
</event>
<event>
 7    1  0.5832130E-012  0.5930195E+02  0.7816164E-02  0.1266605E+00
        -11   -1    0    0    0    0  0.00000000000E+00  0.00000000000E+00  0.45593999997E+02  0.45594000000E+02  0.51100000000E-03 0.  1.
         11   -1    0    0    0    0 -0.00000000000E+00 -0.00000000000E+00 -0.45593999997E+02  0.45594000000E+02  0.51100000000E-03 0. -1.
    9900012    2    1    2    0    0  0.13596150700E+02  0.11227652847E+02  0.26566984962E+02  0.59301949880E+02  0.50000010673E+02 0.  0.
         12    1    1    2    0    0 -0.13596150700E+02 -0.11227652847E+02 -0.26566984962E+02  0.31886050120E+02  0.00000000000E+00 0. -1.
         11    1    3    3    0    0  0.43945671479E+01 -0.53761977139E+01 -0.10283268484E+02  0.12408115621E+02  0.51100000000E-03 0. -1.
        -11    1    3    3    0    0  0.15791371970E+01 -0.54397312388E+01  0.66538388156E+01  0.87383019794E+01  0.51100000000E-03 0.  1.
         12    1    3    3    0    0  0.76224463551E+01  0.22043581799E+02  0.30196414631E+02  0.38155532280E+02  0.00000000000E+00 0. -1.
</event>
<event>
 7    1  0.5832130E-012  0.5930193E+02  0.7816164E-02  0.1266605E+00
        -11   -1    0    0    0    0  0.00000000000E+00  0.00000000000E+00  0.45593999997E+02  0.45594000000E+02  0.51100000000E-03 0.  1.
         11   -1    0    0    0    0 -0.00000000000E+00 -0.00000000000E+00 -0.45593999997E+02  0.45594000000E+02  0.51100000000E-03 0. -1.
    9900012    2    1    2    0    0 -0.22297017764E+02 -0.17858824863E+02 -0.14164269051E+02  0.59301934950E+02  0.49999983444E+02 0.  0.
         12    1    1    2    0    0  0.22297017764E+02  0.17858824863E+02  0.14164269051E+02  0.31886065050E+02  0.00000000000E+00 0. -1.
         11    1    3    3    0    0 -0.92455989049E+01 -0.45532893621E+01  0.60661599006E+01  0.11958755760E+02  0.51100000000E-03 0.  1.
        -11    1    3    3    0    0 -0.19741423448E+02  0.45276816989E+01 -0.10028092422E+01  0.20278790101E+02  0.51100000000E-03 0. -1.
         12    1    3    3    0    0  0.66900045889E+01 -0.17833217199E+02 -0.19227619710E+02  0.27064389089E+02  0.00000000000E+00 0. -1.
</event>
<event>
 7    1  0.5832130E-012  0.5930196E+02  0.7816164E-02  0.1266605E+00
        -11   -1    0    0    0    0  0.00000000000E+00  0.00000000000E+00  0.45593999997E+02  0.45594000000E+02  0.51100000000E-03 0.  1.
         11   -1    0    0    0    0 -0.00000000000E+00 -0.00000000000E+00 -0.45593999997E+02  0.45594000000E+02  0.51100000000E-03 0. -1.
    9900012    2    1    2    0    0 -0.24859726956E+02  0.11098946275E+02  0.16599004801E+02  0.59301959275E+02  0.50000027808E+02 0.  0.
         12    1    1    2    0    0  0.24859726956E+02 -0.11098946275E+02 -0.16599004801E+02  0.31886040725E+02  0.00000000000E+00 0. -1.
         11    1    3    3    0    0  0.38637931435E+01 -0.94817743633E+01  0.56776828060E+01  0.11707648134E+02  0.51100000000E-03 0. -1.
        -11    1    3    3    0    0 -0.17332730644E+02  0.16649444286E+01  0.17366201503E+02  0.24592286319E+02  0.51100000000E-03 0.  1.
        -12    1    3    3    0    0 -0.11390789455E+02  0.18915776209E+02 -0.64448795080E+01  0.23002024822E+02  0.00000000000E+00 0.  1.
</event>
<event>
 7    1  0.5832130E-012  0.5930198E+02  0.7816164E-02  0.1266605E+00
        -11   -1    0    0    0    0  0.00000000000E+00  0.00000000000E+00  0.45593999997E+02  0.45594000000E+02  0.51100000000E-03 0. -1.
         11   -1    0    0    0    0 -0.00000000000E+00 -0.00000000000E+00 -0.45593999997E+02  0.45594000000E+02  0.51100000000E-03 0.  1.
    9900012    2    1    2    0    0 -0.27137092506E+02 -0.15315325808E+02  0.67629389044E+01  0.59301978973E+02  0.50000063732E+02 0.  0.
         12    1    1    2    0    0  0.27137092506E+02  0.15315325808E+02 -0.67629389044E+01  0.31886021027E+02  0.00000000000E+00 0. -1.
         11    1    3    3    0    0 -0.81182927276E+01 -0.37387593879E+01 -0.14260313518E+02  0.16829781355E+02  0.51100000000E-03 0. -1.
        -11    1    3    3    0    0 -0.13644002811E+02 -0.15288632519E+02  0.35581229616E-01  0.20491519302E+02  0.51100000000E-03 0.  1.
         12    1    3    3    0    0 -0.53747969679E+01  0.37120660994E+01  0.20987671192E+02  0.21980678316E+02  0.00000000000E+00 0. -1.
</event>
<event>
 7    1  0.5832130E-012  0.5930183E+02  0.7816164E-02  0.1266605E+00
        -11   -1    0    0    0    0  0.00000000000E+00  0.00000000000E+00  0.45593999997E+02  0.45594000000E+02  0.51100000000E-03 0.  1.
         11   -1    0    0    0    0 -0.00000000000E+00 -0.00000000000E+00 -0.45593999997E+02  0.45594000000E+02  0.51100000000E-03 0. -1.
    9900012    2    1    2    0    0 -0.19998143052E+00 -0.27207189786E+02  0.16626983373E+02  0.59301831451E+02  0.49999794687E+02 0.  0.
         12    1    1    2    0    0  0.19998143052E+00  0.27207189786E+02 -0.16626983373E+02  0.31886168549E+02  0.00000000000E+00 0. -1.
         11    1    3    3    0    0 -0.12701244957E+02 -0.12250418741E+02  0.84592166398E+00  0.17666634272E+02  0.51100000000E-03 0.  1.
        -11    1    3    3    0    0 -0.56444441513E+01  0.45336544705E+01 -0.41754224598E+01  0.83575071411E+01  0.51100000000E-03 0. -1.
         12    1    3    3    0    0  0.18145707678E+02 -0.19490425516E+02  0.19956484168E+02  0.33277690038E+02  0.00000000000E+00 0. -1.
</event>
<event>
 7    1  0.5832130E-012  0.5930206E+02  0.7816164E-02  0.1266604E+00
        -11   -1    0    0    0    0  0.00000000000E+00  0.00000000000E+00  0.45593999997E+02  0.45594000000E+02  0.51100000000E-03 0. -1.
         11   -1    0    0    0    0 -0.00000000000E+00 -0.00000000000E+00 -0.45593999997E+02  0.45594000000E+02  0.51100000000E-03 0.  1.
    9900012    2    1    2    0    0  0.17657917548E+01  0.16962529040E+02 -0.26941930955E+02  0.59302061790E+02  0.50000214770E+02 0.  0.
         12    1    1    2    0    0 -0.17657917548E+01 -0.16962529040E+02  0.26941930955E+02  0.31885938210E+02  0.00000000000E+00 0. -1.
         11    1    3    3    0    0  0.37706955244E+00  0.13925159852E+01  0.53542424752E+01  0.55451956648E+01  0.51100000000E-03 0. -1.
        -11    1    3    3    0    0  0.13393135861E+02  0.12820731941E+02  0.68332001858E+00  0.18553010058E+02  0.51100000000E-03 0.  1.
         12    1    3    3    0    0 -0.12004413658E+02  0.27492811136E+01 -0.32979493449E+02  0.35203856068E+02  0.00000000000E+00 0. -1.
</event>
<event>
 7    1  0.5832130E-012  0.5930194E+02  0.7816164E-02  0.1266605E+00
        -11   -1    0    0    0    0  0.00000000000E+00  0.00000000000E+00  0.45593999997E+02  0.45594000000E+02  0.51100000000E-03 0.  1.
         11   -1    0    0    0    0 -0.00000000000E+00 -0.00000000000E+00 -0.45593999997E+02  0.45594000000E+02  0.51100000000E-03 0. -1.
    9900012    2    1    2    0    0  0.19230290769E+01 -0.18799731003E+01  0.31772445941E+02  0.59301942533E+02  0.49999997274E+02 0.  0.
         12    1    1    2    0    0 -0.19230290769E+01  0.18799731003E+01 -0.31772445941E+02  0.31886057467E+02  0.00000000000E+00 0. -1.
         11    1    3    3    0    0  0.13296655470E+02 -0.46938111417E+01  0.23102010646E+02  0.27065398683E+02  0.51100000000E-03 0. -1.
        -11    1    3    3    0    0 -0.11110805248E+02  0.14165584287E+02  0.10337546949E+02  0.20760025256E+02  0.51100000000E-03 0.  1.
         12    1    3    3    0    0 -0.26282114441E+00 -0.11351746246E+02 -0.16671116530E+01  0.11476518594E+02  0.00000000000E+00 0. -1.
</event>
<event>
 7    1  0.5832130E-012  0.5930200E+02  0.7816164E-02  0.1266605E+00
        -11   -1    0    0    0    0  0.00000000000E+00  0.00000000000E+00  0.45593999997E+02  0.45594000000E+02  0.51100000000E-03 0.  1.
         11   -1    0    0    0    0 -0.00000000000E+00 -0.00000000000E+00 -0.45593999997E+02  0.45594000000E+02  0.51100000000E-03 0. -1.
    9900012    2    1    2    0    0 -0.20395023333E+02 -0.19551667117E+02  0.14781482482E+02  0.59302001691E+02  0.50000105163E+02 0.  0.
         12    1    1    2    0    0  0.20395023333E+02  0.19551667117E+02 -0.14781482482E+02  0.31885998309E+02  0.00000000000E+00 0. -1.
         11    1    3    3    0    0 -0.23793147739E+02 -0.25894830435E+02  0.16667234299E+02  0.38915971297E+02  0.51100000000E-03 0. -1.
        -11    1    3    3    0    0  0.36616646796E+01 -0.53032583642E+01  0.37380576665E+01  0.74501954929E+01  0.51100000000E-03 0.  1.
        -12    1    3    3    0    0 -0.26354027370E+00  0.11646421682E+02 -0.56238094832E+01  0.12935834900E+02  0.00000000000E+00 0.  1.
</event>
<event>
 7    1  0.5832130E-012  0.5930194E+02  0.7816164E-02  0.1266605E+00
        -11   -1    0    0    0    0  0.00000000000E+00  0.00000000000E+00  0.45593999997E+02  0.45594000000E+02  0.51100000000E-03 0. -1.
         11   -1    0    0    0    0 -0.00000000000E+00 -0.00000000000E+00 -0.45593999997E+02  0.45594000000E+02  0.51100000000E-03 0.  1.
    9900012    2    1    2    0    0 -0.47513231100E+01  0.28858969914E+02 -0.12700611125E+02  0.59301941310E+02  0.49999995044E+02 0.  0.
         12    1    1    2    0    0  0.47513231100E+01 -0.28858969914E+02  0.12700611125E+02  0.31886058690E+02  0.00000000000E+00 0. -1.
         11    1    3    3    0    0 -0.34856666372E+01  0.18644805772E+02  0.16486531205E+01  0.19039346405E+02  0.51100000000E-03 0. -1.
        -11    1    3    3    0    0 -0.12367076120E+02  0.10065476486E+02  0.60362912578E+01  0.17049785954E+02  0.51100000000E-03 0.  1.
         12    1    3    3    0    0  0.11101419648E+02  0.14868765669E+00 -0.20385555504E+02  0.23212808951E+02  0.00000000000E+00 0. -1.
</event>
<event>
 7    1  0.5832130E-012  0.5930196E+02  0.7816164E-02  0.1266605E+00
        -11   -1    0    0    0    0  0.00000000000E+00  0.00000000000E+00  0.45593999997E+02  0.45594000000E+02  0.51100000000E-03 0. -1.
         11   -1    0    0    0    0 -0.00000000000E+00 -0.00000000000E+00 -0.45593999997E+02  0.45594000000E+02  0.51100000000E-03 0.  1.
    9900012    2    1    2    0    0  0.24159380273E+02  0.14193442608E+02 -0.15218093456E+02  0.59301955456E+02  0.50000020842E+02 0.  0.
         12    1    1    2    0    0 -0.24159380273E+02 -0.14193442608E+02  0.15218093456E+02  0.31886044544E+02  0.00000000000E+00 0. -1.
         11    1    3    3    0    0  0.61790179058E+01  0.35792866485E+01  0.44751063856E+01  0.84272256773E+01  0.51100000000E-03 0. -1.
        -11    1    3    3    0    0  0.81632479884E+01  0.19136571715E+02 -0.28416815918E+02  0.35218779393E+02  0.51100000000E-03 0.  1.
         12    1    3    3    0    0  0.98171143785E+01 -0.85224157556E+01  0.87236160762E+01  0.15655950386E+02  0.00000000000E+00 0. -1.
</event>
<event>
 7    1  0.5832130E-012  0.5930194E+02  0.7816164E-02  0.1266605E+00
        -11   -1    0    0    0    0  0.00000000000E+00  0.00000000000E+00  0.45593999997E+02  0.45594000000E+02  0.51100000000E-03 0. -1.
         11   -1    0    0    0    0 -0.00000000000E+00 -0.00000000000E+00 -0.45593999997E+02  0.45594000000E+02  0.51100000000E-03 0.  1.
    9900012    2    1    2    0    0 -0.85047785633E+01 -0.15790329325E+02  0.26363898465E+02  0.59301938768E+02  0.49999990408E+02 0.  0.
         12    1    1    2    0    0  0.85047785633E+01  0.15790329325E+02 -0.26363898465E+02  0.31886061232E+02  0.00000000000E+00 0. -1.
         11    1    3    3    0    0 -0.32973253835E+01  0.29987635490E+01  0.20454741330E+02  0.20934693230E+02  0.51100000000E-03 0. -1.
        -11    1    3    3    0    0 -0.18780242231E+02 -0.12750899430E+02  0.10002519589E+01  0.22721871375E+02  0.51100000000E-03 0.  1.
        -12    1    3    3    0    0  0.13572789051E+02 -0.60381934445E+01  0.49089051761E+01  0.15645374164E+02  0.00000000000E+00 0.  1.
</event>
<event>
 7    1  0.5832130E-012  0.5930190E+02  0.7816164E-02  0.1266605E+00
        -11   -1    0    0    0    0  0.00000000000E+00  0.00000000000E+00  0.45593999997E+02  0.45594000000E+02  0.51100000000E-03 0. -1.
         11   -1    0    0    0    0 -0.00000000000E+00 -0.00000000000E+00 -0.45593999997E+02  0.45594000000E+02  0.51100000000E-03 0.  1.
    9900012    2    1    2    0    0 -0.15698516271E+02  0.18178511325E+02 -0.20971919023E+02  0.59301904682E+02  0.49999928243E+02 0.  0.
         12    1    1    2    0    0  0.15698516271E+02 -0.18178511325E+02  0.20971919023E+02  0.31886095318E+02  0.00000000000E+00 0. -1.
         11    1    3    3    0    0 -0.95378913595E+00  0.15587550115E+02  0.36631005879E+01  0.16040565405E+02  0.51100000000E-03 0. -1.
        -11    1    3    3    0    0 -0.15047646851E+01  0.13633566255E+02 -0.21848326110E+02  0.25797050213E+02  0.51100000000E-03 0.  1.
        -12    1    3    3    0    0 -0.13239962450E+02 -0.11042605046E+02 -0.27866935009E+01  0.17464289065E+02  0.00000000000E+00 0.  1.
</event>
<event>
 7    1  0.5832130E-012  0.5930196E+02  0.7816164E-02  0.1266605E+00
        -11   -1    0    0    0    0  0.00000000000E+00  0.00000000000E+00  0.45593999997E+02  0.45594000000E+02  0.51100000000E-03 0.  1.
         11   -1    0    0    0    0 -0.00000000000E+00 -0.00000000000E+00 -0.45593999997E+02  0.45594000000E+02  0.51100000000E-03 0. -1.
    9900012    2    1    2    0    0  0.13139413405E+02 -0.98344274564E+01  0.27337875545E+02  0.59301959365E+02  0.50000027972E+02 0.  0.
         12    1    1    2    0    0 -0.13139413405E+02  0.98344274564E+01 -0.27337875545E+02  0.31886040635E+02  0.00000000000E+00 0. -1.
         11    1    3    3    0    0  0.20302981596E+02 -0.11441112524E+02  0.11514137361E+02  0.25993950775E+02  0.51100000000E-03 0. -1.
        -11    1    3    3    0    0 -0.94455334553E+01 -0.99122257099E+01  0.11138232139E+00  0.13692433205E+02  0.51100000000E-03 0.  1.
         12    1    3    3    0    0  0.22819652650E+01  0.11518910777E+02  0.15712355863E+02  0.19615575386E+02  0.00000000000E+00 0. -1.
</event>
<event>
 7    1  0.5832130E-012  0.5930181E+02  0.7816164E-02  0.1266605E+00
        -11   -1    0    0    0    0  0.00000000000E+00  0.00000000000E+00  0.45593999997E+02  0.45594000000E+02  0.51100000000E-03 0.  1.
         11   -1    0    0    0    0 -0.00000000000E+00 -0.00000000000E+00 -0.45593999997E+02  0.45594000000E+02  0.51100000000E-03 0. -1.
    9900012    2    1    2    0    0 -0.11513006740E+02  0.21291325988E+02 -0.20757146634E+02  0.59301811408E+02  0.49999758134E+02 0.  0.
         12    1    1    2    0    0  0.11513006740E+02 -0.21291325988E+02  0.20757146634E+02  0.31886188592E+02  0.00000000000E+00 0. -1.
         11    1    3    3    0    0  0.38597165738E+01  0.11147624476E+02 -0.10945166204E+02  0.16092346224E+02  0.51100000000E-03 0. -1.
        -11    1    3    3    0    0  0.12238924003E+02  0.67166022101E+01 -0.57178416371E+01  0.15086342143E+02  0.51100000000E-03 0.  1.
         12    1    3    3    0    0 -0.27611647317E+02  0.34270993016E+01 -0.40941387932E+01  0.28123123042E+02  0.00000000000E+00 0. -1.
</event>
<event>
 7    1  0.5832130E-012  0.5930199E+02  0.7816164E-02  0.1266605E+00
        -11   -1    0    0    0    0  0.00000000000E+00  0.00000000000E+00  0.45593999997E+02  0.45594000000E+02  0.51100000000E-03 0.  1.
         11   -1    0    0    0    0 -0.00000000000E+00 -0.00000000000E+00 -0.45593999997E+02  0.45594000000E+02  0.51100000000E-03 0. -1.
    9900012    2    1    2    0    0  0.54954698925E+01 -0.78488167175E+01  0.30412389887E+02  0.59301990970E+02  0.50000085611E+02 0.  0.
         12    1    1    2    0    0 -0.54954698925E+01  0.78488167175E+01 -0.30412389887E+02  0.31886009030E+02  0.00000000000E+00 0. -1.
         11    1    3    3    0    0  0.70718971595E+01  0.10733896497E+02  0.44615343949E+01  0.13606379124E+02  0.51100000000E-03 0. -1.
        -11    1    3    3    0    0  0.11832993349E+02  0.10549493034E+01  0.21907297762E+01  0.12080229586E+02  0.51100000000E-03 0.  1.
         12    1    3    3    0    0 -0.13409420616E+02 -0.19637662518E+02  0.23760125716E+02  0.33615382260E+02  0.00000000000E+00 0. -1.
</event>
<event>
 7    1  0.5832130E-012  0.5930194E+02  0.7816164E-02  0.1266605E+00
        -11   -1    0    0    0    0  0.00000000000E+00  0.00000000000E+00  0.45593999997E+02  0.45594000000E+02  0.51100000000E-03 0. -1.
         11   -1    0    0    0    0 -0.00000000000E+00 -0.00000000000E+00 -0.45593999997E+02  0.45594000000E+02  0.51100000000E-03 0.  1.
    9900012    2    1    2    0    0 -0.92868562663E+01  0.94761541131E+01 -0.28994439399E+02  0.59301941727E+02  0.49999995805E+02 0.  0.
         12    1    1    2    0    0  0.92868562663E+01 -0.94761541131E+01  0.28994439399E+02  0.31886058273E+02  0.00000000000E+00 0. -1.
         11    1    3    3    0    0  0.86047508733E+01  0.66355097551E+01 -0.11690624610E+02  0.15960652597E+02  0.51100000000E-03 0. -1.
        -11    1    3    3    0    0  0.10910897725E+01 -0.80964268671E+01 -0.19676537775E+02  0.21305134216E+02  0.51100000000E-03 0.  1.
         12    1    3    3    0    0 -0.18982696912E+02  0.10937071225E+02  0.23727229851E+01  0.22036154914E+02  0.00000000000E+00 0. -1.
</event>
<event>
 7    1  0.5832130E-012  0.5930198E+02  0.7816164E-02  0.1266605E+00
        -11   -1    0    0    0    0  0.00000000000E+00  0.00000000000E+00  0.45593999997E+02  0.45594000000E+02  0.51100000000E-03 0.  1.
         11   -1    0    0    0    0 -0.00000000000E+00 -0.00000000000E+00 -0.45593999997E+02  0.45594000000E+02  0.51100000000E-03 0. -1.
    9900012    2    1    2    0    0  0.29205823591E+01 -0.23468879296E+02  0.21386920306E+02  0.59301977092E+02  0.50000060302E+02 0.  0.
         12    1    1    2    0    0 -0.29205823591E+01  0.23468879296E+02 -0.21386920306E+02  0.31886022908E+02  0.00000000000E+00 0. -1.
         11    1    3    3    0    0 -0.62262855235E+01 -0.45692990058E+01 -0.60891181008E+01  0.98347589869E+01  0.51100000000E-03 0. -1.
        -11    1    3    3    0    0 -0.50450570607E+01 -0.16301618145E+02 -0.14670780744E+01  0.17127395402E+02  0.51100000000E-03 0.  1.
         12    1    3    3    0    0  0.14191924943E+02 -0.25979621444E+01  0.28943116481E+02  0.32339822704E+02  0.00000000000E+00 0. -1.
</event>
<event>
 7    1  0.5832130E-012  0.5930194E+02  0.7816164E-02  0.1266605E+00
        -11   -1    0    0    0    0  0.00000000000E+00  0.00000000000E+00  0.45593999997E+02  0.45594000000E+02  0.51100000000E-03 0.  1.
         11   -1    0    0    0    0 -0.00000000000E+00 -0.00000000000E+00 -0.45593999997E+02  0.45594000000E+02  0.51100000000E-03 0. -1.
    9900012    2    1    2    0    0  0.15611481677E+02  0.15007212784E+02  0.23404834177E+02  0.59301936296E+02  0.49999985899E+02 0.  0.
         12    1    1    2    0    0 -0.15611481677E+02 -0.15007212784E+02 -0.23404834177E+02  0.31886063704E+02  0.00000000000E+00 0. -1.
         11    1    3    3    0    0 -0.65188329654E+01  0.22699149684E+02  0.20638225588E+02  0.31363720048E+02  0.51100000000E-03 0.  1.
        -11    1    3    3    0    0  0.11560399909E+02  0.36991587699E+01  0.25198616124E+01  0.12396625528E+02  0.51100000000E-03 0. -1.
        -12    1    3    3    0    0  0.10569914734E+02 -0.11391095670E+02  0.24674697665E+00  0.15541590720E+02  0.00000000000E+00 0.  1.
</event>
<event>
 7    1  0.5832130E-012  0.5930194E+02  0.7816164E-02  0.1266605E+00
        -11   -1    0    0    0    0  0.00000000000E+00  0.00000000000E+00  0.45593999997E+02  0.45594000000E+02  0.51100000000E-03 0.  1.
         11   -1    0    0    0    0 -0.00000000000E+00 -0.00000000000E+00 -0.45593999997E+02  0.45594000000E+02  0.51100000000E-03 0. -1.
    9900012    2    1    2    0    0 -0.54049107213E+00  0.29339409121E+02  0.12475096791E+02  0.59301935675E+02  0.49999984767E+02 0.  0.
         12    1    1    2    0    0  0.54049107213E+00 -0.29339409121E+02 -0.12475096791E+02  0.31886064325E+02  0.00000000000E+00 0. -1.
         11    1    3    3    0    0  0.73138682639E+01  0.20356875663E+02  0.15364878501E+02  0.26532518677E+02  0.51100000000E-03 0. -1.
        -11    1    3    3    0    0 -0.22008822805E+01 -0.91639303711E+01  0.66191901769E+01  0.11516734846E+02  0.51100000000E-03 0.  1.
         12    1    3    3    0    0 -0.56534770555E+01  0.18146463829E+02 -0.95089718863E+01  0.21252682152E+02  0.00000000000E+00 0. -1.
</event>
<event>
 7    1  0.5832130E-012  0.5930196E+02  0.7816164E-02  0.1266605E+00
        -11   -1    0    0    0    0  0.00000000000E+00  0.00000000000E+00  0.45593999997E+02  0.45594000000E+02  0.51100000000E-03 0.  1.
         11   -1    0    0    0    0 -0.00000000000E+00 -0.00000000000E+00 -0.45593999997E+02  0.45594000000E+02  0.51100000000E-03 0. -1.
    9900012    2    1    2    0    0 -0.17245731261E+01  0.31204702825E+02  0.63254729720E+01  0.59301964825E+02  0.50000037929E+02 0.  0.
         12    1    1    2    0    0  0.17245731261E+01 -0.31204702825E+02 -0.63254729720E+01  0.31886035175E+02  0.00000000000E+00 0. -1.
         11    1    3    3    0    0  0.14511696783E+02  0.22430451488E+02 -0.70445280221E+01  0.27628606059E+02  0.51100000000E-03 0. -1.
        -11    1    3    3    0    0  0.10550543705E+01  0.11199122436E+02  0.49837622952E+01  0.12303307277E+02  0.51100000000E-03 0.  1.
        -12    1    3    3    0    0 -0.17291324279E+02 -0.24248710991E+01  0.83862386989E+01  0.19370051489E+02  0.00000000000E+00 0.  1.
</event>
<event>
 7    1  0.5832130E-012  0.5930195E+02  0.7816164E-02  0.1266605E+00
        -11   -1    0    0    0    0  0.00000000000E+00  0.00000000000E+00  0.45593999997E+02  0.45594000000E+02  0.51100000000E-03 0. -1.
         11   -1    0    0    0    0 -0.00000000000E+00 -0.00000000000E+00 -0.45593999997E+02  0.45594000000E+02  0.51100000000E-03 0.  1.
    9900012    2    1    2    0    0  0.16526419189E+02  0.27259900613E+02  0.70411486569E+00  0.59301945205E+02  0.50000002148E+02 0.  0.
         12    1    1    2    0    0 -0.16526419189E+02 -0.27259900613E+02 -0.70411486569E+00  0.31886054795E+02  0.00000000000E+00 0. -1.
         11    1    3    3    0    0 -0.53525290265E+01  0.17056424961E+02  0.39459656700E+01  0.18306879712E+02  0.51100000000E-03 0. -1.
        -11    1    3    3    0    0  0.97771678065E+01  0.44520056680E+01 -0.18062244596E+02  0.21015661895E+02  0.51100000000E-03 0.  1.
         12    1    3    3    0    0  0.12101780409E+02  0.57514699832E+01  0.14820393791E+02  0.19979403599E+02  0.00000000000E+00 0. -1.
</event>
<event>
 7    1  0.5832130E-012  0.5930195E+02  0.7816164E-02  0.1266605E+00
        -11   -1    0    0    0    0  0.00000000000E+00  0.00000000000E+00  0.45593999997E+02  0.45594000000E+02  0.51100000000E-03 0.  1.
         11   -1    0    0    0    0 -0.00000000000E+00 -0.00000000000E+00 -0.45593999997E+02  0.45594000000E+02  0.51100000000E-03 0. -1.
    9900012    2    1    2    0    0 -0.26981145114E+02 -0.10317856239E+02  0.13501103632E+02  0.59301950569E+02  0.50000011929E+02 0.  0.
         12    1    1    2    0    0  0.26981145114E+02  0.10317856239E+02 -0.13501103632E+02  0.31886049431E+02  0.00000000000E+00 0. -1.
         11    1    3    3    0    0 -0.42873770502E+01 -0.19239479599E+02  0.19294339765E+02  0.27582797618E+02  0.51100000000E-03 0. -1.
        -11    1    3    3    0    0 -0.66081170938E+01 -0.49179493073E+01  0.29764095732E+01  0.87585644442E+01  0.51100000000E-03 0.  1.
         12    1    3    3    0    0 -0.16085650970E+02  0.13839572668E+02 -0.87696457056E+01  0.22960588506E+02  0.00000000000E+00 0. -1.
</event>
<event>
 7    1  0.5832130E-012  0.5930192E+02  0.7816164E-02  0.1266605E+00
        -11   -1    0    0    0    0  0.00000000000E+00  0.00000000000E+00  0.45593999997E+02  0.45594000000E+02  0.51100000000E-03 0.  1.
         11   -1    0    0    0    0 -0.00000000000E+00 -0.00000000000E+00 -0.45593999997E+02  0.45594000000E+02  0.51100000000E-03 0. -1.
    9900012    2    1    2    0    0 -0.29241564259E+02 -0.10977983448E+02  0.64137879533E+01  0.59301923465E+02  0.49999962499E+02 0.  0.
         12    1    1    2    0    0  0.29241564259E+02  0.10977983448E+02 -0.64137879533E+01  0.31886076535E+02  0.00000000000E+00 0. -1.
         11    1    3    3    0    0 -0.12779388301E+02 -0.55936357368E+01 -0.21988551490E+01  0.14122198495E+02  0.51100000000E-03 0.  1.
        -11    1    3    3    0    0 -0.18830070477E+02  0.22875438167E+01 -0.12415800749E+02  0.22670609153E+02  0.51100000000E-03 0. -1.
        -12    1    3    3    0    0  0.23678945190E+01 -0.76718915276E+01  0.21028443851E+02  0.22509115817E+02  0.00000000000E+00 0.  1.
</event>
<event>
 7    1  0.5832130E-012  0.5930197E+02  0.7816164E-02  0.1266605E+00
        -11   -1    0    0    0    0  0.00000000000E+00  0.00000000000E+00  0.45593999997E+02  0.45594000000E+02  0.51100000000E-03 0. -1.
         11   -1    0    0    0    0 -0.00000000000E+00 -0.00000000000E+00 -0.45593999997E+02  0.45594000000E+02  0.51100000000E-03 0.  1.
    9900012    2    1    2    0    0 -0.12721494154E+02 -0.29228369132E+02 -0.76460198409E+00  0.59301974976E+02  0.50000056442E+02 0.  0.
         12    1    1    2    0    0  0.12721494154E+02  0.29228369132E+02  0.76460198409E+00  0.31886025024E+02  0.00000000000E+00 0. -1.
         11    1    3    3    0    0 -0.15150559311E+02 -0.28516392528E+02 -0.10787886747E+02  0.34045595765E+02  0.51100000000E-03 0. -1.
        -11    1    3    3    0    0 -0.53321327103E+01 -0.69641006851E+01 -0.26232000112E+01  0.91548629784E+01  0.51100000000E-03 0.  1.
        -12    1    3    3    0    0  0.77611978672E+01  0.62521240814E+01  0.12646484774E+02  0.16101516233E+02  0.00000000000E+00 0.  1.
</event>
<event>
 7    1  0.5832130E-012  0.5930195E+02  0.7816164E-02  0.1266605E+00
        -11   -1    0    0    0    0  0.00000000000E+00  0.00000000000E+00  0.45593999997E+02  0.45594000000E+02  0.51100000000E-03 0.  1.
         11   -1    0    0    0    0 -0.00000000000E+00 -0.00000000000E+00 -0.45593999997E+02  0.45594000000E+02  0.51100000000E-03 0. -1.
    9900012    2    1    2    0    0 -0.21724315516E+02  0.16480456781E+02  0.16527822733E+02  0.59301948745E+02  0.50000008603E+02 0.  0.
         12    1    1    2    0    0  0.21724315516E+02 -0.16480456781E+02 -0.16527822733E+02  0.31886051255E+02  0.00000000000E+00 0. -1.
         11    1    3    3    0    0 -0.95329722213E+01 -0.21215513921E-01  0.17495273710E+02  0.19923920596E+02  0.51100000000E-03 0. -1.
        -11    1    3    3    0    0  0.35864838839E+01  0.13111824165E+02  0.12417764829E+02  0.18411509531E+02  0.51100000000E-03 0.  1.
         12    1    3    3    0    0 -0.15777827178E+02  0.33898481292E+01 -0.13385215805E+02  0.20966518618E+02  0.00000000000E+00 0. -1.
</event>
<event>
 7    1  0.5832130E-012  0.5930198E+02  0.7816164E-02  0.1266605E+00
        -11   -1    0    0    0    0  0.00000000000E+00  0.00000000000E+00  0.45593999997E+02  0.45594000000E+02  0.51100000000E-03 0. -1.
         11   -1    0    0    0    0 -0.00000000000E+00 -0.00000000000E+00 -0.45593999997E+02  0.45594000000E+02  0.51100000000E-03 0.  1.
    9900012    2    1    2    0    0  0.13497793359E+02 -0.20708854575E+02 -0.20141274143E+02  0.59301984139E+02  0.50000073153E+02 0.  0.
         12    1    1    2    0    0 -0.13497793359E+02  0.20708854575E+02  0.20141274143E+02  0.31886015861E+02  0.00000000000E+00 0. -1.
         11    1    3    3    0    0  0.30712421802E+00 -0.20332304377E+02 -0.78357219087E+01  0.21792096380E+02  0.51100000000E-03 0. -1.
        -11    1    3    3    0    0  0.13059454244E+02 -0.72077995423E+01  0.74016187107E+01  0.16651897165E+02  0.51100000000E-03 0.  1.
         12    1    3    3    0    0  0.13121489659E+00  0.68312493437E+01 -0.19707170945E+02  0.20857990594E+02  0.00000000000E+00 0. -1.
</event>
<event>
 7    1  0.5832130E-012  0.5930193E+02  0.7816164E-02  0.1266605E+00
        -11   -1    0    0    0    0  0.00000000000E+00  0.00000000000E+00  0.45593999997E+02  0.45594000000E+02  0.51100000000E-03 0.  1.
         11   -1    0    0    0    0 -0.00000000000E+00 -0.00000000000E+00 -0.45593999997E+02  0.45594000000E+02  0.51100000000E-03 0. -1.
    9900012    2    1    2    0    0  0.23176928512E+01  0.27079818363E+02  0.16674326947E+02  0.59301930285E+02  0.49999974937E+02 0.  0.
         12    1    1    2    0    0 -0.23176928512E+01 -0.27079818363E+02 -0.16674326947E+02  0.31886069715E+02  0.00000000000E+00 0. -1.
         11    1    3    3    0    0  0.51576053564E+01  0.54250071469E+01 -0.92140656286E+01  0.11871419512E+02  0.51100000000E-03 0. -1.
        -11    1    3    3    0    0 -0.39581918672E+01  0.21172836702E+02  0.26194890755E-01  0.21539660705E+02  0.51100000000E-03 0.  1.
         12    1    3    3    0    0  0.11182793620E+01  0.48197451429E+00  0.25862197685E+02  0.25890850068E+02  0.00000000000E+00 0. -1.
</event>
<event>
 7    1  0.5832130E-012  0.5930191E+02  0.7816164E-02  0.1266605E+00
        -11   -1    0    0    0    0  0.00000000000E+00  0.00000000000E+00  0.45593999997E+02  0.45594000000E+02  0.51100000000E-03 0.  1.
         11   -1    0    0    0    0 -0.00000000000E+00 -0.00000000000E+00 -0.45593999997E+02  0.45594000000E+02  0.51100000000E-03 0. -1.
    9900012    2    1    2    0    0  0.21270169352E+02  0.19866486791E+02  0.13024028815E+02  0.59301910114E+02  0.49999938149E+02 0.  0.
         12    1    1    2    0    0 -0.21270169352E+02 -0.19866486791E+02 -0.13024028815E+02  0.31886089886E+02  0.00000000000E+00 0. -1.
         11    1    3    3    0    0 -0.33845458977E+01 -0.31075438483E+01 -0.94710824415E+01  0.10526793556E+02  0.51100000000E-03 0. -1.
        -11    1    3    3    0    0 -0.14303068691E+01  0.35089375486E+01  0.14871986857E+02  0.15347130475E+02  0.51100000000E-03 0.  1.
         12    1    3    3    0    0  0.26085022118E+02  0.19465093090E+02  0.76231243995E+01  0.33427986083E+02  0.00000000000E+00 0. -1.
</event>
<event>
 7    1  0.5832130E-012  0.5930195E+02  0.7816164E-02  0.1266605E+00
        -11   -1    0    0    0    0  0.00000000000E+00  0.00000000000E+00  0.45593999997E+02  0.45594000000E+02  0.51100000000E-03 0.  1.
         11   -1    0    0    0    0 -0.00000000000E+00 -0.00000000000E+00 -0.45593999997E+02  0.45594000000E+02  0.51100000000E-03 0. -1.
    9900012    2    1    2    0    0  0.24452206828E+02 -0.68869877639E+01  0.19271208368E+02  0.59301945192E+02  0.50000002124E+02 0.  0.
         12    1    1    2    0    0 -0.24452206828E+02  0.68869877639E+01 -0.19271208368E+02  0.31886054808E+02  0.00000000000E+00 0. -1.
         11    1    3    3    0    0 -0.63551658696E+01 -0.28257873261E+01  0.19148937116E+02  0.20372898669E+02  0.51100000000E-03 0. -1.
        -11    1    3    3    0    0  0.60404982982E+01  0.38526191627E+01 -0.88839221016E+01  0.11412903499E+02  0.51100000000E-03 0.  1.
        -12    1    3    3    0    0  0.24766874400E+02 -0.79138196006E+01  0.90061933540E+01  0.27516143024E+02  0.00000000000E+00 0.  1.
</event>
<event>
 7    1  0.5832130E-012  0.5930194E+02  0.7816164E-02  0.1266605E+00
        -11   -1    0    0    0    0  0.00000000000E+00  0.00000000000E+00  0.45593999997E+02  0.45594000000E+02  0.51100000000E-03 0.  1.
         11   -1    0    0    0    0 -0.00000000000E+00 -0.00000000000E+00 -0.45593999997E+02  0.45594000000E+02  0.51100000000E-03 0. -1.
    9900012    2    1    2    0    0  0.14164874511E+02 -0.12014094014E+02  0.25917926788E+02  0.59301936369E+02  0.49999986033E+02 0.  0.
         12    1    1    2    0    0 -0.14164874511E+02  0.12014094014E+02 -0.25917926788E+02  0.31886063631E+02  0.00000000000E+00 0. -1.
         11    1    3    3    0    0 -0.25326592179E+01  0.64782818874E+01  0.10823903873E+02  0.12866211340E+02  0.51100000000E-03 0. -1.
        -11    1    3    3    0    0  0.15676091224E+02  0.78639259922E+01  0.60411744494E+01  0.18549311498E+02  0.51100000000E-03 0.  1.
        -12    1    3    3    0    0  0.10214425052E+01 -0.26356301893E+02  0.90528484649E+01  0.27886413531E+02  0.00000000000E+00 0.  1.
</event>
<event>
 7    1  0.5832130E-012  0.5930189E+02  0.7816164E-02  0.1266605E+00
        -11   -1    0    0    0    0  0.00000000000E+00  0.00000000000E+00  0.45593999997E+02  0.45594000000E+02  0.51100000000E-03 0.  1.
         11   -1    0    0    0    0 -0.00000000000E+00 -0.00000000000E+00 -0.45593999997E+02  0.45594000000E+02  0.51100000000E-03 0. -1.
    9900012    2    1    2    0    0 -0.54837142269E+01 -0.10923080617E+02  0.29450620476E+02  0.59301892393E+02  0.49999905831E+02 0.  0.
         12    1    1    2    0    0  0.54837142269E+01  0.10923080617E+02 -0.29450620476E+02  0.31886107607E+02  0.00000000000E+00 0. -1.
         11    1    3    3    0    0 -0.20140054371E+02 -0.13016431426E+02  0.34197164798E+02  0.41767156447E+02  0.51100000000E-03 0.  1.
        -11    1    3    3    0    0 -0.77213043027E+00  0.11763733095E+01 -0.18043642738E+00  0.14186603294E+01  0.51100000000E-03 0. -1.
        -12    1    3    3    0    0  0.15428470574E+02  0.91697749924E+00 -0.45661078952E+01  0.16116075617E+02  0.00000000000E+00 0.  1.
</event>
<event>
 7    1  0.5832130E-012  0.5930194E+02  0.7816164E-02  0.1266605E+00
        -11   -1    0    0    0    0  0.00000000000E+00  0.00000000000E+00  0.45593999997E+02  0.45594000000E+02  0.51100000000E-03 0.  1.
         11   -1    0    0    0    0 -0.00000000000E+00 -0.00000000000E+00 -0.45593999997E+02  0.45594000000E+02  0.51100000000E-03 0. -1.
    9900012    2    1    2    0    0  0.18542993866E+02  0.24431634648E+02  0.87162825722E+01  0.59301937606E+02  0.49999988289E+02 0.  0.
         12    1    1    2    0    0 -0.18542993866E+02 -0.24431634648E+02 -0.87162825722E+01  0.31886062394E+02  0.00000000000E+00 0. -1.
         11    1    3    3    0    0  0.12097053513E+00  0.99054587547E+01  0.13450923031E+02  0.16705091370E+02  0.51100000000E-03 0.  1.
        -11    1    3    3    0    0 -0.96124904723E+01  0.20678105482E+01 -0.66322580704E+01  0.11860129043E+02  0.51100000000E-03 0. -1.
        -12    1    3    3    0    0  0.28034513803E+02  0.12458365345E+02  0.18976176112E+01  0.30736717194E+02  0.00000000000E+00 0.  1.
</event>
<event>
 7    1  0.5832130E-012  0.5930196E+02  0.7816164E-02  0.1266605E+00
        -11   -1    0    0    0    0  0.00000000000E+00  0.00000000000E+00  0.45593999997E+02  0.45594000000E+02  0.51100000000E-03 0. -1.
         11   -1    0    0    0    0 -0.00000000000E+00 -0.00000000000E+00 -0.45593999997E+02  0.45594000000E+02  0.51100000000E-03 0.  1.
    9900012    2    1    2    0    0 -0.30094374820E+02 -0.83326460127E+01 -0.64510035171E+01  0.59301955533E+02  0.50000020984E+02 0.  0.
         12    1    1    2    0    0  0.30094374820E+02  0.83326460127E+01  0.64510035171E+01  0.31886044467E+02  0.00000000000E+00 0. -1.
         11    1    3    3    0    0 -0.30337769312E+02  0.48948662411E+00  0.12036435476E+02  0.32641930446E+02  0.51100000000E-03 0. -1.
        -11    1    3    3    0    0  0.49786037761E+00  0.31104842324E+01 -0.13261912737E+02  0.13630895305E+02  0.51100000000E-03 0.  1.
        -12    1    3    3    0    0 -0.25446588495E+00 -0.11932616869E+02 -0.52255262558E+01  0.13029129782E+02  0.00000000000E+00 0.  1.
</event>
<event>
 7    1  0.5832130E-012  0.5930190E+02  0.7816164E-02  0.1266605E+00
        -11   -1    0    0    0    0  0.00000000000E+00  0.00000000000E+00  0.45593999997E+02  0.45594000000E+02  0.51100000000E-03 0.  1.
         11   -1    0    0    0    0 -0.00000000000E+00 -0.00000000000E+00 -0.45593999997E+02  0.45594000000E+02  0.51100000000E-03 0. -1.
    9900012    2    1    2    0    0 -0.30380269110E+02 -0.50896979125E+00  0.96697387453E+01  0.59301895678E+02  0.49999911821E+02 0.  0.
         12    1    1    2    0    0  0.30380269110E+02  0.50896979125E+00 -0.96697387453E+01  0.31886104322E+02  0.00000000000E+00 0. -1.
         11    1    3    3    0    0  0.72039984852E+01 -0.11253250778E+02  0.57935932048E+01  0.14563618017E+02  0.51100000000E-03 0. -1.
        -11    1    3    3    0    0 -0.62609557019E+01  0.30773126380E+01  0.97206396957E+01  0.11964959495E+02  0.51100000000E-03 0.  1.
        -12    1    3    3    0    0 -0.31323311894E+02  0.76669683490E+01 -0.58444941552E+01  0.32773318165E+02  0.00000000000E+00 0.  1.
</event>
<event>
 7    1  0.5832130E-012  0.5930194E+02  0.7816164E-02  0.1266605E+00
        -11   -1    0    0    0    0  0.00000000000E+00  0.00000000000E+00  0.45593999997E+02  0.45594000000E+02  0.51100000000E-03 0. -1.
         11   -1    0    0    0    0 -0.00000000000E+00 -0.00000000000E+00 -0.45593999997E+02  0.45594000000E+02  0.51100000000E-03 0.  1.
    9900012    2    1    2    0    0  0.89888191260E+01  0.29925017700E+02 -0.63573168552E+01  0.59301936724E+02  0.49999986680E+02 0.  0.
         12    1    1    2    0    0 -0.89888191260E+01 -0.29925017700E+02  0.63573168552E+01  0.31886063276E+02  0.00000000000E+00 0. -1.
         11    1    3    3    0    0  0.11403547166E+02  0.27122528445E+01  0.46824101878E+01  0.12622288576E+02  0.51100000000E-03 0.  1.
        -11    1    3    3    0    0  0.84301327090E+01 -0.55012010563E+01 -0.63388297210E+01  0.11895844360E+02  0.51100000000E-03 0. -1.
        -12    1    3    3    0    0 -0.10844860749E+02  0.32713965912E+02 -0.47008973219E+01  0.34783803788E+02  0.00000000000E+00 0.  1.
</event>
<event>
 7    1  0.5832130E-012  0.5930197E+02  0.7816164E-02  0.1266605E+00
        -11   -1    0    0    0    0  0.00000000000E+00  0.00000000000E+00  0.45593999997E+02  0.45594000000E+02  0.51100000000E-03 0. -1.
         11   -1    0    0    0    0 -0.00000000000E+00 -0.00000000000E+00 -0.45593999997E+02  0.45594000000E+02  0.51100000000E-03 0.  1.
    9900012    2    1    2    0    0 -0.15637367510E+02 -0.39767473638E+01 -0.27502315123E+02  0.59301966704E+02  0.50000041357E+02 0.  0.
         12    1    1    2    0    0  0.15637367510E+02  0.39767473638E+01  0.27502315123E+02  0.31886033296E+02  0.00000000000E+00 0. -1.
         11    1    3    3    0    0  0.32772610069E+01 -0.71170295687E+01 -0.72531758585E+01  0.10677130227E+02  0.51100000000E-03 0. -1.
        -11    1    3    3    0    0 -0.71801005523E+01 -0.18182356219E+02 -0.11942769980E+02  0.22908113774E+02  0.51100000000E-03 0.  1.
         12    1    3    3    0    0 -0.11734527964E+02  0.21322638424E+02 -0.83063692843E+01  0.25716722703E+02  0.00000000000E+00 0. -1.
</event>
<event>
 7    1  0.5832130E-012  0.5930197E+02  0.7816164E-02  0.1266605E+00
        -11   -1    0    0    0    0  0.00000000000E+00  0.00000000000E+00  0.45593999997E+02  0.45594000000E+02  0.51100000000E-03 0.  1.
         11   -1    0    0    0    0 -0.00000000000E+00 -0.00000000000E+00 -0.45593999997E+02  0.45594000000E+02  0.51100000000E-03 0. -1.
    9900012    2    1    2    0    0  0.14469539575E+02 -0.26371213009E+02  0.10578788957E+02  0.59301965018E+02  0.50000038281E+02 0.  0.
         12    1    1    2    0    0 -0.14469539575E+02  0.26371213009E+02 -0.10578788957E+02  0.31886034982E+02  0.00000000000E+00 0. -1.
         11    1    3    3    0    0 -0.55597203357E+01  0.33799947214E+01 -0.93779843543E+01  0.11414089773E+02  0.51100000000E-03 0. -1.
        -11    1    3    3    0    0 -0.32005234044E+01 -0.16058987587E+02  0.97389179481E+01  0.19052059087E+02  0.51100000000E-03 0.  1.
         12    1    3    3    0    0  0.23229783315E+02 -0.13692220143E+02  0.10217855363E+02  0.28835816159E+02  0.00000000000E+00 0. -1.
</event>
<event>
 7    1  0.5832130E-012  0.5930194E+02  0.7816164E-02  0.1266605E+00
        -11   -1    0    0    0    0  0.00000000000E+00  0.00000000000E+00  0.45593999997E+02  0.45594000000E+02  0.51100000000E-03 0.  1.
         11   -1    0    0    0    0 -0.00000000000E+00 -0.00000000000E+00 -0.45593999997E+02  0.45594000000E+02  0.51100000000E-03 0. -1.
    9900012    2    1    2    0    0  0.10481236036E+01 -0.24372214040E+02  0.20533322000E+02  0.59301942033E+02  0.49999996362E+02 0.  0.
         12    1    1    2    0    0 -0.10481236036E+01  0.24372214040E+02 -0.20533322000E+02  0.31886057967E+02  0.00000000000E+00 0. -1.
         11    1    3    3    0    0 -0.28384388445E+01 -0.10721471044E+01 -0.80674775140E+01  0.86191895319E+01  0.51100000000E-03 0. -1.
        -11    1    3    3    0    0 -0.12054752556E+02  0.13506572963E+01  0.11466914568E+02  0.16692257615E+02  0.51100000000E-03 0.  1.
        -12    1    3    3    0    0  0.15941315005E+02 -0.24650724232E+02  0.17133884946E+02  0.33990494886E+02  0.00000000000E+00 0.  1.
</event>
<event>
 7    1  0.5832130E-012  0.5930194E+02  0.7816164E-02  0.1266605E+00
        -11   -1    0    0    0    0  0.00000000000E+00  0.00000000000E+00  0.45593999997E+02  0.45594000000E+02  0.51100000000E-03 0.  1.
         11   -1    0    0    0    0 -0.00000000000E+00 -0.00000000000E+00 -0.45593999997E+02  0.45594000000E+02  0.51100000000E-03 0. -1.
    9900012    2    1    2    0    0  0.17567781879E+02 -0.21340992358E+01  0.26524317835E+02  0.59301940722E+02  0.49999993971E+02 0.  0.
         12    1    1    2    0    0 -0.17567781879E+02  0.21340992358E+01 -0.26524317835E+02  0.31886059278E+02  0.00000000000E+00 0. -1.
         11    1    3    3    0    0 -0.92556242403E+01 -0.45226180478E+01 -0.36486460406E+01  0.10928553073E+02  0.51100000000E-03 0. -1.
        -11    1    3    3    0    0  0.54718489138E+01  0.11985219823E+02  0.17015226504E+02  0.21519864265E+02  0.51100000000E-03 0.  1.
         12    1    3    3    0    0  0.21351557205E+02 -0.95967010109E+01  0.13157737371E+02  0.26853523384E+02  0.00000000000E+00 0. -1.
</event>
<event>
 7    1  0.5832130E-012  0.5930194E+02  0.7816164E-02  0.1266605E+00
        -11   -1    0    0    0    0  0.00000000000E+00  0.00000000000E+00  0.45593999997E+02  0.45594000000E+02  0.51100000000E-03 0.  1.
         11   -1    0    0    0    0 -0.00000000000E+00 -0.00000000000E+00 -0.45593999997E+02  0.45594000000E+02  0.51100000000E-03 0. -1.
    9900012    2    1    2    0    0 -0.11004519444E+02 -0.13657053013E+02  0.26629054997E+02  0.59301935407E+02  0.49999984278E+02 0.  0.
         12    1    1    2    0    0  0.11004519444E+02  0.13657053013E+02 -0.26629054997E+02  0.31886064593E+02  0.00000000000E+00 0. -1.
         11    1    3    3    0    0 -0.73547331511E+00 -0.31660258746E+01 -0.10948085953E+02  0.11420386470E+02  0.51100000000E-03 0. -1.
        -11    1    3    3    0    0 -0.14673776279E+02 -0.15633717984E+02  0.34071542801E+02  0.40256712203E+02  0.51100000000E-03 0.  1.
        -12    1    3    3    0    0  0.44047301498E+01  0.51426908462E+01  0.35055981492E+01  0.76248367338E+01  0.00000000000E+00 0.  1.
</event>
<event>
 7    1  0.5832130E-012  0.5930196E+02  0.7816164E-02  0.1266605E+00
        -11   -1    0    0    0    0  0.00000000000E+00  0.00000000000E+00  0.45593999997E+02  0.45594000000E+02  0.51100000000E-03 0.  1.
         11   -1    0    0    0    0 -0.00000000000E+00 -0.00000000000E+00 -0.45593999997E+02  0.45594000000E+02  0.51100000000E-03 0. -1.
    9900012    2    1    2    0    0 -0.72758635412E+01 -0.13883521552E+02  0.27767416735E+02  0.59301956139E+02  0.50000022088E+02 0.  0.
         12    1    1    2    0    0  0.72758635412E+01  0.13883521552E+02 -0.27767416735E+02  0.31886043861E+02  0.00000000000E+00 0. -1.
         11    1    3    3    0    0  0.24114310304E+01 -0.76830128899E+01  0.15386210152E+02  0.17366034372E+02  0.51100000000E-03 0. -1.
        -11    1    3    3    0    0  0.13011749513E+02 -0.78193613232E+01  0.11705107333E+02  0.19169182947E+02  0.51100000000E-03 0.  1.
         12    1    3    3    0    0 -0.22699044085E+02  0.16188526611E+01  0.67609924962E+00  0.22766738820E+02  0.00000000000E+00 0. -1.
</event>
<event>
 7    1  0.5832130E-012  0.5930192E+02  0.7816164E-02  0.1266605E+00
        -11   -1    0    0    0    0  0.00000000000E+00  0.00000000000E+00  0.45593999997E+02  0.45594000000E+02  0.51100000000E-03 0. -1.
         11   -1    0    0    0    0 -0.00000000000E+00 -0.00000000000E+00 -0.45593999997E+02  0.45594000000E+02  0.51100000000E-03 0.  1.
    9900012    2    1    2    0    0  0.24637215563E+02 -0.11137266471E+02 -0.16902405314E+02  0.59301915252E+02  0.49999947521E+02 0.  0.
         12    1    1    2    0    0 -0.24637215563E+02  0.11137266471E+02  0.16902405314E+02  0.31886084748E+02  0.00000000000E+00 0. -1.
         11    1    3    3    0    0  0.10467021148E+02 -0.59302810901E+00  0.92408742605E+01  0.13975119728E+02  0.51100000000E-03 0. -1.
        -11    1    3    3    0    0  0.14718476428E+02 -0.20431197184E+02 -0.11579540008E+02  0.27715575292E+02  0.51100000000E-03 0.  1.
        -12    1    3    3    0    0 -0.54828201298E+00  0.98869588221E+01 -0.14563739566E+02  0.17611220232E+02  0.00000000000E+00 0.  1.
</event>
<event>
 7    1  0.5832130E-012  0.5930192E+02  0.7816164E-02  0.1266605E+00
        -11   -1    0    0    0    0  0.00000000000E+00  0.00000000000E+00  0.45593999997E+02  0.45594000000E+02  0.51100000000E-03 0.  1.
         11   -1    0    0    0    0 -0.00000000000E+00 -0.00000000000E+00 -0.45593999997E+02  0.45594000000E+02  0.51100000000E-03 0. -1.
    9900012    2    1    2    0    0  0.14073215598E+02  0.17516432852E+02  0.22623909402E+02  0.59301920063E+02  0.49999956294E+02 0.  0.
         12    1    1    2    0    0 -0.14073215598E+02 -0.17516432852E+02 -0.22623909402E+02  0.31886079937E+02  0.00000000000E+00 0. -1.
         11    1    3    3    0    0  0.15519734412E+02  0.12256561385E+02 -0.87113110195E+01  0.21609544029E+02  0.51100000000E-03 0. -1.
        -11    1    3    3    0    0  0.52659547949E+01 -0.46634042124E+01  0.46247497457E+01  0.84181903769E+01  0.51100000000E-03 0.  1.
        -12    1    3    3    0    0 -0.67124736091E+01  0.99232756797E+01  0.26710470676E+02  0.29274185657E+02  0.00000000000E+00 0.  1.
</event>
<event>
 7    1  0.5832130E-012  0.5930175E+02  0.7816164E-02  0.1266605E+00
        -11   -1    0    0    0    0  0.00000000000E+00  0.00000000000E+00  0.45593999997E+02  0.45594000000E+02  0.51100000000E-03 0.  1.
         11   -1    0    0    0    0 -0.00000000000E+00 -0.00000000000E+00 -0.45593999997E+02  0.45594000000E+02  0.51100000000E-03 0. -1.
    9900012    2    1    2    0    0  0.39559035927E+01  0.11197243917E+02  0.29592318405E+02  0.59301752915E+02  0.49999651455E+02 0.  0.
         12    1    1    2    0    0 -0.39559035927E+01 -0.11197243917E+02 -0.29592318405E+02  0.31886247085E+02  0.00000000000E+00 0. -1.
         11    1    3    3    0    0 -0.13066327855E+02 -0.25521443331E-01  0.48033733889E+01  0.13921277640E+02  0.51100000000E-03 0. -1.
        -11    1    3    3    0    0  0.90084261387E+01 -0.10966667420E+02  0.69467949161E+01  0.15801186527E+02  0.51100000000E-03 0.  1.
         12    1    3    3    0    0  0.80138053093E+01  0.22189432780E+02  0.17842150100E+02  0.29579288748E+02  0.00000000000E+00 0. -1.
</event>
<event>
 7    1  0.5832130E-012  0.5930199E+02  0.7816164E-02  0.1266605E+00
        -11   -1    0    0    0    0  0.00000000000E+00  0.00000000000E+00  0.45593999997E+02  0.45594000000E+02  0.51100000000E-03 0.  1.
         11   -1    0    0    0    0 -0.00000000000E+00 -0.00000000000E+00 -0.45593999997E+02  0.45594000000E+02  0.51100000000E-03 0. -1.
    9900012    2    1    2    0    0 -0.37762556562E+01  0.30428039848E+02  0.87516987134E+01  0.59301985101E+02  0.50000074907E+02 0.  0.
         12    1    1    2    0    0  0.37762556562E+01 -0.30428039848E+02 -0.87516987134E+01  0.31886014899E+02  0.00000000000E+00 0. -1.
         11    1    3    3    0    0  0.65075258189E+01  0.21535450048E+02 -0.87701310344E+01  0.24146194310E+02  0.51100000000E-03 0. -1.
        -11    1    3    3    0    0 -0.57961104966E+01  0.35601533014E+01 -0.69416725154E+01  0.97188685550E+01  0.51100000000E-03 0.  1.
        -12    1    3    3    0    0 -0.44876709786E+01  0.53324364995E+01  0.24463502263E+02  0.25436922236E+02  0.00000000000E+00 0.  1.
</event>
<event>
 7    1  0.5832130E-012  0.5930196E+02  0.7816164E-02  0.1266605E+00
        -11   -1    0    0    0    0  0.00000000000E+00  0.00000000000E+00  0.45593999997E+02  0.45594000000E+02  0.51100000000E-03 0. -1.
         11   -1    0    0    0    0 -0.00000000000E+00 -0.00000000000E+00 -0.45593999997E+02  0.45594000000E+02  0.51100000000E-03 0.  1.
    9900012    2    1    2    0    0  0.21574184118E+02 -0.18886088531E+02 -0.13949534430E+02  0.59301964324E+02  0.50000037015E+02 0.  0.
         12    1    1    2    0    0 -0.21574184118E+02  0.18886088531E+02  0.13949534430E+02  0.31886035676E+02  0.00000000000E+00 0. -1.
         11    1    3    3    0    0  0.94352975579E+01  0.64951270926E+01  0.77115077665E+01  0.13808651935E+02  0.51100000000E-03 0. -1.
        -11    1    3    3    0    0  0.95104062967E+01 -0.26063828091E+02 -0.44862115566E+01  0.28105107313E+02  0.51100000000E-03 0.  1.
        -12    1    3    3    0    0  0.26284802634E+01  0.68261246795E+00 -0.17174830639E+02  0.17388205076E+02  0.00000000000E+00 0.  1.
</event>
<event>
 7    1  0.5832130E-012  0.5930195E+02  0.7816164E-02  0.1266605E+00
        -11   -1    0    0    0    0  0.00000000000E+00  0.00000000000E+00  0.45593999997E+02  0.45594000000E+02  0.51100000000E-03 0. -1.
         11   -1    0    0    0    0 -0.00000000000E+00 -0.00000000000E+00 -0.45593999997E+02  0.45594000000E+02  0.51100000000E-03 0.  1.
    9900012    2    1    2    0    0 -0.32160738023E+01 -0.69606600524E+01 -0.30950388766E+02  0.59301945308E+02  0.50000002335E+02 0.  0.
         12    1    1    2    0    0  0.32160738023E+01  0.69606600524E+01  0.30950388766E+02  0.31886054692E+02  0.00000000000E+00 0. -1.
         11    1    3    3    0    0  0.20036537042E+01 -0.61142531810E+01  0.76150731445E+01  0.99693560166E+01  0.51100000000E-03 0. -1.
        -11    1    3    3    0    0 -0.12743138558E+02 -0.26854638804E+01 -0.35884711353E+01  0.13508383394E+02  0.51100000000E-03 0.  1.
        -12    1    3    3    0    0  0.75234110518E+01  0.18390570090E+01 -0.34976990775E+02  0.35824205898E+02  0.00000000000E+00 0.  1.
</event>
<event>
 7    1  0.5832130E-012  0.5930192E+02  0.7816164E-02  0.1266605E+00
        -11   -1    0    0    0    0  0.00000000000E+00  0.00000000000E+00  0.45593999997E+02  0.45594000000E+02  0.51100000000E-03 0.  1.
         11   -1    0    0    0    0 -0.00000000000E+00 -0.00000000000E+00 -0.45593999997E+02  0.45594000000E+02  0.51100000000E-03 0. -1.
    9900012    2    1    2    0    0  0.11302467167E+02 -0.27931569334E+02 -0.10430903773E+02  0.59301920231E+02  0.49999956600E+02 0.  0.
         12    1    1    2    0    0 -0.11302467167E+02  0.27931569334E+02  0.10430903773E+02  0.31886079769E+02  0.00000000000E+00 0. -1.
         11    1    3    3    0    0 -0.98770701362E+01  0.40468492286E+01 -0.41622546966E+01  0.11456782601E+02  0.51100000000E-03 0. -1.
        -11    1    3    3    0    0 -0.32014651825E+01 -0.12265608209E+02  0.61901508594E+01  0.14107178739E+02  0.51100000000E-03 0.  1.
        -12    1    3    3    0    0  0.24381002486E+02 -0.19712810354E+02 -0.12458799936E+02  0.33737958890E+02  0.00000000000E+00 0.  1.
</event>
<event>
 7    1  0.5832130E-012  0.5930201E+02  0.7816164E-02  0.1266605E+00
        -11   -1    0    0    0    0  0.00000000000E+00  0.00000000000E+00  0.45593999997E+02  0.45594000000E+02  0.51100000000E-03 0.  1.
         11   -1    0    0    0    0 -0.00000000000E+00 -0.00000000000E+00 -0.45593999997E+02  0.45594000000E+02  0.51100000000E-03 0. -1.
    9900012    2    1    2    0    0 -0.16369152705E+02  0.20759718574E+01  0.27284745024E+02  0.59302013573E+02  0.50000126833E+02 0.  0.
         12    1    1    2    0    0  0.16369152705E+02 -0.20759718574E+01 -0.27284745024E+02  0.31885986427E+02  0.00000000000E+00 0. -1.
         11    1    3    3    0    0 -0.24522250712E+00  0.16930408471E+02  0.88187216374E+01  0.19091063790E+02  0.51100000000E-03 0. -1.
        -11    1    3    3    0    0 -0.34573749289E+01  0.44442214496E+01  0.16040043413E+02  0.16999633485E+02  0.51100000000E-03 0.  1.
         12    1    3    3    0    0 -0.12666555269E+02 -0.19298658063E+02  0.24259799737E+01  0.23211316297E+02  0.00000000000E+00 0. -1.
</event>
<event>
 7    1  0.5832130E-012  0.5930193E+02  0.7816164E-02  0.1266605E+00
        -11   -1    0    0    0    0  0.00000000000E+00  0.00000000000E+00  0.45593999997E+02  0.45594000000E+02  0.51100000000E-03 0.  1.
         11   -1    0    0    0    0 -0.00000000000E+00 -0.00000000000E+00 -0.45593999997E+02  0.45594000000E+02  0.51100000000E-03 0. -1.
    9900012    2    1    2    0    0 -0.23584152610E+02  0.21285495809E+02  0.27270284262E+01  0.59301932977E+02  0.49999979846E+02 0.  0.
         12    1    1    2    0    0  0.23584152610E+02 -0.21285495809E+02 -0.27270284262E+01  0.31886067023E+02  0.00000000000E+00 0. -1.
         11    1    3    3    0    0 -0.15920130411E+02  0.10174463420E+02 -0.45775544007E+01  0.19440274245E+02  0.51100000000E-03 0. -1.
        -11    1    3    3    0    0 -0.74053859716E+01  0.18298749821E+02 -0.92589526423E+01  0.21803948971E+02  0.51100000000E-03 0.  1.
         12    1    3    3    0    0 -0.25863622795E+00 -0.71877174320E+01  0.16563535469E+02  0.18057709761E+02  0.00000000000E+00 0. -1.
</event>
<event>
 7    1  0.5832130E-012  0.5930201E+02  0.7816164E-02  0.1266605E+00
        -11   -1    0    0    0    0  0.00000000000E+00  0.00000000000E+00  0.45593999997E+02  0.45594000000E+02  0.51100000000E-03 0.  1.
         11   -1    0    0    0    0 -0.00000000000E+00 -0.00000000000E+00 -0.45593999997E+02  0.45594000000E+02  0.51100000000E-03 0. -1.
    9900012    2    1    2    0    0 -0.39394253708E+01  0.30365960535E+02  0.88941524527E+01  0.59302006534E+02  0.50000113996E+02 0.  0.
         12    1    1    2    0    0  0.39394253708E+01 -0.30365960535E+02 -0.88941524527E+01  0.31885993466E+02  0.00000000000E+00 0. -1.
         11    1    3    3    0    0 -0.28673767337E+01 -0.24118293365E+01 -0.59018316987E+01  0.69907358513E+01  0.51100000000E-03 0. -1.
        -11    1    3    3    0    0  0.10052979944E+02 -0.21209489807E+01 -0.41400506790E+01  0.11077041582E+02  0.51100000000E-03 0.  1.
         12    1    3    3    0    0 -0.11125028581E+02  0.34898738852E+02  0.18936034830E+02  0.41234229100E+02  0.00000000000E+00 0. -1.
</event>
<event>
 7    1  0.5832130E-012  0.5930194E+02  0.7816164E-02  0.1266605E+00
        -11   -1    0    0    0    0  0.00000000000E+00  0.00000000000E+00  0.45593999997E+02  0.45594000000E+02  0.51100000000E-03 0. -1.
         11   -1    0    0    0    0 -0.00000000000E+00 -0.00000000000E+00 -0.45593999997E+02  0.45594000000E+02  0.51100000000E-03 0.  1.
    9900012    2    1    2    0    0 -0.85310477824E+01  0.24435113545E+02 -0.18624370362E+02  0.59301941579E+02  0.49999995534E+02 0.  0.
         12    1    1    2    0    0  0.85310477824E+01 -0.24435113545E+02  0.18624370362E+02  0.31886058421E+02  0.00000000000E+00 0. -1.
         11    1    3    3    0    0 -0.10316256871E+02  0.62817946337E+01 -0.52960683751E+01  0.13188420684E+02  0.51100000000E-03 0. -1.
        -11    1    3    3    0    0 -0.14427443636E+02  0.13750906308E+02 -0.19815258546E+02  0.28104857688E+02  0.51100000000E-03 0.  1.
         12    1    3    3    0    0  0.16212652724E+02  0.44024126033E+01  0.64869565590E+01  0.18008663207E+02  0.00000000000E+00 0. -1.
</event>
<event>
 7    1  0.5832130E-012  0.5930197E+02  0.7816164E-02  0.1266605E+00
        -11   -1    0    0    0    0  0.00000000000E+00  0.00000000000E+00  0.45593999997E+02  0.45594000000E+02  0.51100000000E-03 0. -1.
         11   -1    0    0    0    0 -0.00000000000E+00 -0.00000000000E+00 -0.45593999997E+02  0.45594000000E+02  0.51100000000E-03 0.  1.
    9900012    2    1    2    0    0  0.27307108441E+02  0.76768450045E+01 -0.14563877412E+02  0.59301974128E+02  0.50000054896E+02 0.  0.
         12    1    1    2    0    0 -0.27307108441E+02 -0.76768450045E+01  0.14563877412E+02  0.31886025872E+02  0.00000000000E+00 0. -1.
         11    1    3    3    0    0 -0.66675224052E+01 -0.72798723972E+01  0.85321079385E+01  0.13047960119E+02  0.51100000000E-03 0.  1.
        -11    1    3    3    0    0  0.76458893950E+01  0.44949350870E+01 -0.13861020443E+02  0.16455757475E+02  0.51100000000E-03 0. -1.
        -12    1    3    3    0    0  0.26328741451E+02  0.10461782315E+02 -0.92349649071E+01  0.29798256534E+02  0.00000000000E+00 0.  1.
</event>
<event>
 7    1  0.5832130E-012  0.5930195E+02  0.7816164E-02  0.1266605E+00
        -11   -1    0    0    0    0  0.00000000000E+00  0.00000000000E+00  0.45593999997E+02  0.45594000000E+02  0.51100000000E-03 0.  1.
         11   -1    0    0    0    0 -0.00000000000E+00 -0.00000000000E+00 -0.45593999997E+02  0.45594000000E+02  0.51100000000E-03 0. -1.
    9900012    2    1    2    0    0  0.43699478824E+01 -0.19025501013E+02  0.25212183539E+02  0.59301947687E+02  0.50000006674E+02 0.  0.
         12    1    1    2    0    0 -0.43699478824E+01  0.19025501013E+02 -0.25212183539E+02  0.31886052313E+02  0.00000000000E+00 0. -1.
         11    1    3    3    0    0  0.57705321405E+01  0.10001593910E+02 -0.24104338775E+01  0.11795809157E+02  0.51100000000E-03 0. -1.
        -11    1    3    3    0    0  0.39002986593E+01  0.19647024109E+01  0.11226386305E+02  0.12045917770E+02  0.51100000000E-03 0.  1.
        -12    1    3    3    0    0 -0.53008829174E+01 -0.30991797334E+02  0.16396231112E+02  0.35460220760E+02  0.00000000000E+00 0.  1.
</event>
<event>
 7    1  0.5832130E-012  0.5930195E+02  0.7816164E-02  0.1266605E+00
        -11   -1    0    0    0    0  0.00000000000E+00  0.00000000000E+00  0.45593999997E+02  0.45594000000E+02  0.51100000000E-03 0. -1.
         11   -1    0    0    0    0 -0.00000000000E+00 -0.00000000000E+00 -0.45593999997E+02  0.45594000000E+02  0.51100000000E-03 0.  1.
    9900012    2    1    2    0    0  0.21983607225E+02 -0.97374008904E+01 -0.20943356414E+02  0.59301950690E+02  0.50000012150E+02 0.  0.
         12    1    1    2    0    0 -0.21983607225E+02  0.97374008904E+01  0.20943356414E+02  0.31886049310E+02  0.00000000000E+00 0. -1.
         11    1    3    3    0    0  0.24565473317E+00 -0.17472305634E+02  0.71995453692E+01  0.18899081041E+02  0.51100000000E-03 0. -1.
        -11    1    3    3    0    0  0.56046372907E+01 -0.56698519738E+01 -0.87311884665E+01  0.11823401916E+02  0.51100000000E-03 0.  1.
        -12    1    3    3    0    0  0.16133315201E+02  0.13404756717E+02 -0.19411713316E+02  0.28579467733E+02  0.00000000000E+00 0.  1.
</event>
<event>
 7    1  0.5832130E-012  0.5930194E+02  0.7816164E-02  0.1266605E+00
        -11   -1    0    0    0    0  0.00000000000E+00  0.00000000000E+00  0.45593999997E+02  0.45594000000E+02  0.51100000000E-03 0. -1.
         11   -1    0    0    0    0 -0.00000000000E+00 -0.00000000000E+00 -0.45593999997E+02  0.45594000000E+02  0.51100000000E-03 0.  1.
    9900012    2    1    2    0    0  0.79295805750E+01  0.18298231715E+02 -0.24880055311E+02  0.59301942165E+02  0.49999996603E+02 0.  0.
         12    1    1    2    0    0 -0.79295805750E+01 -0.18298231715E+02  0.24880055311E+02  0.31886057835E+02  0.00000000000E+00 0. -1.
         11    1    3    3    0    0  0.14845277658E+01 -0.87078587416E+01 -0.77435532615E+01  0.11747052563E+02  0.51100000000E-03 0. -1.
        -11    1    3    3    0    0  0.19248150344E+02  0.93997463904E+01 -0.13927398095E+02  0.25550321756E+02  0.51100000000E-03 0.  1.
        -12    1    3    3    0    0 -0.12803097535E+02  0.17606344066E+02 -0.32091039536E+01  0.22004567845E+02  0.00000000000E+00 0.  1.
</event>
<event>
 7    1  0.5832130E-012  0.5930196E+02  0.7816164E-02  0.1266605E+00
        -11   -1    0    0    0    0  0.00000000000E+00  0.00000000000E+00  0.45593999997E+02  0.45594000000E+02  0.51100000000E-03 0.  1.
         11   -1    0    0    0    0 -0.00000000000E+00 -0.00000000000E+00 -0.45593999997E+02  0.45594000000E+02  0.51100000000E-03 0. -1.
    9900012    2    1    2    0    0 -0.94039495047E+00 -0.22813699968E+02  0.22256918865E+02  0.59301957815E+02  0.50000025144E+02 0.  0.
         12    1    1    2    0    0  0.94039495047E+00  0.22813699968E+02 -0.22256918865E+02  0.31886042185E+02  0.00000000000E+00 0. -1.
         11    1    3    3    0    0 -0.13330844112E+02 -0.73085620423E+01  0.14694388781E+02  0.21143593492E+02  0.51100000000E-03 0. -1.
        -11    1    3    3    0    0 -0.97321327863E+01 -0.11135059466E+02  0.19173918074E+01  0.14912422657E+02  0.51100000000E-03 0.  1.
         12    1    3    3    0    0  0.22122581948E+02 -0.43700784595E+01  0.56451382767E+01  0.23245941666E+02  0.00000000000E+00 0. -1.
</event>
<event>
 7    1  0.5832130E-012  0.5930194E+02  0.7816164E-02  0.1266605E+00
        -11   -1    0    0    0    0  0.00000000000E+00  0.00000000000E+00  0.45593999997E+02  0.45594000000E+02  0.51100000000E-03 0. -1.
         11   -1    0    0    0    0 -0.00000000000E+00 -0.00000000000E+00 -0.45593999997E+02  0.45594000000E+02  0.51100000000E-03 0.  1.
    9900012    2    1    2    0    0  0.19583029230E+02 -0.13269771792E+02 -0.21380812657E+02  0.59301936788E+02  0.49999986797E+02 0.  0.
         12    1    1    2    0    0 -0.19583029230E+02  0.13269771792E+02  0.21380812657E+02  0.31886063212E+02  0.00000000000E+00 0. -1.
         11    1    3    3    0    0 -0.36330513972E+01  0.35284641726E+01 -0.39554344641E+01  0.64260862064E+01  0.51100000000E-03 0. -1.
        -11    1    3    3    0    0  0.14937529438E+01 -0.64988594327E+01 -0.26389256224E+02  0.27218730979E+02  0.51100000000E-03 0.  1.
         12    1    3    3    0    0  0.21722327684E+02 -0.10299376532E+02  0.89638780312E+01  0.25657119603E+02  0.00000000000E+00 0. -1.
</event>
<event>
 7    1  0.5832130E-012  0.5930193E+02  0.7816164E-02  0.1266605E+00
        -11   -1    0    0    0    0  0.00000000000E+00  0.00000000000E+00  0.45593999997E+02  0.45594000000E+02  0.51100000000E-03 0.  1.
         11   -1    0    0    0    0 -0.00000000000E+00 -0.00000000000E+00 -0.45593999997E+02  0.45594000000E+02  0.51100000000E-03 0. -1.
    9900012    2    1    2    0    0  0.17322701268E+01  0.59914026850E+00  0.31833340087E+02  0.59301932980E+02  0.49999979852E+02 0.  0.
         12    1    1    2    0    0 -0.17322701268E+01 -0.59914026850E+00 -0.31833340087E+02  0.31886067020E+02  0.00000000000E+00 0. -1.
         11    1    3    3    0    0  0.90830003823E+01 -0.40099628389E+01 -0.87911917493E+01  0.13261438480E+02  0.51100000000E-03 0. -1.
        -11    1    3    3    0    0  0.49519203934E+01 -0.19944662595E+01  0.35168887412E+01  0.63928020399E+01  0.51100000000E-03 0.  1.
        -12    1    3    3    0    0 -0.12302650649E+02  0.66035693669E+01  0.37107643096E+02  0.39647692461E+02  0.00000000000E+00 0.  1.
</event>
<event>
 7    1  0.5832130E-012  0.5930195E+02  0.7816164E-02  0.1266605E+00
        -11   -1    0    0    0    0  0.00000000000E+00  0.00000000000E+00  0.45593999997E+02  0.45594000000E+02  0.51100000000E-03 0.  1.
         11   -1    0    0    0    0 -0.00000000000E+00 -0.00000000000E+00 -0.45593999997E+02  0.45594000000E+02  0.51100000000E-03 0. -1.
    9900012    2    1    2    0    0 -0.13805246867E+02 -0.87044039461E+01  0.27392853482E+02  0.59301954290E+02  0.50000018716E+02 0.  0.
         12    1    1    2    0    0  0.13805246867E+02  0.87044039461E+01 -0.27392853482E+02  0.31886045710E+02  0.00000000000E+00 0. -1.
         11    1    3    3    0    0 -0.75069782219E+00  0.39785360790E+01  0.13717929108E+01  0.42748231079E+01  0.51100000000E-03 0. -1.
        -11    1    3    3    0    0 -0.26127657135E+02  0.46388361695E+01  0.11534077173E+02  0.28934550366E+02  0.51100000000E-03 0.  1.
         12    1    3    3    0    0  0.13073108091E+02 -0.17321776195E+02  0.14486983398E+02  0.26092580817E+02  0.00000000000E+00 0. -1.
</event>
<event>
 7    1  0.5832130E-012  0.5930201E+02  0.7816164E-02  0.1266605E+00
        -11   -1    0    0    0    0  0.00000000000E+00  0.00000000000E+00  0.45593999997E+02  0.45594000000E+02  0.51100000000E-03 0. -1.
         11   -1    0    0    0    0 -0.00000000000E+00 -0.00000000000E+00 -0.45593999997E+02  0.45594000000E+02  0.51100000000E-03 0.  1.
    9900012    2    1    2    0    0  0.31470179113E+02  0.94934513031E+00 -0.50441270545E+01  0.59302005468E+02  0.50000112052E+02 0.  0.
         12    1    1    2    0    0 -0.31470179113E+02 -0.94934513031E+00  0.50441270545E+01  0.31885994532E+02  0.00000000000E+00 0. -1.
         11    1    3    3    0    0  0.10287093632E+02  0.15813901510E+02  0.63712003926E+01  0.19912206584E+02  0.51100000000E-03 0. -1.
        -11    1    3    3    0    0  0.22827947523E+01  0.11897811568E+01  0.76744689656E+01  0.80947022952E+01  0.51100000000E-03 0.  1.
         12    1    3    3    0    0  0.18900290729E+02 -0.16054337537E+02 -0.19089796413E+02  0.31295096588E+02  0.00000000000E+00 0. -1.
</event>
<event>
 7    1  0.5832130E-012  0.5930196E+02  0.7816164E-02  0.1266605E+00
        -11   -1    0    0    0    0  0.00000000000E+00  0.00000000000E+00  0.45593999997E+02  0.45594000000E+02  0.51100000000E-03 0.  1.
         11   -1    0    0    0    0 -0.00000000000E+00 -0.00000000000E+00 -0.45593999997E+02  0.45594000000E+02  0.51100000000E-03 0. -1.
    9900012    2    1    2    0    0  0.11151948483E+02 -0.29784679430E+02  0.22861160628E+01  0.59301962141E+02  0.50000033034E+02 0.  0.
         12    1    1    2    0    0 -0.11151948483E+02  0.29784679430E+02 -0.22861160628E+01  0.31886037859E+02  0.00000000000E+00 0. -1.
         11    1    3    3    0    0  0.26343672309E+01  0.78419571042E+01 -0.70158817300E+01  0.10847063134E+02  0.51100000000E-03 0. -1.
        -11    1    3    3    0    0  0.27047312285E+01 -0.29512175610E+02 -0.59497369276E+01  0.30227197191E+02  0.51100000000E-03 0.  1.
         12    1    3    3    0    0  0.58128500236E+01 -0.81144609236E+01  0.15251734720E+02  0.18227701815E+02  0.00000000000E+00 0. -1.
</event>
<event>
 7    1  0.5832130E-012  0.5930195E+02  0.7816164E-02  0.1266605E+00
        -11   -1    0    0    0    0  0.00000000000E+00  0.00000000000E+00  0.45593999997E+02  0.45594000000E+02  0.51100000000E-03 0.  1.
         11   -1    0    0    0    0 -0.00000000000E+00 -0.00000000000E+00 -0.45593999997E+02  0.45594000000E+02  0.51100000000E-03 0. -1.
    9900012    2    1    2    0    0 -0.46610339574E+00  0.23397194330E+02  0.21658124880E+02  0.59301947748E+02  0.50000006784E+02 0.  0.
         12    1    1    2    0    0  0.46610339574E+00 -0.23397194330E+02 -0.21658124880E+02  0.31886052252E+02  0.00000000000E+00 0. -1.
         11    1    3    3    0    0  0.28602401715E+01 -0.49534216456E+00 -0.79542951042E+01  0.84674168768E+01  0.51100000000E-03 0. -1.
        -11    1    3    3    0    0 -0.68016757283E+01 -0.72373227870E+01  0.83609350830E+01  0.12982560208E+02  0.51100000000E-03 0.  1.
        -12    1    3    3    0    0  0.34753321611E+01  0.31129859282E+02  0.21251484901E+02  0.37851970663E+02  0.00000000000E+00 0.  1.
</event>
<event>
 7    1  0.5832130E-012  0.5930198E+02  0.7816164E-02  0.1266605E+00
        -11   -1    0    0    0    0  0.00000000000E+00  0.00000000000E+00  0.45593999997E+02  0.45594000000E+02  0.51100000000E-03 0.  1.
         11   -1    0    0    0    0 -0.00000000000E+00 -0.00000000000E+00 -0.45593999997E+02  0.45594000000E+02  0.51100000000E-03 0. -1.
    9900012    2    1    2    0    0  0.18098095307E+02 -0.49065595225E+01  0.25789589792E+02  0.59301979211E+02  0.50000064166E+02 0.  0.
         12    1    1    2    0    0 -0.18098095307E+02  0.49065595225E+01 -0.25789589792E+02  0.31886020789E+02  0.00000000000E+00 0. -1.
         11    1    3    3    0    0  0.92038767824E+01 -0.16876503636E+02  0.87818031446E+01  0.21134043378E+02  0.51100000000E-03 0. -1.
        -11    1    3    3    0    0  0.60048321565E+01 -0.42941059024E+01 -0.62282650394E+01  0.96586044744E+01  0.51100000000E-03 0.  1.
        -12    1    3    3    0    0  0.28893863678E+01  0.16264050016E+02  0.23236051687E+02  0.28509331358E+02  0.00000000000E+00 0.  1.
</event>
<event>
 7    1  0.5832130E-012  0.5930187E+02  0.7816164E-02  0.1266605E+00
        -11   -1    0    0    0    0  0.00000000000E+00  0.00000000000E+00  0.45593999997E+02  0.45594000000E+02  0.51100000000E-03 0.  1.
         11   -1    0    0    0    0 -0.00000000000E+00 -0.00000000000E+00 -0.45593999997E+02  0.45594000000E+02  0.51100000000E-03 0. -1.
    9900012    2    1    2    0    0 -0.62526245115E+01  0.87518794887E+01  0.30017236401E+02  0.59301871527E+02  0.49999867775E+02 0.  0.
         12    1    1    2    0    0  0.62526245115E+01 -0.87518794887E+01 -0.30017236401E+02  0.31886128473E+02  0.00000000000E+00 0. -1.
         11    1    3    3    0    0  0.17057751357E+02  0.80771906968E+01  0.27350605027E+01  0.19070617377E+02  0.51100000000E-03 0. -1.
        -11    1    3    3    0    0 -0.90778712375E+01  0.82859697235E+01  0.64565086937E+01  0.13883499027E+02  0.51100000000E-03 0.  1.
         12    1    3    3    0    0 -0.14232504631E+02 -0.76112809316E+01  0.20825667204E+02  0.26347755123E+02  0.00000000000E+00 0. -1.
</event>
<event>
 7    1  0.5832130E-012  0.5930197E+02  0.7816164E-02  0.1266605E+00
        -11   -1    0    0    0    0  0.00000000000E+00  0.00000000000E+00  0.45593999997E+02  0.45594000000E+02  0.51100000000E-03 0. -1.
         11   -1    0    0    0    0 -0.00000000000E+00 -0.00000000000E+00 -0.45593999997E+02  0.45594000000E+02  0.51100000000E-03 0.  1.
    9900012    2    1    2    0    0  0.20037527838E+02 -0.22056765598E+02  0.11345278076E+02  0.59301972259E+02  0.50000051487E+02 0.  0.
         12    1    1    2    0    0 -0.20037527838E+02  0.22056765598E+02 -0.11345278076E+02  0.31886027741E+02  0.00000000000E+00 0. -1.
         11    1    3    3    0    0  0.11984941920E+00 -0.12424232355E+02  0.13597179354E+02  0.18418990204E+02  0.51100000000E-03 0. -1.
        -11    1    3    3    0    0 -0.52963424099E+00  0.33698273089E+01  0.12200939177E+02  0.12668826527E+02  0.51100000000E-03 0.  1.
        -12    1    3    3    0    0  0.20447312660E+02 -0.13002360551E+02 -0.14452840455E+02  0.28214155527E+02  0.00000000000E+00 0.  1.
</event>
<event>
 7    1  0.5832130E-012  0.5930197E+02  0.7816164E-02  0.1266605E+00
        -11   -1    0    0    0    0  0.00000000000E+00  0.00000000000E+00  0.45593999997E+02  0.45594000000E+02  0.51100000000E-03 0.  1.
         11   -1    0    0    0    0 -0.00000000000E+00 -0.00000000000E+00 -0.45593999997E+02  0.45594000000E+02  0.51100000000E-03 0. -1.
    9900012    2    1    2    0    0  0.28247547368E+02 -0.99357380709E+01  0.10957933701E+02  0.59301966470E+02  0.50000040929E+02 0.  0.
         12    1    1    2    0    0 -0.28247547368E+02  0.99357380709E+01 -0.10957933701E+02  0.31886033530E+02  0.00000000000E+00 0. -1.
         11    1    3    3    0    0  0.14292877262E+02 -0.88724823677E+01  0.30368848373E+01  0.17094734674E+02  0.51100000000E-03 0. -1.
        -11    1    3    3    0    0  0.72873552150E+01 -0.13830428835E+02  0.18585258182E+02  0.24285759814E+02  0.51100000000E-03 0.  1.
         12    1    3    3    0    0  0.66673148909E+01  0.12767173132E+02 -0.10664209318E+02  0.17921471982E+02  0.00000000000E+00 0. -1.
</event>
<event>
 7    1  0.5832130E-012  0.5930194E+02  0.7816164E-02  0.1266605E+00
        -11   -1    0    0    0    0  0.00000000000E+00  0.00000000000E+00  0.45593999997E+02  0.45594000000E+02  0.51100000000E-03 0. -1.
         11   -1    0    0    0    0 -0.00000000000E+00 -0.00000000000E+00 -0.45593999997E+02  0.45594000000E+02  0.51100000000E-03 0.  1.
    9900012    2    1    2    0    0 -0.85970594866E+01 -0.26173798909E+02  0.16054395556E+02  0.59301940384E+02  0.49999993355E+02 0.  0.
         12    1    1    2    0    0  0.85970594866E+01  0.26173798909E+02 -0.16054395556E+02  0.31886059616E+02  0.00000000000E+00 0. -1.
         11    1    3    3    0    0 -0.19280764389E+01  0.93737692436E+01 -0.38827261678E+01  0.10327661465E+02  0.51100000000E-03 0. -1.
        -11    1    3    3    0    0 -0.63892061467E+01  0.23576896682E+01  0.35093607891E+01  0.76613490434E+01  0.51100000000E-03 0.  1.
         12    1    3    3    0    0 -0.27977690097E+00 -0.37905257821E+02  0.16427760935E+02  0.41312929876E+02  0.00000000000E+00 0. -1.
</event>
<event>
 7    1  0.5832130E-012  0.5930194E+02  0.7816164E-02  0.1266605E+00
        -11   -1    0    0    0    0  0.00000000000E+00  0.00000000000E+00  0.45593999997E+02  0.45594000000E+02  0.51100000000E-03 0. -1.
         11   -1    0    0    0    0 -0.00000000000E+00 -0.00000000000E+00 -0.45593999997E+02  0.45594000000E+02  0.51100000000E-03 0.  1.
    9900012    2    1    2    0    0  0.77383926827E+01  0.30909055660E+02  0.12116535220E+01  0.59301944312E+02  0.50000000518E+02 0.  0.
         12    1    1    2    0    0 -0.77383926827E+01 -0.30909055660E+02 -0.12116535220E+01  0.31886055688E+02  0.00000000000E+00 0. -1.
         11    1    3    3    0    0 -0.69040663560E+01  0.90705909246E+00 -0.97275340471E+01  0.11963018321E+02  0.51100000000E-03 0. -1.
        -11    1    3    3    0    0  0.59484344020E+00 -0.67014742634E+01  0.10004845602E+01  0.68018060571E+01  0.51100000000E-03 0.  1.
        -12    1    3    3    0    0  0.14047615599E+02  0.36703470831E+02  0.99387030088E+01  0.40537119934E+02  0.00000000000E+00 0.  1.
</event>
<event>
 7    1  0.5832130E-012  0.5930193E+02  0.7816164E-02  0.1266605E+00
        -11   -1    0    0    0    0  0.00000000000E+00  0.00000000000E+00  0.45593999997E+02  0.45594000000E+02  0.51100000000E-03 0.  1.
         11   -1    0    0    0    0 -0.00000000000E+00 -0.00000000000E+00 -0.45593999997E+02  0.45594000000E+02  0.51100000000E-03 0. -1.
    9900012    2    1    2    0    0 -0.79477103528E+01 -0.19075136675E+02  0.24283620676E+02  0.59301934514E+02  0.49999982650E+02 0.  0.
         12    1    1    2    0    0  0.79477103528E+01  0.19075136675E+02 -0.24283620676E+02  0.31886065486E+02  0.00000000000E+00 0. -1.
         11    1    3    3    0    0 -0.60071393411E+01 -0.17712461304E+00  0.19677183203E+02  0.20574465613E+02  0.51100000000E-03 0. -1.
        -11    1    3    3    0    0 -0.15799905908E+02 -0.25598331885E+01  0.63775259866E+01  0.17229701408E+02  0.51100000000E-03 0.  1.
         12    1    3    3    0    0  0.13859334896E+02 -0.16338178873E+02 -0.17710885135E+01  0.21497767493E+02  0.00000000000E+00 0. -1.
</event>
<event>
 7    1  0.5832130E-012  0.5930194E+02  0.7816164E-02  0.1266605E+00
        -11   -1    0    0    0    0  0.00000000000E+00  0.00000000000E+00  0.45593999997E+02  0.45594000000E+02  0.51100000000E-03 0.  1.
         11   -1    0    0    0    0 -0.00000000000E+00 -0.00000000000E+00 -0.45593999997E+02  0.45594000000E+02  0.51100000000E-03 0. -1.
    9900012    2    1    2    0    0 -0.78733627853E+01  0.17889563119E+02  0.25193147344E+02  0.59301937476E+02  0.49999988052E+02 0.  0.
         12    1    1    2    0    0  0.78733627853E+01 -0.17889563119E+02 -0.25193147344E+02  0.31886062524E+02  0.00000000000E+00 0. -1.
         11    1    3    3    0    0 -0.19107465723E+02  0.11437840183E+02  0.11213876282E+02  0.24933320195E+02  0.51100000000E-03 0.  1.
        -11    1    3    3    0    0 -0.59603208296E+01  0.89041063792E+01  0.13174383466E+02  0.16981546301E+02  0.51100000000E-03 0. -1.
         12    1    3    3    0    0  0.17194423767E+02 -0.24523834435E+01  0.80488759619E+00  0.17387070980E+02  0.00000000000E+00 0. -1.
</event>
<event>
 7    1  0.5832130E-012  0.5930194E+02  0.7816164E-02  0.1266605E+00
        -11   -1    0    0    0    0  0.00000000000E+00  0.00000000000E+00  0.45593999997E+02  0.45594000000E+02  0.51100000000E-03 0.  1.
         11   -1    0    0    0    0 -0.00000000000E+00 -0.00000000000E+00 -0.45593999997E+02  0.45594000000E+02  0.51100000000E-03 0. -1.
    9900012    2    1    2    0    0  0.14862302751E+02 -0.12230963024E+02  0.25421182039E+02  0.59301937279E+02  0.49999987692E+02 0.  0.
         12    1    1    2    0    0 -0.14862302751E+02  0.12230963024E+02 -0.25421182039E+02  0.31886062721E+02  0.00000000000E+00 0. -1.
         11    1    3    3    0    0  0.62587863841E+01  0.12980177500E+02  0.95865077358E+01  0.17307759698E+02  0.51100000000E-03 0. -1.
        -11    1    3    3    0    0 -0.95904658189E+01 -0.34838996490E+01  0.17663687576E+01  0.10355416469E+02  0.51100000000E-03 0.  1.
        -12    1    3    3    0    0  0.18193982186E+02 -0.21727240875E+02  0.14068305546E+02  0.31638761113E+02  0.00000000000E+00 0.  1.
</event>
<event>
 7    1  0.5832130E-012  0.5930201E+02  0.7816164E-02  0.1266605E+00
        -11   -1    0    0    0    0  0.00000000000E+00  0.00000000000E+00  0.45593999997E+02  0.45594000000E+02  0.51100000000E-03 0.  1.
         11   -1    0    0    0    0 -0.00000000000E+00 -0.00000000000E+00 -0.45593999997E+02  0.45594000000E+02  0.51100000000E-03 0. -1.
    9900012    2    1    2    0    0  0.26020191527E+02 -0.15671536904E+02  0.96989231801E+01  0.59302007043E+02  0.50000114925E+02 0.  0.
         12    1    1    2    0    0 -0.26020191527E+02  0.15671536904E+02 -0.96989231801E+01  0.31885992957E+02  0.00000000000E+00 0. -1.
         11    1    3    3    0    0  0.18407152748E+02 -0.54650125967E+01  0.18944902865E+02  0.26974042704E+02  0.51100000000E-03 0.  1.
        -11    1    3    3    0    0  0.80079637513E+01 -0.15765853611E+02  0.38482982335E+01  0.18096934079E+02  0.51100000000E-03 0. -1.
        -12    1    3    3    0    0 -0.39492497242E+00  0.55593293039E+01 -0.13094277919E+02  0.14231030260E+02  0.00000000000E+00 0.  1.
</event>
<event>
 7    1  0.5832130E-012  0.5930195E+02  0.7816164E-02  0.1266605E+00
        -11   -1    0    0    0    0  0.00000000000E+00  0.00000000000E+00  0.45593999997E+02  0.45594000000E+02  0.51100000000E-03 0.  1.
         11   -1    0    0    0    0 -0.00000000000E+00 -0.00000000000E+00 -0.45593999997E+02  0.45594000000E+02  0.51100000000E-03 0. -1.
    9900012    2    1    2    0    0 -0.73062211585E+01 -0.89884793410E+01  0.29707684189E+02  0.59301950882E+02  0.50000012500E+02 0.  0.
         12    1    1    2    0    0  0.73062211585E+01  0.89884793410E+01 -0.29707684189E+02  0.31886049118E+02  0.00000000000E+00 0. -1.
         11    1    3    3    0    0 -0.17921311110E+00 -0.38972548048E+00 -0.41924973884E+01  0.42143846410E+01  0.51100000000E-03 0. -1.
        -11    1    3    3    0    0  0.10347475607E+02  0.32894895775E+01 -0.40994219183E+01  0.11605871507E+02  0.51100000000E-03 0.  1.
        -12    1    3    3    0    0 -0.17474483655E+02 -0.11888243438E+02  0.37999603496E+02  0.43481694733E+02  0.00000000000E+00 0.  1.
</event>
<event>
 7    1  0.5832130E-012  0.5930199E+02  0.7816164E-02  0.1266605E+00
        -11   -1    0    0    0    0  0.00000000000E+00  0.00000000000E+00  0.45593999997E+02  0.45594000000E+02  0.51100000000E-03 0. -1.
         11   -1    0    0    0    0 -0.00000000000E+00 -0.00000000000E+00 -0.45593999997E+02  0.45594000000E+02  0.51100000000E-03 0.  1.
    9900012    2    1    2    0    0 -0.87125553617E+01  0.18581582211E+02 -0.24403564347E+02  0.59301987844E+02  0.50000079910E+02 0.  0.
         12    1    1    2    0    0  0.87125553617E+01 -0.18581582211E+02  0.24403564347E+02  0.31886012156E+02  0.00000000000E+00 0. -1.
         11    1    3    3    0    0 -0.18798567094E+00  0.94787133077E+01  0.34750522902E+01  0.10097392399E+02  0.51100000000E-03 0. -1.
        -11    1    3    3    0    0 -0.12244925901E+02  0.48839737835E+01 -0.36557759436E+02  0.38862079016E+02  0.51100000000E-03 0.  1.
         12    1    3    3    0    0  0.37203562101E+01  0.42188951193E+01  0.86791427985E+01  0.10342516429E+02  0.00000000000E+00 0. -1.
</event>
<event>
 7    1  0.5832130E-012  0.5930193E+02  0.7816164E-02  0.1266605E+00
        -11   -1    0    0    0    0  0.00000000000E+00  0.00000000000E+00  0.45593999997E+02  0.45594000000E+02  0.51100000000E-03 0.  1.
         11   -1    0    0    0    0 -0.00000000000E+00 -0.00000000000E+00 -0.45593999997E+02  0.45594000000E+02  0.51100000000E-03 0. -1.
    9900012    2    1    2    0    0 -0.26117272049E+02 -0.16265426671E+02 -0.83693121166E+01  0.59301931108E+02  0.49999976438E+02 0.  0.
         12    1    1    2    0    0  0.26117272049E+02  0.16265426671E+02  0.83693121166E+01  0.31886068892E+02  0.00000000000E+00 0. -1.
         11    1    3    3    0    0 -0.22099080942E+02  0.57428034878E+01 -0.10740799003E+02  0.25233191115E+02  0.51100000000E-03 0. -1.
        -11    1    3    3    0    0 -0.10243237586E+02 -0.10401418121E+02 -0.85857505788E+01  0.16936012766E+02  0.51100000000E-03 0.  1.
        -12    1    3    3    0    0  0.62250464790E+01 -0.11606812038E+02  0.10957237465E+02  0.17132727227E+02  0.00000000000E+00 0.  1.
</event>
<event>
 7    1  0.5832130E-012  0.5930195E+02  0.7816164E-02  0.1266605E+00
        -11   -1    0    0    0    0  0.00000000000E+00  0.00000000000E+00  0.45593999997E+02  0.45594000000E+02  0.51100000000E-03 0.  1.
         11   -1    0    0    0    0 -0.00000000000E+00 -0.00000000000E+00 -0.45593999997E+02  0.45594000000E+02  0.51100000000E-03 0. -1.
    9900012    2    1    2    0    0 -0.19111323263E+02  0.24458357319E+01  0.25406601655E+02  0.59301949807E+02  0.50000010539E+02 0.  0.
         12    1    1    2    0    0  0.19111323263E+02 -0.24458357319E+01 -0.25406601655E+02  0.31886050193E+02  0.00000000000E+00 0. -1.
         11    1    3    3    0    0  0.57576496061E+01  0.17215980528E+01  0.12108349039E+01  0.61302977307E+01  0.51100000000E-03 0. -1.
        -11    1    3    3    0    0 -0.58152275144E+01 -0.17345580262E+02  0.19051477063E+02  0.26412966592E+02  0.51100000000E-03 0.  1.
        -12    1    3    3    0    0 -0.19053745354E+02  0.18069817941E+02  0.51442896885E+01  0.26758685484E+02  0.00000000000E+00 0.  1.
</event>
<event>
 7    1  0.5832130E-012  0.5930195E+02  0.7816164E-02  0.1266605E+00
        -11   -1    0    0    0    0  0.00000000000E+00  0.00000000000E+00  0.45593999997E+02  0.45594000000E+02  0.51100000000E-03 0.  1.
         11   -1    0    0    0    0 -0.00000000000E+00 -0.00000000000E+00 -0.45593999997E+02  0.45594000000E+02  0.51100000000E-03 0. -1.
    9900012    2    1    2    0    0 -0.30058502840E+02  0.66400809726E+01 -0.83136109589E+01  0.59301946693E+02  0.50000004861E+02 0.  0.
         12    1    1    2    0    0  0.30058502840E+02 -0.66400809726E+01  0.83136109589E+01  0.31886053307E+02  0.00000000000E+00 0. -1.
         11    1    3    3    0    0 -0.17063332067E+02 -0.14244867185E+02 -0.83800563820E+01  0.23754976059E+02  0.51100000000E-03 0. -1.
        -11    1    3    3    0    0  0.11724762708E+01  0.66577422963E+01  0.10829170982E+02  0.12766016509E+02  0.51100000000E-03 0.  1.
        -12    1    3    3    0    0 -0.14167647044E+02  0.14227205862E+02 -0.10762725559E+02  0.22780954125E+02  0.00000000000E+00 0.  1.
</event>
<event>
 7    1  0.5832130E-012  0.5930192E+02  0.7816164E-02  0.1266605E+00
        -11   -1    0    0    0    0  0.00000000000E+00  0.00000000000E+00  0.45593999997E+02  0.45594000000E+02  0.51100000000E-03 0. -1.
         11   -1    0    0    0    0 -0.00000000000E+00 -0.00000000000E+00 -0.45593999997E+02  0.45594000000E+02  0.51100000000E-03 0.  1.
    9900012    2    1    2    0    0 -0.15388375022E+02 -0.23852553518E+02 -0.14525000903E+02  0.59301920805E+02  0.49999957648E+02 0.  0.
         12    1    1    2    0    0  0.15388375022E+02  0.23852553518E+02  0.14525000903E+02  0.31886079195E+02  0.00000000000E+00 0. -1.
         11    1    3    3    0    0 -0.17603111485E+02 -0.35205631373E+01 -0.12494041587E+02  0.21871556282E+02  0.51100000000E-03 0. -1.
        -11    1    3    3    0    0  0.10962188591E+01 -0.85410783623E+01 -0.16572284696E+02  0.18675982858E+02  0.51100000000E-03 0.  1.
         12    1    3    3    0    0  0.11185176037E+01 -0.11790912018E+02  0.14541325380E+02  0.18754381666E+02  0.00000000000E+00 0. -1.
</event>
<event>
 7    1  0.5832130E-012  0.5930193E+02  0.7816164E-02  0.1266605E+00
        -11   -1    0    0    0    0  0.00000000000E+00  0.00000000000E+00  0.45593999997E+02  0.45594000000E+02  0.51100000000E-03 0.  1.
         11   -1    0    0    0    0 -0.00000000000E+00 -0.00000000000E+00 -0.45593999997E+02  0.45594000000E+02  0.51100000000E-03 0. -1.
    9900012    2    1    2    0    0  0.29023347123E+01  0.10494159296E+02  0.29969495581E+02  0.59301927938E+02  0.49999970657E+02 0.  0.
         12    1    1    2    0    0 -0.29023347123E+01 -0.10494159296E+02 -0.29969495581E+02  0.31886072062E+02  0.00000000000E+00 0. -1.
         11    1    3    3    0    0 -0.34272299029E+01  0.42883191762E+01  0.17787183261E+02  0.18615033569E+02  0.51100000000E-03 0.  1.
        -11    1    3    3    0    0  0.12315548500E+02 -0.13466407953E+02  0.52977044496E+01  0.19002172263E+02  0.51100000000E-03 0. -1.
         12    1    3    3    0    0 -0.59859838850E+01  0.19672248073E+02  0.68846078713E+01  0.21684722107E+02  0.00000000000E+00 0. -1.
</event>
<event>
 7    1  0.5832130E-012  0.5930202E+02  0.7816164E-02  0.1266605E+00
        -11   -1    0    0    0    0  0.00000000000E+00  0.00000000000E+00  0.45593999997E+02  0.45594000000E+02  0.51100000000E-03 0.  1.
         11   -1    0    0    0    0 -0.00000000000E+00 -0.00000000000E+00 -0.45593999997E+02  0.45594000000E+02  0.51100000000E-03 0. -1.
    9900012    2    1    2    0    0 -0.13573955759E+02 -0.22875365384E+02  0.17583552170E+02  0.59302016820E+02  0.50000132756E+02 0.  0.
         12    1    1    2    0    0  0.13573955759E+02  0.22875365384E+02 -0.17583552170E+02  0.31885983180E+02  0.00000000000E+00 0. -1.
         11    1    3    3    0    0 -0.48032263290E+01  0.64514996066E+01 -0.36787468580E+01  0.88445468537E+01  0.51100000000E-03 0. -1.
        -11    1    3    3    0    0 -0.14491882673E+02 -0.21869582982E+01 -0.12857377094E+01  0.14712259233E+02  0.51100000000E-03 0.  1.
        -12    1    3    3    0    0  0.57211532431E+01 -0.27139906692E+02  0.22548036738E+02  0.35745210734E+02  0.00000000000E+00 0.  1.
</event>
<event>
 7    1  0.5832130E-012  0.5930194E+02  0.7816164E-02  0.1266605E+00
        -11   -1    0    0    0    0  0.00000000000E+00  0.00000000000E+00  0.45593999997E+02  0.45594000000E+02  0.51100000000E-03 0. -1.
         11   -1    0    0    0    0 -0.00000000000E+00 -0.00000000000E+00 -0.45593999997E+02  0.45594000000E+02  0.51100000000E-03 0.  1.
    9900012    2    1    2    0    0  0.26142902264E+02 -0.18241167429E+02  0.72759679696E+00  0.59301938389E+02  0.49999989716E+02 0.  0.
         12    1    1    2    0    0 -0.26142902264E+02  0.18241167429E+02 -0.72759679696E+00  0.31886061611E+02  0.00000000000E+00 0. -1.
         11    1    3    3    0    0  0.22983414169E+01 -0.94740601961E+01  0.69230223589E+00  0.97734063926E+01  0.51100000000E-03 0. -1.
        -11    1    3    3    0    0 -0.47853912970E+01 -0.17191536742E+02 -0.64740502859E+01  0.18983209233E+02  0.51100000000E-03 0.  1.
         12    1    3    3    0    0  0.28629952144E+02  0.84244295093E+01  0.65093448469E+01  0.30545322763E+02  0.00000000000E+00 0. -1.
</event>
<event>
 7    1  0.7728686E-012  0.5930193E+02  0.7816164E-02  0.1266605E+00
        -11   -1    0    0    0    0  0.00000000000E+00  0.00000000000E+00  0.45593999997E+02  0.45594000000E+02  0.51100000000E-03 0. -1.
         11   -1    0    0    0    0 -0.00000000000E+00 -0.00000000000E+00 -0.45593999997E+02  0.45594000000E+02  0.51100000000E-03 0.  1.
    9900012    2    1    2    0    0  0.15432472194E+02 -0.18081896179E+02 -0.21251003039E+02  0.59301932547E+02  0.49999979062E+02 0.  0.
         12    1    1    2    0    0 -0.15432472194E+02  0.18081896179E+02  0.21251003039E+02  0.31886067453E+02  0.00000000000E+00 0. -1.
         11    1    3    3    0    0 -0.50699523932E+01 -0.11235865724E+02 -0.20332055842E+02  0.23776912980E+02  0.51100000000E-03 0. -1.
        -11    1    3    3    0    0  0.78347274516E+01 -0.16447038381E+02 -0.54165792398E+01  0.19005982129E+02  0.51100000000E-03 0.  1.
         12    1    3    3    0    0  0.12667697135E+02  0.96010079263E+01  0.44976320424E+01  0.16519037439E+02  0.00000000000E+00 0. -1.
</event>
<event>
 7    1  0.5832130E-012  0.5930196E+02  0.7816164E-02  0.1266605E+00
        -11   -1    0    0    0    0  0.00000000000E+00  0.00000000000E+00  0.45593999997E+02  0.45594000000E+02  0.51100000000E-03 0.  1.
         11   -1    0    0    0    0 -0.00000000000E+00 -0.00000000000E+00 -0.45593999997E+02  0.45594000000E+02  0.51100000000E-03 0. -1.
    9900012    2    1    2    0    0 -0.31454935739E+02  0.10881968189E+01 -0.51109812042E+01  0.59301964130E+02  0.50000036662E+02 0.  0.
         12    1    1    2    0    0  0.31454935739E+02 -0.10881968189E+01  0.51109812042E+01  0.31886035870E+02  0.00000000000E+00 0. -1.
         11    1    3    3    0    0 -0.35899458379E+01 -0.59216310729E+01  0.22862346206E+01  0.72924820661E+01  0.51100000000E-03 0. -1.
        -11    1    3    3    0    0 -0.31237164467E+02 -0.10332653550E+02 -0.11954655956E+00  0.32901952297E+02  0.51100000000E-03 0.  1.
         12    1    3    3    0    0  0.33721745664E+01  0.17342481441E+02 -0.72776692652E+01  0.19107529767E+02  0.00000000000E+00 0. -1.
</event>
<event>
 7    1  0.5832130E-012  0.5930195E+02  0.7816164E-02  0.1266605E+00
        -11   -1    0    0    0    0  0.00000000000E+00  0.00000000000E+00  0.45593999997E+02  0.45594000000E+02  0.51100000000E-03 0.  1.
         11   -1    0    0    0    0 -0.00000000000E+00 -0.00000000000E+00 -0.45593999997E+02  0.45594000000E+02  0.51100000000E-03 0. -1.
    9900012    2    1    2    0    0  0.24459900984E+02  0.16635111309E+02  0.11904053801E+02  0.59301950051E+02  0.50000010986E+02 0.  0.
         12    1    1    2    0    0 -0.24459900984E+02 -0.16635111309E+02 -0.11904053801E+02  0.31886049949E+02  0.00000000000E+00 0. -1.
         11    1    3    3    0    0 -0.33804673359E+01  0.73679114153E+01  0.78973252845E+01  0.11317306435E+02  0.51100000000E-03 0.  1.
        -11    1    3    3    0    0  0.16522219140E+02  0.90039780277E+01 -0.16195570183E+02  0.24826434287E+02  0.51100000000E-03 0. -1.
         12    1    3    3    0    0  0.11318149181E+02  0.26322186652E+00  0.20202298699E+02  0.23158209329E+02  0.00000000000E+00 0. -1.
</event>
<event>
 7    1  0.5832130E-012  0.5930195E+02  0.7816164E-02  0.1266605E+00
        -11   -1    0    0    0    0  0.00000000000E+00  0.00000000000E+00  0.45593999997E+02  0.45594000000E+02  0.51100000000E-03 0.  1.
         11   -1    0    0    0    0 -0.00000000000E+00 -0.00000000000E+00 -0.45593999997E+02  0.45594000000E+02  0.51100000000E-03 0. -1.
    9900012    2    1    2    0    0 -0.62631746450E+00  0.14900736643E+02  0.28183257992E+02  0.59301948863E+02  0.50000008818E+02 0.  0.
         12    1    1    2    0    0  0.62631746450E+00 -0.14900736643E+02 -0.28183257992E+02  0.31886051137E+02  0.00000000000E+00 0. -1.
         11    1    3    3    0    0 -0.97661232315E+01  0.57792305397E+01  0.89476022513E+01  0.14451167943E+02  0.51100000000E-03 0. -1.
        -11    1    3    3    0    0 -0.40878166796E+01 -0.86699911447E+01 -0.59621713411E+01  0.11288333757E+02  0.51100000000E-03 0.  1.
         12    1    3    3    0    0  0.13227622447E+02  0.17791497248E+02  0.25197827082E+02  0.33562447163E+02  0.00000000000E+00 0. -1.
</event>
<event>
 7    1  0.5832130E-012  0.5930195E+02  0.7816164E-02  0.1266605E+00
        -11   -1    0    0    0    0  0.00000000000E+00  0.00000000000E+00  0.45593999997E+02  0.45594000000E+02  0.51100000000E-03 0.  1.
         11   -1    0    0    0    0 -0.00000000000E+00 -0.00000000000E+00 -0.45593999997E+02  0.45594000000E+02  0.51100000000E-03 0. -1.
    9900012    2    1    2    0    0 -0.24898492274E+02  0.38848975667E+01  0.19536961159E+02  0.59301949791E+02  0.50000010511E+02 0.  0.
         12    1    1    2    0    0  0.24898492274E+02 -0.38848975667E+01 -0.19536961159E+02  0.31886050209E+02  0.00000000000E+00 0. -1.
         11    1    3    3    0    0 -0.15477380690E+02 -0.10427340839E+02  0.36491995502E+01  0.19015662166E+02  0.51100000000E-03 0. -1.
        -11    1    3    3    0    0  0.12167206485E+02  0.60119518126E+01  0.84666560986E+01  0.15995897724E+02  0.51100000000E-03 0.  1.
         12    1    3    3    0    0 -0.21588318069E+02  0.83002865929E+01  0.74211055097E+01  0.24290389901E+02  0.00000000000E+00 0. -1.
</event>
<event>
 7    1  0.5832130E-012  0.5930196E+02  0.7816164E-02  0.1266605E+00
        -11   -1    0    0    0    0  0.00000000000E+00  0.00000000000E+00  0.45593999997E+02  0.45594000000E+02  0.51100000000E-03 0. -1.
         11   -1    0    0    0    0 -0.00000000000E+00 -0.00000000000E+00 -0.45593999997E+02  0.45594000000E+02  0.51100000000E-03 0.  1.
    9900012    2    1    2    0    0 -0.28526370977E+02 -0.43764382815E+01  0.13557753006E+02  0.59301957290E+02  0.50000024187E+02 0.  0.
         12    1    1    2    0    0  0.28526370977E+02  0.43764382815E+01 -0.13557753006E+02  0.31886042710E+02  0.00000000000E+00 0. -1.
         11    1    3    3    0    0  0.66722685188E+01 -0.72333274059E+01  0.16852708035E+02  0.19515480033E+02  0.51100000000E-03 0. -1.
        -11    1    3    3    0    0 -0.66151588577E+01 -0.42831554757E+01  0.48068854427E+01  0.92310289493E+01  0.51100000000E-03 0.  1.
         12    1    3    3    0    0 -0.28583480638E+02  0.71400446001E+01 -0.81018404717E+01  0.30555448308E+02  0.00000000000E+00 0. -1.
</event>
<event>
 7    1  0.5832130E-012  0.5930173E+02  0.7816164E-02  0.1266605E+00
        -11   -1    0    0    0    0  0.00000000000E+00  0.00000000000E+00  0.45593999997E+02  0.45594000000E+02  0.51100000000E-03 0. -1.
         11   -1    0    0    0    0 -0.00000000000E+00 -0.00000000000E+00 -0.45593999997E+02  0.45594000000E+02  0.51100000000E-03 0.  1.
    9900012    2    1    2    0    0 -0.11293740214E+02  0.24058631501E+02 -0.17617254384E+02  0.59301733838E+02  0.49999616663E+02 0.  0.
         12    1    1    2    0    0  0.11293740214E+02 -0.24058631501E+02  0.17617254384E+02  0.31886266162E+02  0.00000000000E+00 0. -1.
         11    1    3    3    0    0 -0.18836089692E+02  0.23115336746E+02 -0.57834144696E+00  0.29823674268E+02  0.51100000000E-03 0. -1.
        -11    1    3    3    0    0 -0.53850570926E+01  0.60233846749E+01 -0.12465169133E+02  0.14854643874E+02  0.51100000000E-03 0.  1.
         12    1    3    3    0    0  0.12927406571E+02 -0.50800899194E+01 -0.45737438037E+01  0.14623415696E+02  0.00000000000E+00 0. -1.
</event>
<event>
 7    1  0.5832130E-012  0.5930194E+02  0.7816164E-02  0.1266605E+00
        -11   -1    0    0    0    0  0.00000000000E+00  0.00000000000E+00  0.45593999997E+02  0.45594000000E+02  0.51100000000E-03 0. -1.
         11   -1    0    0    0    0 -0.00000000000E+00 -0.00000000000E+00 -0.45593999997E+02  0.45594000000E+02  0.51100000000E-03 0.  1.
    9900012    2    1    2    0    0  0.25480086832E+02  0.90539473091E+01  0.16897108413E+02  0.59301936280E+02  0.49999985870E+02 0.  0.
         12    1    1    2    0    0 -0.25480086832E+02 -0.90539473091E+01 -0.16897108413E+02  0.31886063720E+02  0.00000000000E+00 0. -1.
         11    1    3    3    0    0 -0.74351537366E+01 -0.11530328312E+00  0.20944969694E+01  0.77253947310E+01  0.51100000000E-03 0. -1.
        -11    1    3    3    0    0  0.18653685340E+01 -0.10287629491E+02  0.10268677897E+02  0.14654714815E+02  0.51100000000E-03 0.  1.
         12    1    3    3    0    0  0.31049872035E+02  0.19456880083E+02  0.45339335464E+01  0.36921826733E+02  0.00000000000E+00 0. -1.
</event>
<event>
 7    1  0.5832130E-012  0.5930194E+02  0.7816164E-02  0.1266605E+00
        -11   -1    0    0    0    0  0.00000000000E+00  0.00000000000E+00  0.45593999997E+02  0.45594000000E+02  0.51100000000E-03 0. -1.
         11   -1    0    0    0    0 -0.00000000000E+00 -0.00000000000E+00 -0.45593999997E+02  0.45594000000E+02  0.51100000000E-03 0.  1.
    9900012    2    1    2    0    0 -0.26214195602E+02  0.67199400414E+01 -0.16863543399E+02  0.59301941272E+02  0.49999994974E+02 0.  0.
         12    1    1    2    0    0  0.26214195602E+02 -0.67199400414E+01  0.16863543399E+02  0.31886058728E+02  0.00000000000E+00 0. -1.
         11    1    3    3    0    0 -0.13192709167E+02  0.14422766821E+02 -0.13311356632E+02  0.23648593903E+02  0.51100000000E-03 0. -1.
        -11    1    3    3    0    0 -0.10711843482E+02  0.10995054670E+02  0.31246952391E+01  0.15665201517E+02  0.51100000000E-03 0.  1.
         12    1    3    3    0    0 -0.23096429540E+01 -0.18697881450E+02 -0.66768820062E+01  0.19988145852E+02  0.00000000000E+00 0. -1.
</event>
<event>
 7    1  0.5832130E-012  0.5930197E+02  0.7816164E-02  0.1266605E+00
        -11   -1    0    0    0    0  0.00000000000E+00  0.00000000000E+00  0.45593999997E+02  0.45594000000E+02  0.51100000000E-03 0.  1.
         11   -1    0    0    0    0 -0.00000000000E+00 -0.00000000000E+00 -0.45593999997E+02  0.45594000000E+02  0.51100000000E-03 0. -1.
    9900012    2    1    2    0    0  0.22197570874E+02  0.25380102595E+01  0.22749615209E+02  0.59301974205E+02  0.50000055037E+02 0.  0.
         12    1    1    2    0    0 -0.22197570874E+02 -0.25380102595E+01 -0.22749615209E+02  0.31886025795E+02  0.00000000000E+00 0. -1.
         11    1    3    3    0    0 -0.13095519186E+01  0.18980415210E+01 -0.27335988109E+01  0.35763180176E+01  0.51100000000E-03 0. -1.
        -11    1    3    3    0    0  0.19276257135E+02 -0.13310709943E+02 -0.31096563477E+01  0.23630891883E+02  0.51100000000E-03 0.  1.
        -12    1    3    3    0    0  0.42308656580E+01  0.13950678682E+02  0.28592870368E+02  0.32094764305E+02  0.00000000000E+00 0.  1.
</event>
<event>
 7    1  0.5832130E-012  0.5930205E+02  0.7816164E-02  0.1266604E+00
        -11   -1    0    0    0    0  0.00000000000E+00  0.00000000000E+00  0.45593999997E+02  0.45594000000E+02  0.51100000000E-03 0. -1.
         11   -1    0    0    0    0 -0.00000000000E+00 -0.00000000000E+00 -0.45593999997E+02  0.45594000000E+02  0.51100000000E-03 0.  1.
    9900012    2    1    2    0    0  0.30866258179E+01  0.17380441722E+02 -0.26553847522E+02  0.59302049620E+02  0.50000192574E+02 0.  0.
         12    1    1    2    0    0 -0.30866258179E+01 -0.17380441722E+02  0.26553847522E+02  0.31885950380E+02  0.00000000000E+00 0. -1.
         11    1    3    3    0    0 -0.68184156283E+01 -0.50039197280E+01 -0.12533701526E+02  0.15120306826E+02  0.51100000000E-03 0. -1.
        -11    1    3    3    0    0  0.14531960578E+02 -0.25741142744E+01 -0.11428862453E+02  0.18666087961E+02  0.51100000000E-03 0.  1.
         12    1    3    3    0    0 -0.46269191314E+01  0.24958475725E+02 -0.25912835439E+01  0.25515654833E+02  0.00000000000E+00 0. -1.
</event>
<event>
 7    1  0.5832130E-012  0.5930193E+02  0.7816164E-02  0.1266605E+00
        -11   -1    0    0    0    0  0.00000000000E+00  0.00000000000E+00  0.45593999997E+02  0.45594000000E+02  0.51100000000E-03 0.  1.
         11   -1    0    0    0    0 -0.00000000000E+00 -0.00000000000E+00 -0.45593999997E+02  0.45594000000E+02  0.51100000000E-03 0. -1.
    9900012    2    1    2    0    0  0.15283705510E+02  0.17844206519E+01  0.27927505436E+02  0.59301931395E+02  0.49999976962E+02 0.  0.
         12    1    1    2    0    0 -0.15283705510E+02 -0.17844206519E+01 -0.27927505436E+02  0.31886068605E+02  0.00000000000E+00 0. -1.
         11    1    3    3    0    0 -0.21688368288E+01 -0.21218299780E+01 -0.72726111964E+01  0.78801579629E+01  0.51100000000E-03 0. -1.
        -11    1    3    3    0    0  0.62356239920E+01 -0.10207113066E+02  0.98756922801E-01  0.11961518169E+02  0.51100000000E-03 0.  1.
        -12    1    3    3    0    0  0.11216918347E+02  0.14113363696E+02  0.35101359709E+02  0.39460255264E+02  0.00000000000E+00 0.  1.
</event>
<event>
 7    1  0.5832130E-012  0.5930195E+02  0.7816164E-02  0.1266605E+00
        -11   -1    0    0    0    0  0.00000000000E+00  0.00000000000E+00  0.45593999997E+02  0.45594000000E+02  0.51100000000E-03 0. -1.
         11   -1    0    0    0    0 -0.00000000000E+00 -0.00000000000E+00 -0.45593999997E+02  0.45594000000E+02  0.51100000000E-03 0.  1.
    9900012    2    1    2    0    0  0.89832550365E+01  0.27059086952E+02 -0.14276806568E+02  0.59301948763E+02  0.50000008635E+02 0.  0.
         12    1    1    2    0    0 -0.89832550365E+01 -0.27059086952E+02  0.14276806568E+02  0.31886051237E+02  0.00000000000E+00 0. -1.
         11    1    3    3    0    0  0.15801645795E+02 -0.36180678394E+00 -0.69553703612E+00  0.15821083591E+02  0.51100000000E-03 0. -1.
        -11    1    3    3    0    0  0.56617577046E+01  0.12722186335E+02  0.67372185746E+01  0.15469312843E+02  0.51100000000E-03 0.  1.
        -12    1    3    3    0    0 -0.12480148463E+02  0.14698707401E+02 -0.20318488106E+02  0.28011552328E+02  0.00000000000E+00 0.  1.
</event>
<event>
 7    1  0.5832130E-012  0.5930213E+02  0.7816164E-02  0.1266604E+00
        -11   -1    0    0    0    0  0.00000000000E+00  0.00000000000E+00  0.45593999997E+02  0.45594000000E+02  0.51100000000E-03 0.  1.
         11   -1    0    0    0    0 -0.00000000000E+00 -0.00000000000E+00 -0.45593999997E+02  0.45594000000E+02  0.51100000000E-03 0. -1.
    9900012    2    1    2    0    0 -0.16441030046E+02 -0.25549231741E+02 -0.96766667510E+01  0.59302131799E+02  0.50000342448E+02 0.  0.
         12    1    1    2    0    0  0.16441030046E+02  0.25549231741E+02  0.96766667510E+01  0.31885868201E+02  0.00000000000E+00 0. -1.
         11    1    3    3    0    0 -0.37779250810E+01 -0.23482248033E+01 -0.72711334565E+01  0.85238641266E+01  0.51100000000E-03 0. -1.
        -11    1    3    3    0    0  0.14272586299E+02 -0.17379323542E+02 -0.51911397580E+01  0.23080197978E+02  0.51100000000E-03 0.  1.
         12    1    3    3    0    0 -0.26935691264E+02 -0.58216833952E+01  0.27856064635E+01  0.27698069694E+02  0.00000000000E+00 0. -1.
</event>
<event>
 7    1  0.5832130E-012  0.5930194E+02  0.7816164E-02  0.1266605E+00
        -11   -1    0    0    0    0  0.00000000000E+00  0.00000000000E+00  0.45593999997E+02  0.45594000000E+02  0.51100000000E-03 0.  1.
         11   -1    0    0    0    0 -0.00000000000E+00 -0.00000000000E+00 -0.45593999997E+02  0.45594000000E+02  0.51100000000E-03 0. -1.
    9900012    2    1    2    0    0 -0.31830641917E+02  0.11390093134E+01  0.14944943029E+01  0.59301943168E+02  0.49999998431E+02 0.  0.
         12    1    1    2    0    0  0.31830641917E+02 -0.11390093134E+01 -0.14944943029E+01  0.31886056832E+02  0.00000000000E+00 0. -1.
         11    1    3    3    0    0  0.95581639237E+01 -0.58278597374E+01 -0.59461141135E+01  0.12675911014E+02  0.51100000000E-03 0. -1.
        -11    1    3    3    0    0 -0.32701638424E+01 -0.50552453613E+01  0.16202805110E+01  0.62349648286E+01  0.51100000000E-03 0.  1.
        -12    1    3    3    0    0 -0.38118641999E+02  0.12022114412E+02  0.58203279053E+01  0.40391067325E+02  0.00000000000E+00 0.  1.
</event>
<event>
 7    1  0.5832130E-012  0.5930193E+02  0.7816164E-02  0.1266605E+00
        -11   -1    0    0    0    0  0.00000000000E+00  0.00000000000E+00  0.45593999997E+02  0.45594000000E+02  0.51100000000E-03 0. -1.
         11   -1    0    0    0    0 -0.00000000000E+00 -0.00000000000E+00 -0.45593999997E+02  0.45594000000E+02  0.51100000000E-03 0.  1.
    9900012    2    1    2    0    0 -0.27027586212E+02 -0.94219442772E+01 -0.14051981426E+02  0.59301927297E+02  0.49999969487E+02 0.  0.
         12    1    1    2    0    0  0.27027586212E+02  0.94219442772E+01  0.14051981426E+02  0.31886072703E+02  0.00000000000E+00 0. -1.
         11    1    3    3    0    0 -0.18365987487E+02  0.19578712208E+01  0.12436431593E+02  0.22266737236E+02  0.51100000000E-03 0. -1.
        -11    1    3    3    0    0  0.67934334897E+01 -0.67703345692E+01 -0.11940291736E+02  0.15315310502E+02  0.51100000000E-03 0.  1.
         12    1    3    3    0    0 -0.15455032215E+02 -0.46094809287E+01 -0.14548121283E+02  0.21719879559E+02  0.00000000000E+00 0. -1.
</event>
<event>
 7    1  0.5832130E-012  0.5930195E+02  0.7816164E-02  0.1266605E+00
        -11   -1    0    0    0    0  0.00000000000E+00  0.00000000000E+00  0.45593999997E+02  0.45594000000E+02  0.51100000000E-03 0.  1.
         11   -1    0    0    0    0 -0.00000000000E+00 -0.00000000000E+00 -0.45593999997E+02  0.45594000000E+02  0.51100000000E-03 0. -1.
    9900012    2    1    2    0    0 -0.97094919797E+01 -0.22913046561E+02  0.19935853406E+02  0.59301949943E+02  0.50000010789E+02 0.  0.
         12    1    1    2    0    0  0.97094919797E+01  0.22913046561E+02 -0.19935853406E+02  0.31886050057E+02  0.00000000000E+00 0. -1.
         11    1    3    3    0    0 -0.11811000438E+02 -0.15132403026E+01 -0.11318514135E+02  0.16428584542E+02  0.51100000000E-03 0.  1.
        -11    1    3    3    0    0  0.79448845751E+01 -0.29892329289E+01  0.37887303150E+01  0.92957615113E+01  0.51100000000E-03 0. -1.
        -12    1    3    3    0    0 -0.58433761167E+01 -0.18410573329E+02  0.27465637226E+02  0.33577603890E+02  0.00000000000E+00 0.  1.
</event>
<event>
 7    1  0.5832130E-012  0.5930194E+02  0.7816164E-02  0.1266605E+00
        -11   -1    0    0    0    0  0.00000000000E+00  0.00000000000E+00  0.45593999997E+02  0.45594000000E+02  0.51100000000E-03 0. -1.
         11   -1    0    0    0    0 -0.00000000000E+00 -0.00000000000E+00 -0.45593999997E+02  0.45594000000E+02  0.51100000000E-03 0.  1.
    9900012    2    1    2    0    0 -0.31272107037E+02  0.52988968957E+01 -0.32707183147E+01  0.59301943719E+02  0.49999999437E+02 0.  0.
         12    1    1    2    0    0  0.31272107037E+02 -0.52988968957E+01  0.32707183147E+01  0.31886056281E+02  0.00000000000E+00 0. -1.
         11    1    3    3    0    0 -0.95077181440E+01 -0.67131785705E+01  0.15106205648E+02  0.19069895652E+02  0.51100000000E-03 0. -1.
        -11    1    3    3    0    0  0.43774974811E+01 -0.17811155737E+01  0.10767450750E+01  0.48470854234E+01  0.51100000000E-03 0.  1.
        -12    1    3    3    0    0 -0.26141886374E+02  0.13793191040E+02 -0.19453669038E+02  0.35384962644E+02  0.00000000000E+00 0.  1.
</event>
<event>
 7    1  0.5832130E-012  0.5930200E+02  0.7816164E-02  0.1266605E+00
        -11   -1    0    0    0    0  0.00000000000E+00  0.00000000000E+00  0.45593999997E+02  0.45594000000E+02  0.51100000000E-03 0. -1.
         11   -1    0    0    0    0 -0.00000000000E+00 -0.00000000000E+00 -0.45593999997E+02  0.45594000000E+02  0.51100000000E-03 0.  1.
    9900012    2    1    2    0    0 -0.21167439350E+02 -0.17013920141E+02 -0.16708768181E+02  0.59302001484E+02  0.50000104787E+02 0.  0.
         12    1    1    2    0    0  0.21167439350E+02  0.17013920141E+02  0.16708768181E+02  0.31885998516E+02  0.00000000000E+00 0. -1.
         11    1    3    3    0    0 -0.15091705663E+02  0.11707952867E+01 -0.26022570109E+02  0.30104891575E+02  0.51100000000E-03 0.  1.
        -11    1    3    3    0    0 -0.13378665826E+02 -0.10223953176E+02  0.63418091657E+01  0.17992677999E+02  0.51100000000E-03 0. -1.
        -12    1    3    3    0    0  0.73029321392E+01 -0.79607622516E+01  0.29719927616E+01  0.11204431910E+02  0.00000000000E+00 0.  1.
</event>
<event>
 7    1  0.5832130E-012  0.5930183E+02  0.7816164E-02  0.1266605E+00
        -11   -1    0    0    0    0  0.00000000000E+00  0.00000000000E+00  0.45593999997E+02  0.45594000000E+02  0.51100000000E-03 0.  1.
         11   -1    0    0    0    0 -0.00000000000E+00 -0.00000000000E+00 -0.45593999997E+02  0.45594000000E+02  0.51100000000E-03 0. -1.
    9900012    2    1    2    0    0 -0.37713521285E+01 -0.10769740452E+02  0.29774437974E+02  0.59301834302E+02  0.49999799886E+02 0.  0.
         12    1    1    2    0    0  0.37713521285E+01  0.10769740452E+02 -0.29774437974E+02  0.31886165698E+02  0.00000000000E+00 0. -1.
         11    1    3    3    0    0 -0.13060173499E+02  0.49147555788E+01 -0.17911125782E+01  0.14068796635E+02  0.51100000000E-03 0. -1.
        -11    1    3    3    0    0 -0.93832967041E+01 -0.69294392523E+01  0.13229786874E+02  0.17637761944E+02  0.51100000000E-03 0.  1.
         12    1    3    3    0    0  0.18672118074E+02 -0.87550567785E+01  0.18335763678E+02  0.27595275723E+02  0.00000000000E+00 0. -1.
</event>
<event>
 7    1  0.5832130E-012  0.5930190E+02  0.7816164E-02  0.1266605E+00
        -11   -1    0    0    0    0  0.00000000000E+00  0.00000000000E+00  0.45593999997E+02  0.45594000000E+02  0.51100000000E-03 0.  1.
         11   -1    0    0    0    0 -0.00000000000E+00 -0.00000000000E+00 -0.45593999997E+02  0.45594000000E+02  0.51100000000E-03 0. -1.
    9900012    2    1    2    0    0  0.31286960197E+02 -0.59091819784E+01  0.17119431592E+01  0.59301904921E+02  0.49999928679E+02 0.  0.
         12    1    1    2    0    0 -0.31286960197E+02  0.59091819784E+01 -0.17119431592E+01  0.31886095079E+02  0.00000000000E+00 0. -1.
         11    1    3    3    0    0 -0.11924693564E+01  0.53580284508E+01  0.15745715583E+01  0.57104927895E+01  0.51100000000E-03 0. -1.
        -11    1    3    3    0    0  0.40960741316E+02 -0.63557964064E+01  0.64267891049E+01  0.41946180942E+02  0.51100000000E-03 0.  1.
         12    1    3    3    0    0 -0.84813117631E+01 -0.49114140229E+01 -0.62894175040E+01  0.11645231190E+02  0.00000000000E+00 0. -1.
</event>
<event>
 7    1  0.5832130E-012  0.5930187E+02  0.7816164E-02  0.1266605E+00
        -11   -1    0    0    0    0  0.00000000000E+00  0.00000000000E+00  0.45593999997E+02  0.45594000000E+02  0.51100000000E-03 0. -1.
         11   -1    0    0    0    0 -0.00000000000E+00 -0.00000000000E+00 -0.45593999997E+02  0.45594000000E+02  0.51100000000E-03 0.  1.
    9900012    2    1    2    0    0 -0.60824894368E+01 -0.18174329665E+02 -0.25483770002E+02  0.59301867120E+02  0.49999859739E+02 0.  0.
         12    1    1    2    0    0  0.60824894368E+01  0.18174329665E+02  0.25483770002E+02  0.31886132880E+02  0.00000000000E+00 0. -1.
         11    1    3    3    0    0  0.87869950176E+01 -0.11412189533E+02 -0.15088234676E+02  0.20859150924E+02  0.51100000000E-03 0. -1.
        -11    1    3    3    0    0  0.54534652453E+01  0.85475575453E+01 -0.79442252932E+01  0.12880673078E+02  0.51100000000E-03 0.  1.
         12    1    3    3    0    0 -0.20322949700E+02 -0.15309697678E+02 -0.24513100322E+01  0.25562043118E+02  0.00000000000E+00 0. -1.
</event>
<event>
 7    1  0.5832130E-012  0.5930196E+02  0.7816164E-02  0.1266605E+00
        -11   -1    0    0    0    0  0.00000000000E+00  0.00000000000E+00  0.45593999997E+02  0.45594000000E+02  0.51100000000E-03 0. -1.
         11   -1    0    0    0    0 -0.00000000000E+00 -0.00000000000E+00 -0.45593999997E+02  0.45594000000E+02  0.51100000000E-03 0.  1.
    9900012    2    1    2    0    0  0.31224659079E+02 -0.96414732625E-01  0.64599327474E+01  0.59301962907E+02  0.50000034431E+02 0.  0.
         12    1    1    2    0    0 -0.31224659079E+02  0.96414732625E-01 -0.64599327474E+01  0.31886037093E+02  0.00000000000E+00 0. -1.
         11    1    3    3    0    0  0.16497321230E+01  0.20684227806E+01 -0.10920782328E+02  0.11236702176E+02  0.51100000000E-03 0.  1.
        -11    1    3    3    0    0  0.10782315171E+02  0.10981473569E+02  0.19716919218E+02  0.25012156762E+02  0.51100000000E-03 0. -1.
         12    1    3    3    0    0  0.18792611785E+02 -0.13146311083E+02 -0.23362041421E+01  0.23053103969E+02  0.00000000000E+00 0. -1.
</event>
<event>
 7    1  0.5832130E-012  0.5930198E+02  0.7816164E-02  0.1266605E+00
        -11   -1    0    0    0    0  0.00000000000E+00  0.00000000000E+00  0.45593999997E+02  0.45594000000E+02  0.51100000000E-03 0.  1.
         11   -1    0    0    0    0 -0.00000000000E+00 -0.00000000000E+00 -0.45593999997E+02  0.45594000000E+02  0.51100000000E-03 0. -1.
    9900012    2    1    2    0    0  0.95625423438E+01  0.28407014787E+02 -0.10877376676E+02  0.59301983809E+02  0.50000072551E+02 0.  0.
         12    1    1    2    0    0 -0.95625423438E+01 -0.28407014787E+02  0.10877376676E+02  0.31886016191E+02  0.00000000000E+00 0. -1.
         11    1    3    3    0    0 -0.66831577410E+01  0.85159653016E+01 -0.75772916774E+01  0.13213690319E+02  0.51100000000E-03 0. -1.
        -11    1    3    3    0    0 -0.80169837808E+01  0.61103269518E+01  0.10843688219E+02  0.14805191618E+02  0.51100000000E-03 0.  1.
        -12    1    3    3    0    0  0.24262683866E+02  0.13780722534E+02 -0.14143773218E+02  0.31283101872E+02  0.00000000000E+00 0.  1.
</event>
<event>
 7    1  0.5832130E-012  0.5930192E+02  0.7816164E-02  0.1266605E+00
        -11   -1    0    0    0    0  0.00000000000E+00  0.00000000000E+00  0.45593999997E+02  0.45594000000E+02  0.51100000000E-03 0. -1.
         11   -1    0    0    0    0 -0.00000000000E+00 -0.00000000000E+00 -0.45593999997E+02  0.45594000000E+02  0.51100000000E-03 0.  1.
    9900012    2    1    2    0    0 -0.55374182478E+01 -0.29776523761E+02 -0.99708469062E+01  0.59301919085E+02  0.49999954510E+02 0.  0.
         12    1    1    2    0    0  0.55374182478E+01  0.29776523761E+02  0.99708469062E+01  0.31886080915E+02  0.00000000000E+00 0. -1.
         11    1    3    3    0    0  0.78208886656E+01  0.64377502448E+01 -0.27456938163E+01  0.10495225702E+02  0.51100000000E-03 0. -1.
        -11    1    3    3    0    0  0.54695137590E+01 -0.24356381997E+02 -0.88778807399E+01  0.26494635144E+02  0.51100000000E-03 0.  1.
         12    1    3    3    0    0 -0.18827820672E+02 -0.11857892009E+02  0.16527276499E+01  0.22312058239E+02  0.00000000000E+00 0. -1.
</event>
<event>
 7    1  0.5832130E-012  0.5930194E+02  0.7816164E-02  0.1266605E+00
        -11   -1    0    0    0    0  0.00000000000E+00  0.00000000000E+00  0.45593999997E+02  0.45594000000E+02  0.51100000000E-03 0.  1.
         11   -1    0    0    0    0 -0.00000000000E+00 -0.00000000000E+00 -0.45593999997E+02  0.45594000000E+02  0.51100000000E-03 0. -1.
    9900012    2    1    2    0    0  0.13337920857E+02  0.60353605372E+01  0.28326584669E+02  0.59301935511E+02  0.49999984467E+02 0.  0.
         12    1    1    2    0    0 -0.13337920857E+02 -0.60353605372E+01 -0.28326584669E+02  0.31886064489E+02  0.00000000000E+00 0. -1.
         11    1    3    3    0    0  0.84489063743E+01  0.17997219155E+02  0.21576973243E+02  0.29340240129E+02  0.51100000000E-03 0. -1.
        -11    1    3    3    0    0  0.10836541768E+02  0.25874910956E+00  0.11271734114E+02  0.15638081046E+02  0.51100000000E-03 0.  1.
         12    1    3    3    0    0 -0.59475272855E+01 -0.12220607728E+02 -0.45221226875E+01  0.14323614336E+02  0.00000000000E+00 0. -1.
</event>
<event>
 7    1  0.5832130E-012  0.5930199E+02  0.7816164E-02  0.1266605E+00
        -11   -1    0    0    0    0  0.00000000000E+00  0.00000000000E+00  0.45593999997E+02  0.45594000000E+02  0.51100000000E-03 0. -1.
         11   -1    0    0    0    0 -0.00000000000E+00 -0.00000000000E+00 -0.45593999997E+02  0.45594000000E+02  0.51100000000E-03 0.  1.
    9900012    2    1    2    0    0 -0.83426341611E+01 -0.27009472998E+02  0.14751496009E+02  0.59301987222E+02  0.50000078776E+02 0.  0.
         12    1    1    2    0    0  0.83426341611E+01  0.27009472998E+02 -0.14751496009E+02  0.31886012778E+02  0.00000000000E+00 0. -1.
         11    1    3    3    0    0 -0.41815061547E+01 -0.39398331767E+01 -0.13928108676E+02  0.15066502273E+02  0.51100000000E-03 0. -1.
        -11    1    3    3    0    0  0.77397036568E+01 -0.28264101462E+01  0.16019393349E+01  0.83939154691E+01  0.51100000000E-03 0.  1.
         12    1    3    3    0    0 -0.11900831663E+02 -0.20243229675E+02  0.27077665350E+02  0.35841569480E+02  0.00000000000E+00 0. -1.
</event>
<event>
 7    1  0.5832130E-012  0.5930193E+02  0.7816164E-02  0.1266605E+00
        -11   -1    0    0    0    0  0.00000000000E+00  0.00000000000E+00  0.45593999997E+02  0.45594000000E+02  0.51100000000E-03 0.  1.
         11   -1    0    0    0    0 -0.00000000000E+00 -0.00000000000E+00 -0.45593999997E+02  0.45594000000E+02  0.51100000000E-03 0. -1.
    9900012    2    1    2    0    0 -0.27084750716E+02  0.14387389503E+02  0.87258553857E+01  0.59301933289E+02  0.49999980416E+02 0.  0.
         12    1    1    2    0    0  0.27084750716E+02 -0.14387389503E+02 -0.87258553857E+01  0.31886066711E+02  0.00000000000E+00 0. -1.
         11    1    3    3    0    0  0.10768936267E+01 -0.67054997253E+01  0.26535339699E+01  0.72914106481E+01  0.51100000000E-03 0. -1.
        -11    1    3    3    0    0  0.56459913781E+00  0.17963938578E+02  0.13138411821E+02  0.22262967611E+02  0.51100000000E-03 0.  1.
        -12    1    3    3    0    0 -0.28726243480E+02  0.31289506505E+01 -0.70660904050E+01  0.29747555030E+02  0.00000000000E+00 0.  1.
</event>
<event>
 7    1  0.5832130E-012  0.5930190E+02  0.7816164E-02  0.1266605E+00
        -11   -1    0    0    0    0  0.00000000000E+00  0.00000000000E+00  0.45593999997E+02  0.45594000000E+02  0.51100000000E-03 0.  1.
         11   -1    0    0    0    0 -0.00000000000E+00 -0.00000000000E+00 -0.45593999997E+02  0.45594000000E+02  0.51100000000E-03 0. -1.
    9900012    2    1    2    0    0 -0.38528973956E+01  0.31496535821E+02  0.31379648453E+01  0.59301899416E+02  0.49999918640E+02 0.  0.
         12    1    1    2    0    0  0.38528973956E+01 -0.31496535821E+02 -0.31379648453E+01  0.31886100584E+02  0.00000000000E+00 0. -1.
         11    1    3    3    0    0  0.10099824746E+01  0.51612904037E+01  0.19451614452E+02  0.20150044375E+02  0.51100000000E-03 0. -1.
        -11    1    3    3    0    0 -0.12462313100E+02  0.18814589508E+02 -0.41303987788E+01  0.22942498131E+02  0.51100000000E-03 0.  1.
         12    1    3    3    0    0  0.75994332297E+01  0.75206559092E+01 -0.12183250828E+02  0.16209356911E+02  0.00000000000E+00 0. -1.
</event>
<event>
 7    1  0.5832130E-012  0.5930199E+02  0.7816164E-02  0.1266605E+00
        -11   -1    0    0    0    0  0.00000000000E+00  0.00000000000E+00  0.45593999997E+02  0.45594000000E+02  0.51100000000E-03 0.  1.
         11   -1    0    0    0    0 -0.00000000000E+00 -0.00000000000E+00 -0.45593999997E+02  0.45594000000E+02  0.51100000000E-03 0. -1.
    9900012    2    1    2    0    0 -0.13225491592E+02 -0.50385582813E+01  0.28573005389E+02  0.59301994694E+02  0.50000092403E+02 0.  0.
         12    1    1    2    0    0  0.13225491592E+02  0.50385582813E+01 -0.28573005389E+02  0.31886005306E+02  0.00000000000E+00 0. -1.
         11    1    3    3    0    0 -0.11815739739E+02 -0.13992270646E+01 -0.10437614579E+02  0.15827613222E+02  0.51100000000E-03 0. -1.
        -11    1    3    3    0    0  0.81359538991E+01  0.15248496242E+01  0.15226331121E+02  0.17330899339E+02  0.51100000000E-03 0.  1.
        -12    1    3    3    0    0 -0.95457057527E+01 -0.51641808409E+01  0.23784288847E+02  0.26143482133E+02  0.00000000000E+00 0.  1.
</event>
<event>
 7    1  0.5832130E-012  0.5930195E+02  0.7816164E-02  0.1266605E+00
        -11   -1    0    0    0    0  0.00000000000E+00  0.00000000000E+00  0.45593999997E+02  0.45594000000E+02  0.51100000000E-03 0.  1.
         11   -1    0    0    0    0 -0.00000000000E+00 -0.00000000000E+00 -0.45593999997E+02  0.45594000000E+02  0.51100000000E-03 0. -1.
    9900012    2    1    2    0    0 -0.81483858483E+01  0.21189163517E+02  0.22390703329E+02  0.59301946026E+02  0.50000003645E+02 0.  0.
         12    1    1    2    0    0  0.81483858483E+01 -0.21189163517E+02 -0.22390703329E+02  0.31886053974E+02  0.00000000000E+00 0. -1.
         11    1    3    3    0    0  0.77410571870E+01  0.14159788789E+02  0.22331731066E+01  0.16291428645E+02  0.51100000000E-03 0. -1.
        -11    1    3    3    0    0  0.66609063764E+00  0.11599998240E+02  0.22841784168E+02  0.25627148498E+02  0.51100000000E-03 0.  1.
         12    1    3    3    0    0 -0.16555533673E+02 -0.45706235119E+01 -0.26842539459E+01  0.17383368883E+02  0.00000000000E+00 0. -1.
</event>
<event>
 7    1  0.5832130E-012  0.5930192E+02  0.7816164E-02  0.1266605E+00
        -11   -1    0    0    0    0  0.00000000000E+00  0.00000000000E+00  0.45593999997E+02  0.45594000000E+02  0.51100000000E-03 0. -1.
         11   -1    0    0    0    0 -0.00000000000E+00 -0.00000000000E+00 -0.45593999997E+02  0.45594000000E+02  0.51100000000E-03 0.  1.
    9900012    2    1    2    0    0  0.19992064205E+02  0.13766588819E+02 -0.20676573014E+02  0.59301917291E+02  0.49999951238E+02 0.  0.
         12    1    1    2    0    0 -0.19992064205E+02 -0.13766588819E+02  0.20676573014E+02  0.31886082709E+02  0.00000000000E+00 0. -1.
         11    1    3    3    0    0  0.27137997136E+02  0.84972205015E+01 -0.22384441428E+01  0.28525151660E+02  0.51100000000E-03 0. -1.
        -11    1    3    3    0    0  0.49947838073E+01  0.96856935637E+01 -0.12424752014E+02  0.16526796058E+02  0.51100000000E-03 0.  1.
         12    1    3    3    0    0 -0.12140716738E+02 -0.44163252459E+01 -0.60133768580E+01  0.14249969572E+02  0.00000000000E+00 0. -1.
</event>
<event>
 7    1  0.5832130E-012  0.5930194E+02  0.7816164E-02  0.1266605E+00
        -11   -1    0    0    0    0  0.00000000000E+00  0.00000000000E+00  0.45593999997E+02  0.45594000000E+02  0.51100000000E-03 0.  1.
         11   -1    0    0    0    0 -0.00000000000E+00 -0.00000000000E+00 -0.45593999997E+02  0.45594000000E+02  0.51100000000E-03 0. -1.
    9900012    2    1    2    0    0  0.42415068178E+01  0.28752589050E+02  0.13115601905E+02  0.59301940813E+02  0.49999994137E+02 0.  0.
         12    1    1    2    0    0 -0.42415068178E+01 -0.28752589050E+02 -0.13115601905E+02  0.31886059187E+02  0.00000000000E+00 0. -1.
         11    1    3    3    0    0  0.55041626842E+01 -0.38964747658E+01  0.11152597676E+02  0.13032987287E+02  0.51100000000E-03 0. -1.
        -11    1    3    3    0    0 -0.20456772654E+01  0.14759932391E+02  0.17200188493E+02  0.22757128205E+02  0.51100000000E-03 0.  1.
         12    1    3    3    0    0  0.78302139904E+00  0.17889131424E+02 -0.15237184264E+02  0.23511825321E+02  0.00000000000E+00 0. -1.
</event>
<event>
 7    1  0.5832130E-012  0.5930194E+02  0.7816164E-02  0.1266605E+00
        -11   -1    0    0    0    0  0.00000000000E+00  0.00000000000E+00  0.45593999997E+02  0.45594000000E+02  0.51100000000E-03 0. -1.
         11   -1    0    0    0    0 -0.00000000000E+00 -0.00000000000E+00 -0.45593999997E+02  0.45594000000E+02  0.51100000000E-03 0.  1.
    9900012    2    1    2    0    0 -0.27029091247E+01 -0.29757919376E+02 -0.11130185324E+02  0.59301944918E+02  0.50000001624E+02 0.  0.
         12    1    1    2    0    0  0.27029091247E+01  0.29757919376E+02  0.11130185324E+02  0.31886055082E+02  0.00000000000E+00 0. -1.
         11    1    3    3    0    0  0.18064756391E+01 -0.12793041601E+02  0.12066007384E+02  0.17678059908E+02  0.51100000000E-03 0. -1.
        -11    1    3    3    0    0 -0.78148718929E+01 -0.61576886004E-01  0.44932966051E+01  0.90147506376E+01  0.51100000000E-03 0.  1.
        -12    1    3    3    0    0  0.33054871291E+01 -0.16903300889E+02 -0.27689489313E+02  0.32609134373E+02  0.00000000000E+00 0.  1.
</event>
<event>
 7    1  0.5832130E-012  0.5930192E+02  0.7816164E-02  0.1266605E+00
        -11   -1    0    0    0    0  0.00000000000E+00  0.00000000000E+00  0.45593999997E+02  0.45594000000E+02  0.51100000000E-03 0.  1.
         11   -1    0    0    0    0 -0.00000000000E+00 -0.00000000000E+00 -0.45593999997E+02  0.45594000000E+02  0.51100000000E-03 0. -1.
    9900012    2    1    2    0    0  0.18140532321E+02  0.11768363054E+02  0.23433922822E+02  0.59301921208E+02  0.49999958383E+02 0.  0.
         12    1    1    2    0    0 -0.18140532321E+02 -0.11768363054E+02 -0.23433922822E+02  0.31886078792E+02  0.00000000000E+00 0. -1.
         11    1    3    3    0    0  0.18494593116E+02  0.13824805531E+02  0.13776624151E+02  0.26888112536E+02  0.51100000000E-03 0. -1.
        -11    1    3    3    0    0  0.10253611863E+02 -0.95666578431E+01  0.12860653063E+02  0.19027713893E+02  0.51100000000E-03 0.  1.
         12    1    3    3    0    0 -0.10607672658E+02  0.75102153663E+01 -0.32033543916E+01  0.13386094779E+02  0.00000000000E+00 0. -1.
</event>
<event>
 7    1  0.5832130E-012  0.5930194E+02  0.7816164E-02  0.1266605E+00
        -11   -1    0    0    0    0  0.00000000000E+00  0.00000000000E+00  0.45593999997E+02  0.45594000000E+02  0.51100000000E-03 0. -1.
         11   -1    0    0    0    0 -0.00000000000E+00 -0.00000000000E+00 -0.45593999997E+02  0.45594000000E+02  0.51100000000E-03 0.  1.
    9900012    2    1    2    0    0 -0.30709881089E+01  0.26640764084E+02 -0.17249920204E+02  0.59301936807E+02  0.49999986830E+02 0.  0.
         12    1    1    2    0    0  0.30709881089E+01 -0.26640764084E+02  0.17249920204E+02  0.31886063193E+02  0.00000000000E+00 0. -1.
         11    1    3    3    0    0 -0.15277387523E+02  0.10278295280E+02  0.32768569217E+01  0.18702398641E+02  0.51100000000E-03 0. -1.
        -11    1    3    3    0    0  0.39944934992E+00  0.21814808516E+02 -0.14951259683E+02  0.26449680466E+02  0.51100000000E-03 0.  1.
         12    1    3    3    0    0  0.11806950064E+02 -0.54523397126E+01 -0.55755174420E+01  0.14149857699E+02  0.00000000000E+00 0. -1.
</event>
<event>
 7    1  0.5832130E-012  0.5930192E+02  0.7816164E-02  0.1266605E+00
        -11   -1    0    0    0    0  0.00000000000E+00  0.00000000000E+00  0.45593999997E+02  0.45594000000E+02  0.51100000000E-03 0.  1.
         11   -1    0    0    0    0 -0.00000000000E+00 -0.00000000000E+00 -0.45593999997E+02  0.45594000000E+02  0.51100000000E-03 0. -1.
    9900012    2    1    2    0    0  0.14357249764E+02 -0.20069590892E+02  0.20194126157E+02  0.59301924189E+02  0.49999963819E+02 0.  0.
         12    1    1    2    0    0 -0.14357249764E+02  0.20069590892E+02 -0.20194126157E+02  0.31886075811E+02  0.00000000000E+00 0. -1.
         11    1    3    3    0    0  0.18862215556E+01 -0.96649048099E+01 -0.40811815158E+01  0.10659468071E+02  0.51100000000E-03 0. -1.
        -11    1    3    3    0    0 -0.10498769202E+02 -0.11047577266E+02  0.33552510980E-01  0.15240546061E+02  0.51100000000E-03 0.  1.
         12    1    3    3    0    0  0.22969797410E+02  0.64289118363E+00  0.24241755162E+02  0.33401910057E+02  0.00000000000E+00 0. -1.
</event>
<event>
 7    1  0.5832130E-012  0.5930192E+02  0.7816164E-02  0.1266605E+00
        -11   -1    0    0    0    0  0.00000000000E+00  0.00000000000E+00  0.45593999997E+02  0.45594000000E+02  0.51100000000E-03 0.  1.
         11   -1    0    0    0    0 -0.00000000000E+00 -0.00000000000E+00 -0.45593999997E+02  0.45594000000E+02  0.51100000000E-03 0. -1.
    9900012    2    1    2    0    0  0.32503165346E+00 -0.31869962373E+02  0.96027886312E+00  0.59301917100E+02  0.49999950890E+02 0.  0.
         12    1    1    2    0    0 -0.32503165346E+00  0.31869962373E+02 -0.96027886312E+00  0.31886082900E+02  0.00000000000E+00 0. -1.
         11    1    3    3    0    0  0.10338710971E+02  0.19055030841E+01 -0.15290028513E+02  0.18555453611E+02  0.51100000000E-03 0. -1.
        -11    1    3    3    0    0  0.28509127144E+00 -0.49207589662E+01  0.73365666061E+01  0.88385720376E+01  0.51100000000E-03 0.  1.
        -12    1    3    3    0    0 -0.10298770589E+02 -0.28854706491E+02  0.89137407699E+01  0.31907891451E+02  0.00000000000E+00 0.  1.
</event>
<event>
 7    1  0.5832130E-012  0.5930193E+02  0.7816164E-02  0.1266605E+00
        -11   -1    0    0    0    0  0.00000000000E+00  0.00000000000E+00  0.45593999997E+02  0.45594000000E+02  0.51100000000E-03 0.  1.
         11   -1    0    0    0    0 -0.00000000000E+00 -0.00000000000E+00 -0.45593999997E+02  0.45594000000E+02  0.51100000000E-03 0. -1.
    9900012    2    1    2    0    0 -0.40597380880E+00 -0.25846868604E+02  0.18668053406E+02  0.59301927032E+02  0.49999969003E+02 0.  0.
         12    1    1    2    0    0  0.40597380880E+00  0.25846868604E+02 -0.18668053406E+02  0.31886072968E+02  0.00000000000E+00 0. -1.
         11    1    3    3    0    0  0.86511281283E+00 -0.33912333013E+01 -0.36631027521E+01  0.50662812315E+01  0.51100000000E-03 0. -1.
        -11    1    3    3    0    0 -0.15983548513E+02  0.10143482250E+01 -0.34626177455E+01  0.16385739144E+02  0.51100000000E-03 0.  1.
        -12    1    3    3    0    0  0.14712461891E+02 -0.23469983528E+02  0.25793773903E+02  0.37849906656E+02  0.00000000000E+00 0.  1.
</event>
<event>
 7    1  0.5832130E-012  0.5930195E+02  0.7816164E-02  0.1266605E+00
        -11   -1    0    0    0    0  0.00000000000E+00  0.00000000000E+00  0.45593999997E+02  0.45594000000E+02  0.51100000000E-03 0.  1.
         11   -1    0    0    0    0 -0.00000000000E+00 -0.00000000000E+00 -0.45593999997E+02  0.45594000000E+02  0.51100000000E-03 0. -1.
    9900012    2    1    2    0    0  0.12878548658E+02 -0.15128444110E+02  0.24939792941E+02  0.59301951191E+02  0.50000013065E+02 0.  0.
         12    1    1    2    0    0 -0.12878548658E+02  0.15128444110E+02 -0.24939792941E+02  0.31886048809E+02  0.00000000000E+00 0. -1.
         11    1    3    3    0    0  0.55642032627E+01 -0.21503665167E+01 -0.98809427416E+00  0.60465498146E+01  0.51100000000E-03 0. -1.
        -11    1    3    3    0    0 -0.15101083164E+02 -0.15539316884E+02  0.44805556893E+01  0.22126645961E+02  0.51100000000E-03 0.  1.
         12    1    3    3    0    0  0.22415428559E+02  0.25612392909E+01  0.21447331525E+02  0.31128755416E+02  0.00000000000E+00 0. -1.
</event>
<event>
 7    1  0.5832130E-012  0.5930183E+02  0.7816164E-02  0.1266605E+00
        -11   -1    0    0    0    0  0.00000000000E+00  0.00000000000E+00  0.45593999997E+02  0.45594000000E+02  0.51100000000E-03 0. -1.
         11   -1    0    0    0    0 -0.00000000000E+00 -0.00000000000E+00 -0.45593999997E+02  0.45594000000E+02  0.51100000000E-03 0.  1.
    9900012    2    1    2    0    0  0.10070467586E+01 -0.23705475763E+02 -0.21301740482E+02  0.59301829457E+02  0.49999791051E+02 0.  0.
         12    1    1    2    0    0 -0.10070467586E+01  0.23705475763E+02  0.21301740482E+02  0.31886170543E+02  0.00000000000E+00 0. -1.
         11    1    3    3    0    0 -0.12062840932E+02  0.10377335782E+01 -0.20534532218E+02  0.23838121487E+02  0.51100000000E-03 0. -1.
        -11    1    3    3    0    0 -0.31744795249E+01 -0.12198477951E+02  0.58539114267E+01  0.13897786292E+02  0.51100000000E-03 0.  1.
        -12    1    3    3    0    0  0.16244367215E+02 -0.12544731391E+02 -0.66211196902E+01  0.21565921679E+02  0.00000000000E+00 0.  1.
</event>
<event>
 7    1  0.5832130E-012  0.5930195E+02  0.7816164E-02  0.1266605E+00
        -11   -1    0    0    0    0  0.00000000000E+00  0.00000000000E+00  0.45593999997E+02  0.45594000000E+02  0.51100000000E-03 0. -1.
         11   -1    0    0    0    0 -0.00000000000E+00 -0.00000000000E+00 -0.45593999997E+02  0.45594000000E+02  0.51100000000E-03 0.  1.
    9900012    2    1    2    0    0 -0.18996047268E+02  0.21811589091E+02 -0.13421065486E+02  0.59301949300E+02  0.50000009615E+02 0.  0.
         12    1    1    2    0    0  0.18996047268E+02 -0.21811589091E+02  0.13421065486E+02  0.31886050700E+02  0.00000000000E+00 0. -1.
         11    1    3    3    0    0  0.74110042320E+01  0.68483611751E+01 -0.13950821438E+02  0.17217678519E+02  0.51100000000E-03 0. -1.
        -11    1    3    3    0    0  0.54845270925E+01 -0.20987594081E+01  0.70878762011E+00  0.59149986165E+01  0.51100000000E-03 0.  1.
        -12    1    3    3    0    0 -0.31891578592E+02  0.17061987324E+02 -0.17903166794E+00  0.36169272164E+02  0.00000000000E+00 0.  1.
</event>
<event>
 7    1  0.5832130E-012  0.5930156E+02  0.7816164E-02  0.1266606E+00
        -11   -1    0    0    0    0  0.00000000000E+00  0.00000000000E+00  0.45593999997E+02  0.45594000000E+02  0.51100000000E-03 0.  1.
         11   -1    0    0    0    0 -0.00000000000E+00 -0.00000000000E+00 -0.45593999997E+02  0.45594000000E+02  0.51100000000E-03 0. -1.
    9900012    2    1    2    0    0  0.11488181140E+02 -0.29794443409E+01  0.29595429492E+02  0.59301563364E+02  0.49999305757E+02 0.  0.
         12    1    1    2    0    0 -0.11488181140E+02  0.29794443409E+01 -0.29595429492E+02  0.31886436636E+02  0.00000000000E+00 0. -1.
         11    1    3    3    0    0 -0.28206250757E+01 -0.17040743367E+02  0.75692948534E+01  0.18858342588E+02  0.51100000000E-03 0. -1.
        -11    1    3    3    0    0  0.99476565981E+00 -0.38587197083E+01 -0.43421967400E+01  0.58935515010E+01  0.51100000000E-03 0.  1.
        -12    1    3    3    0    0  0.13314040556E+02  0.17920018734E+02  0.26368331379E+02  0.34549669276E+02  0.00000000000E+00 0.  1.
</event>
<event>
 7    1  0.5832130E-012  0.5930196E+02  0.7816164E-02  0.1266605E+00
        -11   -1    0    0    0    0  0.00000000000E+00  0.00000000000E+00  0.45593999997E+02  0.45594000000E+02  0.51100000000E-03 0.  1.
         11   -1    0    0    0    0 -0.00000000000E+00 -0.00000000000E+00 -0.45593999997E+02  0.45594000000E+02  0.51100000000E-03 0. -1.
    9900012    2    1    2    0    0  0.14373790052E+01 -0.20872411512E+02  0.24062339550E+02  0.59301955947E+02  0.50000021738E+02 0.  0.
         12    1    1    2    0    0 -0.14373790052E+01  0.20872411512E+02 -0.24062339550E+02  0.31886044053E+02  0.00000000000E+00 0. -1.
         11    1    3    3    0    0 -0.19028245959E+02 -0.17611537468E+02  0.30766216748E+01  0.26109500137E+02  0.51100000000E-03 0. -1.
        -11    1    3    3    0    0  0.78373424210E+01  0.94162822760E+00 -0.50986656794E+00  0.79101557584E+01  0.51100000000E-03 0.  1.
        -12    1    3    3    0    0  0.12628282543E+02 -0.42025022716E+01  0.21495584443E+02  0.25282300051E+02  0.00000000000E+00 0.  1.
</event>
<event>
 7    1  0.5832130E-012  0.5930194E+02  0.7816164E-02  0.1266605E+00
        -11   -1    0    0    0    0  0.00000000000E+00  0.00000000000E+00  0.45593999997E+02  0.45594000000E+02  0.51100000000E-03 0.  1.
         11   -1    0    0    0    0 -0.00000000000E+00 -0.00000000000E+00 -0.45593999997E+02  0.45594000000E+02  0.51100000000E-03 0. -1.
    9900012    2    1    2    0    0  0.27225921649E+01  0.67156937666E+01  0.31051690719E+02  0.59301944311E+02  0.50000000517E+02 0.  0.
         12    1    1    2    0    0 -0.27225921649E+01 -0.67156937666E+01 -0.31051690719E+02  0.31886055689E+02  0.00000000000E+00 0. -1.
         11    1    3    3    0    0  0.10387963307E+02  0.22347455208E+01 -0.78291968790E+01  0.13198492082E+02  0.51100000000E-03 0. -1.
        -11    1    3    3    0    0 -0.41469750654E+01 -0.74329251039E+01  0.46733138252E+01  0.97100793078E+01  0.51100000000E-03 0.  1.
        -12    1    3    3    0    0 -0.35183960763E+01  0.11913873350E+02  0.34207573773E+02  0.36393372921E+02  0.00000000000E+00 0.  1.
</event>
<event>
 7    1  0.5832130E-012  0.5930195E+02  0.7816164E-02  0.1266605E+00
        -11   -1    0    0    0    0  0.00000000000E+00  0.00000000000E+00  0.45593999997E+02  0.45594000000E+02  0.51100000000E-03 0. -1.
         11   -1    0    0    0    0 -0.00000000000E+00 -0.00000000000E+00 -0.45593999997E+02  0.45594000000E+02  0.51100000000E-03 0.  1.
    9900012    2    1    2    0    0 -0.24201530271E+02  0.20563024633E+02  0.28580163719E+01  0.59301948079E+02  0.50000007389E+02 0.  0.
         12    1    1    2    0    0  0.24201530271E+02 -0.20563024633E+02 -0.28580163719E+01  0.31886051921E+02  0.00000000000E+00 0. -1.
         11    1    3    3    0    0 -0.24640098427E+02  0.47215434547E+01  0.33022086899E+00  0.25090565341E+02  0.51100000000E-03 0. -1.
        -11    1    3    3    0    0 -0.10006281288E+02  0.46271783441E+01 -0.96389210765E+01  0.14643949072E+02  0.51100000000E-03 0.  1.
         12    1    3    3    0    0  0.10444849443E+02  0.11214302834E+02  0.12166716579E+02  0.19567433666E+02  0.00000000000E+00 0. -1.
</event>
<event>
 7    1  0.5832130E-012  0.5930194E+02  0.7816164E-02  0.1266605E+00
        -11   -1    0    0    0    0  0.00000000000E+00  0.00000000000E+00  0.45593999997E+02  0.45594000000E+02  0.51100000000E-03 0.  1.
         11   -1    0    0    0    0 -0.00000000000E+00 -0.00000000000E+00 -0.45593999997E+02  0.45594000000E+02  0.51100000000E-03 0. -1.
    9900012    2    1    2    0    0 -0.28451307910E+02  0.91146858130E+00  0.14367083538E+02  0.59301940567E+02  0.49999993689E+02 0.  0.
         12    1    1    2    0    0  0.28451307910E+02 -0.91146858130E+00 -0.14367083538E+02  0.31886059433E+02  0.00000000000E+00 0. -1.
         11    1    3    3    0    0 -0.88757889930E+01 -0.12599815715E+02 -0.48372924929E+01  0.16153463567E+02  0.51100000000E-03 0. -1.
        -11    1    3    3    0    0 -0.15070862417E+02 -0.71219425668E+01  0.40476612873E+01  0.17153323937E+02  0.51100000000E-03 0.  1.
         12    1    3    3    0    0 -0.45046564999E+01  0.20633226863E+02  0.15156714744E+02  0.25995153063E+02  0.00000000000E+00 0. -1.
</event>
<event>
 7    1  0.5832130E-012  0.5930191E+02  0.7816164E-02  0.1266605E+00
        -11   -1    0    0    0    0  0.00000000000E+00  0.00000000000E+00  0.45593999997E+02  0.45594000000E+02  0.51100000000E-03 0. -1.
         11   -1    0    0    0    0 -0.00000000000E+00 -0.00000000000E+00 -0.45593999997E+02  0.45594000000E+02  0.51100000000E-03 0.  1.
    9900012    2    1    2    0    0  0.49271674549E+01 -0.31492578627E+02  0.81439907162E+00  0.59301910030E+02  0.49999937996E+02 0.  0.
         12    1    1    2    0    0 -0.49271674549E+01  0.31492578627E+02 -0.81439907162E+00  0.31886089970E+02  0.00000000000E+00 0. -1.
         11    1    3    3    0    0  0.51323377265E+01 -0.14413699682E+02  0.43949713260E+01  0.15918900787E+02  0.51100000000E-03 0. -1.
        -11    1    3    3    0    0 -0.45728941693E+01 -0.26672650920E+02  0.75075193104E+01  0.28083883539E+02  0.51100000000E-03 0.  1.
         12    1    3    3    0    0  0.43677238976E+01  0.95937719746E+01 -0.11088091565E+02  0.15299125704E+02  0.00000000000E+00 0. -1.
</event>
<event>
 7    1  0.5832130E-012  0.5930194E+02  0.7816164E-02  0.1266605E+00
        -11   -1    0    0    0    0  0.00000000000E+00  0.00000000000E+00  0.45593999997E+02  0.45594000000E+02  0.51100000000E-03 0. -1.
         11   -1    0    0    0    0 -0.00000000000E+00 -0.00000000000E+00 -0.45593999997E+02  0.45594000000E+02  0.51100000000E-03 0.  1.
    9900012    2    1    2    0    0  0.25481098734E+02  0.11017867565E+02 -0.15685699255E+02  0.59301937849E+02  0.49999988731E+02 0.  0.
         12    1    1    2    0    0 -0.25481098734E+02 -0.11017867565E+02  0.15685699255E+02  0.31886062151E+02  0.00000000000E+00 0. -1.
         11    1    3    3    0    0 -0.34573540841E+01  0.20682519827E+01  0.80753202289E+00  0.41089015267E+01  0.51100000000E-03 0. -1.
        -11    1    3    3    0    0  0.13406374607E+01 -0.64334694702E+01  0.11326786485E+02  0.13095149123E+02  0.51100000000E-03 0.  1.
        -12    1    3    3    0    0  0.27597815358E+02  0.15383085053E+02 -0.27820017763E+02  0.42097887199E+02  0.00000000000E+00 0.  1.
</event>
<event>
 7    1  0.5832130E-012  0.5930195E+02  0.7816164E-02  0.1266605E+00
        -11   -1    0    0    0    0  0.00000000000E+00  0.00000000000E+00  0.45593999997E+02  0.45594000000E+02  0.51100000000E-03 0.  1.
         11   -1    0    0    0    0 -0.00000000000E+00 -0.00000000000E+00 -0.45593999997E+02  0.45594000000E+02  0.51100000000E-03 0. -1.
    9900012    2    1    2    0    0  0.19930934935E+02 -0.64404569862E+01  0.24041600588E+02  0.59301949564E+02  0.50000010096E+02 0.  0.
         12    1    1    2    0    0 -0.19930934935E+02  0.64404569862E+01 -0.24041600588E+02  0.31886050436E+02  0.00000000000E+00 0. -1.
         11    1    3    3    0    0  0.21165359089E+02  0.68862977516E+01 -0.67900816535E+01  0.23270125294E+02  0.51100000000E-03 0. -1.
        -11    1    3    3    0    0  0.37192817086E+01  0.42916725016E+00  0.40241093582E+01  0.54964258700E+01  0.51100000000E-03 0.  1.
        -12    1    3    3    0    0 -0.49537058625E+01 -0.13755921988E+02  0.26807572883E+02  0.30535398399E+02  0.00000000000E+00 0.  1.
</event>
<event>
 7    1  0.5832130E-012  0.5930190E+02  0.7816164E-02  0.1266605E+00
        -11   -1    0    0    0    0  0.00000000000E+00  0.00000000000E+00  0.45593999997E+02  0.45594000000E+02  0.51100000000E-03 0.  1.
         11   -1    0    0    0    0 -0.00000000000E+00 -0.00000000000E+00 -0.45593999997E+02  0.45594000000E+02  0.51100000000E-03 0. -1.
    9900012    2    1    2    0    0 -0.25469788979E+01 -0.12794345480E+02  0.29095374264E+02  0.59301903009E+02  0.49999925192E+02 0.  0.
         12    1    1    2    0    0  0.25469788979E+01  0.12794345480E+02 -0.29095374264E+02  0.31886096991E+02  0.00000000000E+00 0. -1.
         11    1    3    3    0    0 -0.88648597599E+01 -0.11198143133E+02  0.14169275566E+02  0.20118462131E+02  0.51100000000E-03 0. -1.
        -11    1    3    3    0    0 -0.18260278040E+01  0.11029747802E+02  0.20342621614E+02  0.23212323634E+02  0.51100000000E-03 0.  1.
         12    1    3    3    0    0  0.81439086659E+01 -0.12625950149E+02 -0.54165229163E+01  0.15971117244E+02  0.00000000000E+00 0. -1.
</event>
<event>
 7    1  0.5832130E-012  0.5930193E+02  0.7816164E-02  0.1266605E+00
        -11   -1    0    0    0    0  0.00000000000E+00  0.00000000000E+00  0.45593999997E+02  0.45594000000E+02  0.51100000000E-03 0.  1.
         11   -1    0    0    0    0 -0.00000000000E+00 -0.00000000000E+00 -0.45593999997E+02  0.45594000000E+02  0.51100000000E-03 0. -1.
    9900012    2    1    2    0    0  0.22988178663E+02  0.19459939143E+02  0.10467848658E+02  0.59301930233E+02  0.49999974842E+02 0.  0.
         12    1    1    2    0    0 -0.22988178663E+02 -0.19459939143E+02 -0.10467848658E+02  0.31886069767E+02  0.00000000000E+00 0. -1.
         11    1    3    3    0    0  0.16523941464E+02  0.38842994833E+01  0.73887352584E+01  0.18512747851E+02  0.51100000000E-03 0. -1.
        -11    1    3    3    0    0  0.21275200875E+02  0.84441575459E+01  0.69105658918E+01  0.23910121082E+02  0.51100000000E-03 0.  1.
         12    1    3    3    0    0 -0.14810963677E+02  0.71314821139E+01 -0.38314524925E+01  0.16879061301E+02  0.00000000000E+00 0. -1.
</event>
<event>
 7    1  0.5832130E-012  0.5930224E+02  0.7816164E-02  0.1266604E+00
        -11   -1    0    0    0    0  0.00000000000E+00  0.00000000000E+00  0.45593999997E+02  0.45594000000E+02  0.51100000000E-03 0. -1.
         11   -1    0    0    0    0 -0.00000000000E+00 -0.00000000000E+00 -0.45593999997E+02  0.45594000000E+02  0.51100000000E-03 0.  1.
    9900012    2    1    2    0    0 -0.59008813156E+01  0.14315755110E+02  0.27873646014E+02  0.59302244767E+02  0.50000548474E+02 0.  0.
         12    1    1    2    0    0  0.59008813156E+01 -0.14315755110E+02 -0.27873646014E+02  0.31885755233E+02  0.00000000000E+00 0. -1.
         11    1    3    3    0    0 -0.19979204129E+02  0.76245327347E+01  0.53535434078E+01  0.22044557703E+02  0.51100000000E-03 0. -1.
        -11    1    3    3    0    0  0.59831878698E+01  0.14612446355E+01 -0.51050119440E+01  0.79996825049E+01  0.51100000000E-03 0.  1.
         12    1    3    3    0    0  0.80951349432E+01  0.52299777395E+01  0.27625114550E+02  0.29258004559E+02  0.00000000000E+00 0. -1.
</event>
<event>
 7    1  0.5832130E-012  0.5930194E+02  0.7816164E-02  0.1266605E+00
        -11   -1    0    0    0    0  0.00000000000E+00  0.00000000000E+00  0.45593999997E+02  0.45594000000E+02  0.51100000000E-03 0. -1.
         11   -1    0    0    0    0 -0.00000000000E+00 -0.00000000000E+00 -0.45593999997E+02  0.45594000000E+02  0.51100000000E-03 0.  1.
    9900012    2    1    2    0    0 -0.31465894142E+02  0.33973618661E+01  0.38828247343E+01  0.59301938944E+02  0.49999990728E+02 0.  0.
         12    1    1    2    0    0  0.31465894142E+02 -0.33973618661E+01 -0.38828247343E+01  0.31886061056E+02  0.00000000000E+00 0. -1.
         11    1    3    3    0    0  0.44410963022E+01  0.17956832290E+02 -0.33974969815E+01  0.18807289763E+02  0.51100000000E-03 0.  1.
        -11    1    3    3    0    0 -0.13430412357E+02 -0.83953904663E+01  0.66547580769E+01  0.17179766078E+02  0.51100000000E-03 0. -1.
        -12    1    3    3    0    0 -0.22476578086E+02 -0.61640799574E+01  0.62556363886E+00  0.23314883102E+02  0.00000000000E+00 0.  1.
</event>
<event>
 7    1  0.5832130E-012  0.5930170E+02  0.7816164E-02  0.1266606E+00
        -11   -1    0    0    0    0  0.00000000000E+00  0.00000000000E+00  0.45593999997E+02  0.45594000000E+02  0.51100000000E-03 0.  1.
         11   -1    0    0    0    0 -0.00000000000E+00 -0.00000000000E+00 -0.45593999997E+02  0.45594000000E+02  0.51100000000E-03 0. -1.
    9900012    2    1    2    0    0  0.27159527859E+02 -0.13641363473E+02  0.96441268558E+01  0.59301703041E+02  0.49999560496E+02 0.  0.
         12    1    1    2    0    0 -0.27159527859E+02  0.13641363473E+02 -0.96441268558E+01  0.31886296959E+02  0.00000000000E+00 0. -1.
         11    1    3    3    0    0  0.13170427609E+02  0.64689109251E+01 -0.24231144259E+01  0.14872069652E+02  0.51100000000E-03 0. -1.
        -11    1    3    3    0    0  0.19865305404E+02 -0.27002974065E+02  0.11136516466E+02  0.35324396193E+02  0.51100000000E-03 0.  1.
         12    1    3    3    0    0 -0.58762051535E+01  0.68926996673E+01  0.93072481606E+00  0.91052371959E+01  0.00000000000E+00 0. -1.
</event>
<event>
 7    1  0.5832130E-012  0.5930196E+02  0.7816164E-02  0.1266605E+00
        -11   -1    0    0    0    0  0.00000000000E+00  0.00000000000E+00  0.45593999997E+02  0.45594000000E+02  0.51100000000E-03 0.  1.
         11   -1    0    0    0    0 -0.00000000000E+00 -0.00000000000E+00 -0.45593999997E+02  0.45594000000E+02  0.51100000000E-03 0. -1.
    9900012    2    1    2    0    0  0.23961904834E+01  0.12741347686E+02  0.29131358069E+02  0.59301957715E+02  0.50000024962E+02 0.  0.
         12    1    1    2    0    0 -0.23961904834E+01 -0.12741347686E+02 -0.29131358069E+02  0.31886042285E+02  0.00000000000E+00 0. -1.
         11    1    3    3    0    0  0.21287707419E+01  0.66090212782E+01 -0.79313375256E+01  0.10541202129E+02  0.51100000000E-03 0. -1.
        -11    1    3    3    0    0  0.15042773174E+02  0.73307315831E+01  0.17461766588E+02  0.24185490339E+02  0.51100000000E-03 0.  1.
        -12    1    3    3    0    0 -0.14775353433E+02 -0.11984051756E+01  0.19600929006E+02  0.24575265246E+02  0.00000000000E+00 0.  1.
</event>
<event>
 7    1  0.5832130E-012  0.5930194E+02  0.7816164E-02  0.1266605E+00
        -11   -1    0    0    0    0  0.00000000000E+00  0.00000000000E+00  0.45593999997E+02  0.45594000000E+02  0.51100000000E-03 0. -1.
         11   -1    0    0    0    0 -0.00000000000E+00 -0.00000000000E+00 -0.45593999997E+02  0.45594000000E+02  0.51100000000E-03 0.  1.
    9900012    2    1    2    0    0 -0.22463266032E+01  0.22153562349E+02 -0.22823108997E+02  0.59301943295E+02  0.49999998663E+02 0.  0.
         12    1    1    2    0    0  0.22463266032E+01 -0.22153562349E+02  0.22823108997E+02  0.31886056705E+02  0.00000000000E+00 0. -1.
         11    1    3    3    0    0 -0.83247550198E+01 -0.34334969563E+01 -0.10706967664E+01  0.90684529725E+01  0.51100000000E-03 0.  1.
        -11    1    3    3    0    0  0.47882507785E+01  0.31914424051E+02 -0.26870361028E+02  0.41993738939E+02  0.51100000000E-03 0. -1.
         12    1    3    3    0    0  0.12901776381E+01 -0.63273647456E+01  0.51179487980E+01  0.82397513834E+01  0.00000000000E+00 0. -1.
</event>
<event>
 7    1  0.5832130E-012  0.5930196E+02  0.7816164E-02  0.1266605E+00
        -11   -1    0    0    0    0  0.00000000000E+00  0.00000000000E+00  0.45593999997E+02  0.45594000000E+02  0.51100000000E-03 0.  1.
         11   -1    0    0    0    0 -0.00000000000E+00 -0.00000000000E+00 -0.45593999997E+02  0.45594000000E+02  0.51100000000E-03 0. -1.
    9900012    2    1    2    0    0 -0.23529280184E+02 -0.15588081549E+02  0.14835914761E+02  0.59301957926E+02  0.50000025347E+02 0.  0.
         12    1    1    2    0    0  0.23529280184E+02  0.15588081549E+02 -0.14835914761E+02  0.31886042074E+02  0.00000000000E+00 0. -1.
         11    1    3    3    0    0  0.17489294218E+01  0.36279167580E+01 -0.54417119393E+01  0.67699898979E+01  0.51100000000E-03 0. -1.
        -11    1    3    3    0    0  0.46896618404E+01 -0.12433795662E+02 -0.34286526206E+01  0.13723988553E+02  0.51100000000E-03 0.  1.
        -12    1    3    3    0    0 -0.29967871446E+02 -0.67822026449E+01  0.23706279321E+02  0.38807979475E+02  0.00000000000E+00 0.  1.
</event>
<event>
 7    1  0.5832130E-012  0.5930190E+02  0.7816164E-02  0.1266605E+00
        -11   -1    0    0    0    0  0.00000000000E+00  0.00000000000E+00  0.45593999997E+02  0.45594000000E+02  0.51100000000E-03 0.  1.
         11   -1    0    0    0    0 -0.00000000000E+00 -0.00000000000E+00 -0.45593999997E+02  0.45594000000E+02  0.51100000000E-03 0. -1.
    9900012    2    1    2    0    0  0.11901876660E+02  0.24365872158E+02  0.16774170378E+02  0.59301902936E+02  0.49999925059E+02 0.  0.
         12    1    1    2    0    0 -0.11901876660E+02 -0.24365872158E+02 -0.16774170378E+02  0.31886097064E+02  0.00000000000E+00 0. -1.
         11    1    3    3    0    0 -0.25143434238E+01 -0.55330176111E+01 -0.12772245593E+02  0.14144485303E+02  0.51100000000E-03 0. -1.
        -11    1    3    3    0    0  0.64405992147E+01  0.14118876713E+02  0.85853332519E+01  0.17735048497E+02  0.51100000000E-03 0.  1.
        -12    1    3    3    0    0  0.79756208696E+01  0.15780013056E+02  0.20961082719E+02  0.27422369136E+02  0.00000000000E+00 0.  1.
</event>
<event>
 7    1  0.5832130E-012  0.5930195E+02  0.7816164E-02  0.1266605E+00
        -11   -1    0    0    0    0  0.00000000000E+00  0.00000000000E+00  0.45593999997E+02  0.45594000000E+02  0.51100000000E-03 0. -1.
         11   -1    0    0    0    0 -0.00000000000E+00 -0.00000000000E+00 -0.45593999997E+02  0.45594000000E+02  0.51100000000E-03 0.  1.
    9900012    2    1    2    0    0 -0.89507655901E+01 -0.13321991468E+01 -0.30574980550E+02  0.59301946703E+02  0.50000004879E+02 0.  0.
         12    1    1    2    0    0  0.89507655901E+01  0.13321991468E+01  0.30574980550E+02  0.31886053297E+02  0.00000000000E+00 0. -1.
         11    1    3    3    0    0 -0.48329570666E+01  0.17316720509E+02 -0.76626646942E+01  0.19543354719E+02  0.51100000000E-03 0. -1.
        -11    1    3    3    0    0 -0.74816774936E+01  0.29911442500E+01 -0.13921118786E+02  0.16084775116E+02  0.51100000000E-03 0.  1.
        -12    1    3    3    0    0  0.33638689701E+01 -0.21640063906E+02 -0.89911970705E+01  0.23673816867E+02  0.00000000000E+00 0.  1.
</event>
<event>
 7    1  0.5832130E-012  0.5930196E+02  0.7816164E-02  0.1266605E+00
        -11   -1    0    0    0    0  0.00000000000E+00  0.00000000000E+00  0.45593999997E+02  0.45594000000E+02  0.51100000000E-03 0. -1.
         11   -1    0    0    0    0 -0.00000000000E+00 -0.00000000000E+00 -0.45593999997E+02  0.45594000000E+02  0.51100000000E-03 0.  1.
    9900012    2    1    2    0    0 -0.16482157347E+02 -0.77691224223E+00 -0.27284696214E+02  0.59301956800E+02  0.50000023293E+02 0.  0.
         12    1    1    2    0    0  0.16482157347E+02  0.77691224223E+00  0.27284696214E+02  0.31886043200E+02  0.00000000000E+00 0. -1.
         11    1    3    3    0    0 -0.84096303030E+01 -0.18397203061E+01 -0.25668977198E+01  0.89830627741E+01  0.51100000000E-03 0. -1.
        -11    1    3    3    0    0 -0.13698202206E+02 -0.17814741068E+02 -0.19954729567E+02  0.30053235688E+02  0.51100000000E-03 0.  1.
         12    1    3    3    0    0  0.56256751620E+01  0.18877549132E+02 -0.47630689278E+01  0.20265658338E+02  0.00000000000E+00 0. -1.
</event>
<event>
 7    1  0.5832130E-012  0.5930196E+02  0.7816164E-02  0.1266605E+00
        -11   -1    0    0    0    0  0.00000000000E+00  0.00000000000E+00  0.45593999997E+02  0.45594000000E+02  0.51100000000E-03 0. -1.
         11   -1    0    0    0    0 -0.00000000000E+00 -0.00000000000E+00 -0.45593999997E+02  0.45594000000E+02  0.51100000000E-03 0.  1.
    9900012    2    1    2    0    0  0.18391781694E+02 -0.74941510390E+01 -0.24945938624E+02  0.59301956227E+02  0.50000022249E+02 0.  0.
         12    1    1    2    0    0 -0.18391781694E+02  0.74941510390E+01  0.24945938624E+02  0.31886043773E+02  0.00000000000E+00 0. -1.
         11    1    3    3    0    0  0.89371879942E+01 -0.66994274819E+01 -0.13834953148E+02  0.17780933234E+02  0.51100000000E-03 0. -1.
        -11    1    3    3    0    0 -0.28624718512E-01  0.10298034446E+02 -0.21343024288E+02  0.23697574113E+02  0.51100000000E-03 0.  1.
         12    1    3    3    0    0  0.94832184185E+01 -0.11092758004E+02  0.10232038812E+02  0.17823448879E+02  0.00000000000E+00 0. -1.
</event>
<event>
 7    1  0.5832130E-012  0.5930197E+02  0.7816164E-02  0.1266605E+00
        -11   -1    0    0    0    0  0.00000000000E+00  0.00000000000E+00  0.45593999997E+02  0.45594000000E+02  0.51100000000E-03 0.  1.
         11   -1    0    0    0    0 -0.00000000000E+00 -0.00000000000E+00 -0.45593999997E+02  0.45594000000E+02  0.51100000000E-03 0. -1.
    9900012    2    1    2    0    0  0.31244615300E+02 -0.35778716191E+01 -0.52623197497E+01  0.59301966071E+02  0.50000040202E+02 0.  0.
         12    1    1    2    0    0 -0.31244615300E+02  0.35778716191E+01  0.52623197497E+01  0.31886033929E+02  0.00000000000E+00 0. -1.
         11    1    3    3    0    0  0.22371775945E+01 -0.55728812199E+01 -0.11792673990E+02  0.13233636264E+02  0.51100000000E-03 0. -1.
        -11    1    3    3    0    0 -0.79580210645E+01 -0.18506385949E+01 -0.72257829898E+00  0.82022607939E+01  0.51100000000E-03 0.  1.
        -12    1    3    3    0    0  0.36965458770E+02  0.38456481957E+01  0.72529325388E+01  0.37866069013E+02  0.00000000000E+00 0.  1.
</event>
<event>
 7    1  0.5832130E-012  0.5930195E+02  0.7816164E-02  0.1266605E+00
        -11   -1    0    0    0    0  0.00000000000E+00  0.00000000000E+00  0.45593999997E+02  0.45594000000E+02  0.51100000000E-03 0.  1.
         11   -1    0    0    0    0 -0.00000000000E+00 -0.00000000000E+00 -0.45593999997E+02  0.45594000000E+02  0.51100000000E-03 0. -1.
    9900012    2    1    2    0    0  0.13055052582E+02  0.12009784497E+02  0.26496242403E+02  0.59301950024E+02  0.50000010936E+02 0.  0.
         12    1    1    2    0    0 -0.13055052582E+02 -0.12009784497E+02 -0.26496242403E+02  0.31886049976E+02  0.00000000000E+00 0. -1.
         11    1    3    3    0    0  0.19069930105E+02  0.27350722355E+01 -0.62387744411E+01  0.20250065707E+02  0.51100000000E-03 0. -1.
        -11    1    3    3    0    0  0.39632335235E+01  0.59115582561E+01  0.24981505015E+02  0.25975552622E+02  0.51100000000E-03 0.  1.
        -12    1    3    3    0    0 -0.99781110464E+01  0.33631540051E+01  0.77535118292E+01  0.13076331695E+02  0.00000000000E+00 0.  1.
</event>
<event>
 7    1  0.5832130E-012  0.5930192E+02  0.7816164E-02  0.1266605E+00
        -11   -1    0    0    0    0  0.00000000000E+00  0.00000000000E+00  0.45593999997E+02  0.45594000000E+02  0.51100000000E-03 0. -1.
         11   -1    0    0    0    0 -0.00000000000E+00 -0.00000000000E+00 -0.45593999997E+02  0.45594000000E+02  0.51100000000E-03 0.  1.
    9900012    2    1    2    0    0 -0.21936262810E+01 -0.17718797799E+02 -0.26418822841E+02  0.59301921659E+02  0.49999959204E+02 0.  0.
         12    1    1    2    0    0  0.21936262810E+01  0.17718797799E+02  0.26418822841E+02  0.31886078341E+02  0.00000000000E+00 0. -1.
         11    1    3    3    0    0  0.11215431955E+02  0.61729446332E+01 -0.15871189463E+02  0.20390826727E+02  0.51100000000E-03 0. -1.
        -11    1    3    3    0    0 -0.45762687572E+01 -0.10330067065E+02 -0.17874074199E+02  0.21145568094E+02  0.51100000000E-03 0.  1.
        -12    1    3    3    0    0 -0.88327894791E+01 -0.13561675366E+02  0.73264408203E+01  0.17765526838E+02  0.00000000000E+00 0.  1.
</event>
<event>
 7    1  0.5832130E-012  0.5930170E+02  0.7816164E-02  0.1266606E+00
        -11   -1    0    0    0    0  0.00000000000E+00  0.00000000000E+00  0.45593999997E+02  0.45594000000E+02  0.51100000000E-03 0.  1.
         11   -1    0    0    0    0 -0.00000000000E+00 -0.00000000000E+00 -0.45593999997E+02  0.45594000000E+02  0.51100000000E-03 0. -1.
    9900012    2    1    2    0    0 -0.25154945145E+02 -0.13197831206E+02  0.14483862387E+02  0.59301697558E+02  0.49999550497E+02 0.  0.
         12    1    1    2    0    0  0.25154945145E+02  0.13197831206E+02 -0.14483862387E+02  0.31886302442E+02  0.00000000000E+00 0. -1.
         11    1    3    3    0    0 -0.26091695229E+02  0.21517731613E+01  0.28920498864E+00  0.26181870205E+02  0.51100000000E-03 0. -1.
        -11    1    3    3    0    0 -0.64652142154E+01 -0.64455488623E+01  0.18609201596E+02  0.20727915459E+02  0.51100000000E-03 0.  1.
         12    1    3    3    0    0  0.74019642992E+01 -0.89040555045E+01 -0.44145441976E+01  0.12391911894E+02  0.00000000000E+00 0. -1.
</event>
<event>
 7    1  0.5832130E-012  0.5930193E+02  0.7816164E-02  0.1266605E+00
        -11   -1    0    0    0    0  0.00000000000E+00  0.00000000000E+00  0.45593999997E+02  0.45594000000E+02  0.51100000000E-03 0.  1.
         11   -1    0    0    0    0 -0.00000000000E+00 -0.00000000000E+00 -0.45593999997E+02  0.45594000000E+02  0.51100000000E-03 0. -1.
    9900012    2    1    2    0    0 -0.30184984322E+02 -0.91577720113E+01 -0.46608212612E+01  0.59301932172E+02  0.49999978378E+02 0.  0.
         12    1    1    2    0    0  0.30184984322E+02  0.91577720113E+01  0.46608212612E+01  0.31886067828E+02  0.00000000000E+00 0. -1.
         11    1    3    3    0    0  0.25043549021E+01 -0.38407175184E+01  0.76112373210E+01  0.88855972422E+01  0.51100000000E-03 0. -1.
        -11    1    3    3    0    0 -0.10742338775E+02 -0.19824736585E+02 -0.46085563876E+01  0.23014274163E+02  0.51100000000E-03 0.  1.
         12    1    3    3    0    0 -0.21947000449E+02  0.14507682092E+02 -0.76635021947E+01  0.27402060767E+02  0.00000000000E+00 0. -1.
</event>
<event>
 7    1  0.5832130E-012  0.5930187E+02  0.7816164E-02  0.1266605E+00
        -11   -1    0    0    0    0  0.00000000000E+00  0.00000000000E+00  0.45593999997E+02  0.45594000000E+02  0.51100000000E-03 0.  1.
         11   -1    0    0    0    0 -0.00000000000E+00 -0.00000000000E+00 -0.45593999997E+02  0.45594000000E+02  0.51100000000E-03 0. -1.
    9900012    2    1    2    0    0  0.95144802769E+01 -0.23605718112E+02  0.19208588272E+02  0.59301872516E+02  0.49999869580E+02 0.  0.
         12    1    1    2    0    0 -0.95144802769E+01  0.23605718112E+02 -0.19208588272E+02  0.31886127484E+02  0.00000000000E+00 0. -1.
         11    1    3    3    0    0  0.58630910387E+01  0.34445108479E+01 -0.13482534119E+01  0.69324078814E+01  0.51100000000E-03 0. -1.
        -11    1    3    3    0    0 -0.36903968485E+01 -0.88740540815E+01  0.29350890568E+02  0.30884342994E+02  0.51100000000E-03 0.  1.
         12    1    3    3    0    0  0.73417860867E+01 -0.18176174878E+02 -0.87940488848E+01  0.21485121641E+02  0.00000000000E+00 0. -1.
</event>
<event>
 7    1  0.5832130E-012  0.5930191E+02  0.7816164E-02  0.1266605E+00
        -11   -1    0    0    0    0  0.00000000000E+00  0.00000000000E+00  0.45593999997E+02  0.45594000000E+02  0.51100000000E-03 0.  1.
         11   -1    0    0    0    0 -0.00000000000E+00 -0.00000000000E+00 -0.45593999997E+02  0.45594000000E+02  0.51100000000E-03 0. -1.
    9900012    2    1    2    0    0 -0.43302301351E+00  0.30547955563E+02  0.91300360236E+01  0.59301911250E+02  0.49999940220E+02 0.  0.
         12    1    1    2    0    0  0.43302301351E+00 -0.30547955563E+02 -0.91300360236E+01  0.31886088750E+02  0.00000000000E+00 0. -1.
         11    1    3    3    0    0 -0.65504690166E+01  0.13011210370E+02  0.62921419054E+01  0.15867932746E+02  0.51100000000E-03 0. -1.
        -11    1    3    3    0    0 -0.13733471638E+02  0.12111535660E+02  0.10925516523E+02  0.21322862163E+02  0.51100000000E-03 0.  1.
         12    1    3    3    0    0  0.19850917641E+02  0.54252095335E+01 -0.80876224047E+01  0.22111116340E+02  0.00000000000E+00 0. -1.
</event>
<event>
 7    1  0.5832130E-012  0.5930195E+02  0.7816164E-02  0.1266605E+00
        -11   -1    0    0    0    0  0.00000000000E+00  0.00000000000E+00  0.45593999997E+02  0.45594000000E+02  0.51100000000E-03 0. -1.
         11   -1    0    0    0    0 -0.00000000000E+00 -0.00000000000E+00 -0.45593999997E+02  0.45594000000E+02  0.51100000000E-03 0.  1.
    9900012    2    1    2    0    0  0.12097195023E+02 -0.26641429346E+02  0.12673300846E+02  0.59301946005E+02  0.50000003606E+02 0.  0.
         12    1    1    2    0    0 -0.12097195023E+02  0.26641429346E+02 -0.12673300846E+02  0.31886053995E+02  0.00000000000E+00 0. -1.
         11    1    3    3    0    0  0.17549726116E+02 -0.29748082552E+00  0.12229375768E+02  0.21392499001E+02  0.51100000000E-03 0. -1.
        -11    1    3    3    0    0  0.10868378742E+02 -0.10104381570E+02 -0.70949080584E+00  0.14856768183E+02  0.51100000000E-03 0.  1.
         12    1    3    3    0    0 -0.16320909835E+02 -0.16239566950E+02  0.11534158844E+01  0.23052678820E+02  0.00000000000E+00 0. -1.
</event>
<event>
 7    1  0.5892136E-012  0.5930194E+02  0.7816164E-02  0.1266605E+00
        -11   -1    0    0    0    0  0.00000000000E+00  0.00000000000E+00  0.45593999997E+02  0.45594000000E+02  0.51100000000E-03 0. -1.
         11   -1    0    0    0    0 -0.00000000000E+00 -0.00000000000E+00 -0.45593999997E+02  0.45594000000E+02  0.51100000000E-03 0.  1.
    9900012    2    1    2    0    0  0.89387313634E+01  0.21568653202E+02 -0.21716661627E+02  0.59301935465E+02  0.49999984383E+02 0.  0.
         12    1    1    2    0    0 -0.89387313634E+01 -0.21568653202E+02  0.21716661627E+02  0.31886064535E+02  0.00000000000E+00 0. -1.
         11    1    3    3    0    0 -0.80836423215E+01  0.79385679012E+01 -0.18515205501E+02  0.21706657240E+02  0.51100000000E-03 0. -1.
        -11    1    3    3    0    0  0.14791329715E+02  0.14651666218E+02 -0.14925694504E+02  0.25617008303E+02  0.51100000000E-03 0.  1.
         12    1    3    3    0    0  0.22310439702E+01 -0.10215809167E+01  0.11724238379E+02  0.11978269922E+02  0.00000000000E+00 0. -1.
</event>
<event>
 7    1  0.5832130E-012  0.5930195E+02  0.7816164E-02  0.1266605E+00
        -11   -1    0    0    0    0  0.00000000000E+00  0.00000000000E+00  0.45593999997E+02  0.45594000000E+02  0.51100000000E-03 0.  1.
         11   -1    0    0    0    0 -0.00000000000E+00 -0.00000000000E+00 -0.45593999997E+02  0.45594000000E+02  0.51100000000E-03 0. -1.
    9900012    2    1    2    0    0  0.22621881880E+02 -0.10488486400E+02  0.19873657607E+02  0.59301950489E+02  0.50000011784E+02 0.  0.
         12    1    1    2    0    0 -0.22621881880E+02  0.10488486400E+02 -0.19873657607E+02  0.31886049511E+02  0.00000000000E+00 0. -1.
         11    1    3    3    0    0 -0.50387024339E+01 -0.10593401702E+02 -0.10056139839E+02  0.15451039789E+02  0.51100000000E-03 0. -1.
        -11    1    3    3    0    0  0.61760643837E+01  0.23034242439E+01 -0.41587411386E+00  0.66047320959E+01  0.51100000000E-03 0.  1.
        -12    1    3    3    0    0  0.21484519930E+02 -0.21985089414E+01  0.30345671560E+02  0.37246178604E+02  0.00000000000E+00 0.  1.
</event>
<event>
 7    1  0.5832130E-012  0.5930199E+02  0.7816164E-02  0.1266605E+00
        -11   -1    0    0    0    0  0.00000000000E+00  0.00000000000E+00  0.45593999997E+02  0.45594000000E+02  0.51100000000E-03 0.  1.
         11   -1    0    0    0    0 -0.00000000000E+00 -0.00000000000E+00 -0.45593999997E+02  0.45594000000E+02  0.51100000000E-03 0. -1.
    9900012    2    1    2    0    0 -0.94999999158E+01  0.34688804651E+01  0.30239614960E+02  0.59301992991E+02  0.50000089296E+02 0.  0.
         12    1    1    2    0    0  0.94999999158E+01 -0.34688804651E+01 -0.30239614960E+02  0.31886007009E+02  0.00000000000E+00 0. -1.
         11    1    3    3    0    0  0.82941463356E+01 -0.13895926453E+02  0.11316159570E+02  0.19747027702E+02  0.51100000000E-03 0. -1.
        -11    1    3    3    0    0  0.18355567832E+01 -0.14681944124E+01  0.10961464424E+02  0.11210645214E+02  0.51100000000E-03 0.  1.
         12    1    3    3    0    0 -0.19629703035E+02  0.18833001330E+02  0.79619909668E+01  0.28344320074E+02  0.00000000000E+00 0. -1.
</event>
<event>
 7    1  0.5832130E-012  0.5930186E+02  0.7816164E-02  0.1266605E+00
        -11   -1    0    0    0    0  0.00000000000E+00  0.00000000000E+00  0.45593999997E+02  0.45594000000E+02  0.51100000000E-03 0.  1.
         11   -1    0    0    0    0 -0.00000000000E+00 -0.00000000000E+00 -0.45593999997E+02  0.45594000000E+02  0.51100000000E-03 0. -1.
    9900012    2    1    2    0    0  0.14693769987E+02 -0.64865199964E+01  0.27545310175E+02  0.59301859896E+02  0.49999846564E+02 0.  0.
         12    1    1    2    0    0 -0.14693769987E+02  0.64865199964E+01 -0.27545310175E+02  0.31886140104E+02  0.00000000000E+00 0. -1.
         11    1    3    3    0    0  0.10396367610E+02  0.10013429125E+02  0.26902979223E+01  0.14683014864E+02  0.51100000000E-03 0. -1.
        -11    1    3    3    0    0  0.14933653229E+02  0.19390574078E+01  0.14660782439E+02  0.21016957068E+02  0.51100000000E-03 0.  1.
        -12    1    3    3    0    0 -0.10636250852E+02 -0.18439006529E+02  0.10194229814E+02  0.23601887964E+02  0.00000000000E+00 0.  1.
</event>
<event>
 7    1  0.5832130E-012  0.5930194E+02  0.7816164E-02  0.1266605E+00
        -11   -1    0    0    0    0  0.00000000000E+00  0.00000000000E+00  0.45593999997E+02  0.45594000000E+02  0.51100000000E-03 0. -1.
         11   -1    0    0    0    0 -0.00000000000E+00 -0.00000000000E+00 -0.45593999997E+02  0.45594000000E+02  0.51100000000E-03 0.  1.
    9900012    2    1    2    0    0 -0.27415638657E+02 -0.51608692888E+00 -0.16273822431E+02  0.59301939014E+02  0.49999990857E+02 0.  0.
         12    1    1    2    0    0  0.27415638657E+02  0.51608692888E+00  0.16273822431E+02  0.31886060986E+02  0.00000000000E+00 0. -1.
         11    1    3    3    0    0  0.14074951050E+01  0.38123499538E+01  0.61546872129E+01  0.73753121691E+01  0.51100000000E-03 0. -1.
        -11    1    3    3    0    0 -0.11426869782E+02 -0.32778245111E+01  0.97215924875E+01  0.15356654821E+02  0.51100000000E-03 0.  1.
        -12    1    3    3    0    0 -0.17396263980E+02 -0.10506123716E+01 -0.32150102131E+02  0.36569972024E+02  0.00000000000E+00 0.  1.
</event>
<event>
 7    1  0.5832130E-012  0.5930194E+02  0.7816164E-02  0.1266605E+00
        -11   -1    0    0    0    0  0.00000000000E+00  0.00000000000E+00  0.45593999997E+02  0.45594000000E+02  0.51100000000E-03 0. -1.
         11   -1    0    0    0    0 -0.00000000000E+00 -0.00000000000E+00 -0.45593999997E+02  0.45594000000E+02  0.51100000000E-03 0.  1.
    9900012    2    1    2    0    0 -0.26975367112E+01 -0.89606726493E+01 -0.30481965929E+02  0.59301943400E+02  0.49999998854E+02 0.  0.
         12    1    1    2    0    0  0.26975367112E+01  0.89606726493E+01  0.30481965929E+02  0.31886056600E+02  0.00000000000E+00 0. -1.
         11    1    3    3    0    0 -0.80144496695E+01 -0.12012281845E+02  0.87223513112E+01  0.16870261743E+02  0.51100000000E-03 0. -1.
        -11    1    3    3    0    0 -0.32511406453E+01 -0.19236856377E+01 -0.27972752134E+01  0.47005564360E+01  0.51100000000E-03 0.  1.
        -12    1    3    3    0    0  0.85680536036E+01  0.49752948336E+01 -0.36407042027E+02  0.37731125220E+02  0.00000000000E+00 0.  1.
</event>
<event>
 7    1  0.5832130E-012  0.5930201E+02  0.7816164E-02  0.1266605E+00
        -11   -1    0    0    0    0  0.00000000000E+00  0.00000000000E+00  0.45593999997E+02  0.45594000000E+02  0.51100000000E-03 0. -1.
         11   -1    0    0    0    0 -0.00000000000E+00 -0.00000000000E+00 -0.45593999997E+02  0.45594000000E+02  0.51100000000E-03 0.  1.
    9900012    2    1    2    0    0  0.39934017076E+01 -0.30753589556E+02 -0.74152293943E+01  0.59302013192E+02  0.50000126139E+02 0.  0.
         12    1    1    2    0    0 -0.39934017076E+01  0.30753589556E+02  0.74152293943E+01  0.31885986808E+02  0.00000000000E+00 0. -1.
         11    1    3    3    0    0 -0.46377843798E+01  0.24362626994E+01  0.88527047530E+01  0.10286632180E+02  0.51100000000E-03 0. -1.
        -11    1    3    3    0    0  0.10089759970E+02 -0.34025249258E+01 -0.15965829023E+02  0.19190834499E+02  0.51100000000E-03 0.  1.
         12    1    3    3    0    0 -0.14585738826E+01 -0.29787327329E+02 -0.30210512413E+00  0.29824546513E+02  0.00000000000E+00 0. -1.
</event>
<event>
 7    1  0.5832130E-012  0.5930193E+02  0.7816164E-02  0.1266605E+00
        -11   -1    0    0    0    0  0.00000000000E+00  0.00000000000E+00  0.45593999997E+02  0.45594000000E+02  0.51100000000E-03 0. -1.
         11   -1    0    0    0    0 -0.00000000000E+00 -0.00000000000E+00 -0.45593999997E+02  0.45594000000E+02  0.51100000000E-03 0.  1.
    9900012    2    1    2    0    0 -0.20610286952E+02 -0.69140914730E+01 -0.23326649175E+02  0.59301934848E+02  0.49999983259E+02 0.  0.
         12    1    1    2    0    0  0.20610286952E+02  0.69140914730E+01  0.23326649175E+02  0.31886065152E+02  0.00000000000E+00 0. -1.
         11    1    3    3    0    0 -0.82247135159E+01  0.76573352659E+01 -0.37323961170E+01  0.11841092721E+02  0.51100000000E-03 0. -1.
        -11    1    3    3    0    0  0.75803736883E+00  0.16532317917E+01 -0.25654355035E+02  0.25718742748E+02  0.51100000000E-03 0.  1.
        -12    1    3    3    0    0 -0.13143610805E+02 -0.16224658531E+02  0.60601019775E+01  0.21742099379E+02  0.00000000000E+00 0.  1.
</event>
<event>
 7    1  0.5832130E-012  0.5930193E+02  0.7816164E-02  0.1266605E+00
        -11   -1    0    0    0    0  0.00000000000E+00  0.00000000000E+00  0.45593999997E+02  0.45594000000E+02  0.51100000000E-03 0. -1.
         11   -1    0    0    0    0 -0.00000000000E+00 -0.00000000000E+00 -0.45593999997E+02  0.45594000000E+02  0.51100000000E-03 0.  1.
    9900012    2    1    2    0    0 -0.21248446153E+02 -0.23273906521E+02 -0.48528752639E+01  0.59301928010E+02  0.49999970787E+02 0.  0.
         12    1    1    2    0    0  0.21248446153E+02  0.23273906521E+02  0.48528752639E+01  0.31886071990E+02  0.00000000000E+00 0. -1.
         11    1    3    3    0    0 -0.52938213207E+01 -0.92830592938E+01 -0.32269025234E+01  0.11163002920E+02  0.51100000000E-03 0. -1.
        -11    1    3    3    0    0 -0.16309362866E+02 -0.25835570078E+02  0.93861995447E+01  0.31962051569E+02  0.51100000000E-03 0.  1.
        -12    1    3    3    0    0  0.35473803369E+00  0.11844722851E+02 -0.11012172285E+02  0.16176873521E+02  0.00000000000E+00 0.  1.
</event>
<event>
 7    1  0.5832130E-012  0.5930207E+02  0.7816164E-02  0.1266604E+00
        -11   -1    0    0    0    0  0.00000000000E+00  0.00000000000E+00  0.45593999997E+02  0.45594000000E+02  0.51100000000E-03 0. -1.
         11   -1    0    0    0    0 -0.00000000000E+00 -0.00000000000E+00 -0.45593999997E+02  0.45594000000E+02  0.51100000000E-03 0.  1.
    9900012    2    1    2    0    0  0.10136597445E+02  0.13891515760E+01 -0.30199873932E+02  0.59302066810E+02  0.50000223926E+02 0.  0.
         12    1    1    2    0    0 -0.10136597445E+02 -0.13891515760E+01  0.30199873932E+02  0.31885933190E+02  0.00000000000E+00 0. -1.
         11    1    3    3    0    0  0.59405230443E+01  0.16188636959E+02 -0.19779220367E+02  0.26240795324E+02  0.51100000000E-03 0. -1.
        -11    1    3    3    0    0 -0.29979522621E+00 -0.56099239096E+01  0.92884215219E+01  0.10855224460E+02  0.51100000000E-03 0.  1.
         12    1    3    3    0    0  0.44958696264E+01 -0.91895614733E+01 -0.19709075087E+02  0.22206047026E+02  0.00000000000E+00 0. -1.
</event>
<event>
 7    1  0.5832130E-012  0.5930195E+02  0.7816164E-02  0.1266605E+00
        -11   -1    0    0    0    0  0.00000000000E+00  0.00000000000E+00  0.45593999997E+02  0.45594000000E+02  0.51100000000E-03 0.  1.
         11   -1    0    0    0    0 -0.00000000000E+00 -0.00000000000E+00 -0.45593999997E+02  0.45594000000E+02  0.51100000000E-03 0. -1.
    9900012    2    1    2    0    0 -0.20438768196E+02  0.16951580397E+02  0.17652786623E+02  0.59301949776E+02  0.50000010484E+02 0.  0.
         12    1    1    2    0    0  0.20438768196E+02 -0.16951580397E+02 -0.17652786623E+02  0.31886050224E+02  0.00000000000E+00 0. -1.
         11    1    3    3    0    0 -0.74779535057E+01  0.62194573132E+01 -0.71075470604E+00  0.97522618103E+01  0.51100000000E-03 0. -1.
        -11    1    3    3    0    0 -0.18723466037E+01  0.24760132923E+02  0.13496548405E+01  0.24867477408E+02  0.51100000000E-03 0.  1.
         12    1    3    3    0    0 -0.11088468087E+02 -0.14028009840E+02  0.17013886488E+02  0.24682210558E+02  0.00000000000E+00 0. -1.
</event>
<event>
 7    1  0.5832130E-012  0.5930196E+02  0.7816164E-02  0.1266605E+00
        -11   -1    0    0    0    0  0.00000000000E+00  0.00000000000E+00  0.45593999997E+02  0.45594000000E+02  0.51100000000E-03 0.  1.
         11   -1    0    0    0    0 -0.00000000000E+00 -0.00000000000E+00 -0.45593999997E+02  0.45594000000E+02  0.51100000000E-03 0. -1.
    9900012    2    1    2    0    0  0.97753678216E+01  0.30201907484E+02 -0.30010896373E+01  0.59301959626E+02  0.50000028447E+02 0.  0.
         12    1    1    2    0    0 -0.97753678216E+01 -0.30201907484E+02  0.30010896373E+01  0.31886040374E+02  0.00000000000E+00 0. -1.
         11    1    3    3    0    0 -0.79505130063E+01 -0.19281299475E+01  0.27633461520E+01  0.86350694482E+01  0.51100000000E-03 0. -1.
        -11    1    3    3    0    0  0.16511867301E+02  0.69079441808E+00  0.52370235771E+01  0.17336244545E+02  0.51100000000E-03 0.  1.
        -12    1    3    3    0    0  0.12140135267E+01  0.31439243014E+02 -0.11001459366E+02  0.33330645633E+02  0.00000000000E+00 0.  1.
</event>
<event>
 7    1  0.5832130E-012  0.5930199E+02  0.7816164E-02  0.1266605E+00
        -11   -1    0    0    0    0  0.00000000000E+00  0.00000000000E+00  0.45593999997E+02  0.45594000000E+02  0.51100000000E-03 0.  1.
         11   -1    0    0    0    0 -0.00000000000E+00 -0.00000000000E+00 -0.45593999997E+02  0.45594000000E+02  0.51100000000E-03 0. -1.
    9900012    2    1    2    0    0  0.19026688451E+02  0.16657499287E+02 -0.19422414023E+02  0.59301994882E+02  0.50000092746E+02 0.  0.
         12    1    1    2    0    0 -0.19026688451E+02 -0.16657499287E+02  0.19422414023E+02  0.31886005118E+02  0.00000000000E+00 0. -1.
         11    1    3    3    0    0 -0.34308263315E+01  0.11135197674E+02  0.31335757378E+01  0.12065757072E+02  0.51100000000E-03 0. -1.
        -11    1    3    3    0    0  0.12324430747E+02  0.10303416635E+02  0.55368802591E+01  0.16991439929E+02  0.51100000000E-03 0.  1.
         12    1    3    3    0    0  0.10133084035E+02 -0.47811150223E+01 -0.28092870020E+02  0.30244797881E+02  0.00000000000E+00 0. -1.
</event>
<event>
 7    1  0.5832130E-012  0.5930197E+02  0.7816164E-02  0.1266605E+00
        -11   -1    0    0    0    0  0.00000000000E+00  0.00000000000E+00  0.45593999997E+02  0.45594000000E+02  0.51100000000E-03 0. -1.
         11   -1    0    0    0    0 -0.00000000000E+00 -0.00000000000E+00 -0.45593999997E+02  0.45594000000E+02  0.51100000000E-03 0.  1.
    9900012    2    1    2    0    0 -0.14169227536E+02  0.73091717463E+01 -0.27613911723E+02  0.59301966675E+02  0.50000041302E+02 0.  0.
         12    1    1    2    0    0  0.14169227536E+02 -0.73091717463E+01  0.27613911723E+02  0.31886033325E+02  0.00000000000E+00 0. -1.
         11    1    3    3    0    0  0.21002934925E+01 -0.48620960696E+00 -0.12225014319E+02  0.12413646035E+02  0.51100000000E-03 0. -1.
        -11    1    3    3    0    0  0.86451342378E+01 -0.30205254526E+01  0.71302125397E+01  0.11606112662E+02  0.51100000000E-03 0.  1.
         12    1    3    3    0    0 -0.24914655267E+02  0.10815906806E+02 -0.22519109944E+02  0.35282207977E+02  0.00000000000E+00 0. -1.
</event>
<event>
 7    1  0.5832130E-012  0.5930195E+02  0.7816164E-02  0.1266605E+00
        -11   -1    0    0    0    0  0.00000000000E+00  0.00000000000E+00  0.45593999997E+02  0.45594000000E+02  0.51100000000E-03 0.  1.
         11   -1    0    0    0    0 -0.00000000000E+00 -0.00000000000E+00 -0.45593999997E+02  0.45594000000E+02  0.51100000000E-03 0. -1.
    9900012    2    1    2    0    0 -0.22501142908E+02  0.16044264766E+02  0.15905978206E+02  0.59301952789E+02  0.50000015978E+02 0.  0.
         12    1    1    2    0    0  0.22501142908E+02 -0.16044264766E+02 -0.15905978206E+02  0.31886047211E+02  0.00000000000E+00 0. -1.
         11    1    3    3    0    0 -0.19021768964E+02  0.31123883341E+01  0.10761759759E+02  0.22075555010E+02  0.51100000000E-03 0. -1.
        -11    1    3    3    0    0  0.90800965614E+01  0.12416168135E+02  0.14822933914E+02  0.21361852795E+02  0.51100000000E-03 0.  1.
         12    1    3    3    0    0 -0.12559470506E+02  0.51570829667E+00 -0.96787154673E+01  0.15864544984E+02  0.00000000000E+00 0. -1.
</event>
<event>
 7    1  0.5832130E-012  0.5930194E+02  0.7816164E-02  0.1266605E+00
        -11   -1    0    0    0    0  0.00000000000E+00  0.00000000000E+00  0.45593999997E+02  0.45594000000E+02  0.51100000000E-03 0.  1.
         11   -1    0    0    0    0 -0.00000000000E+00 -0.00000000000E+00 -0.45593999997E+02  0.45594000000E+02  0.51100000000E-03 0. -1.
    9900012    2    1    2    0    0 -0.16248126866E+02  0.24438230093E+02 -0.12469638612E+02  0.59301943426E+02  0.49999998903E+02 0.  0.
         12    1    1    2    0    0  0.16248126866E+02 -0.24438230093E+02  0.12469638612E+02  0.31886056574E+02  0.00000000000E+00 0. -1.
         11    1    3    3    0    0  0.17088993336E+01  0.39441732218E+01 -0.16543876755E+01  0.46058482583E+01  0.51100000000E-03 0.  1.
        -11    1    3    3    0    0 -0.28985547467E+02  0.12205731120E+02  0.69438854601E+01  0.32208063892E+02  0.51100000000E-03 0. -1.
         12    1    3    3    0    0  0.11028521268E+02  0.82883257512E+01 -0.17759136397E+02  0.22488031276E+02  0.00000000000E+00 0. -1.
</event>
<event>
 7    1  0.5832130E-012  0.5930197E+02  0.7816164E-02  0.1266605E+00
        -11   -1    0    0    0    0  0.00000000000E+00  0.00000000000E+00  0.45593999997E+02  0.45594000000E+02  0.51100000000E-03 0. -1.
         11   -1    0    0    0    0 -0.00000000000E+00 -0.00000000000E+00 -0.45593999997E+02  0.45594000000E+02  0.51100000000E-03 0.  1.
    9900012    2    1    2    0    0  0.83340850247E+01  0.26798746355E+02 -0.15135685051E+02  0.59301972631E+02  0.50000052166E+02 0.  0.
         12    1    1    2    0    0 -0.83340850247E+01 -0.26798746355E+02  0.15135685051E+02  0.31886027369E+02  0.00000000000E+00 0. -1.
         11    1    3    3    0    0  0.14810973944E+02  0.20628129760E+01  0.32007427527E+01  0.15292642054E+02  0.51100000000E-03 0.  1.
        -11    1    3    3    0    0 -0.15813798167E+02  0.40967608017E+01 -0.28852583340E+01  0.16588682209E+02  0.51100000000E-03 0. -1.
         12    1    3    3    0    0  0.93369092468E+01  0.20639172577E+02 -0.15451169470E+02  0.27420648368E+02  0.00000000000E+00 0. -1.
</event>
<event>
 7    1  0.5832130E-012  0.5930194E+02  0.7816164E-02  0.1266605E+00
        -11   -1    0    0    0    0  0.00000000000E+00  0.00000000000E+00  0.45593999997E+02  0.45594000000E+02  0.51100000000E-03 0. -1.
         11   -1    0    0    0    0 -0.00000000000E+00 -0.00000000000E+00 -0.45593999997E+02  0.45594000000E+02  0.51100000000E-03 0.  1.
    9900012    2    1    2    0    0 -0.23400830756E+02 -0.21436187292E+02 -0.31003099268E+01  0.59301938354E+02  0.49999989652E+02 0.  0.
         12    1    1    2    0    0  0.23400830756E+02  0.21436187292E+02  0.31003099268E+01  0.31886061646E+02  0.00000000000E+00 0. -1.
         11    1    3    3    0    0  0.87487996578E+01  0.21597410310E+01 -0.49896915584E+00  0.90252394568E+01  0.51100000000E-03 0. -1.
        -11    1    3    3    0    0 -0.88092499656E+01  0.67800107963E+01  0.31161875928E+01  0.11544784828E+02  0.51100000000E-03 0.  1.
        -12    1    3    3    0    0 -0.23340380448E+02 -0.30375939119E+02 -0.57175283638E+01  0.38731914069E+02  0.00000000000E+00 0.  1.
</event>
<event>
 7    1  0.5832130E-012  0.5930194E+02  0.7816164E-02  0.1266605E+00
        -11   -1    0    0    0    0  0.00000000000E+00  0.00000000000E+00  0.45593999997E+02  0.45594000000E+02  0.51100000000E-03 0.  1.
         11   -1    0    0    0    0 -0.00000000000E+00 -0.00000000000E+00 -0.45593999997E+02  0.45594000000E+02  0.51100000000E-03 0. -1.
    9900012    2    1    2    0    0 -0.22694301315E+02 -0.72849749241E+01  0.21180617148E+02  0.59301941690E+02  0.49999995736E+02 0.  0.
         12    1    1    2    0    0  0.22694301315E+02  0.72849749241E+01 -0.21180617148E+02  0.31886058310E+02  0.00000000000E+00 0. -1.
         11    1    3    3    0    0  0.18265924451E+01 -0.46694703635E+01 -0.57453385953E+01  0.76255694392E+01  0.51100000000E-03 0. -1.
        -11    1    3    3    0    0 -0.52201569066E+00 -0.16277205584E+02  0.12435002508E+02  0.20490222294E+02  0.51100000000E-03 0.  1.
        -12    1    3    3    0    0 -0.23998878069E+02  0.13661701024E+02  0.14490953235E+02  0.31186149956E+02  0.00000000000E+00 0.  1.
</event>
<event>
 7    1  0.5832130E-012  0.5930194E+02  0.7816164E-02  0.1266605E+00
        -11   -1    0    0    0    0  0.00000000000E+00  0.00000000000E+00  0.45593999997E+02  0.45594000000E+02  0.51100000000E-03 0.  1.
         11   -1    0    0    0    0 -0.00000000000E+00 -0.00000000000E+00 -0.45593999997E+02  0.45594000000E+02  0.51100000000E-03 0. -1.
    9900012    2    1    2    0    0 -0.18509411432E+02  0.22871379417E+02  0.12289112268E+02  0.59301943669E+02  0.49999999346E+02 0.  0.
         12    1    1    2    0    0  0.18509411432E+02 -0.22871379417E+02 -0.12289112268E+02  0.31886056331E+02  0.00000000000E+00 0. -1.
         11    1    3    3    0    0  0.59821266509E+00 -0.78025124394E+00  0.86376216909E+01  0.86933974447E+01  0.51100000000E-03 0. -1.
        -11    1    3    3    0    0 -0.14538741884E+02 -0.24110255503E+01  0.15701102503E+02  0.21533988945E+02  0.51100000000E-03 0.  1.
         12    1    3    3    0    0 -0.45688822129E+01  0.26062656211E+02 -0.12049611926E+02  0.29074557280E+02  0.00000000000E+00 0. -1.
</event>
<event>
 7    1  0.5832130E-012  0.5930194E+02  0.7816164E-02  0.1266605E+00
        -11   -1    0    0    0    0  0.00000000000E+00  0.00000000000E+00  0.45593999997E+02  0.45594000000E+02  0.51100000000E-03 0.  1.
         11   -1    0    0    0    0 -0.00000000000E+00 -0.00000000000E+00 -0.45593999997E+02  0.45594000000E+02  0.51100000000E-03 0. -1.
    9900012    2    1    2    0    0 -0.44372645239E+01  0.48465283812E+01  0.31201645906E+02  0.59301939392E+02  0.49999991546E+02 0.  0.
         12    1    1    2    0    0  0.44372645239E+01 -0.48465283812E+01 -0.31201645906E+02  0.31886060608E+02  0.00000000000E+00 0. -1.
         11    1    3    3    0    0 -0.21833039605E+02 -0.10471257652E+02  0.16122146565E+02  0.29090418789E+02  0.51100000000E-03 0.  1.
        -11    1    3    3    0    0  0.85890437245E+01  0.53649904388E+01  0.20511252252E-01  0.10126954897E+02  0.51100000000E-03 0. -1.
        -12    1    3    3    0    0  0.88067313570E+01  0.99527955940E+01  0.15058988089E+02  0.20084565706E+02  0.00000000000E+00 0.  1.
</event>
<event>
 7    1  0.5832130E-012  0.5930197E+02  0.7816164E-02  0.1266605E+00
        -11   -1    0    0    0    0  0.00000000000E+00  0.00000000000E+00  0.45593999997E+02  0.45594000000E+02  0.51100000000E-03 0.  1.
         11   -1    0    0    0    0 -0.00000000000E+00 -0.00000000000E+00 -0.45593999997E+02  0.45594000000E+02  0.51100000000E-03 0. -1.
    9900012    2    1    2    0    0  0.21774046999E+02  0.20357534880E+02  0.11321696149E+02  0.59301966180E+02  0.50000040400E+02 0.  0.
         12    1    1    2    0    0 -0.21774046999E+02 -0.20357534880E+02 -0.11321696149E+02  0.31886033820E+02  0.00000000000E+00 0. -1.
         11    1    3    3    0    0  0.13166431974E+02  0.75343967502E+01 -0.18529535026E+02  0.23947144586E+02  0.51100000000E-03 0. -1.
        -11    1    3    3    0    0  0.57494706137E+01  0.10145414650E+02  0.10763513400E+02  0.15869438293E+02  0.51100000000E-03 0.  1.
        -12    1    3    3    0    0  0.28581444116E+01  0.26777234797E+01  0.19087717775E+02  0.19485383301E+02  0.00000000000E+00 0.  1.
</event>
<event>
 7    1  0.5832130E-012  0.5930205E+02  0.7816164E-02  0.1266604E+00
        -11   -1    0    0    0    0  0.00000000000E+00  0.00000000000E+00  0.45593999997E+02  0.45594000000E+02  0.51100000000E-03 0.  1.
         11   -1    0    0    0    0 -0.00000000000E+00 -0.00000000000E+00 -0.45593999997E+02  0.45594000000E+02  0.51100000000E-03 0. -1.
    9900012    2    1    2    0    0 -0.13759496907E+02  0.18099246252E+02  0.22356373042E+02  0.59302048773E+02  0.50000191030E+02 0.  0.
         12    1    1    2    0    0  0.13759496907E+02 -0.18099246252E+02 -0.22356373042E+02  0.31885951227E+02  0.00000000000E+00 0. -1.
         11    1    3    3    0    0  0.58543266534E+01  0.48128443420E+01  0.25531109969E+02  0.26632202082E+02  0.51100000000E-03 0.  1.
        -11    1    3    3    0    0  0.14486305860E+01  0.87673903351E+01  0.42949231358E+01  0.98697532323E+01  0.51100000000E-03 0. -1.
         12    1    3    3    0    0 -0.21062454146E+02  0.45190115753E+01 -0.74696600623E+01  0.22800093459E+02  0.00000000000E+00 0. -1.
</event>
<event>
 7    1  0.5832130E-012  0.5930194E+02  0.7816164E-02  0.1266605E+00
        -11   -1    0    0    0    0  0.00000000000E+00  0.00000000000E+00  0.45593999997E+02  0.45594000000E+02  0.51100000000E-03 0.  1.
         11   -1    0    0    0    0 -0.00000000000E+00 -0.00000000000E+00 -0.45593999997E+02  0.45594000000E+02  0.51100000000E-03 0. -1.
    9900012    2    1    2    0    0  0.10614835759E+02 -0.22012928531E+02  0.20481144386E+02  0.59301936649E+02  0.49999986542E+02 0.  0.
         12    1    1    2    0    0 -0.10614835759E+02  0.22012928531E+02 -0.20481144386E+02  0.31886063351E+02  0.00000000000E+00 0. -1.
         11    1    3    3    0    0 -0.47245740262E+00  0.22708837663E+01  0.25227676834E+00  0.23331894279E+01  0.51100000000E-03 0. -1.
        -11    1    3    3    0    0  0.26291974374E+02 -0.38837712446E+01  0.16424729954E+02  0.31242972808E+02  0.51100000000E-03 0.  1.
         12    1    3    3    0    0 -0.15204681213E+02 -0.20400041053E+02  0.38041376638E+01  0.25725774412E+02  0.00000000000E+00 0. -1.
</event>
<event>
 7    1  0.5832130E-012  0.5930195E+02  0.7816164E-02  0.1266605E+00
        -11   -1    0    0    0    0  0.00000000000E+00  0.00000000000E+00  0.45593999997E+02  0.45594000000E+02  0.51100000000E-03 0. -1.
         11   -1    0    0    0    0 -0.00000000000E+00 -0.00000000000E+00 -0.45593999997E+02  0.45594000000E+02  0.51100000000E-03 0.  1.
    9900012    2    1    2    0    0 -0.21474647508E+02  0.15932560757E+02 -0.17369889477E+02  0.59301952294E+02  0.50000015076E+02 0.  0.
         12    1    1    2    0    0  0.21474647508E+02 -0.15932560757E+02  0.17369889477E+02  0.31886047706E+02  0.00000000000E+00 0. -1.
         11    1    3    3    0    0  0.25432382625E+01  0.80940955717E+01 -0.22090948446E+02  0.23664159556E+02  0.51100000000E-03 0. -1.
        -11    1    3    3    0    0 -0.93996705033E+01 -0.87444645947E+01 -0.76505707767E+00  0.12860978937E+02  0.51100000000E-03 0.  1.
        -12    1    3    3    0    0 -0.14618215267E+02  0.16582929780E+02  0.54861160468E+01  0.22776813801E+02  0.00000000000E+00 0.  1.
</event>
<event>
 7    1  0.5832130E-012  0.5930197E+02  0.7816164E-02  0.1266605E+00
        -11   -1    0    0    0    0  0.00000000000E+00  0.00000000000E+00  0.45593999997E+02  0.45594000000E+02  0.51100000000E-03 0.  1.
         11   -1    0    0    0    0 -0.00000000000E+00 -0.00000000000E+00 -0.45593999997E+02  0.45594000000E+02  0.51100000000E-03 0. -1.
    9900012    2    1    2    0    0  0.22305445418E+01  0.30284508286E+02 -0.97258604239E+01  0.59301966505E+02  0.50000040992E+02 0.  0.
         12    1    1    2    0    0 -0.22305445418E+01 -0.30284508286E+02  0.97258604239E+01  0.31886033495E+02  0.00000000000E+00 0. -1.
         11    1    3    3    0    0  0.12891155130E+02  0.11180631927E+01  0.53161090497E+01  0.13989030044E+02  0.51100000000E-03 0. -1.
        -11    1    3    3    0    0 -0.16933484889E+02  0.12831012698E+02  0.14134361723E+01  0.21292618425E+02  0.51100000000E-03 0.  1.
        -12    1    3    3    0    0  0.62728743004E+01  0.16335432396E+02 -0.16455405646E+02  0.24020318035E+02  0.00000000000E+00 0.  1.
</event>
<event>
 7    1  0.5832130E-012  0.5930196E+02  0.7816164E-02  0.1266605E+00
        -11   -1    0    0    0    0  0.00000000000E+00  0.00000000000E+00  0.45593999997E+02  0.45594000000E+02  0.51100000000E-03 0. -1.
         11   -1    0    0    0    0 -0.00000000000E+00 -0.00000000000E+00 -0.45593999997E+02  0.45594000000E+02  0.51100000000E-03 0.  1.
    9900012    2    1    2    0    0  0.11622988517E+01 -0.45479178630E+01 -0.31538623864E+02  0.59301964017E+02  0.50000036455E+02 0.  0.
         12    1    1    2    0    0 -0.11622988517E+01  0.45479178630E+01  0.31538623864E+02  0.31886035983E+02  0.00000000000E+00 0. -1.
         11    1    3    3    0    0  0.18447649642E+02  0.69196343531E+00 -0.21375657637E+02  0.28243819331E+02  0.51100000000E-03 0. -1.
        -11    1    3    3    0    0 -0.65433152744E+01 -0.74452583354E+01  0.59551312101E+01  0.11563322812E+02  0.51100000000E-03 0.  1.
        -12    1    3    3    0    0 -0.10742035516E+02  0.22053770371E+01 -0.16118097437E+02  0.19494821874E+02  0.00000000000E+00 0.  1.
</event>
<event>
 7    1  0.5832130E-012  0.5930214E+02  0.7816164E-02  0.1266604E+00
        -11   -1    0    0    0    0  0.00000000000E+00  0.00000000000E+00  0.45593999997E+02  0.45594000000E+02  0.51100000000E-03 0. -1.
         11   -1    0    0    0    0 -0.00000000000E+00 -0.00000000000E+00 -0.45593999997E+02  0.45594000000E+02  0.51100000000E-03 0.  1.
    9900012    2    1    2    0    0  0.45541666392E+01  0.31557431172E+02 -0.31024370594E+00  0.59302138759E+02  0.50000355141E+02 0.  0.
         12    1    1    2    0    0 -0.45541666392E+01 -0.31557431172E+02  0.31024370594E+00  0.31885861241E+02  0.00000000000E+00 0. -1.
         11    1    3    3    0    0 -0.68121974615E+01  0.11129256652E+02  0.60559866721E+00  0.13062661976E+02  0.51100000000E-03 0. -1.
        -11    1    3    3    0    0 -0.47457804950E+01 -0.94877280612E+01  0.50362947006E+01  0.11743239793E+02  0.51100000000E-03 0.  1.
         12    1    3    3    0    0  0.16112144596E+02  0.29915902581E+02 -0.59521370738E+01  0.34496236990E+02  0.00000000000E+00 0. -1.
</event>
<event>
 7    1  0.5832130E-012  0.5930195E+02  0.7816164E-02  0.1266605E+00
        -11   -1    0    0    0    0  0.00000000000E+00  0.00000000000E+00  0.45593999997E+02  0.45594000000E+02  0.51100000000E-03 0.  1.
         11   -1    0    0    0    0 -0.00000000000E+00 -0.00000000000E+00 -0.45593999997E+02  0.45594000000E+02  0.51100000000E-03 0. -1.
    9900012    2    1    2    0    0 -0.30258147764E+02 -0.10039993797E+02 -0.60266548667E+00  0.59301949959E+02  0.50000010817E+02 0.  0.
         12    1    1    2    0    0  0.30258147764E+02  0.10039993797E+02  0.60266548667E+00  0.31886050041E+02  0.00000000000E+00 0. -1.
         11    1    3    3    0    0  0.53558946874E+01  0.53214942597E+01 -0.25484205537E+01  0.79685856109E+01  0.51100000000E-03 0. -1.
        -11    1    3    3    0    0 -0.10616050506E+02 -0.18117560484E+01  0.16257231435E+02  0.19500783639E+02  0.51100000000E-03 0.  1.
        -12    1    3    3    0    0 -0.24997991945E+02 -0.13549732008E+02 -0.14311476368E+02  0.31832580709E+02  0.00000000000E+00 0.  1.
</event>
<event>
 7    1  0.5832130E-012  0.5930209E+02  0.7816164E-02  0.1266604E+00
        -11   -1    0    0    0    0  0.00000000000E+00  0.00000000000E+00  0.45593999997E+02  0.45594000000E+02  0.51100000000E-03 0. -1.
         11   -1    0    0    0    0 -0.00000000000E+00 -0.00000000000E+00 -0.45593999997E+02  0.45594000000E+02  0.51100000000E-03 0.  1.
    9900012    2    1    2    0    0 -0.21136646734E+02 -0.23857070652E+02 -0.89089329862E+00  0.59302088595E+02  0.50000263655E+02 0.  0.
         12    1    1    2    0    0  0.21136646734E+02  0.23857070652E+02  0.89089329862E+00  0.31885911405E+02  0.00000000000E+00 0. -1.
         11    1    3    3    0    0 -0.13870925665E+01 -0.41052457705E+00  0.17203216621E+02  0.17263928249E+02  0.51100000000E-03 0. -1.
        -11    1    3    3    0    0 -0.81731693778E+01  0.12344819302E+01  0.15847166596E+01  0.84164107829E+01  0.51100000000E-03 0.  1.
        -12    1    3    3    0    0 -0.11576384789E+02 -0.24681028005E+02 -0.19678826579E+02  0.33621749564E+02  0.00000000000E+00 0.  1.
</event>
<event>
 7    1  0.5832130E-012  0.5930194E+02  0.7816164E-02  0.1266605E+00
        -11   -1    0    0    0    0  0.00000000000E+00  0.00000000000E+00  0.45593999997E+02  0.45594000000E+02  0.51100000000E-03 0.  1.
         11   -1    0    0    0    0 -0.00000000000E+00 -0.00000000000E+00 -0.45593999997E+02  0.45594000000E+02  0.51100000000E-03 0. -1.
    9900012    2    1    2    0    0 -0.14523542909E+02  0.17524961978E+02  0.22330775309E+02  0.59301935381E+02  0.49999984231E+02 0.  0.
         12    1    1    2    0    0  0.14523542909E+02 -0.17524961978E+02 -0.22330775309E+02  0.31886064619E+02  0.00000000000E+00 0. -1.
         11    1    3    3    0    0  0.72258474184E+01  0.47833007025E+01 -0.45105851243E+01  0.97692484332E+01  0.51100000000E-03 0. -1.
        -11    1    3    3    0    0  0.38171351559E+01  0.67637971348E+01  0.21336035541E+02  0.22705635542E+02  0.51100000000E-03 0.  1.
        -12    1    3    3    0    0 -0.25566525484E+02  0.59778641412E+01  0.55053248916E+01  0.26827051406E+02  0.00000000000E+00 0.  1.
</event>
<event>
 7    1  0.5832130E-012  0.5930195E+02  0.7816164E-02  0.1266605E+00
        -11   -1    0    0    0    0  0.00000000000E+00  0.00000000000E+00  0.45593999997E+02  0.45594000000E+02  0.51100000000E-03 0.  1.
         11   -1    0    0    0    0 -0.00000000000E+00 -0.00000000000E+00 -0.45593999997E+02  0.45594000000E+02  0.51100000000E-03 0. -1.
    9900012    2    1    2    0    0 -0.18985668539E+02 -0.19649334957E+02  0.16436802850E+02  0.59301945649E+02  0.50000002958E+02 0.  0.
         12    1    1    2    0    0  0.18985668539E+02  0.19649334957E+02 -0.16436802850E+02  0.31886054351E+02  0.00000000000E+00 0. -1.
         11    1    3    3    0    0 -0.88241418020E+01  0.13269061321E+01 -0.12753251938E+01  0.90140231327E+01  0.51100000000E-03 0. -1.
        -11    1    3    3    0    0 -0.61494277372E+00 -0.73525723889E+01  0.29169771577E+02  0.30088437139E+02  0.51100000000E-03 0.  1.
         12    1    3    3    0    0 -0.95465839633E+01 -0.13623668700E+02 -0.11457643533E+02  0.20199485378E+02  0.00000000000E+00 0. -1.
</event>
<event>
 7    1  0.5832130E-012  0.5930195E+02  0.7816164E-02  0.1266605E+00
        -11   -1    0    0    0    0  0.00000000000E+00  0.00000000000E+00  0.45593999997E+02  0.45594000000E+02  0.51100000000E-03 0. -1.
         11   -1    0    0    0    0 -0.00000000000E+00 -0.00000000000E+00 -0.45593999997E+02  0.45594000000E+02  0.51100000000E-03 0.  1.
    9900012    2    1    2    0    0 -0.80372425904E+01 -0.14812219015E+02 -0.27068822911E+02  0.59301948592E+02  0.50000008325E+02 0.  0.
         12    1    1    2    0    0  0.80372425904E+01  0.14812219015E+02  0.27068822911E+02  0.31886051408E+02  0.00000000000E+00 0. -1.
         11    1    3    3    0    0 -0.39617478658E+01 -0.25373673542E+02 -0.31987718659E+02  0.41021127489E+02  0.51100000000E-03 0. -1.
        -11    1    3    3    0    0  0.23007123648E+01 -0.21783580054E+01 -0.11718327135E+00  0.31705288463E+01  0.51100000000E-03 0.  1.
         12    1    3    3    0    0 -0.63762070894E+01  0.12739812532E+02  0.50360790201E+01  0.15110292257E+02  0.00000000000E+00 0. -1.
</event>
<event>
 7    1  0.5832130E-012  0.5930194E+02  0.7816164E-02  0.1266605E+00
        -11   -1    0    0    0    0  0.00000000000E+00  0.00000000000E+00  0.45593999997E+02  0.45594000000E+02  0.51100000000E-03 0. -1.
         11   -1    0    0    0    0 -0.00000000000E+00 -0.00000000000E+00 -0.45593999997E+02  0.45594000000E+02  0.51100000000E-03 0.  1.
    9900012    2    1    2    0    0  0.67963047422E+01 -0.24930882445E+02 -0.18681061495E+02  0.59301941663E+02  0.49999995688E+02 0.  0.
         12    1    1    2    0    0 -0.67963047422E+01  0.24930882445E+02  0.18681061495E+02  0.31886058337E+02  0.00000000000E+00 0. -1.
         11    1    3    3    0    0  0.13605334749E+02 -0.16136335575E+02 -0.94486631108E+01  0.23124958254E+02  0.51100000000E-03 0. -1.
        -11    1    3    3    0    0  0.13542418412E+01 -0.17684884432E+02 -0.14595000756E+02  0.22969613747E+02  0.51100000000E-03 0.  1.
         12    1    3    3    0    0 -0.81632718476E+01  0.88903375612E+01  0.53626023717E+01  0.13207369663E+02  0.00000000000E+00 0. -1.
</event>
<event>
 7    1  0.5832130E-012  0.5930194E+02  0.7816164E-02  0.1266605E+00
        -11   -1    0    0    0    0  0.00000000000E+00  0.00000000000E+00  0.45593999997E+02  0.45594000000E+02  0.51100000000E-03 0.  1.
         11   -1    0    0    0    0 -0.00000000000E+00 -0.00000000000E+00 -0.45593999997E+02  0.45594000000E+02  0.51100000000E-03 0. -1.
    9900012    2    1    2    0    0  0.19820367115E+02  0.22510455391E+02  0.10823744272E+02  0.59301937300E+02  0.49999987730E+02 0.  0.
         12    1    1    2    0    0 -0.19820367115E+02 -0.22510455391E+02 -0.10823744272E+02  0.31886062700E+02  0.00000000000E+00 0. -1.
         11    1    3    3    0    0  0.10500174965E+02  0.11659424303E+02 -0.32973806279E+01  0.16033357996E+02  0.51100000000E-03 0. -1.
        -11    1    3    3    0    0  0.11524218548E+02  0.58455965573E+01  0.26639216951E+02  0.29607878889E+02  0.51100000000E-03 0.  1.
         12    1    3    3    0    0 -0.22040263983E+01  0.50054345307E+01 -0.12518092052E+02  0.13660700415E+02  0.00000000000E+00 0. -1.
</event>
<event>
 7    1  0.5832130E-012  0.5930195E+02  0.7816164E-02  0.1266605E+00
        -11   -1    0    0    0    0  0.00000000000E+00  0.00000000000E+00  0.45593999997E+02  0.45594000000E+02  0.51100000000E-03 0. -1.
         11   -1    0    0    0    0 -0.00000000000E+00 -0.00000000000E+00 -0.45593999997E+02  0.45594000000E+02  0.51100000000E-03 0.  1.
    9900012    2    1    2    0    0 -0.20063138825E+02  0.80109030105E+01 -0.23452418787E+02  0.59301952056E+02  0.50000014642E+02 0.  0.
         12    1    1    2    0    0  0.20063138825E+02 -0.80109030105E+01  0.23452418787E+02  0.31886047944E+02  0.00000000000E+00 0. -1.
         11    1    3    3    0    0 -0.35904779397E+02  0.15784150930E+01 -0.14897308218E+02  0.38904683139E+02  0.51100000000E-03 0. -1.
        -11    1    3    3    0    0  0.32159878606E+01 -0.15581968095E+01 -0.17362315015E+01  0.39730410651E+01  0.51100000000E-03 0.  1.
        -12    1    3    3    0    0  0.12625652712E+02  0.79906847270E+01 -0.68188790667E+01  0.16424227852E+02  0.00000000000E+00 0.  1.
</event>
<event>
 7    1  0.5832130E-012  0.5930194E+02  0.7816164E-02  0.1266605E+00
        -11   -1    0    0    0    0  0.00000000000E+00  0.00000000000E+00  0.45593999997E+02  0.45594000000E+02  0.51100000000E-03 0.  1.
         11   -1    0    0    0    0 -0.00000000000E+00 -0.00000000000E+00 -0.45593999997E+02  0.45594000000E+02  0.51100000000E-03 0. -1.
    9900012    2    1    2    0    0  0.23064430771E+00 -0.26714156531E+02 -0.17407518239E+02  0.59301936474E+02  0.49999986223E+02 0.  0.
         12    1    1    2    0    0 -0.23064430771E+00  0.26714156531E+02  0.17407518239E+02  0.31886063526E+02  0.00000000000E+00 0. -1.
         11    1    3    3    0    0  0.84519398277E+01  0.20412874975E+01 -0.41808435994E+01  0.96478803352E+01  0.51100000000E-03 0. -1.
        -11    1    3    3    0    0  0.12142565658E+02 -0.35123686688E+00  0.36840402652E+00  0.12153229607E+02  0.51100000000E-03 0.  1.
         12    1    3    3    0    0 -0.20363861178E+02 -0.28404207161E+02 -0.13595078667E+02  0.37500826531E+02  0.00000000000E+00 0. -1.
</event>
<event>
 7    1  0.5832130E-012  0.5930196E+02  0.7816164E-02  0.1266605E+00
        -11   -1    0    0    0    0  0.00000000000E+00  0.00000000000E+00  0.45593999997E+02  0.45594000000E+02  0.51100000000E-03 0.  1.
         11   -1    0    0    0    0 -0.00000000000E+00 -0.00000000000E+00 -0.45593999997E+02  0.45594000000E+02  0.51100000000E-03 0. -1.
    9900012    2    1    2    0    0  0.14271584550E+02  0.50730961949E+01  0.28058956606E+02  0.59301961105E+02  0.50000031145E+02 0.  0.
         12    1    1    2    0    0 -0.14271584550E+02 -0.50730961949E+01 -0.28058956606E+02  0.31886038895E+02  0.00000000000E+00 0. -1.
         11    1    3    3    0    0 -0.64053502414E+01 -0.31551908009E+01  0.67662471627E+01  0.98369630290E+01  0.51100000000E-03 0. -1.
        -11    1    3    3    0    0 -0.34934883309E+01 -0.11391212846E+02  0.12154751089E+02  0.17020639386E+02  0.51100000000E-03 0.  1.
        -12    1    3    3    0    0  0.24170423122E+02  0.19619499841E+02  0.91379583541E+01  0.32444358690E+02  0.00000000000E+00 0.  1.
</event>
<event>
 7    1  0.5832130E-012  0.5930195E+02  0.7816164E-02  0.1266605E+00
        -11   -1    0    0    0    0  0.00000000000E+00  0.00000000000E+00  0.45593999997E+02  0.45594000000E+02  0.51100000000E-03 0.  1.
         11   -1    0    0    0    0 -0.00000000000E+00 -0.00000000000E+00 -0.45593999997E+02  0.45594000000E+02  0.51100000000E-03 0. -1.
    9900012    2    1    2    0    0  0.29794209699E+01 -0.16061137781E+02  0.27383992793E+02  0.59301950426E+02  0.50000011670E+02 0.  0.
         12    1    1    2    0    0 -0.29794209699E+01  0.16061137781E+02 -0.27383992793E+02  0.31886049574E+02  0.00000000000E+00 0. -1.
         11    1    3    3    0    0  0.10339606506E+02 -0.14155770475E+02  0.10171716340E+02  0.20267143706E+02  0.51100000000E-03 0. -1.
        -11    1    3    3    0    0  0.75062086391E+00 -0.40638025749E+01  0.26324116344E+02  0.26646519934E+02  0.51100000000E-03 0.  1.
        -12    1    3    3    0    0 -0.81108064003E+01  0.21584352688E+01 -0.91118398918E+01  0.12388286786E+02  0.00000000000E+00 0.  1.
</event>
<event>
 7    1  0.5832130E-012  0.5930193E+02  0.7816164E-02  0.1266605E+00
        -11   -1    0    0    0    0  0.00000000000E+00  0.00000000000E+00  0.45593999997E+02  0.45594000000E+02  0.51100000000E-03 0. -1.
         11   -1    0    0    0    0 -0.00000000000E+00 -0.00000000000E+00 -0.45593999997E+02  0.45594000000E+02  0.51100000000E-03 0.  1.
    9900012    2    1    2    0    0  0.16120817415E+02 -0.44493862001E+01 -0.27148549547E+02  0.59301928838E+02  0.49999972297E+02 0.  0.
         12    1    1    2    0    0 -0.16120817415E+02  0.44493862001E+01  0.27148549547E+02  0.31886071162E+02  0.00000000000E+00 0. -1.
         11    1    3    3    0    0  0.62992006757E+01 -0.12828036314E+02 -0.22670042691E+02  0.26798680578E+02  0.51100000000E-03 0. -1.
        -11    1    3    3    0    0 -0.43053462201E+01 -0.81837149863E+01 -0.54119292961E+01  0.10714391071E+02  0.51100000000E-03 0.  1.
         12    1    3    3    0    0  0.14126962959E+02  0.16562365100E+02  0.93342244032E+00  0.21788857189E+02  0.00000000000E+00 0. -1.
</event>
<event>
 7    1  0.5832130E-012  0.5930154E+02  0.7816164E-02  0.1266606E+00
        -11   -1    0    0    0    0  0.00000000000E+00  0.00000000000E+00  0.45593999997E+02  0.45594000000E+02  0.51100000000E-03 0. -1.
         11   -1    0    0    0    0 -0.00000000000E+00 -0.00000000000E+00 -0.45593999997E+02  0.45594000000E+02  0.51100000000E-03 0.  1.
    9900012    2    1    2    0    0 -0.90060429016E+01  0.10112768398E+02 -0.28868139662E+02  0.59301539222E+02  0.49999261726E+02 0.  0.
         12    1    1    2    0    0  0.90060429016E+01 -0.10112768398E+02  0.28868139662E+02  0.31886460778E+02  0.00000000000E+00 0. -1.
         11    1    3    3    0    0  0.31296023193E+01  0.30611217294E+00 -0.32713104188E+01  0.45375750635E+01  0.51100000000E-03 0. -1.
        -11    1    3    3    0    0 -0.80885944456E+01 -0.14970533431E+02 -0.24247303375E+02  0.29622186829E+02  0.51100000000E-03 0.  1.
         12    1    3    3    0    0 -0.40470507754E+01  0.24777189656E+02 -0.13495258681E+01  0.25141777330E+02  0.00000000000E+00 0. -1.
</event>
<event>
 7    1  0.5832130E-012  0.5930195E+02  0.7816164E-02  0.1266605E+00
        -11   -1    0    0    0    0  0.00000000000E+00  0.00000000000E+00  0.45593999997E+02  0.45594000000E+02  0.51100000000E-03 0. -1.
         11   -1    0    0    0    0 -0.00000000000E+00 -0.00000000000E+00 -0.45593999997E+02  0.45594000000E+02  0.51100000000E-03 0.  1.
    9900012    2    1    2    0    0  0.28102126518E+02  0.32595477341E+01  0.14709380809E+02  0.59301952110E+02  0.50000014740E+02 0.  0.
         12    1    1    2    0    0 -0.28102126518E+02 -0.32595477341E+01 -0.14709380809E+02  0.31886047890E+02  0.00000000000E+00 0. -1.
         11    1    3    3    0    0 -0.85842820964E+01 -0.73047775565E+01  0.11058478459E+02  0.15790491454E+02  0.51100000000E-03 0. -1.
        -11    1    3    3    0    0  0.96900608856E+01 -0.62500333944E+01  0.35016079054E+00  0.11536152315E+02  0.51100000000E-03 0.  1.
         12    1    3    3    0    0  0.26996347729E+02  0.16814358685E+02  0.33007415593E+01  0.31975308341E+02  0.00000000000E+00 0. -1.
</event>
<event>
 7    1  0.5832130E-012  0.5930192E+02  0.7816164E-02  0.1266605E+00
        -11   -1    0    0    0    0  0.00000000000E+00  0.00000000000E+00  0.45593999997E+02  0.45594000000E+02  0.51100000000E-03 0. -1.
         11   -1    0    0    0    0 -0.00000000000E+00 -0.00000000000E+00 -0.45593999997E+02  0.45594000000E+02  0.51100000000E-03 0.  1.
    9900012    2    1    2    0    0 -0.24654335561E+02  0.17823842241E+02 -0.95496731048E+01  0.59301923562E+02  0.49999962675E+02 0.  0.
         12    1    1    2    0    0  0.24654335561E+02 -0.17823842241E+02  0.95496731048E+01  0.31886076438E+02  0.00000000000E+00 0. -1.
         11    1    3    3    0    0 -0.37413098872E+01  0.53928281101E+01  0.42231180629E+01  0.78047883463E+01  0.51100000000E-03 0. -1.
        -11    1    3    3    0    0 -0.26475229326E+02  0.23215890522E+02 -0.31208721654E+01  0.35350462287E+02  0.51100000000E-03 0.  1.
         12    1    3    3    0    0  0.55622036519E+01 -0.10784876391E+02 -0.10651919002E+02  0.16146672928E+02  0.00000000000E+00 0. -1.
</event>
<event>
 7    1  0.5832130E-012  0.5930193E+02  0.7816164E-02  0.1266605E+00
        -11   -1    0    0    0    0  0.00000000000E+00  0.00000000000E+00  0.45593999997E+02  0.45594000000E+02  0.51100000000E-03 0.  1.
         11   -1    0    0    0    0 -0.00000000000E+00 -0.00000000000E+00 -0.45593999997E+02  0.45594000000E+02  0.51100000000E-03 0. -1.
    9900012    2    1    2    0    0  0.14011556462E+01 -0.31567032978E+02 -0.42755870488E+01  0.59301930114E+02  0.49999974625E+02 0.  0.
         12    1    1    2    0    0 -0.14011556462E+01  0.31567032978E+02  0.42755870488E+01  0.31886069886E+02  0.00000000000E+00 0. -1.
         11    1    3    3    0    0  0.79652529127E+01 -0.24174723119E+02 -0.12979029626E+02  0.28571274072E+02  0.51100000000E-03 0. -1.
        -11    1    3    3    0    0 -0.11529254994E+02 -0.10432579255E+02 -0.45951212854E+01  0.16213499638E+02  0.51100000000E-03 0.  1.
        -12    1    3    3    0    0  0.49651577277E+01  0.30402693958E+01  0.13298563862E+02  0.14517156404E+02  0.00000000000E+00 0.  1.
</event>
<event>
 7    1  0.5832130E-012  0.5930195E+02  0.7816164E-02  0.1266605E+00
        -11   -1    0    0    0    0  0.00000000000E+00  0.00000000000E+00  0.45593999997E+02  0.45594000000E+02  0.51100000000E-03 0. -1.
         11   -1    0    0    0    0 -0.00000000000E+00 -0.00000000000E+00 -0.45593999997E+02  0.45594000000E+02  0.51100000000E-03 0.  1.
    9900012    2    1    2    0    0  0.49191708244E+01 -0.84664197793E+01 -0.30345370589E+02  0.59301952555E+02  0.50000015552E+02 0.  0.
         12    1    1    2    0    0 -0.49191708244E+01  0.84664197793E+01  0.30345370589E+02  0.31886047445E+02  0.00000000000E+00 0. -1.
         11    1    3    3    0    0 -0.86810135685E+00  0.11147041601E+02 -0.11393508240E+02  0.15963150275E+02  0.51100000000E-03 0. -1.
        -11    1    3    3    0    0 -0.18762554842E+01 -0.32440511599E+01 -0.24223151428E+02  0.24511329380E+02  0.51100000000E-03 0.  1.
         12    1    3    3    0    0  0.76635276655E+01 -0.16369410221E+02  0.52712890798E+01  0.18827472900E+02  0.00000000000E+00 0. -1.
</event>
<event>
 7    1  0.5832130E-012  0.5930192E+02  0.7816164E-02  0.1266605E+00
        -11   -1    0    0    0    0  0.00000000000E+00  0.00000000000E+00  0.45593999997E+02  0.45594000000E+02  0.51100000000E-03 0. -1.
         11   -1    0    0    0    0 -0.00000000000E+00 -0.00000000000E+00 -0.45593999997E+02  0.45594000000E+02  0.51100000000E-03 0.  1.
    9900012    2    1    2    0    0  0.59628088369E+01  0.17269925573E+02 -0.26132678606E+02  0.59301916678E+02  0.49999950120E+02 0.  0.
         12    1    1    2    0    0 -0.59628088369E+01 -0.17269925573E+02  0.26132678606E+02  0.31886083322E+02  0.00000000000E+00 0. -1.
         11    1    3    3    0    0 -0.65357995738E+01  0.22755573540E+02 -0.21519720720E+00  0.23676551972E+02  0.51100000000E-03 0. -1.
        -11    1    3    3    0    0 -0.37621679151E+01  0.40395558394E+01 -0.71044290285E+01  0.89969345270E+01  0.51100000000E-03 0.  1.
        -12    1    3    3    0    0  0.16260776326E+02 -0.95252038066E+01 -0.18813052370E+02  0.26628430178E+02  0.00000000000E+00 0.  1.
</event>
<event>
 7    1  0.5832130E-012  0.5930197E+02  0.7816164E-02  0.1266605E+00
        -11   -1    0    0    0    0  0.00000000000E+00  0.00000000000E+00  0.45593999997E+02  0.45594000000E+02  0.51100000000E-03 0.  1.
         11   -1    0    0    0    0 -0.00000000000E+00 -0.00000000000E+00 -0.45593999997E+02  0.45594000000E+02  0.51100000000E-03 0. -1.
    9900012    2    1    2    0    0 -0.29507965334E+01  0.29144114469E+02  0.12594921927E+02  0.59301973802E+02  0.50000054302E+02 0.  0.
         12    1    1    2    0    0  0.29507965334E+01 -0.29144114469E+02 -0.12594921927E+02  0.31886026198E+02  0.00000000000E+00 0. -1.
         11    1    3    3    0    0 -0.11623402980E+02  0.66839365769E+01  0.81020915366E+01  0.15665962866E+02  0.51100000000E-03 0.  1.
        -11    1    3    3    0    0  0.89938563281E+01  0.19293183628E+02 -0.13603355328E+02  0.25261980575E+02  0.51100000000E-03 0. -1.
         12    1    3    3    0    0 -0.32124988195E+00  0.31669942640E+01  0.18096185718E+02  0.18374030361E+02  0.00000000000E+00 0. -1.
</event>
<event>
 7    1  0.5832130E-012  0.5930197E+02  0.7816164E-02  0.1266605E+00
        -11   -1    0    0    0    0  0.00000000000E+00  0.00000000000E+00  0.45593999997E+02  0.45594000000E+02  0.51100000000E-03 0. -1.
         11   -1    0    0    0    0 -0.00000000000E+00 -0.00000000000E+00 -0.45593999997E+02  0.45594000000E+02  0.51100000000E-03 0.  1.
    9900012    2    1    2    0    0  0.22563390867E+02  0.11169253079E+02 -0.19566816733E+02  0.59301966399E+02  0.50000040799E+02 0.  0.
         12    1    1    2    0    0 -0.22563390867E+02 -0.11169253079E+02  0.19566816733E+02  0.31886033601E+02  0.00000000000E+00 0. -1.
         11    1    3    3    0    0  0.23659938575E+02 -0.68413046935E+01 -0.87465079072E+01  0.26136134835E+02  0.51100000000E-03 0.  1.
        -11    1    3    3    0    0  0.10166022494E+02  0.30344968116E+01  0.15364883469E+01  0.10719933813E+02  0.51100000000E-03 0. -1.
        -12    1    3    3    0    0 -0.11262570202E+02  0.14976060961E+02 -0.12356797173E+02  0.22445897751E+02  0.00000000000E+00 0.  1.
</event>
<event>
 7    1  0.5832130E-012  0.5930193E+02  0.7816164E-02  0.1266605E+00
        -11   -1    0    0    0    0  0.00000000000E+00  0.00000000000E+00  0.45593999997E+02  0.45594000000E+02  0.51100000000E-03 0. -1.
         11   -1    0    0    0    0 -0.00000000000E+00 -0.00000000000E+00 -0.45593999997E+02  0.45594000000E+02  0.51100000000E-03 0.  1.
    9900012    2    1    2    0    0  0.64299741120E+00  0.24078774312E+02 -0.20893072842E+02  0.59301932339E+02  0.49999978683E+02 0.  0.
         12    1    1    2    0    0 -0.64299741120E+00 -0.24078774312E+02  0.20893072842E+02  0.31886067661E+02  0.00000000000E+00 0. -1.
         11    1    3    3    0    0  0.70332487892E+01 -0.21079313896E+01  0.71959103731E+01  0.10280617182E+02  0.51100000000E-03 0. -1.
        -11    1    3    3    0    0  0.11488803457E+02  0.11986981975E+02 -0.16534634860E+02  0.23432338593E+02  0.51100000000E-03 0.  1.
        -12    1    3    3    0    0 -0.17879054835E+02  0.14199723727E+02 -0.11554348355E+02  0.25588976565E+02  0.00000000000E+00 0.  1.
</event>
<event>
 7    1  0.5832130E-012  0.5930196E+02  0.7816164E-02  0.1266605E+00
        -11   -1    0    0    0    0  0.00000000000E+00  0.00000000000E+00  0.45593999997E+02  0.45594000000E+02  0.51100000000E-03 0. -1.
         11   -1    0    0    0    0 -0.00000000000E+00 -0.00000000000E+00 -0.45593999997E+02  0.45594000000E+02  0.51100000000E-03 0.  1.
    9900012    2    1    2    0    0 -0.24632441172E+02 -0.17192260463E+02 -0.10695268284E+02  0.59301956946E+02  0.50000023561E+02 0.  0.
         12    1    1    2    0    0  0.24632441172E+02  0.17192260463E+02  0.10695268284E+02  0.31886043054E+02  0.00000000000E+00 0. -1.
         11    1    3    3    0    0 -0.11346253299E+02 -0.54071633865E+01 -0.22725592807E+01  0.12772603719E+02  0.51100000000E-03 0.  1.
        -11    1    3    3    0    0 -0.58828504954E+00  0.13973522005E+02  0.49686451253E+01  0.14842265028E+02  0.51100000000E-03 0. -1.
         12    1    3    3    0    0 -0.12697902823E+02 -0.25758619082E+02 -0.13391354129E+02  0.31687088199E+02  0.00000000000E+00 0. -1.
</event>
<event>
 7    1  0.5832130E-012  0.5930228E+02  0.7816164E-02  0.1266604E+00
        -11   -1    0    0    0    0  0.00000000000E+00  0.00000000000E+00  0.45593999997E+02  0.45594000000E+02  0.51100000000E-03 0. -1.
         11   -1    0    0    0    0 -0.00000000000E+00 -0.00000000000E+00 -0.45593999997E+02  0.45594000000E+02  0.51100000000E-03 0.  1.
    9900012    2    1    2    0    0 -0.30275778488E+01 -0.33334546437E+01 -0.31566139910E+02  0.59302276920E+02  0.50000607113E+02 0.  0.
         12    1    1    2    0    0  0.30275778488E+01  0.33334546437E+01  0.31566139910E+02  0.31885723080E+02  0.00000000000E+00 0. -1.
         11    1    3    3    0    0 -0.85165677385E+01  0.13932928572E+02 -0.64601410656E+01  0.17561089018E+02  0.51100000000E-03 0. -1.
        -11    1    3    3    0    0 -0.23231270366E+01  0.56517858667E+01 -0.13648855316E+02  0.14954292173E+02  0.51100000000E-03 0.  1.
        -12    1    3    3    0    0  0.78121169263E+01 -0.22918169083E+02 -0.11457143529E+02  0.26786895729E+02  0.00000000000E+00 0.  1.
</event>
<event>
 7    1  0.5832130E-012  0.5930194E+02  0.7816164E-02  0.1266605E+00
        -11   -1    0    0    0    0  0.00000000000E+00  0.00000000000E+00  0.45593999997E+02  0.45594000000E+02  0.51100000000E-03 0.  1.
         11   -1    0    0    0    0 -0.00000000000E+00 -0.00000000000E+00 -0.45593999997E+02  0.45594000000E+02  0.51100000000E-03 0. -1.
    9900012    2    1    2    0    0  0.49183413002E+01  0.31453950991E+02 -0.17831119527E+01  0.59301943450E+02  0.49999998946E+02 0.  0.
         12    1    1    2    0    0 -0.49183413002E+01 -0.31453950991E+02  0.17831119527E+01  0.31886056550E+02  0.00000000000E+00 0. -1.
         11    1    3    3    0    0 -0.10706819042E+02  0.32983023495E+01 -0.10050462260E+02  0.15050799457E+02  0.51100000000E-03 0. -1.
        -11    1    3    3    0    0  0.21529306362E+02  0.89886369831E+01  0.58304323816E+01  0.24047880764E+02  0.51100000000E-03 0.  1.
         12    1    3    3    0    0 -0.59041460192E+01  0.19167011658E+02  0.24369179258E+01  0.20203263229E+02  0.00000000000E+00 0. -1.
</event>
<event>
 7    1  0.5832130E-012  0.5930192E+02  0.7816164E-02  0.1266605E+00
        -11   -1    0    0    0    0  0.00000000000E+00  0.00000000000E+00  0.45593999997E+02  0.45594000000E+02  0.51100000000E-03 0.  1.
         11   -1    0    0    0    0 -0.00000000000E+00 -0.00000000000E+00 -0.45593999997E+02  0.45594000000E+02  0.51100000000E-03 0. -1.
    9900012    2    1    2    0    0  0.46739686709E+01  0.22303014636E+02  0.22303626745E+02  0.59301918225E+02  0.49999952942E+02 0.  0.
         12    1    1    2    0    0 -0.46739686709E+01 -0.22303014636E+02 -0.22303626745E+02  0.31886081775E+02  0.00000000000E+00 0. -1.
         11    1    3    3    0    0  0.89627227242E+00  0.11821844959E+02 -0.38752957283E+01  0.12473060549E+02  0.51100000000E-03 0. -1.
        -11    1    3    3    0    0  0.19613445995E+02  0.10373374146E+02  0.19862895770E+02  0.29779670643E+02  0.51100000000E-03 0.  1.
         12    1    3    3    0    0 -0.15835749597E+02  0.10779553112E+00  0.63160267040E+01  0.17049187033E+02  0.00000000000E+00 0. -1.
</event>
<event>
 7    1  0.5832130E-012  0.5930203E+02  0.7816164E-02  0.1266604E+00
        -11   -1    0    0    0    0  0.00000000000E+00  0.00000000000E+00  0.45593999997E+02  0.45594000000E+02  0.51100000000E-03 0.  1.
         11   -1    0    0    0    0 -0.00000000000E+00 -0.00000000000E+00 -0.45593999997E+02  0.45594000000E+02  0.51100000000E-03 0. -1.
    9900012    2    1    2    0    0 -0.23717423692E+02  0.40894683376E+01  0.20915899578E+02  0.59302034545E+02  0.50000165081E+02 0.  0.
         12    1    1    2    0    0  0.23717423692E+02 -0.40894683376E+01 -0.20915899578E+02  0.31885965455E+02  0.00000000000E+00 0. -1.
         11    1    3    3    0    0 -0.25922723801E+02  0.41131222829E+01  0.46171360957E+00  0.26251067862E+02  0.51100000000E-03 0. -1.
        -11    1    3    3    0    0  0.41782693577E+01 -0.87974751564E+01 -0.99780884600E+00  0.97902567232E+01  0.51100000000E-03 0.  1.
        -12    1    3    3    0    0 -0.19729692487E+01  0.87738212110E+01  0.21451994814E+02  0.23260709959E+02  0.00000000000E+00 0.  1.
</event>
<event>
 7    1  0.5832130E-012  0.5930195E+02  0.7816164E-02  0.1266605E+00
        -11   -1    0    0    0    0  0.00000000000E+00  0.00000000000E+00  0.45593999997E+02  0.45594000000E+02  0.51100000000E-03 0.  1.
         11   -1    0    0    0    0 -0.00000000000E+00 -0.00000000000E+00 -0.45593999997E+02  0.45594000000E+02  0.51100000000E-03 0. -1.
    9900012    2    1    2    0    0  0.20386871556E+02  0.21571472696E+02 -0.11651917438E+02  0.59301950604E+02  0.50000011994E+02 0.  0.
         12    1    1    2    0    0 -0.20386871556E+02 -0.21571472696E+02  0.11651917438E+02  0.31886049396E+02  0.00000000000E+00 0. -1.
         11    1    3    3    0    0 -0.82065932716E+01 -0.48222299388E+01  0.10347911599E+01  0.95745949112E+01  0.51100000000E-03 0. -1.
        -11    1    3    3    0    0  0.12569320719E+02  0.14948132729E+02  0.80555016198E+01  0.21126419527E+02  0.51100000000E-03 0.  1.
         12    1    3    3    0    0  0.16024144108E+02  0.11445569906E+02 -0.20742210218E+02  0.28600936166E+02  0.00000000000E+00 0. -1.
</event>
<event>
 7    1  0.5832130E-012  0.5930195E+02  0.7816164E-02  0.1266605E+00
        -11   -1    0    0    0    0  0.00000000000E+00  0.00000000000E+00  0.45593999997E+02  0.45594000000E+02  0.51100000000E-03 0.  1.
         11   -1    0    0    0    0 -0.00000000000E+00 -0.00000000000E+00 -0.45593999997E+02  0.45594000000E+02  0.51100000000E-03 0. -1.
    9900012    2    1    2    0    0  0.26938732634E+02  0.17307825666E+01  0.16971417128E+02  0.59301954094E+02  0.50000018358E+02 0.  0.
         12    1    1    2    0    0 -0.26938732634E+02 -0.17307825666E+01 -0.16971417128E+02  0.31886045906E+02  0.00000000000E+00 0. -1.
         11    1    3    3    0    0  0.44693611876E+01  0.10256849973E+02  0.12974349445E+02  0.17132189136E+02  0.51100000000E-03 0. -1.
        -11    1    3    3    0    0 -0.92696886195E+01 -0.10109373175E+01  0.16429285210E+01  0.94682805065E+01  0.51100000000E-03 0.  1.
         12    1    3    3    0    0  0.31739060066E+02 -0.75151300894E+01  0.23541391619E+01  0.32701484451E+02  0.00000000000E+00 0. -1.
</event>
<event>
 7    1  0.5832130E-012  0.5930196E+02  0.7816164E-02  0.1266605E+00
        -11   -1    0    0    0    0  0.00000000000E+00  0.00000000000E+00  0.45593999997E+02  0.45594000000E+02  0.51100000000E-03 0. -1.
         11   -1    0    0    0    0 -0.00000000000E+00 -0.00000000000E+00 -0.45593999997E+02  0.45594000000E+02  0.51100000000E-03 0.  1.
    9900012    2    1    2    0    0  0.88550656913E+01 -0.29452479115E+02  0.84177578934E+01  0.59301962893E+02  0.50000034406E+02 0.  0.
         12    1    1    2    0    0 -0.88550656913E+01  0.29452479115E+02 -0.84177578934E+01  0.31886037107E+02  0.00000000000E+00 0. -1.
         11    1    3    3    0    0  0.11780846402E+02 -0.91774507225E+01  0.12274612883E+02  0.19330806124E+02  0.51100000000E-03 0. -1.
        -11    1    3    3    0    0  0.37717428613E+01  0.76812891895E+01  0.49740572149E+01  0.98979539937E+01  0.51100000000E-03 0.  1.
        -12    1    3    3    0    0 -0.66975235723E+01 -0.27956317582E+02 -0.88309122047E+01  0.30073202775E+02  0.00000000000E+00 0.  1.
</event>
<event>
 7    1  0.5832130E-012  0.5930195E+02  0.7816164E-02  0.1266605E+00
        -11   -1    0    0    0    0  0.00000000000E+00  0.00000000000E+00  0.45593999997E+02  0.45594000000E+02  0.51100000000E-03 0.  1.
         11   -1    0    0    0    0 -0.00000000000E+00 -0.00000000000E+00 -0.45593999997E+02  0.45594000000E+02  0.51100000000E-03 0. -1.
    9900012    2    1    2    0    0  0.24093878832E+02  0.13370320610E+02  0.16044931089E+02  0.59301948440E+02  0.50000008047E+02 0.  0.
         12    1    1    2    0    0 -0.24093878832E+02 -0.13370320610E+02 -0.16044931089E+02  0.31886051560E+02  0.00000000000E+00 0. -1.
         11    1    3    3    0    0  0.14713071418E+02  0.38786439911E+01  0.16869009199E+01  0.15308951132E+02  0.51100000000E-03 0. -1.
        -11    1    3    3    0    0  0.18974480916E+02  0.15765969036E+02  0.19483881948E+02  0.31435940605E+02  0.51100000000E-03 0.  1.
        -12    1    3    3    0    0 -0.95936735020E+01 -0.62742924173E+01 -0.51258517790E+01  0.12557056704E+02  0.00000000000E+00 0.  1.
</event>
<event>
 7    1  0.5832130E-012  0.5930185E+02  0.7816164E-02  0.1266605E+00
        -11   -1    0    0    0    0  0.00000000000E+00  0.00000000000E+00  0.45593999997E+02  0.45594000000E+02  0.51100000000E-03 0.  1.
         11   -1    0    0    0    0 -0.00000000000E+00 -0.00000000000E+00 -0.45593999997E+02  0.45594000000E+02  0.51100000000E-03 0. -1.
    9900012    2    1    2    0    0 -0.13454856622E+02 -0.26656322234E+02  0.11186322286E+02  0.59301851157E+02  0.49999830627E+02 0.  0.
         12    1    1    2    0    0  0.13454856622E+02  0.26656322234E+02 -0.11186322286E+02  0.31886148843E+02  0.00000000000E+00 0. -1.
         11    1    3    3    0    0  0.34859827694E+01 -0.77211833010E+01  0.14766884740E+02  0.17024383473E+02  0.51100000000E-03 0. -1.
        -11    1    3    3    0    0 -0.13364876042E+01  0.55347291337E-01  0.12716272296E+02  0.12786432020E+02  0.51100000000E-03 0.  1.
         12    1    3    3    0    0 -0.15604351787E+02 -0.18990486224E+02 -0.16296834750E+02  0.29491035665E+02  0.00000000000E+00 0. -1.
</event>
<event>
 7    1  0.5832130E-012  0.5930195E+02  0.7816164E-02  0.1266605E+00
        -11   -1    0    0    0    0  0.00000000000E+00  0.00000000000E+00  0.45593999997E+02  0.45594000000E+02  0.51100000000E-03 0.  1.
         11   -1    0    0    0    0 -0.00000000000E+00 -0.00000000000E+00 -0.45593999997E+02  0.45594000000E+02  0.51100000000E-03 0. -1.
    9900012    2    1    2    0    0  0.31044090866E+02 -0.71117904711E+01  0.15514037959E+01  0.59301952971E+02  0.50000016310E+02 0.  0.
         12    1    1    2    0    0 -0.31044090866E+02  0.71117904711E+01 -0.15514037959E+01  0.31886047029E+02  0.00000000000E+00 0. -1.
         11    1    3    3    0    0  0.20153807153E+02  0.14791607497E+01 -0.11460360784E+02  0.23231524463E+02  0.51100000000E-03 0. -1.
        -11    1    3    3    0    0  0.11871629889E+02  0.38126883206E+01 -0.56112988672E+01  0.13673290156E+02  0.51100000000E-03 0.  1.
        -12    1    3    3    0    0 -0.98134617602E+00 -0.12403639541E+02  0.18623063447E+02  0.22397138352E+02  0.00000000000E+00 0.  1.
</event>
<event>
 7    1  0.5832130E-012  0.5930218E+02  0.7816164E-02  0.1266604E+00
        -11   -1    0    0    0    0  0.00000000000E+00  0.00000000000E+00  0.45593999997E+02  0.45594000000E+02  0.51100000000E-03 0.  1.
         11   -1    0    0    0    0 -0.00000000000E+00 -0.00000000000E+00 -0.45593999997E+02  0.45594000000E+02  0.51100000000E-03 0. -1.
    9900012    2    1    2    0    0 -0.32810606383E+01  0.29214658667E+02  0.12346810880E+02  0.59302182168E+02  0.50000434308E+02 0.  0.
         12    1    1    2    0    0  0.32810606383E+01 -0.29214658667E+02 -0.12346810880E+02  0.31885817832E+02  0.00000000000E+00 0. -1.
         11    1    3    3    0    0 -0.12229582067E+02 -0.42081282562E+01 -0.21088871329E+01  0.13104137749E+02  0.51100000000E-03 0. -1.
        -11    1    3    3    0    0 -0.15530032359E+00  0.17311736862E+02  0.20405179993E+02  0.26759890175E+02  0.51100000000E-03 0.  1.
         12    1    3    3    0    0  0.91038217522E+01  0.16111050061E+02 -0.59494819801E+01  0.19438154243E+02  0.00000000000E+00 0. -1.
</event>
<event>
 7    1  0.5832130E-012  0.5930210E+02  0.7816164E-02  0.1266604E+00
        -11   -1    0    0    0    0  0.00000000000E+00  0.00000000000E+00  0.45593999997E+02  0.45594000000E+02  0.51100000000E-03 0.  1.
         11   -1    0    0    0    0 -0.00000000000E+00 -0.00000000000E+00 -0.45593999997E+02  0.45594000000E+02  0.51100000000E-03 0. -1.
    9900012    2    1    2    0    0 -0.16895445278E+01 -0.17716018674E+02  0.26457489485E+02  0.59302099852E+02  0.50000284186E+02 0.  0.
         12    1    1    2    0    0  0.16895445278E+01  0.17716018674E+02 -0.26457489485E+02  0.31885900148E+02  0.00000000000E+00 0. -1.
         11    1    3    3    0    0  0.65923112609E+01 -0.68961801523E+01 -0.42897348977E+01  0.10460291306E+02  0.51100000000E-03 0. -1.
        -11    1    3    3    0    0  0.43366255966E+01 -0.20239536117E+02  0.10552708922E+02  0.23233699870E+02  0.51100000000E-03 0.  1.
         12    1    3    3    0    0 -0.12618481385E+02  0.94196975957E+01  0.20194515461E+02  0.25608108676E+02  0.00000000000E+00 0. -1.
</event>
<event>
 7    1  0.5832130E-012  0.5930194E+02  0.7816164E-02  0.1266605E+00
        -11   -1    0    0    0    0  0.00000000000E+00  0.00000000000E+00  0.45593999997E+02  0.45594000000E+02  0.51100000000E-03 0.  1.
         11   -1    0    0    0    0 -0.00000000000E+00 -0.00000000000E+00 -0.45593999997E+02  0.45594000000E+02  0.51100000000E-03 0. -1.
    9900012    2    1    2    0    0 -0.18456412603E+01  0.26853439279E+02  0.17094070096E+02  0.59301939954E+02  0.49999992571E+02 0.  0.
         12    1    1    2    0    0  0.18456412603E+01 -0.26853439279E+02 -0.17094070096E+02  0.31886060046E+02  0.00000000000E+00 0. -1.
         11    1    3    3    0    0  0.27850005561E+01  0.85925315675E+01  0.12658676054E+01  0.91208688123E+01  0.51100000000E-03 0. -1.
        -11    1    3    3    0    0  0.63022943459E+01  0.68447121245E+01 -0.13774521199E+02  0.16622467705E+02  0.51100000000E-03 0.  1.
        -12    1    3    3    0    0 -0.10932936162E+02  0.11416195587E+02  0.29602723689E+02  0.33558603437E+02  0.00000000000E+00 0.  1.
</event>
<event>
 7    1  0.5832130E-012  0.5930191E+02  0.7816164E-02  0.1266605E+00
        -11   -1    0    0    0    0  0.00000000000E+00  0.00000000000E+00  0.45593999997E+02  0.45594000000E+02  0.51100000000E-03 0.  1.
         11   -1    0    0    0    0 -0.00000000000E+00 -0.00000000000E+00 -0.45593999997E+02  0.45594000000E+02  0.51100000000E-03 0. -1.
    9900012    2    1    2    0    0  0.29461518185E+01  0.25710321068E+02  0.18628526785E+02  0.59301914789E+02  0.49999946675E+02 0.  0.
         12    1    1    2    0    0 -0.29461518185E+01 -0.25710321068E+02 -0.18628526785E+02  0.31886085211E+02  0.00000000000E+00 0. -1.
         11    1    3    3    0    0 -0.47930590688E+01  0.46544692038E+00  0.97460105383E+01  0.10870822312E+02  0.51100000000E-03 0. -1.
        -11    1    3    3    0    0  0.13193470910E+02  0.76544320740E+01  0.21315296432E+02  0.26210682312E+02  0.51100000000E-03 0.  1.
         12    1    3    3    0    0 -0.54542600225E+01  0.17590442073E+02 -0.12432780185E+02  0.22220410164E+02  0.00000000000E+00 0. -1.
</event>
<event>
 7    1  0.5832130E-012  0.5930190E+02  0.7816164E-02  0.1266605E+00
        -11   -1    0    0    0    0  0.00000000000E+00  0.00000000000E+00  0.45593999997E+02  0.45594000000E+02  0.51100000000E-03 0. -1.
         11   -1    0    0    0    0 -0.00000000000E+00 -0.00000000000E+00 -0.45593999997E+02  0.45594000000E+02  0.51100000000E-03 0.  1.
    9900012    2    1    2    0    0  0.50668791149E+01 -0.31378426115E+02  0.25385742440E+01  0.59301901954E+02  0.49999923267E+02 0.  0.
         12    1    1    2    0    0 -0.50668791149E+01  0.31378426115E+02 -0.25385742440E+01  0.31886098046E+02  0.00000000000E+00 0. -1.
         11    1    3    3    0    0  0.18918119876E+01 -0.17009526931E+02 -0.82736322732E+01  0.19009364804E+02  0.51100000000E-03 0. -1.
        -11    1    3    3    0    0  0.96104693794E+01 -0.23996933306E+02  0.23638747837E+01  0.25957693157E+02  0.51100000000E-03 0.  1.
         12    1    3    3    0    0 -0.64354022521E+01  0.96280341218E+01  0.84483317336E+01  0.14334843992E+02  0.00000000000E+00 0. -1.
</event>
<event>
 7    1  0.5832130E-012  0.5930196E+02  0.7816164E-02  0.1266605E+00
        -11   -1    0    0    0    0  0.00000000000E+00  0.00000000000E+00  0.45593999997E+02  0.45594000000E+02  0.51100000000E-03 0. -1.
         11   -1    0    0    0    0 -0.00000000000E+00 -0.00000000000E+00 -0.45593999997E+02  0.45594000000E+02  0.51100000000E-03 0.  1.
    9900012    2    1    2    0    0 -0.15452929593E+02 -0.20856559847E+02  0.18518382890E+02  0.59301958751E+02  0.50000026853E+02 0.  0.
         12    1    1    2    0    0  0.15452929593E+02  0.20856559847E+02 -0.18518382890E+02  0.31886041249E+02  0.00000000000E+00 0. -1.
         11    1    3    3    0    0  0.71028598519E+01 -0.18268570167E+01  0.14447234620E+02  0.16202179269E+02  0.51100000000E-03 0. -1.
        -11    1    3    3    0    0  0.58654749858E+01 -0.40381138650E-01  0.65941993883E+01  0.88254684453E+01  0.51100000000E-03 0.  1.
        -12    1    3    3    0    0 -0.28421264431E+02 -0.18989321691E+02 -0.25230511183E+01  0.34274311038E+02  0.00000000000E+00 0.  1.
</event>
<event>
 7    1  0.5832130E-012  0.5930178E+02  0.7816164E-02  0.1266605E+00
        -11   -1    0    0    0    0  0.00000000000E+00  0.00000000000E+00  0.45593999997E+02  0.45594000000E+02  0.51100000000E-03 0. -1.
         11   -1    0    0    0    0 -0.00000000000E+00 -0.00000000000E+00 -0.45593999997E+02  0.45594000000E+02  0.51100000000E-03 0.  1.
    9900012    2    1    2    0    0 -0.27824581109E+02  0.82469714306E+00 -0.15551318757E+02  0.59301781121E+02  0.49999702897E+02 0.  0.
         12    1    1    2    0    0  0.27824581109E+02 -0.82469714306E+00  0.15551318757E+02  0.31886218879E+02  0.00000000000E+00 0. -1.
         11    1    3    3    0    0  0.36399137497E+00  0.86421026063E+01 -0.13229005100E+02  0.15805853453E+02  0.51100000000E-03 0.  1.
        -11    1    3    3    0    0  0.27231560929E+01 -0.51779213433E+01  0.87752276641E+01  0.10546614118E+02  0.51100000000E-03 0. -1.
        -12    1    3    3    0    0 -0.30911728577E+02 -0.26394841200E+01 -0.11097541322E+02  0.32949313550E+02  0.00000000000E+00 0.  1.
</event>
<event>
 7    1  0.5832130E-012  0.5930194E+02  0.7816164E-02  0.1266605E+00
        -11   -1    0    0    0    0  0.00000000000E+00  0.00000000000E+00  0.45593999997E+02  0.45594000000E+02  0.51100000000E-03 0.  1.
         11   -1    0    0    0    0 -0.00000000000E+00 -0.00000000000E+00 -0.45593999997E+02  0.45594000000E+02  0.51100000000E-03 0. -1.
    9900012    2    1    2    0    0  0.31403371400E+02  0.10930613407E+01  0.54179828569E+01  0.59301936326E+02  0.49999985954E+02 0.  0.
         12    1    1    2    0    0 -0.31403371400E+02 -0.10930613407E+01 -0.54179828569E+01  0.31886063674E+02  0.00000000000E+00 0. -1.
         11    1    3    3    0    0  0.99362835160E+01 -0.55640638487E+01 -0.12985372054E+02  0.17271607460E+02  0.51100000000E-03 0. -1.
        -11    1    3    3    0    0  0.20665310436E+02  0.89045495539E+01 -0.95797159187E+00  0.22522516911E+02  0.51100000000E-03 0.  1.
        -12    1    3    3    0    0  0.80177744821E+00 -0.22474243645E+01  0.19361326502E+02  0.19507811955E+02  0.00000000000E+00 0.  1.
</event>
<event>
 7    1  0.5832130E-012  0.5930195E+02  0.7816164E-02  0.1266605E+00
        -11   -1    0    0    0    0  0.00000000000E+00  0.00000000000E+00  0.45593999997E+02  0.45594000000E+02  0.51100000000E-03 0. -1.
         11   -1    0    0    0    0 -0.00000000000E+00 -0.00000000000E+00 -0.45593999997E+02  0.45594000000E+02  0.51100000000E-03 0.  1.
    9900012    2    1    2    0    0  0.19907001784E+02 -0.13545120204E+02  0.20903623199E+02  0.59301945615E+02  0.50000002895E+02 0.  0.
         12    1    1    2    0    0 -0.19907001784E+02  0.13545120204E+02 -0.20903623199E+02  0.31886054385E+02  0.00000000000E+00 0. -1.
         11    1    3    3    0    0  0.57929600572E+01  0.13724975762E+02 -0.31022877068E+00  0.14900657302E+02  0.51100000000E-03 0. -1.
        -11    1    3    3    0    0 -0.57440196147E+01 -0.69279365926E+01  0.10958284648E+02  0.14180058866E+02  0.51100000000E-03 0.  1.
        -12    1    3    3    0    0  0.19858061341E+02 -0.20342159373E+02  0.10255567322E+02  0.30221229447E+02  0.00000000000E+00 0.  1.
</event>
<event>
 7    1  0.5832130E-012  0.5930189E+02  0.7816164E-02  0.1266605E+00
        -11   -1    0    0    0    0  0.00000000000E+00  0.00000000000E+00  0.45593999997E+02  0.45594000000E+02  0.51100000000E-03 0.  1.
         11   -1    0    0    0    0 -0.00000000000E+00 -0.00000000000E+00 -0.45593999997E+02  0.45594000000E+02  0.51100000000E-03 0. -1.
    9900012    2    1    2    0    0  0.22420672190E+02  0.84638480597E+01  0.21033319223E+02  0.59301893575E+02  0.49999907986E+02 0.  0.
         12    1    1    2    0    0 -0.22420672190E+02 -0.84638480597E+01 -0.21033319223E+02  0.31886106425E+02  0.00000000000E+00 0. -1.
         11    1    3    3    0    0  0.71128066348E+01 -0.27823061501E+01 -0.12200907888E+02  0.14394283563E+02  0.51100000000E-03 0. -1.
        -11    1    3    3    0    0  0.10232538294E+02  0.16090841659E+02  0.11967016658E+02  0.22512874387E+02  0.51100000000E-03 0.  1.
        -12    1    3    3    0    0  0.50753272611E+01 -0.48446874488E+01  0.21267210452E+02  0.22394735625E+02  0.00000000000E+00 0.  1.
</event>
<event>
 7    1  0.5832130E-012  0.5930188E+02  0.7816164E-02  0.1266605E+00
        -11   -1    0    0    0    0  0.00000000000E+00  0.00000000000E+00  0.45593999997E+02  0.45594000000E+02  0.51100000000E-03 0.  1.
         11   -1    0    0    0    0 -0.00000000000E+00 -0.00000000000E+00 -0.45593999997E+02  0.45594000000E+02  0.51100000000E-03 0. -1.
    9900012    2    1    2    0    0  0.21359058836E+02  0.13206312440E+01  0.23638344570E+02  0.59301877701E+02  0.49999879036E+02 0.  0.
         12    1    1    2    0    0 -0.21359058836E+02 -0.13206312440E+01 -0.23638344570E+02  0.31886122299E+02  0.00000000000E+00 0. -1.
         11    1    3    3    0    0 -0.83437713970E+01  0.61963908369E+01 -0.79797943924E+01  0.13103087397E+02  0.51100000000E-03 0. -1.
        -11    1    3    3    0    0  0.13292441279E+02 -0.95522413544E+01  0.12667158786E+02  0.20697613921E+02  0.51100000000E-03 0.  1.
        -12    1    3    3    0    0  0.16410388954E+02  0.46764817615E+01  0.18950980176E+02  0.25501176384E+02  0.00000000000E+00 0.  1.
</event>
<event>
 7    1  0.5832130E-012  0.5930194E+02  0.7816164E-02  0.1266605E+00
        -11   -1    0    0    0    0  0.00000000000E+00  0.00000000000E+00  0.45593999997E+02  0.45594000000E+02  0.51100000000E-03 0. -1.
         11   -1    0    0    0    0 -0.00000000000E+00 -0.00000000000E+00 -0.45593999997E+02  0.45594000000E+02  0.51100000000E-03 0.  1.
    9900012    2    1    2    0    0  0.59510375638E+01 -0.28251101031E+02 -0.13534440108E+02  0.59301943069E+02  0.49999998251E+02 0.  0.
         12    1    1    2    0    0 -0.59510375638E+01  0.28251101031E+02  0.13534440108E+02  0.31886056931E+02  0.00000000000E+00 0. -1.
         11    1    3    3    0    0 -0.43414250610E+00 -0.33993181147E+01  0.10808655605E+02  0.11338909984E+02  0.51100000000E-03 0. -1.
        -11    1    3    3    0    0  0.88609040798E+01 -0.24815506449E+02 -0.30494449369E+01  0.26525913671E+02  0.51100000000E-03 0.  1.
        -12    1    3    3    0    0 -0.24757240099E+01 -0.36276467854E-01 -0.21293650777E+02  0.21437119414E+02  0.00000000000E+00 0.  1.
</event>
<event>
 7    1  0.5832130E-012  0.5930193E+02  0.7816164E-02  0.1266605E+00
        -11   -1    0    0    0    0  0.00000000000E+00  0.00000000000E+00  0.45593999997E+02  0.45594000000E+02  0.51100000000E-03 0.  1.
         11   -1    0    0    0    0 -0.00000000000E+00 -0.00000000000E+00 -0.45593999997E+02  0.45594000000E+02  0.51100000000E-03 0. -1.
    9900012    2    1    2    0    0  0.62147271905E+01 -0.39238597217E+01  0.31027433894E+02  0.59301934655E+02  0.49999982906E+02 0.  0.
         12    1    1    2    0    0 -0.62147271905E+01  0.39238597217E+01 -0.31027433894E+02  0.31886065345E+02  0.00000000000E+00 0. -1.
         11    1    3    3    0    0  0.84206660726E+00 -0.70465359680E+01 -0.82100746747E+01  0.10852099877E+02  0.51100000000E-03 0. -1.
        -11    1    3    3    0    0  0.10582013658E+02  0.66230358302E+01  0.46880781111E+01  0.13334980064E+02  0.51100000000E-03 0.  1.
        -12    1    3    3    0    0 -0.52093530744E+01 -0.35003595839E+01  0.34549430457E+02  0.35114854714E+02  0.00000000000E+00 0.  1.
</event>
<event>
 7    1  0.5832130E-012  0.5930199E+02  0.7816164E-02  0.1266605E+00
        -11   -1    0    0    0    0  0.00000000000E+00  0.00000000000E+00  0.45593999997E+02  0.45594000000E+02  0.51100000000E-03 0.  1.
         11   -1    0    0    0    0 -0.00000000000E+00 -0.00000000000E+00 -0.45593999997E+02  0.45594000000E+02  0.51100000000E-03 0. -1.
    9900012    2    1    2    0    0  0.79465171078E+01  0.24351408711E+02  0.18988927572E+02  0.59301990361E+02  0.50000084501E+02 0.  0.
         12    1    1    2    0    0 -0.79465171078E+01 -0.24351408711E+02 -0.18988927572E+02  0.31886009639E+02  0.00000000000E+00 0. -1.
         11    1    3    3    0    0  0.79473534999E+01  0.19668922777E+02 -0.55698230475E+01  0.21932849334E+02  0.51100000000E-03 0. -1.
        -11    1    3    3    0    0 -0.16084455016E+01  0.15534960868E+02  0.20271844326E+02  0.25590423575E+02  0.51100000000E-03 0.  1.
        -12    1    3    3    0    0  0.16076091094E+01 -0.10852474934E+02  0.42869062929E+01  0.11778717452E+02  0.00000000000E+00 0.  1.
</event>
<event>
 7    1  0.5832130E-012  0.5930198E+02  0.7816164E-02  0.1266605E+00
        -11   -1    0    0    0    0  0.00000000000E+00  0.00000000000E+00  0.45593999997E+02  0.45594000000E+02  0.51100000000E-03 0.  1.
         11   -1    0    0    0    0 -0.00000000000E+00 -0.00000000000E+00 -0.45593999997E+02  0.45594000000E+02  0.51100000000E-03 0. -1.
    9900012    2    1    2    0    0  0.80051142479E+01  0.80649675544E+01  0.29792498098E+02  0.59301976436E+02  0.50000059106E+02 0.  0.
         12    1    1    2    0    0 -0.80051142479E+01 -0.80649675544E+01 -0.29792498098E+02  0.31886023564E+02  0.00000000000E+00 0. -1.
         11    1    3    3    0    0 -0.11793387472E+02 -0.18888268521E+01  0.63943604134E+01  0.13547675088E+02  0.51100000000E-03 0. -1.
        -11    1    3    3    0    0  0.87681293992E+01 -0.81735358107E+01  0.21287037608E+02  0.24429996954E+02  0.51100000000E-03 0.  1.
         12    1    3    3    0    0  0.11030372321E+02  0.18127330217E+02  0.21111000769E+01  0.21324304394E+02  0.00000000000E+00 0. -1.
</event>
<event>
 7    1  0.5832130E-012  0.5930193E+02  0.7816164E-02  0.1266605E+00
        -11   -1    0    0    0    0  0.00000000000E+00  0.00000000000E+00  0.45593999997E+02  0.45594000000E+02  0.51100000000E-03 0.  1.
         11   -1    0    0    0    0 -0.00000000000E+00 -0.00000000000E+00 -0.45593999997E+02  0.45594000000E+02  0.51100000000E-03 0. -1.
    9900012    2    1    2    0    0 -0.93766014743E+01  0.53002901122E+01  0.30011794523E+02  0.59301928731E+02  0.49999972102E+02 0.  0.
         12    1    1    2    0    0  0.93766014743E+01 -0.53002901122E+01 -0.30011794523E+02  0.31886071269E+02  0.00000000000E+00 0. -1.
         11    1    3    3    0    0  0.44578226442E+01  0.32839123759E+01 -0.48964926952E+01  0.73913398106E+01  0.51100000000E-03 0. -1.
        -11    1    3    3    0    0  0.12247584988E+02  0.14395385900E+01  0.11171725946E+02  0.16639803793E+02  0.51100000000E-03 0.  1.
         12    1    3    3    0    0 -0.26082009107E+02  0.57683914632E+00  0.23736561272E+02  0.35270785127E+02  0.00000000000E+00 0. -1.
</event>
<event>
 7    1  0.5832130E-012  0.5930191E+02  0.7816164E-02  0.1266605E+00
        -11   -1    0    0    0    0  0.00000000000E+00  0.00000000000E+00  0.45593999997E+02  0.45594000000E+02  0.51100000000E-03 0.  1.
         11   -1    0    0    0    0 -0.00000000000E+00 -0.00000000000E+00 -0.45593999997E+02  0.45594000000E+02  0.51100000000E-03 0. -1.
    9900012    2    1    2    0    0  0.29779184951E+01  0.22414809666E+02  0.22481799225E+02  0.59301906051E+02  0.49999930740E+02 0.  0.
         12    1    1    2    0    0 -0.29779184951E+01 -0.22414809666E+02 -0.22481799225E+02  0.31886093949E+02  0.00000000000E+00 0. -1.
         11    1    3    3    0    0 -0.13265907374E+01 -0.61931234977E+01  0.10325912180E+02  0.12113590890E+02  0.51100000000E-03 0. -1.
        -11    1    3    3    0    0  0.10355659142E+01 -0.17978024085E+01  0.16207838213E+02  0.16340089047E+02  0.51100000000E-03 0.  1.
         12    1    3    3    0    0  0.32689433183E+01  0.30405735572E+02 -0.40519511688E+01  0.30848226114E+02  0.00000000000E+00 0. -1.
</event>
<event>
 7    1  0.5832130E-012  0.5930190E+02  0.7816164E-02  0.1266605E+00
        -11   -1    0    0    0    0  0.00000000000E+00  0.00000000000E+00  0.45593999997E+02  0.45594000000E+02  0.51100000000E-03 0. -1.
         11   -1    0    0    0    0 -0.00000000000E+00 -0.00000000000E+00 -0.45593999997E+02  0.45594000000E+02  0.51100000000E-03 0.  1.
    9900012    2    1    2    0    0 -0.26602162225E+02 -0.30927997811E+01 -0.17305569008E+02  0.59301903277E+02  0.49999925681E+02 0.  0.
         12    1    1    2    0    0  0.26602162225E+02  0.30927997811E+01  0.17305569008E+02  0.31886096723E+02  0.00000000000E+00 0. -1.
         11    1    3    3    0    0 -0.12549638609E+01 -0.40932729020E+01 -0.14489160091E+02  0.15108460469E+02  0.51100000000E-03 0. -1.
        -11    1    3    3    0    0  0.36842283262E+01 -0.11229583828E+02 -0.44997765994E+01  0.12646148861E+02  0.51100000000E-03 0.  1.
        -12    1    3    3    0    0 -0.29031426690E+02  0.12230056949E+02  0.16833676822E+01  0.31547293947E+02  0.00000000000E+00 0.  1.
</event>
<event>
 7    1  0.5832130E-012  0.5930186E+02  0.7816164E-02  0.1266605E+00
        -11   -1    0    0    0    0  0.00000000000E+00  0.00000000000E+00  0.45593999997E+02  0.45594000000E+02  0.51100000000E-03 0. -1.
         11   -1    0    0    0    0 -0.00000000000E+00 -0.00000000000E+00 -0.45593999997E+02  0.45594000000E+02  0.51100000000E-03 0.  1.
    9900012    2    1    2    0    0 -0.12234877209E+02  0.16897170191E+02 -0.24114711847E+02  0.59301860248E+02  0.49999847206E+02 0.  0.
         12    1    1    2    0    0  0.12234877209E+02 -0.16897170191E+02  0.24114711847E+02  0.31886139752E+02  0.00000000000E+00 0. -1.
         11    1    3    3    0    0  0.44108095273E+01  0.84726313689E+01 -0.13056309986E+02  0.16177390201E+02  0.51100000000E-03 0. -1.
        -11    1    3    3    0    0 -0.81829881028E+01  0.99198221755E+01 -0.24210436975E+02  0.27413672229E+02  0.51100000000E-03 0.  1.
         12    1    3    3    0    0 -0.84626986337E+01 -0.14952833531E+01  0.13152035114E+02  0.15710797819E+02  0.00000000000E+00 0. -1.
</event>
<event>
 7    1  0.5832130E-012  0.5930201E+02  0.7816164E-02  0.1266605E+00
        -11   -1    0    0    0    0  0.00000000000E+00  0.00000000000E+00  0.45593999997E+02  0.45594000000E+02  0.51100000000E-03 0. -1.
         11   -1    0    0    0    0 -0.00000000000E+00 -0.00000000000E+00 -0.45593999997E+02  0.45594000000E+02  0.51100000000E-03 0.  1.
    9900012    2    1    2    0    0  0.16990118863E+02 -0.13983264216E+02 -0.23076406444E+02  0.59302010107E+02  0.50000120512E+02 0.  0.
         12    1    1    2    0    0 -0.16990118863E+02  0.13983264216E+02  0.23076406444E+02  0.31885989893E+02  0.00000000000E+00 0. -1.
         11    1    3    3    0    0 -0.82044202011E+00  0.10895285877E+02 -0.60609387172E+01  0.12494613153E+02  0.51100000000E-03 0. -1.
        -11    1    3    3    0    0  0.15741432789E+02  0.24476564718E+01 -0.87921535394E+01  0.18195760291E+02  0.51100000000E-03 0.  1.
         12    1    3    3    0    0  0.20691280944E+01 -0.27326206565E+02 -0.82233141869E+01  0.28611636662E+02  0.00000000000E+00 0. -1.
</event>
<event>
 7    1  0.5832130E-012  0.5930189E+02  0.7816164E-02  0.1266605E+00
        -11   -1    0    0    0    0  0.00000000000E+00  0.00000000000E+00  0.45593999997E+02  0.45594000000E+02  0.51100000000E-03 0. -1.
         11   -1    0    0    0    0 -0.00000000000E+00 -0.00000000000E+00 -0.45593999997E+02  0.45594000000E+02  0.51100000000E-03 0.  1.
    9900012    2    1    2    0    0 -0.15622030426E+02 -0.51488752489E+01 -0.27316020246E+02  0.59301894672E+02  0.49999909986E+02 0.  0.
         12    1    1    2    0    0  0.15622030426E+02  0.51488752489E+01  0.27316020246E+02  0.31886105328E+02  0.00000000000E+00 0. -1.
         11    1    3    3    0    0 -0.85766519275E+01 -0.15571157361E+02 -0.21879597300E+02  0.28191074441E+02  0.51100000000E-03 0. -1.
        -11    1    3    3    0    0 -0.12813726578E+02 -0.52355268093E+00 -0.11595950952E+02  0.17289643575E+02  0.51100000000E-03 0.  1.
         12    1    3    3    0    0  0.57683480794E+01  0.10945834793E+02  0.61595280068E+01  0.13821176656E+02  0.00000000000E+00 0. -1.
</event>
<event>
 7    1  0.5832130E-012  0.5930193E+02  0.7816164E-02  0.1266605E+00
        -11   -1    0    0    0    0  0.00000000000E+00  0.00000000000E+00  0.45593999997E+02  0.45594000000E+02  0.51100000000E-03 0.  1.
         11   -1    0    0    0    0 -0.00000000000E+00 -0.00000000000E+00 -0.45593999997E+02  0.45594000000E+02  0.51100000000E-03 0. -1.
    9900012    2    1    2    0    0 -0.25745198103E+01 -0.28565788264E+02 -0.13931579032E+02  0.59301932420E+02  0.49999978830E+02 0.  0.
         12    1    1    2    0    0  0.25745198103E+01  0.28565788264E+02  0.13931579032E+02  0.31886067580E+02  0.00000000000E+00 0. -1.
         11    1    3    3    0    0  0.95477761045E+01 -0.41234565955E+01 -0.48466634536E+01  0.11474017158E+02  0.51100000000E-03 0. -1.
        -11    1    3    3    0    0 -0.16279202350E+02 -0.22602815941E+02  0.89275914305E+01  0.29250668482E+02  0.51100000000E-03 0.  1.
         12    1    3    3    0    0  0.41569064347E+01 -0.18395157271E+01 -0.18012507009E+02  0.18577246781E+02  0.00000000000E+00 0. -1.
</event>
<event>
 7    1  0.5832130E-012  0.5930191E+02  0.7816164E-02  0.1266605E+00
        -11   -1    0    0    0    0  0.00000000000E+00  0.00000000000E+00  0.45593999997E+02  0.45594000000E+02  0.51100000000E-03 0.  1.
         11   -1    0    0    0    0 -0.00000000000E+00 -0.00000000000E+00 -0.45593999997E+02  0.45594000000E+02  0.51100000000E-03 0. -1.
    9900012    2    1    2    0    0  0.17167034599E+02 -0.95426093123E+01  0.25118809285E+02  0.59301905079E+02  0.49999928968E+02 0.  0.
         12    1    1    2    0    0 -0.17167034599E+02  0.95426093123E+01 -0.25118809285E+02  0.31886094921E+02  0.00000000000E+00 0. -1.
         11    1    3    3    0    0 -0.51470868128E+01 -0.19978910013E+02  0.99765467630E+01  0.22916824246E+02  0.51100000000E-03 0. -1.
        -11    1    3    3    0    0  0.91437826395E+01 -0.59183796724E+01  0.72982471950E+00  0.10916438214E+02  0.51100000000E-03 0.  1.
         12    1    3    3    0    0  0.13170338772E+02  0.16354680373E+02  0.14412437802E+02  0.25468642619E+02  0.00000000000E+00 0. -1.
</event>
<event>
 7    1  0.5832130E-012  0.5930195E+02  0.7816164E-02  0.1266605E+00
        -11   -1    0    0    0    0  0.00000000000E+00  0.00000000000E+00  0.45593999997E+02  0.45594000000E+02  0.51100000000E-03 0.  1.
         11   -1    0    0    0    0 -0.00000000000E+00 -0.00000000000E+00 -0.45593999997E+02  0.45594000000E+02  0.51100000000E-03 0. -1.
    9900012    2    1    2    0    0  0.22331263770E+02  0.64204165397E+01  0.21836049242E+02  0.59301950752E+02  0.50000012264E+02 0.  0.
         12    1    1    2    0    0 -0.22331263770E+02 -0.64204165397E+01 -0.21836049242E+02  0.31886049248E+02  0.00000000000E+00 0. -1.
         11    1    3    3    0    0  0.25538908140E+01 -0.31289084013E+01  0.15188447476E-01  0.40388930443E+01  0.51100000000E-03 0.  1.
        -11    1    3    3    0    0 -0.93547831630E-01  0.52705898303E+01 -0.13510226000E+02  0.14502209321E+02  0.51100000000E-03 0. -1.
        -12    1    3    3    0    0  0.19870920788E+02  0.42787351107E+01  0.35331086795E+02  0.40760848387E+02  0.00000000000E+00 0.  1.
</event>
<event>
 7    1  0.5832130E-012  0.5930197E+02  0.7816164E-02  0.1266605E+00
        -11   -1    0    0    0    0  0.00000000000E+00  0.00000000000E+00  0.45593999997E+02  0.45594000000E+02  0.51100000000E-03 0.  1.
         11   -1    0    0    0    0 -0.00000000000E+00 -0.00000000000E+00 -0.45593999997E+02  0.45594000000E+02  0.51100000000E-03 0. -1.
    9900012    2    1    2    0    0  0.20946510623E+02 -0.80318699851E+01  0.22659467374E+02  0.59301973211E+02  0.50000053223E+02 0.  0.
         12    1    1    2    0    0 -0.20946510623E+02  0.80318699851E+01 -0.22659467374E+02  0.31886026789E+02  0.00000000000E+00 0. -1.
         11    1    3    3    0    0  0.12634620923E+02 -0.11331085591E+02  0.22592730007E+02  0.28257009678E+02  0.51100000000E-03 0. -1.
        -11    1    3    3    0    0  0.17194020347E+02  0.38478382709E+01  0.77874074871E+01  0.19263538374E+02  0.51100000000E-03 0.  1.
         12    1    3    3    0    0 -0.88821306469E+01 -0.54862266511E+00 -0.77206701201E+01  0.11781425158E+02  0.00000000000E+00 0. -1.
</event>
<event>
 7    1  0.5832130E-012  0.5930195E+02  0.7816164E-02  0.1266605E+00
        -11   -1    0    0    0    0  0.00000000000E+00  0.00000000000E+00  0.45593999997E+02  0.45594000000E+02  0.51100000000E-03 0. -1.
         11   -1    0    0    0    0 -0.00000000000E+00 -0.00000000000E+00 -0.45593999997E+02  0.45594000000E+02  0.51100000000E-03 0.  1.
    9900012    2    1    2    0    0  0.19205027631E+02  0.78745350818E+01 -0.24204929046E+02  0.59301953221E+02  0.50000016766E+02 0.  0.
         12    1    1    2    0    0 -0.19205027631E+02 -0.78745350818E+01  0.24204929046E+02  0.31886046779E+02  0.00000000000E+00 0. -1.
         11    1    3    3    0    0  0.35986339342E+01  0.87329766541E+00  0.57555046152E+01  0.68438767261E+01  0.51100000000E-03 0. -1.
        -11    1    3    3    0    0  0.86874045616E+01  0.23517121514E+02 -0.15856282536E+02  0.29663912393E+02  0.51100000000E-03 0.  1.
         12    1    3    3    0    0  0.69189891350E+01 -0.16515884097E+02 -0.14104151125E+02  0.22794164102E+02  0.00000000000E+00 0. -1.
</event>
<event>
 7    1  0.5832130E-012  0.5930196E+02  0.7816164E-02  0.1266605E+00
        -11   -1    0    0    0    0  0.00000000000E+00  0.00000000000E+00  0.45593999997E+02  0.45594000000E+02  0.51100000000E-03 0.  1.
         11   -1    0    0    0    0 -0.00000000000E+00 -0.00000000000E+00 -0.45593999997E+02  0.45594000000E+02  0.51100000000E-03 0. -1.
    9900012    2    1    2    0    0 -0.17654956946E+02  0.26540882579E+02 -0.77694868906E+00  0.59301959135E+02  0.50000027551E+02 0.  0.
         12    1    1    2    0    0  0.17654956946E+02 -0.26540882579E+02  0.77694868906E+00  0.31886040865E+02  0.00000000000E+00 0. -1.
         11    1    3    3    0    0  0.95244405768E+01  0.39377634875E+01 -0.14850095972E+02  0.18076125144E+02  0.51100000000E-03 0. -1.
        -11    1    3    3    0    0 -0.27545177499E+01  0.96007208521E+01 -0.40602784499E+00  0.99963027058E+01  0.51100000000E-03 0.  1.
        -12    1    3    3    0    0 -0.24424879773E+02  0.13002398239E+02  0.14479175128E+02  0.31229531285E+02  0.00000000000E+00 0.  1.
</event>
<event>
 7    1  0.5832130E-012  0.5930190E+02  0.7816164E-02  0.1266605E+00
        -11   -1    0    0    0    0  0.00000000000E+00  0.00000000000E+00  0.45593999997E+02  0.45594000000E+02  0.51100000000E-03 0.  1.
         11   -1    0    0    0    0 -0.00000000000E+00 -0.00000000000E+00 -0.45593999997E+02  0.45594000000E+02  0.51100000000E-03 0. -1.
    9900012    2    1    2    0    0 -0.28248238412E+02  0.11231176724E+02  0.96239678144E+01  0.59301904904E+02  0.49999928647E+02 0.  0.
         12    1    1    2    0    0  0.28248238412E+02 -0.11231176724E+02 -0.96239678144E+01  0.31886095096E+02  0.00000000000E+00 0. -1.
         11    1    3    3    0    0 -0.58979564408E+01 -0.12349782663E+02  0.93477031654E+00  0.13717755567E+02  0.51100000000E-03 0. -1.
        -11    1    3    3    0    0  0.22113608918E+01 -0.47747223117E+01  0.59899304174E+01  0.79729139475E+01  0.51100000000E-03 0.  1.
         12    1    3    3    0    0 -0.24561642863E+02  0.28355681699E+02  0.26992670804E+01  0.37611235389E+02  0.00000000000E+00 0. -1.
</event>
<event>
 7    1  0.5832130E-012  0.5930193E+02  0.7816164E-02  0.1266605E+00
        -11   -1    0    0    0    0  0.00000000000E+00  0.00000000000E+00  0.45593999997E+02  0.45594000000E+02  0.51100000000E-03 0. -1.
         11   -1    0    0    0    0 -0.00000000000E+00 -0.00000000000E+00 -0.45593999997E+02  0.45594000000E+02  0.51100000000E-03 0.  1.
    9900012    2    1    2    0    0  0.19758661645E+02  0.19928707495E+02 -0.15138133774E+02  0.59301934288E+02  0.49999982238E+02 0.  0.
         12    1    1    2    0    0 -0.19758661645E+02 -0.19928707495E+02  0.15138133774E+02  0.31886065712E+02  0.00000000000E+00 0. -1.
         11    1    3    3    0    0  0.37779980368E+00  0.15404845064E+02 -0.40307760649E+01  0.15927935839E+02  0.51100000000E-03 0. -1.
        -11    1    3    3    0    0 -0.35001828672E+01  0.75019725319E+01 -0.17561012277E+02  0.19414428254E+02  0.51100000000E-03 0.  1.
        -12    1    3    3    0    0  0.22881044708E+02 -0.29781101011E+01  0.64536545671E+01  0.23959570196E+02  0.00000000000E+00 0.  1.
</event>
<event>
 7    1  0.5832130E-012  0.5930194E+02  0.7816164E-02  0.1266605E+00
        -11   -1    0    0    0    0  0.00000000000E+00  0.00000000000E+00  0.45593999997E+02  0.45594000000E+02  0.51100000000E-03 0.  1.
         11   -1    0    0    0    0 -0.00000000000E+00 -0.00000000000E+00 -0.45593999997E+02  0.45594000000E+02  0.51100000000E-03 0. -1.
    9900012    2    1    2    0    0  0.64456247002E+01  0.13933208468E+02  0.27947104868E+02  0.59301936485E+02  0.49999986244E+02 0.  0.
         12    1    1    2    0    0 -0.64456247002E+01 -0.13933208468E+02 -0.27947104868E+02  0.31886063515E+02  0.00000000000E+00 0. -1.
         11    1    3    3    0    0 -0.14783287212E+02  0.14379802915E+02  0.58577286357E+01  0.21439153381E+02  0.51100000000E-03 0. -1.
        -11    1    3    3    0    0  0.94797737182E+01  0.74675766515E+01  0.20256419903E+02  0.23578663201E+02  0.51100000000E-03 0.  1.
        -12    1    3    3    0    0  0.11749138194E+02 -0.79141710991E+01  0.18329563290E+01  0.14284119902E+02  0.00000000000E+00 0.  1.
</event>
<event>
 7    1  0.5832130E-012  0.5930207E+02  0.7816164E-02  0.1266604E+00
        -11   -1    0    0    0    0  0.00000000000E+00  0.00000000000E+00  0.45593999997E+02  0.45594000000E+02  0.51100000000E-03 0. -1.
         11   -1    0    0    0    0 -0.00000000000E+00 -0.00000000000E+00 -0.45593999997E+02  0.45594000000E+02  0.51100000000E-03 0.  1.
    9900012    2    1    2    0    0  0.99931183799E+01 -0.91397091195E+01 -0.28867207701E+02  0.59302072411E+02  0.50000234140E+02 0.  0.
         12    1    1    2    0    0 -0.99931183799E+01  0.91397091195E+01  0.28867207701E+02  0.31885927589E+02  0.00000000000E+00 0. -1.
         11    1    3    3    0    0  0.11240327348E+02 -0.16082680738E+02 -0.61130284340E+01  0.20551561876E+02  0.51100000000E-03 0. -1.
        -11    1    3    3    0    0  0.12920560088E+02 -0.16421930001E+01 -0.37794083601E+01  0.13561769747E+02  0.51100000000E-03 0.  1.
        -12    1    3    3    0    0 -0.14167769057E+02  0.85851646189E+01 -0.18974770907E+02  0.25188740789E+02  0.00000000000E+00 0.  1.
</event>
<event>
 7    1  0.5832130E-012  0.5930194E+02  0.7816164E-02  0.1266605E+00
        -11   -1    0    0    0    0  0.00000000000E+00  0.00000000000E+00  0.45593999997E+02  0.45594000000E+02  0.51100000000E-03 0. -1.
         11   -1    0    0    0    0 -0.00000000000E+00 -0.00000000000E+00 -0.45593999997E+02  0.45594000000E+02  0.51100000000E-03 0.  1.
    9900012    2    1    2    0    0  0.10485426317E+02  0.29462645011E+02 -0.62233030309E+01  0.59301935383E+02  0.49999984235E+02 0.  0.
         12    1    1    2    0    0 -0.10485426317E+02 -0.29462645011E+02  0.62233030309E+01  0.31886064617E+02  0.00000000000E+00 0. -1.
         11    1    3    3    0    0 -0.10337443935E+02  0.59392707556E+01  0.10092082617E+02  0.15620109348E+02  0.51100000000E-03 0. -1.
        -11    1    3    3    0    0  0.16751919488E+00  0.94016392998E+01  0.51443898877E+01  0.10718378225E+02  0.51100000000E-03 0.  1.
        -12    1    3    3    0    0  0.20655351057E+02  0.14121734956E+02 -0.21459775536E+02  0.32963447810E+02  0.00000000000E+00 0.  1.
</event>
<event>
 7    1  0.5832130E-012  0.5930196E+02  0.7816164E-02  0.1266605E+00
        -11   -1    0    0    0    0  0.00000000000E+00  0.00000000000E+00  0.45593999997E+02  0.45594000000E+02  0.51100000000E-03 0.  1.
         11   -1    0    0    0    0 -0.00000000000E+00 -0.00000000000E+00 -0.45593999997E+02  0.45594000000E+02  0.51100000000E-03 0. -1.
    9900012    2    1    2    0    0 -0.12520214907E+02 -0.28359268771E+02  0.74643104354E+01  0.59301955454E+02  0.50000020839E+02 0.  0.
         12    1    1    2    0    0  0.12520214907E+02  0.28359268771E+02 -0.74643104354E+01  0.31886044546E+02  0.00000000000E+00 0. -1.
         11    1    3    3    0    0 -0.10712721182E+02 -0.19683439496E+01 -0.12943653618E+02  0.16916706011E+02  0.51100000000E-03 0. -1.
        -11    1    3    3    0    0 -0.70594733424E+01  0.25993730949E+01  0.58078004388E+01  0.95038650325E+01  0.51100000000E-03 0.  1.
        -12    1    3    3    0    0  0.52519796172E+01 -0.28990297916E+02  0.14600163615E+02  0.32881384410E+02  0.00000000000E+00 0.  1.
</event>
<event>
 7    1  0.5832130E-012  0.5930195E+02  0.7816164E-02  0.1266605E+00
        -11   -1    0    0    0    0  0.00000000000E+00  0.00000000000E+00  0.45593999997E+02  0.45594000000E+02  0.51100000000E-03 0. -1.
         11   -1    0    0    0    0 -0.00000000000E+00 -0.00000000000E+00 -0.45593999997E+02  0.45594000000E+02  0.51100000000E-03 0.  1.
    9900012    2    1    2    0    0  0.14859541337E+02  0.24193008808E+02 -0.14512502080E+02  0.59301947242E+02  0.50000005861E+02 0.  0.
         12    1    1    2    0    0 -0.14859541337E+02 -0.24193008808E+02  0.14512502080E+02  0.31886052758E+02  0.00000000000E+00 0. -1.
         11    1    3    3    0    0 -0.38754614972E+01  0.91231464730E+01 -0.11038737785E+02  0.14835927188E+02  0.51100000000E-03 0. -1.
        -11    1    3    3    0    0  0.28266946560E+02  0.55407970765E+01 -0.85760119411E+01  0.30054428645E+02  0.51100000000E-03 0.  1.
         12    1    3    3    0    0 -0.95319437262E+01  0.95290652581E+01  0.51022476466E+01  0.14411591409E+02  0.00000000000E+00 0. -1.
</event>
<event>
 7    1  0.5832130E-012  0.5930194E+02  0.7816164E-02  0.1266605E+00
        -11   -1    0    0    0    0  0.00000000000E+00  0.00000000000E+00  0.45593999997E+02  0.45594000000E+02  0.51100000000E-03 0. -1.
         11   -1    0    0    0    0 -0.00000000000E+00 -0.00000000000E+00 -0.45593999997E+02  0.45594000000E+02  0.51100000000E-03 0.  1.
    9900012    2    1    2    0    0 -0.15617375756E+01 -0.26536922556E+02 -0.17608900167E+02  0.59301942732E+02  0.49999997636E+02 0.  0.
         12    1    1    2    0    0  0.15617375756E+01  0.26536922556E+02  0.17608900167E+02  0.31886057268E+02  0.00000000000E+00 0. -1.
         11    1    3    3    0    0  0.13561672808E+02 -0.15904216615E+02 -0.14306668031E+02  0.25328715441E+02  0.51100000000E-03 0. -1.
        -11    1    3    3    0    0 -0.28368155619E+00 -0.41875092901E+01 -0.13974646662E+02  0.14591314501E+02  0.51100000000E-03 0.  1.
         12    1    3    3    0    0 -0.14839728827E+02 -0.64451966515E+01  0.10672414526E+02  0.19381912789E+02  0.00000000000E+00 0. -1.
</event>
<event>
 7    1  0.5832130E-012  0.5930194E+02  0.7816164E-02  0.1266605E+00
        -11   -1    0    0    0    0  0.00000000000E+00  0.00000000000E+00  0.45593999997E+02  0.45594000000E+02  0.51100000000E-03 0.  1.
         11   -1    0    0    0    0 -0.00000000000E+00 -0.00000000000E+00 -0.45593999997E+02  0.45594000000E+02  0.51100000000E-03 0. -1.
    9900012    2    1    2    0    0  0.27035836833E+02  0.24387826538E+01 -0.16728310426E+02  0.59301944995E+02  0.50000001764E+02 0.  0.
         12    1    1    2    0    0 -0.27035836833E+02 -0.24387826538E+01  0.16728310426E+02  0.31886055005E+02  0.00000000000E+00 0. -1.
         11    1    3    3    0    0 -0.12678210134E+02 -0.40372677640E+01 -0.15868234477E+01  0.13399796719E+02  0.51100000000E-03 0. -1.
        -11    1    3    3    0    0  0.15112218784E+01  0.91241539547E+00  0.28164968899E+01  0.33239958501E+01  0.51100000000E-03 0.  1.
         12    1    3    3    0    0  0.38202825088E+02  0.55636350223E+01 -0.17957983868E+02  0.42578152426E+02  0.00000000000E+00 0. -1.
</event>
<event>
 7    1  0.5832130E-012  0.5930195E+02  0.7816164E-02  0.1266605E+00
        -11   -1    0    0    0    0  0.00000000000E+00  0.00000000000E+00  0.45593999997E+02  0.45594000000E+02  0.51100000000E-03 0. -1.
         11   -1    0    0    0    0 -0.00000000000E+00 -0.00000000000E+00 -0.45593999997E+02  0.45594000000E+02  0.51100000000E-03 0.  1.
    9900012    2    1    2    0    0  0.14439728170E+02 -0.22305564549E+02  0.17626009280E+02  0.59301950345E+02  0.50000011520E+02 0.  0.
         12    1    1    2    0    0 -0.14439728170E+02  0.22305564549E+02 -0.17626009280E+02  0.31886049655E+02  0.00000000000E+00 0. -1.
         11    1    3    3    0    0 -0.38240047271E+01 -0.25725876225E+02  0.48843392758E+01  0.26463191231E+02  0.51100000000E-03 0. -1.
        -11    1    3    3    0    0 -0.32730219105E+01 -0.18256036054E+01 -0.36797692543E+01  0.52522569413E+01  0.51100000000E-03 0.  1.
        -12    1    3    3    0    0  0.21536754808E+02  0.52459152811E+01  0.16421439259E+02  0.27586502172E+02  0.00000000000E+00 0.  1.
</event>
<event>
 7    1  0.5832130E-012  0.5930194E+02  0.7816164E-02  0.1266605E+00
        -11   -1    0    0    0    0  0.00000000000E+00  0.00000000000E+00  0.45593999997E+02  0.45594000000E+02  0.51100000000E-03 0.  1.
         11   -1    0    0    0    0 -0.00000000000E+00 -0.00000000000E+00 -0.45593999997E+02  0.45594000000E+02  0.51100000000E-03 0. -1.
    9900012    2    1    2    0    0 -0.18593373259E+02  0.18118389226E+02  0.18513009877E+02  0.59301935771E+02  0.49999984942E+02 0.  0.
         12    1    1    2    0    0  0.18593373259E+02 -0.18118389226E+02 -0.18513009877E+02  0.31886064229E+02  0.00000000000E+00 0. -1.
         11    1    3    3    0    0 -0.15830316341E+02 -0.67924457709E-01 -0.41496138501E+01  0.16365293292E+02  0.51100000000E-03 0. -1.
        -11    1    3    3    0    0  0.22926761350E+01  0.87758491996E+01 -0.69688336286E+01  0.11438379931E+02  0.51100000000E-03 0.  1.
        -12    1    3    3    0    0 -0.50557330537E+01  0.94104644841E+01  0.29631457356E+02  0.31498262548E+02  0.00000000000E+00 0.  1.
</event>
<event>
 7    1  0.5832130E-012  0.5930185E+02  0.7816164E-02  0.1266605E+00
        -11   -1    0    0    0    0  0.00000000000E+00  0.00000000000E+00  0.45593999997E+02  0.45594000000E+02  0.51100000000E-03 0.  1.
         11   -1    0    0    0    0 -0.00000000000E+00 -0.00000000000E+00 -0.45593999997E+02  0.45594000000E+02  0.51100000000E-03 0. -1.
    9900012    2    1    2    0    0  0.16650614221E+02 -0.21370096804E+02  0.16816735304E+02  0.59301849752E+02  0.49999828064E+02 0.  0.
         12    1    1    2    0    0 -0.16650614221E+02  0.21370096804E+02 -0.16816735304E+02  0.31886150248E+02  0.00000000000E+00 0. -1.
         11    1    3    3    0    0  0.15141749199E+02 -0.17819195255E+02 -0.45880071996E+01  0.23829521579E+02  0.51100000000E-03 0. -1.
        -11    1    3    3    0    0  0.39653307829E+01  0.84665352859E+01 -0.15204906431E+01  0.94719565044E+01  0.51100000000E-03 0.  1.
        -12    1    3    3    0    0 -0.24564657608E+01 -0.12017436834E+02  0.22925233146E+02  0.26000371669E+02  0.00000000000E+00 0.  1.
</event>
<event>
 7    1  0.5832130E-012  0.5930193E+02  0.7816164E-02  0.1266605E+00
        -11   -1    0    0    0    0  0.00000000000E+00  0.00000000000E+00  0.45593999997E+02  0.45594000000E+02  0.51100000000E-03 0. -1.
         11   -1    0    0    0    0 -0.00000000000E+00 -0.00000000000E+00 -0.45593999997E+02  0.45594000000E+02  0.51100000000E-03 0.  1.
    9900012    2    1    2    0    0  0.16333402492E+02  0.13142846884E+02 -0.24025129441E+02  0.59301932418E+02  0.49999978826E+02 0.  0.
         12    1    1    2    0    0 -0.16333402492E+02 -0.13142846884E+02  0.24025129441E+02  0.31886067582E+02  0.00000000000E+00 0. -1.
         11    1    3    3    0    0  0.60387047272E+01 -0.14448470783E+02 -0.14297901940E+02  0.21205052768E+02  0.51100000000E-03 0. -1.
        -11    1    3    3    0    0  0.22326162359E+01 -0.38055973084E+01 -0.13989945209E+01  0.46286425722E+01  0.51100000000E-03 0.  1.
         12    1    3    3    0    0  0.80620815294E+01  0.31396914975E+02 -0.83282329805E+01  0.33468237078E+02  0.00000000000E+00 0. -1.
</event>
<event>
 7    1  0.5832130E-012  0.5930196E+02  0.7816164E-02  0.1266605E+00
        -11   -1    0    0    0    0  0.00000000000E+00  0.00000000000E+00  0.45593999997E+02  0.45594000000E+02  0.51100000000E-03 0.  1.
         11   -1    0    0    0    0 -0.00000000000E+00 -0.00000000000E+00 -0.45593999997E+02  0.45594000000E+02  0.51100000000E-03 0. -1.
    9900012    2    1    2    0    0 -0.21777503698E+02  0.23205399259E+02  0.19922869432E+01  0.59301961843E+02  0.50000032491E+02 0.  0.
         12    1    1    2    0    0  0.21777503698E+02 -0.23205399259E+02 -0.19922869432E+01  0.31886038157E+02  0.00000000000E+00 0. -1.
         11    1    3    3    0    0  0.75730835053E+01 -0.27520647675E+01 -0.66076972079E+01  0.10420514235E+02  0.51100000000E-03 0. -1.
        -11    1    3    3    0    0 -0.32335098708E+01  0.16459953674E+02  0.12362033407E+02  0.20837598980E+02  0.51100000000E-03 0.  1.
         12    1    3    3    0    0 -0.26117077332E+02  0.94975103527E+01 -0.37620492556E+01  0.28043848628E+02  0.00000000000E+00 0. -1.
</event>
<event>
 7    1  0.5832130E-012  0.5930196E+02  0.7816164E-02  0.1266605E+00
        -11   -1    0    0    0    0  0.00000000000E+00  0.00000000000E+00  0.45593999997E+02  0.45594000000E+02  0.51100000000E-03 0.  1.
         11   -1    0    0    0    0 -0.00000000000E+00 -0.00000000000E+00 -0.45593999997E+02  0.45594000000E+02  0.51100000000E-03 0. -1.
    9900012    2    1    2    0    0  0.12284138706E+02 -0.11467645924E+02  0.27098203531E+02  0.59301959146E+02  0.50000027571E+02 0.  0.
         12    1    1    2    0    0 -0.12284138706E+02  0.11467645924E+02 -0.27098203531E+02  0.31886040854E+02  0.00000000000E+00 0. -1.
         11    1    3    3    0    0 -0.53713846970E+01  0.11511029152E+02  0.11928960598E+02  0.17425718547E+02  0.51100000000E-03 0. -1.
        -11    1    3    3    0    0  0.12114872049E+02  0.18227592368E+01  0.10290024506E+02  0.15999286878E+02  0.51100000000E-03 0.  1.
        -12    1    3    3    0    0  0.55406513539E+01 -0.24801434312E+02  0.48792184268E+01  0.25876953720E+02  0.00000000000E+00 0.  1.
</event>
<event>
 7    1  0.5832130E-012  0.5930196E+02  0.7816164E-02  0.1266605E+00
        -11   -1    0    0    0    0  0.00000000000E+00  0.00000000000E+00  0.45593999997E+02  0.45594000000E+02  0.51100000000E-03 0.  1.
         11   -1    0    0    0    0 -0.00000000000E+00 -0.00000000000E+00 -0.45593999997E+02  0.45594000000E+02  0.51100000000E-03 0. -1.
    9900012    2    1    2    0    0  0.21001496246E+02 -0.94460148469E+01  0.22055145467E+02  0.59301961007E+02  0.50000030967E+02 0.  0.
         12    1    1    2    0    0 -0.21001496246E+02  0.94460148469E+01 -0.22055145467E+02  0.31886038993E+02  0.00000000000E+00 0. -1.
         11    1    3    3    0    0  0.84192356428E+00  0.42749749071E+01  0.12793679094E+02  0.13515268061E+02  0.51100000000E-03 0.  1.
        -11    1    3    3    0    0  0.14994285865E+02  0.91081304346E+01  0.13324896623E+02  0.22030422576E+02  0.51100000000E-03 0. -1.
        -12    1    3    3    0    0  0.51652868166E+01 -0.22829120189E+02 -0.40634302498E+01  0.23756270370E+02  0.00000000000E+00 0.  1.
</event>
<event>
 7    1  0.5832130E-012  0.5930193E+02  0.7816164E-02  0.1266605E+00
        -11   -1    0    0    0    0  0.00000000000E+00  0.00000000000E+00  0.45593999997E+02  0.45594000000E+02  0.51100000000E-03 0.  1.
         11   -1    0    0    0    0 -0.00000000000E+00 -0.00000000000E+00 -0.45593999997E+02  0.45594000000E+02  0.51100000000E-03 0. -1.
    9900012    2    1    2    0    0 -0.88158287788E+00 -0.30390086959E+02  0.96118021052E+01  0.59301932298E+02  0.49999978608E+02 0.  0.
         12    1    1    2    0    0  0.88158287788E+00  0.30390086959E+02 -0.96118021052E+01  0.31886067702E+02  0.00000000000E+00 0. -1.
         11    1    3    3    0    0 -0.74660336070E+01 -0.17010652048E+01  0.51140039572E+00  0.76744257947E+01  0.51100000000E-03 0. -1.
        -11    1    3    3    0    0  0.86896016118E+01  0.93233865579E+01  0.25442175792E+01  0.12996451686E+02  0.51100000000E-03 0.  1.
        -12    1    3    3    0    0 -0.21051508827E+01 -0.38012408312E+02  0.65561841303E+01  0.38631054817E+02  0.00000000000E+00 0.  1.
</event>
<event>
 7    1  0.5832130E-012  0.5930196E+02  0.7816164E-02  0.1266605E+00
        -11   -1    0    0    0    0  0.00000000000E+00  0.00000000000E+00  0.45593999997E+02  0.45594000000E+02  0.51100000000E-03 0. -1.
         11   -1    0    0    0    0 -0.00000000000E+00 -0.00000000000E+00 -0.45593999997E+02  0.45594000000E+02  0.51100000000E-03 0.  1.
    9900012    2    1    2    0    0 -0.11682315399E+02  0.27777377229E+02 -0.10424025315E+02  0.59301961008E+02  0.50000030968E+02 0.  0.
         12    1    1    2    0    0  0.11682315399E+02 -0.27777377229E+02  0.10424025315E+02  0.31886038992E+02  0.00000000000E+00 0. -1.
         11    1    3    3    0    0  0.51052470561E+01  0.11792801912E+01  0.40271878293E+01  0.66085165768E+01  0.51100000000E-03 0.  1.
        -11    1    3    3    0    0 -0.37006406163E+01 -0.82559679887E+01  0.53646338396E+01  0.10518319490E+02  0.51100000000E-03 0. -1.
        -12    1    3    3    0    0 -0.13086921838E+02  0.34854065027E+02 -0.19815846984E+02  0.42175124941E+02  0.00000000000E+00 0.  1.
</event>
<event>
 7    1  0.5832130E-012  0.5930197E+02  0.7816164E-02  0.1266605E+00
        -11   -1    0    0    0    0  0.00000000000E+00  0.00000000000E+00  0.45593999997E+02  0.45594000000E+02  0.51100000000E-03 0.  1.
         11   -1    0    0    0    0 -0.00000000000E+00 -0.00000000000E+00 -0.45593999997E+02  0.45594000000E+02  0.51100000000E-03 0. -1.
    9900012    2    1    2    0    0  0.13818050792E+01 -0.30213208187E+02 -0.10098089764E+02  0.59301972479E+02  0.50000051888E+02 0.  0.
         12    1    1    2    0    0 -0.13818050792E+01  0.30213208187E+02  0.10098089764E+02  0.31886027521E+02  0.00000000000E+00 0. -1.
         11    1    3    3    0    0 -0.10940403121E+01  0.83393202601E+00 -0.63556287398E+01  0.65027981491E+01  0.51100000000E-03 0. -1.
        -11    1    3    3    0    0  0.19052100392E+01 -0.41584579903E+02 -0.78345855057E-01  0.41628274638E+02  0.51100000000E-03 0.  1.
         12    1    3    3    0    0  0.57063535207E+00  0.10537439691E+02 -0.36641151690E+01  0.11170899691E+02  0.00000000000E+00 0. -1.
</event>
<event>
 7    1  0.5832130E-012  0.5930206E+02  0.7816164E-02  0.1266604E+00
        -11   -1    0    0    0    0  0.00000000000E+00  0.00000000000E+00  0.45593999997E+02  0.45594000000E+02  0.51100000000E-03 0. -1.
         11   -1    0    0    0    0 -0.00000000000E+00 -0.00000000000E+00 -0.45593999997E+02  0.45594000000E+02  0.51100000000E-03 0.  1.
    9900012    2    1    2    0    0  0.44740837192E+01  0.30930421750E+02  0.63249391849E+01  0.59302058420E+02  0.50000208623E+02 0.  0.
         12    1    1    2    0    0 -0.44740837192E+01 -0.30930421750E+02 -0.63249391849E+01  0.31885941580E+02  0.00000000000E+00 0. -1.
         11    1    3    3    0    0 -0.98115120819E+01  0.22988187997E+01  0.34009528426E+01  0.10635639036E+02  0.51100000000E-03 0. -1.
        -11    1    3    3    0    0  0.68647894167E+00  0.29641679476E+02 -0.85359389429E+01  0.30853892289E+02  0.51100000000E-03 0.  1.
         12    1    3    3    0    0  0.13599116859E+02 -0.10100765256E+01  0.11459925285E+02  0.17812527094E+02  0.00000000000E+00 0. -1.
</event>
<event>
 7    1  0.5832130E-012  0.5930186E+02  0.7816164E-02  0.1266605E+00
        -11   -1    0    0    0    0  0.00000000000E+00  0.00000000000E+00  0.45593999997E+02  0.45594000000E+02  0.51100000000E-03 0. -1.
         11   -1    0    0    0    0 -0.00000000000E+00 -0.00000000000E+00 -0.45593999997E+02  0.45594000000E+02  0.51100000000E-03 0.  1.
    9900012    2    1    2    0    0  0.31653010993E+02  0.33582547828E+01 -0.18801938098E+01  0.59301857103E+02  0.49999841469E+02 0.  0.
         12    1    1    2    0    0 -0.31653010993E+02 -0.33582547828E+01  0.18801938098E+01  0.31886142897E+02  0.00000000000E+00 0. -1.
         11    1    3    3    0    0  0.71953336946E+01 -0.15229508142E+01  0.10546278249E+02  0.12857534419E+02  0.51100000000E-03 0. -1.
        -11    1    3    3    0    0  0.12400423897E+02 -0.13723795656E+02  0.39101680180E+01  0.18905091754E+02  0.51100000000E-03 0.  1.
        -12    1    3    3    0    0  0.12057253401E+02  0.18605001253E+02 -0.16336640077E+02  0.27539230930E+02  0.00000000000E+00 0.  1.
</event>
<event>
 7    1  0.5832130E-012  0.5930195E+02  0.7816164E-02  0.1266605E+00
        -11   -1    0    0    0    0  0.00000000000E+00  0.00000000000E+00  0.45593999997E+02  0.45594000000E+02  0.51100000000E-03 0.  1.
         11   -1    0    0    0    0 -0.00000000000E+00 -0.00000000000E+00 -0.45593999997E+02  0.45594000000E+02  0.51100000000E-03 0. -1.
    9900012    2    1    2    0    0  0.30121153717E+02  0.76298002242E+01  0.71569690042E+01  0.59301953552E+02  0.50000017371E+02 0.  0.
         12    1    1    2    0    0 -0.30121153717E+02 -0.76298002242E+01 -0.71569690042E+01  0.31886046448E+02  0.00000000000E+00 0. -1.
         11    1    3    3    0    0  0.12645061949E+01 -0.62929339747E+01  0.41978434029E+01  0.76695425824E+01  0.51100000000E-03 0. -1.
        -11    1    3    3    0    0  0.12932315944E+02 -0.13300115796E+02 -0.47830848754E+01  0.19157655834E+02  0.51100000000E-03 0.  1.
        -12    1    3    3    0    0  0.15924331578E+02  0.27222849995E+02  0.77422104767E+01  0.32474755136E+02  0.00000000000E+00 0.  1.
</event>
<event>
 7    1  0.5832130E-012  0.5930197E+02  0.7816164E-02  0.1266605E+00
        -11   -1    0    0    0    0  0.00000000000E+00  0.00000000000E+00  0.45593999997E+02  0.45594000000E+02  0.51100000000E-03 0.  1.
         11   -1    0    0    0    0 -0.00000000000E+00 -0.00000000000E+00 -0.45593999997E+02  0.45594000000E+02  0.51100000000E-03 0. -1.
    9900012    2    1    2    0    0 -0.21771568207E+02 -0.23291549201E+02 -0.47074904445E+00  0.59301967775E+02  0.50000043309E+02 0.  0.
         12    1    1    2    0    0  0.21771568207E+02  0.23291549201E+02  0.47074904445E+00  0.31886032225E+02  0.00000000000E+00 0. -1.
         11    1    3    3    0    0 -0.58671556603E+01  0.49015433027E+01 -0.32535644627E+01  0.83086896839E+01  0.51100000000E-03 0. -1.
        -11    1    3    3    0    0 -0.18718835129E+02 -0.26826630919E+02 -0.12779577666E+02  0.35119517659E+02  0.51100000000E-03 0.  1.
         12    1    3    3    0    0  0.28144225816E+01 -0.13664615855E+01  0.15562393084E+02  0.15873760432E+02  0.00000000000E+00 0. -1.
</event>
<event>
 7    1  0.5832130E-012  0.5930193E+02  0.7816164E-02  0.1266605E+00
        -11   -1    0    0    0    0  0.00000000000E+00  0.00000000000E+00  0.45593999997E+02  0.45594000000E+02  0.51100000000E-03 0.  1.
         11   -1    0    0    0    0 -0.00000000000E+00 -0.00000000000E+00 -0.45593999997E+02  0.45594000000E+02  0.51100000000E-03 0. -1.
    9900012    2    1    2    0    0  0.23344154956E+02 -0.43263338156E+01  0.21285084602E+02  0.59301928411E+02  0.49999971519E+02 0.  0.
         12    1    1    2    0    0 -0.23344154956E+02  0.43263338156E+01 -0.21285084602E+02  0.31886071589E+02  0.00000000000E+00 0. -1.
         11    1    3    3    0    0 -0.52526363171E+01  0.66747358547E+01 -0.10988608349E+01  0.85644487508E+01  0.51100000000E-03 0. -1.
        -11    1    3    3    0    0  0.80410992193E+01  0.80025168043E+01 -0.42337092091E+01  0.12108833378E+02  0.51100000000E-03 0.  1.
        -12    1    3    3    0    0  0.20555692053E+02 -0.19003586475E+02  0.26617654646E+02  0.38628646282E+02  0.00000000000E+00 0.  1.
</event>
<event>
 7    1  0.5832130E-012  0.5930194E+02  0.7816164E-02  0.1266605E+00
        -11   -1    0    0    0    0  0.00000000000E+00  0.00000000000E+00  0.45593999997E+02  0.45594000000E+02  0.51100000000E-03 0. -1.
         11   -1    0    0    0    0 -0.00000000000E+00 -0.00000000000E+00 -0.45593999997E+02  0.45594000000E+02  0.51100000000E-03 0.  1.
    9900012    2    1    2    0    0  0.53608668448E+00 -0.80291115310E+01 -0.30853956379E+02  0.59301942778E+02  0.49999997721E+02 0.  0.
         12    1    1    2    0    0 -0.53608668448E+00  0.80291115310E+01  0.30853956379E+02  0.31886057222E+02  0.00000000000E+00 0. -1.
         11    1    3    3    0    0 -0.86221803277E+01 -0.52870705842E+01 -0.12179836026E+02  0.15831724949E+02  0.51100000000E-03 0.  1.
        -11    1    3    3    0    0  0.10759785010E+01 -0.15124742574E+02  0.46445486203E+01  0.15858354259E+02  0.51100000000E-03 0. -1.
         12    1    3    3    0    0  0.80822885112E+01  0.12382701627E+02 -0.23318668973E+02  0.27611863570E+02  0.00000000000E+00 0. -1.
</event>
<event>
 7    1  0.5832130E-012  0.5930198E+02  0.7816164E-02  0.1266605E+00
        -11   -1    0    0    0    0  0.00000000000E+00  0.00000000000E+00  0.45593999997E+02  0.45594000000E+02  0.51100000000E-03 0.  1.
         11   -1    0    0    0    0 -0.00000000000E+00 -0.00000000000E+00 -0.45593999997E+02  0.45594000000E+02  0.51100000000E-03 0. -1.
    9900012    2    1    2    0    0  0.29672705581E+02  0.51303036798E+01  0.10484699047E+02  0.59301978197E+02  0.50000062317E+02 0.  0.
         12    1    1    2    0    0 -0.29672705581E+02 -0.51303036798E+01 -0.10484699047E+02  0.31886021803E+02  0.00000000000E+00 0. -1.
         11    1    3    3    0    0  0.11341886378E+02  0.16896941531E+02  0.94287087679E+01  0.22428677380E+02  0.51100000000E-03 0. -1.
        -11    1    3    3    0    0 -0.65934475960E+01 -0.30341342907E+00 -0.55857721172E+01  0.86467601630E+01  0.51100000000E-03 0.  1.
        -12    1    3    3    0    0  0.24924266798E+02 -0.11463224422E+02  0.66417623959E+01  0.28226540654E+02  0.00000000000E+00 0.  1.
</event>
<event>
 7    1  0.5832130E-012  0.5930195E+02  0.7816164E-02  0.1266605E+00
        -11   -1    0    0    0    0  0.00000000000E+00  0.00000000000E+00  0.45593999997E+02  0.45594000000E+02  0.51100000000E-03 0.  1.
         11   -1    0    0    0    0 -0.00000000000E+00 -0.00000000000E+00 -0.45593999997E+02  0.45594000000E+02  0.51100000000E-03 0. -1.
    9900012    2    1    2    0    0 -0.30903313829E+02 -0.63153651829E+01 -0.46713522809E+01  0.59301950148E+02  0.50000011162E+02 0.  0.
         12    1    1    2    0    0  0.30903313829E+02  0.63153651829E+01  0.46713522809E+01  0.31886049852E+02  0.00000000000E+00 0. -1.
         11    1    3    3    0    0 -0.23833582856E+01 -0.36110499634E+01 -0.89219143116E+01  0.99156761646E+01  0.51100000000E-03 0. -1.
        -11    1    3    3    0    0 -0.15092695239E+02  0.18466302535E+02 -0.57552355771E+00  0.23856341013E+02  0.51100000000E-03 0.  1.
         12    1    3    3    0    0 -0.13427260304E+02 -0.21170617754E+02  0.48260855884E+01  0.25529932971E+02  0.00000000000E+00 0. -1.
</event>
<event>
 7    1  0.5832130E-012  0.5930194E+02  0.7816164E-02  0.1266605E+00
        -11   -1    0    0    0    0  0.00000000000E+00  0.00000000000E+00  0.45593999997E+02  0.45594000000E+02  0.51100000000E-03 0.  1.
         11   -1    0    0    0    0 -0.00000000000E+00 -0.00000000000E+00 -0.45593999997E+02  0.45594000000E+02  0.51100000000E-03 0. -1.
    9900012    2    1    2    0    0  0.56211978352E+01 -0.27553497610E+02  0.15030888268E+02  0.59301941953E+02  0.49999996216E+02 0.  0.
         12    1    1    2    0    0 -0.56211978352E+01  0.27553497610E+02 -0.15030888268E+02  0.31886058047E+02  0.00000000000E+00 0. -1.
         11    1    3    3    0    0 -0.50727135983E+01 -0.31684095440E+02  0.12139184069E+02  0.34307056377E+02  0.51100000000E-03 0. -1.
        -11    1    3    3    0    0  0.18071020460E+01 -0.64301991824E+01 -0.56625959280E+01  0.87566016374E+01  0.51100000000E-03 0.  1.
         12    1    3    3    0    0  0.88868093875E+01  0.10560797012E+02  0.85543001260E+01  0.16238283939E+02  0.00000000000E+00 0. -1.
</event>
<event>
 7    1  0.5832130E-012  0.5930198E+02  0.7816164E-02  0.1266605E+00
        -11   -1    0    0    0    0  0.00000000000E+00  0.00000000000E+00  0.45593999997E+02  0.45594000000E+02  0.51100000000E-03 0.  1.
         11   -1    0    0    0    0 -0.00000000000E+00 -0.00000000000E+00 -0.45593999997E+02  0.45594000000E+02  0.51100000000E-03 0. -1.
    9900012    2    1    2    0    0  0.28587148138E+02 -0.87795661765E+01 -0.11064027074E+02  0.59301976165E+02  0.50000058611E+02 0.  0.
         12    1    1    2    0    0 -0.28587148138E+02  0.87795661765E+01  0.11064027074E+02  0.31886023835E+02  0.00000000000E+00 0. -1.
         11    1    3    3    0    0  0.23237044311E+02 -0.94059147092E+00 -0.14166843001E+02  0.27231312519E+02  0.51100000000E-03 0. -1.
        -11    1    3    3    0    0 -0.68071644252E+01 -0.92215060575E-01 -0.10326714323E+02  0.12368792185E+02  0.51100000000E-03 0.  1.
        -12    1    3    3    0    0  0.12157268252E+02 -0.77467596450E+01  0.13429530251E+02  0.19701871462E+02  0.00000000000E+00 0.  1.
</event>
<event>
 7    1  0.5832130E-012  0.5930194E+02  0.7816164E-02  0.1266605E+00
        -11   -1    0    0    0    0  0.00000000000E+00  0.00000000000E+00  0.45593999997E+02  0.45594000000E+02  0.51100000000E-03 0.  1.
         11   -1    0    0    0    0 -0.00000000000E+00 -0.00000000000E+00 -0.45593999997E+02  0.45594000000E+02  0.51100000000E-03 0. -1.
    9900012    2    1    2    0    0 -0.56619222681E+01 -0.26674398966E+02  0.16526943171E+02  0.59301940749E+02  0.49999994021E+02 0.  0.
         12    1    1    2    0    0  0.56619222681E+01  0.26674398966E+02 -0.16526943171E+02  0.31886059251E+02  0.00000000000E+00 0. -1.
         11    1    3    3    0    0  0.15236913948E+00 -0.18029059209E+02  0.21753650763E+02  0.28254053056E+02  0.51100000000E-03 0. -1.
        -11    1    3    3    0    0 -0.17464933398E+01 -0.18976911996E+02 -0.58272560646E+01  0.19928129400E+02  0.51100000000E-03 0.  1.
         12    1    3    3    0    0 -0.40677980677E+01  0.10331572238E+02  0.60054847291E+00  0.11119758293E+02  0.00000000000E+00 0. -1.
</event>
<event>
 7    1  0.5832130E-012  0.5930215E+02  0.7816164E-02  0.1266604E+00
        -11   -1    0    0    0    0  0.00000000000E+00  0.00000000000E+00  0.45593999997E+02  0.45594000000E+02  0.51100000000E-03 0.  1.
         11   -1    0    0    0    0 -0.00000000000E+00 -0.00000000000E+00 -0.45593999997E+02  0.45594000000E+02  0.51100000000E-03 0. -1.
    9900012    2    1    2    0    0  0.26237084890E+02  0.16211207816E+02  0.80944015294E+01  0.59302153320E+02  0.50000381698E+02 0.  0.
         12    1    1    2    0    0 -0.26237084890E+02 -0.16211207816E+02 -0.80944015294E+01  0.31885846680E+02  0.00000000000E+00 0. -1.
         11    1    3    3    0    0 -0.36152486589E+01 -0.10738595924E+01 -0.65123233520E+01  0.75255267584E+01  0.51100000000E-03 0. -1.
        -11    1    3    3    0    0  0.32977902640E+02  0.67230827759E+01  0.20374751436E+02  0.39343009556E+02  0.51100000000E-03 0.  1.
         12    1    3    3    0    0 -0.31255690916E+01  0.10561984633E+02 -0.57680265545E+01  0.12433617006E+02  0.00000000000E+00 0. -1.
</event>
<event>
 7    1  0.5832130E-012  0.5930196E+02  0.7816164E-02  0.1266605E+00
        -11   -1    0    0    0    0  0.00000000000E+00  0.00000000000E+00  0.45593999997E+02  0.45594000000E+02  0.51100000000E-03 0. -1.
         11   -1    0    0    0    0 -0.00000000000E+00 -0.00000000000E+00 -0.45593999997E+02  0.45594000000E+02  0.51100000000E-03 0.  1.
    9900012    2    1    2    0    0 -0.88568086341E+01 -0.22173980584E+02 -0.21132705395E+02  0.59301957420E+02  0.50000024424E+02 0.  0.
         12    1    1    2    0    0  0.88568086341E+01  0.22173980584E+02  0.21132705395E+02  0.31886042580E+02  0.00000000000E+00 0. -1.
         11    1    3    3    0    0  0.65404538240E+01 -0.80141107442E+01  0.12060331033E+02  0.15888835455E+02  0.51100000000E-03 0. -1.
        -11    1    3    3    0    0  0.14216168084E+01  0.33567659099E+01 -0.34890038932E+01  0.50459905026E+01  0.51100000000E-03 0.  1.
        -12    1    3    3    0    0 -0.16818879267E+02 -0.17516635749E+02 -0.29704032535E+02  0.38367131462E+02  0.00000000000E+00 0.  1.
</event>
<event>
 7    1  0.5832130E-012  0.5930191E+02  0.7816164E-02  0.1266605E+00
        -11   -1    0    0    0    0  0.00000000000E+00  0.00000000000E+00  0.45593999997E+02  0.45594000000E+02  0.51100000000E-03 0.  1.
         11   -1    0    0    0    0 -0.00000000000E+00 -0.00000000000E+00 -0.45593999997E+02  0.45594000000E+02  0.51100000000E-03 0. -1.
    9900012    2    1    2    0    0 -0.24961164032E+02  0.16539357385E+02  0.10959602219E+02  0.59301906898E+02  0.49999932283E+02 0.  0.
         12    1    1    2    0    0  0.24961164032E+02 -0.16539357385E+02 -0.10959602219E+02  0.31886093102E+02  0.00000000000E+00 0. -1.
         11    1    3    3    0    0 -0.10346977760E+02  0.18309280623E+02  0.18128397771E+02  0.27765599430E+02  0.51100000000E-03 0. -1.
        -11    1    3    3    0    0 -0.10938336070E+02  0.11811543763E+02 -0.87365587907E+00  0.16122128796E+02  0.51100000000E-03 0.  1.
         12    1    3    3    0    0 -0.36758502008E+01 -0.13581467001E+02 -0.62951396732E+01  0.15414178671E+02  0.00000000000E+00 0. -1.
</event>
<event>
 7    1  0.5832130E-012  0.5930198E+02  0.7816164E-02  0.1266605E+00
        -11   -1    0    0    0    0  0.00000000000E+00  0.00000000000E+00  0.45593999997E+02  0.45594000000E+02  0.51100000000E-03 0. -1.
         11   -1    0    0    0    0 -0.00000000000E+00 -0.00000000000E+00 -0.45593999997E+02  0.45594000000E+02  0.51100000000E-03 0.  1.
    9900012    2    1    2    0    0  0.38144326179E+01  0.13454493345E+02 -0.28655632621E+02  0.59301975345E+02  0.50000057115E+02 0.  0.
         12    1    1    2    0    0 -0.38144326179E+01 -0.13454493345E+02  0.28655632621E+02  0.31886024655E+02  0.00000000000E+00 0. -1.
         11    1    3    3    0    0  0.28833389750E+01 -0.28776452068E+01  0.12833904189E+02  0.13464901878E+02  0.51100000000E-03 0. -1.
        -11    1    3    3    0    0 -0.24168101541E+01 -0.36314287579E+00 -0.57870497835E+01  0.62819415412E+01  0.51100000000E-03 0.  1.
        -12    1    3    3    0    0  0.33479037970E+01  0.16695281428E+02 -0.35702487027E+02  0.39555131926E+02  0.00000000000E+00 0.  1.
</event>
<event>
 7    1  0.5832130E-012  0.5930194E+02  0.7816164E-02  0.1266605E+00
        -11   -1    0    0    0    0  0.00000000000E+00  0.00000000000E+00  0.45593999997E+02  0.45594000000E+02  0.51100000000E-03 0. -1.
         11   -1    0    0    0    0 -0.00000000000E+00 -0.00000000000E+00 -0.45593999997E+02  0.45594000000E+02  0.51100000000E-03 0.  1.
    9900012    2    1    2    0    0 -0.30676894893E+02  0.18174763895E+01  0.85056438107E+01  0.59301936001E+02  0.49999985361E+02 0.  0.
         12    1    1    2    0    0  0.30676894893E+02 -0.18174763895E+01 -0.85056438107E+01  0.31886063999E+02  0.00000000000E+00 0. -1.
         11    1    3    3    0    0 -0.16180653387E+02  0.83920875061E+01  0.23453404933E+01  0.18377739225E+02  0.51100000000E-03 0. -1.
        -11    1    3    3    0    0 -0.27118648385E+02 -0.60715563545E+01  0.50270867776E+01  0.28241042625E+02  0.51100000000E-03 0.  1.
         12    1    3    3    0    0  0.12622406879E+02 -0.50305476217E+00  0.11332165398E+01  0.12683154151E+02  0.00000000000E+00 0. -1.
</event>
<event>
 7    1  0.5832130E-012  0.5930194E+02  0.7816164E-02  0.1266605E+00
        -11   -1    0    0    0    0  0.00000000000E+00  0.00000000000E+00  0.45593999997E+02  0.45594000000E+02  0.51100000000E-03 0. -1.
         11   -1    0    0    0    0 -0.00000000000E+00 -0.00000000000E+00 -0.45593999997E+02  0.45594000000E+02  0.51100000000E-03 0.  1.
    9900012    2    1    2    0    0 -0.31425531170E+02 -0.42563747684E+01 -0.33226303845E+01  0.59301943358E+02  0.49999998779E+02 0.  0.
         12    1    1    2    0    0  0.31425531170E+02  0.42563747684E+01  0.33226303845E+01  0.31886056642E+02  0.00000000000E+00 0. -1.
         11    1    3    3    0    0 -0.11354846104E+02 -0.37843023913E+01 -0.62078325598E+01  0.13482976674E+02  0.51100000000E-03 0. -1.
        -11    1    3    3    0    0 -0.70812424764E+01 -0.19986187695E+02 -0.35756318620E+01  0.21502949497E+02  0.51100000000E-03 0.  1.
         12    1    3    3    0    0 -0.12989442589E+02  0.19514115318E+02  0.64608340372E+01  0.24316017188E+02  0.00000000000E+00 0. -1.
</event>
<event>
 7    1  0.5832130E-012  0.5930193E+02  0.7816164E-02  0.1266605E+00
        -11   -1    0    0    0    0  0.00000000000E+00  0.00000000000E+00  0.45593999997E+02  0.45594000000E+02  0.51100000000E-03 0.  1.
         11   -1    0    0    0    0 -0.00000000000E+00 -0.00000000000E+00 -0.45593999997E+02  0.45594000000E+02  0.51100000000E-03 0. -1.
    9900012    2    1    2    0    0  0.25588908932E+01  0.31459760453E+02  0.45229553446E+01  0.59301928191E+02  0.49999971118E+02 0.  0.
         12    1    1    2    0    0 -0.25588908932E+01 -0.31459760453E+02 -0.45229553446E+01  0.31886071809E+02  0.00000000000E+00 0. -1.
         11    1    3    3    0    0 -0.10863239607E+02  0.11229152460E+02 -0.14060260267E+02  0.21018914310E+02  0.51100000000E-03 0. -1.
        -11    1    3    3    0    0  0.37325566562E-01  0.19399091620E+02  0.71985223099E+01  0.20691661909E+02  0.51100000000E-03 0.  1.
        -12    1    3    3    0    0  0.13384804934E+02  0.83151637289E+00  0.11384693302E+02  0.17591351971E+02  0.00000000000E+00 0.  1.
</event>
<event>
 7    1  0.5832130E-012  0.5930194E+02  0.7816164E-02  0.1266605E+00
        -11   -1    0    0    0    0  0.00000000000E+00  0.00000000000E+00  0.45593999997E+02  0.45594000000E+02  0.51100000000E-03 0. -1.
         11   -1    0    0    0    0 -0.00000000000E+00 -0.00000000000E+00 -0.45593999997E+02  0.45594000000E+02  0.51100000000E-03 0.  1.
    9900012    2    1    2    0    0 -0.25187824661E+02  0.16192708741E+02 -0.10958581991E+02  0.59301939617E+02  0.49999991955E+02 0.  0.
         12    1    1    2    0    0  0.25187824661E+02 -0.16192708741E+02  0.10958581991E+02  0.31886060383E+02  0.00000000000E+00 0. -1.
         11    1    3    3    0    0 -0.20720973231E+02  0.24671740849E+02 -0.16079813959E+02  0.36008526010E+02  0.51100000000E-03 0. -1.
        -11    1    3    3    0    0  0.27411349026E+01  0.47554336012E+01 -0.29146219989E+01  0.62147398134E+01  0.51100000000E-03 0.  1.
        -12    1    3    3    0    0 -0.72079863320E+01 -0.13234465709E+02  0.80358539663E+01  0.17078673793E+02  0.00000000000E+00 0.  1.
</event>
<event>
 7    1  0.5832130E-012  0.5930194E+02  0.7816164E-02  0.1266605E+00
        -11   -1    0    0    0    0  0.00000000000E+00  0.00000000000E+00  0.45593999997E+02  0.45594000000E+02  0.51100000000E-03 0. -1.
         11   -1    0    0    0    0 -0.00000000000E+00 -0.00000000000E+00 -0.45593999997E+02  0.45594000000E+02  0.51100000000E-03 0.  1.
    9900012    2    1    2    0    0  0.29019995671E+02 -0.99718150020E+01  0.86673871162E+01  0.59301939682E+02  0.49999992075E+02 0.  0.
         12    1    1    2    0    0 -0.29019995671E+02  0.99718150020E+01 -0.86673871162E+01  0.31886060318E+02  0.00000000000E+00 0. -1.
         11    1    3    3    0    0 -0.49225349781E+01 -0.11187544339E+02  0.13318789164E+02  0.18077130414E+02  0.51100000000E-03 0. -1.
        -11    1    3    3    0    0  0.33732791249E+00  0.20199846631E+01 -0.72268920115E+01  0.75114643424E+01  0.51100000000E-03 0.  1.
         12    1    3    3    0    0  0.33605202736E+02 -0.80425532620E+00  0.25754899640E+01  0.33713344926E+02  0.00000000000E+00 0. -1.
</event>
<event>
 7    1  0.5832130E-012  0.5930193E+02  0.7816164E-02  0.1266605E+00
        -11   -1    0    0    0    0  0.00000000000E+00  0.00000000000E+00  0.45593999997E+02  0.45594000000E+02  0.51100000000E-03 0. -1.
         11   -1    0    0    0    0 -0.00000000000E+00 -0.00000000000E+00 -0.45593999997E+02  0.45594000000E+02  0.51100000000E-03 0.  1.
    9900012    2    1    2    0    0  0.45432894701E+01  0.78497406277E+01 -0.30568968327E+02  0.59301925740E+02  0.49999966648E+02 0.  0.
         12    1    1    2    0    0 -0.45432894701E+01 -0.78497406277E+01  0.30568968327E+02  0.31886074260E+02  0.00000000000E+00 0. -1.
         11    1    3    3    0    0  0.58232942892E+01  0.11771999808E+02 -0.19247465775E+00  0.13134983160E+02  0.51100000000E-03 0. -1.
        -11    1    3    3    0    0 -0.15710858506E+02  0.63681302309E+01 -0.16504744948E+02  0.23659897795E+02  0.51100000000E-03 0.  1.
        -12    1    3    3    0    0  0.14430853687E+02 -0.10290389411E+02 -0.13871748721E+02  0.22507044785E+02  0.00000000000E+00 0.  1.
</event>
<event>
 7    1  0.5832130E-012  0.5930195E+02  0.7816164E-02  0.1266605E+00
        -11   -1    0    0    0    0  0.00000000000E+00  0.00000000000E+00  0.45593999997E+02  0.45594000000E+02  0.51100000000E-03 0. -1.
         11   -1    0    0    0    0 -0.00000000000E+00 -0.00000000000E+00 -0.45593999997E+02  0.45594000000E+02  0.51100000000E-03 0.  1.
    9900012    2    1    2    0    0  0.21575855424E+02 -0.85417902551E+01 -0.21868705417E+02  0.59301952978E+02  0.50000016324E+02 0.  0.
         12    1    1    2    0    0 -0.21575855424E+02  0.85417902551E+01  0.21868705417E+02  0.31886047022E+02  0.00000000000E+00 0. -1.
         11    1    3    3    0    0  0.19210286275E+01 -0.15688686572E+02 -0.23302773745E+02  0.28157494594E+02  0.51100000000E-03 0. -1.
        -11    1    3    3    0    0 -0.27817365572E+01 -0.35976713661E+01  0.41030988390E+01  0.61250892137E+01  0.51100000000E-03 0.  1.
        -12    1    3    3    0    0  0.22436563354E+02  0.10744567683E+02 -0.26690305115E+01  0.25019369171E+02  0.00000000000E+00 0.  1.
</event>
<event>
 7    1  0.5832130E-012  0.5930196E+02  0.7816164E-02  0.1266605E+00
        -11   -1    0    0    0    0  0.00000000000E+00  0.00000000000E+00  0.45593999997E+02  0.45594000000E+02  0.51100000000E-03 0. -1.
         11   -1    0    0    0    0 -0.00000000000E+00 -0.00000000000E+00 -0.45593999997E+02  0.45594000000E+02  0.51100000000E-03 0.  1.
    9900012    2    1    2    0    0  0.31486353793E+02 -0.48574446696E+01 -0.13169511316E+01  0.59301959101E+02  0.50000027490E+02 0.  0.
         12    1    1    2    0    0 -0.31486353793E+02  0.48574446696E+01  0.13169511316E+01  0.31886040899E+02  0.00000000000E+00 0. -1.
         11    1    3    3    0    0 -0.84991667313E+01 -0.36211571089E+01  0.46512773237E-01  0.92385484592E+01  0.51100000000E-03 0. -1.
        -11    1    3    3    0    0  0.39936042646E+02  0.17385887076E+01  0.75375378046E+01  0.40678307110E+02  0.51100000000E-03 0.  1.
         12    1    3    3    0    0  0.49477878441E-01 -0.29748762682E+01 -0.89010017094E+01  0.93851035318E+01  0.00000000000E+00 0. -1.
</event>
<event>
 7    1  0.5832130E-012  0.5930196E+02  0.7816164E-02  0.1266605E+00
        -11   -1    0    0    0    0  0.00000000000E+00  0.00000000000E+00  0.45593999997E+02  0.45594000000E+02  0.51100000000E-03 0.  1.
         11   -1    0    0    0    0 -0.00000000000E+00 -0.00000000000E+00 -0.45593999997E+02  0.45594000000E+02  0.51100000000E-03 0. -1.
    9900012    2    1    2    0    0 -0.19205184384E+02  0.22202127020E+01  0.25356482237E+02  0.59301958492E+02  0.50000026379E+02 0.  0.
         12    1    1    2    0    0  0.19205184384E+02 -0.22202127020E+01 -0.25356482237E+02  0.31886041508E+02  0.00000000000E+00 0. -1.
         11    1    3    3    0    0 -0.18850661149E+02 -0.12720800844E+02  0.20921399333E+01  0.22837321420E+02  0.51100000000E-03 0. -1.
        -11    1    3    3    0    0 -0.82165919603E+01  0.28435843666E+01  0.19802706638E+02  0.21627425781E+02  0.51100000000E-03 0.  1.
        -12    1    3    3    0    0  0.78620687262E+01  0.12097429179E+02  0.34616356656E+01  0.14837211291E+02  0.00000000000E+00 0.  1.
</event>
<event>
 7    1  0.5832130E-012  0.5930194E+02  0.7816164E-02  0.1266605E+00
        -11   -1    0    0    0    0  0.00000000000E+00  0.00000000000E+00  0.45593999997E+02  0.45594000000E+02  0.51100000000E-03 0.  1.
         11   -1    0    0    0    0 -0.00000000000E+00 -0.00000000000E+00 -0.45593999997E+02  0.45594000000E+02  0.51100000000E-03 0. -1.
    9900012    2    1    2    0    0  0.81683315437E-01 -0.10848537227E+02  0.29983720801E+02  0.59301938073E+02  0.49999989141E+02 0.  0.
         12    1    1    2    0    0 -0.81683315437E-01  0.10848537227E+02 -0.29983720801E+02  0.31886061927E+02  0.00000000000E+00 0. -1.
         11    1    3    3    0    0  0.17927245424E+01 -0.20740402655E+02  0.51816198964E+01  0.21452910026E+02  0.51100000000E-03 0. -1.
        -11    1    3    3    0    0 -0.53553721968E+01  0.48812469084E+01 -0.40759270102E+01  0.83138296831E+01  0.51100000000E-03 0.  1.
         12    1    3    3    0    0  0.36443309699E+01  0.50106185202E+01  0.28878027915E+02  0.29535198364E+02  0.00000000000E+00 0. -1.
</event>
<event>
 7    1  0.5832130E-012  0.5930195E+02  0.7816164E-02  0.1266605E+00
        -11   -1    0    0    0    0  0.00000000000E+00  0.00000000000E+00  0.45593999997E+02  0.45594000000E+02  0.51100000000E-03 0.  1.
         11   -1    0    0    0    0 -0.00000000000E+00 -0.00000000000E+00 -0.45593999997E+02  0.45594000000E+02  0.51100000000E-03 0. -1.
    9900012    2    1    2    0    0 -0.13087234494E+02  0.27602104161E+02  0.91415668072E+01  0.59301951256E+02  0.50000013183E+02 0.  0.
         12    1    1    2    0    0  0.13087234494E+02 -0.27602104161E+02 -0.91415668072E+01  0.31886048744E+02  0.00000000000E+00 0. -1.
         11    1    3    3    0    0 -0.60192747049E+01  0.97101987381E+01 -0.15251853598E+02  0.19056197573E+02  0.51100000000E-03 0. -1.
        -11    1    3    3    0    0 -0.11914046515E+02  0.97334122039E+00  0.25991799396E+01  0.12233054979E+02  0.51100000000E-03 0.  1.
        -12    1    3    3    0    0  0.48460867254E+01  0.16918564202E+02  0.21794240466E+02  0.28012698704E+02  0.00000000000E+00 0.  1.
</event>
<event>
 7    1  0.5832130E-012  0.5930194E+02  0.7816164E-02  0.1266605E+00
        -11   -1    0    0    0    0  0.00000000000E+00  0.00000000000E+00  0.45593999997E+02  0.45594000000E+02  0.51100000000E-03 0.  1.
         11   -1    0    0    0    0 -0.00000000000E+00 -0.00000000000E+00 -0.45593999997E+02  0.45594000000E+02  0.51100000000E-03 0. -1.
    9900012    2    1    2    0    0 -0.16416786493E+02 -0.21926867490E+02  0.16322445555E+02  0.59301943085E+02  0.49999998281E+02 0.  0.
         12    1    1    2    0    0  0.16416786493E+02  0.21926867490E+02 -0.16322445555E+02  0.31886056915E+02  0.00000000000E+00 0. -1.
         11    1    3    3    0    0 -0.98747568110E+01 -0.16662595808E+02  0.13723198863E+02  0.23737714895E+02  0.51100000000E-03 0. -1.
        -11    1    3    3    0    0 -0.80571635058E+01  0.31403942277E+01  0.16856292624E+02  0.18945040537E+02  0.51100000000E-03 0.  1.
         12    1    3    3    0    0  0.15151338241E+01 -0.84046659105E+01 -0.14257045931E+02  0.16619187654E+02  0.00000000000E+00 0. -1.
</event>
<event>
 7    1  0.5832130E-012  0.5930201E+02  0.7816164E-02  0.1266605E+00
        -11   -1    0    0    0    0  0.00000000000E+00  0.00000000000E+00  0.45593999997E+02  0.45594000000E+02  0.51100000000E-03 0.  1.
         11   -1    0    0    0    0 -0.00000000000E+00 -0.00000000000E+00 -0.45593999997E+02  0.45594000000E+02  0.51100000000E-03 0. -1.
    9900012    2    1    2    0    0 -0.93013295518E+01 -0.52957514575E+01  0.30035923300E+02  0.59302009293E+02  0.50000119027E+02 0.  0.
         12    1    1    2    0    0  0.93013295518E+01  0.52957514575E+01 -0.30035923300E+02  0.31885990707E+02  0.00000000000E+00 0. -1.
         11    1    3    3    0    0 -0.85445779753E+01 -0.27464669389E+01 -0.51276340587E+01  0.10336610892E+02  0.51100000000E-03 0. -1.
        -11    1    3    3    0    0  0.54690268943E+00  0.15586630776E+02  0.13045501521E+02  0.20332911048E+02  0.51100000000E-03 0.  1.
        -12    1    3    3    0    0 -0.13036542660E+01 -0.18135915294E+02  0.22118055837E+02  0.28632487353E+02  0.00000000000E+00 0.  1.
</event>
<event>
 7    1  0.5832130E-012  0.5930194E+02  0.7816164E-02  0.1266605E+00
        -11   -1    0    0    0    0  0.00000000000E+00  0.00000000000E+00  0.45593999997E+02  0.45594000000E+02  0.51100000000E-03 0.  1.
         11   -1    0    0    0    0 -0.00000000000E+00 -0.00000000000E+00 -0.45593999997E+02  0.45594000000E+02  0.51100000000E-03 0. -1.
    9900012    2    1    2    0    0  0.17685435533E+02 -0.81770032844E+01  0.25240500458E+02  0.59301939157E+02  0.49999991117E+02 0.  0.
         12    1    1    2    0    0 -0.17685435533E+02  0.81770032844E+01 -0.25240500458E+02  0.31886060843E+02  0.00000000000E+00 0. -1.
         11    1    3    3    0    0  0.12377533120E+02  0.62463421188E+01  0.95383995650E+01  0.16828582309E+02  0.51100000000E-03 0. -1.
        -11    1    3    3    0    0  0.19940088529E+01  0.96039240110E+01  0.15349721478E+02  0.18216074699E+02  0.51100000000E-03 0.  1.
         12    1    3    3    0    0  0.33138935601E+01 -0.24027269414E+02  0.35237941521E+00  0.24257282150E+02  0.00000000000E+00 0. -1.
</event>
<event>
 7    1  0.5832130E-012  0.5930195E+02  0.7816164E-02  0.1266605E+00
        -11   -1    0    0    0    0  0.00000000000E+00  0.00000000000E+00  0.45593999997E+02  0.45594000000E+02  0.51100000000E-03 0.  1.
         11   -1    0    0    0    0 -0.00000000000E+00 -0.00000000000E+00 -0.45593999997E+02  0.45594000000E+02  0.51100000000E-03 0. -1.
    9900012    2    1    2    0    0  0.13317664605E+01  0.24859241739E+02  0.19923976604E+02  0.59301947477E+02  0.50000006291E+02 0.  0.
         12    1    1    2    0    0 -0.13317664605E+01 -0.24859241739E+02 -0.19923976604E+02  0.31886052523E+02  0.00000000000E+00 0. -1.
         11    1    3    3    0    0 -0.16015738093E+01 -0.36118484762E+01 -0.21816893084E+01  0.45133420634E+01  0.51100000000E-03 0. -1.
        -11    1    3    3    0    0  0.59430543421E+01 -0.72876468209E+01  0.15751790053E+02  0.18345260457E+02  0.51100000000E-03 0.  1.
        -12    1    3    3    0    0 -0.30097140723E+01  0.35758737036E+02  0.63538758598E+01  0.36443344957E+02  0.00000000000E+00 0.  1.
</event>
<event>
 7    1  0.5832130E-012  0.5930197E+02  0.7816164E-02  0.1266605E+00
        -11   -1    0    0    0    0  0.00000000000E+00  0.00000000000E+00  0.45593999997E+02  0.45594000000E+02  0.51100000000E-03 0. -1.
         11   -1    0    0    0    0 -0.00000000000E+00 -0.00000000000E+00 -0.45593999997E+02  0.45594000000E+02  0.51100000000E-03 0.  1.
    9900012    2    1    2    0    0 -0.28562906255E+02 -0.12754347873E+02 -0.61810907712E+01  0.59301970355E+02  0.50000048014E+02 0.  0.
         12    1    1    2    0    0  0.28562906255E+02  0.12754347873E+02  0.61810907712E+01  0.31886029645E+02  0.00000000000E+00 0. -1.
         11    1    3    3    0    0 -0.16343867596E+02 -0.13401353722E+02  0.30132842025E+01  0.21349430239E+02  0.51100000000E-03 0. -1.
        -11    1    3    3    0    0 -0.23290629752E+02 -0.39743805113E+01 -0.14479370850E+01  0.23671621337E+02  0.51100000000E-03 0.  1.
         12    1    3    3    0    0  0.11071591092E+02  0.46213863599E+01 -0.77464378888E+01  0.14280918779E+02  0.00000000000E+00 0. -1.
</event>
<event>
 7    1  0.5832130E-012  0.5930194E+02  0.7816164E-02  0.1266605E+00
        -11   -1    0    0    0    0  0.00000000000E+00  0.00000000000E+00  0.45593999997E+02  0.45594000000E+02  0.51100000000E-03 0. -1.
         11   -1    0    0    0    0 -0.00000000000E+00 -0.00000000000E+00 -0.45593999997E+02  0.45594000000E+02  0.51100000000E-03 0.  1.
    9900012    2    1    2    0    0  0.27541472706E+02  0.12163743903E+02 -0.10499130814E+02  0.59301935138E+02  0.49999983787E+02 0.  0.
         12    1    1    2    0    0 -0.27541472706E+02 -0.12163743903E+02  0.10499130814E+02  0.31886064862E+02  0.00000000000E+00 0. -1.
         11    1    3    3    0    0 -0.61295683670E+00  0.12169239710E+02  0.20366259963E+01  0.12353702154E+02  0.51100000000E-03 0. -1.
        -11    1    3    3    0    0 -0.31642224862E+01  0.82874666832E+01 -0.11512816575E+02  0.14534075606E+02  0.51100000000E-03 0.  1.
         12    1    3    3    0    0  0.31318652029E+02 -0.82929624906E+01 -0.10229402346E+01  0.32414157378E+02  0.00000000000E+00 0. -1.
</event>
<event>
 7    1  0.5832130E-012  0.5930195E+02  0.7816164E-02  0.1266605E+00
        -11   -1    0    0    0    0  0.00000000000E+00  0.00000000000E+00  0.45593999997E+02  0.45594000000E+02  0.51100000000E-03 0.  1.
         11   -1    0    0    0    0 -0.00000000000E+00 -0.00000000000E+00 -0.45593999997E+02  0.45594000000E+02  0.51100000000E-03 0. -1.
    9900012    2    1    2    0    0 -0.27995069401E+01  0.16537057450E+02  0.27118423756E+02  0.59301946384E+02  0.50000004297E+02 0.  0.
         12    1    1    2    0    0  0.27995069401E+01 -0.16537057450E+02 -0.27118423756E+02  0.31886053616E+02  0.00000000000E+00 0. -1.
         11    1    3    3    0    0  0.21746223505E+01  0.33128156154E+01 -0.71229739385E+01  0.81511034627E+01  0.51100000000E-03 0. -1.
        -11    1    3    3    0    0 -0.14507731831E+02  0.15315145695E+02  0.70207467493E+01  0.22233282612E+02  0.51100000000E-03 0.  1.
        -12    1    3    3    0    0  0.95336025399E+01 -0.20909038603E+01  0.27220650945E+02  0.28917560309E+02  0.00000000000E+00 0.  1.
</event>
<event>
 7    1  0.5832130E-012  0.5930194E+02  0.7816164E-02  0.1266605E+00
        -11   -1    0    0    0    0  0.00000000000E+00  0.00000000000E+00  0.45593999997E+02  0.45594000000E+02  0.51100000000E-03 0.  1.
         11   -1    0    0    0    0 -0.00000000000E+00 -0.00000000000E+00 -0.45593999997E+02  0.45594000000E+02  0.51100000000E-03 0. -1.
    9900012    2    1    2    0    0 -0.13111872189E+02 -0.29015284437E+02  0.17067923316E+01  0.59301936221E+02  0.49999985762E+02 0.  0.
         12    1    1    2    0    0  0.13111872189E+02  0.29015284437E+02 -0.17067923316E+01  0.31886063779E+02  0.00000000000E+00 0. -1.
         11    1    3    3    0    0 -0.72069193695E+01 -0.76570249663E+01 -0.11501309492E+02  0.15583640089E+02  0.51100000000E-03 0. -1.
        -11    1    3    3    0    0 -0.42263528235E+01 -0.22236248099E+02 -0.67898643719E+01  0.23630807142E+02  0.51100000000E-03 0.  1.
         12    1    3    3    0    0 -0.16785999957E+01  0.87798862827E+00  0.19997966195E+02  0.20087488990E+02  0.00000000000E+00 0. -1.
</event>
<event>
 7    1  0.5832130E-012  0.5930194E+02  0.7816164E-02  0.1266605E+00
        -11   -1    0    0    0    0  0.00000000000E+00  0.00000000000E+00  0.45593999997E+02  0.45594000000E+02  0.51100000000E-03 0. -1.
         11   -1    0    0    0    0 -0.00000000000E+00 -0.00000000000E+00 -0.45593999997E+02  0.45594000000E+02  0.51100000000E-03 0.  1.
    9900012    2    1    2    0    0 -0.20975050849E+01  0.30462210667E+02 -0.91855818164E+01  0.59301941611E+02  0.49999995593E+02 0.  0.
         12    1    1    2    0    0  0.20975050849E+01 -0.30462210667E+02  0.91855818164E+01  0.31886058389E+02  0.00000000000E+00 0. -1.
         11    1    3    3    0    0 -0.12379793035E+02  0.59521629308E+01  0.10439437954E+02  0.17253097815E+02  0.51100000000E-03 0. -1.
        -11    1    3    3    0    0 -0.46432888360E+01  0.14088739228E+02  0.58944841684E+00  0.14845880033E+02  0.51100000000E-03 0.  1.
        -12    1    3    3    0    0  0.14925576787E+02  0.10421308508E+02 -0.20214468187E+02  0.27202963763E+02  0.00000000000E+00 0.  1.
</event>
<event>
 7    1  0.5832130E-012  0.5930195E+02  0.7816164E-02  0.1266605E+00
        -11   -1    0    0    0    0  0.00000000000E+00  0.00000000000E+00  0.45593999997E+02  0.45594000000E+02  0.51100000000E-03 0. -1.
         11   -1    0    0    0    0 -0.00000000000E+00 -0.00000000000E+00 -0.45593999997E+02  0.45594000000E+02  0.51100000000E-03 0.  1.
    9900012    2    1    2    0    0  0.22390989351E+02 -0.10624973502E+02 -0.20061749506E+02  0.59301948829E+02  0.50000008757E+02 0.  0.
         12    1    1    2    0    0 -0.22390989351E+02  0.10624973502E+02  0.20061749506E+02  0.31886051171E+02  0.00000000000E+00 0. -1.
         11    1    3    3    0    0  0.36872699107E+01  0.10077431260E+02 -0.96409416900E+01  0.14425613926E+02  0.51100000000E-03 0. -1.
        -11    1    3    3    0    0  0.19083333107E+02  0.17814708684E+01 -0.11520775503E+02  0.22362368153E+02  0.51100000000E-03 0.  1.
        -12    1    3    3    0    0 -0.37961366725E+00 -0.22483875631E+02  0.10999676874E+01  0.22513966751E+02  0.00000000000E+00 0.  1.
</event>
<event>
 7    1  0.5832130E-012  0.5930196E+02  0.7816164E-02  0.1266605E+00
        -11   -1    0    0    0    0  0.00000000000E+00  0.00000000000E+00  0.45593999997E+02  0.45594000000E+02  0.51100000000E-03 0. -1.
         11   -1    0    0    0    0 -0.00000000000E+00 -0.00000000000E+00 -0.45593999997E+02  0.45594000000E+02  0.51100000000E-03 0.  1.
    9900012    2    1    2    0    0 -0.22620352974E+02 -0.12046876365E+02 -0.18971340990E+02  0.59301962652E+02  0.50000033965E+02 0.  0.
         12    1    1    2    0    0  0.22620352974E+02  0.12046876365E+02  0.18971340990E+02  0.31886037348E+02  0.00000000000E+00 0. -1.
         11    1    3    3    0    0 -0.72639130247E+01 -0.11427848970E+02 -0.69297855875E+01  0.15211248899E+02  0.51100000000E-03 0. -1.
        -11    1    3    3    0    0  0.58396155291E+01 -0.15215163546E+02 -0.18163688040E+01  0.16398216585E+02  0.51100000000E-03 0.  1.
         12    1    3    3    0    0 -0.21196055478E+02  0.14596136152E+02 -0.10225186599E+02  0.27692497168E+02  0.00000000000E+00 0. -1.
</event>
<event>
 7    1  0.5832130E-012  0.5930195E+02  0.7816164E-02  0.1266605E+00
        -11   -1    0    0    0    0  0.00000000000E+00  0.00000000000E+00  0.45593999997E+02  0.45594000000E+02  0.51100000000E-03 0. -1.
         11   -1    0    0    0    0 -0.00000000000E+00 -0.00000000000E+00 -0.45593999997E+02  0.45594000000E+02  0.51100000000E-03 0.  1.
    9900012    2    1    2    0    0 -0.13360676005E+02 -0.25735008482E+02 -0.13263544522E+02  0.59301953865E+02  0.50000017940E+02 0.  0.
         12    1    1    2    0    0  0.13360676005E+02  0.25735008482E+02  0.13263544522E+02  0.31886046135E+02  0.00000000000E+00 0. -1.
         11    1    3    3    0    0 -0.42434878077E+01 -0.15304920352E+02 -0.11019104761E+02  0.19330505574E+02  0.51100000000E-03 0. -1.
        -11    1    3    3    0    0  0.19285611086E+01 -0.51725709592E+01 -0.18682461648E+02  0.19480996170E+02  0.51100000000E-03 0.  1.
         12    1    3    3    0    0 -0.11045749305E+02 -0.52575171701E+01  0.16438021887E+02  0.20490452120E+02  0.00000000000E+00 0. -1.
</event>
<event>
 7    1  0.5832130E-012  0.5930195E+02  0.7816164E-02  0.1266605E+00
        -11   -1    0    0    0    0  0.00000000000E+00  0.00000000000E+00  0.45593999997E+02  0.45594000000E+02  0.51100000000E-03 0.  1.
         11   -1    0    0    0    0 -0.00000000000E+00 -0.00000000000E+00 -0.45593999997E+02  0.45594000000E+02  0.51100000000E-03 0. -1.
    9900012    2    1    2    0    0 -0.62420557451E+01 -0.22782603828E+02  0.21417518234E+02  0.59301946867E+02  0.50000005178E+02 0.  0.
         12    1    1    2    0    0  0.62420557451E+01  0.22782603828E+02 -0.21417518234E+02  0.31886053133E+02  0.00000000000E+00 0. -1.
         11    1    3    3    0    0 -0.81899732587E+01 -0.33849380538E+02  0.31462570790E+01  0.34967916132E+02  0.51100000000E-03 0. -1.
        -11    1    3    3    0    0 -0.32227046177E+01 -0.45241660799E+00  0.23517600022E+01  0.40151315308E+01  0.51100000000E-03 0.  1.
        -12    1    3    3    0    0  0.51706221313E+01  0.11519193318E+02  0.15919501153E+02  0.20318899204E+02  0.00000000000E+00 0.  1.
</event>
<event>
 7    1  0.5832130E-012  0.5930194E+02  0.7816164E-02  0.1266605E+00
        -11   -1    0    0    0    0  0.00000000000E+00  0.00000000000E+00  0.45593999997E+02  0.45594000000E+02  0.51100000000E-03 0.  1.
         11   -1    0    0    0    0 -0.00000000000E+00 -0.00000000000E+00 -0.45593999997E+02  0.45594000000E+02  0.51100000000E-03 0. -1.
    9900012    2    1    2    0    0 -0.22552946883E+02  0.20050448034E+02 -0.10298772228E+02  0.59301943660E+02  0.49999999329E+02 0.  0.
         12    1    1    2    0    0  0.22552946883E+02 -0.20050448034E+02  0.10298772228E+02  0.31886056340E+02  0.00000000000E+00 0. -1.
         11    1    3    3    0    0 -0.23845518486E+01  0.17319057045E+02  0.88592741751E+01  0.19599044967E+02  0.51100000000E-03 0. -1.
        -11    1    3    3    0    0  0.28880965513E+01 -0.41304190147E+01  0.39062296146E+01  0.63765267183E+01  0.51100000000E-03 0.  1.
         12    1    3    3    0    0 -0.23056491586E+02  0.68618100046E+01 -0.23064276018E+02  0.33326371975E+02  0.00000000000E+00 0. -1.
</event>
<event>
 7    1  0.5832130E-012  0.5930196E+02  0.7816164E-02  0.1266605E+00
        -11   -1    0    0    0    0  0.00000000000E+00  0.00000000000E+00  0.45593999997E+02  0.45594000000E+02  0.51100000000E-03 0. -1.
         11   -1    0    0    0    0 -0.00000000000E+00 -0.00000000000E+00 -0.45593999997E+02  0.45594000000E+02  0.51100000000E-03 0.  1.
    9900012    2    1    2    0    0  0.34004352445E+01  0.26404758380E+02 -0.17548367465E+02  0.59301961901E+02  0.50000032597E+02 0.  0.
         12    1    1    2    0    0 -0.34004352445E+01 -0.26404758380E+02  0.17548367465E+02  0.31886038099E+02  0.00000000000E+00 0. -1.
         11    1    3    3    0    0  0.83308732884E+01  0.77402451177E+01 -0.25479586552E+02  0.27902046078E+02  0.51100000000E-03 0. -1.
        -11    1    3    3    0    0 -0.94303749186E+01  0.19702030415E+02 -0.43142249755E+00  0.21846924251E+02  0.51100000000E-03 0.  1.
        -12    1    3    3    0    0  0.44999368746E+01 -0.10375171523E+01  0.83626415846E+01  0.95529915728E+01  0.00000000000E+00 0.  1.
</event>
<event>
 7    1  0.5832130E-012  0.5930194E+02  0.7816164E-02  0.1266605E+00
        -11   -1    0    0    0    0  0.00000000000E+00  0.00000000000E+00  0.45593999997E+02  0.45594000000E+02  0.51100000000E-03 0.  1.
         11   -1    0    0    0    0 -0.00000000000E+00 -0.00000000000E+00 -0.45593999997E+02  0.45594000000E+02  0.51100000000E-03 0. -1.
    9900012    2    1    2    0    0  0.92024617094E+01  0.14889776916E+01  0.30492921361E+02  0.59301943342E+02  0.49999998749E+02 0.  0.
         12    1    1    2    0    0 -0.92024617094E+01 -0.14889776916E+01 -0.30492921361E+02  0.31886056658E+02  0.00000000000E+00 0. -1.
         11    1    3    3    0    0  0.10112832966E+02  0.14927607730E+02  0.16729640719E+02  0.24596417259E+02  0.51100000000E-03 0.  1.
        -11    1    3    3    0    0  0.12556170799E+02 -0.91464395844E-02  0.32297013286E+01  0.12964894127E+02  0.51100000000E-03 0. -1.
         12    1    3    3    0    0 -0.13466542056E+02 -0.13429483599E+02  0.10533579313E+02  0.21740631955E+02  0.00000000000E+00 0. -1.
</event>
<event>
 7    1  0.5832130E-012  0.5930193E+02  0.7816164E-02  0.1266605E+00
        -11   -1    0    0    0    0  0.00000000000E+00  0.00000000000E+00  0.45593999997E+02  0.45594000000E+02  0.51100000000E-03 0.  1.
         11   -1    0    0    0    0 -0.00000000000E+00 -0.00000000000E+00 -0.45593999997E+02  0.45594000000E+02  0.51100000000E-03 0. -1.
    9900012    2    1    2    0    0 -0.19542423942E+00  0.15917653951E+02  0.27628095407E+02  0.59301928531E+02  0.49999971737E+02 0.  0.
         12    1    1    2    0    0  0.19542423942E+00 -0.15917653951E+02 -0.27628095407E+02  0.31886071469E+02  0.00000000000E+00 0. -1.
         11    1    3    3    0    0  0.12432857160E+02 -0.52189266114E+01 -0.31875513029E+01  0.13855454367E+02  0.51100000000E-03 0. -1.
        -11    1    3    3    0    0 -0.10869515268E+02  0.42605992692E+00  0.41628291635E+01  0.11647190053E+02  0.51100000000E-03 0.  1.
        -12    1    3    3    0    0 -0.17587661316E+01  0.20710520635E+02  0.26652817546E+02  0.33799284111E+02  0.00000000000E+00 0.  1.
</event>
<event>
 7    1  0.5832130E-012  0.5930194E+02  0.7816164E-02  0.1266605E+00
        -11   -1    0    0    0    0  0.00000000000E+00  0.00000000000E+00  0.45593999997E+02  0.45594000000E+02  0.51100000000E-03 0. -1.
         11   -1    0    0    0    0 -0.00000000000E+00 -0.00000000000E+00 -0.45593999997E+02  0.45594000000E+02  0.51100000000E-03 0.  1.
    9900012    2    1    2    0    0  0.23699630988E+02 -0.21320053550E+02 -0.70962514958E+00  0.59301940974E+02  0.49999994432E+02 0.  0.
         12    1    1    2    0    0 -0.23699630988E+02  0.21320053550E+02  0.70962514958E+00  0.31886059026E+02  0.00000000000E+00 0. -1.
         11    1    3    3    0    0  0.12727539658E+02 -0.69485504091E+01  0.17434797591E+02  0.22676965975E+02  0.51100000000E-03 0. -1.
        -11    1    3    3    0    0  0.16646570606E+02 -0.69466198881E+01 -0.22374061070E+01  0.18176078432E+02  0.51100000000E-03 0.  1.
        -12    1    3    3    0    0 -0.56744792767E+01 -0.74248832525E+01 -0.15907016633E+02  0.18448896567E+02  0.00000000000E+00 0.  1.
</event>
<event>
 7    1  0.5832130E-012  0.5930194E+02  0.7816164E-02  0.1266605E+00
        -11   -1    0    0    0    0  0.00000000000E+00  0.00000000000E+00  0.45593999997E+02  0.45594000000E+02  0.51100000000E-03 0.  1.
         11   -1    0    0    0    0 -0.00000000000E+00 -0.00000000000E+00 -0.45593999997E+02  0.45594000000E+02  0.51100000000E-03 0. -1.
    9900012    2    1    2    0    0  0.17503585026E+02 -0.26393723337E+02  0.37036197141E+01  0.59301938478E+02  0.49999989879E+02 0.  0.
         12    1    1    2    0    0 -0.17503585026E+02  0.26393723337E+02 -0.37036197141E+01  0.31886061522E+02  0.00000000000E+00 0. -1.
         11    1    3    3    0    0  0.25019073570E+02 -0.12338046640E+02  0.51590584616E+00  0.27900673761E+02  0.51100000000E-03 0. -1.
        -11    1    3    3    0    0 -0.33438710187E+01 -0.92923188915E+01  0.15023218459E+02  0.17978480384E+02  0.51100000000E-03 0.  1.
         12    1    3    3    0    0 -0.41716175246E+01 -0.47633578054E+01 -0.11835504591E+02  0.13422784334E+02  0.00000000000E+00 0. -1.
</event>
<event>
 7    1  0.5832130E-012  0.5930194E+02  0.7816164E-02  0.1266605E+00
        -11   -1    0    0    0    0  0.00000000000E+00  0.00000000000E+00  0.45593999997E+02  0.45594000000E+02  0.51100000000E-03 0.  1.
         11   -1    0    0    0    0 -0.00000000000E+00 -0.00000000000E+00 -0.45593999997E+02  0.45594000000E+02  0.51100000000E-03 0. -1.
    9900012    2    1    2    0    0 -0.19875927968E+01  0.28567411275E+01  0.31695572485E+02  0.59301940191E+02  0.49999993003E+02 0.  0.
         12    1    1    2    0    0  0.19875927968E+01 -0.28567411275E+01 -0.31695572485E+02  0.31886059809E+02  0.00000000000E+00 0. -1.
         11    1    3    3    0    0 -0.94747183710E+01  0.67790004990E+01  0.11187463991E+02  0.16151918982E+02  0.51100000000E-03 0. -1.
        -11    1    3    3    0    0 -0.99503490966E+01 -0.12040068076E+02  0.84325432571E+00  0.15642370810E+02  0.51100000000E-03 0.  1.
         12    1    3    3    0    0  0.17437474671E+02  0.81178087048E+01  0.19664854168E+02  0.27507650400E+02  0.00000000000E+00 0. -1.
</event>
<event>
 7    1  0.5832130E-012  0.5930155E+02  0.7816164E-02  0.1266606E+00
        -11   -1    0    0    0    0  0.00000000000E+00  0.00000000000E+00  0.45593999997E+02  0.45594000000E+02  0.51100000000E-03 0. -1.
         11   -1    0    0    0    0 -0.00000000000E+00 -0.00000000000E+00 -0.45593999997E+02  0.45594000000E+02  0.51100000000E-03 0.  1.
    9900012    2    1    2    0    0  0.37059867866E+01  0.31686689957E-01 -0.31670334368E+02  0.59301554273E+02  0.49999289176E+02 0.  0.
         12    1    1    2    0    0 -0.37059867866E+01 -0.31686689957E-01  0.31670334368E+02  0.31886445727E+02  0.00000000000E+00 0. -1.
         11    1    3    3    0    0 -0.66118672723E+01  0.10693812427E+02 -0.48605998279E+01  0.13479608451E+02  0.51100000000E-03 0. -1.
        -11    1    3    3    0    0  0.92851784538E+01  0.11536555420E+02 -0.12606056243E+02  0.19447861171E+02  0.51100000000E-03 0.  1.
        -12    1    3    3    0    0  0.10326756051E+01 -0.22198681157E+02 -0.14203678297E+02  0.26374084651E+02  0.00000000000E+00 0.  1.
</event>
<event>
 7    1  0.5832130E-012  0.5930194E+02  0.7816164E-02  0.1266605E+00
        -11   -1    0    0    0    0  0.00000000000E+00  0.00000000000E+00  0.45593999997E+02  0.45594000000E+02  0.51100000000E-03 0.  1.
         11   -1    0    0    0    0 -0.00000000000E+00 -0.00000000000E+00 -0.45593999997E+02  0.45594000000E+02  0.51100000000E-03 0. -1.
    9900012    2    1    2    0    0  0.47051393104E+01 -0.28942482012E+01  0.31403911145E+02  0.59301942800E+02  0.49999997761E+02 0.  0.
         12    1    1    2    0    0 -0.47051393104E+01  0.28942482012E+01 -0.31403911145E+02  0.31886057200E+02  0.00000000000E+00 0. -1.
         11    1    3    3    0    0  0.86367509640E+01  0.33737680057E+01  0.85436843447E+01  0.12608343278E+02  0.51100000000E-03 0. -1.
        -11    1    3    3    0    0 -0.90694294669E+00  0.15383783134E+02  0.49539625373E+00  0.15418454745E+02  0.51100000000E-03 0.  1.
         12    1    3    3    0    0 -0.30246687070E+01 -0.21651799341E+02  0.22364830546E+02  0.31275144777E+02  0.00000000000E+00 0. -1.
</event>
<event>
 7    1  0.5832130E-012  0.5930189E+02  0.7816164E-02  0.1266605E+00
        -11   -1    0    0    0    0  0.00000000000E+00  0.00000000000E+00  0.45593999997E+02  0.45594000000E+02  0.51100000000E-03 0.  1.
         11   -1    0    0    0    0 -0.00000000000E+00 -0.00000000000E+00 -0.45593999997E+02  0.45594000000E+02  0.51100000000E-03 0. -1.
    9900012    2    1    2    0    0 -0.10345483874E+02  0.12668621005E+01  0.30134531422E+02  0.59301890796E+02  0.49999902917E+02 0.  0.
         12    1    1    2    0    0  0.10345483874E+02 -0.12668621005E+01 -0.30134531422E+02  0.31886109204E+02  0.00000000000E+00 0. -1.
         11    1    3    3    0    0 -0.65529041311E+01  0.20063626587E+02  0.14195356789E+02  0.25436151812E+02  0.51100000000E-03 0. -1.
        -11    1    3    3    0    0 -0.81457432784E+01  0.18254886313E+01  0.19607887470E+01  0.85749772637E+01  0.51100000000E-03 0.  1.
        -12    1    3    3    0    0  0.43531635357E+01 -0.20622253117E+02  0.13978385886E+02  0.25290761720E+02  0.00000000000E+00 0.  1.
</event>
<event>
 7    1  0.5832130E-012  0.5930193E+02  0.7816164E-02  0.1266605E+00
        -11   -1    0    0    0    0  0.00000000000E+00  0.00000000000E+00  0.45593999997E+02  0.45594000000E+02  0.51100000000E-03 0.  1.
         11   -1    0    0    0    0 -0.00000000000E+00 -0.00000000000E+00 -0.45593999997E+02  0.45594000000E+02  0.51100000000E-03 0. -1.
    9900012    2    1    2    0    0  0.25326369769E+02 -0.12335993002E+02  0.14937194036E+02  0.59301929457E+02  0.49999973426E+02 0.  0.
         12    1    1    2    0    0 -0.25326369769E+02  0.12335993002E+02 -0.14937194036E+02  0.31886070543E+02  0.00000000000E+00 0. -1.
         11    1    3    3    0    0 -0.25506562071E+01 -0.66344545035E+00  0.24620503165E+02  0.24761162802E+02  0.51100000000E-03 0.  1.
        -11    1    3    3    0    0 -0.10507383853E+01 -0.25727200610E+01 -0.29051981031E+00  0.27941620726E+01  0.51100000000E-03 0. -1.
        -12    1    3    3    0    0  0.28927764361E+02 -0.90998274904E+01 -0.93927893191E+01  0.31746604582E+02  0.00000000000E+00 0.  1.
</event>
<event>
 7    1  0.5832130E-012  0.5930183E+02  0.7816164E-02  0.1266605E+00
        -11   -1    0    0    0    0  0.00000000000E+00  0.00000000000E+00  0.45593999997E+02  0.45594000000E+02  0.51100000000E-03 0.  1.
         11   -1    0    0    0    0 -0.00000000000E+00 -0.00000000000E+00 -0.45593999997E+02  0.45594000000E+02  0.51100000000E-03 0. -1.
    9900012    2    1    2    0    0 -0.32874827579E+00 -0.34450216030E+01  0.31697812511E+02  0.59301834234E+02  0.49999799762E+02 0.  0.
         12    1    1    2    0    0  0.32874827579E+00  0.34450216030E+01 -0.31697812511E+02  0.31886165766E+02  0.00000000000E+00 0. -1.
         11    1    3    3    0    0  0.81565312965E+01  0.73025485538E+01 -0.41111641761E+00  0.10955602911E+02  0.51100000000E-03 0. -1.
        -11    1    3    3    0    0 -0.40681223529E+01  0.12155552724E+02  0.11494682205E+02  0.17217282038E+02  0.51100000000E-03 0.  1.
        -12    1    3    3    0    0 -0.44171572193E+01 -0.22903122881E+02  0.20614246724E+02  0.31128949285E+02  0.00000000000E+00 0.  1.
</event>
<event>
 7    1  0.5832130E-012  0.5930189E+02  0.7816164E-02  0.1266605E+00
        -11   -1    0    0    0    0  0.00000000000E+00  0.00000000000E+00  0.45593999997E+02  0.45594000000E+02  0.51100000000E-03 0.  1.
         11   -1    0    0    0    0 -0.00000000000E+00 -0.00000000000E+00 -0.45593999997E+02  0.45594000000E+02  0.51100000000E-03 0. -1.
    9900012    2    1    2    0    0  0.33641102457E+01  0.21376272031E+02  0.23419264345E+02  0.59301887253E+02  0.49999896456E+02 0.  0.
         12    1    1    2    0    0 -0.33641102457E+01 -0.21376272031E+02 -0.23419264345E+02  0.31886112747E+02  0.00000000000E+00 0. -1.
         11    1    3    3    0    0  0.68730061194E+01  0.39363436768E+01 -0.62312503102E+01  0.10077772341E+02  0.51100000000E-03 0. -1.
        -11    1    3    3    0    0  0.34054333040E+01 -0.94543756583E+01  0.14350765149E+02  0.17519322353E+02  0.51100000000E-03 0.  1.
         12    1    3    3    0    0 -0.69143291777E+01  0.26894304012E+02  0.15299749506E+02  0.31704792559E+02  0.00000000000E+00 0. -1.
</event>
<event>
 7    1  0.5832130E-012  0.5930191E+02  0.7816164E-02  0.1266605E+00
        -11   -1    0    0    0    0  0.00000000000E+00  0.00000000000E+00  0.45593999997E+02  0.45594000000E+02  0.51100000000E-03 0.  1.
         11   -1    0    0    0    0 -0.00000000000E+00 -0.00000000000E+00 -0.45593999997E+02  0.45594000000E+02  0.51100000000E-03 0. -1.
    9900012    2    1    2    0    0  0.10431685087E+02 -0.16067757936E+01  0.30088556424E+02  0.59301905697E+02  0.49999930094E+02 0.  0.
         12    1    1    2    0    0 -0.10431685087E+02  0.16067757936E+01 -0.30088556424E+02  0.31886094303E+02  0.00000000000E+00 0. -1.
         11    1    3    3    0    0  0.58144696515E+01 -0.62223862969E+00 -0.77892611692E+01  0.97400117075E+01  0.51100000000E-03 0. -1.
        -11    1    3    3    0    0 -0.10782683806E+02  0.85761294682E+01  0.17865424733E+02  0.22560799363E+02  0.51100000000E-03 0.  1.
         12    1    3    3    0    0  0.15399899241E+02 -0.95606666321E+01  0.20012392860E+02  0.27001094627E+02  0.00000000000E+00 0. -1.
</event>
<event>
 7    1  0.5832130E-012  0.5930193E+02  0.7816164E-02  0.1266605E+00
        -11   -1    0    0    0    0  0.00000000000E+00  0.00000000000E+00  0.45593999997E+02  0.45594000000E+02  0.51100000000E-03 0. -1.
         11   -1    0    0    0    0 -0.00000000000E+00 -0.00000000000E+00 -0.45593999997E+02  0.45594000000E+02  0.51100000000E-03 0.  1.
    9900012    2    1    2    0    0 -0.17221085311E+02 -0.24975222616E+02  0.98180564589E+01  0.59301925349E+02  0.49999965935E+02 0.  0.
         12    1    1    2    0    0  0.17221085311E+02  0.24975222616E+02 -0.98180564589E+01  0.31886074651E+02  0.00000000000E+00 0. -1.
         11    1    3    3    0    0 -0.52910432267E+01 -0.10531801171E+02  0.35156840792E+01  0.12299349948E+02  0.51100000000E-03 0.  1.
        -11    1    3    3    0    0 -0.37963104064E+01  0.14749922698E+02  0.68318122797E+01  0.16692688567E+02  0.51100000000E-03 0. -1.
         12    1    3    3    0    0 -0.81337316780E+01 -0.29193344143E+02 -0.52943989988E+00  0.30309886834E+02  0.00000000000E+00 0. -1.
</event>
<event>
 7    1  0.5832130E-012  0.5930204E+02  0.7816164E-02  0.1266604E+00
        -11   -1    0    0    0    0  0.00000000000E+00  0.00000000000E+00  0.45593999997E+02  0.45594000000E+02  0.51100000000E-03 0.  1.
         11   -1    0    0    0    0 -0.00000000000E+00 -0.00000000000E+00 -0.45593999997E+02  0.45594000000E+02  0.51100000000E-03 0. -1.
    9900012    2    1    2    0    0 -0.31658140449E+02  0.14073262544E+01  0.35349884706E+01  0.59302038084E+02  0.50000171535E+02 0.  0.
         12    1    1    2    0    0  0.31658140449E+02 -0.14073262544E+01 -0.35349884706E+01  0.31885961916E+02  0.00000000000E+00 0. -1.
         11    1    3    3    0    0  0.16130001774E+01 -0.59563492034E+00 -0.28824282309E+01  0.33563288424E+01  0.51100000000E-03 0. -1.
        -11    1    3    3    0    0 -0.69020623488E+01  0.19992834040E+02 -0.55304107190E+01  0.21861777617E+02  0.51100000000E-03 0.  1.
        -12    1    3    3    0    0 -0.26369078277E+02 -0.17989872865E+02  0.11947827420E+02  0.34083931624E+02  0.00000000000E+00 0.  1.
</event>
<event>
 7    1  0.5832130E-012  0.5930193E+02  0.7816164E-02  0.1266605E+00
        -11   -1    0    0    0    0  0.00000000000E+00  0.00000000000E+00  0.45593999997E+02  0.45594000000E+02  0.51100000000E-03 0.  1.
         11   -1    0    0    0    0 -0.00000000000E+00 -0.00000000000E+00 -0.45593999997E+02  0.45594000000E+02  0.51100000000E-03 0. -1.
    9900012    2    1    2    0    0 -0.16077249798E+01  0.21709677057E+02  0.23298634537E+02  0.59301933626E+02  0.49999981029E+02 0.  0.
         12    1    1    2    0    0  0.16077249798E+01 -0.21709677057E+02 -0.23298634537E+02  0.31886066374E+02  0.00000000000E+00 0. -1.
         11    1    3    3    0    0  0.72940483164E+01  0.53756008579E+01  0.10192089134E+02  0.13637408353E+02  0.51100000000E-03 0. -1.
        -11    1    3    3    0    0 -0.38889460865E+01  0.18245552450E+02  0.25826445053E+02  0.31859525266E+02  0.51100000000E-03 0.  1.
         12    1    3    3    0    0 -0.50128272098E+01 -0.19114762507E+01 -0.12719899649E+02  0.13805000006E+02  0.00000000000E+00 0. -1.
</event>
<event>
 7    1  0.5832130E-012  0.5930196E+02  0.7816164E-02  0.1266605E+00
        -11   -1    0    0    0    0  0.00000000000E+00  0.00000000000E+00  0.45593999997E+02  0.45594000000E+02  0.51100000000E-03 0.  1.
         11   -1    0    0    0    0 -0.00000000000E+00 -0.00000000000E+00 -0.45593999997E+02  0.45594000000E+02  0.51100000000E-03 0. -1.
    9900012    2    1    2    0    0  0.15957366130E+02 -0.15313564035E+02  0.22969045926E+02  0.59301955278E+02  0.50000020519E+02 0.  0.
         12    1    1    2    0    0 -0.15957366130E+02  0.15313564035E+02 -0.22969045926E+02  0.31886044722E+02  0.00000000000E+00 0. -1.
         11    1    3    3    0    0 -0.11964585969E+01 -0.14167413443E+02  0.63202573948E+01  0.15559330661E+02  0.51100000000E-03 0. -1.
        -11    1    3    3    0    0  0.59632769225E+01 -0.48939336820E+00  0.27498615832E+02  0.28142033517E+02  0.51100000000E-03 0.  1.
        -12    1    3    3    0    0  0.11190547804E+02 -0.65675722386E+00 -0.10849827301E+02  0.15600591100E+02  0.00000000000E+00 0.  1.
</event>
<event>
 7    1  0.5832130E-012  0.5930194E+02  0.7816164E-02  0.1266605E+00
        -11   -1    0    0    0    0  0.00000000000E+00  0.00000000000E+00  0.45593999997E+02  0.45594000000E+02  0.51100000000E-03 0.  1.
         11   -1    0    0    0    0 -0.00000000000E+00 -0.00000000000E+00 -0.45593999997E+02  0.45594000000E+02  0.51100000000E-03 0. -1.
    9900012    2    1    2    0    0  0.25133320561E+02 -0.10209372345E+02 -0.16757261864E+02  0.59301938605E+02  0.49999990111E+02 0.  0.
         12    1    1    2    0    0 -0.25133320561E+02  0.10209372345E+02  0.16757261864E+02  0.31886061395E+02  0.00000000000E+00 0. -1.
         11    1    3    3    0    0 -0.65640357159E+01 -0.13238916744E+01  0.54728258401E+01  0.86481834498E+01  0.51100000000E-03 0. -1.
        -11    1    3    3    0    0  0.11460359225E+02  0.61022531019E+01  0.46771086420E+01  0.13800459123E+02  0.51100000000E-03 0.  1.
         12    1    3    3    0    0  0.20236997052E+02 -0.14987733772E+02 -0.26907196346E+02  0.36853296033E+02  0.00000000000E+00 0. -1.
</event>
<event>
 7    1  0.5832130E-012  0.5930185E+02  0.7816164E-02  0.1266605E+00
        -11   -1    0    0    0    0  0.00000000000E+00  0.00000000000E+00  0.45593999997E+02  0.45594000000E+02  0.51100000000E-03 0.  1.
         11   -1    0    0    0    0 -0.00000000000E+00 -0.00000000000E+00 -0.45593999997E+02  0.45594000000E+02  0.51100000000E-03 0. -1.
    9900012    2    1    2    0    0  0.23261202413E+02 -0.45149276011E+01  0.21336791733E+02  0.59301846415E+02  0.49999821978E+02 0.  0.
         12    1    1    2    0    0 -0.23261202413E+02  0.45149276011E+01 -0.21336791733E+02  0.31886153585E+02  0.00000000000E+00 0. -1.
         11    1    3    3    0    0  0.58353019405E+01  0.13380079577E+01  0.19342927746E+02  0.20248206540E+02  0.51100000000E-03 0. -1.
        -11    1    3    3    0    0  0.18597033051E+02  0.65083900480E+01  0.12032475522E+02  0.23086559872E+02  0.51100000000E-03 0.  1.
         12    1    3    3    0    0 -0.11711325776E+01 -0.12361325607E+02 -0.10038611535E+02  0.15967080003E+02  0.00000000000E+00 0. -1.
</event>
<event>
 7    1  0.5832130E-012  0.5930195E+02  0.7816164E-02  0.1266605E+00
        -11   -1    0    0    0    0  0.00000000000E+00  0.00000000000E+00  0.45593999997E+02  0.45594000000E+02  0.51100000000E-03 0.  1.
         11   -1    0    0    0    0 -0.00000000000E+00 -0.00000000000E+00 -0.45593999997E+02  0.45594000000E+02  0.51100000000E-03 0. -1.
    9900012    2    1    2    0    0  0.10526881409E+02 -0.87228855485E+01  0.28806533456E+02  0.59301947653E+02  0.50000006612E+02 0.  0.
         12    1    1    2    0    0 -0.10526881409E+02  0.87228855485E+01 -0.28806533456E+02  0.31886052347E+02  0.00000000000E+00 0. -1.
         11    1    3    3    0    0 -0.68006535762E+01 -0.16236147407E+01  0.39196112006E+01  0.80155078514E+01  0.51100000000E-03 0. -1.
        -11    1    3    3    0    0  0.13328757617E+02  0.11495684703E+02  0.26914165173E+02  0.32158650992E+02  0.51100000000E-03 0.  1.
         12    1    3    3    0    0  0.39987773685E+01 -0.18594955511E+02 -0.20272429167E+01  0.19127788810E+02  0.00000000000E+00 0. -1.
</event>
<event>
 7    1  0.5832130E-012  0.5930193E+02  0.7816164E-02  0.1266605E+00
        -11   -1    0    0    0    0  0.00000000000E+00  0.00000000000E+00  0.45593999997E+02  0.45594000000E+02  0.51100000000E-03 0. -1.
         11   -1    0    0    0    0 -0.00000000000E+00 -0.00000000000E+00 -0.45593999997E+02  0.45594000000E+02  0.51100000000E-03 0.  1.
    9900012    2    1    2    0    0 -0.42558462896E+01 -0.30635768562E+02  0.77497495863E+01  0.59301934679E+02  0.49999982950E+02 0.  0.
         12    1    1    2    0    0  0.42558462896E+01  0.30635768562E+02 -0.77497495863E+01  0.31886065321E+02  0.00000000000E+00 0. -1.
         11    1    3    3    0    0 -0.14741713301E+02 -0.30623440474E+02  0.94321277322E+01  0.35271493466E+02  0.51100000000E-03 0. -1.
        -11    1    3    3    0    0  0.73755296610E+01 -0.88610550221E+01  0.49461520532E+01  0.12545164578E+02  0.51100000000E-03 0.  1.
        -12    1    3    3    0    0  0.31103373506E+01  0.88487269344E+01 -0.66285301991E+01  0.11485276635E+02  0.00000000000E+00 0.  1.
</event>
<event>
 7    1  0.5832130E-012  0.5930194E+02  0.7816164E-02  0.1266605E+00
        -11   -1    0    0    0    0  0.00000000000E+00  0.00000000000E+00  0.45593999997E+02  0.45594000000E+02  0.51100000000E-03 0.  1.
         11   -1    0    0    0    0 -0.00000000000E+00 -0.00000000000E+00 -0.45593999997E+02  0.45594000000E+02  0.51100000000E-03 0. -1.
    9900012    2    1    2    0    0  0.15780900662E+02 -0.23776408920E+02  0.14225558551E+02  0.59301937795E+02  0.49999988633E+02 0.  0.
         12    1    1    2    0    0 -0.15780900662E+02  0.23776408920E+02 -0.14225558551E+02  0.31886062205E+02  0.00000000000E+00 0. -1.
         11    1    3    3    0    0 -0.19827146942E+01 -0.24429755073E+02  0.48562898621E+01  0.24986549221E+02  0.51100000000E-03 0. -1.
        -11    1    3    3    0    0  0.10630420389E+02 -0.89519193794E+01  0.15544692397E+02  0.20851382693E+02  0.51100000000E-03 0.  1.
        -12    1    3    3    0    0  0.71331949676E+01  0.96052655328E+01 -0.61754237077E+01  0.13464005881E+02  0.00000000000E+00 0.  1.
</event>
<event>
 7    1  0.5832130E-012  0.5930194E+02  0.7816164E-02  0.1266605E+00
        -11   -1    0    0    0    0  0.00000000000E+00  0.00000000000E+00  0.45593999997E+02  0.45594000000E+02  0.51100000000E-03 0. -1.
         11   -1    0    0    0    0 -0.00000000000E+00 -0.00000000000E+00 -0.45593999997E+02  0.45594000000E+02  0.51100000000E-03 0.  1.
    9900012    2    1    2    0    0 -0.20641564345E+02  0.23170115896E+02 -0.73343347916E+01  0.59301938530E+02  0.49999989973E+02 0.  0.
         12    1    1    2    0    0  0.20641564345E+02 -0.23170115896E+02  0.73343347916E+01  0.31886061470E+02  0.00000000000E+00 0. -1.
         11    1    3    3    0    0 -0.87277753585E+01 -0.89129413345E+01  0.66206065998E+01  0.14122571223E+02  0.51100000000E-03 0. -1.
        -11    1    3    3    0    0 -0.99915142221E+01  0.77328564676E+01  0.56679656681E+01  0.13847500160E+02  0.51100000000E-03 0.  1.
         12    1    3    3    0    0 -0.19222747646E+01  0.24350200763E+02 -0.19622907060E+02  0.31331867147E+02  0.00000000000E+00 0. -1.
</event>
<event>
 7    1  0.6716006E-012  0.5930191E+02  0.7816164E-02  0.1266605E+00
        -11   -1    0    0    0    0  0.00000000000E+00  0.00000000000E+00  0.45593999997E+02  0.45594000000E+02  0.51100000000E-03 0. -1.
         11   -1    0    0    0    0 -0.00000000000E+00 -0.00000000000E+00 -0.45593999997E+02  0.45594000000E+02  0.51100000000E-03 0.  1.
    9900012    2    1    2    0    0 -0.12251806687E+02  0.54968366604E+01 -0.28920598426E+02  0.59301905951E+02  0.49999930557E+02 0.  0.
         12    1    1    2    0    0  0.12251806687E+02 -0.54968366604E+01  0.28920598426E+02  0.31886094049E+02  0.00000000000E+00 0. -1.
         11    1    3    3    0    0  0.71363192748E+01  0.27123331652E+01  0.61432185332E+01  0.97991294613E+01  0.51100000000E-03 0. -1.
        -11    1    3    3    0    0 -0.20478618753E+00 -0.11179089547E+02 -0.12282549698E+02  0.16609485478E+02  0.51100000000E-03 0.  1.
        -12    1    3    3    0    0 -0.19183339774E+02  0.13963593043E+02 -0.22781267262E+02  0.32893291012E+02  0.00000000000E+00 0.  1.
</event>
<event>
 7    1  0.5832130E-012  0.5930201E+02  0.7816164E-02  0.1266605E+00
        -11   -1    0    0    0    0  0.00000000000E+00  0.00000000000E+00  0.45593999997E+02  0.45594000000E+02  0.51100000000E-03 0.  1.
         11   -1    0    0    0    0 -0.00000000000E+00 -0.00000000000E+00 -0.45593999997E+02  0.45594000000E+02  0.51100000000E-03 0. -1.
    9900012    2    1    2    0    0 -0.13067166743E+02  0.19957110006E+02  0.21158430307E+02  0.59302011548E+02  0.50000123141E+02 0.  0.
         12    1    1    2    0    0  0.13067166743E+02 -0.19957110006E+02 -0.21158430307E+02  0.31885988452E+02  0.00000000000E+00 0. -1.
         11    1    3    3    0    0  0.43742782329E+01  0.14592946605E+02  0.17631780882E+01  0.15336140254E+02  0.51100000000E-03 0. -1.
        -11    1    3    3    0    0 -0.13411229639E+02  0.14816140622E+02  0.25201482985E+02  0.32163548440E+02  0.51100000000E-03 0.  1.
         12    1    3    3    0    0 -0.40302153376E+01 -0.94519772209E+01 -0.58062307655E+01  0.11802322854E+02  0.00000000000E+00 0. -1.
</event>
<event>
 7    1  0.5832130E-012  0.5930196E+02  0.7816164E-02  0.1266605E+00
        -11   -1    0    0    0    0  0.00000000000E+00  0.00000000000E+00  0.45593999997E+02  0.45594000000E+02  0.51100000000E-03 0.  1.
         11   -1    0    0    0    0 -0.00000000000E+00 -0.00000000000E+00 -0.45593999997E+02  0.45594000000E+02  0.51100000000E-03 0. -1.
    9900012    2    1    2    0    0  0.23693558094E+02 -0.10299058156E+02  0.18688611938E+02  0.59301960574E+02  0.50000030177E+02 0.  0.
         12    1    1    2    0    0 -0.23693558094E+02  0.10299058156E+02 -0.18688611938E+02  0.31886039426E+02  0.00000000000E+00 0. -1.
         11    1    3    3    0    0 -0.87395259396E+00  0.52788908411E+01  0.17181012003E+02  0.17994934159E+02  0.51100000000E-03 0. -1.
        -11    1    3    3    0    0  0.15577559035E+02 -0.20018538499E+00  0.12845732727E+02  0.20191910985E+02  0.51100000000E-03 0.  1.
         12    1    3    3    0    0  0.89899516530E+01 -0.15377763613E+02 -0.11338132792E+02  0.21115115431E+02  0.00000000000E+00 0. -1.
</event>
<event>
 7    1  0.5832130E-012  0.5930193E+02  0.7816164E-02  0.1266605E+00
        -11   -1    0    0    0    0  0.00000000000E+00  0.00000000000E+00  0.45593999997E+02  0.45594000000E+02  0.51100000000E-03 0. -1.
         11   -1    0    0    0    0 -0.00000000000E+00 -0.00000000000E+00 -0.45593999997E+02  0.45594000000E+02  0.51100000000E-03 0.  1.
    9900012    2    1    2    0    0 -0.19411653377E+01 -0.32365367569E+01 -0.31661939202E+02  0.59301926440E+02  0.49999967925E+02 0.  0.
         12    1    1    2    0    0  0.19411653377E+01  0.32365367569E+01  0.31661939202E+02  0.31886073560E+02  0.00000000000E+00 0. -1.
         11    1    3    3    0    0 -0.14845446053E+02  0.49693966183E+01 -0.72873171991E+01  0.17268096695E+02  0.51100000000E-03 0. -1.
        -11    1    3    3    0    0 -0.46404688545E+01 -0.26875805839E+01  0.50290456147E+01  0.73517576566E+01  0.51100000000E-03 0.  1.
        -12    1    3    3    0    0  0.17544749570E+02 -0.55183527913E+01 -0.29403667617E+02  0.34682072088E+02  0.00000000000E+00 0.  1.
</event>
<event>
 7    1  0.5832130E-012  0.5930194E+02  0.7816164E-02  0.1266605E+00
        -11   -1    0    0    0    0  0.00000000000E+00  0.00000000000E+00  0.45593999997E+02  0.45594000000E+02  0.51100000000E-03 0.  1.
         11   -1    0    0    0    0 -0.00000000000E+00 -0.00000000000E+00 -0.45593999997E+02  0.45594000000E+02  0.51100000000E-03 0. -1.
    9900012    2    1    2    0    0 -0.18519268419E+01 -0.15052826774E+02  0.28048238996E+02  0.59301938191E+02  0.49999989356E+02 0.  0.
         12    1    1    2    0    0  0.18519268419E+01  0.15052826774E+02 -0.28048238996E+02  0.31886061809E+02  0.00000000000E+00 0. -1.
         11    1    3    3    0    0 -0.14137106085E+01 -0.99914549062E+01 -0.18517306772E+01  0.10259466633E+02  0.51100000000E-03 0.  1.
        -11    1    3    3    0    0 -0.41576897033E+01  0.85151523190E+01 -0.54929300638E+01  0.10952921237E+02  0.51100000000E-03 0. -1.
        -12    1    3    3    0    0  0.37194734699E+01 -0.13576524187E+02  0.35392899737E+02  0.38089550321E+02  0.00000000000E+00 0.  1.
</event>
<event>
 7    1  0.5832130E-012  0.5930203E+02  0.7816164E-02  0.1266604E+00
        -11   -1    0    0    0    0  0.00000000000E+00  0.00000000000E+00  0.45593999997E+02  0.45594000000E+02  0.51100000000E-03 0.  1.
         11   -1    0    0    0    0 -0.00000000000E+00 -0.00000000000E+00 -0.45593999997E+02  0.45594000000E+02  0.51100000000E-03 0. -1.
    9900012    2    1    2    0    0 -0.26079118512E+02  0.14958979163E+02 -0.10621847668E+02  0.59302029295E+02  0.50000155506E+02 0.  0.
         12    1    1    2    0    0  0.26079118512E+02 -0.14958979163E+02  0.10621847668E+02  0.31885970705E+02  0.00000000000E+00 0. -1.
         11    1    3    3    0    0  0.87148836812E+01  0.11219900084E+02 -0.40163363660E+01  0.14763682248E+02  0.51100000000E-03 0. -1.
        -11    1    3    3    0    0 -0.19216927118E+02  0.15348622232E+02 -0.44229682056E+01  0.24988660233E+02  0.51100000000E-03 0.  1.
         12    1    3    3    0    0 -0.15577075075E+02 -0.11609543153E+02 -0.21825430968E+01  0.19549686813E+02  0.00000000000E+00 0. -1.
</event>
<event>
 7    1  0.5832130E-012  0.5930193E+02  0.7816164E-02  0.1266605E+00
        -11   -1    0    0    0    0  0.00000000000E+00  0.00000000000E+00  0.45593999997E+02  0.45594000000E+02  0.51100000000E-03 0. -1.
         11   -1    0    0    0    0 -0.00000000000E+00 -0.00000000000E+00 -0.45593999997E+02  0.45594000000E+02  0.51100000000E-03 0.  1.
    9900012    2    1    2    0    0  0.42238421347E+01  0.80800699198E+00 -0.31594743066E+02  0.59301929262E+02  0.49999973071E+02 0.  0.
         12    1    1    2    0    0 -0.42238421347E+01 -0.80800699198E+00  0.31594743066E+02  0.31886070738E+02  0.00000000000E+00 0. -1.
         11    1    3    3    0    0  0.85462027413E+01  0.16307491248E+02 -0.77146300599E+01  0.19962148415E+02  0.51100000000E-03 0. -1.
        -11    1    3    3    0    0  0.16808921304E+01  0.46344601788E+01 -0.16259668951E+02  0.16990598994E+02  0.51100000000E-03 0.  1.
         12    1    3    3    0    0 -0.60032527370E+01 -0.20133944435E+02 -0.76204440552E+01  0.22349181854E+02  0.00000000000E+00 0. -1.
</event>
<event>
 7    1  0.5832130E-012  0.5930193E+02  0.7816164E-02  0.1266605E+00
        -11   -1    0    0    0    0  0.00000000000E+00  0.00000000000E+00  0.45593999997E+02  0.45594000000E+02  0.51100000000E-03 0.  1.
         11   -1    0    0    0    0 -0.00000000000E+00 -0.00000000000E+00 -0.45593999997E+02  0.45594000000E+02  0.51100000000E-03 0. -1.
    9900012    2    1    2    0    0  0.59196097861E+01 -0.22896636133E+02  0.21387463195E+02  0.59301932382E+02  0.49999978761E+02 0.  0.
         12    1    1    2    0    0 -0.59196097861E+01  0.22896636133E+02 -0.21387463195E+02  0.31886067618E+02  0.00000000000E+00 0. -1.
         11    1    3    3    0    0 -0.41940882005E+01  0.64320773285E+01 -0.62728259178E+00  0.77042506647E+01  0.51100000000E-03 0. -1.
        -11    1    3    3    0    0 -0.10747937655E+02 -0.11495355810E+01  0.94363085577E+01  0.14348641585E+02  0.51100000000E-03 0.  1.
        -12    1    3    3    0    0  0.20861635642E+02 -0.28179177880E+02  0.12578437229E+02  0.37249040132E+02  0.00000000000E+00 0.  1.
</event>
<event>
 7    1  0.5832130E-012  0.5930172E+02  0.7816164E-02  0.1266606E+00
        -11   -1    0    0    0    0  0.00000000000E+00  0.00000000000E+00  0.45593999997E+02  0.45594000000E+02  0.51100000000E-03 0.  1.
         11   -1    0    0    0    0 -0.00000000000E+00 -0.00000000000E+00 -0.45593999997E+02  0.45594000000E+02  0.51100000000E-03 0. -1.
    9900012    2    1    2    0    0 -0.24307878389E+02 -0.40723447921E+01  0.20230615160E+02  0.59301721860E+02  0.49999594818E+02 0.  0.
         12    1    1    2    0    0  0.24307878389E+02  0.40723447921E+01 -0.20230615160E+02  0.31886278140E+02  0.00000000000E+00 0. -1.
         11    1    3    3    0    0 -0.63088975038E+01  0.18067084893E+02  0.43804489955E+01  0.19631863842E+02  0.51100000000E-03 0. -1.
        -11    1    3    3    0    0 -0.13306236332E+02 -0.16952520757E+01  0.58137859452E-01  0.13413917594E+02  0.51100000000E-03 0.  1.
         12    1    3    3    0    0 -0.46927445527E+01 -0.20444177610E+02  0.15792028305E+02  0.26255940424E+02  0.00000000000E+00 0. -1.
</event>
<event>
 7    1  0.5832130E-012  0.5930192E+02  0.7816164E-02  0.1266605E+00
        -11   -1    0    0    0    0  0.00000000000E+00  0.00000000000E+00  0.45593999997E+02  0.45594000000E+02  0.51100000000E-03 0. -1.
         11   -1    0    0    0    0 -0.00000000000E+00 -0.00000000000E+00 -0.45593999997E+02  0.45594000000E+02  0.51100000000E-03 0.  1.
    9900012    2    1    2    0    0  0.19530130744E+02 -0.17010381379E+02 -0.18599551258E+02  0.59301915441E+02  0.49999947864E+02 0.  0.
         12    1    1    2    0    0 -0.19530130744E+02  0.17010381379E+02  0.18599551258E+02  0.31886084559E+02  0.00000000000E+00 0. -1.
         11    1    3    3    0    0  0.45419624982E+01 -0.15917374323E+01 -0.40941811184E+01  0.63186526000E+01  0.51100000000E-03 0. -1.
        -11    1    3    3    0    0 -0.85956131680E+01 -0.15926097821E+02 -0.21761253751E+02  0.28303309393E+02  0.51100000000E-03 0.  1.
         12    1    3    3    0    0  0.23583781413E+02  0.50745387442E+00  0.72558836108E+01  0.24679953447E+02  0.00000000000E+00 0. -1.
</event>
<event>
 7    1  0.5832130E-012  0.5930194E+02  0.7816164E-02  0.1266605E+00
        -11   -1    0    0    0    0  0.00000000000E+00  0.00000000000E+00  0.45593999997E+02  0.45594000000E+02  0.51100000000E-03 0.  1.
         11   -1    0    0    0    0 -0.00000000000E+00 -0.00000000000E+00 -0.45593999997E+02  0.45594000000E+02  0.51100000000E-03 0. -1.
    9900012    2    1    2    0    0  0.16534319930E+02 -0.24781056597E+02  0.11368224152E+02  0.59301936869E+02  0.49999986944E+02 0.  0.
         12    1    1    2    0    0 -0.16534319930E+02  0.24781056597E+02 -0.11368224152E+02  0.31886063131E+02  0.00000000000E+00 0. -1.
         11    1    3    3    0    0  0.37364028472E+01  0.54357491754E+01 -0.14635001772E+02  0.16052767751E+02  0.51100000000E-03 0. -1.
        -11    1    3    3    0    0  0.10639696796E+02 -0.11687063541E+02  0.10300629956E+02  0.18865141926E+02  0.51100000000E-03 0.  1.
        -12    1    3    3    0    0  0.21582202866E+01 -0.18529742231E+02  0.15702595968E+02  0.24384027192E+02  0.00000000000E+00 0.  1.
</event>
<event>
 7    1  0.5832130E-012  0.5930193E+02  0.7816164E-02  0.1266605E+00
        -11   -1    0    0    0    0  0.00000000000E+00  0.00000000000E+00  0.45593999997E+02  0.45594000000E+02  0.51100000000E-03 0. -1.
         11   -1    0    0    0    0 -0.00000000000E+00 -0.00000000000E+00 -0.45593999997E+02  0.45594000000E+02  0.51100000000E-03 0.  1.
    9900012    2    1    2    0    0 -0.10507254937E+02 -0.29880716979E+02 -0.36689974768E+01  0.59301934141E+02  0.49999981969E+02 0.  0.
         12    1    1    2    0    0  0.10507254937E+02  0.29880716979E+02  0.36689974768E+01  0.31886065859E+02  0.00000000000E+00 0. -1.
         11    1    3    3    0    0  0.49418696494E+01  0.50426387762E+01 -0.29539062910E+01  0.76534857481E+01  0.51100000000E-03 0. -1.
        -11    1    3    3    0    0  0.58673659412E+01 -0.24160925296E+02 -0.88958401822E+01  0.26406670882E+02  0.51100000000E-03 0.  1.
        -12    1    3    3    0    0 -0.21316490528E+02 -0.10762430459E+02  0.81807489964E+01  0.25241777511E+02  0.00000000000E+00 0.  1.
</event>
<event>
 7    1  0.5832130E-012  0.5930193E+02  0.7816164E-02  0.1266605E+00
        -11   -1    0    0    0    0  0.00000000000E+00  0.00000000000E+00  0.45593999997E+02  0.45594000000E+02  0.51100000000E-03 0. -1.
         11   -1    0    0    0    0 -0.00000000000E+00 -0.00000000000E+00 -0.45593999997E+02  0.45594000000E+02  0.51100000000E-03 0.  1.
    9900012    2    1    2    0    0  0.93631635077E+00  0.29136619776E+02 -0.12919073117E+02  0.59301925446E+02  0.49999966111E+02 0.  0.
         12    1    1    2    0    0 -0.93631635077E+00 -0.29136619776E+02  0.12919073117E+02  0.31886074554E+02  0.00000000000E+00 0. -1.
         11    1    3    3    0    0 -0.68067616276E+01  0.11414662809E+02  0.26919755048E+01  0.13559987584E+02  0.51100000000E-03 0. -1.
        -11    1    3    3    0    0 -0.14316032130E+02  0.84705323959E+01 -0.14044189386E+02  0.21770116003E+02  0.51100000000E-03 0.  1.
        -12    1    3    3    0    0  0.22059110108E+02  0.92514245710E+01 -0.15668592358E+01  0.23971821859E+02  0.00000000000E+00 0.  1.
</event>
<event>
 7    1  0.5832130E-012  0.5930194E+02  0.7816164E-02  0.1266605E+00
        -11   -1    0    0    0    0  0.00000000000E+00  0.00000000000E+00  0.45593999997E+02  0.45594000000E+02  0.51100000000E-03 0. -1.
         11   -1    0    0    0    0 -0.00000000000E+00 -0.00000000000E+00 -0.45593999997E+02  0.45594000000E+02  0.51100000000E-03 0.  1.
    9900012    2    1    2    0    0  0.31103711091E+02 -0.10790679490E+01  0.69365261805E+01  0.59301943068E+02  0.49999998249E+02 0.  0.
         12    1    1    2    0    0 -0.31103711091E+02  0.10790679490E+01 -0.69365261805E+01  0.31886056932E+02  0.00000000000E+00 0. -1.
         11    1    3    3    0    0 -0.38985663538E+00 -0.31064531782E+01  0.71489425894E+01  0.78044487282E+01  0.51100000000E-03 0. -1.
        -11    1    3    3    0    0  0.15786383190E+02 -0.16944908426E+02 -0.96925929313E+01  0.25105500867E+02  0.51100000000E-03 0.  1.
        -12    1    3    3    0    0  0.15707184536E+02  0.18972293655E+02  0.94801765224E+01  0.26391993473E+02  0.00000000000E+00 0.  1.
</event>
<event>
 7    1  0.5832130E-012  0.5930196E+02  0.7816164E-02  0.1266605E+00
        -11   -1    0    0    0    0  0.00000000000E+00  0.00000000000E+00  0.45593999997E+02  0.45594000000E+02  0.51100000000E-03 0.  1.
         11   -1    0    0    0    0 -0.00000000000E+00 -0.00000000000E+00 -0.45593999997E+02  0.45594000000E+02  0.51100000000E-03 0. -1.
    9900012    2    1    2    0    0  0.17352118588E+02 -0.24605907530E+02  0.10496334196E+02  0.59301957028E+02  0.50000023709E+02 0.  0.
         12    1    1    2    0    0 -0.17352118588E+02  0.24605907530E+02 -0.10496334196E+02  0.31886042972E+02  0.00000000000E+00 0. -1.
         11    1    3    3    0    0  0.20943751284E+02 -0.94394745205E+01 -0.14803231315E+01  0.23020333488E+02  0.51100000000E-03 0.  1.
        -11    1    3    3    0    0 -0.13486403000E+02 -0.18816477582E+02  0.51434836615E+01  0.23714938729E+02  0.51100000000E-03 0. -1.
         12    1    3    3    0    0  0.98947703044E+01  0.36500445728E+01  0.68331736665E+01  0.12566684810E+02  0.00000000000E+00 0. -1.
</event>
<event>
 7    1  0.5832130E-012  0.5930195E+02  0.7816164E-02  0.1266605E+00
        -11   -1    0    0    0    0  0.00000000000E+00  0.00000000000E+00  0.45593999997E+02  0.45594000000E+02  0.51100000000E-03 0.  1.
         11   -1    0    0    0    0 -0.00000000000E+00 -0.00000000000E+00 -0.45593999997E+02  0.45594000000E+02  0.51100000000E-03 0. -1.
    9900012    2    1    2    0    0 -0.10478702286E+02  0.23724699369E+02  0.18548744638E+02  0.59301945220E+02  0.50000002175E+02 0.  0.
         12    1    1    2    0    0  0.10478702286E+02 -0.23724699369E+02 -0.18548744638E+02  0.31886054780E+02  0.00000000000E+00 0. -1.
         11    1    3    3    0    0 -0.90121262653E+00 -0.89286319523E+01 -0.70687282861E+00  0.90017954984E+01  0.51100000000E-03 0. -1.
        -11    1    3    3    0    0 -0.15329311385E+02  0.12219927076E+02  0.21331357344E+02  0.28971386085E+02  0.51100000000E-03 0.  1.
        -12    1    3    3    0    0  0.57518217257E+01  0.20433404245E+02 -0.20757398780E+01  0.21328763637E+02  0.00000000000E+00 0.  1.
</event>
<event>
 7    1  0.5832130E-012  0.5930194E+02  0.7816164E-02  0.1266605E+00
        -11   -1    0    0    0    0  0.00000000000E+00  0.00000000000E+00  0.45593999997E+02  0.45594000000E+02  0.51100000000E-03 0.  1.
         11   -1    0    0    0    0 -0.00000000000E+00 -0.00000000000E+00 -0.45593999997E+02  0.45594000000E+02  0.51100000000E-03 0. -1.
    9900012    2    1    2    0    0 -0.30554862039E+02  0.57661019544E+01  0.70620909644E+01  0.59301942627E+02  0.49999997446E+02 0.  0.
         12    1    1    2    0    0  0.30554862039E+02 -0.57661019544E+01 -0.70620909644E+01  0.31886057373E+02  0.00000000000E+00 0. -1.
         11    1    3    3    0    0 -0.79577600851E+01 -0.14054525325E+02 -0.85445926287E+01  0.18271991986E+02  0.51100000000E-03 0. -1.
        -11    1    3    3    0    0 -0.23033329006E+02  0.56457424929E+01  0.87514231556E+01  0.25278371405E+02  0.51100000000E-03 0.  1.
        -12    1    3    3    0    0  0.43622705135E+00  0.14174884787E+02  0.68552604375E+01  0.15751579236E+02  0.00000000000E+00 0.  1.
</event>
<event>
 7    1  0.5832130E-012  0.5930196E+02  0.7816164E-02  0.1266605E+00
        -11   -1    0    0    0    0  0.00000000000E+00  0.00000000000E+00  0.45593999997E+02  0.45594000000E+02  0.51100000000E-03 0.  1.
         11   -1    0    0    0    0 -0.00000000000E+00 -0.00000000000E+00 -0.45593999997E+02  0.45594000000E+02  0.51100000000E-03 0. -1.
    9900012    2    1    2    0    0 -0.19476460432E+02  0.24519164179E+02  0.60164661606E+01  0.59301956218E+02  0.50000022232E+02 0.  0.
         12    1    1    2    0    0  0.19476460432E+02 -0.24519164179E+02 -0.60164661606E+01  0.31886043782E+02  0.00000000000E+00 0. -1.
         11    1    3    3    0    0 -0.14661364074E+02  0.18467204907E+02  0.32211009934E+01  0.23798503009E+02  0.51100000000E-03 0. -1.
        -11    1    3    3    0    0 -0.92671368063E+00 -0.12058429205E+02  0.99355287262E+01  0.15651812817E+02  0.51100000000E-03 0.  1.
         12    1    3    3    0    0 -0.38883826773E+01  0.18110388476E+02 -0.71401635589E+01  0.19851640392E+02  0.00000000000E+00 0. -1.
</event>
<event>
 7    1  0.5832130E-012  0.5930182E+02  0.7816164E-02  0.1266605E+00
        -11   -1    0    0    0    0  0.00000000000E+00  0.00000000000E+00  0.45593999997E+02  0.45594000000E+02  0.51100000000E-03 0.  1.
         11   -1    0    0    0    0 -0.00000000000E+00 -0.00000000000E+00 -0.45593999997E+02  0.45594000000E+02  0.51100000000E-03 0. -1.
    9900012    2    1    2    0    0 -0.10637796437E+02 -0.29452435701E+02  0.60099479630E+01  0.59301824998E+02  0.49999782918E+02 0.  0.
         12    1    1    2    0    0  0.10637796437E+02  0.29452435701E+02 -0.60099479630E+01  0.31886175002E+02  0.00000000000E+00 0. -1.
         11    1    3    3    0    0 -0.15306186024E+02 -0.25645589646E+02 -0.50287167470E+01  0.30286359822E+02  0.51100000000E-03 0. -1.
        -11    1    3    3    0    0 -0.67996206565E+01 -0.33759389727E+01 -0.51486674955E+01  0.91728175748E+01  0.51100000000E-03 0.  1.
        -12    1    3    3    0    0  0.11468010244E+02 -0.43090708206E+00  0.16187332205E+02  0.19842647601E+02  0.00000000000E+00 0.  1.
</event>
<event>
 7    1  0.5832130E-012  0.5930195E+02  0.7816164E-02  0.1266605E+00
        -11   -1    0    0    0    0  0.00000000000E+00  0.00000000000E+00  0.45593999997E+02  0.45594000000E+02  0.51100000000E-03 0. -1.
         11   -1    0    0    0    0 -0.00000000000E+00 -0.00000000000E+00 -0.45593999997E+02  0.45594000000E+02  0.51100000000E-03 0.  1.
    9900012    2    1    2    0    0  0.23384604093E+02 -0.20392613232E+02  0.73499535092E+01  0.59301949765E+02  0.50000010463E+02 0.  0.
         12    1    1    2    0    0 -0.23384604093E+02  0.20392613232E+02 -0.73499535092E+01  0.31886050235E+02  0.00000000000E+00 0. -1.
         11    1    3    3    0    0  0.12900454605E+02 -0.16668208529E+02  0.71297600340E+01  0.22250491747E+02  0.51100000000E-03 0.  1.
        -11    1    3    3    0    0  0.14563316364E+02 -0.82565997368E+01 -0.13843141232E+02  0.21723125515E+02  0.51100000000E-03 0. -1.
         12    1    3    3    0    0 -0.40791668757E+01  0.45321950335E+01  0.14063334707E+02  0.15328332502E+02  0.00000000000E+00 0. -1.
</event>
<event>
 7    1  0.5832130E-012  0.5930192E+02  0.7816164E-02  0.1266605E+00
        -11   -1    0    0    0    0  0.00000000000E+00  0.00000000000E+00  0.45593999997E+02  0.45594000000E+02  0.51100000000E-03 0.  1.
         11   -1    0    0    0    0 -0.00000000000E+00 -0.00000000000E+00 -0.45593999997E+02  0.45594000000E+02  0.51100000000E-03 0. -1.
    9900012    2    1    2    0    0 -0.16638091950E+02 -0.21054843075E+02  0.17221777346E+02  0.59301919407E+02  0.49999955097E+02 0.  0.
         12    1    1    2    0    0  0.16638091950E+02  0.21054843075E+02 -0.17221777346E+02  0.31886080593E+02  0.00000000000E+00 0. -1.
         11    1    3    3    0    0 -0.18211835216E+02  0.16182855835E+01  0.17314304764E+02  0.25180844702E+02  0.51100000000E-03 0. -1.
        -11    1    3    3    0    0  0.67713183096E+01  0.32447292736E+01 -0.14707693362E+01  0.76512863239E+01  0.51100000000E-03 0.  1.
        -12    1    3    3    0    0 -0.51975750434E+01 -0.25917857933E+02  0.13782419178E+01  0.26469788381E+02  0.00000000000E+00 0.  1.
</event>
<event>
 7    1  0.5832130E-012  0.5930197E+02  0.7816164E-02  0.1266605E+00
        -11   -1    0    0    0    0  0.00000000000E+00  0.00000000000E+00  0.45593999997E+02  0.45594000000E+02  0.51100000000E-03 0. -1.
         11   -1    0    0    0    0 -0.00000000000E+00 -0.00000000000E+00 -0.45593999997E+02  0.45594000000E+02  0.51100000000E-03 0.  1.
    9900012    2    1    2    0    0  0.19461077763E+02  0.24101032862E+02 -0.75581657830E+01  0.59301965396E+02  0.50000038971E+02 0.  0.
         12    1    1    2    0    0 -0.19461077763E+02 -0.24101032862E+02  0.75581657830E+01  0.31886034604E+02  0.00000000000E+00 0. -1.
         11    1    3    3    0    0  0.63161424551E+01  0.93570831391E+01 -0.11394229281E+02  0.16039860397E+02  0.51100000000E-03 0. -1.
        -11    1    3    3    0    0  0.14889831587E+02 -0.63928199119E+01 -0.89358230048E+01  0.18504706541E+02  0.51100000000E-03 0.  1.
         12    1    3    3    0    0 -0.17448962789E+01  0.21136769635E+02  0.12771886502E+02  0.24757398459E+02  0.00000000000E+00 0. -1.
</event>
<event>
 7    1  0.5832130E-012  0.5930194E+02  0.7816164E-02  0.1266605E+00
        -11   -1    0    0    0    0  0.00000000000E+00  0.00000000000E+00  0.45593999997E+02  0.45594000000E+02  0.51100000000E-03 0.  1.
         11   -1    0    0    0    0 -0.00000000000E+00 -0.00000000000E+00 -0.45593999997E+02  0.45594000000E+02  0.51100000000E-03 0. -1.
    9900012    2    1    2    0    0 -0.10393983716E+01  0.27363738084E+02  0.16336049666E+02  0.59301936750E+02  0.49999986727E+02 0.  0.
         12    1    1    2    0    0  0.10393983716E+01 -0.27363738084E+02 -0.16336049666E+02  0.31886063250E+02  0.00000000000E+00 0. -1.
         11    1    3    3    0    0 -0.91007457613E+01  0.67891007804E+01  0.66482095253E+01  0.13157285167E+02  0.51100000000E-03 0. -1.
        -11    1    3    3    0    0  0.71655776015E+01  0.32149877084E+02  0.38900752885E+01  0.33167646659E+02  0.51100000000E-03 0.  1.
        -12    1    3    3    0    0  0.89576978812E+00 -0.11575239781E+02  0.57977648524E+01  0.12977004923E+02  0.00000000000E+00 0.  1.
</event>
<event>
 7    1  0.5832130E-012  0.5930195E+02  0.7816164E-02  0.1266605E+00
        -11   -1    0    0    0    0  0.00000000000E+00  0.00000000000E+00  0.45593999997E+02  0.45594000000E+02  0.51100000000E-03 0.  1.
         11   -1    0    0    0    0 -0.00000000000E+00 -0.00000000000E+00 -0.45593999997E+02  0.45594000000E+02  0.51100000000E-03 0. -1.
    9900012    2    1    2    0    0 -0.29706642776E+02  0.11382645002E+02  0.21611757911E+01  0.59301954258E+02  0.50000018658E+02 0.  0.
         12    1    1    2    0    0  0.29706642776E+02 -0.11382645002E+02 -0.21611757911E+01  0.31886045742E+02  0.00000000000E+00 0. -1.
         11    1    3    3    0    0 -0.26376178980E+02  0.28894799520E+02  0.14007570111E+01  0.39148108222E+02  0.51100000000E-03 0.  1.
        -11    1    3    3    0    0 -0.29827897892E+01 -0.35312305565E+01 -0.31960412152E+01  0.56197245378E+01  0.51100000000E-03 0. -1.
        -12    1    3    3    0    0 -0.34767400641E+00 -0.13980923961E+02  0.39564599952E+01  0.14534121498E+02  0.00000000000E+00 0.  1.
</event>
<event>
 7    1  0.5832130E-012  0.5930194E+02  0.7816164E-02  0.1266605E+00
        -11   -1    0    0    0    0  0.00000000000E+00  0.00000000000E+00  0.45593999997E+02  0.45594000000E+02  0.51100000000E-03 0. -1.
         11   -1    0    0    0    0 -0.00000000000E+00 -0.00000000000E+00 -0.45593999997E+02  0.45594000000E+02  0.51100000000E-03 0.  1.
    9900012    2    1    2    0    0 -0.42284961828E+01 -0.65507454433E+00 -0.31597646553E+02  0.59301943952E+02  0.49999999862E+02 0.  0.
         12    1    1    2    0    0  0.42284961828E+01  0.65507454433E+00  0.31597646553E+02  0.31886056048E+02  0.00000000000E+00 0. -1.
         11    1    3    3    0    0  0.17848992647E+01  0.37729176679E+01  0.63682516149E+01  0.76141579972E+01  0.51100000000E-03 0. -1.
        -11    1    3    3    0    0 -0.14306076699E+02 -0.66523656068E+00 -0.18488327633E+01  0.14440379255E+02  0.51100000000E-03 0.  1.
        -12    1    3    3    0    0  0.82926812511E+01 -0.37627556516E+01 -0.36117065404E+02  0.37247406700E+02  0.00000000000E+00 0.  1.
</event>
<event>
 7    1  0.5832130E-012  0.5930215E+02  0.7816164E-02  0.1266604E+00
        -11   -1    0    0    0    0  0.00000000000E+00  0.00000000000E+00  0.45593999997E+02  0.45594000000E+02  0.51100000000E-03 0. -1.
         11   -1    0    0    0    0 -0.00000000000E+00 -0.00000000000E+00 -0.45593999997E+02  0.45594000000E+02  0.51100000000E-03 0.  1.
    9900012    2    1    2    0    0  0.27724616612E+02 -0.13990538809E+02  0.72330938957E+01  0.59302153771E+02  0.50000382519E+02 0.  0.
         12    1    1    2    0    0 -0.27724616612E+02  0.13990538809E+02 -0.72330938957E+01  0.31885846229E+02  0.00000000000E+00 0. -1.
         11    1    3    3    0    0  0.14921757420E+00  0.89536376629E+01 -0.63294751717E-01  0.89551046766E+01  0.51100000000E-03 0. -1.
        -11    1    3    3    0    0  0.28983669740E+02 -0.42251725187E+01 -0.20798420717E+01  0.29363769134E+02  0.51100000000E-03 0.  1.
         12    1    3    3    0    0 -0.14082707026E+01 -0.18719003954E+02  0.93762307192E+01  0.20983279960E+02  0.00000000000E+00 0. -1.
</event>
<event>
 7    1  0.5832130E-012  0.5930194E+02  0.7816164E-02  0.1266605E+00
        -11   -1    0    0    0    0  0.00000000000E+00  0.00000000000E+00  0.45593999997E+02  0.45594000000E+02  0.51100000000E-03 0.  1.
         11   -1    0    0    0    0 -0.00000000000E+00 -0.00000000000E+00 -0.45593999997E+02  0.45594000000E+02  0.51100000000E-03 0. -1.
    9900012    2    1    2    0    0  0.22720913872E+02 -0.30380341595E+01  0.22164189135E+02  0.59301939429E+02  0.49999991613E+02 0.  0.
         12    1    1    2    0    0 -0.22720913872E+02  0.30380341595E+01 -0.22164189135E+02  0.31886060571E+02  0.00000000000E+00 0. -1.
         11    1    3    3    0    0  0.97632683206E+01  0.12657539225E+02 -0.38523997479E+01  0.16443104683E+02  0.51100000000E-03 0. -1.
        -11    1    3    3    0    0 -0.63613987041E+01 -0.54882340737E+00 -0.87785395934E+00  0.64450933616E+01  0.51100000000E-03 0.  1.
        -12    1    3    3    0    0  0.19319044255E+02 -0.15146749977E+02  0.26894442843E+02  0.36413741384E+02  0.00000000000E+00 0.  1.
</event>
<event>
 7    1  0.5832130E-012  0.5930193E+02  0.7816164E-02  0.1266605E+00
        -11   -1    0    0    0    0  0.00000000000E+00  0.00000000000E+00  0.45593999997E+02  0.45594000000E+02  0.51100000000E-03 0. -1.
         11   -1    0    0    0    0 -0.00000000000E+00 -0.00000000000E+00 -0.45593999997E+02  0.45594000000E+02  0.51100000000E-03 0.  1.
    9900012    2    1    2    0    0  0.28556114753E+02  0.14139282695E+02  0.11621052388E+01  0.59301929475E+02  0.49999973459E+02 0.  0.
         12    1    1    2    0    0 -0.28556114753E+02 -0.14139282695E+02 -0.11621052388E+01  0.31886070525E+02  0.00000000000E+00 0. -1.
         11    1    3    3    0    0  0.66014659411E+01  0.10665285402E+02  0.55834734661E+01  0.13729633698E+02  0.51100000000E-03 0. -1.
        -11    1    3    3    0    0  0.30809006270E+02  0.37885411330E+01 -0.12612998779E+02  0.33505755472E+02  0.51100000000E-03 0.  1.
         12    1    3    3    0    0 -0.88543574583E+01 -0.31454383968E+00  0.81916305518E+01  0.12066540305E+02  0.00000000000E+00 0. -1.
</event>
<event>
 7    1  0.5832130E-012  0.5930193E+02  0.7816164E-02  0.1266605E+00
        -11   -1    0    0    0    0  0.00000000000E+00  0.00000000000E+00  0.45593999997E+02  0.45594000000E+02  0.51100000000E-03 0. -1.
         11   -1    0    0    0    0 -0.00000000000E+00 -0.00000000000E+00 -0.45593999997E+02  0.45594000000E+02  0.51100000000E-03 0.  1.
    9900012    2    1    2    0    0  0.19770321735E+02 -0.10119397246E+02  0.22879108978E+02  0.59301930162E+02  0.49999974712E+02 0.  0.
         12    1    1    2    0    0 -0.19770321735E+02  0.10119397246E+02 -0.22879108978E+02  0.31886069838E+02  0.00000000000E+00 0. -1.
         11    1    3    3    0    0 -0.38091353800E+01 -0.13281300482E+02  0.19841651817E+01  0.13958487259E+02  0.51100000000E-03 0. -1.
        -11    1    3    3    0    0  0.15398526395E+02  0.36719069346E+01 -0.62262204624E+01  0.17010683031E+02  0.51100000000E-03 0.  1.
        -12    1    3    3    0    0  0.81809307199E+01 -0.51000369873E+00  0.27121164258E+02  0.28332759871E+02  0.00000000000E+00 0.  1.
</event>
<event>
 7    1  0.5832130E-012  0.5930193E+02  0.7816164E-02  0.1266605E+00
        -11   -1    0    0    0    0  0.00000000000E+00  0.00000000000E+00  0.45593999997E+02  0.45594000000E+02  0.51100000000E-03 0.  1.
         11   -1    0    0    0    0 -0.00000000000E+00 -0.00000000000E+00 -0.45593999997E+02  0.45594000000E+02  0.51100000000E-03 0. -1.
    9900012    2    1    2    0    0  0.19114183995E+02 -0.27244933461E+01  0.25376101502E+02  0.59301930609E+02  0.49999975527E+02 0.  0.
         12    1    1    2    0    0 -0.19114183995E+02  0.27244933461E+01 -0.25376101502E+02  0.31886069391E+02  0.00000000000E+00 0. -1.
         11    1    3    3    0    0  0.52578376145E+01  0.60875358731E+01  0.31861849235E+01  0.86518624593E+01  0.51100000000E-03 0. -1.
        -11    1    3    3    0    0 -0.90004788892E+01  0.98586082660E+01  0.15372696501E+02  0.20359778367E+02  0.51100000000E-03 0.  1.
         12    1    3    3    0    0  0.22856825270E+02 -0.18670637485E+02  0.68172200777E+01  0.30290289783E+02  0.00000000000E+00 0. -1.
</event>
<event>
 7    1  0.5832130E-012  0.5930192E+02  0.7816164E-02  0.1266605E+00
        -11   -1    0    0    0    0  0.00000000000E+00  0.00000000000E+00  0.45593999997E+02  0.45594000000E+02  0.51100000000E-03 0.  1.
         11   -1    0    0    0    0 -0.00000000000E+00 -0.00000000000E+00 -0.45593999997E+02  0.45594000000E+02  0.51100000000E-03 0. -1.
    9900012    2    1    2    0    0  0.22772915028E+02  0.59903010489E+01  0.21499600126E+02  0.59301918850E+02  0.49999954082E+02 0.  0.
         12    1    1    2    0    0 -0.22772915028E+02 -0.59903010489E+01 -0.21499600126E+02  0.31886081150E+02  0.00000000000E+00 0. -1.
         11    1    3    3    0    0 -0.11799111848E+01  0.90126842152E+01 -0.60253929074E+01  0.10905321046E+02  0.51100000000E-03 0. -1.
        -11    1    3    3    0    0  0.10540558051E+02  0.11788927388E+02  0.19386262346E+01  0.15932370976E+02  0.51100000000E-03 0.  1.
        -12    1    3    3    0    0  0.13412268162E+02 -0.14811310554E+02  0.25586366798E+02  0.32464226828E+02  0.00000000000E+00 0.  1.
</event>
<event>
 7    1  0.5832130E-012  0.5930194E+02  0.7816164E-02  0.1266605E+00
        -11   -1    0    0    0    0  0.00000000000E+00  0.00000000000E+00  0.45593999997E+02  0.45594000000E+02  0.51100000000E-03 0.  1.
         11   -1    0    0    0    0 -0.00000000000E+00 -0.00000000000E+00 -0.45593999997E+02  0.45594000000E+02  0.51100000000E-03 0. -1.
    9900012    2    1    2    0    0  0.29351630500E+01 -0.24712559646E+02  0.19934761746E+02  0.59301944862E+02  0.50000001522E+02 0.  0.
         12    1    1    2    0    0 -0.29351630500E+01  0.24712559646E+02 -0.19934761746E+02  0.31886055138E+02  0.00000000000E+00 0. -1.
         11    1    3    3    0    0 -0.31192366914E+01  0.19581910301E+01  0.10934836946E+01  0.38418558665E+01  0.51100000000E-03 0. -1.
        -11    1    3    3    0    0  0.17320634877E+02  0.52371833221E+01  0.90586015284E+01  0.20235877634E+02  0.51100000000E-03 0.  1.
        -12    1    3    3    0    0 -0.11266235136E+02 -0.31907933998E+02  0.97826765225E+01  0.35224211362E+02  0.00000000000E+00 0.  1.
</event>
<event>
 7    1  0.5832130E-012  0.5930188E+02  0.7816164E-02  0.1266605E+00
        -11   -1    0    0    0    0  0.00000000000E+00  0.00000000000E+00  0.45593999997E+02  0.45594000000E+02  0.51100000000E-03 0. -1.
         11   -1    0    0    0    0 -0.00000000000E+00 -0.00000000000E+00 -0.45593999997E+02  0.45594000000E+02  0.51100000000E-03 0.  1.
    9900012    2    1    2    0    0  0.29741216942E+02  0.19367840790E+01  0.11332861636E+02  0.59301876519E+02  0.49999876880E+02 0.  0.
         12    1    1    2    0    0 -0.29741216942E+02 -0.19367840790E+01 -0.11332861636E+02  0.31886123481E+02  0.00000000000E+00 0. -1.
         11    1    3    3    0    0  0.16892414445E+02  0.35250332748E+01  0.54003000673E+01  0.18081558739E+02  0.51100000000E-03 0. -1.
        -11    1    3    3    0    0  0.13062648880E+02  0.16451904053E+02 -0.27712795535E+01  0.21189099400E+02  0.51100000000E-03 0.  1.
         12    1    3    3    0    0 -0.21384638282E+00 -0.18040153249E+02  0.87038411226E+01  0.20031218380E+02  0.00000000000E+00 0. -1.
</event>
<event>
 7    1  0.5832130E-012  0.5930193E+02  0.7816164E-02  0.1266605E+00
        -11   -1    0    0    0    0  0.00000000000E+00  0.00000000000E+00  0.45593999997E+02  0.45594000000E+02  0.51100000000E-03 0. -1.
         11   -1    0    0    0    0 -0.00000000000E+00 -0.00000000000E+00 -0.45593999997E+02  0.45594000000E+02  0.51100000000E-03 0.  1.
    9900012    2    1    2    0    0 -0.14739488538E+02 -0.66713533613E+01 -0.27476574014E+02  0.59301927843E+02  0.49999970483E+02 0.  0.
         12    1    1    2    0    0  0.14739488538E+02  0.66713533613E+01  0.27476574014E+02  0.31886072157E+02  0.00000000000E+00 0. -1.
         11    1    3    3    0    0 -0.18367715713E+02 -0.12024539008E+02 -0.18908225778E+02  0.28973842017E+02  0.51100000000E-03 0.  1.
        -11    1    3    3    0    0  0.23374767111E+01 -0.88472549484E+01  0.51845404099E+01  0.10517470086E+02  0.51100000000E-03 0. -1.
         12    1    3    3    0    0  0.12907504640E+01  0.14200440596E+02 -0.13752888646E+02  0.19810615739E+02  0.00000000000E+00 0. -1.
</event>
<event>
 7    1  0.5832130E-012  0.5930193E+02  0.7816164E-02  0.1266605E+00
        -11   -1    0    0    0    0  0.00000000000E+00  0.00000000000E+00  0.45593999997E+02  0.45594000000E+02  0.51100000000E-03 0.  1.
         11   -1    0    0    0    0 -0.00000000000E+00 -0.00000000000E+00 -0.45593999997E+02  0.45594000000E+02  0.51100000000E-03 0. -1.
    9900012    2    1    2    0    0  0.98364341639E+01 -0.19231028431E+02  0.23454922328E+02  0.59301932933E+02  0.49999979766E+02 0.  0.
         12    1    1    2    0    0 -0.98364341639E+01  0.19231028431E+02 -0.23454922328E+02  0.31886067067E+02  0.00000000000E+00 0. -1.
         11    1    3    3    0    0  0.11168336120E-01  0.11194174524E+02  0.17958850411E+01  0.11337322054E+02  0.51100000000E-03 0. -1.
        -11    1    3    3    0    0  0.19489352433E+02 -0.23439252853E+02  0.18386175592E+02  0.35598945009E+02  0.51100000000E-03 0.  1.
         12    1    3    3    0    0 -0.96640866055E+01 -0.69859501019E+01  0.32728616954E+01  0.12365665871E+02  0.00000000000E+00 0. -1.
</event>
<event>
 7    1  0.5832130E-012  0.5930185E+02  0.7816164E-02  0.1266605E+00
        -11   -1    0    0    0    0  0.00000000000E+00  0.00000000000E+00  0.45593999997E+02  0.45594000000E+02  0.51100000000E-03 0.  1.
         11   -1    0    0    0    0 -0.00000000000E+00 -0.00000000000E+00 -0.45593999997E+02  0.45594000000E+02  0.51100000000E-03 0. -1.
    9900012    2    1    2    0    0  0.95851182285E+00  0.17856636313E+02  0.26399784261E+02  0.59301846040E+02  0.49999821294E+02 0.  0.
         12    1    1    2    0    0 -0.95851182285E+00 -0.17856636313E+02 -0.26399784261E+02  0.31886153960E+02  0.00000000000E+00 0. -1.
         11    1    3    3    0    0 -0.66935193887E+01  0.55586905504E+01 -0.11960262654E+02  0.14790203699E+02  0.51100000000E-03 0. -1.
        -11    1    3    3    0    0 -0.93471484096E+00  0.65917217130E+01  0.23586975717E+01  0.70631396327E+01  0.51100000000E-03 0.  1.
        -12    1    3    3    0    0  0.85867460525E+01  0.57062240496E+01  0.36001349342E+02  0.37448502709E+02  0.00000000000E+00 0.  1.
</event>
<event>
 7    1  0.5832130E-012  0.5930200E+02  0.7816164E-02  0.1266605E+00
        -11   -1    0    0    0    0  0.00000000000E+00  0.00000000000E+00  0.45593999997E+02  0.45594000000E+02  0.51100000000E-03 0.  1.
         11   -1    0    0    0    0 -0.00000000000E+00 -0.00000000000E+00 -0.45593999997E+02  0.45594000000E+02  0.51100000000E-03 0. -1.
    9900012    2    1    2    0    0 -0.12834770590E+02  0.12057764460E+01  0.29163880040E+02  0.59301997869E+02  0.50000098193E+02 0.  0.
         12    1    1    2    0    0  0.12834770590E+02 -0.12057764460E+01 -0.29163880040E+02  0.31886002131E+02  0.00000000000E+00 0. -1.
         11    1    3    3    0    0 -0.45253764845E+01  0.89499512487E+01  0.46452262878E+01  0.11052546639E+02  0.51100000000E-03 0. -1.
        -11    1    3    3    0    0 -0.21443916079E+02 -0.25589192906E+01  0.26284367681E+02  0.34018488934E+02  0.51100000000E-03 0.  1.
         12    1    3    3    0    0  0.13134521973E+02 -0.51852555120E+01 -0.17657139289E+01  0.14230962296E+02  0.00000000000E+00 0. -1.
</event>
<event>
 7    1  0.5832130E-012  0.5930191E+02  0.7816164E-02  0.1266605E+00
        -11   -1    0    0    0    0  0.00000000000E+00  0.00000000000E+00  0.45593999997E+02  0.45594000000E+02  0.51100000000E-03 0.  1.
         11   -1    0    0    0    0 -0.00000000000E+00 -0.00000000000E+00 -0.45593999997E+02  0.45594000000E+02  0.51100000000E-03 0. -1.
    9900012    2    1    2    0    0  0.18565320121E+02  0.30098357873E+01  0.25748636945E+02  0.59301913266E+02  0.49999943899E+02 0.  0.
         12    1    1    2    0    0 -0.18565320121E+02 -0.30098357873E+01 -0.25748636945E+02  0.31886086734E+02  0.00000000000E+00 0. -1.
         11    1    3    3    0    0  0.27824811896E+02  0.28855940107E+01  0.27616325856E+02  0.39309137155E+02  0.51100000000E-03 0. -1.
        -11    1    3    3    0    0  0.16104027507E+01  0.50924976380E+01  0.40055017235E+01  0.66761496036E+01  0.51100000000E-03 0.  1.
         12    1    3    3    0    0 -0.10869894526E+02 -0.49682558614E+01 -0.58731906341E+01  0.13316626507E+02  0.00000000000E+00 0. -1.
</event>
<event>
 7    1  0.5832130E-012  0.5930189E+02  0.7816164E-02  0.1266605E+00
        -11   -1    0    0    0    0  0.00000000000E+00  0.00000000000E+00  0.45593999997E+02  0.45594000000E+02  0.51100000000E-03 0.  1.
         11   -1    0    0    0    0 -0.00000000000E+00 -0.00000000000E+00 -0.45593999997E+02  0.45594000000E+02  0.51100000000E-03 0. -1.
    9900012    2    1    2    0    0  0.18586351637E+02 -0.62053743682E+00  0.25901471715E+02  0.59301893764E+02  0.49999908331E+02 0.  0.
         12    1    1    2    0    0 -0.18586351637E+02  0.62053743682E+00 -0.25901471715E+02  0.31886106236E+02  0.00000000000E+00 0. -1.
         11    1    3    3    0    0  0.26153480314E+01 -0.15414116393E+02 -0.27752324089E+01  0.15878820633E+02  0.51100000000E-03 0. -1.
        -11    1    3    3    0    0 -0.59099286504E+01  0.69360085292E+01  0.10565158915E+02  0.13951991046E+02  0.51100000000E-03 0.  1.
         12    1    3    3    0    0  0.21880932256E+02  0.78575704274E+01  0.18111545209E+02  0.29471082085E+02  0.00000000000E+00 0. -1.
</event>
<event>
 7    1  0.5832130E-012  0.5930195E+02  0.7816164E-02  0.1266605E+00
        -11   -1    0    0    0    0  0.00000000000E+00  0.00000000000E+00  0.45593999997E+02  0.45594000000E+02  0.51100000000E-03 0.  1.
         11   -1    0    0    0    0 -0.00000000000E+00 -0.00000000000E+00 -0.45593999997E+02  0.45594000000E+02  0.51100000000E-03 0. -1.
    9900012    2    1    2    0    0  0.71437608446E+01 -0.95946025569E+01  0.29557236402E+02  0.59301953820E+02  0.50000017859E+02 0.  0.
         12    1    1    2    0    0 -0.71437608446E+01  0.95946025569E+01 -0.29557236402E+02  0.31886046180E+02  0.00000000000E+00 0. -1.
         11    1    3    3    0    0  0.49440000057E+01  0.56769029317E+01  0.16334230388E+01  0.77031444253E+01  0.51100000000E-03 0. -1.
        -11    1    3    3    0    0  0.17747208200E+02 -0.11807561146E+02  0.23166676249E+01  0.21441754785E+02  0.51100000000E-03 0.  1.
         12    1    3    3    0    0 -0.15547447361E+02 -0.34639443424E+01  0.25607145739E+02  0.30157054610E+02  0.00000000000E+00 0. -1.
</event>
<event>
 7    1  0.5832130E-012  0.5930193E+02  0.7816164E-02  0.1266605E+00
        -11   -1    0    0    0    0  0.00000000000E+00  0.00000000000E+00  0.45593999997E+02  0.45594000000E+02  0.51100000000E-03 0. -1.
         11   -1    0    0    0    0 -0.00000000000E+00 -0.00000000000E+00 -0.45593999997E+02  0.45594000000E+02  0.51100000000E-03 0.  1.
    9900012    2    1    2    0    0 -0.44981367790E+01  0.55314368752E+01 -0.31078795139E+02  0.59301928814E+02  0.49999972253E+02 0.  0.
         12    1    1    2    0    0  0.44981367790E+01 -0.55314368752E+01  0.31078795139E+02  0.31886071186E+02  0.00000000000E+00 0. -1.
         11    1    3    3    0    0  0.16502709133E+02  0.72606114036E+01 -0.39079076188E+01  0.18447970862E+02  0.51100000000E-03 0. -1.
        -11    1    3    3    0    0  0.44818690227E+01  0.17010260894E+01 -0.44604522921E+01  0.65479977554E+01  0.51100000000E-03 0.  1.
         12    1    3    3    0    0 -0.25482714935E+02 -0.34302006178E+01 -0.22710435229E+02  0.34305960197E+02  0.00000000000E+00 0. -1.
</event>
<event>
 7    1  0.5832130E-012  0.5930199E+02  0.7816164E-02  0.1266605E+00
        -11   -1    0    0    0    0  0.00000000000E+00  0.00000000000E+00  0.45593999997E+02  0.45594000000E+02  0.51100000000E-03 0.  1.
         11   -1    0    0    0    0 -0.00000000000E+00 -0.00000000000E+00 -0.45593999997E+02  0.45594000000E+02  0.51100000000E-03 0. -1.
    9900012    2    1    2    0    0 -0.12065376603E+02  0.28266271031E+02 -0.84948179340E+01  0.59301994883E+02  0.50000092748E+02 0.  0.
         12    1    1    2    0    0  0.12065376603E+02 -0.28266271031E+02  0.84948179340E+01  0.31886005117E+02  0.00000000000E+00 0. -1.
         11    1    3    3    0    0 -0.11237924566E+02  0.50223862392E+01 -0.11697428723E+02  0.16980728815E+02  0.51100000000E-03 0. -1.
        -11    1    3    3    0    0 -0.15858034012E+02  0.19810927111E+02  0.72304796241E+01  0.26386168945E+02  0.51100000000E-03 0.  1.
        -12    1    3    3    0    0  0.15030581976E+02  0.34329576813E+01 -0.40278688350E+01  0.15935097123E+02  0.00000000000E+00 0.  1.
</event>
<event>
 7    1  0.5832130E-012  0.5930194E+02  0.7816164E-02  0.1266605E+00
        -11   -1    0    0    0    0  0.00000000000E+00  0.00000000000E+00  0.45593999997E+02  0.45594000000E+02  0.51100000000E-03 0. -1.
         11   -1    0    0    0    0 -0.00000000000E+00 -0.00000000000E+00 -0.45593999997E+02  0.45594000000E+02  0.51100000000E-03 0.  1.
    9900012    2    1    2    0    0 -0.28049935459E+02 -0.11843021282E+02 -0.94691611453E+01  0.59301936506E+02  0.49999986283E+02 0.  0.
         12    1    1    2    0    0  0.28049935459E+02  0.11843021282E+02  0.94691611453E+01  0.31886063494E+02  0.00000000000E+00 0. -1.
         11    1    3    3    0    0 -0.54732430292E+01  0.87172853441E+00  0.73517622358E+01  0.92067751209E+01  0.51100000000E-03 0. -1.
        -11    1    3    3    0    0  0.90862282206E+01  0.52313293228E+01 -0.62063151182E+01  0.12183788301E+02  0.51100000000E-03 0.  1.
         12    1    3    3    0    0 -0.31662920650E+02 -0.17946079139E+02 -0.10614608263E+02  0.37911373084E+02  0.00000000000E+00 0. -1.
</event>
<event>
 7    1  0.5832130E-012  0.5930192E+02  0.7816164E-02  0.1266605E+00
        -11   -1    0    0    0    0  0.00000000000E+00  0.00000000000E+00  0.45593999997E+02  0.45594000000E+02  0.51100000000E-03 0.  1.
         11   -1    0    0    0    0 -0.00000000000E+00 -0.00000000000E+00 -0.45593999997E+02  0.45594000000E+02  0.51100000000E-03 0. -1.
    9900012    2    1    2    0    0 -0.19480030494E+02  0.12862201345E+02  0.21721284681E+02  0.59301921224E+02  0.49999958411E+02 0.  0.
         12    1    1    2    0    0  0.19480030494E+02 -0.12862201345E+02 -0.21721284681E+02  0.31886078776E+02  0.00000000000E+00 0. -1.
         11    1    3    3    0    0 -0.24265438558E+02  0.59669034512E+01  0.71890342199E+01  0.26001877980E+02  0.51100000000E-03 0. -1.
        -11    1    3    3    0    0 -0.51021190411E+01  0.11106717542E+02  0.18218251697E+02  0.21938447721E+02  0.51100000000E-03 0.  1.
         12    1    3    3    0    0  0.98875271048E+01 -0.42114196486E+01 -0.36860012354E+01  0.11361595522E+02  0.00000000000E+00 0. -1.
</event>
<event>
 7    1  0.5832130E-012  0.5930197E+02  0.7816164E-02  0.1266605E+00
        -11   -1    0    0    0    0  0.00000000000E+00  0.00000000000E+00  0.45593999997E+02  0.45594000000E+02  0.51100000000E-03 0. -1.
         11   -1    0    0    0    0 -0.00000000000E+00 -0.00000000000E+00 -0.45593999997E+02  0.45594000000E+02  0.51100000000E-03 0.  1.
    9900012    2    1    2    0    0  0.12818316614E+02 -0.24065172424E+02 -0.16531090732E+02  0.59301972882E+02  0.50000052623E+02 0.  0.
         12    1    1    2    0    0 -0.12818316614E+02  0.24065172424E+02  0.16531090732E+02  0.31886027118E+02  0.00000000000E+00 0. -1.
         11    1    3    3    0    0 -0.40356527474E+01 -0.53345711384E+01  0.11530235661E+02  0.13330059151E+02  0.51100000000E-03 0. -1.
        -11    1    3    3    0    0  0.12570378464E+02 -0.20325001954E+02 -0.77061147652E+01  0.25109845164E+02  0.51100000000E-03 0.  1.
         12    1    3    3    0    0  0.42835908973E+01  0.15944006680E+01 -0.20355211627E+02  0.20862068566E+02  0.00000000000E+00 0. -1.
</event>
<event>
 7    1  0.5832130E-012  0.5930186E+02  0.7816164E-02  0.1266605E+00
        -11   -1    0    0    0    0  0.00000000000E+00  0.00000000000E+00  0.45593999997E+02  0.45594000000E+02  0.51100000000E-03 0.  1.
         11   -1    0    0    0    0 -0.00000000000E+00 -0.00000000000E+00 -0.45593999997E+02  0.45594000000E+02  0.51100000000E-03 0. -1.
    9900012    2    1    2    0    0  0.23325256930E+02 -0.44586437979E+00  0.21736137972E+02  0.59301857244E+02  0.49999841727E+02 0.  0.
         12    1    1    2    0    0 -0.23325256930E+02  0.44586437979E+00 -0.21736137972E+02  0.31886142756E+02  0.00000000000E+00 0. -1.
         11    1    3    3    0    0  0.27853626922E+02 -0.19550764989E+01  0.58144234544E+01  0.28521121598E+02  0.51100000000E-03 0.  1.
        -11    1    3    3    0    0 -0.13803057638E+01  0.84409962719E+01 -0.40085817701E+01  0.94458662987E+01  0.51100000000E-03 0. -1.
        -12    1    3    3    0    0 -0.31480642287E+01 -0.69317841528E+01  0.19930296288E+02  0.21334869347E+02  0.00000000000E+00 0.  1.
</event>
<event>
 7    1  0.5832130E-012  0.5930195E+02  0.7816164E-02  0.1266605E+00
        -11   -1    0    0    0    0  0.00000000000E+00  0.00000000000E+00  0.45593999997E+02  0.45594000000E+02  0.51100000000E-03 0.  1.
         11   -1    0    0    0    0 -0.00000000000E+00 -0.00000000000E+00 -0.45593999997E+02  0.45594000000E+02  0.51100000000E-03 0. -1.
    9900012    2    1    2    0    0 -0.15071010695E+02  0.23719723405E+01  0.27999255175E+02  0.59301954361E+02  0.50000018846E+02 0.  0.
         12    1    1    2    0    0  0.15071010695E+02 -0.23719723405E+01 -0.27999255175E+02  0.31886045639E+02  0.00000000000E+00 0. -1.
         11    1    3    3    0    0 -0.36045496694E+01 -0.21567938924E+02  0.10426588539E+02  0.24225658228E+02  0.51100000000E-03 0.  1.
        -11    1    3    3    0    0 -0.60464602954E+01  0.10399599731E+02 -0.26818090989E+00  0.12032592319E+02  0.51100000000E-03 0. -1.
        -12    1    3    3    0    0 -0.54200007299E+01  0.13540311534E+02  0.17840847546E+02  0.23043703814E+02  0.00000000000E+00 0.  1.
</event>
<event>
 7    1  0.5832130E-012  0.5930193E+02  0.7816164E-02  0.1266605E+00
        -11   -1    0    0    0    0  0.00000000000E+00  0.00000000000E+00  0.45593999997E+02  0.45594000000E+02  0.51100000000E-03 0.  1.
         11   -1    0    0    0    0 -0.00000000000E+00 -0.00000000000E+00 -0.45593999997E+02  0.45594000000E+02  0.51100000000E-03 0. -1.
    9900012    2    1    2    0    0  0.10999347877E+02 -0.11525653502E+02  0.27620553893E+02  0.59301931887E+02  0.49999977858E+02 0.  0.
         12    1    1    2    0    0 -0.10999347877E+02  0.11525653502E+02 -0.27620553893E+02  0.31886068113E+02  0.00000000000E+00 0. -1.
         11    1    3    3    0    0 -0.42377227860E+01 -0.23427689018E+01  0.24430479032E+02  0.24905725578E+02  0.51100000000E-03 0. -1.
        -11    1    3    3    0    0  0.59318349256E+01 -0.32970835833E+01  0.16074313267E+02  0.17448236960E+02  0.51100000000E-03 0.  1.
        -12    1    3    3    0    0  0.93052357379E+01 -0.58858010170E+01 -0.12884238407E+02  0.16947969349E+02  0.00000000000E+00 0.  1.
</event>
<event>
 7    1  0.5832130E-012  0.5930196E+02  0.7816164E-02  0.1266605E+00
        -11   -1    0    0    0    0  0.00000000000E+00  0.00000000000E+00  0.45593999997E+02  0.45594000000E+02  0.51100000000E-03 0.  1.
         11   -1    0    0    0    0 -0.00000000000E+00 -0.00000000000E+00 -0.45593999997E+02  0.45594000000E+02  0.51100000000E-03 0. -1.
    9900012    2    1    2    0    0 -0.15911710082E+02 -0.26678687071E+02 -0.71961531887E+01  0.59301961013E+02  0.50000030978E+02 0.  0.
         12    1    1    2    0    0  0.15911710082E+02  0.26678687071E+02  0.71961531887E+01  0.31886038987E+02  0.00000000000E+00 0. -1.
         11    1    3    3    0    0 -0.93780437776E+01  0.28212142830E+01 -0.64620053553E+01  0.11733050268E+02  0.51100000000E-03 0. -1.
        -11    1    3    3    0    0 -0.17180398645E+02 -0.27314648479E+02  0.84310023383E+01  0.33351730387E+02  0.51100000000E-03 0.  1.
        -12    1    3    3    0    0  0.10646732341E+02 -0.21852528746E+01 -0.91651501716E+01  0.14217180358E+02  0.00000000000E+00 0.  1.
</event>
<event>
 7    1  0.5832130E-012  0.5930195E+02  0.7816164E-02  0.1266605E+00
        -11   -1    0    0    0    0  0.00000000000E+00  0.00000000000E+00  0.45593999997E+02  0.45594000000E+02  0.51100000000E-03 0.  1.
         11   -1    0    0    0    0 -0.00000000000E+00 -0.00000000000E+00 -0.45593999997E+02  0.45594000000E+02  0.51100000000E-03 0. -1.
    9900012    2    1    2    0    0  0.73600272096E+00 -0.18327707635E+02  0.26082052874E+02  0.59301952122E+02  0.50000014762E+02 0.  0.
         12    1    1    2    0    0 -0.73600272096E+00  0.18327707635E+02 -0.26082052874E+02  0.31886047878E+02  0.00000000000E+00 0. -1.
         11    1    3    3    0    0 -0.32713298329E+01 -0.97894318018E+00 -0.80643287344E+01  0.87574726276E+01  0.51100000000E-03 0. -1.
        -11    1    3    3    0    0  0.56945742120E+01  0.61271852322E+01  0.23054921093E+02  0.24525496146E+02  0.51100000000E-03 0.  1.
         12    1    3    3    0    0 -0.16872416581E+01 -0.23475949687E+02  0.11091460516E+02  0.26018983348E+02  0.00000000000E+00 0. -1.
</event>
<event>
 7    1  0.5832130E-012  0.5930194E+02  0.7816164E-02  0.1266605E+00
        -11   -1    0    0    0    0  0.00000000000E+00  0.00000000000E+00  0.45593999997E+02  0.45594000000E+02  0.51100000000E-03 0.  1.
         11   -1    0    0    0    0 -0.00000000000E+00 -0.00000000000E+00 -0.45593999997E+02  0.45594000000E+02  0.51100000000E-03 0. -1.
    9900012    2    1    2    0    0 -0.73645624629E+01 -0.15091419710E+02  0.27105959652E+02  0.59301940698E+02  0.49999993928E+02 0.  0.
         12    1    1    2    0    0  0.73645624629E+01  0.15091419710E+02 -0.27105959652E+02  0.31886059302E+02  0.00000000000E+00 0. -1.
         11    1    3    3    0    0  0.10537464819E+02 -0.12663800939E+02  0.32665617810E+01  0.16795250673E+02  0.51100000000E-03 0. -1.
        -11    1    3    3    0    0  0.68785381282E+01  0.21568568113E+01 -0.81098387890E+00  0.72542410491E+01  0.51100000000E-03 0.  1.
        -12    1    3    3    0    0 -0.24780565411E+02 -0.45844755825E+01  0.24650381750E+02  0.35252448977E+02  0.00000000000E+00 0.  1.
</event>
<event>
 7    1  0.5832130E-012  0.5930195E+02  0.7816164E-02  0.1266605E+00
        -11   -1    0    0    0    0  0.00000000000E+00  0.00000000000E+00  0.45593999997E+02  0.45594000000E+02  0.51100000000E-03 0.  1.
         11   -1    0    0    0    0 -0.00000000000E+00 -0.00000000000E+00 -0.45593999997E+02  0.45594000000E+02  0.51100000000E-03 0. -1.
    9900012    2    1    2    0    0 -0.68690260468E+01 -0.30082181012E+02 -0.80373719450E+01  0.59301945352E+02  0.50000002415E+02 0.  0.
         12    1    1    2    0    0  0.68690260468E+01  0.30082181012E+02  0.80373719450E+01  0.31886054648E+02  0.00000000000E+00 0. -1.
         11    1    3    3    0    0 -0.38108493500E+01  0.13887298796E+01 -0.10445531663E+02  0.11205368152E+02  0.51100000000E-03 0. -1.
        -11    1    3    3    0    0 -0.13218425088E+02  0.28267318026E+00  0.60858493555E+01  0.14554869583E+02  0.51100000000E-03 0.  1.
         12    1    3    3    0    0  0.10160248392E+02 -0.31753584071E+02 -0.36776896375E+01  0.33541707616E+02  0.00000000000E+00 0. -1.
</event>
<event>
 7    1  0.5832130E-012  0.5930192E+02  0.7816164E-02  0.1266605E+00
        -11   -1    0    0    0    0  0.00000000000E+00  0.00000000000E+00  0.45593999997E+02  0.45594000000E+02  0.51100000000E-03 0.  1.
         11   -1    0    0    0    0 -0.00000000000E+00 -0.00000000000E+00 -0.45593999997E+02  0.45594000000E+02  0.51100000000E-03 0. -1.
    9900012    2    1    2    0    0  0.56711160872E+01 -0.30520102503E+02  0.72858600154E+01  0.59301921993E+02  0.49999959815E+02 0.  0.
         12    1    1    2    0    0 -0.56711160872E+01  0.30520102503E+02 -0.72858600154E+01  0.31886078007E+02  0.00000000000E+00 0. -1.
         11    1    3    3    0    0 -0.14207942242E+01  0.50396598359E+01 -0.13791556455E+02  0.14752079759E+02  0.51100000000E-03 0. -1.
        -11    1    3    3    0    0  0.73327701696E+01 -0.63814463123E+01  0.27887632875E+01  0.10112842149E+02  0.51100000000E-03 0.  1.
        -12    1    3    3    0    0 -0.24085985813E+00 -0.29178316027E+02  0.18288653183E+02  0.34437000086E+02  0.00000000000E+00 0.  1.
</event>
<event>
 7    1  0.5832130E-012  0.5930197E+02  0.7816164E-02  0.1266605E+00
        -11   -1    0    0    0    0  0.00000000000E+00  0.00000000000E+00  0.45593999997E+02  0.45594000000E+02  0.51100000000E-03 0. -1.
         11   -1    0    0    0    0 -0.00000000000E+00 -0.00000000000E+00 -0.45593999997E+02  0.45594000000E+02  0.51100000000E-03 0.  1.
    9900012    2    1    2    0    0  0.46490273246E+01 -0.95708384061E+01 -0.30058355864E+02  0.59301966065E+02  0.50000040190E+02 0.  0.
         12    1    1    2    0    0 -0.46490273246E+01  0.95708384061E+01  0.30058355864E+02  0.31886033935E+02  0.00000000000E+00 0. -1.
         11    1    3    3    0    0  0.97578219646E+01 -0.85947851062E+01 -0.50333794922E+01  0.13943469077E+02  0.51100000000E-03 0.  1.
        -11    1    3    3    0    0  0.10562808069E+02  0.11132318882E+02 -0.28165429020E+01  0.15602382901E+02  0.51100000000E-03 0. -1.
        -12    1    3    3    0    0 -0.15671602709E+02 -0.12108372182E+02 -0.22208433470E+02  0.29756114087E+02  0.00000000000E+00 0.  1.
</event>
<event>
 7    1  0.5832130E-012  0.5930192E+02  0.7816164E-02  0.1266605E+00
        -11   -1    0    0    0    0  0.00000000000E+00  0.00000000000E+00  0.45593999997E+02  0.45594000000E+02  0.51100000000E-03 0.  1.
         11   -1    0    0    0    0 -0.00000000000E+00 -0.00000000000E+00 -0.45593999997E+02  0.45594000000E+02  0.51100000000E-03 0. -1.
    9900012    2    1    2    0    0 -0.23681021171E+02 -0.20152905352E+02  0.70563195606E+01  0.59301921477E+02  0.49999958873E+02 0.  0.
         12    1    1    2    0    0  0.23681021171E+02  0.20152905352E+02 -0.70563195606E+01  0.31886078523E+02  0.00000000000E+00 0. -1.
         11    1    3    3    0    0 -0.50883096027E+01  0.56432002886E+01 -0.10238297544E+01  0.76671266937E+01  0.51100000000E-03 0. -1.
        -11    1    3    3    0    0  0.10533223700E+02 -0.64868841297E+01 -0.62570012220E+01  0.13862847175E+02  0.51100000000E-03 0.  1.
        -12    1    3    3    0    0 -0.29125935269E+02 -0.19309221511E+02  0.14337150537E+02  0.37771947609E+02  0.00000000000E+00 0.  1.
</event>
<event>
 7    1  0.5832130E-012  0.5930198E+02  0.7816164E-02  0.1266605E+00
        -11   -1    0    0    0    0  0.00000000000E+00  0.00000000000E+00  0.45593999997E+02  0.45594000000E+02  0.51100000000E-03 0. -1.
         11   -1    0    0    0    0 -0.00000000000E+00 -0.00000000000E+00 -0.45593999997E+02  0.45594000000E+02  0.51100000000E-03 0.  1.
    9900012    2    1    2    0    0 -0.24655476763E+02  0.17670178478E+02  0.98280580498E+01  0.59301976935E+02  0.50000060015E+02 0.  0.
         12    1    1    2    0    0  0.24655476763E+02 -0.17670178478E+02 -0.98280580498E+01  0.31886023065E+02  0.00000000000E+00 0. -1.
         11    1    3    3    0    0 -0.51515479704E+00 -0.86021134786E+01 -0.35195354716E-01  0.86175970977E+01  0.51100000000E-03 0. -1.
        -11    1    3    3    0    0  0.54368112185E+01  0.64638454043E+01  0.12392507639E+02  0.14997148378E+02  0.51100000000E-03 0.  1.
        -12    1    3    3    0    0 -0.29577133184E+02  0.19808446553E+02 -0.25292542347E+01  0.35687231459E+02  0.00000000000E+00 0.  1.
</event>
<event>
 7    1  0.5832130E-012  0.5930195E+02  0.7816164E-02  0.1266605E+00
        -11   -1    0    0    0    0  0.00000000000E+00  0.00000000000E+00  0.45593999997E+02  0.45594000000E+02  0.51100000000E-03 0.  1.
         11   -1    0    0    0    0 -0.00000000000E+00 -0.00000000000E+00 -0.45593999997E+02  0.45594000000E+02  0.51100000000E-03 0. -1.
    9900012    2    1    2    0    0  0.28334363070E+02 -0.35145893812E+01 -0.14196181054E+02  0.59301952493E+02  0.50000015438E+02 0.  0.
         12    1    1    2    0    0 -0.28334363070E+02  0.35145893812E+01  0.14196181054E+02  0.31886047507E+02  0.00000000000E+00 0. -1.
         11    1    3    3    0    0 -0.11673516799E+02  0.95994222327E+01 -0.25235977188E+01  0.15322808077E+02  0.51100000000E-03 0.  1.
        -11    1    3    3    0    0  0.11380535390E+02 -0.16504100582E+01 -0.42614753432E+01  0.12263792704E+02  0.51100000000E-03 0. -1.
        -12    1    3    3    0    0  0.28627344479E+02 -0.11463601556E+02 -0.74111079922E+01  0.31715351712E+02  0.00000000000E+00 0.  1.
</event>
<event>
 7    1  0.5832130E-012  0.5930194E+02  0.7816164E-02  0.1266605E+00
        -11   -1    0    0    0    0  0.00000000000E+00  0.00000000000E+00  0.45593999997E+02  0.45594000000E+02  0.51100000000E-03 0.  1.
         11   -1    0    0    0    0 -0.00000000000E+00 -0.00000000000E+00 -0.45593999997E+02  0.45594000000E+02  0.51100000000E-03 0. -1.
    9900012    2    1    2    0    0  0.29190133286E+02  0.85146250685E+01 -0.95998920559E+01  0.59301942721E+02  0.49999997617E+02 0.  0.
         12    1    1    2    0    0 -0.29190133286E+02 -0.85146250685E+01  0.95998920559E+01  0.31886057279E+02  0.00000000000E+00 0. -1.
         11    1    3    3    0    0  0.67766726671E+01  0.60358871380E+01  0.96980954017E+01  0.13281877904E+02  0.51100000000E-03 0. -1.
        -11    1    3    3    0    0  0.18496842045E+02 -0.77480657778E+01  0.38427020145E+01  0.20418913976E+02  0.51100000000E-03 0.  1.
         12    1    3    3    0    0  0.39166185741E+01  0.10226803708E+02 -0.23140689472E+02  0.25601150841E+02  0.00000000000E+00 0. -1.
</event>
<event>
 7    1  0.5832130E-012  0.5930196E+02  0.7816164E-02  0.1266605E+00
        -11   -1    0    0    0    0  0.00000000000E+00  0.00000000000E+00  0.45593999997E+02  0.45594000000E+02  0.51100000000E-03 0. -1.
         11   -1    0    0    0    0 -0.00000000000E+00 -0.00000000000E+00 -0.45593999997E+02  0.45594000000E+02  0.51100000000E-03 0.  1.
    9900012    2    1    2    0    0  0.26583301914E+02  0.55675000391E+01 -0.16704814286E+02  0.59301955754E+02  0.50000021385E+02 0.  0.
         12    1    1    2    0    0 -0.26583301914E+02 -0.55675000391E+01  0.16704814286E+02  0.31886044246E+02  0.00000000000E+00 0. -1.
         11    1    3    3    0    0  0.20311758905E+02 -0.16111389493E+02 -0.73148215775E+01  0.26937910762E+02  0.51100000000E-03 0.  1.
        -11    1    3    3    0    0  0.98913361040E+01  0.94255154419E+01  0.36146069680E+01  0.14133090782E+02  0.51100000000E-03 0. -1.
        -12    1    3    3    0    0 -0.36197930952E+01  0.12253374090E+02 -0.13004599676E+02  0.18230954210E+02  0.00000000000E+00 0.  1.
</event>
<event>
 7    1  0.5832130E-012  0.5930159E+02  0.7816164E-02  0.1266606E+00
        -11   -1    0    0    0    0  0.00000000000E+00  0.00000000000E+00  0.45593999997E+02  0.45594000000E+02  0.51100000000E-03 0. -1.
         11   -1    0    0    0    0 -0.00000000000E+00 -0.00000000000E+00 -0.45593999997E+02  0.45594000000E+02  0.51100000000E-03 0.  1.
    9900012    2    1    2    0    0 -0.23498891566E+02  0.17407404761E+02  0.12709345139E+02  0.59301590682E+02  0.49999355578E+02 0.  0.
         12    1    1    2    0    0  0.23498891566E+02 -0.17407404761E+02 -0.12709345139E+02  0.31886409318E+02  0.00000000000E+00 0. -1.
         11    1    3    3    0    0  0.79479348936E+01  0.77516726213E+01  0.27160220660E+01  0.11429561392E+02  0.51100000000E-03 0. -1.
        -11    1    3    3    0    0 -0.64896552093E+01 -0.11950963948E+02  0.49815770658E+01  0.14482999494E+02  0.51100000000E-03 0.  1.
         12    1    3    3    0    0 -0.24957171250E+02  0.21606696088E+02  0.50117460075E+01  0.33389029795E+02  0.00000000000E+00 0. -1.
</event>
<event>
 7    1  0.5832130E-012  0.5930197E+02  0.7816164E-02  0.1266605E+00
        -11   -1    0    0    0    0  0.00000000000E+00  0.00000000000E+00  0.45593999997E+02  0.45594000000E+02  0.51100000000E-03 0. -1.
         11   -1    0    0    0    0 -0.00000000000E+00 -0.00000000000E+00 -0.45593999997E+02  0.45594000000E+02  0.51100000000E-03 0.  1.
    9900012    2    1    2    0    0 -0.14791252135E+02  0.21892658842E+02 -0.17850749612E+02  0.59301969946E+02  0.50000047268E+02 0.  0.
         12    1    1    2    0    0  0.14791252135E+02 -0.21892658842E+02  0.17850749612E+02  0.31886030054E+02  0.00000000000E+00 0. -1.
         11    1    3    3    0    0 -0.55247600573E+01 -0.13612097987E+02 -0.14502210538E+02  0.20642826746E+02  0.51100000000E-03 0. -1.
        -11    1    3    3    0    0 -0.35862280591E+01  0.31040745431E+01 -0.32756840391E+01  0.57642359985E+01  0.51100000000E-03 0.  1.
         12    1    3    3    0    0 -0.56802640189E+01  0.32400682287E+02 -0.72855034848E-01  0.32894907202E+02  0.00000000000E+00 0. -1.
</event>
<event>
 7    1  0.5832130E-012  0.5930196E+02  0.7816164E-02  0.1266605E+00
        -11   -1    0    0    0    0  0.00000000000E+00  0.00000000000E+00  0.45593999997E+02  0.45594000000E+02  0.51100000000E-03 0.  1.
         11   -1    0    0    0    0 -0.00000000000E+00 -0.00000000000E+00 -0.45593999997E+02  0.45594000000E+02  0.51100000000E-03 0. -1.
    9900012    2    1    2    0    0 -0.12427950961E+02  0.28743105457E+02 -0.60083072311E+01  0.59301955527E+02  0.50000020971E+02 0.  0.
         12    1    1    2    0    0  0.12427950961E+02 -0.28743105457E+02  0.60083072311E+01  0.31886044473E+02  0.00000000000E+00 0. -1.
         11    1    3    3    0    0  0.52595597233E+01  0.74093980201E+00  0.72223741701E+01  0.89651909733E+01  0.51100000000E-03 0. -1.
        -11    1    3    3    0    0  0.90626098831E+01  0.16394309923E+02 -0.92966720662E+01  0.20912494053E+02  0.51100000000E-03 0.  1.
        -12    1    3    3    0    0 -0.26750120567E+02  0.11607855731E+02 -0.39340093349E+01  0.29424270500E+02  0.00000000000E+00 0.  1.
</event>
<event>
 7    1  0.5832130E-012  0.5930195E+02  0.7816164E-02  0.1266605E+00
        -11   -1    0    0    0    0  0.00000000000E+00  0.00000000000E+00  0.45593999997E+02  0.45594000000E+02  0.51100000000E-03 0.  1.
         11   -1    0    0    0    0 -0.00000000000E+00 -0.00000000000E+00 -0.45593999997E+02  0.45594000000E+02  0.51100000000E-03 0. -1.
    9900012    2    1    2    0    0  0.29108595019E+02 -0.12272973797E+02 -0.43340481873E+01  0.59301950331E+02  0.50000011495E+02 0.  0.
         12    1    1    2    0    0 -0.29108595019E+02  0.12272973797E+02  0.43340481873E+01  0.31886049669E+02  0.00000000000E+00 0. -1.
         11    1    3    3    0    0 -0.24923280036E+01  0.14364928189E+02 -0.35760771552E+01  0.15011701730E+02  0.51100000000E-03 0.  1.
        -11    1    3    3    0    0  0.72076061966E+01 -0.10664517310E+01  0.44959884534E+01  0.85615897364E+01  0.51100000000E-03 0. -1.
         12    1    3    3    0    0  0.24393316826E+02 -0.25571450256E+02 -0.52539594855E+01  0.35728658864E+02  0.00000000000E+00 0. -1.
</event>
<event>
 7    1  0.5832130E-012  0.5930197E+02  0.7816164E-02  0.1266605E+00
        -11   -1    0    0    0    0  0.00000000000E+00  0.00000000000E+00  0.45593999997E+02  0.45594000000E+02  0.51100000000E-03 0.  1.
         11   -1    0    0    0    0 -0.00000000000E+00 -0.00000000000E+00 -0.45593999997E+02  0.45594000000E+02  0.51100000000E-03 0. -1.
    9900012    2    1    2    0    0 -0.20143028464E+02 -0.23042840986E+02 -0.89445230994E+01  0.59301974693E+02  0.50000055926E+02 0.  0.
         12    1    1    2    0    0  0.20143028464E+02  0.23042840986E+02  0.89445230994E+01  0.31886025307E+02  0.00000000000E+00 0. -1.
         11    1    3    3    0    0 -0.93767091725E+01 -0.47065223413E+01 -0.10889843565E+02  0.15121597819E+02  0.51100000000E-03 0. -1.
        -11    1    3    3    0    0 -0.84858559366E+01 -0.28363956423E+02 -0.71436785705E+01  0.30455802710E+02  0.51100000000E-03 0.  1.
        -12    1    3    3    0    0 -0.22804633545E+01  0.10027637778E+02  0.90889990360E+01  0.13724574164E+02  0.00000000000E+00 0.  1.
</event>
<event>
 7    1  0.5832130E-012  0.5930190E+02  0.7816164E-02  0.1266605E+00
        -11   -1    0    0    0    0  0.00000000000E+00  0.00000000000E+00  0.45593999997E+02  0.45594000000E+02  0.51100000000E-03 0. -1.
         11   -1    0    0    0    0 -0.00000000000E+00 -0.00000000000E+00 -0.45593999997E+02  0.45594000000E+02  0.51100000000E-03 0.  1.
    9900012    2    1    2    0    0 -0.23875562365E+02  0.14938478678E+02 -0.14950682852E+02  0.59301897366E+02  0.49999914899E+02 0.  0.
         12    1    1    2    0    0  0.23875562365E+02 -0.14938478678E+02  0.14950682852E+02  0.31886102634E+02  0.00000000000E+00 0. -1.
         11    1    3    3    0    0 -0.54355949849E+01 -0.52770592481E+01  0.66653813440E+01  0.10090607309E+02  0.51100000000E-03 0. -1.
        -11    1    3    3    0    0  0.26056875606E+01  0.17146565771E+02  0.19667721273E+01  0.17454584449E+02  0.51100000000E-03 0.  1.
        -12    1    3    3    0    0 -0.21045654941E+02  0.30689721545E+01 -0.23582836324E+02  0.31756705608E+02  0.00000000000E+00 0.  1.
</event>
<event>
 7    1  0.5832130E-012  0.5930203E+02  0.7816164E-02  0.1266604E+00
        -11   -1    0    0    0    0  0.00000000000E+00  0.00000000000E+00  0.45593999997E+02  0.45594000000E+02  0.51100000000E-03 0. -1.
         11   -1    0    0    0    0 -0.00000000000E+00 -0.00000000000E+00 -0.45593999997E+02  0.45594000000E+02  0.51100000000E-03 0.  1.
    9900012    2    1    2    0    0 -0.20006829845E+02 -0.11974444548E+02 -0.21749818991E+02  0.59302028338E+02  0.50000153762E+02 0.  0.
         12    1    1    2    0    0  0.20006829845E+02  0.11974444548E+02  0.21749818991E+02  0.31885971662E+02  0.00000000000E+00 0. -1.
         11    1    3    3    0    0 -0.28909490929E+02 -0.36077577386E+01 -0.72256452680E+00  0.29142695165E+02  0.51100000000E-03 0. -1.
        -11    1    3    3    0    0 -0.30039167960E+01 -0.55148934939E+01 -0.55378064814E+00  0.63043032631E+01  0.51100000000E-03 0.  1.
         12    1    3    3    0    0  0.11906577880E+02 -0.28517933157E+01 -0.20473473816E+02  0.23855029910E+02  0.00000000000E+00 0. -1.
</event>
<event>
 7    1  0.5832130E-012  0.5930195E+02  0.7816164E-02  0.1266605E+00
        -11   -1    0    0    0    0  0.00000000000E+00  0.00000000000E+00  0.45593999997E+02  0.45594000000E+02  0.51100000000E-03 0. -1.
         11   -1    0    0    0    0 -0.00000000000E+00 -0.00000000000E+00 -0.45593999997E+02  0.45594000000E+02  0.51100000000E-03 0.  1.
    9900012    2    1    2    0    0 -0.25741875946E+02  0.18531416990E+02  0.32653871468E+01  0.59301947467E+02  0.50000006273E+02 0.  0.
         12    1    1    2    0    0  0.25741875946E+02 -0.18531416990E+02 -0.32653871468E+01  0.31886052533E+02  0.00000000000E+00 0. -1.
         11    1    3    3    0    0 -0.19811593838E+02  0.68947375428E+01 -0.40067272861E+01  0.21356275893E+02  0.51100000000E-03 0.  1.
        -11    1    3    3    0    0  0.99390054727E+00 -0.22542432186E+01 -0.12538916785E+02  0.12778649584E+02  0.51100000000E-03 0. -1.
         12    1    3    3    0    0 -0.69241826550E+01  0.13890922666E+02  0.19811031218E+02  0.25167021991E+02  0.00000000000E+00 0. -1.
</event>
<event>
 7    1  0.5832130E-012  0.5930194E+02  0.7816164E-02  0.1266605E+00
        -11   -1    0    0    0    0  0.00000000000E+00  0.00000000000E+00  0.45593999997E+02  0.45594000000E+02  0.51100000000E-03 0. -1.
         11   -1    0    0    0    0 -0.00000000000E+00 -0.00000000000E+00 -0.45593999997E+02  0.45594000000E+02  0.51100000000E-03 0.  1.
    9900012    2    1    2    0    0 -0.31290814796E+02 -0.55001781484E+01 -0.27117281470E+01  0.59301944744E+02  0.50000001306E+02 0.  0.
         12    1    1    2    0    0  0.31290814796E+02  0.55001781484E+01  0.27117281470E+01  0.31886055256E+02  0.00000000000E+00 0. -1.
         11    1    3    3    0    0  0.43268003453E+01  0.11390518063E+02 -0.98954262490E-01  0.12185027500E+02  0.51100000000E-03 0. -1.
        -11    1    3    3    0    0 -0.68318840139E+01 -0.19049238441E+01 -0.11462207306E+02  0.13479078998E+02  0.51100000000E-03 0.  1.
         12    1    3    3    0    0 -0.28785731127E+02 -0.14985772367E+02  0.88494334219E+01  0.33637838246E+02  0.00000000000E+00 0. -1.
</event>
<event>
 7    1  0.5832130E-012  0.5930195E+02  0.7816164E-02  0.1266605E+00
        -11   -1    0    0    0    0  0.00000000000E+00  0.00000000000E+00  0.45593999997E+02  0.45594000000E+02  0.51100000000E-03 0.  1.
         11   -1    0    0    0    0 -0.00000000000E+00 -0.00000000000E+00 -0.45593999997E+02  0.45594000000E+02  0.51100000000E-03 0. -1.
    9900012    2    1    2    0    0  0.16224407789E+02 -0.36649156786E+01  0.27203996867E+02  0.59301945672E+02  0.50000002999E+02 0.  0.
         12    1    1    2    0    0 -0.16224407789E+02  0.36649156786E+01 -0.27203996867E+02  0.31886054328E+02  0.00000000000E+00 0. -1.
         11    1    3    3    0    0  0.13029978525E+02  0.27178913465E+01 -0.11089275725E+01  0.13356533770E+02  0.51100000000E-03 0. -1.
        -11    1    3    3    0    0  0.14036712923E+02  0.94688544592E+01  0.12084940804E+02  0.20802266919E+02  0.51100000000E-03 0.  1.
        -12    1    3    3    0    0 -0.10842283659E+02 -0.15851661484E+02  0.16227983636E+02  0.25143144983E+02  0.00000000000E+00 0.  1.
</event>
<event>
 7    1  0.5832130E-012  0.5930195E+02  0.7816164E-02  0.1266605E+00
        -11   -1    0    0    0    0  0.00000000000E+00  0.00000000000E+00  0.45593999997E+02  0.45594000000E+02  0.51100000000E-03 0. -1.
         11   -1    0    0    0    0 -0.00000000000E+00 -0.00000000000E+00 -0.45593999997E+02  0.45594000000E+02  0.51100000000E-03 0.  1.
    9900012    2    1    2    0    0  0.27139333984E+02 -0.41289855994E+01 -0.16221231868E+02  0.59301947650E+02  0.50000006606E+02 0.  0.
         12    1    1    2    0    0 -0.27139333984E+02  0.41289855994E+01  0.16221231868E+02  0.31886052350E+02  0.00000000000E+00 0. -1.
         11    1    3    3    0    0  0.14683130765E+01 -0.98601834801E+01 -0.15084002747E+02  0.18080550343E+02  0.51100000000E-03 0. -1.
        -11    1    3    3    0    0  0.63054475286E+01  0.29931646474E+01 -0.15471334308E+02  0.16972916328E+02  0.51100000000E-03 0.  1.
         12    1    3    3    0    0  0.19365573378E+02  0.27380332334E+01  0.14334105187E+02  0.24248480979E+02  0.00000000000E+00 0. -1.
</event>
<event>
 7    1  0.6101796E-012  0.5930192E+02  0.7816164E-02  0.1266605E+00
        -11   -1    0    0    0    0  0.00000000000E+00  0.00000000000E+00  0.45593999997E+02  0.45594000000E+02  0.51100000000E-03 0. -1.
         11   -1    0    0    0    0 -0.00000000000E+00 -0.00000000000E+00 -0.45593999997E+02  0.45594000000E+02  0.51100000000E-03 0.  1.
    9900012    2    1    2    0    0 -0.21955610901E+02  0.15611456038E+02 -0.17057415715E+02  0.59301924033E+02  0.49999963535E+02 0.  0.
         12    1    1    2    0    0  0.21955610901E+02 -0.15611456038E+02  0.17057415715E+02  0.31886075967E+02  0.00000000000E+00 0. -1.
         11    1    3    3    0    0 -0.30984922970E+01  0.16479985292E+02 -0.11568288652E+02  0.20371938355E+02  0.51100000000E-03 0. -1.
        -11    1    3    3    0    0 -0.61627540507E+01 -0.41791435490E+01 -0.18812106525E+02  0.20232155853E+02  0.51100000000E-03 0.  1.
         12    1    3    3    0    0 -0.12694364554E+02  0.33106142950E+01  0.13322979462E+02  0.18697829825E+02  0.00000000000E+00 0. -1.
</event>
<event>
 7    1  0.5832130E-012  0.5930196E+02  0.7816164E-02  0.1266605E+00
        -11   -1    0    0    0    0  0.00000000000E+00  0.00000000000E+00  0.45593999997E+02  0.45594000000E+02  0.51100000000E-03 0.  1.
         11   -1    0    0    0    0 -0.00000000000E+00 -0.00000000000E+00 -0.45593999997E+02  0.45594000000E+02  0.51100000000E-03 0. -1.
    9900012    2    1    2    0    0 -0.11610622135E+02 -0.60256516714E+01  0.29079275511E+02  0.59301964049E+02  0.50000036514E+02 0.  0.
         12    1    1    2    0    0  0.11610622135E+02  0.60256516714E+01 -0.29079275511E+02  0.31886035951E+02  0.00000000000E+00 0. -1.
         11    1    3    3    0    0 -0.65467126717E-01 -0.20956773680E+01  0.15993230701E+02  0.16130083016E+02  0.51100000000E-03 0. -1.
        -11    1    3    3    0    0  0.75057833000E+01 -0.12819930462E+02  0.16131097402E+02  0.21929425520E+02  0.51100000000E-03 0.  1.
         12    1    3    3    0    0 -0.19050938308E+02  0.88899561581E+01 -0.30450525920E+01  0.21242455513E+02  0.00000000000E+00 0. -1.
</event>
<event>
 7    1  0.5832130E-012  0.5930195E+02  0.7816164E-02  0.1266605E+00
        -11   -1    0    0    0    0  0.00000000000E+00  0.00000000000E+00  0.45593999997E+02  0.45594000000E+02  0.51100000000E-03 0.  1.
         11   -1    0    0    0    0 -0.00000000000E+00 -0.00000000000E+00 -0.45593999997E+02  0.45594000000E+02  0.51100000000E-03 0. -1.
    9900012    2    1    2    0    0 -0.16548712271E+02 -0.16830129547E+02  0.21438441888E+02  0.59301954009E+02  0.50000018203E+02 0.  0.
         12    1    1    2    0    0  0.16548712271E+02  0.16830129547E+02 -0.21438441888E+02  0.31886045991E+02  0.00000000000E+00 0. -1.
         11    1    3    3    0    0 -0.13803416762E+02 -0.14096818263E+02  0.11316253066E+02  0.22744497866E+02  0.51100000000E-03 0. -1.
        -11    1    3    3    0    0 -0.74803300126E+01  0.11683099490E+02  0.15178584766E+02  0.20563063647E+02  0.51100000000E-03 0.  1.
         12    1    3    3    0    0  0.47350345033E+01 -0.14416410774E+02 -0.50563959449E+01  0.15994392495E+02  0.00000000000E+00 0. -1.
</event>
<event>
 7    1  0.5832130E-012  0.5930193E+02  0.7816164E-02  0.1266605E+00
        -11   -1    0    0    0    0  0.00000000000E+00  0.00000000000E+00  0.45593999997E+02  0.45594000000E+02  0.51100000000E-03 0.  1.
         11   -1    0    0    0    0 -0.00000000000E+00 -0.00000000000E+00 -0.45593999997E+02  0.45594000000E+02  0.51100000000E-03 0. -1.
    9900012    2    1    2    0    0  0.20966651452E+02  0.21692599881E+02  0.10322402056E+02  0.59301931774E+02  0.49999977653E+02 0.  0.
         12    1    1    2    0    0 -0.20966651452E+02 -0.21692599881E+02 -0.10322402056E+02  0.31886068226E+02  0.00000000000E+00 0. -1.
         11    1    3    3    0    0  0.29072657248E+01  0.18236677279E+02 -0.30435748994E+01  0.18716087748E+02  0.51100000000E-03 0. -1.
        -11    1    3    3    0    0  0.23485818848E+02  0.13173527603E+02  0.72542744516E+01  0.27888169796E+02  0.51100000000E-03 0.  1.
         12    1    3    3    0    0 -0.54264331214E+01 -0.97176050007E+01  0.61117025036E+01  0.12697674231E+02  0.00000000000E+00 0. -1.
</event>
<event>
 7    1  0.5832130E-012  0.5930196E+02  0.7816164E-02  0.1266605E+00
        -11   -1    0    0    0    0  0.00000000000E+00  0.00000000000E+00  0.45593999997E+02  0.45594000000E+02  0.51100000000E-03 0.  1.
         11   -1    0    0    0    0 -0.00000000000E+00 -0.00000000000E+00 -0.45593999997E+02  0.45594000000E+02  0.51100000000E-03 0. -1.
    9900012    2    1    2    0    0 -0.85875042478E+01  0.19388037093E+01  0.30646621429E+02  0.59301959261E+02  0.50000027781E+02 0.  0.
         12    1    1    2    0    0  0.85875042478E+01 -0.19388037093E+01 -0.30646621429E+02  0.31886040739E+02  0.00000000000E+00 0. -1.
         11    1    3    3    0    0  0.82534015808E+01 -0.26287474588E+01 -0.25833125784E+01  0.90389410328E+01  0.51100000000E-03 0. -1.
        -11    1    3    3    0    0  0.85652640649E+01  0.27079229682E+01  0.19160533618E+02  0.21161820435E+02  0.51100000000E-03 0.  1.
        -12    1    3    3    0    0 -0.25406169893E+02  0.18596281999E+01  0.14069400389E+02  0.29101197793E+02  0.00000000000E+00 0.  1.
</event>
<event>
 7    1  0.5832130E-012  0.5930193E+02  0.7816164E-02  0.1266605E+00
        -11   -1    0    0    0    0  0.00000000000E+00  0.00000000000E+00  0.45593999997E+02  0.45594000000E+02  0.51100000000E-03 0.  1.
         11   -1    0    0    0    0 -0.00000000000E+00 -0.00000000000E+00 -0.45593999997E+02  0.45594000000E+02  0.51100000000E-03 0. -1.
    9900012    2    1    2    0    0 -0.21377204064E+02 -0.20938234757E+02  0.11014837396E+02  0.59301934529E+02  0.49999982677E+02 0.  0.
         12    1    1    2    0    0  0.21377204064E+02  0.20938234757E+02 -0.11014837396E+02  0.31886065471E+02  0.00000000000E+00 0. -1.
         11    1    3    3    0    0 -0.19740884085E+02  0.20470456039E+01  0.49153085135E+01  0.20446348285E+02  0.51100000000E-03 0. -1.
        -11    1    3    3    0    0 -0.62114727718E+01 -0.90381355689E+01  0.17237084199E+02  0.20430060217E+02  0.51100000000E-03 0.  1.
        -12    1    3    3    0    0  0.45751527930E+01 -0.13947144792E+02 -0.11137555316E+02  0.18425526027E+02  0.00000000000E+00 0.  1.
</event>
<event>
 7    1  0.5832130E-012  0.5930180E+02  0.7816164E-02  0.1266605E+00
        -11   -1    0    0    0    0  0.00000000000E+00  0.00000000000E+00  0.45593999997E+02  0.45594000000E+02  0.51100000000E-03 0.  1.
         11   -1    0    0    0    0 -0.00000000000E+00 -0.00000000000E+00 -0.45593999997E+02  0.45594000000E+02  0.51100000000E-03 0. -1.
    9900012    2    1    2    0    0 -0.79664626536E+01  0.21468443815E+02  0.22189441631E+02  0.59301797233E+02  0.49999732280E+02 0.  0.
         12    1    1    2    0    0  0.79664626536E+01 -0.21468443815E+02 -0.22189441631E+02  0.31886202767E+02  0.00000000000E+00 0. -1.
         11    1    3    3    0    0  0.61115236129E+01  0.12077935585E+01 -0.39861323037E+01  0.73958594602E+01  0.51100000000E-03 0. -1.
        -11    1    3    3    0    0 -0.21299203270E+02 -0.36851827174E+00  0.59273472548E+01  0.22111655555E+02  0.51100000000E-03 0.  1.
        -12    1    3    3    0    0  0.72212170036E+01  0.20629168528E+02  0.20248226680E+02  0.29794282217E+02  0.00000000000E+00 0.  1.
</event>
<event>
 7    1  0.5832130E-012  0.5930223E+02  0.7816164E-02  0.1266604E+00
        -11   -1    0    0    0    0  0.00000000000E+00  0.00000000000E+00  0.45593999997E+02  0.45594000000E+02  0.51100000000E-03 0.  1.
         11   -1    0    0    0    0 -0.00000000000E+00 -0.00000000000E+00 -0.45593999997E+02  0.45594000000E+02  0.51100000000E-03 0. -1.
    9900012    2    1    2    0    0 -0.58382069373E+00  0.13486175755E+02  0.28887450867E+02  0.59302225732E+02  0.50000513758E+02 0.  0.
         12    1    1    2    0    0  0.58382069373E+00 -0.13486175755E+02 -0.28887450867E+02  0.31885774268E+02  0.00000000000E+00 0. -1.
         11    1    3    3    0    0 -0.17607745239E+02  0.15789491084E+02  0.53105233443E+01  0.24239273495E+02  0.51100000000E-03 0. -1.
        -11    1    3    3    0    0  0.49286556317E+01  0.84048296930E+01  0.77768871120E+01  0.12466466296E+02  0.51100000000E-03 0.  1.
         12    1    3    3    0    0  0.12095268914E+02 -0.10708145022E+02  0.15800040410E+02  0.22596485941E+02  0.00000000000E+00 0. -1.
</event>
<event>
 7    1  0.5832130E-012  0.5930195E+02  0.7816164E-02  0.1266605E+00
        -11   -1    0    0    0    0  0.00000000000E+00  0.00000000000E+00  0.45593999997E+02  0.45594000000E+02  0.51100000000E-03 0.  1.
         11   -1    0    0    0    0 -0.00000000000E+00 -0.00000000000E+00 -0.45593999997E+02  0.45594000000E+02  0.51100000000E-03 0. -1.
    9900012    2    1    2    0    0  0.32431496388E+01  0.23165995191E+02  0.21668849936E+02  0.59301946461E+02  0.50000004437E+02 0.  0.
         12    1    1    2    0    0 -0.32431496388E+01 -0.23165995191E+02 -0.21668849936E+02  0.31886053539E+02  0.00000000000E+00 0. -1.
         11    1    3    3    0    0  0.12480687305E+02  0.12172006025E+02  0.29649936259E+01  0.17683791272E+02  0.51100000000E-03 0. -1.
        -11    1    3    3    0    0 -0.16399336881E+02  0.17312905055E+02  0.21022012838E+02  0.31789934816E+02  0.51100000000E-03 0.  1.
         12    1    3    3    0    0  0.71617992154E+01 -0.63189158892E+01 -0.23181565272E+01  0.98282203731E+01  0.00000000000E+00 0. -1.
</event>
<event>
 7    1  0.5832130E-012  0.5930193E+02  0.7816164E-02  0.1266605E+00
        -11   -1    0    0    0    0  0.00000000000E+00  0.00000000000E+00  0.45593999997E+02  0.45594000000E+02  0.51100000000E-03 0.  1.
         11   -1    0    0    0    0 -0.00000000000E+00 -0.00000000000E+00 -0.45593999997E+02  0.45594000000E+02  0.51100000000E-03 0. -1.
    9900012    2    1    2    0    0 -0.14326184041E+02 -0.50722158164E+01  0.28031308450E+02  0.59301934455E+02  0.49999982542E+02 0.  0.
         12    1    1    2    0    0  0.14326184041E+02  0.50722158164E+01 -0.28031308450E+02  0.31886065545E+02  0.00000000000E+00 0. -1.
         11    1    3    3    0    0  0.12561612116E+02  0.41982476854E+01  0.88592300610E+01  0.15934407429E+02  0.51100000000E-03 0. -1.
        -11    1    3    3    0    0 -0.94923451683E+01 -0.64739067799E+01  0.22660241688E+02  0.25406743975E+02  0.51100000000E-03 0.  1.
        -12    1    3    3    0    0 -0.17395450989E+02 -0.27965567219E+01 -0.34881632987E+01  0.17960783051E+02  0.00000000000E+00 0.  1.
</event>
<event>
 7    1  0.5832130E-012  0.5930196E+02  0.7816164E-02  0.1266605E+00
        -11   -1    0    0    0    0  0.00000000000E+00  0.00000000000E+00  0.45593999997E+02  0.45594000000E+02  0.51100000000E-03 0.  1.
         11   -1    0    0    0    0 -0.00000000000E+00 -0.00000000000E+00 -0.45593999997E+02  0.45594000000E+02  0.51100000000E-03 0. -1.
    9900012    2    1    2    0    0  0.27665037902E+02  0.10271587787E+02  0.12077227512E+02  0.59301964465E+02  0.50000037272E+02 0.  0.
         12    1    1    2    0    0 -0.27665037902E+02 -0.10271587787E+02 -0.12077227512E+02  0.31886035535E+02  0.00000000000E+00 0. -1.
         11    1    3    3    0    0 -0.10871701805E+02  0.97917518979E+01  0.13415413330E+02  0.19850582370E+02  0.51100000000E-03 0.  1.
        -11    1    3    3    0    0  0.45671788601E+01 -0.19236715861E+01  0.17535025863E+01  0.52568437957E+01  0.51100000000E-03 0. -1.
        -12    1    3    3    0    0  0.33969560847E+02  0.24035074749E+01 -0.30916884036E+01  0.34194538299E+02  0.00000000000E+00 0.  1.
</event>
<event>
 7    1  0.6604257E-012  0.5930196E+02  0.7816164E-02  0.1266605E+00
        -11   -1    0    0    0    0  0.00000000000E+00  0.00000000000E+00  0.45593999997E+02  0.45594000000E+02  0.51100000000E-03 0. -1.
         11   -1    0    0    0    0 -0.00000000000E+00 -0.00000000000E+00 -0.45593999997E+02  0.45594000000E+02  0.51100000000E-03 0.  1.
    9900012    2    1    2    0    0 -0.53499892437E+00  0.19119106693E+02 -0.25512605711E+02  0.59301960504E+02  0.50000030049E+02 0.  0.
         12    1    1    2    0    0  0.53499892437E+00 -0.19119106693E+02  0.25512605711E+02  0.31886039496E+02  0.00000000000E+00 0. -1.
         11    1    3    3    0    0  0.24915282627E+01  0.79058668256E+01 -0.20648460299E+01  0.85424839910E+01  0.51100000000E-03 0. -1.
        -11    1    3    3    0    0  0.53382328526E+01  0.20629398234E+02 -0.29814631185E+02  0.36646705642E+02  0.51100000000E-03 0.  1.
         12    1    3    3    0    0 -0.83647600397E+01 -0.94161583665E+01  0.63668715037E+01  0.14112770871E+02  0.00000000000E+00 0. -1.
</event>
<event>
 7    1  0.5832130E-012  0.5930194E+02  0.7816164E-02  0.1266605E+00
        -11   -1    0    0    0    0  0.00000000000E+00  0.00000000000E+00  0.45593999997E+02  0.45594000000E+02  0.51100000000E-03 0.  1.
         11   -1    0    0    0    0 -0.00000000000E+00 -0.00000000000E+00 -0.45593999997E+02  0.45594000000E+02  0.51100000000E-03 0. -1.
    9900012    2    1    2    0    0 -0.37296359159E+00 -0.11735442184E+02  0.29645588709E+02  0.59301942937E+02  0.49999998011E+02 0.  0.
         12    1    1    2    0    0  0.37296359159E+00  0.11735442184E+02 -0.29645588709E+02  0.31886057063E+02  0.00000000000E+00 0. -1.
         11    1    3    3    0    0  0.13305676998E+02  0.66879635482E+01  0.10906265277E+02  0.18458508048E+02  0.51100000000E-03 0. -1.
        -11    1    3    3    0    0 -0.23674558272E+01 -0.64393241438E+01  0.22851342353E+02  0.23859035817E+02  0.51100000000E-03 0.  1.
         12    1    3    3    0    0 -0.11311184763E+02 -0.11984081589E+02 -0.41120189203E+01  0.16984399073E+02  0.00000000000E+00 0. -1.
</event>
<event>
 7    1  0.5832130E-012  0.5930191E+02  0.7816164E-02  0.1266605E+00
        -11   -1    0    0    0    0  0.00000000000E+00  0.00000000000E+00  0.45593999997E+02  0.45594000000E+02  0.51100000000E-03 0. -1.
         11   -1    0    0    0    0 -0.00000000000E+00 -0.00000000000E+00 -0.45593999997E+02  0.45594000000E+02  0.51100000000E-03 0.  1.
    9900012    2    1    2    0    0 -0.13866479063E+02 -0.27721489273E+02 -0.74807911872E+01  0.59301914541E+02  0.49999946224E+02 0.  0.
         12    1    1    2    0    0  0.13866479063E+02  0.27721489273E+02  0.74807911872E+01  0.31886085459E+02  0.00000000000E+00 0. -1.
         11    1    3    3    0    0 -0.21820838151E+02 -0.13851961840E+02  0.47353383002E+01  0.26276401076E+02  0.51100000000E-03 0. -1.
        -11    1    3    3    0    0 -0.76616732643E+01  0.14285044793E+01 -0.71696526898E+01  0.10589890566E+02  0.51100000000E-03 0.  1.
        -12    1    3    3    0    0  0.15616032352E+02 -0.15298031912E+02 -0.50464767976E+01  0.22435622899E+02  0.00000000000E+00 0.  1.
</event>
<event>
 7    1  0.5832130E-012  0.5930196E+02  0.7816164E-02  0.1266605E+00
        -11   -1    0    0    0    0  0.00000000000E+00  0.00000000000E+00  0.45593999997E+02  0.45594000000E+02  0.51100000000E-03 0.  1.
         11   -1    0    0    0    0 -0.00000000000E+00 -0.00000000000E+00 -0.45593999997E+02  0.45594000000E+02  0.51100000000E-03 0. -1.
    9900012    2    1    2    0    0  0.10771542745E+02 -0.17048203165E+02  0.24699228696E+02  0.59301964460E+02  0.50000037264E+02 0.  0.
         12    1    1    2    0    0 -0.10771542745E+02  0.17048203165E+02 -0.24699228696E+02  0.31886035540E+02  0.00000000000E+00 0. -1.
         11    1    3    3    0    0  0.19828142501E+02  0.37156571844E+01 -0.37163808035E+01  0.20512747985E+02  0.51100000000E-03 0. -1.
        -11    1    3    3    0    0 -0.83835741759E+01 -0.89654861200E+01  0.64973490066E+01  0.13888117284E+02  0.51100000000E-03 0.  1.
        -12    1    3    3    0    0 -0.67302557993E+00 -0.11798374230E+02  0.21918260493E+02  0.24901099191E+02  0.00000000000E+00 0.  1.
</event>
<event>
 7    1  0.5832130E-012  0.5930194E+02  0.7816164E-02  0.1266605E+00
        -11   -1    0    0    0    0  0.00000000000E+00  0.00000000000E+00  0.45593999997E+02  0.45594000000E+02  0.51100000000E-03 0. -1.
         11   -1    0    0    0    0 -0.00000000000E+00 -0.00000000000E+00 -0.45593999997E+02  0.45594000000E+02  0.51100000000E-03 0.  1.
    9900012    2    1    2    0    0 -0.21514654010E+02  0.22894104505E+02 -0.54498000917E+01  0.59301942243E+02  0.49999996745E+02 0.  0.
         12    1    1    2    0    0  0.21514654010E+02 -0.22894104505E+02  0.54498000917E+01  0.31886057757E+02  0.00000000000E+00 0. -1.
         11    1    3    3    0    0 -0.14338643161E+02  0.30739880835E+01  0.17857716685E+02  0.23107231247E+02  0.51100000000E-03 0. -1.
        -11    1    3    3    0    0  0.44835747306E+01  0.54644883915E-01 -0.21144190556E+01  0.49574385152E+01  0.51100000000E-03 0.  1.
        -12    1    3    3    0    0 -0.11659585580E+02  0.19765471538E+02 -0.21193097721E+02  0.31237272481E+02  0.00000000000E+00 0.  1.
</event>
<event>
 7    1  0.5832130E-012  0.5930194E+02  0.7816164E-02  0.1266605E+00
        -11   -1    0    0    0    0  0.00000000000E+00  0.00000000000E+00  0.45593999997E+02  0.45594000000E+02  0.51100000000E-03 0.  1.
         11   -1    0    0    0    0 -0.00000000000E+00 -0.00000000000E+00 -0.45593999997E+02  0.45594000000E+02  0.51100000000E-03 0. -1.
    9900012    2    1    2    0    0 -0.12467684784E+02  0.28623012127E+02  0.64807876578E+01  0.59301943553E+02  0.49999999133E+02 0.  0.
         12    1    1    2    0    0  0.12467684784E+02 -0.28623012127E+02 -0.64807876578E+01  0.31886056447E+02  0.00000000000E+00 0. -1.
         11    1    3    3    0    0 -0.21717654250E+01 -0.97684904758E+01  0.38123225606E+01  0.10708584164E+02  0.51100000000E-03 0. -1.
        -11    1    3    3    0    0 -0.64876163205E+01  0.33412852904E+01 -0.88798550040E+01  0.11493701669E+02  0.51100000000E-03 0.  1.
        -12    1    3    3    0    0 -0.38083030386E+01  0.35050217313E+02  0.11548320101E+02  0.37099657719E+02  0.00000000000E+00 0.  1.
</event>
<event>
 7    1  0.5832130E-012  0.5930194E+02  0.7816164E-02  0.1266605E+00
        -11   -1    0    0    0    0  0.00000000000E+00  0.00000000000E+00  0.45593999997E+02  0.45594000000E+02  0.51100000000E-03 0.  1.
         11   -1    0    0    0    0 -0.00000000000E+00 -0.00000000000E+00 -0.45593999997E+02  0.45594000000E+02  0.51100000000E-03 0. -1.
    9900012    2    1    2    0    0 -0.30145782777E+02 -0.29561531637E+01  0.99606039235E+01  0.59301942055E+02  0.49999996401E+02 0.  0.
         12    1    1    2    0    0  0.30145782777E+02  0.29561531637E+01 -0.99606039235E+01  0.31886057945E+02  0.00000000000E+00 0. -1.
         11    1    3    3    0    0  0.39424362625E+00  0.71323248189E+01 -0.64873582812E+01  0.96494198317E+01  0.51100000000E-03 0. -1.
        -11    1    3    3    0    0 -0.11440825892E+02  0.10398891218E+01 -0.99668274369E+01  0.15208928822E+02  0.51100000000E-03 0.  1.
        -12    1    3    3    0    0 -0.19099200511E+02 -0.11128367104E+02  0.26414789642E+02  0.34443593401E+02  0.00000000000E+00 0.  1.
</event>
